/*--------------------------------*- C++ -*----------------------------------*\
| =========                 |                                                 |
| \\      /  F ield         | OpenFOAM: The Open Source CFD Toolbox           |
|  \\    /   O peration     | Version:  2306                                  |
|   \\  /    A nd           | Website:  www.openfoam.com                      |
|    \\/     M anipulation  |                                                 |
\*---------------------------------------------------------------------------*/
FoamFile
{
    version     2.0;
    format      ascii;
    arch        "LSB;label=32;scalar=64";
    class       volVectorField;
    location    "0.01";
    object      U_0;
}
// * * * * * * * * * * * * * * * * * * * * * * * * * * * * * * * * * * * * * //

dimensions      [0 1 -1 0 0 0 0];

internalField   nonuniform List<vector> 
6400
(
(-0.00014639905 -2.6168253e-07 -5.8154035e-21)
(-0.00014412004 -2.9082296e-07 3.5543697e-22)
(-0.00014183055 -3.1807585e-07 7.1689573e-22)
(-0.00013953279 -3.4357073e-07 -1.0473646e-21)
(-0.00013722886 -3.6745057e-07 2.7933681e-21)
(-0.00013492071 -3.8981556e-07 6.5361403e-23)
(-0.00013261019 -4.1076828e-07 -1.1783952e-21)
(-0.00013029903 -4.3038352e-07 -2.8403934e-22)
(-0.00012798889 -4.4872572e-07 8.1846243e-22)
(-0.00012568133 -4.6584932e-07 1.7808718e-21)
(-0.0001233778 -4.8181442e-07 -5.3776628e-21)
(-0.00012107969 -4.9667711e-07 7.0985762e-22)
(-0.00011878829 -5.1049388e-07 3.410843e-21)
(-0.00011650479 -5.2332087e-07 -2.055406e-21)
(-0.00011423031 -5.3520863e-07 -2.1613581e-22)
(-0.00011196592 -5.4619819e-07 2.6231645e-22)
(-0.00010971257 -5.5633746e-07 -1.5932769e-21)
(-0.00010747117 -5.6567166e-07 -2.3900744e-21)
(-0.00010524255 -5.7423869e-07 4.3611719e-21)
(-0.00010302747 -5.8208531e-07 2.2042719e-21)
(-0.00010082664 -5.8925295e-07 -3.6943198e-21)
(-9.8640692e-05 -5.9577895e-07 7.3865568e-22)
(-9.6470209e-05 -6.0170418e-07 -1.5034608e-21)
(-9.4315714e-05 -6.0705813e-07 1.5845968e-21)
(-9.2177676e-05 -6.1187958e-07 1.8426647e-21)
(-9.0056521e-05 -6.161911e-07 -2.0676423e-21)
(-8.7952621e-05 -6.2003495e-07 1.1744424e-21)
(-8.5866296e-05 -6.2343042e-07 3.0756111e-22)
(-8.3797834e-05 -6.2640342e-07 4.3450386e-22)
(-8.1747479e-05 -6.2898214e-07 -2.3771256e-21)
(-7.9715435e-05 -6.3119138e-07 -2.4743541e-21)
(-7.7701866e-05 -6.3305346e-07 3.4680877e-21)
(-7.5706904e-05 -6.3459572e-07 -2.0404889e-22)
(-7.3730646e-05 -6.3584218e-07 -2.3458861e-22)
(-7.1773157e-05 -6.3681532e-07 1.696411e-21)
(-6.9834473e-05 -6.3753654e-07 -2.229484e-21)
(-6.7914599e-05 -6.3802477e-07 3.1761026e-22)
(-6.6013517e-05 -6.3829376e-07 -7.3384337e-22)
(-6.4131185e-05 -6.3836174e-07 8.388551e-22)
(-6.2267538e-05 -6.3824375e-07 2.0533102e-21)
(-6.042249e-05 -6.3795739e-07 -1.8376578e-21)
(-5.8595929e-05 -6.3751827e-07 -9.5973058e-23)
(-5.6787727e-05 -6.3694276e-07 9.0083846e-22)
(-5.4997739e-05 -6.3624787e-07 2.1080341e-21)
(-5.3225803e-05 -6.3544328e-07 -2.822764e-22)
(-5.147174e-05 -6.3453957e-07 -3.3151208e-21)
(-4.9735361e-05 -6.3354254e-07 -9.5667145e-22)
(-4.8016465e-05 -6.3246698e-07 1.0199182e-21)
(-4.6314836e-05 -6.3132288e-07 1.3607006e-21)
(-4.4630248e-05 -6.301177e-07 -9.7598337e-22)
(-4.2962463e-05 -6.2886988e-07 -6.0150433e-22)
(-4.1311231e-05 -6.275854e-07 3.8307317e-22)
(-3.96763e-05 -6.2627198e-07 -1.5870155e-21)
(-3.8057407e-05 -6.2493683e-07 -5.2824442e-22)
(-3.6454281e-05 -6.2358557e-07 -1.6578953e-22)
(-3.4866652e-05 -6.2222513e-07 1.2511578e-21)
(-3.3294235e-05 -6.2086524e-07 1.5581676e-21)
(-3.1736747e-05 -6.1950824e-07 -3.8905932e-22)
(-3.0193896e-05 -6.1816546e-07 3.3666015e-24)
(-2.8665391e-05 -6.1683328e-07 -2.0374556e-22)
(-2.7150936e-05 -6.1552493e-07 -1.8092641e-22)
(-2.5650233e-05 -6.1423866e-07 7.4676437e-23)
(-2.4162984e-05 -6.1297669e-07 -7.0231124e-22)
(-2.2688888e-05 -6.1174797e-07 5.3317826e-22)
(-2.1227641e-05 -6.1055547e-07 1.049441e-21)
(-1.9778942e-05 -6.0940121e-07 -5.5540764e-22)
(-1.8342487e-05 -6.0828868e-07 -6.4777823e-22)
(-1.6917975e-05 -6.0721441e-07 5.40297e-24)
(-1.550511e-05 -6.0618196e-07 8.6718635e-22)
(-1.4103592e-05 -6.0519369e-07 -6.3139264e-24)
(-1.2713125e-05 -6.0425406e-07 -6.5750742e-22)
(-1.1333414e-05 -6.0336518e-07 -2.4034114e-22)
(-9.9641659e-06 -6.0253085e-07 2.5487098e-22)
(-8.6051014e-06 -6.0173766e-07 1.8079738e-22)
(-7.2559572e-06 -6.009738e-07 -3.0060211e-22)
(-5.9165003e-06 -6.0020938e-07 -1.1286776e-22)
(-4.58659e-06 -5.993587e-07 1.3192174e-22)
(-3.2664291e-06 -5.9829067e-07 7.8976211e-23)
(-1.9567905e-06 -5.9865897e-07 2.6400106e-23)
(-6.4500457e-07 -6.2154583e-07 -9.3402415e-23)
(-0.00016578764 -7.093731e-07 -1.3116807e-23)
(-0.0001632037 -8.070144e-07 1.2306106e-22)
(-0.00016060832 -8.9939656e-07 1.1199369e-21)
(-0.00015800383 -9.8671832e-07 -1.3920418e-21)
(-0.00015539256 -1.0691927e-06 -1.9638334e-22)
(-0.00015277668 -1.146994e-06 1.5413262e-21)
(-0.00015015827 -1.2203141e-06 -2.3046539e-21)
(-0.00014753929 -1.2893309e-06 1.1894595e-22)
(-0.00014492161 -1.3542274e-06 8.6132111e-22)
(-0.00014230698 -1.4151716e-06 2.1577383e-22)
(-0.00013969705 -1.4723404e-06 5.12582e-23)
(-0.00013709336 -1.5259009e-06 -1.6717366e-21)
(-0.00013449737 -1.5760109e-06 1.2962921e-21)
(-0.00013191045 -1.6228326e-06 7.5261229e-22)
(-0.00012933384 -1.6665191e-06 -5.5844152e-22)
(-0.00012676875 -1.7072133e-06 2.9465881e-24)
(-0.00012421625 -1.7450608e-06 -3.0119561e-22)
(-0.00012167738 -1.7802067e-06 5.8451711e-22)
(-0.00011915305 -1.8127793e-06 1.2477386e-22)
(-0.00011664413 -1.8429092e-06 -1.2084596e-21)
(-0.00011415142 -1.870723e-06 7.9343516e-23)
(-0.00011167562 -1.8963394e-06 2.961186e-22)
(-0.0001092174 -1.9198764e-06 5.9566999e-22)
(-0.00010677735 -1.9414468e-06 -7.3810509e-23)
(-0.000104356 -1.9611626e-06 -4.4343015e-22)
(-0.00010195382 -1.9791184e-06 -5.8554622e-22)
(-9.9571232e-05 -1.9954326e-06 2.1649924e-22)
(-9.7208611e-05 -2.0101865e-06 8.6048357e-22)
(-9.4866269e-05 -2.0234788e-06 1.272777e-22)
(-9.2544478e-05 -2.0353992e-06 -1.4267838e-21)
(-9.0243467e-05 -2.046032e-06 9.8617373e-24)
(-8.7963416e-05 -2.0554613e-06 -2.3084251e-22)
(-8.5704473e-05 -2.0637627e-06 7.9091843e-22)
(-8.3466745e-05 -2.0710095e-06 1.0162043e-21)
(-8.1250303e-05 -2.0772753e-06 -8.0522548e-22)
(-7.905519e-05 -2.0826266e-06 -4.2853501e-22)
(-7.6881412e-05 -2.0871303e-06 -4.8680644e-22)
(-7.4728944e-05 -2.0908416e-06 6.0561497e-22)
(-7.2597737e-05 -2.0938314e-06 2.4761854e-22)
(-7.0487712e-05 -2.0961517e-06 -6.4497894e-22)
(-6.8398767e-05 -2.0978564e-06 -2.5158231e-22)
(-6.6330778e-05 -2.0989959e-06 4.1298344e-22)
(-6.42836e-05 -2.0996209e-06 2.8947011e-22)
(-6.2257068e-05 -2.0997759e-06 -7.0943487e-23)
(-6.0250999e-05 -2.0995059e-06 -7.1710632e-22)
(-5.8265188e-05 -2.0988518e-06 -1.2423481e-23)
(-5.6299421e-05 -2.0978511e-06 2.7394525e-23)
(-5.4353467e-05 -2.0965454e-06 4.0741235e-22)
(-5.2427075e-05 -2.0949735e-06 -1.6621235e-22)
(-5.0519988e-05 -2.0931606e-06 -4.7211021e-22)
(-4.8631938e-05 -2.0911477e-06 -8.4730298e-23)
(-4.6762644e-05 -2.088957e-06 3.1630825e-22)
(-4.4911819e-05 -2.0866198e-06 2.0165821e-22)
(-4.3079163e-05 -2.0841588e-06 -1.1305885e-22)
(-4.1264374e-05 -2.0816036e-06 -6.6404946e-22)
(-3.9467135e-05 -2.0789758e-06 9.2924229e-23)
(-3.768713e-05 -2.0763e-06 5.0874559e-22)
(-3.5924036e-05 -2.0735939e-06 2.4066554e-22)
(-3.4177523e-05 -2.0708832e-06 -2.157706e-23)
(-3.2447259e-05 -2.0681756e-06 -2.1618847e-22)
(-3.0732909e-05 -2.0654964e-06 9.3173878e-23)
(-2.9034135e-05 -2.0628608e-06 -2.20967e-23)
(-2.7350599e-05 -2.0602791e-06 6.5357784e-23)
(-2.5681957e-05 -2.0577687e-06 -1.2803119e-22)
(-2.4027867e-05 -2.0553479e-06 -8.8325273e-23)
(-2.2387991e-05 -2.0530181e-06 8.6561502e-23)
(-2.0761984e-05 -2.0508028e-06 4.7405598e-23)
(-1.9149504e-05 -2.0486971e-06 1.2715423e-22)
(-1.7550208e-05 -2.0467184e-06 -3.7452496e-23)
(-1.5963758e-05 -2.0448702e-06 -2.2359114e-22)
(-1.4389818e-05 -2.0431619e-06 5.7014176e-24)
(-1.2828054e-05 -2.0415982e-06 8.0472972e-23)
(-1.1278131e-05 -2.0401807e-06 1.4598282e-22)
(-9.7397257e-06 -2.0389017e-06 -9.5952674e-23)
(-8.2125093e-06 -2.0377469e-06 -9.3230372e-23)
(-6.6961387e-06 -2.0366828e-06 5.6062052e-23)
(-5.1902134e-06 -2.0356109e-06 -2.6942797e-23)
(-3.6940379e-06 -2.0343584e-06 -1.554663e-23)
(-2.2066246e-06 -2.0323073e-06 -1.6971042e-23)
(-7.3064229e-07 -2.028891e-06 -5.7952279e-23)
(-0.00016675138 -1.2001821e-06 2.6165374e-22)
(-0.00016414802 -1.3662057e-06 -9.4534443e-22)
(-0.00016153319 -1.5236253e-06 3.0102335e-22)
(-0.00015890933 -1.6726601e-06 -5.6118743e-22)
(-0.0001562788 -1.8135733e-06 -3.8199525e-22)
(-0.00015364385 -1.9466524e-06 4.6171389e-22)
(-0.00015100655 -2.0721878e-06 -3.9232693e-22)
(-0.0001483689 -2.1904593e-06 4.1779326e-22)
(-0.00014573276 -2.3017578e-06 -3.4550225e-22)
(-0.00014309989 -2.4063549e-06 2.3370585e-22)
(-0.00014047196 -2.5045361e-06 4.5816571e-22)
(-0.00013785052 -2.5965764e-06 -7.9492544e-22)
(-0.00013523702 -2.6827423e-06 8.2749737e-22)
(-0.00013263283 -2.7632989e-06 7.6680327e-23)
(-0.00013003921 -2.8385027e-06 -2.0402082e-22)
(-0.00012745736 -2.908602e-06 5.0615295e-22)
(-0.00012488835 -2.973839e-06 -3.4806044e-22)
(-0.0001223332 -3.0344519e-06 1.679104e-22)
(-0.00011979285 -3.0906736e-06 -5.2602495e-22)
(-0.00011726817 -3.1427224e-06 -2.2953961e-22)
(-0.00011475993 -3.1908102e-06 3.6427773e-22)
(-0.00011226886 -3.2351519e-06 -1.0164866e-22)
(-0.0001097956 -3.2759347e-06 4.752045e-22)
(-0.00010734075 -3.3133589e-06 -6.0617031e-22)
(-0.00010490484 -3.3476062e-06 1.4155095e-22)
(-0.00010248834 -3.3788502e-06 6.4788968e-22)
(-0.00010009165 -3.4072676e-06 -2.6038976e-22)
(-9.7715161e-05 -3.4330158e-06 2.5887835e-22)
(-9.5359171e-05 -3.4562654e-06 -4.617227e-22)
(-9.3023948e-05 -3.4771573e-06 -3.0228442e-22)
(-9.0709718e-05 -3.4958419e-06 3.6092147e-22)
(-8.8416667e-05 -3.5124654e-06 -2.3605235e-22)
(-8.6144935e-05 -3.5271518e-06 1.5786319e-22)
(-8.3894622e-05 -3.5400348e-06 -5.1060448e-24)
(-8.16658e-05 -3.5512298e-06 -1.3370788e-22)
(-7.9458503e-05 -3.5608553e-06 3.1596631e-22)
(-7.7272733e-05 -3.5690268e-06 -1.8074163e-22)
(-7.5108458e-05 -3.5758427e-06 2.7711519e-22)
(-7.2965625e-05 -3.5814161e-06 -1.5989836e-22)
(-7.0844155e-05 -3.5858403e-06 -1.3414638e-22)
(-6.8743943e-05 -3.5892079e-06 3.8163874e-22)
(-6.6664863e-05 -3.591608e-06 -1.9045621e-22)
(-6.4606761e-05 -3.5931281e-06 -7.3959233e-23)
(-6.256947e-05 -3.5938343e-06 -1.9544451e-22)
(-6.0552803e-05 -3.5938103e-06 6.3819852e-23)
(-5.8556552e-05 -3.5931223e-06 4.6926617e-22)
(-5.6580496e-05 -3.591839e-06 -1.0174719e-22)
(-5.4624398e-05 -3.590026e-06 -2.3380154e-23)
(-5.2688009e-05 -3.5877516e-06 -1.6932659e-22)
(-5.0771067e-05 -3.5850683e-06 -1.2026088e-23)
(-4.8873299e-05 -3.5820362e-06 3.5806553e-22)
(-4.6994424e-05 -3.5786992e-06 -2.4523967e-23)
(-4.5134147e-05 -3.5751112e-06 -1.1918184e-22)
(-4.3292165e-05 -3.5713096e-06 -1.9678499e-22)
(-4.1468169e-05 -3.5673479e-06 3.5734945e-23)
(-3.9661844e-05 -3.5632638e-06 1.594969e-22)
(-3.787287e-05 -3.559096e-06 -4.1418248e-23)
(-3.6100917e-05 -3.55488e-06 5.623404e-23)
(-3.4345654e-05 -3.550652e-06 -1.4966619e-22)
(-3.2606746e-05 -3.5464396e-06 -6.7854808e-23)
(-3.0883853e-05 -3.5422701e-06 1.4470686e-22)
(-2.9176637e-05 -3.538177e-06 -9.0453699e-23)
(-2.7484753e-05 -3.5341796e-06 6.9577495e-23)
(-2.5807857e-05 -3.530302e-06 -1.3253103e-22)
(-2.4145603e-05 -3.5265706e-06 2.0209427e-23)
(-2.2497647e-05 -3.5229972e-06 2.6116706e-22)
(-2.0863644e-05 -3.5196083e-06 -1.1063211e-22)
(-1.9243247e-05 -3.5164077e-06 -1.430234e-23)
(-1.7636112e-05 -3.5134213e-06 -9.3330233e-23)
(-1.6041896e-05 -3.5106585e-06 -1.1697087e-23)
(-1.4460259e-05 -3.5081334e-06 2.448713e-22)
(-1.2890865e-05 -3.5058584e-06 -1.3087832e-23)
(-1.1333377e-05 -3.5038323e-06 1.3902047e-23)
(-9.787458e-06 -3.5020578e-06 -1.836287e-22)
(-8.252772e-06 -3.5005347e-06 -4.0223045e-23)
(-6.7289688e-06 -3.4992608e-06 2.5900394e-22)
(-5.2156671e-06 -3.4982347e-06 1.5859344e-24)
(-3.7123481e-06 -3.4975232e-06 -6.2089328e-23)
(-2.2183791e-06 -3.497395e-06 -4.8202465e-23)
(-7.354684e-07 -3.4983429e-06 7.8432727e-23)
(-0.00016698429 -1.7650674e-06 2.1544522e-22)
(-0.00016436958 -2.0014141e-06 -4.285508e-22)
(-0.00016174379 -2.2250898e-06 2.4298255e-22)
(-0.00015910937 -2.4365635e-06 -1.9641823e-22)
(-0.00015646867 -2.6362689e-06 1.6276817e-22)
(-0.0001538239 -2.8246767e-06 4.3507457e-22)
(-0.00015117717 -3.0022427e-06 -5.002448e-22)
(-0.00014853044 -3.1693961e-06 1.7578071e-22)
(-0.00014588558 -3.3265669e-06 -4.6340228e-22)
(-0.00014324435 -3.4741728e-06 -3.0061932e-22)
(-0.0001406084 -3.6126246e-06 1.745694e-22)
(-0.00013797927 -3.7423214e-06 6.8622508e-23)
(-0.00013535842 -3.8636537e-06 7.3104791e-22)
(-0.00013274719 -3.977008e-06 -2.2101119e-22)
(-0.00013014684 -4.0827497e-06 -7.0564292e-24)
(-0.00012755855 -4.1812399e-06 5.0514547e-22)
(-0.0001249834 -4.2728254e-06 -4.4424278e-22)
(-0.0001224224 -4.3578416e-06 2.290686e-22)
(-0.00011987648 -4.4366145e-06 -2.3077088e-22)
(-0.00011734648 -4.5094679e-06 -1.3217559e-23)
(-0.00011483318 -4.5766966e-06 3.8806847e-22)
(-0.0001123373 -4.6386073e-06 -3.4514128e-22)
(-0.00010985948 -4.6954728e-06 2.8818185e-22)
(-0.0001074003 -4.7475792e-06 -4.5944178e-22)
(-0.00010496028 -4.795188e-06 1.020951e-22)
(-0.00010253988 -4.838548e-06 4.8854609e-22)
(-0.0001001395 -4.8779062e-06 -4.9242912e-22)
(-9.7759519e-05 -4.913494e-06 1.7630845e-22)
(-9.5400228e-05 -4.9455468e-06 -3.0447071e-22)
(-9.3061893e-05 -4.9742629e-06 -3.1929778e-22)
(-9.0744727e-05 -4.9998585e-06 9.1282682e-23)
(-8.8448903e-05 -5.022535e-06 5.6530498e-23)
(-8.6174561e-05 -5.0424728e-06 4.6670829e-22)
(-8.3921795e-05 -5.0598688e-06 -1.7382696e-22)
(-8.1690666e-05 -5.0748812e-06 -3.2503319e-22)
(-7.9481199e-05 -5.0876885e-06 2.2244223e-22)
(-7.7293395e-05 -5.0984503e-06 -8.9731059e-23)
(-7.5127219e-05 -5.1073091e-06 2.6079347e-22)
(-7.2982608e-05 -5.1144166e-06 6.4548565e-23)
(-7.085948e-05 -5.1199023e-06 1.245305e-24)
(-6.8757725e-05 -5.1239004e-06 6.5411923e-23)
(-6.6677204e-05 -5.1265376e-06 -2.7173422e-22)
(-6.4617763e-05 -5.1279305e-06 -5.4604498e-24)
(-6.2579231e-05 -5.1281881e-06 4.3467692e-23)
(-6.0561415e-05 -5.1274268e-06 2.2480104e-22)
(-5.8564103e-05 -5.1257455e-06 2.530448e-22)
(-5.6587069e-05 -5.1232368e-06 1.6603023e-23)
(-5.4630072e-05 -5.1199938e-06 9.8413071e-23)
(-5.2692857e-05 -5.1161056e-06 -3.8683866e-22)
(-5.0775161e-05 -5.1116491e-06 9.9462566e-24)
(-4.8876709e-05 -5.1067089e-06 2.5791512e-22)
(-4.699721e-05 -5.1013495e-06 9.9125434e-24)
(-4.5136368e-05 -5.0956493e-06 2.2612217e-22)
(-4.329388e-05 -5.0896637e-06 -1.5700153e-22)
(-4.1469432e-05 -5.083466e-06 -1.8779827e-22)
(-3.9662704e-05 -5.0771016e-06 -1.6478792e-22)
(-3.7873372e-05 -5.0706337e-06 1.1360168e-22)
(-3.6101108e-05 -5.0641049e-06 5.1726095e-23)
(-3.4345578e-05 -5.0575677e-06 -1.3671664e-22)
(-3.2606443e-05 -5.0510647e-06 5.3040507e-23)
(-3.088336e-05 -5.0446364e-06 1.1333367e-22)
(-2.9175985e-05 -5.0383259e-06 -4.7904336e-23)
(-2.7483975e-05 -5.0321596e-06 1.7407333e-22)
(-2.5806984e-05 -5.0261796e-06 8.4429177e-24)
(-2.4144662e-05 -5.0204137e-06 -1.2001546e-22)
(-2.2496659e-05 -5.0148894e-06 7.7580572e-23)
(-2.0862632e-05 -5.0096347e-06 -1.7515906e-22)
(-1.9242232e-05 -5.0046667e-06 9.0614497e-23)
(-1.7635115e-05 -5.0000098e-06 1.8849915e-22)
(-1.6040933e-05 -4.9956854e-06 9.2768509e-23)
(-1.4459342e-05 -4.991706e-06 6.0074818e-23)
(-1.2890009e-05 -4.9880832e-06 -9.9339016e-24)
(-1.133259e-05 -4.9848345e-06 1.0967668e-22)
(-9.7867484e-06 -4.9819617e-06 -2.1571259e-22)
(-8.2521464e-06 -4.9794745e-06 -2.0985479e-23)
(-6.7284433e-06 -4.9773896e-06 1.497998e-22)
(-5.2152948e-06 -4.975723e-06 -3.7102089e-23)
(-3.7122741e-06 -4.9745309e-06 9.554197e-23)
(-2.2188427e-06 -4.9739284e-06 5.4384777e-23)
(-7.3585713e-07 -4.9740079e-06 1.1482742e-22)
(-0.00016726414 -2.3052168e-06 6.4461195e-22)
(-0.00016463448 -2.6116042e-06 -2.9367749e-22)
(-0.0001619943 -2.9014873e-06 3.620769e-22)
(-0.00015934607 -3.1754744e-06 5.7542164e-22)
(-0.00015669209 -3.4341521e-06 4.9543702e-22)
(-0.00015403457 -3.6781326e-06 5.5864441e-22)
(-0.00015137559 -3.9080179e-06 3.0161734e-22)
(-0.00014871712 -4.1243744e-06 4.5715182e-22)
(-0.00014606101 -4.3277594e-06 -5.6997895e-22)
(-0.00014340901 -4.5187277e-06 1.3272498e-22)
(-0.00014076276 -4.6978163e-06 7.873461e-22)
(-0.00013812378 -4.8655448e-06 -1.1976059e-22)
(-0.00013549352 -5.0224227e-06 9.0191189e-22)
(-0.00013287333 -5.1689544e-06 9.9609399e-23)
(-0.00013026443 -5.3056151e-06 -4.0700101e-22)
(-0.000127668 -5.4328724e-06 5.21136e-22)
(-0.0001250851 -5.5511815e-06 -6.5004325e-22)
(-0.00012251674 -5.660978e-06 2.6841162e-22)
(-0.00011996382 -5.7626849e-06 -2.2544438e-22)
(-0.00011742719 -5.8567244e-06 1.1181866e-22)
(-0.0001149076 -5.9434838e-06 -4.4920997e-23)
(-0.00011240577 -6.0233477e-06 -2.784507e-22)
(-0.00010992231 -6.0966865e-06 2.7385404e-22)
(-0.0001074578 -6.1638601e-06 -4.3919654e-22)
(-0.00010501275 -6.2252103e-06 -1.7032732e-22)
(-0.0001025876 -6.2810559e-06 2.1189417e-22)
(-0.00010018276 -6.3317259e-06 -5.3915589e-22)
(-9.7798576e-05 -6.3775162e-06 -1.7830416e-22)
(-9.5435336e-05 -6.4187285e-06 -5.2876341e-22)
(-9.3093293e-05 -6.4556298e-06 -3.6907006e-22)
(-9.0772653e-05 -6.4884972e-06 -2.9899375e-22)
(-8.8473582e-05 -6.5175865e-06 -1.2271303e-22)
(-8.6196202e-05 -6.5431436e-06 4.0700874e-22)
(-8.3940603e-05 -6.5654058e-06 -2.2949694e-22)
(-8.1706837e-05 -6.5845966e-06 -3.7811866e-22)
(-7.9494917e-05 -6.6009357e-06 -3.3893928e-22)
(-7.7304838e-05 -6.6146242e-06 -5.0069533e-22)
(-7.5136559e-05 -6.6258573e-06 1.7466254e-24)
(-7.2990008e-05 -6.6348262e-06 -5.7760571e-23)
(-7.0865093e-05 -6.6417024e-06 -1.8149118e-22)
(-6.8761694e-05 -6.6466594e-06 -7.3272556e-23)
(-6.6679673e-05 -6.6498579e-06 -3.3577704e-23)
(-6.4618866e-05 -6.6514554e-06 4.3983683e-23)
(-6.2579093e-05 -6.651591e-06 -1.5500591e-22)
(-6.0560156e-05 -6.6504099e-06 -1.9066906e-22)
(-5.8561837e-05 -6.648043e-06 -2.7573184e-23)
(-5.6583903e-05 -6.6446137e-06 -2.9098693e-22)
(-5.4626108e-05 -6.6402364e-06 9.4594948e-23)
(-5.2688194e-05 -6.6350303e-06 -8.6360257e-23)
(-5.0769889e-05 -6.6290939e-06 -2.0929458e-22)
(-4.887091e-05 -6.622533e-06 4.5879488e-23)
(-4.6990968e-05 -6.6154373e-06 -6.5122619e-23)
(-4.5129764e-05 -6.6079084e-06 1.4717306e-22)
(-4.3286984e-05 -6.6000152e-06 -1.318562e-22)
(-4.1462311e-05 -6.5918489e-06 -2.1087212e-22)
(-3.9655423e-05 -6.5834714e-06 -4.0005493e-22)
(-3.7865992e-05 -6.5749609e-06 1.3192041e-24)
(-3.6093685e-05 -6.5663803e-06 1.4911934e-22)
(-3.4338166e-05 -6.5577932e-06 -4.4704399e-23)
(-3.2599089e-05 -6.549256e-06 -2.7373997e-23)
(-3.0876108e-05 -6.5408224e-06 1.6674939e-23)
(-2.9168882e-05 -6.5325455e-06 -1.4450042e-22)
(-2.7477061e-05 -6.5244608e-06 -4.4384986e-24)
(-2.580029e-05 -6.5166213e-06 9.3324503e-23)
(-2.4138221e-05 -6.5090635e-06 -1.7420355e-22)
(-2.2490505e-05 -6.5018223e-06 -2.4049371e-23)
(-2.0856794e-05 -6.494933e-06 -8.9891311e-23)
(-1.9236736e-05 -6.4884215e-06 -6.652147e-23)
(-1.7629981e-05 -6.482318e-06 -4.9792566e-24)
(-1.6036182e-05 -6.4766483e-06 3.0874135e-23)
(-1.4454996e-05 -6.4714318e-06 -1.4995271e-23)
(-1.2886078e-05 -6.4666812e-06 2.242708e-24)
(-1.1329087e-05 -6.4624211e-06 1.3458315e-22)
(-9.7836854e-06 -6.4586634e-06 -1.2395851e-22)
(-8.2495376e-06 -6.4554187e-06 -7.1191965e-23)
(-6.7263071e-06 -6.4527115e-06 5.3415269e-23)
(-5.2136651e-06 -6.4505518e-06 -6.0505489e-24)
(-3.7111973e-06 -6.4489719e-06 1.5781366e-23)
(-2.218313e-06 -6.4480106e-06 2.4118056e-23)
(-7.357053e-07 -6.4476194e-06 5.2498002e-23)
(-0.00016761484 -2.8582508e-06 3.427217e-22)
(-0.00016496641 -3.2339875e-06 -2.4789304e-23)
(-0.00016230815 -3.5894265e-06 -2.4330233e-22)
(-0.00015964254 -3.9253239e-06 -2.2595996e-22)
(-0.00015697186 -4.2424125e-06 2.3525412e-22)
(-0.00015429829 -4.5414404e-06 -2.6613604e-22)
(-0.00015162391 -4.8231419e-06 -4.3156979e-23)
(-0.00014895068 -5.088219e-06 7.9262124e-22)
(-0.00014628044 -5.3373661e-06 -1.805515e-22)
(-0.0001436149 -5.5712599e-06 1.1004858e-23)
(-0.0001409557 -5.7905665e-06 1.8657013e-23)
(-0.00013830436 -5.995923e-06 -5.8838514e-22)
(-0.0001356623 -6.1879613e-06 7.4160078e-22)
(-0.00013303084 -6.3672928e-06 8.6493186e-24)
(-0.00013041121 -6.5345108e-06 -1.9013974e-22)
(-0.00012780456 -6.6901877e-06 8.3409068e-23)
(-0.00012521194 -6.8348845e-06 -6.0803883e-22)
(-0.00012263434 -6.9691401e-06 -1.2489302e-22)
(-0.00012007265 -7.0934741e-06 1.1372608e-22)
(-0.00011752769 -7.2083967e-06 -6.1286674e-23)
(-0.00011500022 -7.3143963e-06 2.9524928e-23)
(-0.00011249092 -7.411937e-06 3.8874206e-23)
(-0.00011000039 -7.501482e-06 4.8909538e-22)
(-0.0001075292 -7.5834672e-06 -1.6655944e-22)
(-0.00010507785 -7.6583091e-06 1.0018288e-22)
(-0.00010264676 -7.7264061e-06 5.131388e-22)
(-0.00010023633 -7.7881624e-06 -1.012761e-22)
(-9.7846876e-05 -7.843943e-06 1.0712509e-22)
(-9.5478693e-05 -7.8941069e-06 -4.223155e-22)
(-9.3132014e-05 -7.9389978e-06 -1.7278624e-22)
(-9.0807028e-05 -7.9789498e-06 -1.2368997e-22)
(-8.8503888e-05 -8.0142731e-06 -5.818202e-23)
(-8.6222709e-05 -8.045274e-06 -2.3712539e-22)
(-8.3963566e-05 -8.0722409e-06 -1.1596306e-22)
(-8.1726498e-05 -8.0954531e-06 2.5839489e-22)
(-7.951152e-05 -8.1151695e-06 -4.3829505e-23)
(-7.7318606e-05 -8.1316449e-06 -4.0585856e-22)
(-7.5147699e-05 -8.14512e-06 2.9777612e-23)
(-7.2998726e-05 -8.155823e-06 -2.3627026e-23)
(-7.0871585e-05 -8.1639703e-06 -8.8041145e-23)
(-6.8766143e-05 -8.169773e-06 1.378418e-22)
(-6.6682254e-05 -8.1734261e-06 1.3640025e-22)
(-6.4619747e-05 -8.1751274e-06 1.1445976e-22)
(-6.257843e-05 -8.1750434e-06 -1.9614678e-23)
(-6.0558099e-05 -8.1733526e-06 -8.3575582e-23)
(-5.8558528e-05 -8.1702153e-06 -6.2903527e-23)
(-5.6579478e-05 -8.1657843e-06 -2.1883062e-22)
(-5.46207e-05 -8.1601976e-06 1.767826e-22)
(-5.2681922e-05 -8.1536032e-06 -7.6729088e-23)
(-5.0762867e-05 -8.1461242e-06 6.3718628e-24)
(-4.8863247e-05 -8.1378826e-06 1.6794386e-22)
(-4.6982766e-05 -8.1289991e-06 5.1382999e-23)
(-4.5121116e-05 -8.1195864e-06 1.1042191e-22)
(-4.3277984e-05 -8.1097386e-06 -2.5518842e-23)
(-4.1453047e-05 -8.0995581e-06 6.1631172e-23)
(-3.9645973e-05 -8.0891309e-06 -2.4424256e-22)
(-3.7856433e-05 -8.078543e-06 8.6410174e-24)
(-3.6084088e-05 -8.0678817e-06 1.7459473e-23)
(-3.4328592e-05 -8.057216e-06 -3.482631e-23)
(-3.2589603e-05 -8.0466248e-06 -5.6904221e-23)
(-3.0866769e-05 -8.0361612e-06 2.1544565e-23)
(-2.915974e-05 -8.0258993e-06 -1.2340251e-22)
(-2.7468164e-05 -8.0158808e-06 -1.5244725e-23)
(-2.5791688e-05 -8.0061692e-06 1.4070372e-22)
(-2.4129954e-05 -7.9968097e-06 3.4562939e-23)
(-2.2482612e-05 -7.9878426e-06 1.5300785e-22)
(-2.084931e-05 -7.9793158e-06 2.6654011e-23)
(-1.9229693e-05 -7.9712568e-06 4.9412567e-24)
(-1.7623407e-05 -7.9637079e-06 -7.2966861e-23)
(-1.6030102e-05 -7.9566939e-06 -1.1918586e-22)
(-1.4449433e-05 -7.9502401e-06 -3.0149797e-23)
(-1.2881052e-05 -7.9443726e-06 -1.1419966e-22)
(-1.1324617e-05 -7.9391108e-06 1.9392464e-22)
(-9.7797871e-06 -7.9344749e-06 8.2874606e-23)
(-8.2462243e-06 -7.9304803e-06 2.9288706e-23)
(-6.7235961e-06 -7.9271481e-06 1.0734423e-22)
(-5.2115806e-06 -7.9244857e-06 -5.8350292e-23)
(-3.7097604e-06 -7.9225086e-06 -2.7438899e-24)
(-2.2174903e-06 -7.9212322e-06 -5.8735251e-23)
(-7.3543804e-07 -7.9206076e-06 2.7079102e-23)
(-0.00016803659 -3.4277522e-06 8.3079676e-23)
(-0.00016536553 -3.8723655e-06 5.9219246e-22)
(-0.00016268549 -4.2928825e-06 4.8301959e-22)
(-0.00015999892 -4.6902122e-06 -5.8711133e-24)
(-0.0001573081 -5.0652327e-06 6.46559e-22)
(-0.0001546152 -5.4188292e-06 -2.315775e-22)
(-0.00015192227 -5.7518691e-06 -1.0432402e-22)
(-0.00014923125 -6.0651942e-06 1.5549603e-21)
(-0.00014654396 -6.3596295e-06 1.5546424e-22)
(-0.00014386213 -6.6359821e-06 3.5997557e-23)
(-0.00014118734 -6.8950411e-06 6.615638e-22)
(-0.00013852111 -7.1375686e-06 1.0778607e-22)
(-0.00013586483 -7.3643159e-06 5.5571703e-22)
(-0.00013321981 -7.5760061e-06 -2.8861858e-22)
(-0.00013058726 -7.7733459e-06 -4.059725e-22)
(-0.00012796831 -7.9570181e-06 4.1999633e-22)
(-0.000125364 -8.1276855e-06 -4.1929565e-22)
(-0.00012277528 -8.2859918e-06 4.6681143e-22)
(-0.00012020304 -8.4325544e-06 -9.0535539e-23)
(-0.00011764807 -8.5679778e-06 6.1941281e-23)
(-0.00011511111 -8.6928367e-06 -1.639061e-22)
(-0.00011259282 -8.8076936e-06 -2.8573054e-22)
(-0.0001100938 -8.9130863e-06 3.238069e-23)
(-0.00010761459 -9.0095341e-06 -3.449265e-22)
(-0.00010515566 -9.0975332e-06 -2.9247637e-22)
(-0.00010271743 -9.1775606e-06 -4.7029858e-23)
(-0.00010030028 -9.2500868e-06 -4.3211895e-22)
(-9.7904505e-05 -9.3155577e-06 -1.7613455e-22)
(-9.5530381e-05 -9.3743813e-06 -1.8587377e-22)
(-9.3178126e-05 -9.4269809e-06 -1.9322624e-22)
(-9.084792e-05 -9.4737441e-06 -3.9892849e-22)
(-8.85399e-05 -9.5150459e-06 1.7108297e-23)
(-8.6254161e-05 -9.5512358e-06 9.8200361e-23)
(-8.3990768e-05 -9.5826671e-06 -2.7898336e-22)
(-8.1749751e-05 -9.6096641e-06 -1.5040915e-22)
(-7.9531098e-05 -9.6325362e-06 -2.0306405e-22)
(-7.7334778e-05 -9.651583e-06 -2.7193111e-22)
(-7.5160729e-05 -9.6670929e-06 -2.9393403e-22)
(-7.3008855e-05 -9.6793333e-06 -1.9966558e-22)
(-7.0879042e-05 -9.6885626e-06 -1.3884851e-22)
(-6.8771153e-05 -9.6950274e-06 -1.7327136e-23)
(-6.6685026e-05 -9.6989689e-06 -1.0129981e-22)
(-6.4620482e-05 -9.700604e-06 -1.0155121e-22)
(-6.2577323e-05 -9.7001431e-06 2.8430328e-23)
(-6.0555328e-05 -9.6977913e-06 -2.173089e-22)
(-5.8554265e-05 -9.6937411e-06 -2.6239529e-22)
(-5.6573887e-05 -9.6881692e-06 -3.758438e-22)
(-5.461393e-05 -9.6812468e-06 -1.1520471e-22)
(-5.267412e-05 -9.6731372e-06 -2.1209552e-22)
(-5.0754172e-05 -9.6639965e-06 -5.2911847e-23)
(-4.8853791e-05 -9.6539656e-06 8.1089115e-23)
(-4.6972673e-05 -9.6431847e-06 -1.7273682e-23)
(-4.5110503e-05 -9.6317861e-06 -1.2920937e-22)
(-4.3266957e-05 -9.6198861e-06 -1.3221829e-22)
(-4.1441709e-05 -9.6076009e-06 -1.4651501e-24)
(-3.9634422e-05 -9.5950377e-06 -3.0120637e-22)
(-3.7844757e-05 -9.5822945e-06 4.6176045e-23)
(-3.6072372e-05 -9.5694756e-06 -1.7808378e-22)
(-3.4316916e-05 -9.5566601e-06 -2.1698931e-22)
(-3.257804e-05 -9.5439458e-06 4.9508172e-23)
(-3.0855388e-05 -9.5313895e-06 3.9784041e-23)
(-2.9148607e-05 -9.5190801e-06 -7.1237228e-23)
(-2.7457337e-05 -9.5070742e-06 -1.0211285e-22)
(-2.5781219e-05 -9.4954379e-06 5.3662987e-24)
(-2.4119901e-05 -9.4842275e-06 -1.1499787e-22)
(-2.2473017e-05 -9.4734893e-06 7.589048e-23)
(-2.0840214e-05 -9.4632858e-06 -6.600959e-23)
(-1.9221133e-05 -9.4536419e-06 -7.2788922e-23)
(-1.7615418e-05 -9.4446104e-06 8.8369151e-23)
(-1.6022719e-05 -9.4362193e-06 9.2221257e-24)
(-1.4442679e-05 -9.4285032e-06 -1.1799994e-22)
(-1.2874956e-05 -9.421491e-06 -9.8783158e-23)
(-1.1319197e-05 -9.4152057e-06 5.1578238e-23)
(-9.7750578e-06 -9.409671e-06 -7.8209484e-23)
(-8.2422075e-06 -9.4049032e-06 4.7013089e-23)
(-6.7203064e-06 -9.4009247e-06 8.6605343e-23)
(-5.2090351e-06 -9.3977381e-06 -2.0962157e-23)
(-3.7079739e-06 -9.3953538e-06 -2.6378184e-23)
(-2.2164275e-06 -9.393786e-06 -4.7384473e-23)
(-7.3507961e-07 -9.3929955e-06 6.4894708e-23)
(-0.00016852892 -4.0166358e-06 -1.6311732e-22)
(-0.00016583137 -4.5295767e-06 7.6035755e-22)
(-0.00016312582 -5.0146194e-06 4.3330733e-23)
(-0.00016041472 -5.4728168e-06 -4.4296787e-22)
(-0.00015770033 -5.9052056e-06 5.7541253e-22)
(-0.00015498479 -6.3128043e-06 -3.7027622e-22)
(-0.00015227014 -6.6966199e-06 6.2930906e-23)
(-0.00014955831 -7.0576309e-06 5.0151271e-22)
(-0.0001468511 -7.396798e-06 -5.1124793e-22)
(-0.0001441502 -7.7150541e-06 5.3894327e-22)
(-0.00014145718 -8.0133181e-06 2.3282397e-22)
(-0.00013877354 -8.2924755e-06 -5.6522264e-22)
(-0.00013610064 -8.5533991e-06 -1.8681437e-23)
(-0.00013343978 -8.7969257e-06 -2.2782251e-22)
(-0.00013079213 -9.0238735e-06 3.5137981e-22)
(-0.00012815882 -9.2350393e-06 4.1441682e-22)
(-0.00012554084 -9.4311889e-06 -1.8878394e-22)
(-0.00012293914 -9.6130645e-06 2.9159545e-22)
(-0.00012035457 -9.7813844e-06 1.9208005e-22)
(-0.00011778791 -9.9368516e-06 -1.1974061e-22)
(-0.00011523988 -1.0080128e-05 -7.6440697e-23)
(-0.0001127111 -1.0211869e-05 -1.545507e-22)
(-0.00011020217 -1.0332688e-05 2.7342797e-22)
(-0.0001077136 -1.0443191e-05 -1.4520951e-22)
(-0.00010524584 -1.0543955e-05 -5.69086e-23)
(-0.00010279928 -1.0635531e-05 2.4550624e-22)
(-0.00010037428 -1.0718462e-05 -1.3135023e-22)
(-9.7971135e-05 -1.0793261e-05 6.3096978e-23)
(-9.559009e-05 -1.0860406e-05 -8.1876043e-23)
(-9.3231345e-05 -1.0920384e-05 7.2226941e-23)
(-9.0895057e-05 -1.0973637e-05 -1.1837324e-22)
(-8.8581352e-05 -1.1020606e-05 3.1389439e-22)
(-8.6290307e-05 -1.1061691e-05 2.0763758e-22)
(-8.4021967e-05 -1.1097301e-05 -2.987542e-22)
(-8.1776344e-05 -1.1127805e-05 4.4328324e-23)
(-7.9553421e-05 -1.1153571e-05 -8.1112908e-23)
(-7.7353146e-05 -1.1174938e-05 -8.315207e-23)
(-7.5175435e-05 -1.1192239e-05 6.411798e-23)
(-7.3020188e-05 -1.1205786e-05 5.391172e-23)
(-7.0887276e-05 -1.1215876e-05 8.3173567e-23)
(-6.8776544e-05 -1.1222793e-05 2.057904e-23)
(-6.668782e-05 -1.1226816e-05 -8.5321575e-24)
(-6.4620917e-05 -1.1228193e-05 5.516059e-23)
(-6.2575616e-05 -1.122717e-05 -3.3234861e-23)
(-6.0551689e-05 -1.122398e-05 9.5544413e-23)
(-5.8548896e-05 -1.1218846e-05 7.1257035e-23)
(-5.6566978e-05 -1.1211974e-05 -2.9034012e-22)
(-5.4605662e-05 -1.1203561e-05 1.4295886e-22)
(-5.2664666e-05 -1.1193792e-05 -7.271791e-23)
(-5.0743691e-05 -1.1182849e-05 3.2430759e-23)
(-4.8842436e-05 -1.1170897e-05 2.0675847e-22)
(-4.6960585e-05 -1.1158092e-05 -9.7522969e-23)
(-4.5097816e-05 -1.114459e-05 -1.1668917e-22)
(-4.3253799e-05 -1.1130525e-05 -3.7779576e-23)
(-4.1428199e-05 -1.1116029e-05 1.4960455e-22)
(-3.9620676e-05 -1.110123e-05 -2.0353331e-22)
(-3.7830878e-05 -1.1086236e-05 2.6606099e-22)
(-3.605846e-05 -1.107117e-05 -3.6671245e-23)
(-3.4303063e-05 -1.1056124e-05 -7.5803805e-23)
(-3.2564333e-05 -1.1041199e-05 1.4363428e-22)
(-3.0841906e-05 -1.1026481e-05 7.5577304e-23)
(-2.9135423e-05 -1.1012052e-05 -1.7523143e-23)
(-2.7444521e-05 -1.0997993e-05 -2.851567e-23)
(-2.5768837e-05 -1.0984369e-05 1.8589714e-22)
(-2.410801e-05 -1.0971251e-05 -1.6373951e-22)
(-2.2461672e-05 -1.0958694e-05 7.5635714e-24)
(-2.0829462e-05 -1.0946757e-05 5.7202286e-23)
(-1.9211021e-05 -1.0935486e-05 -9.9435167e-24)
(-1.7605986e-05 -1.092493e-05 6.8465512e-23)
(-1.6014e-05 -1.0915128e-05 6.1190083e-23)