/*--------------------------------*- C++ -*----------------------------------*\
| =========                 |                                                 |
| \\      /  F ield         | OpenFOAM: The Open Source CFD Toolbox           |
|  \\    /   O peration     | Version:  2306                                  |
|   \\  /    A nd           | Website:  www.openfoam.com                      |
|    \\/     M anipulation  |                                                 |
\*---------------------------------------------------------------------------*/
FoamFile
{
    version     2.0;
    format      ascii;
    arch        "LSB;label=32;scalar=64";
    class       volVectorField;
    location    "0.18";
    object      U;
}
// * * * * * * * * * * * * * * * * * * * * * * * * * * * * * * * * * * * * * //

dimensions      [0 1 -1 0 0 0 0];

internalField   nonuniform List<vector> 
51200
(
(-2.1911399e-05 9.6685191e-06 5.7674705e-20)
(-5.4516379e-05 1.4897561e-05 -2.2017856e-21)
(-9.2264118e-05 1.5226803e-05 -1.7656003e-20)
(-0.00012938232 1.5892138e-05 7.9528529e-21)
(-0.00016798421 1.6248667e-05 1.4011526e-20)
(-0.00020647884 1.6307291e-05 -1.0658944e-20)
(-0.0002447002 1.6285983e-05 -2.7792838e-21)
(-0.0002825968 1.6215252e-05 1.5708263e-20)
(-0.00032011998 1.6110738e-05 1.2710743e-20)
(-0.00035722684 1.5982351e-05 -2.5364948e-20)
(-0.00039387933 1.5834848e-05 -3.2201263e-20)
(-0.00043004109 1.5670465e-05 3.8453829e-20)
(-0.00046567603 1.5490483e-05 4.4875669e-21)
(-0.00050074809 1.5295743e-05 -3.8219111e-20)
(-0.00053522167 1.5086841e-05 -1.4876996e-20)
(-0.00056906176 1.4864206e-05 1.5464694e-20)
(-0.00060223412 1.4628196e-05 2.7180375e-20)
(-0.0006347055 1.4379055e-05 -1.1222953e-20)
(-0.00066644371 1.4116919e-05 -2.5142489e-20)
(-0.0006974178 1.3841761e-05 9.2680036e-21)
(-0.00072759812 1.3553324e-05 4.9033352e-22)
(-0.00075695635 1.3250997e-05 -8.3601094e-21)
(-0.00078546554 1.2933617e-05 3.7896343e-20)
(-0.00081310016 1.2599177e-05 8.2792764e-20)
(-0.00083983635 1.2244613e-05 1.2083415e-19)
(-0.00086565485 1.1865976e-05 -6.1467416e-20)
(-0.00089055244 1.1462747e-05 -2.6392133e-19)
(-0.00091452193 1.1059875e-05 -5.1728812e-20)
(-0.00093753123 1.0679227e-05 1.2326384e-19)
(-0.00095955152 1.0318743e-05 1.1518941e-19)
(-0.00098057031 9.9726712e-06 9.4369259e-20)
(-0.0010005804 9.6366649e-06 -1.7821274e-20)
(-0.0010195761 9.3079102e-06 1.1311948e-20)
(-0.0010375533 8.9846933e-06 -1.3214461e-19)
(-0.0010545086 8.6660097e-06 -1.7852467e-19)
(-0.0010704406 8.3512953e-06 1.8971094e-19)
(-0.0010853493 8.0402736e-06 3.5349232e-20)
(-0.0010992365 7.7328467e-06 -3.7335179e-19)
(-0.0011121055 7.429028e-06 1.1343458e-19)
(-0.0011239616 7.1289027e-06 5.252252e-19)
(-0.0011348117 6.8325994e-06 1.1237167e-19)
(-0.0011446642 6.5402831e-06 -2.5748823e-19)
(-0.0011535291 6.2521322e-06 -3.3573467e-19)
(-0.001161418 5.9683321e-06 -2.5572195e-19)
(-0.0011683438 5.6890775e-06 1.9169603e-19)
(-0.001174321 5.4145605e-06 7.2730937e-19)
(-0.001179365 5.1449719e-06 7.5282741e-21)
(-0.0011834928 4.8804939e-06 -2.7143004e-19)
(-0.0011867222 4.6213079e-06 -2.3252137e-19)
(-0.0011890723 4.3675767e-06 -6.7984645e-19)
(-0.001190563 4.1194587e-06 3.7338431e-19)
(-0.001191215 3.877098e-06 4.5296854e-19)
(-0.00119105 3.6406269e-06 -5.8282536e-20)
(-0.0011900904 3.4101712e-06 2.4423071e-19)
(-0.0011883589 3.1858351e-06 -5.3967061e-19)
(-0.0011858791 2.9677043e-06 -4.2471588e-19)
(-0.001182675 2.7558737e-06 5.0263209e-19)
(-0.0011787708 2.5504045e-06 1.4752233e-19)
(-0.0011741911 2.3513415e-06 -9.6825666e-20)
(-0.0011689608 2.1587408e-06 8.733131e-20)
(-0.0011631049 1.9726228e-06 -3.1548707e-20)
(-0.0011566484 1.7930096e-06 -1.2091735e-20)
(-0.0011496165 1.6199133e-06 -2.7556429e-20)
(-0.0011420342 1.4533457e-06 -1.5651794e-19)
(-0.0011339265 1.2933073e-06 -3.0246808e-19)
(-0.0011253182 1.1398173e-06 -3.2150183e-20)
(-0.0011162339 9.9290911e-07 5.7552781e-19)
(-0.0011066979 8.5264739e-07 -2.5287671e-20)
(-0.0010967343 7.1917673e-07 -2.3663161e-19)
(-0.0010863668 5.9273838e-07 5.2618157e-19)
(-0.0010756187 4.737784e-07 -7.4901699e-20)
(-0.0010645133 3.6302877e-07 -3.8664988e-19)
(-0.0010530732 2.6149474e-07 8.2401698e-20)
(-0.001041321 1.7007565e-07 1.5211081e-19)
(-0.0010292784 8.9484551e-08 1.6474592e-19)
(-0.0010169636 1.9900028e-08 -3.5563873e-19)
(-0.0010043878 -4.6109777e-08 -3.2260802e-19)
(-0.00099155687 -1.3257997e-07 3.2268834e-19)
(-0.00097851632 -2.6758835e-07 3.938999e-19)
(-0.00096530492 -4.0680052e-07 -1.5503755e-19)
(-0.00095192236 -5.3816567e-07 -5.6534677e-19)
(-0.0009383803 -6.6002057e-07 2.0530804e-19)
(-0.00092469465 -7.7261456e-07 4.0806758e-19)
(-0.00091088156 -8.7681826e-07 5.7624402e-21)
(-0.00089695665 -9.7354182e-07 1.3686488e-19)
(-0.00088293486 -1.0635382e-06 -1.7876473e-19)
(-0.00086883043 -1.1474136e-06 -3.0441859e-21)
(-0.00085465696 -1.2256519e-06 -8.0589293e-21)
(-0.00084042739 -1.298655e-06 -2.8227096e-19)
(-0.00082615404 -1.3667642e-06 1.3304613e-19)
(-0.00081184864 -1.4302755e-06 -2.013236e-19)
(-0.00079752229 -1.4894489e-06 -1.3568781e-19)
(-0.00078318556 -1.5445255e-06 3.0692185e-19)
(-0.00076884844 -1.59573e-06 1.5077175e-19)
(-0.00075452035 -1.6432607e-06 -4.3314094e-20)
(-0.00074021021 -1.6873174e-06 -3.0558632e-19)
(-0.00072592638 -1.728075e-06 6.0041272e-21)
(-0.00071167676 -1.7657101e-06 2.1640294e-19)
(-0.00069746873 -1.800384e-06 1.7895483e-19)
(-0.00068330919 -1.8322549e-06 -4.2348411e-20)
(-0.00066920459 -1.8614711e-06 -3.5937637e-19)
(-0.00065516094 -1.8881729e-06 7.5759672e-20)
(-0.0006411838 -1.9125011e-06 1.3883419e-19)
(-0.00062727833 -1.9345868e-06 1.0509615e-19)
(-0.00061344928 -1.9545514e-06 3.4447217e-21)
(-0.00059970103 -1.9725171e-06 -3.4604715e-19)
(-0.00058603758 -1.9886015e-06 7.7595257e-20)
(-0.00057246258 -2.0029081e-06 2.0830409e-19)
(-0.00055897933 -2.0155521e-06 3.3772152e-20)
(-0.00054559083 -2.0266254e-06 1.3997196e-20)
(-0.00053229973 -2.0362347e-06 -2.5003864e-19)
(-0.00051910842 -2.0444626e-06 -7.2592573e-20)
(-0.00050601899 -2.051404e-06 1.5239798e-19)
(-0.00049303327 -2.0571407e-06 3.5621055e-20)
(-0.00048015282 -2.0617587e-06 3.5249331e-20)
(-0.00046737895 -2.0653304e-06 -5.085611e-20)
(-0.00045471277 -2.0679268e-06 7.851666e-21)
(-0.00044215515 -2.0696265e-06 5.6419889e-20)
(-0.00042970674 -2.0704902e-06 -2.3441298e-21)
(-0.00041736801 -2.0705823e-06 3.8501542e-20)
(-0.00040513926 -2.0699674e-06 -6.4931529e-20)
(-0.00039302058 -2.0687002e-06 -2.7415374e-20)
(-0.00038101191 -2.0668361e-06 6.0055983e-20)
(-0.00036911304 -2.0644256e-06 5.9036162e-20)
(-0.00035732362 -2.0615224e-06 4.1107856e-21)
(-0.00034564314 -2.058167e-06 -1.4111814e-19)
(-0.00033407099 -2.0544074e-06 -4.4594322e-20)
(-0.00032260643 -2.0502885e-06 8.8011624e-20)
(-0.00031124859 -2.0458465e-06 4.8597215e-20)
(-0.00029999652 -2.0411158e-06 -2.6890101e-20)
(-0.00028884918 -2.0361364e-06 -5.9809939e-20)
(-0.00027780542 -2.0309369e-06 4.0624879e-21)
(-0.00026686402 -2.0255586e-06 1.4547626e-20)
(-0.00025602368 -2.0200198e-06 -2.3838049e-20)
(-0.00024528304 -2.0143563e-06 -4.5653759e-20)
(-0.00023464066 -2.0085858e-06 4.3325548e-21)
(-0.00022409506 -2.0027389e-06 6.3212899e-20)
(-0.00021364471 -1.9968359e-06 1.9217958e-20)
(-0.00020328802 -1.9909011e-06 2.7037962e-22)
(-0.00019302336 -1.9849463e-06 -5.4043612e-21)
(-0.00018284907 -1.979e-06 -2.3078786e-20)
(-0.00017276348 -1.9730662e-06 1.907186e-20)
(-0.00016276486 -1.9671696e-06 6.5728951e-21)
(-0.00015285147 -1.9613203e-06 -1.8047472e-21)
(-0.00014302157 -1.9555297e-06 1.9357613e-20)
(-0.00013327339 -1.949809e-06 -3.8172616e-20)
(-0.00012360517 -1.944162e-06 -2.0091222e-20)
(-0.00011401517 -1.938594e-06 3.6312353e-20)
(-0.00010450164 -1.9330935e-06 2.2698409e-20)
(-9.5062928e-05 -1.9276392e-06 -9.7336011e-21)
(-8.5697458e-05 -1.9221639e-06 -2.9801675e-20)
(-7.6403896e-05 -1.9165019e-06 -9.0000483e-21)
(-6.7181398e-05 -1.910259e-06 1.8984503e-20)
(-5.803021e-05 -1.9024674e-06 7.2412778e-21)
(-4.8952999e-05 -1.8908857e-06 -5.847647e-21)
(-3.9957604e-05 -1.8709231e-06 -8.0858497e-21)
(-3.1062129e-05 -1.8360056e-06 -2.1634983e-21)
(-2.2297715e-05 -1.7926055e-06 3.4408769e-21)
(-1.363197e-05 -1.8802067e-06 5.7622322e-22)
(-4.6296176e-06 -2.6451355e-06 -3.8300876e-21)
(-5.3055071e-05 0.00012737118 4.4941938e-20)
(-0.00012181592 0.00013382706 -1.6878626e-21)
(-0.00020037816 0.00013540745 1.0017049e-20)
(-0.00027719962 0.00013713925 4.9042926e-20)
(-0.00035634423 0.00013790518 3.395561e-20)
(-0.00043527171 0.00013790835 -1.3712013e-20)
(-0.00051370859 0.00013754321 4.4894917e-20)
(-0.00059156906 0.00013694277 3.2042771e-20)
(-0.00066873705 0.00013616495 -2.1122061e-20)
(-0.00074509634 0.000135242 -1.8928341e-20)
(-0.00082054297 0.0001341918 -6.2177768e-21)
(-0.00089498113 0.00013302474 1.7520696e-20)
(-0.00096832004 0.00013174769 5.8397788e-20)
(-0.0010404728 0.00013036576 9.6033128e-20)
(-0.0011113563 0.00012888315 1.6166405e-20)
(-0.0011808907 0.00012730359 3.1426936e-20)
(-0.0012489995 0.00012563065 1.2865477e-19)
(-0.0013156099 0.00012386775 8.2010435e-21)
(-0.0013806524 0.0001220183 -1.3172194e-19)
(-0.0014440613 0.0001200856 -6.9644991e-20)
(-0.0015057746 0.0001180729 3.4313121e-22)
(-0.0015657345 0.00011598324 1.0156825e-20)
(-0.0016238871 0.00011381936 5.4987198e-20)
(-0.0016801832 0.00011158355 1.6396096e-19)
(-0.0017345781 0.00010927751 1.7171647e-19)
(-0.0017870294 0.00010690257 -1.8876438e-19)
(-0.0018374858 0.00010446273 -3.2441079e-19)
(-0.0018859021 0.0001019793 -1.2203912e-19)
(-0.0019322601 9.9472828e-05 -8.8144982e-20)
(-0.0019765466 9.6947207e-05 3.0075861e-19)
(-0.0020187419 9.4402405e-05 4.5721917e-19)
(-0.0020588288 9.183898e-05 -1.5094659e-19)
(-0.002096794 8.9258593e-05 -3.8160691e-19)
(-0.0021326287 8.6663767e-05 -1.8028198e-19)
(-0.0021663287 8.4057555e-05 1.9712442e-19)
(-0.0021978936 8.1443359e-05 2.1572109e-19)
(-0.0022273273 7.8824769e-05 -3.5965521e-19)
(-0.0022546374 7.6205466e-05 -5.6526651e-19)
(-0.0022798351 7.3589153e-05 5.1464063e-19)
(-0.0023029353 7.0979507e-05 6.9516356e-19)
(-0.0023239563 6.8380142e-05 -7.9475572e-19)
(-0.0023429199 6.579459e-05 -3.3884594e-19)
(-0.0023598508 6.3226273e-05 9.6924913e-19)
(-0.0023747768 6.0678489e-05 1.1905505e-18)
(-0.0023877286 5.8154408e-05 3.4502536e-20)
(-0.0023987394 5.5657051e-05 -1.9392701e-18)
(-0.002407845 5.3189294e-05 -1.1724432e-18)
(-0.0024150835 5.0753854e-05 1.0135699e-18)
(-0.0024204952 4.8353295e-05 9.7089581e-19)
(-0.0024241222 4.5990005e-05 -5.474497e-19)
(-0.0024260085 4.3666215e-05 -9.090152e-19)
(-0.0024261996 4.1383985e-05 8.6474814e-19)
(-0.0024247425 3.91452e-05 1.2361885e-18)
(-0.0024216854 3.6951591e-05 -1.4823109e-19)
(-0.0024170775 3.48047e-05 -7.8366755e-19)
(-0.0024109691 3.2705917e-05 -8.9412e-19)
(-0.002403411 3.065648e-05 -7.9102974e-20)
(-0.0023944547 2.8657437e-05 1.0662704e-18)
(-0.0023841522 2.6709701e-05 3.9780779e-19)
(-0.0023725555 2.4814042e-05 -1.065272e-18)
(-0.002359717 2.2971062e-05 -3.8926667e-19)
(-0.0023456889 2.1181238e-05 1.1005019e-18)
(-0.0023305234 1.9444918e-05 3.3998621e-19)
(-0.0023142723 1.7762317e-05 -1.2027567e-18)
(-0.0022969871 1.6133522e-05 -6.3677681e-19)
(-0.0022787188 1.4558528e-05 6.9340191e-19)
(-0.0022595177 1.3037198e-05 7.2496288e-19)
(-0.0022394334 1.1569308e-05 2.1689288e-19)
(-0.0022185148 1.0154544e-05 -3.6729943e-19)
(-0.0021968098 8.7924883e-06 -8.6969065e-19)
(-0.0021743652 7.4826364e-06 1.2738646e-19)
(-0.0021512271 6.2243532e-06 6.1444118e-19)
(-0.0021274409 5.0168505e-06 -9.3928368e-20)
(-0.0021030517 3.8595456e-06 1.0285474e-19)
(-0.0020781051 2.75217e-06 4.0094119e-19)
(-0.0020526505 1.6940962e-06 9.7390353e-20)
(-0.0020267421 6.7725241e-07 -5.951e-19)
(-0.0020004229 -3.2432731e-07 -5.1568848e-19)
(-0.001973687 -1.313141e-06 2.0222359e-19)
(-0.0019465509 -2.2601136e-06 2.2686111e-19)
(-0.0019190757 -3.1606283e-06 1.0892343e-21)
(-0.0018913049 -4.0157227e-06 1.4080712e-19)
(-0.0018632733 -4.8272227e-06 2.1645953e-19)
(-0.001835013 -5.5970794e-06 -3.3556889e-19)
(-0.0018065544 -6.3270968e-06 -3.5607358e-20)
(-0.0017779264 -7.0189058e-06 3.5309306e-19)
(-0.0017491566 -7.6740124e-06 -3.4572527e-19)
(-0.0017202713 -8.2938214e-06 7.0915007e-20)
(-0.0016912959 -8.8796918e-06 1.9703861e-19)
(-0.0016622541 -9.4329328e-06 -2.2625504e-19)
(-0.0016331688 -9.9548173e-06 -1.8850738e-19)
(-0.0016040616 -1.0446581e-05 -2.0272393e-19)
(-0.001574953 -1.090944e-05 2.6799517e-19)
(-0.0015458622 -1.1344577e-05 1.7032882e-19)
(-0.0015168077 -1.1753148e-05 -1.1320458e-19)
(-0.0014878065 -1.2136293e-05 -4.7456921e-20)
(-0.0014588748 -1.249511e-05 8.7091224e-21)
(-0.0014300278 -1.2830667e-05 2.2174772e-19)
(-0.0014012796 -1.3144027e-05 -3.9708339e-20)
(-0.0013726436 -1.3436203e-05 -3.1502647e-19)
(-0.001344132 -1.3708196e-05 -6.2487225e-20)
(-0.0013157562 -1.3960968e-05 2.2328628e-19)
(-0.0012875269 -1.4195456e-05 2.1857759e-19)
(-0.0012594538 -1.4412573e-05 -1.4102893e-22)
(-0.0012315459 -1.4613189e-05 -2.3207885e-19)
(-0.0012038115 -1.4798171e-05 -2.0830673e-19)
(-0.001176258 -1.4968334e-05 1.1904924e-19)
(-0.0011488923 -1.5124474e-05 3.4790235e-19)
(-0.0011217205 -1.5267363e-05 3.1702747e-20)
(-0.0010947482 -1.5397743e-05 -2.8308149e-19)
(-0.0010679801 -1.5516324e-05 -9.9910512e-20)
(-0.0010414208 -1.5623798e-05 -2.8460489e-20)
(-0.0010150738 -1.5720816e-05 2.2430181e-19)
(-0.00098894254 -1.5808025e-05 2.6070064e-19)
(-0.00096302969 -1.5886035e-05 -1.7479197e-19)
(-0.00093733753 -1.5955426e-05 -2.3517709e-19)
(-0.00091186789 -1.6016756e-05 -3.9380574e-20)
(-0.00088662217 -1.6070574e-05 2.1424378e-19)
(-0.00086160137 -1.6117388e-05 9.1094745e-20)
(-0.0008368061 -1.6157693e-05 -2.5372978e-19)
(-0.00081223663 -1.6191959e-05 -8.284786e-20)
(-0.00078789287 -1.6220632e-05 2.0757016e-19)
(-0.00076377442 -1.624415e-05 1.7634939e-19)
(-0.0007398806 -1.6262911e-05 -8.56774e-20)
(-0.00071621043 -1.6277316e-05 -2.5913322e-19)
(-0.00069276267 -1.6287729e-05 -3.3414956e-20)
(-0.00066953584 -1.6294502e-05 1.7099349e-19)
(-0.00064652823 -1.6297981e-05 1.0236202e-19)
(-0.00062373792 -1.6298474e-05 -3.3211555e-20)
(-0.00060116279 -1.6296282e-05 -1.3949229e-19)
(-0.00057880053 -1.62917e-05 -4.7975463e-20)
(-0.00055664869 -1.6284987e-05 1.5152121e-19)
(-0.00053470464 -1.6276418e-05 1.2900144e-19)
(-0.00051296561 -1.6266222e-05 -6.7055803e-20)
(-0.0004914287 -1.6254631e-05 -1.9440298e-19)
(-0.0004700909 -1.6241858e-05 -1.9949019e-20)
(-0.00044894909 -1.6228108e-05 1.4741287e-19)
(-0.00042800005 -1.6213569e-05 6.009377e-20)
(-0.00040724048 -1.6198424e-05 -2.6521585e-20)
(-0.000386667 -1.6182829e-05 -4.7367002e-20)
(-0.00036627616 -1.6166953e-05 -1.0617663e-20)
(-0.00034606447 -1.6150926e-05 2.0957536e-20)
(-0.00032602837 -1.6134885e-05 2.7681362e-20)
(-0.00030616429 -1.6118954e-05 -1.9020768e-20)
(-0.00028646862 -1.6103235e-05 -5.0780795e-20)
(-0.00026693771 -1.6087826e-05 -7.837088e-21)
(-0.00024756795 -1.60728e-05 3.6936174e-20)
(-0.0002283557 -1.605821e-05 4.540157e-20)
(-0.00020929737 -1.6044069e-05 -1.3393569e-20)
(-0.00019038941 -1.6030323e-05 -5.2801061e-20)
(-0.00017162839 -1.6016797e-05 -5.554076e-21)
(-0.00015301101 -1.6003042e-05 2.9074593e-20)
(-0.00013453419 -1.5988062e-05 1.9716307e-20)
(-0.00011619518 -1.5969682e-05 -8.4619704e-21)
(-9.7991492e-05 -1.5943411e-05 -1.8827008e-20)
(-7.9919961e-05 -1.5901357e-05 -1.7358007e-21)
(-6.1973034e-05 -1.5835329e-05 7.9983636e-21)
(-4.4130262e-05 -1.5757627e-05 3.6679803e-21)
(-2.6355822e-05 -1.5771137e-05 -2.4952392e-21)
(-8.7049819e-06 -1.6212742e-05 -3.6043913e-21)
(-6.8266983e-05 0.0003185973 -8.4827863e-20)
(-0.00015407142 0.0003238629 -5.288759e-20)
(-0.00025178622 0.00032584736 -1.0579774e-20)
(-0.00034664044 0.00032740156 2.259189e-20)
(-0.00044402719 0.00032781492 2.626399e-20)
(-0.0005410342 0.00032729472 -4.0368148e-20)
(-0.00063742554 0.00032617486 4.3249746e-20)
(-0.00073312864 0.00032460889 -6.7538015e-21)
(-0.00082800614 0.00032267549 3.8238181e-20)
(-0.00092190871 0.00032042134 1.2535941e-19)
(-0.0010146995 0.00031787548 5.2502499e-20)
(-0.0011062518 0.00031505711 6.0711471e-20)
(-0.0011964462 0.00031198039 -2.5664383e-20)
(-0.0012851695 0.00030865678 6.6745765e-20)
(-0.001372314 0.00030509641 1.2977752e-19)
(-0.0014577772 0.00030130877 3.7563384e-20)
(-0.0015414617 0.00029730317 8.2972719e-20)
(-0.001623275 0.00029308889 -2.4908629e-20)
(-0.0017031294 0.00028867538 -8.827085e-20)
(-0.0017809423 0.00028407228 3.915175e-20)
(-0.0018566362 0.00027928952 4.0975665e-20)
(-0.0019301386 0.00027433738 1.0732681e-20)
(-0.0020013825 0.00026922649 6.4073474e-20)
(-0.0020703058 0.00026396809 1.323335e-19)
(-0.0021368517 0.00025857403 4.7621023e-20)
(-0.0022009684 0.00025305702 -5.3191717e-20)
(-0.0022626082 0.00024742911 -7.3835167e-20)
(-0.0023217313 0.00024169172 -1.5855033e-19)
(-0.0023783061 0.00023584763 -1.7234011e-19)
(-0.0024323047 0.00022990979 4.3432099e-20)
(-0.0024837021 0.00022389206 1.5059461e-19)
(-0.0025324786 0.00021780714 1.4740303e-20)
(-0.0025786203 0.00021166686 -1.7202243e-19)
(-0.0026221187 0.00020548243 -2.1427324e-19)
(-0.0026629708 0.00019926472 9.2244652e-20)
(-0.0027011789 0.00019302427 1.6880095e-19)
(-0.0027367499 0.00018677139 -4.8544874e-20)
(-0.0027696954 0.00018051612 -9.8714081e-20)
(-0.0028000319 0.00017426824 1.9658228e-20)
(-0.00282778 0.00016803723 -1.0013139e-19)
(-0.0028529644 0.00016183226 -2.8416272e-19)
(-0.0028756143 0.00015566217 1.6478624e-19)
(-0.0028957622 0.00014953542 5.1230105e-19)
(-0.0029134445 0.00014346014 4.8017208e-19)
(-0.0029287011 0.00013744402 -2.6613579e-20)
(-0.0029415748 0.00013149437 -9.7852874e-19)
(-0.0029521117 0.00012561808 -4.3891127e-19)
(-0.0029603603 0.00011982162 3.3606002e-19)
(-0.0029663721 0.00011411106 3.8583025e-19)
(-0.0029702005 0.00010849201 2.8753897e-19)
(-0.0029719012 0.00010296965 -5.0155211e-19)
(-0.0029715316 9.7548761e-05 -1.2349154e-21)
(-0.0029691508 9.2233658e-05 5.5054874e-19)
(-0.0029648195 8.7028256e-05 -5.4019764e-20)
(-0.0029585993 8.1936028e-05 -9.4669178e-20)
(-0.002950553 7.6960058e-05 -2.0009612e-19)
(-0.0029407441 7.2103022e-05 -1.744528e-19)
(-0.0029292368 6.7367174e-05 3.5166429e-19)
(-0.0029160955 6.2754423e-05 9.2686587e-20)
(-0.0029013852 5.8266289e-05 -4.752505e-19)
(-0.0028851705 5.3903928e-05 -1.2686842e-19)
(-0.0028675163 4.9668159e-05 3.6440486e-19)
(-0.0028484869 4.5559484e-05 9.8609818e-20)
(-0.0028281464 4.1578056e-05 -2.3908813e-19)
(-0.0028065584 3.7723754e-05 5.9211277e-20)
(-0.0027837856 3.3996165e-05 1.5884726e-19)
(-0.0027598901 3.0394586e-05 -7.7423155e-20)
(-0.0027349331 2.6918067e-05 5.8949758e-20)
(-0.0027089747 2.3565381e-05 -4.0970467e-20)
(-0.0026820742 2.0335041e-05 -3.3854198e-19)
(-0.0026542898 1.7225275e-05 1.6311654e-20)
(-0.0026256783 1.4233942e-05 2.0000829e-19)
(-0.002596295 1.1358561e-05 -3.7011988e-20)
(-0.0025661934 8.5966736e-06 9.483929e-20)
(-0.0025354259 5.9459322e-06 1.2337383e-19)
(-0.0025040468 3.4040206e-06 8.2302542e-20)
(-0.0024721154 9.7280946e-07 -1.1009869e-19)
(-0.0024396631 -1.3397488e-06 -3.5070184e-19)
(-0.002406719 -3.5189029e-06 -9.6981014e-20)
(-0.0023733401 -5.5927036e-06 2.6312827e-19)
(-0.0023395764 -7.5697055e-06 2.2163655e-19)
(-0.0023054693 -9.4535999e-06 -1.8581317e-19)
(-0.0022710584 -1.1247493e-05 -1.5083061e-19)
(-0.002236382 -1.2954004e-05 -1.3296293e-19)
(-0.0022014766 -1.4575637e-05 -7.9768456e-20)
(-0.0021663774 -1.6114918e-05 1.6762726e-19)
(-0.0021311177 -1.7574411e-05 -1.0663265e-19)
(-0.0020957295 -1.8956695e-05 5.1246091e-20)
(-0.0020602432 -2.02644e-05 2.2981614e-19)
(-0.0020246878 -2.1500142e-05 -9.0255888e-20)
(-0.0019890906 -2.2666541e-05 -9.1379264e-20)
(-0.0019534777 -2.3766199e-05 -3.5049207e-20)
(-0.0019178736 -2.4801697e-05 5.6963946e-20)
(-0.0018823016 -2.5775579e-05 -3.2865337e-20)
(-0.0018467835 -2.6690362e-05 -1.5179704e-20)
(-0.0018113399 -2.7548515e-05 1.7539384e-19)
(-0.0017759902 -2.8352459e-05 -3.787974e-20)
(-0.0017407524 -2.9104556e-05 -7.9068291e-20)
(-0.0017056436 -2.9807139e-05 -1.2003585e-19)
(-0.0016706793 -3.0462463e-05 -6.6051533e-20)
(-0.0016358744 -3.1072745e-05 1.6214605e-19)
(-0.0016012425 -3.1640127e-05 6.7394276e-20)
(-0.001566796 -3.2166699e-05 3.4873401e-20)
(-0.0015325467 -3.2654488e-05 -9.6401257e-20)
(-0.001498505 -3.3105452e-05 -6.7957915e-20)
(-0.0014646808 -3.3521508e-05 1.3750893e-19)
(-0.0014310829 -3.3904489e-05 1.966459e-20)
(-0.0013977193 -3.4256184e-05 1.9958753e-20)
(-0.0013645972 -3.4578301e-05 -4.8397503e-20)
(-0.0013317231 -3.4872512e-05 -1.495943e-19)
(-0.0012991026 -3.5140405e-05 5.2831673e-20)
(-0.0012667408 -3.5383529e-05 6.1977184e-20)
(-0.0012346421 -3.5603353e-05 4.250841e-20)
(-0.0012028101 -3.580131e-05 7.6604018e-20)
(-0.0011712479 -3.5978766e-05 -7.2530764e-20)
(-0.0011399583 -3.6137034e-05 -9.9682513e-20)
(-0.001108943 -3.6277367e-05 -3.6500776e-20)
(-0.0010782037 -3.6400979e-05 7.0777257e-20)
(-0.0010477414 -3.6509018e-05 3.9426824e-20)
(-0.0010175567 -3.6602597e-05 -7.1110306e-20)
(-0.00098764962 -3.6682758e-05 1.0111607e-20)
(-0.00095801999 -3.6750513e-05 6.517723e-20)
(-0.00092866714 -3.6806831e-05 3.2531345e-20)
(-0.00089959009 -3.6852623e-05 -6.2297572e-20)
(-0.0008707875 -3.6888768e-05 -8.5605389e-20)
(-0.00084225772 -3.6916099e-05 4.9335354e-20)
(-0.00081399882 -3.6935399e-05 7.2495181e-20)
(-0.00078600859 -3.6947435e-05 2.0376662e-20)
(-0.00075828458 -3.6952911e-05 -4.2234828e-20)
(-0.00073082409 -3.6952503e-05 -4.217978e-20)
(-0.00070362422 -3.694686e-05 2.7082025e-20)
(-0.00067668185 -3.693659e-05 3.8388325e-20)
(-0.00064999369 -3.6922268e-05 2.8280465e-20)
(-0.00062355628 -3.6904442e-05 -1.3414581e-20)
(-0.00059736601 -3.688362e-05 -4.3231744e-20)
(-0.00057141913 -3.686029e-05 -1.1171299e-20)
(-0.00054571175 -3.6834904e-05 2.9909503e-20)
(-0.00052023987 -3.6807889e-05 2.2270888e-20)
(-0.00049499943 -3.6779648e-05 -1.9066646e-20)
(-0.00046998621 -3.6750555e-05 -1.7228713e-20)
(-0.00044519598 -3.6720963e-05 9.8685582e-21)
(-0.00042062439 -3.669119e-05 -1.1520456e-20)
(-0.00039626709 -3.6661533e-05 5.1738083e-21)
(-0.00037211964 -3.663228e-05 -2.3138436e-21)
(-0.00034817758 -3.6603665e-05 -1.6412929e-20)
(-0.00032443644 -3.657591e-05 1.8550175e-20)
(-0.00030089173 -3.6549204e-05 6.9405868e-21)
(-0.00027753895 -3.6523686e-05 -1.6025699e-21)
(-0.00025437365 -3.6499446e-05 -5.7539433e-21)
(-0.00023139135 -3.6476476e-05 -7.0867403e-21)
(-0.00020858766 -3.6454643e-05 1.8795218e-20)
(-0.00018595818 -3.6433555e-05 1.1885367e-20)
(-0.00016349847 -3.6412416e-05 4.7703425e-22)
(-0.00014120386 -3.6389738e-05 -1.6238412e-20)
(-0.00011906886 -3.636311e-05 -7.4465985e-21)
(-9.7086073e-05 -3.6329989e-05 1.5510923e-20)
(-7.5243117e-05 -3.6293434e-05 5.3008537e-21)
(-5.3516614e-05 -3.6281985e-05 6.0505762e-23)
(-3.1880749e-05 -3.6394395e-05 1.7138382e-21)
(-1.0512128e-05 -3.6805313e-05 8.7225151e-21)
(-7.3625922e-05 0.00052883238 -4.6683387e-19)
(-0.00016681969 0.00053172257 -1.0502497e-19)
(-0.00027262367 0.00053292467 7.5410569e-21)
(-0.00037487481 0.00053358285 -1.1842645e-19)
(-0.00047974873 0.00053318109 5.0964878e-20)
(-0.0005841006 0.00053182663 -6.8099423e-20)
(-0.00068773771 0.00052973237 -4.6626572e-20)
(-0.00079061256 0.00052701992 -2.4951417e-20)
(-0.00089259162 0.0005237627 3.856922e-20)
(-0.00099351906 0.00052000879 9.7337129e-20)
(-0.0010932482 0.00051579147 5.971179e-20)
(-0.0011916414 0.00051113537 7.2015808e-20)
(-0.0012885684 0.00050606027 -5.5786221e-20)
(-0.0013839051 0.00050058336 2.1074303e-20)
(-0.0014775338 0.00049472051 8.4073988e-20)
(-0.0015693425 0.00048848698 -4.2229376e-20)
(-0.001659225 0.0004818979 6.4587345e-20)
(-0.0017470805 0.00047496848 1.6355113e-20)
(-0.0018328137 0.0004677142 -3.2050065e-20)
(-0.0019163351 0.00046015084 4.5025184e-20)
(-0.0019975608 0.00045229452 1.5444497e-20)
(-0.0020764124 0.00044416172 1.1007499e-20)
(-0.0021528174 0.00043576926 6.2309931e-20)
(-0.0022267092 0.00042713425 2.0812072e-20)
(-0.0022980269 0.00041827408 -4.4175396e-20)
(-0.0023667154 0.00040920632 -6.4823218e-20)
(-0.0024327254 0.00039994847 -9.767514e-20)
(-0.0024960144 0.000390517 -2.0435313e-20)
(-0.0025565468 0.00038092961 -1.4119752e-21)
(-0.0026142925 0.00037120587 -3.4990063e-20)
(-0.0026692264 0.00036136509 -5.029366e-20)
(-0.002721329 0.0003514257 -1.3937615e-21)
(-0.0027705864 0.00034140547 8.6335841e-20)
(-0.0028169907 0.00033132169 -5.4265578e-20)
(-0.0028605398 0.00032119132 -1.652474e-19)
(-0.0029012369 0.00031103103 1.8136793e-20)
(-0.0029390906 0.00030085718 1.6068742e-19)
(-0.0029741147 0.00029068576 6.2479969e-20)
(-0.0030063279 0.00028053236 -2.9076453e-20)
(-0.0030357536 0.0002704121 -6.1332697e-20)
(-0.0030624199 0.00026033964 -3.287951e-20)
(-0.0030863589 0.00025032905 6.6178222e-20)
(-0.0031076072 0.00024039388 1.0368375e-19)
(-0.0031262049 0.00023054702 -4.4572355e-20)
(-0.0031421962 0.00022080077 6.3680296e-21)
(-0.0031556283 0.00021116675 -1.1326496e-19)
(-0.0031665517 0.00020165591 -1.4268266e-19)
(-0.0031750199 0.00019227853 3.5184821e-20)
(-0.0031810891 0.00018304419 -2.7424174e-20)
(-0.0031848178 0.00017396176 1.341461e-19)
(-0.0031862667 0.00016503944 5.2642705e-20)
(-0.0031854985 0.0001562847 -1.2274831e-19)
(-0.0031825776 0.00014770433 7.3629607e-20)
(-0.00317757 0.00013930443 3.9723171e-20)
(-0.0031705426 0.00013109042 -1.7400797e-20)
(-0.0031615637 0.00012306703 -3.1172859e-20)
(-0.003150702 0.00011523837 -4.1717974e-20)
(-0.0031380271 0.00010760791 8.7380728e-20)
(-0.003123609 0.00010017847 1.3420978e-21)
(-0.0031075175 9.29523e-05 -1.8492501e-19)
(-0.0030898228 8.5931062e-05 -3.1247878e-20)
(-0.0030705948 7.911587e-05 1.3195503e-19)
(-0.003049903 7.2507309e-05 3.7060268e-20)
(-0.0030278164 6.6105436e-05 -4.2153546e-20)
(-0.0030044034 5.9909866e-05 2.9532543e-20)
(-0.0029797317 5.3919741e-05 1.0848162e-20)
(-0.0029538679 4.8133803e-05 -1.0311797e-19)
(-0.0029268778 4.2550407e-05 -9.4782321e-21)
(-0.0028988258 3.7167571e-05 9.2419896e-21)
(-0.0028697753 3.198303e-05 -1.5750962e-21)
(-0.0028397883 2.6994336e-05 6.6679492e-21)
(-0.0028089254 2.2198916e-05 -3.8157537e-21)
(-0.0027772458 1.7594114e-05 -4.8243045e-20)
(-0.0027448068 1.3176719e-05 -3.2210702e-20)
(-0.0027116647 8.9428719e-06 9.0295126e-20)
(-0.0026778745 4.8887024e-06 3.6913824e-20)
(-0.0026434928 1.0165797e-06 -9.356084e-20)
(-0.0026085661 -2.6604021e-06 -1.5952935e-19)
(-0.002573141 -6.160883e-06 -6.0296631e-20)
(-0.0025372689 -9.5009284e-06 7.1295424e-20)
(-0.0025009938 -1.2684955e-05 1.4838646e-20)
(-0.0024643599 -1.5717373e-05 -9.3343768e-20)
(-0.00242741 -1.8602723e-05 -1.2048536e-20)
(-0.0023901851 -2.1345417e-05 2.2213558e-20)
(-0.0023527242 -2.3949875e-05 9.4571496e-21)
(-0.0023150646 -2.6420512e-05 1.421441e-20)
(-0.002277242 -2.8761759e-05 -8.9960386e-20)
(-0.0022392903 -3.0978015e-05 -3.0680747e-20)
(-0.0022012418 -3.3073679e-05 4.3976817e-20)
(-0.0021631272 -3.5053121e-05 4.8017865e-20)
(-0.0021249756 -3.6920666e-05 -1.2274694e-21)
(-0.0020868146 -3.86806e-05 -7.2418854e-20)
(-0.0020486702 -4.0337149e-05 2.7984173e-20)
(-0.002010567 -4.1894475e-05 2.8370078e-20)
(-0.0019725282 -4.335668e-05 2.6433046e-20)
(-0.0019345756 -4.4727777e-05 5.2448812e-20)
(-0.0018967295 -4.6011699e-05 -7.0847897e-20)
(-0.0018590092 -4.7212299e-05 -4.1463036e-20)
(-0.0018214324 -4.8333329e-05 -8.6779e-23)
(-0.0017840159 -4.937846e-05 3.509832e-21)
(-0.001746775 -5.0351264e-05 5.6777011e-20)
(-0.001709724 -5.1255207e-05 1.1079639e-21)
(-0.0016728763 -5.209367e-05 2.7437399e-21)
(-0.001636244 -5.286992e-05 -1.8186208e-20)
(-0.0015998382 -5.3587125e-05 2.0467785e-20)
(-0.0015636691 -5.424836e-05 5.569962e-20)
(-0.001527746 -5.4856591e-05 -3.0557958e-20)
(-0.0014920772 -5.5414695e-05 -2.0103386e-20)
(-0.0014566703 -5.592543e-05 -4.3171947e-20)
(-0.001421532 -5.6391472e-05 -6.6593686e-20)
(-0.0013866681 -5.6815396e-05 4.4414326e-21)
(-0.0013520839 -5.7199675e-05 5.0234042e-20)
(-0.0013177839 -5.7546688e-05 4.2808644e-20)
(-0.0012837718 -5.7858727e-05 9.7130598e-22)
(-0.0012500509 -5.8137992e-05 -3.3420082e-20)
(-0.0012166237 -5.838659e-05 -2.156555e-20)
(-0.0011834923 -5.8606538e-05 -3.0290722e-20)
(-0.0011506581 -5.8799784e-05 1.2717311e-20)
(-0.0011181221 -5.8968167e-05 2.2576866e-20)
(-0.0010858847 -5.9113472e-05 2.1155451e-20)
(-0.0010539461 -5.9237383e-05 1.5203702e-20)
(-0.0010223057 -5.9341518e-05 -2.4083639e-20)
(-0.00099096281 -5.9427424e-05 -1.0470421e-20)
(-0.00095991624 -5.9496578e-05 1.1428707e-20)
(-0.00092916446 -5.9550373e-05 3.174827e-20)
(-0.00089870562 -5.9590149e-05 2.5832777e-20)
(-0.00086853756 -5.9617168e-05 -6.0811523e-21)
(-0.00083865783 -5.9632656e-05 4.6901721e-21)
(-0.00080906371 -5.9637737e-05 -2.1795116e-20)
(-0.00077975224 -5.9633503e-05 -1.4443804e-21)
(-0.00075072025 -5.9620988e-05 3.2873035e-20)
(-0.00072196432 -5.9601165e-05 1.2289479e-20)
(-0.00069348089 -5.9574959e-05 1.3010693e-20)
(-0.00066526617 -5.9543241e-05 -1.1216445e-20)
(-0.00063731624 -5.9506832e-05 -2.278023e-20)
(-0.00060962703 -5.9466507e-05 -1.9283418e-20)
(-0.00058219434 -5.9422998e-05 9.0066703e-21)
(-0.00055501385 -5.9376982e-05 5.6127054e-21)
(-0.00052808112 -5.9329104e-05 -1.37481e-20)
(-0.00050139164 -5.927997e-05 -4.4106876e-21)
(-0.00047494082 -5.9230136e-05 1.0803558e-20)
(-0.00044872398 -5.9180116e-05 1.1586346e-22)
(-0.00042273639 -5.9130393e-05 1.050524e-20)
(-0.00039697329 -5.9081421e-05 1.8845811e-21)
(-0.00037142987 -5.9033586e-05 -6.7782805e-21)
(-0.00034610129 -5.8987252e-05 7.7594578e-21)
(-0.0003209827 -5.8942731e-05 -1.2641451e-20)
(-0.00029606924 -5.8900282e-05 9.2192591e-23)
(-0.00027135604 -5.8860097e-05 1.6294193e-20)
(-0.00024683824 -5.8822272e-05 1.5033005e-20)
(-0.00022251094 -5.8786794e-05 1.140191e-20)
(-0.00019836918 -5.8753447e-05 2.6274113e-21)
(-0.00017440783 -5.8721778e-05 4.8885938e-21)
(-0.00015062129 -5.8690986e-05 -1.7130479e-20)
(-0.00012700307 -5.866007e-05 -3.9593849e-21)
(-0.00010354524 -5.862883e-05 1.3460249e-20)
(-8.0237386e-05 -5.8601995e-05 2.4867726e-21)
(-5.7062056e-05 -5.8599966e-05 7.4637568e-21)
(-3.4003169e-05 -5.8678543e-05 8.1865918e-21)
(-1.1217317e-05 -5.8904178e-05 1.4185914e-20)
(-7.5370166e-05 0.00074837132 -5.8031196e-19)
(-0.00017132626 0.00074966221 -3.480824e-19)
(-0.00028041581 0.00074995243 -1.0523514e-19)
(-0.00038569104 0.00074960946 1.1456728e-19)
(-0.00049368234 0.00074826113 -1.2731766e-19)