/*--------------------------------*- C++ -*----------------------------------*\
| =========                 |                                                 |
| \\      /  F ield         | OpenFOAM: The Open Source CFD Toolbox           |
|  \\    /   O peration     | Version:  2106                                  |
|   \\  /    A nd           | Website:  www.openfoam.com                      |
|    \\/     M anipulation  |                                                 |
\*---------------------------------------------------------------------------*/
FoamFile
{
    version     2.0;
    format      ascii;
    arch        "LSB;label=32;scalar=64";
    class       surfaceScalarField;
    location    "0.033";
    object      phi;
}
// * * * * * * * * * * * * * * * * * * * * * * * * * * * * * * * * * * * * * //

dimensions      [0 3 -1 0 0 0 0];

oriented        oriented;

internalField   nonuniform List<scalar> 
1984
(
0.00028646294
-0.00028646208
0.00056200405
-0.00027554111
0.00081611037
-0.00025410632
0.0010390684
-0.00022295799
0.0012223303
-0.00018326198
0.0013588395
-0.00013650919
0.0014433026
-8.4463098e-05
0.0014723997
-2.9097061e-05
0.0014449229
2.7476765e-05
0.0013618343
8.3088573e-05
0.0012262403
0.00013559405
0.0010432981
0.00018294224
0.00082001625
0.0002232818
0.00056499212
0.00025502413
0.00028807896
0.00027691316
-8.2001871e-10
0.00028807978
-0.00028808057
0.00028807975
-0.00056499361
0.00027691304
-0.00082001756
0.00025502395
-0.0010432991
0.00022328158
-0.0012262411
0.00018294198
-0.0013618349
0.00013559376
-0.0014449232
8.3088278e-05
-0.0014723996
2.7476466e-05
-0.0014433023
-2.9097358e-05
-0.0013588389
-8.4463388e-05
-0.0012223294
-0.00013650947
-0.0010390672
-0.00018326223
-0.00081610897
-0.00022295821
-0.00056200248
-0.00025410649
-0.00028646126
-0.00027554122
-0.00028646212
0.00030470335
-0.00059116456
0.00059778852
-0.00056862627
0.00086807263
-0.00052439044
0.001105224
-0.00046010939
0.0013001521
-0.00037818999
0.0014453524
-0.00028170957
0.0015351966
-0.00017430729
0.0015661539
-6.005431e-05
0.0015369374
5.6693239e-05
0.0014485674
0.00017145855
0.0013043518
0.00027980966
0.0011097681
0.00037752599
0.00087226893
0.00046078094
0.00060099874
0.00052629432
0.00030643954
0.00057147237
-8.3502209e-10
0.00059452015
-0.00030644116
0.00059452007
-0.00060100025
0.00057147213
-0.00087227024
0.00052629395
-0.0011097691
0.00046078047
-0.0013043526
0.00037752545
-0.0014485679
0.00027980908
-0.0015369376
0.00017145796
-0.0015661538
5.6692645e-05
-0.0015351963
-6.00549e-05
-0.0014453518
-0.00017430786
-0.0013001511
-0.00028171012
-0.0011052228
-0.00037819051
-0.00086807122
-0.00046010984
-0.00059778692
-0.00052439079
-0.00030470164
-0.0005686265
-0.00059116464
0.00033629654
-0.00092746014
0.00065976322
-0.00089209295
0.0009580527
-0.00082267991
0.0012197606
-0.00072181735
0.0014348566
-0.00059328596
0.0015950647
-0.00044191765
0.0016941811
-0.00027342369
0.0017283168
-9.4189971e-05
0.0016960562
8.8953793e-05
0.0015985279
0.00026898689
0.0014393799
0.00043895764
0.0012246542
0.00059225169
0.00096257123
0.00072286389
0.00066321959
0.00082564596
0.00033816569
0.00089652627
-9.1198857e-10
0.00093268675
-0.00033816746
0.00093268662
-0.00066322122
0.00089652588
-0.00096257263
0.00082564537
-0.0012246553
0.00072286315
-0.0014393807
0.00059225085
-0.0015985284
0.00043895675
-0.0016960564
0.00026898599
-0.0017283167
8.8952893e-05
-0.0016941807
-9.4190862e-05
-0.001595064
-0.00027342457
-0.0014348556
-0.00044191849
-0.0012197594
-0.00059328675
-0.00095805117
-0.00072181805
-0.00065976149
-0.00082268047
-0.00033629467
-0.00089209332
-0.00092746027
0.00038320305
-0.0013106621
0.00075177158
-0.0012606615
0.001091625
-0.0011625334
0.0013897649
-0.0010199572
0.0016347667
-0.00083828779
0.0018172133
-0.0006243642
0.0019300531
-0.00038626348
0.0019688719
-0.00013300885
0.0019320699
0.0001257558
0.001820938
0.00038011886
0.00163963
0.00062026557
0.0013950247
0.00083685704
0.0010964804
0.0010214082
0.0007554847
0.0011666417
0.00038521068
0.0012668003
-1.0266616e-09
0.0013178985
-0.00038521267
0.0013178983
-0.0007554865
0.0012667997
-0.0010964819
0.0011666408
-0.0013950259
0.0010214071
-0.0016396309
0.00083685585
-0.0018209385
0.00062026434
-0.0019320701
0.00038011763
-0.0019688718
0.00012575459
-0.0019300526
-0.00013301005
-0.0018172125
-0.00038626466
-0.0016347656
-0.00062436536
-0.0013897635
-0.00083828889
-0.0010916234
-0.0010199582
-0.00075176965
-0.0011625342
-0.00038320095
-0.001260662
-0.0013106623
0.00044901972
-0.0017596807
0.00088086495
-0.0016925067
0.0012790173
-0.0015606858
0.0016282392
-0.001369179
0.0019151525
-0.0011252011
0.002128745
-0.00083795671
0.002260785
-0.00051830352
0.0023061312
-0.00017835506
0.0022629318
0.00016895525
0.0021327084
0.00051034228
0.0019203248
0.00083264909
0.0016338302
0.0011233516
0.001284176
0.0013710624
0.00088480846
0.0015660092
0.00045115136
0.0017004574
-1.0556694e-09
0.0017690509
-0.00045115338
0.0017690506
-0.00088481024
0.0017004566
-0.0012841774
0.001566008
-0.0016338313
0.001371061
-0.0019203255
0.0011233501
-0.0021327087
0.00083264753
-0.0022629318
0.00051034075
-0.002306131
0.00016895377
-0.0022607846
-0.0001783565
-0.0021287443
-0.00051830495
-0.0019151515
-0.00083795814
-0.0016282379
-0.0011252025
-0.0012790157
-0.0013691803
-0.00088086302
-0.0015606869
-0.00044901757
-0.0016925075
-0.001759681
0.0005394785
-0.0022991584
0.0010582807
-0.002211309
0.0015365292
-0.0020389342
0.0019559053
-0.0017885552
0.0023003492
-0.0014696449
0.0025566652
-0.0010942727
0.0027150128
-0.00067665118
0.002769265
-0.00023260727
0.0027172342
0.00022098603
0.002560764
0.00066681248
0.0023056938
0.0010877193
0.0019616774
0.001467368
0.0015418505
0.0017908894
0.0010623459
0.0020455137
0.00054167515
0.0022211282
-8.012854e-10
0.0023107268
-0.00054167664
0.0023107264
-0.0010623471
0.0022211271
-0.0015418513
0.0020455121
-0.0019616778
0.0017908875
-0.0023056939
0.0014673661
-0.0025607639
0.0010877175
-0.002717234
0.00066681084
-0.0027692647
0.0002209845
-0.0027150125
-0.00023260874
-0.0025566648
-0.00067665265
-0.0023003487
-0.0010942742
-0.0019559046
-0.0014696466
-0.0015365281
-0.0017885568
-0.0010582794
-0.0020389356
-0.0005394769
-0.0022113099
-0.0022991587
0.00066267351
-0.0029618318
0.0012998879
-0.0028485233
0.0018871796
-0.0026262259
0.0024020296
-0.0023034052
0.0028247273
-0.0018923426
0.0031391137
-0.0014086591
0.003333174
-0.00087071143
0.0033994569
-0.0002988902
0.0033353333
0.00028510965
0.0031430935
0.00085905222
0.0028299084
0.0014009044
0.002407616
0.0018896605
0.0018923222
0.0023061832
0.0013038121
0.0026340238
0.00066479275
0.0028601475
-3.6772126e-11
0.0029755196
-0.00066479269
0.0029755191
-0.0013038117
0.002860146
-0.0018923213
0.0026340218
-0.0024076148
0.002306181
-0.0028299071
0.0018896585
-0.0031430923
0.0014009027
-0.0033353324
0.00085905089
-0.0033994564
0.00028510856
-0.003333174
-0.00029889118
-0.0031391142
-0.00087071245
-0.0028247281
-0.0014086604
-0.0024020304
-0.0018923443
-0.0018871802
-0.0023034071
-0.0012998882
-0.0026262276
-0.00066267352
-0.0028485246
-0.0029618323
0.00082780594
-0.0037896391
0.0016237278
-0.0036444453
0.0023571434
-0.0033596414
0.0029998964
-0.0029461582
0.0035273818
-0.0024198281
0.0039194746
-0.0018007519
0.0041612609
-0.0011124977
0.0042435353
-0.00038116456
0.0041630972
0.00036554771
0.0039228512
0.0010992982
0.0035317626
0.0017919931
0.0030046037
0.0024168194
0.0023614639
0.002949323
0.0016270169
0.0033684708
0.00082957997
0.0036575844
1.3187601e-09
0.0038050983
-0.00082957716
0.0038050976
-0.0016270137
0.0036575826
-0.0023614603
0.0033684683
-0.0030045998
0.0029493205
-0.0035317589
0.0024168176
-0.0039228482
0.0017919921
-0.0041630953
0.0010992979
-0.0042435346
0.00036554792
-0.0041612617
-0.00038116416
-0.0039194767
-0.0011124974
-0.0035273849
-0.0018007522
-0.0029998998
-0.0024198293
-0.0023571468
-0.0029461601
-0.001623731
-0.0033596434
-0.00082780881
-0.0036444468
-0.0037896398
0.0010407769
-0.0048304191
0.0020413768
-0.0046450452
0.0029632285
-0.0042814931
0.0037708986
-0.0037538284
0.0044334615
-0.003082391
0.0049256687
-0.0022929591
0.005228872
-0.0014157009
0.0053316174
-0.00048390999
0.0052299915
0.0004671736
0.0049277148
0.0014015749
0.0044360886
0.0022836192
0.0037736939
0.0030792141
0.0029657719
0.003757245
0.0020432986
0.0042909441
0.0010418086
0.0046590745
2.8939703e-09
0.004846904
-0.0010418025
0.004846903
-0.0020432919
0.004659072
-0.0029657645
0.004290941
-0.0037736863
0.0037572423
-0.0044360816
0.0030792129
-0.0049277092
0.0022836196
-0.0052299881
0.0014015769
-0.0053316165
0.00046717634
-0.0052288738
-0.00048390693
-0.0049256731
-0.0014156981
-0.0044334677
-0.0022929575
-0.0037709058
-0.0030823912
-0.0029632358
-0.0037538301
-0.0020413837
-0.0042814954
-0.0010407833
-0.0046450472
-0.00483042
0.0012950242
-0.0061254472
0.0025399847
-0.0058900057
0.0036868329
-0.0054283412
0.0046914445
-0.00475844
0.0055153272
-0.0039062736
0.0061270765
-0.0029047084
0.0065035591
-0.0017921836
0.006630625
-0.00061097592
0.0065035345
0.00059426408
0.0061270146
0.0017780949
0.0055151922
0.0028954416
0.0046912471
0.0039031592
0.0036866089
0.0047618832
0.0025397835
0.0054377695
0.0012949026
0.0059039554
3.3585357e-09
0.0061418032
-0.0012948953
0.0061418016
-0.0025397749
0.0059039516
-0.0036865989
0.0054377649
-0.0046912362
0.0047618796
-0.0055151819
0.0039031586
-0.0061270061
0.0028954438
-0.0065035293
0.0017781001
-0.0066306237
0.00059427078
-0.0065035618
-0.00061096881
-0.0061270832
-0.0017921767
-0.0055153368
-0.002904704
-0.0046914551
-0.0039062729
-0.0036868432
-0.0047584421
-0.0025399941
-0.0054283445
-0.0012950324
-0.0058900089
-0.0061254486
0.001557486
-0.0076829342
0.0030547569
-0.0073872766
0.0044340292
-0.0068076135
0.0056422156
-0.0059666265
0.0066329772
-0.0048970352
0.0073684661
-0.0036401972
0.0078207785
-0.002244496
0.0079729521
-0.00076314948
0.0078194284
0.00074778776
0.007366005
0.0022315182
0.0066297634
0.0036316832
0.0056387308
0.0048941918
0.0044307947
0.0059698193
0.0030522555
0.0068163087
0.0015561112
0.0074000997
-1.2872059e-10
0.0076979145
-0.00155611
0.0076979115
-0.0030522514
0.007400093
-0.004430787
0.0068163005
-0.0056387198
0.0059698124
-0.0066297516
0.0048941905
-0.0073659941
0.0036316862
-0.0078194212
0.0022315272
-0.0079729503
0.00074779993
-0.0078207817
-0.00076313747
-0.0073684742
-0.0022444842
-0.0066329882
-0.00364019
-0.0056422264
-0.0048970347
-0.0044340379
-0.0059666305
-0.0030547629
-0.0068076195
-0.0015574892
-0.0073872826
-0.0076829367
0.0017537968
-0.0094367212
0.003439907
-0.0090733868
0.0049933856
-0.0083610921
0.00635446
-0.0073277009
0.0074708568
-0.006013432
0.0082996684
-0.0044690089
0.0088092168
-0.0027540444
0.0089805081
-0.00093444078
0.0088072704
0.00092102545
0.0082960414
0.0027427473
0.0074661779
0.0044615467
0.0063495057
0.0060108641
0.0049888668
0.0073304582
0.003436439
0.0083687364
0.0017518784
0.0090846604
-1.2014665e-08
0.0094498049
-0.001751899
0.0094497985
-0.003436453
0.0090846469
-0.0049888722
0.0083687197
-0.0063495018
0.007330442
-0.0074661694
0.0060108581
-0.0082960294
0.0044615463
-0.0088072607
0.0027427584
-0.0089805066
0.00092104591
-0.0088092193
-0.00093442481
-0.0082996759
-0.0027540276
-0.0074708649
-0.004469001
-0.0063544636
-0.006013436
-0.0049933826
-0.0073277115
-0.0034398969
-0.0083611052
-0.0017537799
-0.0090733996
-0.0094367264
0.0017649385
-0.011201626
0.0034620382
-0.010770487
0.0050262187
-0.0099252727
0.0063973314
-0.0086988136
0.0075226791
-0.0071387797
0.00835865
-0.0053049799
0.008872898
-0.0032682924
0.0090460761
-0.0011076188
0.0088718647
0.0010952368
0.0083569432
0.0032576688
0.0075208378
0.005297652
0.0063956409
0.007136061
0.0050247858
0.0087013133
0.0034609377
0.0099325845
0.0017642549
0.010781343
-3.6423776e-08
0.011214096
-0.0017643201
0.011214082
-0.0034609892
0.010781316
-0.0050248204
0.0099325508
-0.0063956548
0.0087012764
-0.0075208406
0.0071360439
-0.0083569323
0.0052976379
-0.0088718485
0.0032576747
-0.0090460792
0.0010952767
-0.0088728996
-0.0011076045
-0.0083586549
-0.0032682722
-0.0075226788
-0.0053049771
-0.0063973172
-0.0071387976
-0.0050261889
-0.0086988398
-0.0034619923
-0.0099253018
-0.0017648772
-0.010770515
-0.011201637
0.0014592471
-0.012660803
0.0028630699
-0.012174309
0.0041576822
-0.011219885
0.0052932728
-0.0098344042
0.0062263911
-0.008071898
0.006920485
-0.0059990737
0.0073479552
-0.0036957627
0.0074929059
-0.0012525695
0.0073502352
0.0012379075
0.0069247827
0.0036831212
0.0062321064
0.0059903283
0.0052995506
0.0080686168
0.0041635503
0.0098373137
0.0028675743
0.01122856
0.0014616685
0.012187249
-7.0343886e-08
0.012675835
-0.0014617941
0.012675806
-0.0028676769
0.012187199
-0.0041636285
0.011228502
-0.0052995944
0.0098372423
-0.0062321342
0.0080685837
-0.0069247754
0.0059902791
-0.0073501936
0.0036830929
-0.0074929311
0.0012380142
-0.0073479594
-0.0012525762
-0.006920488
-0.0036957436
-0.0062263778
-0.0059990873
-0.0052932312
-0.0080719442
-0.0041576134
-0.0098344576
-0.0028629709
-0.011219944
-0.0014591172
-0.012174368
-0.012660824
0.00079596183
-0.013456665
0.0015620998
-0.012940447
0.0022688929
-0.011926678
0.0028884373
-0.010453949
0.0033976906
-0.0085811514
0.003776805
-0.0063781881
0.0040097416
-0.0039286993
0.0040891331
-0.001331961
0.0040126902
0.0013143505
0.0037820098
0.0039138016
0.0034042316
0.0063681065
0.0028953559
0.0085774926
0.00227522
0.01045745
0.0015669861
0.011936794
0.00079865685
0.012955578
-9.0388993e-08
0.013474582
-0.00079881299
0.013474529
-0.0015671175
0.012955503
-0.0022753419
0.011936727
-0.0028954426
0.010457343
-0.0034043083
0.0085774494
-0.0037820011
0.0063679719
-0.0040125407
0.0039136325
-0.0040892461
0.0013147195
-0.004009777
-0.0013320454
-0.0037768111
-0.0039287094
-0.0033976542
-0.0063782442
-0.0028883642
-0.0085812342
-0.0022687937
-0.010454028
-0.0015619588
-0.011926779
-0.00079577311
-0.012940554
-0.013456698
3.8958112e-05
-0.013495557
7.4263829e-05
-0.012975753
0.00010304115
-0.011955455
0.0001221616
-0.010473069
0.00013177778
-0.0085907675
0.00013295269
-0.006379363
0.00012642637
-0.003922173
0.00011698852
-0.0013225231
0.00010873849
0.0013226005
9.9865051e-05
0.003922675
8.8175954e-05
0.0063797956
7.4752082e-05
0.0085909165
5.913712e-05
0.010473065
4.0596887e-05
0.011955335
2.0574092e-05
0.012975601
-4.8663746e-08
0.013495205
-2.0651547e-05
0.013495131
-4.0677246e-05
0.012975529
-5.9253315e-05
0.011955303
-7.4871757e-05
0.010472961
-8.8267116e-05
0.0085908448
-9.9748556e-05
0.0063794534
-0.00010849796
0.0039223819
-0.0001171379
0.0013233594
-0.00012661888
-0.0013225644
-0.00013298969
-0.0039223386
-0.00013172076
-0.0063795131
-0.00012207664
-0.0085908783
-0.00010296321
-0.010473142
-7.4165404e-05
-0.011955577
-3.8829102e-05
-0.01297589
-0.013495593
-1.1079523e-05
-0.01348455
-2.1831544e-05
-0.012965001
-3.1847203e-05
-0.01194544
-3.9995217e-05
-0.010464921
-4.7228255e-05
-0.0085835345
-5.4141619e-05
-0.0063724496
-5.9996193e-05
-0.0039163184
-6.73738e-05
-0.0013151455
-7.7823303e-05
0.00133305
-8.6960527e-05
0.0039318123
-9.019173e-05
0.0063830268
-8.6704783e-05
0.0085874295
-7.5151211e-05
0.010461511
-5.5033996e-05
0.011935217
-2.9085083e-05
0.012949652
4.3303723e-08
0.013466077
2.9153066e-05
0.013466022
5.510575e-05
0.012949576
7.5259699e-05
0.011935149
8.6817789e-05
0.010461403
9.0278203e-05
0.0085873844
8.6843551e-05
0.006382888
7.7593302e-05
0.0039316322
6.7515682e-05
0.001333437
6.0187829e-05
-0.0013152365
5.4174995e-05
-0.0039163258
4.7168417e-05
-0.0063725065
3.9904657e-05
-0.0085836145
3.1761792e-05
-0.010464999
2.1723651e-05
-0.011945539
1.0939194e-05
-0.012965106
-0.013484581
-0.00078895235
-0.012695699
-0.0015476945
-0.012206259
-0.0022471091
-0.011246025
-0.0028594813
-0.0098525488
-0.0033619534
-0.0080810623
-0.0037349033
-0.0059994997
-0.0039625322
-0.0036886895
-0.004037981
-0.0012396968
-0.0039595799
0.0012546489
-0.003729426
0.0037016584
-0.0033549274
0.0060085282
-0.0028520059
0.008084508
-0.0022402016
0.0098497066
-0.0015422565
0.011237272
-0.0007857187
0.012193114
8.8232721e-08
0.01268027
0.00078587049
0.012680239
0.0015423844
0.012193062
0.0022403212
0.011237212
0.0028520914
0.0098496331
0.003355003
0.0080844727
0.0037294143
0.0060084767
0.003959418
0.0037016285
0.0040380971
0.001254758
0.003962565
-0.0012397044
0.0037349082
-0.003688669
0.0033619142
-0.0059995125
0.0028594058
-0.0080811062
0.0022470069
-0.0098525998
0.0015475501
-0.011246082
0.0007887599
-0.012206316
-0.012695719
-0.0014513791
-0.01124439
-0.0028472171
-0.010810421
-0.004133909
-0.0099593332
-0.0052617577
-0.0087247001
-0.0061876183
-0.0071552018
-0.0068753055
-0.0053118125
-0.0072976762
-0.0032663187
-0.007439318
-0.001098055
-0.0072954013
0.0011107322
-0.006870952
0.0032772091
-0.0061817735
0.0053193498
-0.005255296
0.0071580305
-0.0041277966
0.0087222072
-0.0028424231
0.0099518988
-0.0014486325
0.010799324
7.0271714e-08
0.011231567
0.0014487574
0.011231552
0.0028425248
0.010799295
0.0041278739
0.0099518633
0.0052553386
0.0087221683
0.0061817997
0.0071580117
0.0068709421
0.0053193343
0.0072953562
0.0032772144
0.0074393416
0.0011107726
0.0072976781
-0.0010980409
0.0068753066
-0.0032662975
0.0061876027
-0.0053118086
0.0052617144
-0.0071552178
0.0041338389
-0.0087247243
0.0028471172
-0.0099593604
0.0014512489
-0.010810448
-0.0112444
-0.0017529529
-0.0094914704
-0.0034386886
-0.0091246851
-0.0049924521
-0.0084055697
-0.0063544759
-0.0073626763
-0.0074724444
-0.0060372332
-0.0083032025
-0.0044810545
-0.0088148629
-0.0027546583
-0.0089880165
-0.00092490144
-0.0088160105
0.00093872621
-0.008305109
0.0027663076
-0.0074745234
0.0044887641
-0.0063563943
0.0060399015
-0.0049940497
0.0073598626
-0.0034398583
0.0083977075
-0.0017535923
0.0091130576
3.6890062e-08
0.0094779378
0.0017536582
0.009477931
0.0034399101
0.0091130431
0.0049940839
0.0083976894
0.0063564075
0.0073598448
0.0074745249
0.0060398942
0.0083050965
0.0044887627
0.0088159926
0.0027663182
0.0089880184
0.00093874682
0.0088148628
-0.00092488531
0.008303206
-0.0027546407
0.0074724428
-0.0044810454
0.0063544607
-0.0060372358
0.0049924218
-0.0073626854
0.0034386428
-0.0084055814
0.0017528921
-0.0091246969
-0.0094914752
-0.0017389706
-0.0077525093
-0.0034111028
-0.007452553
-0.0049520956
-0.006864577
-0.0063027415
-0.0060120304
-0.0074112546
-0.0049287201
-0.0082351018
-0.0036572073
-0.0087426826
-0.0022470775
-0.0089147692
-0.00075281482
-0.0087448543
0.00076881124
-0.0082391423
0.0022605956
-0.0074164642
0.003666086
-0.0063082578
0.0049316951
-0.0049571139
0.0060087187
-0.0034149308
0.0068555244
-0.0017410559
0.0074391827
1.2448427e-08
0.0077368695
0.0017410773
0.0077368661
0.0034149451
0.0074391752
0.0049571194
0.0068555152
0.0063082535
0.0060087107
0.007416455
0.0049316927
0.0082391295
0.0036660883
0.0087448435
0.0022606042
0.0089147669
0.0007688234
0.0087426841
-0.00075280253
0.0082351084
-0.002247065
0.007411262
-0.003657199
0.0063027446
-0.0049287183
0.0049520924
-0.0060120332
0.0034110929
-0.0068645819
0.0017389542
-0.0074525582
-0.0077525115
-0.0015407012
-0.0062118068
-0.0030220424
-0.0059712117
-0.0043869696
-0.0054996498
-0.0055830191
-0.0048159809
-0.006564353
-0.0039473862
-0.0072934521
-0.0029281082
-0.0077425539
-0.0017979758
-0.0078947283
-0.00060064043
-0.0077442125
0.00061829548
-0.007296481
0.0018128642
-0.0065683054
0.0029379104
-0.0055873001
0.0039506897
-0.0043909344
0.004812353
-0.0030250982
0.0054896882
-0.0015423735
0.005956458
4.7045188e-10
0.0061944955
0.0015423729
0.0061944937
0.0030250945
0.0059564537
0.0043909268
0.0054896829
0.0055872889
0.0048123486
0.0065682933
0.0039506883
0.0072964695
0.002937912
0.0077442047
0.0018128691
0.0078947259
0.00061830217
0.0077425564
-0.000600633
0.0072934597
-0.0017979683
0.0065643635
-0.0029281029
0.0055830296
-0.0039473844
0.0043869783
-0.0048159819
0.0030220487
-0.0054996522
0.0015407048
-0.0059712143
-0.006211808
-0.0012757993
-0.0049360035
-0.0025023373
-0.0047446737
-0.0036322959
-0.0043696912
-0.004622204
-0.0038260728
-0.0054341265
-0.0031354637
-0.0060370911
-0.0023251436
-0.0064082465
-0.0014268204
-0.0065336543
-0.00047523268
-0.0064086318
0.00049327296
-0.0060378195
0.0014420519
-0.0054351322
0.0023352231
-0.0046233441
0.0031389017
-0.003633391
0.0038223999
-0.002503207
0.0043595042
-0.0012762879
0.0047295389
-3.0246075e-09
0.0049182106
0.0012762812
0.0049182094
0.0025031989
0.004729536
0.0036333813
0.0043595005
0.0046233332
0.0038223966
0.0054351217
0.0031388999
0.0060378106
0.002335223
0.0064086261
0.0014420536
0.0065336525
0.00049327573
0.0064082488
-0.00047522929
0.0060370974
-0.0014268169
0.0054341357
-0.0023251412
0.0046222144
-0.0031354631
0.0036323062
-0.0038260737
0.0025023468
-0.0043696929
0.0012758078
-0.0047446753
-0.0049360042
-0.0010178234
-0.0039181769
-0.0019962777
-0.0037662194
-0.0028975632
-0.0034684057
-0.0036869724
-0.0030366635
-0.0043342451
-0.002488191
-0.0048147157
-0.001844673
-0.0051102189
-0.0011313172
-0.0052096945
-0.00037575711
-0.0051094828
0.00039306133
-0.0048133787
0.0011459478
-0.004332545
0.0018543894
-0.0036851817
0.0024915384
-0.0028959492
0.0030331674
-0.0019950696
0.0034586246
-0.0010171828
0.0037516522
-2.5257595e-09
0.0039010303
0.0010171774
0.0039010294
0.0019950634
0.0037516501
0.0028959422
0.0034586217
0.0036851743
0.0030331645
0.004332538
0.0024915362
0.0048133729
0.0018543881
0.0051094791
0.0011459475
0.0052096931
0.00039306167
0.0051102202
-0.00037575636
0.0048147196
-0.0011313163
0.004334251
-0.0018446726
0.0036869794
-0.0024881914
0.0028975704
-0.0030366646
0.0019962846
-0.0034684071
0.0010178299
-0.0037662206
-0.0039181774
-0.00080032328
-0.0031178523
-0.0015696524
-0.0029968903
-0.0022782366
-0.0027598215
-0.0028987648
-0.0024161354
-0.0034074356
-0.0019795202
-0.0037848645
-0.001467244
-0.0040167909
-0.00089939084
-0.0040945502
-0.00029799781
-0.004015321
0.00031383213
-0.0037821653
0.00091279212
-0.0034039404
0.0014761644
-0.0028950167
0.0019826147
-0.0022748031
0.0024129538
-0.0015670433
0.0027508648
-0.00079891936
0.0029835282
-9.3539318e-10
0.0031021118
0.00079891727
0.0031021112
0.0015670407
0.0029835266
0.0022747999
0.0027508625
0.002895013
0.0024129513
0.0034039368
0.0019826125
0.0037821622
0.0014761626
0.0040153188
0.00091279086
0.0040945492
0.0003138313
0.0040167912
-0.0002979984
0.0037848662
-0.0008993913
0.0034074382
-0.0014672446
0.002898768
-0.0019795212
0.0022782399
-0.0024161366
0.0015696555
-0.0027598227
0.00080032612
-0.0029968912
-0.0031178527
-0.0006320819
-0.0024857705
-0.0012396648
-0.0023893074
-0.0017992361
-0.0022002502
-0.0022892101
-0.0019261614
-0.002690777
-0.0015779533
-0.0029886223
-0.0011693988
-0.0031714866
-0.00071652658
-0.0032325438
-0.00023694056
-0.0031696084
0.00025089678
-0.0029851619
0.00072834555
-0.0026862744
0.0011772769
-0.0022843582
0.0015806985
-0.001794772
0.0019233676
-0.0012362597
0.0021923525
-0.00063024315
0.0023775117
4.2792912e-10
0.0024718683
0.00063024384
0.0024718678
0.00123626
0.0023775105
0.0017947717
0.0021923508
0.0022843574
0.0019233657
0.0026862732
0.0015806966
0.0029851607
0.0011772752
0.0031696074
0.00072834412
0.0032325431
0.00025089555
0.0031714862
-0.00023694148
0.0029886224
-0.00071652745
0.0026907774
-0.0011693997
0.0022892105
-0.0015779543
0.0017992364
-0.0019261624
0.0012396649
-0.0022002511
0.00063208173
-0.0023893081
-0.0024857708
-0.00051336939
-0.0019724005
-0.0010068392
-0.0018958376
-0.0014613071
-0.0017457822
-0.0018592328
-0.0015282357
-0.0021853263
-0.0012518599
-0.0024271338
-0.00092759126
-0.002575498
-0.00056816236
-0.0026248774
-0.00018756116
-0.0025735103
0.00019952972
-0.0024234683
0.00057830357
-0.00218055
0.00093435853
-0.0018540773
0.0012542259
-0.001456556
0.0015258463
-0.0010032104
0.0017390068
-0.00051140866
0.0018857099
-4.8542213e-10
0.0019604601
0.00051140762
0.0019604597
0.0010032092
0.0018857089
0.0014565546
0.0017390053
0.0018540758
0.0015258445
0.0021805484
0.0012542239
0.002423467
0.00093435664
0.0025735093
0.0005783018
0.0026248768
0.00019952812
0.002575498
-0.00018756268
0.0024271343
-0.00056816377
0.0021853272
-0.00092759261
0.0018592341
-0.0012518612
0.0014613085
-0.0015282369
0.0010068406
-0.0017457832
0.00051337076
-0.0018958383
-0.0019724007
-0.00042911934
-0.0015432827
-0.00084157945
-0.0014833775
-0.0012213948
-0.0013659669
-0.0015538882
-0.0011957423
-0.0018262709
-0.00097947718
-0.002028135
-0.00072572711
-0.0021518397
-0.0004444577
-0.0021927774
-0.00014662343
-0.0021495321
0.00015628439
-0.0020238738
0.00045264527
-0.0018207075
0.00073119225
-0.0015478713
0.00098138969
-0.0012158401
0.0011938151
-0.00083733017
0.0013604969
-0.0004268192
0.001475199
1.7061014e-09
0.0015336392
0.00042682249
0.0015336389
0.00083733312
0.0014751983
0.0012158425
0.0013604959
0.0015478732
0.0011938138
0.0018207088
0.00098138838
0.0020238745
0.00073119094
0.0021495322
0.00045264404
0.0021927771
0.00015628327
0.0021518388
-0.00014662444
0.0020281337
-0.00044445865
0.0018262691
-0.00072572803
0.0015538861
-0.00097947807
0.0012213923
-0.0011957431
0.00084157659
-0.0013659675
0.00042911624
-0.0014833779
-0.0015432829
-0.00041646095
-0.0011268169
-0.00081677698
-0.0010830615
-0.0011854385
-0.00099730532
-0.0015082023
-0.00087297854
-0.0017726462
-0.0007150332
-0.0019686503
-0.00052972309
-0.0020887791
-0.00032432885
-0.0021285527
-0.00010684986
-0.0020865808
0.00011431249
-0.0019645873
0.00033065181
-0.0017673385
0.00053394344
-0.0015024599
0.0007165111
-0.001180137
0.00087149216
-0.00081272356
0.0009930835
-0.00041427239
0.0010767478
-4.6930432e-09
0.0011193715
0.00041426315
0.0011193711
0.00081271477
0.0010767467
0.001180129
0.00099308175
0.0015024529
0.00087148987
0.0017673329
0.00071650842
0.0019645833
0.00053394052
0.0020865786
0.00033064879
0.0021285523
0.00011430948
0.0020887807
-0.0001068528
0.0019686537
-0.0003243317
0.0017726515
-0.00052972577
0.001508209
-0.00071503562
0.0011854465
-0.00087298058
0.0008167859
-0.00099730688
0.00041647042
-0.0010830625
-0.0011268173
-0.00036995026
-0.00075686824
-0.00072552153
-0.00072749022
-0.0010529167
-0.00066991016
-0.001339468
-0.00058642726
-0.0015741391
-0.00048036202
-0.0017479534
-0.00035590883
-0.0018543308
-0.00021795149
-0.0018893174
-7.1863206e-05
-0.0018517326
7.6727648e-05
-0.0017431539
0.00022207315
-0.0015678706
0.00035866009
-0.0013326857
0.00048132619
-0.0010466529
0.0005854594
-0.00072072827
0.00066715888
-0.00036735528
0.00072337479
1.5668582e-09
0.00075201464
0.00036735834
0.00075201433
0.00072073111
0.00072337391
0.0010466554
0.00066715748
0.0013326877
0.00058545756
0.0015678721
0.00048132403
0.0017431549
0.00035865771
0.001851733
0.0002220707
0.0018893173
7.6725208e-05
0.00185433
-7.1865588e-05
0.0017479522
-0.00021795381
0.0015741374
-0.00035591103
0.0013394658
-0.000480364
0.0010529141
-0.00058642892
0.00072551867
-0.00066991142
0.00036994721
-0.000727491
-0.00075686852
-0.00046647846
-0.00029038263
-0.00091488873
-0.00027907994
-0.0013278658
-0.00025693311
-0.0016894559
-0.00022483714
-0.001985735
-0.00018408297
-0.0022053464
-0.00013629741
-0.0023399345
-8.3363398e-05
-0.0023844823
-2.7315367e-05
-0.0023375591
2.9804426e-05
-0.0022009586
8.5472714e-05
-0.0019800049
0.00013770629
-0.001683257
0.00018457835
-0.0013221426
0.00022434502
-0.00091051327
0.00025552952
-0.00046411751
0.00027697903
-6.8882986e-09
0.00028790402
0.00046410396
0.00028790348
0.00091050043
0.00027697744
0.001322131
0.00025552695
0.0016832469
0.00022434158
0.0019799968
0.00018457418
0.0022009529
0.00013770157
0.002337556
8.5467662e-05
0.0023844819
2.9799255e-05
0.0023399369
-2.7320549e-05
0.0022053515
-8.336845e-05
0.0019857427
-0.00013630216
0.0016894659
-0.0001840872
0.0013278776
-0.00022484065
0.00091490192
-0.00025693574
0.00046649249
-0.00027908157
-0.00029038319
-0.00030914632
-0.00060625597
-0.00087980545
-0.0011192071
-0.001315243
-0.0014604223
-0.0015492554
-0.0015784183
-0.0015467705
-0.0014558316
-0.0013092457
-0.0011127154
-0.0008738051
-0.00060165698
-0.00030664488
1.3347847e-08
0.00030667104
0.00060168159
0.00087382719
0.0011127341
0.0013092604
0.0014558416
0.0015467756
0.0015784183
0.0015492504
0.0014604123
0.0013152283
0.0011191883
0.0008797832
0.00060623114
0.0003091199
)
;

boundaryField
{
    leftWall
    {
        type            cyclic;
        value           nonuniform List<scalar> 
32
(
-8.628901e-10
-8.7697002e-10
-9.5850632e-10
-1.07979e-09
-1.112109e-09
-8.4817659e-10
-5.0344245e-11
1.3574158e-09
3.0727131e-09
3.8568254e-09
1.0426116e-09
-9.7812299e-09
-3.3482654e-08
-7.0036855e-08
-1.0022932e-07
-6.6274693e-08
7.2633116e-08
1.0200149e-07
6.9946599e-08
3.3092185e-08
9.4643026e-09
-1.2756122e-09
-4.014973e-09
-3.1408604e-09
-1.3527316e-09
1.2895145e-10
-6.7247868e-10
1.5880879e-09
-4.8220685e-09
1.5536606e-09
-7.1515334e-09
1.34837e-08
)
;
    }
    rightWall
    {
        type            cyclic;
        value           nonuniform List<scalar> 
32
(
8.628901e-10
8.7697002e-10
9.5850632e-10
1.07979e-09
1.112109e-09
8.4817659e-10
5.0344245e-11
-1.3574158e-09
-3.0727131e-09
-3.8568254e-09
-1.0426116e-09
9.7812299e-09
3.3482654e-08
7.0036855e-08
1.0022932e-07
6.6274693e-08
-7.2633116e-08
-1.0200149e-07
-6.9946599e-08
-3.3092185e-08
-9.4643026e-09
1.2756122e-09
4.014973e-09
3.1408604e-09
1.3527316e-09
-1.2895145e-10
6.7247868e-10
-1.5880879e-09
4.8220685e-09
-1.5536606e-09
7.1515334e-09
-1.34837e-08
)
;
    }
    lowerWall
    {
        type            calculated;
        value           uniform 0;
    }
    atmosphere
    {
        type            calculated;
        value           nonuniform List<scalar> 
32
(
1.8750205e-05
1.8029705e-05
1.661637e-05
1.4564496e-05
1.1952916e-05
8.8819758e-06
5.4696869e-06
1.8475139e-06
-1.8433708e-06
-5.4661715e-06
-8.8796033e-06
-1.1952039e-05
-1.4565233e-05
-1.6618598e-05
-1.8033077e-05
-1.8754207e-05
-1.8754217e-05
-1.8033107e-05
-1.6618646e-05
-1.4565299e-05
-1.195212e-05
-8.879697e-06
-5.4662747e-06
-1.8434798e-06
1.8474025e-06
5.4695776e-06
8.8818731e-06
1.1952824e-05
1.456442e-05
1.6616313e-05
1.8029669e-05
1.8750193e-05
)
;
    }
    defaultFaces
    {
        type            empty;
        value           nonuniform List<scalar> 0();
    }
}


// ************************************************************************* //
