/*--------------------------------*- C++ -*----------------------------------*\
| =========                 |                                                 |
| \\      /  F ield         | OpenFOAM: The Open Source CFD Toolbox           |
|  \\    /   O peration     | Version:  2106                                  |
|   \\  /    A nd           | Website:  www.openfoam.com                      |
|    \\/     M anipulation  |                                                 |
\*---------------------------------------------------------------------------*/
FoamFile
{
    version     2.0;
    format      ascii;
    arch        "LSB;label=32;scalar=64";
    class       surfaceScalarField;
    location    "0.033";
    object      phi_0;
}
// * * * * * * * * * * * * * * * * * * * * * * * * * * * * * * * * * * * * * //

dimensions      [0 3 -1 0 0 0 0];

oriented        oriented;

internalField   nonuniform List<scalar> 
1984
(
0.00028661215
-0.00028661129
0.00056229676
-0.00027568461
0.00081653535
-0.0002542386
0.0010396093
-0.00022307397
0.0012229665
-0.00018335721
0.0013595465
-0.00013658001
0.0014440533
-8.450677e-05
0.0014731652
-2.9111898e-05
0.0014456739
2.7491349e-05
0.0013625418
8.3132029e-05
0.0012268771
0.00013566472
0.0010438397
0.00018303742
0.00082044185
0.00022339783
0.0005652853
0.00025515655
0.00028822844
0.00027705687
-8.1387653e-10
0.00028822925
-0.00028823002
0.00028822921
-0.00056528678
0.00027705675
-0.00082044315
0.00025515637
-0.0010438408
0.00022339761
-0.0012268779
0.00018303716
-0.0013625424
0.00013566444
-0.0014456741
8.3131737e-05
-0.0014731651
2.7491052e-05
-0.0014440529
-2.9112193e-05
-0.0013595459
-8.4507059e-05
-0.0012229656
-0.00013658028
-0.0010396082
-0.00018335746
-0.00081653396
-0.00022307419
-0.00056229519
-0.00025423877
-0.00028661048
-0.00027568472
-0.00028661133
0.00030485889
-0.00059146931
0.00059809363
-0.00056891935
0.00086851564
-0.0005246606
0.0011057879
-0.00046034628
0.0013008152
-0.0003783845
0.0014460895
-0.00028185422
0.0015359792
-0.0001743965
0.0015669519
-6.0084625e-05
0.0015377202
5.6723015e-05
0.001449305
0.0001715473
0.0013050157
0.000279954
0.0011103327
0.00037772039
0.00087271263
0.00046101793
0.00060130439
0.00052656479
0.00030659536
0.00057176589
-8.2859942e-10
0.00059482544
-0.00030659698
0.00059482536
-0.00060130588
0.00057176566
-0.00087271393
0.00052656442
-0.0011103338
0.00046101747
-0.0013050165
0.00037771986
-0.0014493055
0.00027995343
-0.0015377205
0.00017154672
-0.0015669518
5.6722426e-05
-0.0015359788
-6.008521e-05
-0.0014460888
-0.00017439707
-0.0013008143
-0.00028185476
-0.0011057868
-0.00037838501
-0.00086851423
-0.00046034673
-0.00059809205
-0.00052466095
-0.00030485719
-0.00056891958
-0.00059146939
0.00033646316
-0.00092793153
0.00066009009
-0.00089254628
0.00095852729
-0.0008230978
0.0012203648
-0.00072218377
0.0014355671
-0.00059358684
0.0015958543
-0.00044214141
0.0016950195
-0.0002735617
0.0017291718
-9.4236882e-05
0.001696895
8.8999834e-05
0.0015993181
0.00026912417
0.0014400912
0.0004391809
0.0012252592
0.00059255239
0.00096304663
0.00072323048
0.00066354708
0.00082606433
0.00033833265
0.00089698032
-9.051584e-10
0.000933159
-0.00033833441
0.00093315886
-0.00066354869
0.00089697994
-0.00096304802
0.00082606374
-0.0012252603
0.00072322974
-0.001440092
0.00059255156
-0.0015993186
0.00043918002
-0.0016968951
0.00026912327
-0.0017291717
8.8998941e-05
-0.0016950191
-9.4237765e-05
-0.0015958536
-0.00027356257
-0.0014355661
-0.00044214225
-0.0012203635
-0.00059358763
-0.00095852578
-0.00072218446
-0.00066008837
-0.00082309835
-0.00033646131
-0.00089254664
-0.00092793165
0.00038338607
-0.0013113165
0.00075213062
-0.0012612908
0.0010921464
-0.0011631135
0.0013904285
-0.0010204659
0.0016355472
-0.00083870552
0.0018180807
-0.00062467488
0.0019309741
-0.00038645511
0.0019698112
-0.00013307401
0.0019329913
0.00012581969
0.0018218061
0.00038030942
0.0016404114
0.00062057553
0.0013956893
0.00083727452
0.0010970027
0.0010219171
0.00075584448
0.0011672225
0.00038539411
0.0012674307
-1.0192976e-09
0.0013185541
-0.00038539609
0.0013185539
-0.00075584627
0.0012674301
-0.0010970042
0.0011672217
-0.0013956905
0.0010219161
-0.0016404123
0.00083727334
-0.0018218066
0.00062057431
-0.0019329915
0.0003803082
-0.001969811
0.00012581849
-0.0019309736
-0.0001330752
-0.0018180799
-0.00038645628
-0.0016355461
-0.00062467602
-0.0013904271
-0.00083870662
-0.0010921447
-0.0010204669
-0.00075212871
-0.0011631143
-0.00038338399
-0.0012612914
-0.0013113167
0.00044922478
-0.0017605402
0.00088126724
-0.0016933333
0.0012796015
-0.0015614478
0.0016289827
-0.0013698472
0.001916027
-0.0011257498
0.0021297169
-0.0008383648
0.002261817
-0.00051855526
0.0023071837
-0.00017844069
0.0022639643
0.00016903912
0.0021336812
0.00051059252
0.0019212006
0.00083305618
0.0016345751
0.0011239
0.0012847613
0.0013717309
0.00088521168
0.0015667722
0.00045135693
0.0017012854
-1.0476089e-09
0.0017699121
-0.00045135894
0.0017699118
-0.00088521345
0.0017012846
-0.0012847627
0.0015667709
-0.0016345762
0.0013717295
-0.0019212012
0.0011238984
-0.0021336815
0.00083305462
-0.0022639643
0.00051059101
-0.0023071835
0.00016903765
-0.0022618166
-0.00017844212
-0.0021297162
-0.00051855668
-0.001916026
-0.00083836622
-0.0016289814
-0.0011257512
-0.0012795998
-0.0013698485
-0.00088126532
-0.0015614488
-0.00044922265
-0.001693334
-0.0017605405
0.00053971219
-0.0023002516
0.0010587392
-0.0022123603
0.0015371948
-0.0020399034
0.0019567527
-0.0017894051
0.0023013458
-0.0014703429
0.0025577728
-0.0010947918
0.002716189
-0.00067697145
0.0027704646
-0.00023271627
0.0027184111
0.00022109261
0.0025618729
0.0006671307
0.002306692
0.0010882371
0.0019625265
0.0014680655
0.0015425177
0.0017917398
0.0010628056
0.0020464843
0.00054190951
0.0022221815
-7.9231399e-10
0.0023118224
-0.00054191099
0.002311822
-0.0010628068
0.0022221804
-0.0015425185
0.0020464827
-0.0019625269
0.0017917379
-0.0023066921
0.0014680636
-0.0025618728
0.0010882353
-0.0027184108
0.00066712907
-0.0027704643
0.0002210911
-0.0027161887
-0.00023271773
-0.0025577724
-0.0006769729
-0.0023013453
-0.0010947933
-0.001956752
-0.0014703445
-0.0015371938
-0.0017894067
-0.0010587379
-0.0020399048
-0.00053971062
-0.0022123613
-0.0023002519
0.00066294529
-0.0029631968
0.0013004211
-0.0028498361
0.0018879537
-0.002627436
0.0024030151
-0.0023044664
0.0028258863
-0.0018932141
0.0031404018
-0.0014093073
0.0033345418
-0.00087111141
0.003400852
-0.00029902642
0.003336702
0.00028524258
0.0031443833
0.0008594494
0.0028310696
0.0014015508
0.0024086037
0.0018905313
0.0018930984
0.002307245
0.0013043468
0.0026352358
0.00066506542
0.002861463
-2.6431198e-11
0.0029768879
-0.00066506533
0.0029768873
-0.0013043464
0.0028614615
-0.0018930976
0.0026352338
-0.0024086025
0.0023072428
-0.0028310682
0.0018905293
-0.0031443821
0.0014015491
-0.0033367011
0.00085944809
-0.0034008515
0.0002852415
-0.0033345418
-0.00029902739
-0.0031404023
-0.00087111241
-0.0028258871
-0.0014093086
-0.0024030159
-0.0018932157
-0.0018879543
-0.0023044683
-0.0013004214
-0.0026274377
-0.00066294532
-0.0028498373
-0.0029631973
0.00082813175
-0.0037913299
0.001624367
-0.0036460713
0.0023580713
-0.0033611404
0.0030010776
-0.0029474727
0.0035287711
-0.0024209076
0.0039210185
-0.0018015548
0.0041629003
-0.0011129931
0.0042452072
-0.0003813334
0.0041647376
0.00036571217
0.0039243971
0.0010997899
0.0035331544
0.0017927935
0.0030057878
0.002417898
0.0023623945
0.0029506383
0.001627658
0.0033699723
0.00082990687
0.0036592141
1.3311086e-09
0.0038067934
-0.00082990403
0.0038067927
-0.0016276548
0.0036592123
-0.0023623908
0.0033699698
-0.0030057838
0.0029506359
-0.0035331507
0.0024178962
-0.0039243941
0.0017927925
-0.0041647357
0.0010997897
-0.0042452066
0.0003657124
-0.004162901
-0.00038133298
-0.0039210206
-0.0011129928
-0.0035287741
-0.0018015551
-0.0030010811
-0.0024209087
-0.0023580748
-0.0029474745
-0.0016243702
-0.0033611424
-0.00082813464
-0.0036460729
-0.0037913306
0.0010411844
-0.0048325174
0.0020421761
-0.004647063
0.0029643889
-0.0042833532
0.0037723755
-0.0037554594
0.0044351982
-0.0030837302
0.0049275986
-0.0022939552
0.0052309209
-0.0014163155
0.0053337069
-0.00048411942
0.0052320415
0.00046737756
0.0049296466
0.0014021849
0.0044378279
0.0022846122
0.0037751736
0.0030805523
0.0029669348
0.0037588771
0.0020440999
0.0042928073
0.0010422171
0.0046610969
2.909337e-09
0.0048490076
-0.001042211
0.0048490066
-0.0020440931
0.0046610944
-0.0029669274
0.0042928042
-0.003775166
0.0037588744
-0.0044378209
0.0030805511
-0.004929641
0.0022846126
-0.0052320381
0.0014021869
-0.005333706
0.00046738032
-0.0052309227
-0.00048411633
-0.0049276029
-0.0014163126
-0.0044352044
-0.0022939535
-0.0037723827
-0.0030837304
-0.0029643962
-0.0037554611
-0.002042183
-0.0042833555
-0.0010411908
-0.0046470651
-0.0048325183
0.0012955576
-0.0061280789
0.002541031
-0.0058925364
0.0036883517
-0.0054306738
0.0046933774
-0.0047604851
0.0055175996
-0.0039079524
0.006129601
-0.0029059566
0.0065062389
-0.0017929534
0.0066333573
-0.00061123789
0.0065062148
0.00059452014
0.00612954
0.0017788597
0.0055174657
0.0028966865
0.004693181
0.0039048369
0.0036881286
0.0047639295
0.0025408305
0.0054401055
0.0012954364
0.005906491
3.3780715e-09
0.0061444406
-0.001295429
0.006144439
-0.0025408218
0.0059064872
-0.0036881186
0.0054401009
-0.0046931701
0.0047639259
-0.0055174553
0.0039048364
-0.0061295314
0.0028966887
-0.0065062095
0.001778865
-0.006633356
0.00059452685
-0.0065062416
-0.00061123074
-0.0061296078
-0.0017929465
-0.0055176092
-0.0029059521
-0.004693388
-0.0039079516
-0.003688362
-0.0047604871
-0.0025410404
-0.0054306771
-0.0012955659
-0.0058925396
-0.0061280802
0.0015582067
-0.0076862867
0.0030561706
-0.0073905003
0.0044360812
-0.0068105845
0.0056448267
-0.0059692305
0.0066360465
-0.0048991722
0.0073718749
-0.003641785
0.0078243961
-0.0022454745
0.0079766395
-0.00076348131
0.0078230445
0.00074811516
0.0073694112
0.0022324929
0.006632829
0.0036332687
0.0056413379
0.0048963281
0.004432843
0.0059724244
0.0030536663
0.0068192821
0.0015568304
0.0074033269
-1.0459466e-10
0.0077012711
-0.0015568291
0.007701268
-0.0030536622
0.0074033202
-0.0044328352
0.0068192739
-0.0056413268
0.0059724175
-0.0066328172
0.0048963268
-0.0073694003
0.0036332718
-0.0078230372
0.0022325019
-0.0079766377
0.00074812732
-0.0078243992
-0.00076346927
-0.0073718831
-0.0022454626
-0.0066360575
-0.0036417777
-0.0056448375
-0.0048991716
-0.00443609
-0.0059692345
-0.0030561767
-0.0068105905
-0.00155821
-0.0073905063
-0.0076862892
0.0017547709
-0.0094410478
0.0034418177
-0.0090775471
0.004996159
-0.0083649257
0.0063579888
-0.0073310604
0.0074750045
-0.0060161879
0.0083042746
-0.0044710551
0.0088141034
-0.0027553033
0.0089854873
-0.00093486522
0.0088121514
0.000921451
0.0083006375
0.0027440069
0.0074703127
0.0044635934
0.0063530206
0.0060136202
0.0049916273
0.0073338177
0.0034383399
0.0083725695
0.0017528472
0.0090888196
-1.1989538e-08
0.0094541303
-0.0017528678
0.0094541238
-0.0034383538
0.0090888062
-0.0049916326
0.0083725527
-0.0063530166
0.0073338014
-0.0074703042
0.0060136143
-0.0083006255
0.0044635931
-0.0088121417
0.0027440182
-0.0089854858
0.00092147138
-0.0088141058
-0.00093484923
-0.0083042821
-0.0027552863
-0.0074750127
-0.0044710471
-0.0063579925
-0.0060161918
-0.004996156
-0.007331071
-0.0034418077
-0.0083649388
-0.0017547541
-0.0090775599
-0.009441053
0.0017661993
-0.011207214
0.0034645115
-0.010775859
0.005029809
-0.0099302233
0.0064019002
-0.0087031516
0.0075280497
-0.0071423374
0.0083646135
-0.0053076189
0.0088792233
-0.003269913
0.0090525201
-0.0011081621
0.0088781799
0.0010957912
0.008362888
0.0032592989
0.007526184
0.0053002974
0.0064001831
0.0071396211
0.0050283515
0.0087056493
0.0034633922
0.0099375288
0.0017655055
0.010786706
-3.6411509e-08
0.011219672
-0.0017655707
0.011219658
-0.0034634437
0.010786679
-0.005028386
0.0099374951
-0.006400197
0.0087056124
-0.0075261867
0.0071396041
-0.0083628771
0.0053002835
-0.0088781638
0.003259305
-0.0090525232
0.0010958307
-0.0088792247
-0.0011081477
-0.0083646183
-0.0032698927
-0.0075280495
-0.0053076159
-0.0064018861
-0.0071423552
-0.0050297793
-0.0087031778
-0.0034644658
-0.0099302523
-0.0017661381
-0.010775888
-0.011207225
0.0014607232
-0.012667867
0.0028659658
-0.012181102
0.0041618873
-0.011226145
0.0052986263
-0.0098398907
0.0062326871
-0.0080763982
0.0069274775
-0.0060024093
0.0073553722
-0.0036978077
0.007500461
-0.0012532509
0.0073576378
0.0012386144
0.00693175
0.0036851866
0.0062383703
0.0059936771
0.0053048701
0.0080731213
0.0041677242
0.0098427952
0.0028704463
0.011234807
0.0014631313
0.012194021
-7.0376693e-08
0.012682874
-0.0014632568
0.012682845
-0.0028705488
0.012193971
-0.0041678023
0.011234749
-0.0053049136
0.0098427238
-0.0062383979
0.0080730884
-0.0069317427
0.0059936283
-0.0073575965
0.0036851587
-0.0075004861
0.0012387204
-0.007355376
-0.0012532579
-0.0069274805
-0.0036977882
-0.0062326739
-0.0060024226
-0.0052985849
-0.0080764442
-0.0041618186
-0.0098399441
-0.0028658669
-0.011226204
-0.0014605934
-0.012181161
-0.012667888
0.00079736913
-0.013465136
0.0015648654
-0.012948598
0.0022729128
-0.011934192
0.0028935606
-0.010460538
0.003403723
-0.0085865606
0.0037835094
-0.0063821957
0.0040168536
-0.0039311519
0.0040963806
-0.0013327778
0.0040197959
0.001315199
0.0037887033
0.0039162792
0.0034102502
0.0063721303
0.0029004637
0.0085829077
0.0022792252
0.010464034
0.0015697406
0.011944291
0.00080005854
0.012963703
-9.0508095e-08
0.013483023
-0.00080021485
0.013482969
-0.001569872
0.012963628
-0.002279347
0.011944223
-0.0029005501
0.010463927
-0.0034103267
0.008582865
-0.0037886949
0.0063719964
-0.0040196467
0.0039161105
-0.0040964937
0.0013155674
-0.0040168882
-0.0013328634
-0.0037835152
-0.0039311611
-0.0034036869
-0.0063822509
-0.0028934878
-0.0085866432
-0.0022728137
-0.010460618
-0.0015647244
-0.011934293
-0.00079718038
-0.012948705
-0.013465169
3.968865e-05
-0.013504758
7.5702517e-05
-0.012984612
0.00010514207
-0.011963632
0.00012485199
-0.010480248
0.00013496303
-0.0085966717
0.00013651325
-0.0063837459
0.00013021955
-0.0039248582
0.00012086941
-0.0013234277
0.00011256314
0.0013235053
0.00010348393
0.0039253584
9.1437712e-05
0.0063841765
7.7525264e-05
0.0085968201
6.1314199e-05
0.010480245
4.2093481e-05
0.011963512
2.1335547e-05
0.012984461
-4.8819208e-08
0.013504407
-2.1413212e-05
0.013504333
-4.2173837e-05
0.012984389
-6.1430262e-05
0.01196348
-7.7644773e-05
0.010480141
-9.1528903e-05
0.0085967491
-0.0001033677
0.0063838352
-0.00011232135
0.0039250642
-0.0001210204
0.0013242664
-0.00013041168
-0.0013234721
-0.00013654992
-0.0039250229
-0.000134906
-0.0063838948
-0.0001247672
-0.008596782
-0.00010506426
-0.010480321
-7.5604095e-05
-0.011963753
-3.9559474e-05
-0.01298475
-0.013504795
-1.1835118e-05
-0.013492996
-2.3315608e-05
-0.012973132
-3.4006239e-05
-0.011952941
-4.2745144e-05
-0.010471509
-5.0462722e-05
-0.0085889541
-5.7731558e-05
-0.0063764771
-6.379084e-05
-0.0039187989
-7.1225023e-05
-0.0013159935
-8.1588885e-05
0.0013338692
-9.0496444e-05
0.003934266
-9.335622e-05
0.0063870363
-8.9378431e-05
0.0085928424
-7.7239232e-05
0.010468106
-5.6463799e-05
0.011942737
-2.9810846e-05
0.012957808
4.3452102e-08
0.013474553
2.9879025e-05
0.013474498
5.6535546e-05
0.012957732
7.7347588e-05
0.011942668
8.949128e-05
0.010467998
9.3442722e-05
0.0085927977
9.0379725e-05
0.0063868982
8.1357641e-05
0.0039340863
7.136851e-05
0.0013342556
6.3982096e-05
-0.0013160857
5.7764632e-05
-0.0039188054
5.0402844e-05
-0.0063765331
4.2654737e-05
-0.0085890339
3.3920931e-05
-0.010471587
2.3207682e-05
-0.01195304
1.1694573e-05
-0.012973237
-0.013493027
-0.00079035045
-0.012702747
-0.0015504419
-0.01221304
-0.0022511035
-0.011252279
-0.0028645755
-0.0098580375
-0.0033679564
-0.0080855731
-0.00374158
-0.0060028535
-0.0039696206
-0.0036907582
-0.00404521
-0.0012404041
-0.0039666727
0.0012553319
-0.0037361126
0.0037037059
-0.0033609443
0.0060118679
-0.002857116
0.008089014
-0.0022442109
0.0098552005
-0.0015450146
0.01124354
-0.00078712197
0.012199916
8.8354272e-08
0.012687343
0.00078727395
0.012687312
0.0015451425
0.012199864
0.0022443303
0.01124348
0.0028572012
0.0098551269
0.0033610199
0.008088979
0.0037361012
0.0060118169
0.0039665112
0.0037036763
0.0040453264
0.0012554403
0.0039696526
-0.0012404119
0.0037415846
-0.0036907374
0.0033679174
-0.0060028658
0.0028645002
-0.0080856168
0.0022510015
-0.0098580886
0.0015502976
-0.011252336
0.00079015799
-0.012213097
-0.012702767
-0.0014528379
-0.011249979
-0.0028500813
-0.010815797
-0.0041380716
-0.0099642892
-0.0052670628
-0.0087290464
-0.0061938654
-0.0071587705
-0.0068822545
-0.0053144644
-0.0073050598
-0.0032679529
-0.0074468534
-0.0010986105
-0.0073027985
0.0011112769
-0.0068779261
0.0032788335
-0.0061880531
0.0053219949
-0.0052606356
0.0071615966
-0.0041319906
0.0087265555
-0.0028453114
0.0099568611
-0.0014501047
0.010804709
7.0306665e-08
0.011237168
0.0014502297
0.011237153
0.0028454131
0.01080468
0.0041320677
0.0099568255
0.005260678
0.0087265166
0.0061880791
0.0071615779
0.0068779163
0.0053219796
0.0073027537
0.003278839
0.0074468769
0.0011113171
0.0073050614
-0.0010985964
0.0068822555
-0.0032679315
0.00619385
-0.0053144603
0.0052670196
-0.0071587864
0.0041380016
-0.0087290705
0.0028499815
-0.0099643163
0.0014527078
-0.010815823
-0.011249989
-0.0017541993
-0.0094958131
-0.0034411348
-0.0091288611
-0.0049960058
-0.0084094182
-0.0063590029
-0.0073660493
-0.0074777728
-0.0060400006
-0.0083091276
-0.0044831096
-0.0088211574
-0.0027559231
-0.0089944393
-0.00092532866
-0.0088223148
0.00093915243
-0.0083110527
0.0027675714
-0.0074798763
0.0044908185
-0.0063609481
0.0060426684
-0.0049976282
0.0073632355
-0.0034423236
0.0084015565
-0.001754849
0.0091172345
3.6878588e-08
0.0094822818
0.0017549148
0.0094822749
0.0034423752
0.00911722
0.0049976624
0.0084015383
0.0063609612
0.0073632178
0.0074798778
0.0060426613
0.0083110402
0.0044908172
0.008822297
0.0027675822
0.0089944411
0.00093917297
0.0088211572
-0.00092531251
0.0083091311
-0.0027559054
0.0074777712
-0.0044831004
0.0063589878
-0.006040003
0.0049959756
-0.0073660583
0.0034410891
-0.0084094298
0.0017541386
-0.0091288728
-0.0094958178
-0.0017399348
-0.0077558877
-0.0034129946
-0.0074558012
-0.004954843
-0.0068675698
-0.0063062397
-0.0060146525
-0.0074153699
-0.0049308704
-0.0082396763
-0.0036588032
-0.0087475408
-0.0022480587
-0.0089197251
-0.00075314436
-0.0087497179
0.00076914526
-0.008243727
0.0022615805
-0.0074205927
0.0036676842
-0.0063117702
0.0049338459
-0.0049598744
0.0060113397
-0.0034168327
0.0068585147
-0.0017420256
0.0074424274
1.2423505e-08
0.0077402438
0.0017420469
0.0077402404
0.0034168469
0.0074424199
0.0049598797
0.0068585055
0.0063117658
0.0060113317
0.0074205834
0.0049338437
0.0082437142
0.0036676865
0.0087497072
0.0022615891
0.0089197228
0.00076915742
0.0087475423
-0.00075313203
0.0082396829
-0.002248046
0.0074153774
-0.0036587949
0.0063062429
-0.0049308686
0.0049548399
-0.0060146553
0.0034129848
-0.0068675747
0.0017399185
-0.0074558064
-0.00775589
-0.0015414151
-0.0062144713
-0.0030234429
-0.0059737734
-0.0043890029
-0.0055020098
-0.0055856072
-0.0048180482
-0.0065673963
-0.0039490812
-0.0072968336
-0.0029293659
-0.0077461438
-0.0017987485
-0.007898389
-0.00060089914
-0.0077478039
0.00061856014
-0.0072998653
0.0018136419
-0.0065713525
0.0029391714
-0.0055898924
0.0039523858
-0.0043929717
0.0048144191
-0.0030265018
0.0054920448
-0.0015430891
0.0059590147
4.4635874e-10
0.0061971542
0.0015430885
0.0061971524
0.003026498
0.0059590104
0.004392964
0.0054920395
0.0055898811
0.0048144146
0.0065713403
0.0039523844
0.0072998538
0.002939173
0.0077477961
0.0018136468
0.0078983867
0.00061856685
0.0077461463
-0.00060089168
0.0072968412
-0.001798741
0.0065674069
-0.0029293606
0.0055856178
-0.0039490794
0.0043890117
-0.0048180492
0.0030234492
-0.0055020122
0.0015414188
-0.005973776
-0.0062144725
-0.0012763266
-0.0049381407
-0.0025033716
-0.0047467284
-0.0036337973
-0.0043715842
-0.0046241146
-0.0038277309
-0.0054363725
-0.0031368233
-0.0060395861
-0.0023261524
-0.0064108945
-0.0014274401
-0.0065363537
-0.00047543992
-0.0064112793
0.00049348571
-0.0060403136
0.0014426762
-0.0054373772
0.002336235
-0.0046252537
0.0031402623
-0.0036348916
0.0038240569
-0.0025042407
0.004361394
-0.001276815
0.004731589
-3.0439414e-09
0.0049203423
0.0012768082
0.0049203411
0.0025042325
0.0047315861
0.0036348818
0.0043613903
0.0046252428
0.0038240536
0.0054373667
0.0031402605
0.0060403047
0.002336235
0.0064112736
0.001442678
0.0065363519
0.00049348851
0.0064108967
-0.0004754365
0.0060395924
-0.0014274366
0.0054363818
-0.00232615
0.004624125
-0.0031368226
0.0036338076
-0.0038277318
0.0025033812
-0.0043715858
0.0012763352
-0.00474673
-0.0049381414
-0.0010182231
-0.0039199144
-0.0019970617
-0.0037678898
-0.0028987011
-0.0034699447
-0.0036884203
-0.0030380117
-0.0043359471
-0.0024892965
-0.004816606
-0.0018454934
-0.0051122249
-0.0011318212
-0.0052117391
-0.0003759257
-0.0051114877
0.00039323437
-0.0048152671
0.0011464556
-0.0043342444
0.0018552123
-0.0036866269
0.0024926448
-0.0028970846
0.0030345146
-0.0019958517
0.003460161
-0.0010175816
0.0037533188
-2.5407398e-09
0.0039027633
0.0010175761
0.0039027625
0.0019958455
0.0037533167
0.0028970776
0.0034601581
0.0036866195
0.0030345118
0.0043342374
0.0024926426
0.0048152613
0.0018552111
0.005111484
0.0011464553
0.0052117377
0.00039323474
0.0051122262
-0.00037592492
0.00481661
-0.0011318204
0.004335953
-0.001845493
0.0036884273
-0.0024892969
0.0028987083
-0.0030380128
0.0019970686
-0.0034699461
0.0010182296
-0.003767891
-0.0039199149
-0.00080063735
-0.0031192757
-0.0015702684
-0.0029982588
-0.0022791308
-0.0027610823
-0.0028999025
-0.00241724
-0.0034087729
-0.0019804262
-0.0037863499
-0.0014679164
-0.0040183671
-0.00089980404
-0.0040961567
-0.00029813612
-0.0040168961
0.00031397383
-0.0037836487
0.0009132082
-0.0034052751
0.0014768387
-0.0028961516
0.0019835213
-0.0022756947
0.0024140577
-0.0015676574
0.0027521237
-0.00079923241
0.0029848938
-9.4716776e-10
0.0031035318
0.0007992303
0.0031035312
0.0015676548
0.0029848922
0.0022756915
0.0027521214
0.002896148
0.0024140553
0.0034052715
0.0019835191
0.0037836456
0.001476837
0.0040168939
0.00091320696
0.0040961557
0.00031397303
0.0040183674
-0.00029813669
0.0037863515
-0.00089980448
0.0034087755
-0.001467917
0.0028999057
-0.0019804271
0.0022791341
-0.0024172412
0.0015702715
-0.0027610835
0.00080064022
-0.0029982597
-0.003119276
-0.0006323367
-0.0024869391
-0.0012401646
-0.0023904309
-0.0017999616
-0.0022012854
-0.0022901332
-0.0019270683
-0.0026918623
-0.0015786971
-0.0029898278
-0.0011699509
-0.0031727659
-0.00071686592
-0.0032338478
-0.00023705419
-0.0031708871
0.00025101307
-0.002986366
0.00072868715
-0.0026873579
0.0011778306
-0.0022852794
0.0015814429
-0.0017954958
0.001924274
-0.0012367582
0.0021933861
-0.00063049725
0.0023786329
4.1702722e-10
0.0024730341
0.00063049791
0.0024730337
0.0012367584
0.0023786317
0.0017954954
0.0021933844
0.0022852786
0.0019242721
0.0026873567
0.001581441
0.0029863648
0.0011778289
0.003170886
0.00072868574
0.0032338472
0.00025101187
0.0031727656
-0.00023705508
0.0029898279
-0.00071686677
0.0026918626
-0.0011699518
0.0022901337
-0.0015786981
0.0017999619
-0.0019270694
0.0012401647
-0.0022012863
0.00063233655
-0.0023904316
-0.0024869394
-0.0005135685
-0.0019733699
-0.0010072297
-0.0018967697
-0.001461874
-0.0017466411
-0.0018599542
-0.0015289882
-0.0021861742
-0.0012524771
-0.0024280756
-0.00092804953
-0.0025764974
-0.00056844409
-0.002625896
-0.00018765562
-0.002574509
0.00019962606
-0.0024244087
0.0005785869
-0.002181396
0.00093481786
-0.0018547966
0.0012548435
-0.001457121
0.0015265985
-0.0010035995
0.0017398646
-0.00051160701
0.0018866404
-4.9375458e-10
0.0019614276
0.00051160596
0.0019614273
0.0010035983
0.0018866394
0.0014571196
0.0017398631
0.001854795
0.0015265967
0.0021813945
0.0012548416
0.0024244074
0.00093481598
0.002574508
0.00057858515
0.0026258954
0.00019962448
0.0025764974
-0.00018765712
0.0024280761
-0.00056844548
0.0021861752
-0.00092805086
0.0018599554
-0.0012524784
0.0014618754
-0.0015289894
0.0010072311
-0.001746642
0.00051356989
-0.0018967704
-0.0019733702
-0.00042930596
-0.0015440655
-0.00084194553
-0.0014841302
-0.0012219262
-0.0013666603
-0.0015545645
-0.0011963499
-0.0018270661
-0.00097997553
-0.0020290186
-0.00072609707
-0.0021527775
-0.00044468511
-0.0021937335
-0.00014669964
-0.0021504697
0.00015636221
-0.0020247568
0.00045287405
-0.0018215021
0.00073156313
-0.001548547
0.00098188836
-0.0012163709
0.0011944223
-0.00083769573
0.0013611895
-0.00042700555
0.0014759502
1.7060381e-09
0.0015344204
0.00042700884
0.0015344201
0.00083769869
0.0014759496
0.0012163733
0.0013611885
0.0015485488
0.0011944211
0.0018215034
0.00098188705
0.0020247575
0.00073156183
0.0021504698
0.00045287284
0.0021937332
0.00015636111
0.0021527767
-0.00014670063
0.0020290173
-0.00044468605
0.0018270644
-0.00072609798
0.0015545624
-0.0009799764
0.0012219237
-0.0011963507
0.00084194267
-0.001366661
0.00042930287
-0.0014841306
-0.0015440657
-0.00041657918
-0.0011274815
-0.00081700887
-0.0010837005
-0.0011857751
-0.00099789411
-0.0015086305
-0.00087349446
-0.0017731496
-0.00071545642
-0.0019692093
-0.00053003736
-0.0020893723
-0.00032452212
-0.0021291572
-0.00010691477
-0.0020871734
0.0001143784
-0.0019651453
0.00033084593
-0.0017678404
0.00053425826
-0.0015028865
0.00071693451
-0.0011804721
0.00087200788
-0.00081295432
0.00099367171
-0.00041439002
0.0010773859
-4.7142235e-09
0.0011200351
0.00041438074
0.0011200347
0.00081294549
0.0010773848
0.001180464
0.00099366996
0.0015028795
0.0008720056
0.0017678348
0.00071693184
0.0019651412
0.00053425534
0.0020871712
0.00033084292
0.0021291569
0.0001143754
0.0020893739
-0.00010691771
0.0019692129
-0.00032452496
0.0017731549
-0.00053004004
0.0015086373
-0.00071545883
0.0011857832
-0.0008734965
0.00081701783
-0.00099789566
0.00041658868
-0.0010837014
-0.0011274819
-0.00037014034
-0.00075734275
-0.00072589436
-0.00072794644
-0.0010534579
-0.00067033052
-0.0013401568
-0.00058679557
-0.0015749491
-0.00048066411
-0.0017488534
-0.00035613312
-0.0018552861
-0.0002180894
-0.0018902914
-7.1909492e-05
-0.0018526877
7.6774733e-05
-0.0017440535
0.00022221173
-0.0015686801
0.00035888482
-0.001333374
0.00048162844
-0.0010471937
0.00058582754
-0.00072110073
0.00066757877
-0.00036754514
0.00072383033
1.5791514e-09
0.00075248834
0.00036754823
0.00075248803
0.00072110359
0.00072382945
0.0010471962
0.00066757738
0.0013333761
0.00058582571
0.0015686816
0.00048162628
0.0017440545
0.00035888246
0.0018526881
0.00022220929
0.0018902912
7.6772306e-05
0.0018552854
-7.1911862e-05
0.0017488521
-0.0002180917
0.0015749474
-0.0003561353
0.0013401546
-0.00048066608
0.0010534554
-0.00058679722
0.00072589148
-0.00067033177
0.00037013727
-0.00072794722
-0.00075734303
-0.00046659362
-0.00029074194
-0.00091511462
-0.00027942544
-0.0013281936
-0.00025725153
-0.001689873
-0.00022511623
-0.0019862251
-0.00018431202
-0.0022058905
-0.00013646763
-0.0023405117
-8.3468271e-05
-0.0023850703
-2.7350859e-05
-0.0023381355
2.9839937e-05
-0.0022015014
8.5577602e-05
-0.0019804931
0.00013787652
-0.001683672
0.0001848074
-0.0013224686
0.00022462412
-0.00091073777
0.00025584792
-0.00046423195
0.00027732451
-6.9234355e-09
0.00028826331
0.00046421834
0.00028826277
0.00091072486
0.00027732293
0.0013224569
0.00025584536
0.0016836619
0.00022462067
0.001980485
0.00018480323
0.0022014956
0.0001378718
0.0023381324
8.5572549e-05
0.0023850699
2.9834766e-05
0.0023405141
-2.7356041e-05
0.0022058957
-8.3473324e-05
0.0019862328
-0.00013647239
0.001689883
-0.00018431625
0.0013282055
-0.00022511975
0.00091512787
-0.00025725416
0.00046660772
-0.00027942707
-0.0002907425
-0.00030949167
-0.00060693339
-0.0008807889
-0.0011204588
-0.0013167148
-0.0014620578
-0.0015509916
-0.0015801886
-0.0015485067
-0.001457467
-0.0013107175
-0.0011139669
-0.00087478845
-0.00060233431
-0.00030699017
1.3364528e-08
0.00030701637
0.00060235896
0.00087481057
0.0011139857
0.0013107321
0.001457477
0.0015485117
0.0015801886
0.0015509866
0.0014620477
0.0013167001
0.0011204399
0.00088076662
0.00060690853
0.00030946522
)
;

boundaryField
{
    leftWall
    {
        type            cyclic;
        value           nonuniform List<scalar> 
32
(
-8.5628188e-10
-8.7000877e-10
-9.5100114e-10
-1.0715218e-09
-1.1027916e-09
-8.3740928e-10
-3.7396033e-11
1.3734575e-09
3.0935691e-09
3.8845676e-09
1.0794355e-09
-9.7352318e-09
-3.3435394e-08
-7.0012867e-08
-1.0027351e-07
-6.6382779e-08
7.27565e-08
1.0204527e-07
6.9920805e-08
3.3044056e-08
9.4177698e-09
-1.3128779e-09
-4.04298e-09
-3.1617033e-09
-1.3684619e-09
1.1517384e-10
-6.8257531e-10
1.586553e-09
-4.8438822e-09
1.565105e-09
-7.1870147e-09
1.3499523e-08
)
;
    }
    rightWall
    {
        type            cyclic;
        value           nonuniform List<scalar> 
32
(
8.5628188e-10
8.7000877e-10
9.5100114e-10
1.0715218e-09
1.1027916e-09
8.3740928e-10
3.7396033e-11
-1.3734575e-09
-3.0935691e-09
-3.8845676e-09
-1.0794355e-09
9.7352318e-09
3.3435394e-08
7.0012867e-08
1.0027351e-07
6.6382779e-08
-7.27565e-08
-1.0204527e-07
-6.9920805e-08
-3.3044056e-08
-9.4177698e-09
1.3128779e-09
4.04298e-09
3.1617033e-09
1.3684619e-09
-1.1517384e-10
6.8257531e-10
-1.586553e-09
4.8438822e-09
-1.565105e-09
7.1870147e-09
-1.3499523e-08
)
;
    }
    lowerWall
    {
        type            calculated;
        value           uniform 0;
    }
    atmosphere
    {
        type            calculated;
        value           nonuniform List<scalar> 
32
(
1.8736235e-05
1.801627e-05
1.6603986e-05
1.4553638e-05
1.1944e-05
8.8753459e-06
5.4655979e-06
1.8461248e-06
-1.842001e-06
-5.4620996e-06
-8.8729858e-06
-1.194313e-05
-1.4554375e-05
-1.6606208e-05
-1.8019632e-05
-1.8740223e-05
-1.8740233e-05
-1.801966e-05
-1.6606254e-05
-1.4554438e-05
-1.1943208e-05
-8.8730752e-06
-5.462198e-06
-1.842105e-06
1.8460183e-06
5.4654934e-06
8.8752476e-06
1.1943913e-05
1.4553565e-05
1.6603931e-05
1.8016236e-05
1.8736224e-05
)
;
    }
    defaultFaces
    {
        type            empty;
        value           nonuniform List<scalar> 0();
    }
}


// ************************************************************************* //
