/*--------------------------------*- C++ -*----------------------------------*\
| =========                 |                                                 |
| \\      /  F ield         | OpenFOAM: The Open Source CFD Toolbox           |
|  \\    /   O peration     | Version:  2106                                  |
|   \\  /    A nd           | Website:  www.openfoam.com                      |
|    \\/     M anipulation  |                                                 |
\*---------------------------------------------------------------------------*/
FoamFile
{
    version     2.0;
    format      ascii;
    arch        "LSB;label=32;scalar=64";
    class       volVectorField;
    location    "0.033";
    object      U;
}
// * * * * * * * * * * * * * * * * * * * * * * * * * * * * * * * * * * * * * //

dimensions      [0 1 -1 0 0 0 0];

internalField   nonuniform List<vector> 
1024
(
(0.0046317081 -0.0045326591 0)
(0.013718531 -0.0043598583 0)
(0.022282319 -0.0040206982 0)
(0.029996077 -0.0035278397 0)
(0.036564571 -0.0028997286 0)
(0.041735486 -0.0021599544 0)
(0.045309098 -0.0013364207 0)
(0.04714608 -0.00046035143 0)
(0.047172871 0.00043485982 0)
(0.045386113 0.0013147073 0)
(0.041850416 0.0021455286 0)
(0.036700115 0.0028947059 0)
(0.030131552 0.0035329724 0)
(0.022397114 0.0040352045 0)
(0.013795195 0.0043815333 0)
(0.0046585895 0.0045582111 0)
(-0.0046586421 0.0045582105 0)
(-0.013795245 0.0043815315 0)
(-0.022397158 0.0040352017 0)
(-0.03013159 0.0035329688 0)
(-0.036700145 0.0028947017 0)
(-0.041850438 0.0021455241 0)
(-0.045386126 0.0013147026 0)
(-0.047172873 0.00043485503 0)
(-0.047146074 -0.0004603562 0)
(-0.045309081 -0.0013364254 0)
(-0.041735461 -0.0021599588 0)
(-0.036564537 -0.0028997327 0)
(-0.029996036 -0.0035278432 0)
(-0.022282272 -0.0040207009 0)
(-0.013718479 -0.0043598601 0)
(-0.0046316529 -0.0045326597 0)
(0.004926341 -0.01382484 0)
(0.014591182 -0.013297798 0)
(0.023699673 -0.012263363 0)
(0.031904017 -0.010760154 0)
(0.038890226 -0.0088444326 0)
(0.04438999 -0.0065881459 0)
(0.04819094 -0.0040763943 0)
(0.050144921 -0.0014044041 0)
(0.050173872 0.0013259008 0)
(0.048273497 0.0040098709 0)
(0.044513458 0.0065438322 0)
(0.039035832 0.0088289908 0)
(0.032049559 0.010775915 0)
(0.023823 0.01230792 0)
(0.014673543 0.013364375 0)
(0.0049552217 0.013903325 0)
(-0.0049552752 0.013903323 0)
(-0.014673594 0.013364369 0)
(-0.023823045 0.012307911 0)
(-0.032049597 0.010775904 0)
(-0.039035862 0.0088289782 0)
(-0.044513479 0.0065438186 0)
(-0.048273508 0.0040098567 0)
(-0.050173874 0.0013258865 0)
(-0.050144914 -0.0014044183 0)
(-0.048190924 -0.0040764083 0)
(-0.044389965 -0.0065881593 0)
(-0.038890192 -0.008844445 0)
(-0.031903976 -0.010760165 0)
(-0.023699625 -0.012263371 0)
(-0.014591129 -0.013297803 0)
(-0.004926285 -0.013824842 0)
(0.0054370582 -0.023967766 0)
(0.01610374 -0.023053953 0)
(0.02615607 -0.021260425 0)
(0.035210085 -0.018654198 0)
(0.042919268 -0.015332876 0)
(0.048987652 -0.011421244 0)
(0.053181107 -0.0070668515 0)
(0.055336389 -0.0024347392 0)
(0.055367614 0.002298525 0)
(0.05327002 0.0069514408 0)
(0.049120656 0.011344296 0)
(0.043076091 0.01530607 0)
(0.03536682 0.018681579 0)
(0.026288866 0.021337801 0)
(0.016192416 0.023169551 0)
(0.0054681507 0.024104032 0)
(-0.0054682091 0.024104028 0)
(-0.016192471 0.023169541 0)
(-0.026288915 0.021337786 0)
(-0.03536686 0.01868156 0)
(-0.043076122 0.015306049 0)
(-0.049120678 0.011344273 0)
(-0.053270031 0.006951417 0)
(-0.055367615 0.0022985011 0)
(-0.055336381 -0.0024347629 0)
(-0.053181089 -0.0070668747 0)
(-0.048987625 -0.011421267 0)
(-0.042919231 -0.015332897 0)
(-0.03521004 -0.018654216 0)
(-0.026156018 -0.02126044 0)
(-0.016103683 -0.023053962 0)
(-0.005436997 -0.023967769 0)
(0.0061953589 -0.035339052 0)
(0.018349454 -0.033991292 0)
(0.029802813 -0.031346166 0)
(0.040117672 -0.027502685 0)
(0.048899214 -0.022605001 0)
(0.055810503 -0.016837305 0)
(0.060585279 -0.010417259 0)
(0.063038131 -0.0035881658 0)
(0.063071729 0.0033898161 0)
(0.060680921 0.010249239 0)
(0.055953548 0.016725293 0)
(0.049067817 0.022566032 0)
(0.040286128 0.027542636 0)
(0.0299455 0.031458909 0)
(0.018444715 0.034159671 0)
(0.006228754 0.035537509 0)
(-0.0062288197 0.035537504 0)
(-0.018444775 0.034159656 0)
(-0.029945553 0.031458886 0)
(-0.040286171 0.027542607 0)
(-0.049067849 0.022566 0)
(-0.055953569 0.016725259 0)
(-0.060680931 0.010249205 0)
(-0.063071729 0.0033897821 0)
(-0.063038121 -0.0035881995 0)
(-0.060585259 -0.010417292 0)
(-0.055810473 -0.016837337 0)
(-0.048899175 -0.022605031 0)
(-0.040117624 -0.027502712 0)
(-0.029802756 -0.031346188 0)
(-0.01834939 -0.033991307 0)
(-0.00619529 -0.035339057 0)
(0.0072593887 -0.048474663 0)
(0.021500463 -0.046624991 0)
(0.034919222 -0.04299504 0)
(0.047002278 -0.037721088 0)
(0.05728704 -0.031001417 0)
(0.065379232 -0.023089173 0)
(0.070967784 -0.014283205 0)
(0.073836507 -0.0049172196 0)
(0.07387228 0.0046522521 0)
(0.071069595 0.014058812 0)
(0.065531439 0.022939656 0)
(0.057466339 0.030949518 0)
(0.047181324 0.037774611 0)
(0.035070808 0.043145755 0)
(0.021601629 0.046849959 0)
(0.0072948482 0.048739761 0)
(-0.0072949158 0.048739753 0)
(-0.02160169 0.046849938 0)
(-0.03507086 0.043145722 0)
(-0.047181364 0.037774571 0)
(-0.057466367 0.030949474 0)
(-0.065531454 0.022939611 0)
(-0.071069601 0.014058767 0)
(-0.073872277 0.004652208 0)
(-0.073836496 -0.004917263 0)
(-0.070967765 -0.014283248 0)
(-0.065379205 -0.023089216 0)
(-0.057287003 -0.031001458 0)
(-0.047002232 -0.037721126 0)
(-0.034919165 -0.042995071 0)
(-0.021500398 -0.046625012 0)
(-0.0072593178 -0.04847467 0)
(0.0087218034 -0.064053646 0)
(0.025831076 -0.061607641 0)
(0.041950415 -0.056807843 0)
(0.056462302 -0.049835236 0)
(0.068810985 -0.040952905 0)
(0.078523581 -0.030496333 0)
(0.085227809 -0.018861002 0)
(0.088665646 -0.0064878409 0)
(0.088702684 0.0061526476 0)
(0.085333177 0.018577251 0)
(0.078680982 0.030307447 0)
(0.068996228 0.040887596 0)
(0.056647114 0.049903271 0)
(0.042106761 0.056998719 0)
(0.025935359 0.06189231 0)
(0.0087583546 0.064388979 0)
(-0.0087584057 0.064388968 0)
(-0.025935403 0.061892279 0)
(-0.042106793 0.056998674 0)
(-0.056647132 0.049903217 0)
(-0.068996235 0.04088754 0)
(-0.07868098 0.030307392 0)
(-0.085333169 0.018577198 0)
(-0.088702674 0.0061525968 0)
(-0.088665635 -0.0064878904 0)
(-0.085227797 -0.018861051 0)
(-0.078523567 -0.030496384 0)
(-0.068810967 -0.040952956 0)
(-0.056462275 -0.049835285 0)
(-0.041950378 -0.056807884 0)
(-0.02583103 -0.061607669 0)
(-0.0087217496 -0.064053657 0)
(0.010713437 -0.082975186 0)
(0.03172864 -0.079803258 0)
(0.051524975 -0.073579772 0)
(0.069342845 -0.064540777 0)
(0.084499578 -0.053028985 0)
(0.096415428 -0.039480748 0)
(0.10463521 -0.024409481 0)
(0.10884453 -0.0083863724 0)
(0.10888057 0.0079801515 0)
(0.10473766 0.024065824 0)
(0.096568243 0.039252349 0)
(0.084679108 0.052950512 0)
(0.069521663 0.064623859 0)
(0.051676041 0.07381152 0)
(0.031829304 0.080148406 0)
(0.010748726 0.08338154 0)
(-0.010748729 0.083381525 0)
(-0.031829297 0.080148366 0)
(-0.051676021 0.073811461 0)
(-0.069521629 0.064623793 0)
(-0.084679066 0.052950447 0)
(-0.096568201 0.039252289 0)
(-0.10473762 0.024065772 0)
(-0.10888055 0.0079801043 0)
(-0.10884452 -0.0083864172 0)
(-0.10463522 -0.024409527 0)
(-0.096415449 -0.039480798 0)
(-0.084499604 -0.053029042 0)
(-0.069342868 -0.064540835 0)
(-0.05152499 -0.073579824 0)
(-0.031728646 -0.079803295 0)
(-0.010713434 -0.082975199 0)
(0.013383015 -0.10643396 0)
(0.039633495 -0.10235971 0)
(0.064357582 -0.09436709 0)
(0.086604953 -0.082761477 0)
(0.10552268 -0.067985568 0)
(0.12038783 -0.050601998 0)
(0.13063445 -0.031271296 0)
(0.13587321 -0.010726258 0)
(0.13590393 0.010254331 0)
(0.13072163 0.030872453 0)
(0.12051747 0.050337596 0)
(0.10567442 0.067895609 0)
(0.086755584 0.082859103 0)
(0.064484478 0.09463705 0)
(0.039717874 0.10276093 0)
(0.013412606 0.10690593 0)
(-0.013412522 0.10690591 0)
(-0.039717778 0.10276088 0)
(-0.064484365 0.094636978 0)
(-0.086755459 0.082859027 0)
(-0.10567429 0.067895544 0)
(-0.12051735 0.050337547 0)
(-0.13072155 0.030872421 0)
(-0.13590389 0.010254308 0)
(-0.13587321 -0.010726276 0)
(-0.1306345 -0.031271317 0)
(-0.12038791 -0.050602033 0)
(-0.10552278 -0.06798562 0)
(-0.086605068 -0.082761541 0)
(-0.064357692 -0.094367152 0)
(-0.039633594 -0.10235975 0)
(-0.013383103 -0.10643397 0)
(0.016825921 -0.13591786 0)
(0.049828127 -0.13070662 0)
(0.080907029 -0.1204854 0)
(0.10886614 -0.10564791 0)
(0.1326327 -0.086763997 0)
(0.15129879 -0.064556533 0)
(0.16415551 -0.039872259 0)
(0.17071714 -0.013647429 0)
(0.17073599 0.013125673 0)
(0.16420881 0.039431992 0)
(0.15137736 0.064265821 0)
(0.13272367 0.086666497 0)
(0.10895558 0.10575755 0)
(0.080981747 0.1207849 0)
(0.049877463 0.13115042 0)
(0.016843217 0.13643923 0)
(-0.016843032 0.1364392 0)
(-0.049877258 0.13115035 0)
(-0.080981518 0.12078481 0)
(-0.10895533 0.10575746 0)
(-0.13272343 0.086666445 0)
(-0.15137715 0.064265804 0)
(-0.16420866 0.039432011 0)
(-0.17073592 0.013125712 0)
(-0.17071715 -0.013647383 0)
(-0.16415561 -0.039872221 0)
(-0.15129897 -0.064556524 0)
(-0.13263292 -0.086764028 0)
(-0.10886638 -0.10564797 0)
(-0.080907262 -0.12048547 0)
(-0.049828343 -0.13070668 0)
(-0.016826119 -0.13591788 0)
(0.020936101 -0.1729992 0)
(0.061998777 -0.16635508 0)
(0.10066503 -0.15332583 0)
(0.13544469 -0.13441735 0)
(0.16500221 -0.11036065 0)
(0.18820769 -0.082081432 0)
(0.20418041 -0.050662344 0)
(0.21231864 -0.017296693 0)
(0.21231846 0.016755128 0)
(0.20417971 0.050206475 0)
(0.18820555 0.081782088 0)
(0.16499777 0.11026211 0)
(0.13543864 0.13453329 0)
(0.10065866 0.15363783 0)
(0.061993729 0.16681558 0)
(0.020934244 0.17353915 0)
(-0.020934029 0.17353912 0)
(-0.061993477 0.16681549 0)
(-0.10065836 0.15363772 0)
(-0.1354383 0.1345332 0)
(-0.16499742 0.11026209 0)
(-0.18820524 0.081782125 0)
(-0.20417948 0.050206585 0)
(-0.21231836 0.016755274 0)
(-0.21231866 -0.017296536 0)
(-0.20418056 -0.050662202 0)
(-0.18820796 -0.082081348 0)
(-0.16500255 -0.11036064 0)
(-0.13544504 -0.13441741 0)
(-0.10066535 -0.15332592 0)
(-0.061999063 -0.16635516 0)
(-0.02093635 -0.17299924 0)
(0.025179239 -0.21874584 0)
(0.074563913 -0.21033228 0)
(0.12106651 -0.19383591 0)
(0.1628947 -0.16990118 0)
(0.19844135 -0.13945822 0)
(0.22634487 -0.10368329 0)
(0.24554441 -0.063951489 0)
(0.25531289 -0.02177404 0)
(0.25529021 0.021254248 0)
(0.24548105 0.063513632 0)
(0.22625221 0.10339746 0)
(0.19833152 0.13936553 0)
(0.16278448 0.17001374 0)
(0.12097232 0.19413559 0)
(0.074499993 0.21077295 0)
(0.02515646 0.21926106 0)
(-0.025156469 0.219261 0)
(-0.074499917 0.21077281 0)
(-0.12097213 0.19413542 0)
(-0.16278416 0.1700136 0)
(-0.19833113 0.13936551 0)
(-0.22625184 0.10339755 0)
(-0.24548076 0.063513864 0)
(-0.25529007 0.021254559 0)
(-0.2553129 -0.021773728 0)
(-0.24554458 -0.063951199 0)
(-0.2263452 -0.10368311 0)
(-0.19844172 -0.1394582 0)
(-0.16289503 -0.16990127 0)
(-0.12106675 -0.19383604 0)
(-0.074564064 -0.21033241 0)
(-0.025179307 -0.2187459 0)
(0.028353522 -0.27261497 0)
(0.083965758 -0.26211944 0)
(0.13633889 -0.24154343 0)
(0.1834569 -0.21169297 0)
(0.22350923 -0.17373097 0)
(0.25495626 -0.12912581 0)
(0.2765899 -0.079596582 0)
(0.28759298 -0.027034778 0)
(0.28756109 0.026568405 0)
(0.27649717 0.079200712 0)
(0.254819 0.12886547 0)
(0.22335139 0.17364342 0)
(0.18330179 0.21178877 0)
(0.13620806 0.2418059 0)
(0.083877058 0.26250627 0)
(0.028321402 0.27306566 0)
(-0.02832217 0.27306553 0)
(-0.083877635 0.26250599 0)
(-0.13620838 0.24180557 0)
(-0.18330178 0.21178846 0)
(-0.22335115 0.17364333 0)
(-0.25481865 0.12886554 0)
(-0.27649683 0.079201056 0)
(-0.28756092 0.026568958 0)
(-0.28759296 -0.027034298 0)
(-0.27659003 -0.079596129 0)
(-0.25495654 -0.12912557 0)
(-0.22350947 -0.17373099 0)
(-0.18345693 -0.21169316 0)
(-0.13633869 -0.24154369 0)
(-0.083965321 -0.2621197 0)
(-0.028352897 -0.27261508 0)
(0.028535376 -0.33092241 0)
(0.084509674 -0.31818224 0)
(0.13723854 -0.29320361 0)
(0.18469731 -0.25696296 0)
(0.22506407 -0.21087086 0)
(0.25677921 -0.15670281 0)
(0.2786078 -0.096551161 0)
(0.28972159 -0.03273958 0)
(0.28970412 0.032327835 0)
(0.27856045 0.096205874 0)
(0.25671921 0.15646788 0)
(0.22500969 0.21077836 0)
(0.18464899 0.25703309 0)
(0.13719904 0.29342447 0)
(0.084481122 0.31851474 0)
(0.028523392 0.33131019 0)
(-0.028525716 0.3313099 0)
(-0.084483038 0.31851418 0)
(-0.13720044 0.29342377 0)
(-0.18464969 0.25703235 0)
(-0.22500987 0.21077802 0)
(-0.25671906 0.15646768 0)
(-0.27856006 0.096206205 0)
(-0.28970395 0.032328838 0)
(-0.28972156 -0.032739014 0)
(-0.27860783 -0.09655059 0)
(-0.25677937 -0.15670263 0)
(-0.22506393 -0.21087114 0)
(-0.18469663 -0.25696346 0)
(-0.13723734 -0.29320419 0)
(-0.084507937 -0.3181828 0)
(-0.028533229 -0.33092263 0)
(0.023595381 -0.38551895 0)
(0.069898902 -0.37068569 0)
(0.11354032 -0.34160944 0)
(0.15284357 -0.29941153 0)
(0.18630621 -0.24573312 0)
(0.21263318 -0.18262265 0)
(0.23077262 -0.1125151 0)
(0.2400264 -0.03814093 0)
(0.24006391 0.037691359 0)
(0.23088315 0.11212144 0)
(0.21280072 0.18234011 0)
(0.18650658 0.24561203 0)
(0.15304825 0.29947046 0)
(0.11371489 0.34183533 0)
(0.070014785 0.37103452 0)
(0.023636479 0.38591987 0)
(-0.023640956 0.38591925 0)
(-0.070018494 0.37103339 0)
(-0.11371784 0.34183398 0)
(-0.15305005 0.29946884 0)
(-0.18650758 0.2456112 0)
(-0.21280107 0.18233912 0)
(-0.23088247 0.11212122 0)
(-0.24006375 0.037693724 0)
(-0.24002663 -0.038140637 0)
(-0.23077256 -0.11251456 0)
(-0.21263322 -0.18262286 0)
(-0.1863055 -0.24573404 0)
(-0.15284183 -0.29941268 0)
(-0.11353765 -0.34161071 0)
(-0.069895183 -0.37068694 0)
(-0.023590872 -0.3855194 0)
(0.012880669 -0.42421694 0)
(0.038166401 -0.40794254 0)
(0.062017016 -0.37599434 0)
(0.083487419 -0.32959984 0)
(0.10176317 -0.2705795 0)
(0.11615812 -0.20114742 0)
(0.12606222 -0.12395426 0)
(0.13110505 -0.042064799 0)
(0.13115454 0.041436027 0)
(0.1261996 0.1234162 0)
(0.11635508 0.20077529 0)
(0.10198613 0.27043118 0)
(0.083706917 0.3297018 0)
(0.062202761 0.37632686 0)
(0.038293825 0.40844583 0)
(0.012924654 0.42481234 0)
(-0.01293038 0.42481107 0)
(-0.038298385 0.40844383 0)
(-0.062206911 0.37632473 0)
(-0.083710034 0.3296988 0)
(-0.10198863 0.27042981 0)
(-0.11635652 0.20077263 0)
(-0.12619679 0.12341356 0)
(-0.13115411 0.041443323 0)
(-0.13110735 -0.042065803 0)
(-0.12606246 -0.12395397 0)
(-0.11615801 -0.20114857 0)
(-0.10176157 -0.27058156 0)
(-0.083484663 -0.32960198 0)
(-0.062013254 -0.37599682 0)
(-0.038161029 -0.40794507 0)
(-0.012874176 -0.42421777 0)
(0.00065016316 -0.43451222 0)
(0.0018780162 -0.41781415 0)
(0.0029511632 -0.38501913 0)
(0.0037455089 -0.3373631 0)
(0.0042072225 -0.27682003 0)
(0.0043915031 -0.20565149 0)
(0.0042892302 -0.12654248 0)
(0.0039838391 -0.042800048 0)
(0.0036898338 0.042456208 0)
(0.0034428669 0.12626503 0)
(0.0031088987 0.20547504 0)
(0.0026841565 0.27677152 0)
(0.0022201616 0.33745869 0)
(0.001655608 0.38524869 0)
(0.0010096255 0.41814995 0)
(0.00033775127 0.43490972 0)
(-0.00034079009 0.43490741 0)
(-0.0010116819 0.41814742 0)
(-0.001658923 0.38524719 0)
(-0.0022240436 0.33745524 0)
(-0.0026880649 0.27676968 0)
(-0.0031109023 0.20546609 0)
(-0.0034321504 0.12625592 0)
(-0.0036876788 0.04247788 0)
(-0.0039938348 -0.042802957 0)
(-0.004291817 -0.12654599 0)
(-0.0043910554 -0.2056552 0)
(-0.0042044431 -0.27682341 0)
(-0.0037429021 -0.33736569 0)
(-0.0029485975 -0.3850231 0)
(-0.0018742307 -0.41781857 0)
(-0.00064580605 -0.43451346 0)
(-0.00018545983 -0.43507451 0)
(-0.00054790375 -0.4183023 0)
(-0.00090326921 -0.38538834 0)
(-0.0012075517 -0.33757759 0)
(-0.0014477982 -0.27686478 0)
(-0.0016940009 -0.2055357 0)
(-0.0018988712 -0.12629512 0)
(-0.0020815114 -0.04246747 0)
(-0.0023823609 0.042818704 0)
(-0.0027487271 0.12660162 0)
(-0.0029637704 0.20573664 0)
(-0.0029520665 0.2769224 0)
(-0.0027152235 0.33748299 0)
(-0.0021853438 0.38515253 0)
(-0.0014049238 0.41795772 0)
(-0.00048774925 0.43465514 0)
(0.00049044914 0.43465282 0)
(0.0014067315 0.41795517 0)
(0.0021883661 0.38515102 0)
(0.0027188571 0.33747952 0)
(0.0029557671 0.27692054 0)
(0.0029657102 0.20572764 0)
(0.0027380385 0.12659239 0)
(0.0023803728 0.042840208 0)
(0.0020915174 -0.042470641 0)
(0.0019013278 -0.12629862 0)
(0.0016934809 -0.20553942 0)
(0.0014447584 -0.2768681 0)
(0.0012047445 -0.33758014 0)
(0.00090045694 -0.38539226 0)
(0.00054370792 -0.41830668 0)
(0.0001806725 -0.43507573 0)
(-0.012771346 -0.42528613 0)
(-0.037825194 -0.40889752 0)
(-0.06143633 -0.37674161 0)
(-0.082672259 -0.33006241 0)
(-0.10072236 -0.27072494 0)
(-0.11490993 -0.20099045 0)
(-0.124627 -0.12354527 0)
(-0.12951645 -0.041477461 0)
(-0.1294667 0.042114766 0)
(-0.12448496 0.12409668 0)
(-0.11470049 0.20137414 0)
(-0.10048263 0.27087957 0)
(-0.082434517 0.32996331 0)
(-0.061232258 0.37640652 0)
(-0.037679659 0.40838776 0)
(-0.012711373 0.42467602 0)
(0.012716959 0.42467468 0)
(0.037684094 0.4083857 0)
(0.061236309 0.37640433 0)
(0.082437582 0.32996025 0)
(0.10048511 0.27087812 0)
(0.11470189 0.20137138 0)
(0.12448189 0.12409385 0)
(0.12946613 0.042122017 0)
(0.12951878 -0.041478722 0)
(0.12462717 -0.12354495 0)
(0.11490976 -0.20099159 0)
(0.10072068 -0.2707269 0)
(0.082669416 -0.33006446 0)
(0.061432469 -0.376744 0)
(0.037819711 -0.40889996 0)
(0.012764735 -0.4252869 0)
(-0.023472674 -0.38671632 0)
(-0.069519491 -0.37179828 0)
(-0.11290662 -0.3425377 0)
(-0.15195794 -0.30008413 0)
(-0.18517617 -0.24611393 0)
(-0.21128152 -0.18271102 0)
(-0.22923366 -0.11234778 0)
(-0.23834801 -0.037765147 0)
(-0.23831034 0.038222847 0)
(-0.22912216 0.11275007 0)
(-0.21111122 0.18300095 0)
(-0.18497116 0.24623922 0)
(-0.15174664 0.30002633 0)
(-0.11272341 0.34230887 0)
(-0.069393383 0.37144295 0)
(-0.023421139 0.38630469 0)
(0.02342561 0.38630403 0)
(0.069397069 0.37144177 0)
(0.11272632 0.34230746 0)
(0.15174841 0.30002463 0)
(0.18497212 0.24623832 0)
(0.21111151 0.18299989 0)
(0.22912138 0.11274978 0)
(0.2383101 0.03822535 0)
(0.23834817 -0.037764845 0)
(0.22923354 -0.1123472 0)
(0.2112815 -0.1827112 0)
(0.18517539 -0.24611479 0)
(0.15195615 -0.30008521 0)
(0.11290391 -0.3425389 0)
(0.069515755 -0.37179947 0)
(0.023468168 -0.38671674 0)
(-0.028341906 -0.33245136 0)
(-0.083938728 -0.31961075 0)
(-0.13631653 -0.29443306 0)
(-0.1834606 -0.25791529 0)
(-0.22356155 -0.21150062 0)
(-0.25506782 -0.15700238 0)
(-0.27677011 -0.096532451 0)
(-0.28784407 -0.032434492 0)
(-0.28786332 0.032856508 0)
(-0.27682262 0.096886699 0)
(-0.25513537 0.15724387 0)
(-0.22362407 0.21159607 0)
(-0.18351571 0.25784432 0)
(-0.13636006 0.29420706 0)
(-0.083967696 0.31926938 0)
(-0.028350703 0.33205168 0)
(0.028353055 0.33205138 0)
(0.083969627 0.31926877 0)
(0.13636145 0.29420631 0)
(0.18351639 0.25784353 0)
(0.22362422 0.21159568 0)
(0.25513517 0.15724363 0)
(0.27682217 0.096887008 0)
(0.28786311 0.032857529 0)
(0.287844 -0.032433913 0)
(0.2767701 -0.096531852 0)
(0.25506794 -0.15700217 0)
(0.22356137 -0.21150085 0)
(0.1834599 -0.25791573 0)
(0.13631532 -0.29443359 0)
(0.083936998 -0.31961128 0)
(0.028339783 -0.33245157 0)
(-0.028113081 -0.27458931 0)
(-0.083258672 -0.26397014 0)
(-0.13520377 -0.24315309 0)
(-0.181951 -0.2129671 0)
(-0.22170713 -0.17460757 0)
(-0.25294564 -0.12957852 0)
(-0.27446771 -0.079635824 0)
(-0.28545416 -0.026709636 0)
(-0.28548977 0.027191989 0)
(-0.2745711 0.080045519 0)
(-0.25309877 0.12984838 0)
(-0.22188335 0.17469871 0)
(-0.18212394 0.21286856 0)
(-0.13534899 0.24288174 0)
(-0.083356145 0.26356947 0)
(-0.028147189 0.27412169 0)
(0.028147985 0.27412155 0)
(0.08335674 0.26356917 0)
(0.13534931 0.24288136 0)
(0.18212392 0.21286821 0)
(0.22188309 0.17469859 0)
(0.2530984 0.12984842 0)
(0.27457073 0.080045849 0)
(0.28548957 0.027192545 0)
(0.28545411 -0.026709145 0)
(0.27446781 -0.079635347 0)
(0.25294589 -0.12957824 0)
(0.22170735 -0.17460755 0)
(0.18195102 -0.21296725 0)
(0.13520357 -0.24315332 0)
(0.083258245 -0.26397037 0)
(0.028112476 -0.27458941 0)
(-0.024907273 -0.22122908 0)
(-0.073762244 -0.21266379 0)
(-0.11977509 -0.19587544 0)
(-0.16117495 -0.17153502 0)
(-0.19637303 -0.14060955 0)
(-0.22402155 -0.10431668 0)
(-0.24306519 -0.064073504 0)
(-0.25278282 -0.021434455 0)
(-0.25281063 0.021979002 0)
(-0.24314319 0.064532367 0)
(-0.22413604 0.10461661 0)
(-0.19650853 0.14070726 0)
(-0.16131068 0.17141766 0)
(-0.11989071 0.19556176 0)
(-0.073840352 0.21220192 0)
(-0.024934991 0.22068857 0)
(0.024935022 0.2206885 0)
(0.073840292 0.21220175 0)
(0.11989053 0.19556156 0)
(0.16131036 0.17141749 0)
(0.19650813 0.14070721 0)
(0.22413565 0.10461668 0)
(0.24314288 0.064532586 0)
(0.25281047 0.021979315 0)
(0.25278281 -0.021434133 0)
(0.24306534 -0.064073193 0)
(0.22402186 -0.10431647 0)
(0.1963734 -0.14060949 0)
(0.16117527 -0.17153506 0)
(0.11977534 -0.19587554 0)
(0.073762404 -0.21266389 0)
(0.024907356 -0.22122913 0)
(-0.020625231 -0.17604982 0)
(-0.061079321 -0.16922766 0)
(-0.099174933 -0.15585694 0)
(-0.13344405 -0.13647304 0)
(-0.16257071 -0.11184758 0)
(-0.18544104 -0.08295274 0)
(-0.20118542 -0.050918466 0)
(-0.20921043 -0.016982808 0)
(-0.20921662 0.017560041 0)
(-0.20120326 0.051404575 0)
(-0.18546883 0.083272311 0)
(-0.16260542 0.11195325 0)
(-0.13348038 0.13635007 0)
(-0.099206977 0.15552477 0)
(-0.06110162 0.16873684 0)
(-0.02063341 0.17547396 0)
(0.020633216 0.17547392 0)
(0.061101385 0.16873674 0)
(0.099206687 0.15552464 0)
(0.13348003 0.13634995 0)
(0.16260506 0.1119532 0)
(0.18546851 0.083272332 0)
(0.20120303 0.051404675 0)
(0.2092165 0.017560189 0)
(0.20921043 -0.016982642 0)
(0.20118555 -0.050918304 0)
(0.18544129 -0.08295263 0)
(0.16257104 -0.11184755 0)
(0.13344439 -0.13647307 0)
(0.099175258 -0.155857 0)
(0.061079613 -0.16922773 0)
(0.02062549 -0.17604985 0)
(-0.016455305 -0.13963486 0)
(-0.048729364 -0.13422047 0)
(-0.079118632 -0.1236091 0)
(-0.10645063 -0.10822585 0)
(-0.12967503 -0.088683529 0)
(-0.14790403 -0.065754621 0)
(-0.1604458 -0.040336896 0)
(-0.16682891 -0.013414209 0)
(-0.16681645 0.013983642 0)
(-0.16041072 0.040817587 0)
(-0.14785274 0.066072361 0)
(-0.12961627 0.088790547 0)
(-0.10639345 0.10810677 0)
(-0.079071314 0.12328262 0)
(-0.048698442 0.1337362 0)
(-0.016444701 0.13906565 0)
(0.01644454 0.13906562 0)
(0.048698258 0.13373613 0)
(0.079071101 0.12328251 0)
(0.10639321 0.10810668 0)
(0.12961603 0.088790481 0)
(0.14785253 0.066072335 0)
(0.16041056 0.040817603 0)
(0.16681636 0.013983686 0)
(0.1668289 -0.013414151 0)
(0.16044588 -0.040336838 0)
(0.14790419 -0.065754587 0)
(0.12967524 -0.088683533 0)
(0.10645086 -0.10822588 0)
(0.079118863 -0.12360915 0)
(0.048729583 -0.13422051 0)
(0.016455507 -0.13963488 0)
(-0.012939541 -0.11098062 0)
(-0.038317386 -0.10667563 0)
(-0.062211433 -0.098238481 0)
(-0.083698897 -0.086006973 0)
(-0.10195338 -0.070468301 0)
(-0.11627686 -0.052236926 0)
(-0.12612588 -0.032027327 0)
(-0.13113057 -0.010623178 0)
(-0.13110596 0.011154328 0)
(-0.1260561 0.032476525 0)
(-0.11617328 0.052535296 0)
(-0.1018324 0.070570805 0)
(-0.083579056 0.085898685 0)
(-0.06211067 0.097936384 0)
(-0.038250515 0.1062258 0)
(-0.012916194 0.11045108 0)
(0.012916134 0.11045106 0)
(0.038250441 0.10622575 0)
(0.062110575 0.097936316 0)
(0.083578942 0.085898618 0)
(0.10183228 0.070570753 0)
(0.11617317 0.052535267 0)
(0.12605602 0.03247652 0)
(0.13110591 0.011154341 0)
(0.13113056 -0.010623154 0)
(0.12612591 -0.032027302 0)
(0.11627693 -0.052236912 0)
(0.10195347 -0.070468307 0)
(0.083699004 -0.086006996 0)
(0.062211538 -0.098238511 0)
(0.038317484 -0.10667566 0)
(0.012939629 -0.11098064 0)
(-0.010219884 -0.08772638 0)
(-0.030263379 -0.084321643 0)
(-0.049134053 -0.077648915 0)
(-0.066102546 -0.067975416 0)
(-0.080515699 -0.055686628 0)
(-0.091821931 -0.041268902 0)
(-0.09959196 -0.025287998 0)
(-0.10353391 -0.008364871 0)
(-0.10350257 0.0088493683 0)
(-0.099502892 0.02569799 0)
(-0.091689138 0.041541558 0)
(-0.080359787 0.055780491 0)
(-0.06594735 0.067876451 0)
(-0.049003009 0.077372351 0)
(-0.030176084 0.083909488 0)
(-0.01018927 0.087240959 0)
(0.010189298 0.087240926 0)
(0.030176099 0.083909396 0)
(0.049003008 0.07737221 0)
(0.06594733 0.067876275 0)
(0.080359754 0.055780295 0)
(0.091689098 0.041541354 0)
(0.099502854 0.025697786 0)
(0.10350254 0.0088491676 0)
(0.10353389 -0.0083650653 0)
(0.099591956 -0.025288183 0)
(0.091821939 -0.041269077 0)
(0.080515713 -0.05568679 0)
(0.066102559 -0.067975559 0)
(0.049134061 -0.077649028 0)
(0.030263379 -0.084321717 0)
(0.010219876 -0.087726406 0)
(-0.0083003548 -0.073239706 0)
(-0.024579233 -0.070398764 0)
(-0.03990543 -0.064830501 0)
(-0.053686363 -0.056757108 0)
(-0.065391198 -0.046499352 0)
(-0.074571492 -0.034462362 0)
(-0.080878077 -0.021117992 0)
(-0.084073657 -0.0069849776 0)
(-0.084040468 0.00739203 0)
(-0.080783713 0.021463057 0)
(-0.074430635 0.034693087 0)
(-0.065225546 0.046581057 0)
(-0.053521175 0.056677887 0)
(-0.039765728 0.064602913 0)
(-0.024486066 0.070057823 0)
(-0.0082676938 0.072837513 0)
(0.0082676631 0.072837529 0)
(0.02448603 0.070057874 0)
(0.039765686 0.064602999 0)
(0.053521127 0.056678012 0)
(0.065225495 0.04658122 0)
(0.074430588 0.034693285 0)
(0.080783674 0.021463282 0)
(0.084040442 0.0073922729 0)
(0.084073647 -0.0069847301 0)
(0.080878085 -0.021117752 0)
(0.074571516 -0.034462143 0)
(0.065391235 -0.046499165 0)
(0.053686406 -0.056756959 0)
(0.039905475 -0.064830394 0)
(0.024579279 -0.0703987 0)
(0.0083003979 -0.073239685 0)
(-0.0069393768 -0.049987351 0)
(-0.020548558 -0.048044037 0)
(-0.033360192 -0.044235802 0)
(-0.044878287 -0.038715749 0)
(-0.054658661 -0.031704715 0)
(-0.062326274 -0.023481287 0)
(-0.067589463 -0.014369464 0)
(-0.070250379 -0.004724718 0)
(-0.070211999 0.0050804986 0)
(-0.067480175 0.014670752 0)
(-0.062162826 0.023681847 0)
(-0.054466004 0.031773765 0)
(-0.044685786 0.038642636 0)
(-0.033197112 0.044031502 0)
(-0.020439625 0.047739419 0)
(-0.0069010687 0.049628444 0)
(0.0069011775 0.049628401 0)
(0.020439725 0.047739292 0)
(0.033197199 0.044031299 0)
(0.044685855 0.038642367 0)
(0.054466053 0.031773445 0)
(0.062162856 0.023681488 0)
(0.067480188 0.014670369 0)
(0.070211995 0.0050801056 0)
(0.07025036 -0.0047251069 0)
(0.067589429 -0.014369838 0)
(0.062326226 -0.023481633 0)
(0.0546586 -0.031705023 0)
(0.044878213 -0.038716005 0)
(0.033360107 -0.044235994 0)
(0.020548463 -0.048044157 0)
(0.0069392759 -0.049987392 0)
(-0.0067310892 -0.052780476 0)
(-0.019932467 -0.050735739 0)
(-0.032360955 -0.046727461 0)
(-0.043535637 -0.040914557 0)
(-0.053025499 -0.033526738 0)
(-0.060466252 -0.024854622 0)
(-0.065574313 -0.015237385 0)
(-0.068157292 -0.0050486847 0)
(-0.068120611 0.0053185037 0)
(-0.065469798 0.015466249 0)
(-0.06030981 0.025007861 0)
(-0.05284103 0.033581337 0)
(-0.04335129 0.040862566 0)
(-0.032204808 0.046577146 0)
(-0.019828281 0.050510269 0)
(-0.0066947119 0.052514388 0)
(0.0066944124 0.052514416 0)
(0.019827991 0.050510353 0)
(0.032204537 0.046577284 0)
(0.043351048 0.040862755 0)
(0.052840827 0.033581572 0)
(0.060309654 0.025008135 0)
(0.065469697 0.015466552 0)
(0.06812057 0.0053188244 0)
(0.068157312 -0.0050483608 0)
(0.065574395 -0.015237072 0)
(0.060466393 -0.024854334 0)
(0.053025693 -0.033526487 0)
(0.043535876 -0.040914352 0)
(0.032361228 -0.046727309 0)
(0.019932764 -0.050735647 0)
(0.0067313972 -0.052780445 0)
(-0.0059847848 -0.014616959 0)
(-0.017721587 -0.014043432 0)
(-0.028769771 -0.012920371 0)
(-0.038701085 -0.011294437 0)
(-0.04713204 -0.0092326537 0)
(-0.053738928 -0.0068190144 0)
(-0.058270205 -0.0041502854 0)
(-0.060555415 -0.001331607 0)
(-0.060512205 0.0015276988 0)
(-0.058147183 0.0043162076 0)
(-0.053554895 0.0069293343 0)
(-0.046915041 0.0092704567 0)
(-0.038484174 0.01125383 0)
(-0.028585939 0.012807371 0)
(-0.017598757 0.013875037 0)
(-0.0059415933 0.014418549 0)
(0.0059416934 0.014418499 0)
(0.017598851 0.013874888 0)
(0.028586023 0.01280713 0)
(0.038484246 0.011253507 0)
(0.046915097 0.0092700655 0)
(0.053554934 0.0069288904 0)
(0.058147205 0.0043157289 0)
(0.060512209 0.0015272034 0)
(0.0605554 -0.001332102 0)
(0.058270173 -0.004150764 0)
(0.05373888 -0.0068194592 0)
(0.047131978 -0.009233047 0)
(0.03870101 -0.011294762 0)
(0.028769685 -0.012920614 0)
(0.017721494 -0.014043583 0)
(0.0059846858 -0.01461701 0)
(-0.0075326213 -0.038838744 0)
(-0.022306362 -0.037338466 0)
(-0.036215817 -0.034396759 0)
(-0.048722969 -0.030128949 0)
(-0.0593453 -0.02470202 0)
(-0.067674581 -0.018327691 0)
(-0.073392723 -0.011253684 0)
(-0.076283843 -0.0037540455 0)
(-0.07624423 0.0038827867 0)
(-0.073279838 0.011362979 0)
(-0.067505756 0.018401051 0)
(-0.059146253 0.024728529 0)
(-0.048524042 0.030104814 0)
(-0.036047318 0.034325891 0)
(-0.022193959 0.037231874 0)
(-0.0074934508 0.038712857 0)
(0.0074930109 0.038712886 0)
(0.022193534 0.037231962 0)
(0.036046923 0.034326035 0)
(0.048523692 0.03010501 0)
(0.059145961 0.02472877 0)
(0.067505534 0.018401331 0)
(0.073279695 0.011363288 0)
(0.076244173 0.0038831131 0)
(0.076283875 -0.0037537151 0)
(0.073392844 -0.011253365 0)
(0.067674787 -0.018327397 0)
(0.059345584 -0.024701763 0)
(0.048723319 -0.030128737 0)
(0.036216219 -0.034396602 0)
(0.0223068 -0.037338369 0)
(0.0075330779 -0.038838712 0)
(-0.0050064409 0.02414879 0)
(-0.01482368 0.023221304 0)
(-0.024064489 0.021401774 0)
(-0.032370494 0.018759871 0)
(-0.039420923 0.015396786 0)
(-0.04494529 0.01144143 0)
(-0.048734025 0.0070458871 0)
(-0.050643395 0.0023812375 0)
(-0.050602117 -0.0023662245 0)
(-0.048616231 -0.007033369 0)
(-0.044769125 -0.011433421 0)
(-0.039213121 -0.015394664 0)
(-0.032162649 -0.018764117 0)
(-0.023888147 -0.021411907 0)
(-0.01470556 -0.02323597 0)
(-0.0049643989 -0.024165967 0)
(0.0049652532 -0.024166027 0)
(0.014706381 -0.023236149 0)
(0.023888901 -0.0214122 0)
(0.032163308 -0.018764512 0)
(0.03921366 -0.015395148 0)
(0.044769522 -0.011433975 0)
(0.048616474 -0.0070339718 0)
(0.050602198 -0.0023668529 0)
(0.050643313 0.0023806058 0)
(0.048733781 0.0070452739 0)
(0.044944892 0.011440859 0)
(0.039420382 0.015396281 0)
(0.032369831 0.018759454 0)
(0.024063729 0.021401463 0)
(0.014822852 0.023221112 0)
(0.0050055784 0.024148725 0)
)
;

boundaryField
{
    leftWall
    {
        type            cyclic;
    }
    rightWall
    {