/*--------------------------------*- C++ -*----------------------------------*\
| =========                 |                                                 |
| \\      /  F ield         | OpenFOAM: The Open Source CFD Toolbox           |
|  \\    /   O peration     | Version:  2106                                  |
|   \\  /    A nd           | Website:  www.openfoam.com                      |
|    \\/     M anipulation  |                                                 |
\*---------------------------------------------------------------------------*/
FoamFile
{
    version     2.0;
    format      ascii;
    arch        "LSB;label=32;scalar=64";
    class       volScalarField;
    location    "1.5";
    object      p_rgh;
}
// * * * * * * * * * * * * * * * * * * * * * * * * * * * * * * * * * * * * * //

dimensions      [1 -1 -2 0 0 0 0];

internalField   nonuniform List<scalar> 
90000
(
0.00333333
0.00333335
0.00333339
0.00333345
0.00333352
0.0033336
0.00333371
0.00333383
0.00333397
0.00333412
0.00333429
0.00333448
0.00333468
0.00333489
0.00333512
0.00333537
0.00333562
0.0033359
0.00333618
0.00333648
0.00333679
0.00333711
0.00333744
0.00333778
0.00333813
0.00333849
0.00333886
0.00333923
0.00333961
0.00334
0.0033404
0.0033408
0.0033412
0.00334161
0.00334202
0.00334243
0.00334285
0.00334326
0.00334368
0.00334409
0.00334451
0.00334492
0.00334532
0.00334573
0.00334613
0.00334652
0.00334691
0.00334729
0.00334767
0.00334804
0.0033484
0.00334875
0.00334909
0.00334942
0.00334974
0.00335005
0.00335034
0.00335063
0.0033509
0.00335116
0.0033514
0.00335163
0.00335185
0.00335205
0.00335223
0.0033524
0.00335255
0.00335269
0.00335281
0.00335291
0.003353
0.00335307
0.00335312
0.00335316
0.00335317
0.00335317
0.00335316
0.00335312
0.00335307
0.003353
0.00335291
0.00335281
0.00335269
0.00335255
0.0033524
0.00335223
0.00335205
0.00335185
0.00335163
0.0033514
0.00335116
0.0033509
0.00335063
0.00335035
0.00335005
0.00334974
0.00334942
0.00334909
0.00334875
0.0033484
0.00334804
0.00334767
0.0033473
0.00334692
0.00334653
0.00334613
0.00334573
0.00334533
0.00334492
0.00334451
0.0033441
0.00334369
0.00334327
0.00334286
0.00334244
0.00334203
0.00334162
0.00334121
0.00334081
0.00334041
0.00334001
0.00333962
0.00333924
0.00333887
0.0033385
0.00333814
0.00333779
0.00333745
0.00333712
0.0033368
0.00333649
0.00333619
0.00333591
0.00333564
0.00333538
0.00333513
0.00333491
0.00333469
0.00333449
0.00333431
0.00333414
0.00333398
0.00333385
0.00333373
0.00333362
0.00333354
0.00333347
0.00333342
0.00333338
0.00333336
0.00333332
0.00333334
0.00333338
0.00333343
0.0033335
0.00333359
0.00333369
0.00333381
0.00333395
0.0033341
0.00333427
0.00333446
0.00333466
0.00333488
0.00333511
0.00333535
0.00333561
0.00333588
0.00333617
0.00333647
0.00333677
0.00333709
0.00333743
0.00333777
0.00333812
0.00333848
0.00333885
0.00333922
0.00333961
0.00334
0.00334039
0.00334079
0.0033412
0.00334161
0.00334202
0.00334243
0.00334285
0.00334326
0.00334368
0.00334409
0.00334451
0.00334492
0.00334533
0.00334573
0.00334613
0.00334653
0.00334692
0.0033473
0.00334768
0.00334805
0.00334841
0.00334876
0.0033491
0.00334943
0.00334975
0.00335006
0.00335036
0.00335064
0.00335091
0.00335117
0.00335141
0.00335164
0.00335186
0.00335206
0.00335225
0.00335242
0.00335257
0.00335271
0.00335283
0.00335293
0.00335302
0.00335309
0.00335314
0.00335317
0.00335319
0.00335319
0.00335317
0.00335314
0.00335309
0.00335302
0.00335293
0.00335283
0.00335271
0.00335257
0.00335242
0.00335225
0.00335206
0.00335186
0.00335165
0.00335142
0.00335117
0.00335091
0.00335064
0.00335036
0.00335006
0.00334975
0.00334943
0.0033491
0.00334876
0.00334841
0.00334805
0.00334768
0.00334731
0.00334692
0.00334653
0.00334614
0.00334574
0.00334533
0.00334492
0.00334451
0.0033441
0.00334369
0.00334327
0.00334285
0.00334244
0.00334203
0.00334162
0.00334121
0.0033408
0.0033404
0.00334001
0.00333962
0.00333923
0.00333886
0.00333849
0.00333813
0.00333778
0.00333744
0.00333711
0.00333679
0.00333648
0.00333618
0.00333589
0.00333562
0.00333537
0.00333512
0.00333489
0.00333468
0.00333448
0.00333429
0.00333412
0.00333397
0.00333383
0.00333371
0.00333361
0.00333352
0.00333345
0.0033334
0.00333336
0.00333335
0.00333329
0.00333331
0.00333334
0.0033334
0.00333347
0.00333355
0.00333366
0.00333378
0.00333392
0.00333407
0.00333424
0.00333443
0.00333463
0.00333485
0.00333508
0.00333532
0.00333558
0.00333586
0.00333614
0.00333644
0.00333675
0.00333707
0.00333741
0.00333775
0.0033381
0.00333846
0.00333883
0.00333921
0.0033396
0.00333999
0.00334038
0.00334079
0.00334119
0.0033416
0.00334201
0.00334243
0.00334285
0.00334326
0.00334368
0.0033441
0.00334451
0.00334492
0.00334533
0.00334574
0.00334614
0.00334654
0.00334693
0.00334731
0.00334769
0.00334806
0.00334842
0.00334878
0.00334912
0.00334945
0.00334977
0.00335008
0.00335038
0.00335067
0.00335094
0.0033512
0.00335144
0.00335167
0.00335189
0.00335209
0.00335228
0.00335245
0.0033526
0.00335274
0.00335286
0.00335296
0.00335305
0.00335312
0.00335317
0.00335321
0.00335322
0.00335322
0.00335321
0.00335317
0.00335312
0.00335305
0.00335296
0.00335286
0.00335274
0.0033526
0.00335245
0.00335228
0.00335209
0.00335189
0.00335168
0.00335145
0.0033512
0.00335094
0.00335067
0.00335038
0.00335009
0.00334978
0.00334945
0.00334912
0.00334878
0.00334843
0.00334807
0.0033477
0.00334732
0.00334693
0.00334654
0.00334615
0.00334575
0.00334534
0.00334493
0.00334452
0.0033441
0.00334369
0.00334327
0.00334285
0.00334244
0.00334202
0.00334161
0.0033412
0.00334079
0.00334039
0.00333999
0.0033396
0.00333922
0.00333884
0.00333847
0.00333811
0.00333776
0.00333742
0.00333708
0.00333676
0.00333645
0.00333615
0.00333587
0.0033356
0.00333534
0.00333509
0.00333486
0.00333465
0.00333444
0.00333426
0.00333409
0.00333394
0.0033338
0.00333368
0.00333357
0.00333349
0.00333342
0.00333337
0.00333333
0.00333331
0.00333324
0.00333326
0.00333329
0.00333335
0.00333342
0.0033335
0.00333361
0.00333373
0.00333387
0.00333402
0.0033342
0.00333438
0.00333459
0.0033348
0.00333504
0.00333528
0.00333554
0.00333582
0.00333611
0.00333641
0.00333672
0.00333704
0.00333738
0.00333772
0.00333807
0.00333844
0.00333881
0.00333919
0.00333958
0.00333997
0.00334037
0.00334077
0.00334118
0.00334159
0.00334201
0.00334243
0.00334284
0.00334326
0.00334368
0.0033441
0.00334452
0.00334493
0.00334535
0.00334575
0.00334616
0.00334656
0.00334695
0.00334734
0.00334772
0.00334809
0.00334845
0.0033488
0.00334915
0.00334948
0.00334981
0.00335012
0.00335042
0.0033507
0.00335098
0.00335124
0.00335149
0.00335172
0.00335194
0.00335214
0.00335232
0.0033525
0.00335265
0.00335279
0.00335291
0.00335301
0.0033531
0.00335317
0.00335322
0.00335326
0.00335328
0.00335328
0.00335326
0.00335322
0.00335317
0.0033531
0.00335301
0.00335291
0.00335279
0.00335265
0.0033525
0.00335233
0.00335214
0.00335194
0.00335172
0.00335149
0.00335124
0.00335098
0.00335071
0.00335042
0.00335012
0.00334981
0.00334949
0.00334915
0.00334881
0.00334845
0.00334809
0.00334772
0.00334734
0.00334695
0.00334656
0.00334616
0.00334576
0.00334535
0.00334494
0.00334452
0.00334411
0.00334369
0.00334327
0.00334285
0.00334243
0.00334202
0.0033416
0.00334119
0.00334078
0.00334038
0.00333998
0.00333958
0.0033392
0.00333882
0.00333845
0.00333808
0.00333773
0.00333739
0.00333705
0.00333673
0.00333642
0.00333612
0.00333583
0.00333556
0.0033353
0.00333505
0.00333482
0.0033346
0.0033344
0.00333421
0.00333404
0.00333389
0.00333375
0.00333363
0.00333352
0.00333344
0.00333337
0.00333331
0.00333328
0.00333326
0.00333317
0.00333319
0.00333322
0.00333328
0.00333335
0.00333344
0.00333354
0.00333367
0.0033338
0.00333396
0.00333413
0.00333432
0.00333453
0.00333475
0.00333498
0.00333523
0.00333549
0.00333577
0.00333606
0.00333636
0.00333667
0.003337
0.00333733
0.00333768
0.00333804
0.0033384
0.00333878
0.00333916
0.00333955
0.00333995
0.00334035
0.00334076
0.00334117
0.00334158
0.003342
0.00334242
0.00334284
0.00334326
0.00334369
0.00334411
0.00334453
0.00334494
0.00334536
0.00334577
0.00334618
0.00334658
0.00334697
0.00334736
0.00334775
0.00334812
0.00334849
0.00334884
0.00334919
0.00334953
0.00334985
0.00335017
0.00335047
0.00335076
0.00335103
0.00335129
0.00335154
0.00335178
0.003352
0.0033522
0.00335239
0.00335256
0.00335271
0.00335285
0.00335298
0.00335308
0.00335317
0.00335324
0.00335329
0.00335333
0.00335335
0.00335335
0.00335333
0.00335329
0.00335324
0.00335317
0.00335308
0.00335298
0.00335286
0.00335272
0.00335256
0.00335239
0.0033522
0.003352
0.00335178
0.00335155
0.0033513
0.00335104
0.00335076
0.00335047
0.00335017
0.00334986
0.00334953
0.00334919
0.00334885
0.00334849
0.00334813
0.00334775
0.00334737
0.00334698
0.00334658
0.00334618
0.00334578
0.00334537
0.00334495
0.00334453
0.00334411
0.00334369
0.00334327
0.00334285
0.00334243
0.00334201
0.00334159
0.00334117
0.00334076
0.00334036
0.00333995
0.00333956
0.00333917
0.00333879
0.00333841
0.00333805
0.00333769
0.00333735
0.00333701
0.00333668
0.00333637
0.00333607
0.00333578
0.0033355
0.00333524
0.00333499
0.00333476
0.00333454
0.00333434
0.00333415
0.00333398
0.00333382
0.00333368
0.00333356
0.00333346
0.00333337
0.0033333
0.00333324
0.00333321
0.00333319
0.00333308
0.0033331
0.00333314
0.00333319
0.00333326
0.00333335
0.00333346
0.00333358
0.00333372
0.00333388
0.00333405
0.00333424
0.00333445
0.00333467
0.00333491
0.00333516
0.00333542
0.0033357
0.00333599
0.0033363
0.00333662
0.00333694
0.00333728
0.00333763
0.00333799
0.00333836
0.00333874
0.00333913
0.00333952
0.00333992
0.00334032
0.00334073
0.00334115
0.00334157
0.00334199
0.00334241
0.00334284
0.00334326
0.00334369
0.00334411
0.00334454
0.00334496
0.00334538
0.00334579
0.0033462
0.00334661
0.00334701
0.0033474
0.00334779
0.00334816
0.00334853
0.00334889
0.00334924
0.00334958
0.00334991
0.00335023
0.00335053
0.00335082
0.0033511
0.00335136
0.00335161
0.00335185
0.00335207
0.00335228
0.00335247
0.00335264
0.0033528
0.00335294
0.00335306
0.00335317
0.00335326
0.00335333
0.00335338
0.00335342
0.00335343
0.00335343
0.00335342
0.00335338
0.00335333
0.00335326
0.00335317
0.00335306
0.00335294
0.0033528
0.00335264
0.00335247
0.00335228
0.00335207
0.00335185
0.00335162
0.00335137
0.0033511
0.00335082
0.00335053
0.00335023
0.00334991
0.00334958
0.00334925
0.0033489
0.00334854
0.00334817
0.00334779
0.0033474
0.00334701
0.00334661
0.00334621
0.0033458
0.00334538
0.00334497
0.00334454
0.00334412
0.0033437
0.00334327
0.00334284
0.00334242
0.003342
0.00334157
0.00334116
0.00334074
0.00334033
0.00333993
0.00333953
0.00333913
0.00333875
0.00333837
0.003338
0.00333764
0.00333729
0.00333695
0.00333663
0.00333631
0.00333601
0.00333571
0.00333544
0.00333517
0.00333492
0.00333469
0.00333446
0.00333426
0.00333407
0.0033339
0.00333374
0.0033336
0.00333348
0.00333337
0.00333328
0.00333321
0.00333316
0.00333312
0.0033331
0.00333298
0.003333
0.00333303
0.00333309
0.00333316
0.00333325
0.00333336
0.00333348
0.00333363
0.00333378
0.00333396
0.00333415
0.00333436
0.00333458
0.00333482
0.00333507
0.00333534
0.00333562
0.00333592
0.00333623
0.00333655
0.00333688
0.00333722
0.00333758
0.00333794
0.00333831
0.00333869
0.00333908
0.00333948
0.00333988
0.00334029
0.00334071
0.00334113
0.00334155
0.00334198
0.0033424
0.00334283
0.00334326
0.00334369
0.00334412
0.00334455
0.00334498
0.0033454
0.00334582
0.00334623
0.00334664
0.00334705
0.00334744
0.00334783
0.00334821
0.00334859
0.00334895
0.0033493
0.00334965
0.00334998
0.0033503
0.0033506
0.0033509
0.00335118
0.00335145
0.0033517
0.00335194
0.00335216
0.00335237
0.00335256
0.00335274
0.0033529
0.00335304
0.00335316
0.00335327
0.00335336
0.00335343
0.00335348
0.00335352
0.00335354
0.00335354
0.00335352
0.00335348
0.00335343
0.00335336
0.00335327
0.00335316
0.00335304
0.0033529
0.00335274
0.00335256
0.00335237
0.00335216
0.00335194
0.0033517
0.00335145
0.00335118
0.0033509
0.00335061
0.0033503
0.00334998
0.00334965
0.00334931
0.00334895
0.00334859
0.00334822
0.00334784
0.00334745
0.00334705
0.00334665
0.00334624
0.00334582
0.00334541
0.00334498
0.00334456
0.00334413
0.0033437
0.00334327
0.00334284
0.00334241
0.00334198
0.00334156
0.00334113
0.00334072
0.0033403
0.00333989
0.00333949
0.00333909
0.0033387
0.00333832
0.00333795
0.00333759
0.00333723
0.00333689
0.00333656
0.00333624
0.00333593
0.00333564
0.00333535
0.00333509
0.00333483
0.0033346
0.00333437
0.00333417
0.00333397
0.0033338
0.00333364
0.0033335
0.00333338
0.00333327
0.00333318
0.00333311
0.00333305
0.00333302
0.003333
0.00333286
0.00333288
0.00333291
0.00333297
0.00333304
0.00333313
0.00333324
0.00333337
0.00333351
0.00333367
0.00333385
0.00333404
0.00333425
0.00333448
0.00333472
0.00333498
0.00333525
0.00333553
0.00333583
0.00333614
0.00333647
0.0033368
0.00333715
0.00333751
0.00333788
0.00333825
0.00333864
0.00333903
0.00333943
0.00333984
0.00334026
0.00334068
0.0033411
0.00334153
0.00334196
0.00334239
0.00334283
0.00334326
0.0033437
0.00334413
0.00334457
0.003345
0.00334543
0.00334585
0.00334627
0.00334668
0.00334709
0.00334749
0.00334789
0.00334827
0.00334865
0.00334902
0.00334938
0.00334972
0.00335006
0.00335038
0.00335069
0.00335099
0.00335128
0.00335155
0.0033518
0.00335204
0.00335227
0.00335248
0.00335267
0.00335285
0.00335301
0.00335315
0.00335328
0.00335339
0.00335348
0.00335355
0.00335361
0.00335364
0.00335366
0.00335366
0.00335364
0.00335361
0.00335355
0.00335348
0.00335339
0.00335328
0.00335316
0.00335301
0.00335285
0.00335267
0.00335248
0.00335227
0.00335205
0.0033518
0.00335155
0.00335128
0.00335099
0.0033507
0.00335039
0.00335006
0.00334973
0.00334938
0.00334902
0.00334865
0.00334828
0.00334789
0.0033475
0.0033471
0.00334669
0.00334627
0.00334585
0.00334543
0.003345
0.00334457
0.00334414
0.00334371
0.00334327
0.00334283
0.0033424
0.00334197
0.00334154
0.00334111
0.00334068
0.00334027
0.00333985
0.00333944
0.00333904
0.00333865
0.00333826
0.00333788
0.00333752
0.00333716
0.00333681
0.00333648
0.00333615
0.00333584
0.00333554
0.00333526
0.00333499
0.00333473
0.00333449
0.00333427
0.00333406
0.00333386
0.00333369
0.00333353
0.00333338
0.00333326
0.00333315
0.00333306
0.00333298
0.00333293
0.00333289
0.00333288
0.00333272
0.00333273
0.00333277
0.00333283
0.0033329
0.00333299
0.0033331
0.00333323
0.00333338
0.00333354
0.00333372
0.00333392
0.00333413
0.00333436
0.0033346
0.00333486
0.00333514
0.00333543
0.00333573
0.00333605
0.00333637
0.00333671
0.00333707
0.00333743
0.0033378
0.00333818
0.00333858
0.00333898
0.00333938
0.0033398
0.00334022
0.00334064
0.00334107
0.00334151
0.00334194
0.00334238
0.00334282
0.00334326
0.00334371
0.00334415
0.00334458
0.00334502
0.00334546
0.00334588
0.00334631
0.00334673
0.00334714
0.00334755
0.00334795
0.00334834
0.00334872
0.0033491
0.00334946
0.00334981
0.00335015
0.00335048
0.00335079
0.0033511
0.00335138
0.00335166
0.00335192
0.00335216
0.00335239
0.0033526
0.0033528
0.00335298
0.00335314
0.00335329
0.00335342
0.00335353
0.00335362
0.00335369
0.00335375
0.00335378
0.0033538
0.0033538
0.00335378
0.00335375
0.00335369
0.00335362
0.00335353
0.00335342
0.00335329
0.00335314
0.00335298
0.0033528
0.00335261
0.00335239
0.00335217
0.00335192
0.00335166
0.00335139
0.0033511
0.0033508
0.00335048
0.00335015
0.00334981
0.00334946
0.0033491
0.00334873
0.00334835
0.00334795
0.00334756
0.00334715
0.00334673
0.00334632
0.00334589
0.00334546
0.00334503
0.00334459
0.00334415
0.00334371
0.00334327
0.00334283
0.00334239
0.00334195
0.00334151
0.00334108
0.00334065
0.00334022
0.0033398
0.00333939
0.00333898
0.00333858
0.00333819
0.00333781
0.00333744
0.00333708
0.00333672
0.00333638
0.00333606
0.00333574
0.00333544
0.00333515
0.00333488
0.00333462
0.00333437
0.00333414
0.00333393
0.00333374
0.00333356
0.00333339
0.00333325
0.00333312
0.00333301
0.00333292
0.00333284
0.00333279
0.00333275
0.00333273
0.00333256
0.00333258
0.00333261
0.00333267
0.00333275
0.00333284
0.00333295
0.00333308
0.00333323
0.00333339
0.00333358
0.00333378
0.00333399
0.00333422
0.00333447
0.00333474
0.00333502
0.00333531
0.00333562
0.00333594
0.00333627
0.00333662
0.00333697
0.00333734
0.00333772
0.00333811
0.0033385
0.00333891
0.00333932
0.00333974
0.00334017
0.0033406
0.00334104
0.00334148
0.00334192
0.00334237
0.00334282
0.00334326
0.00334371
0.00334416
0.0033446
0.00334505
0.00334549
0.00334592
0.00334636
0.00334678
0.0033472
0.00334762
0.00334802
0.00334842
0.00334881
0.00334918
0.00334955
0.00334991
0.00335025
0.00335059
0.00335091
0.00335122
0.00335151
0.00335179
0.00335205
0.0033523
0.00335253
0.00335275
0.00335295
0.00335313
0.00335329
0.00335344
0.00335357
0.00335368
0.00335378
0.00335385
0.00335391
0.00335394
0.00335396
0.00335396
0.00335394
0.00335391
0.00335385
0.00335378
0.00335368
0.00335357
0.00335344
0.00335329
0.00335313
0.00335295
0.00335275
0.00335253
0.0033523
0.00335205
0.00335179
0.00335151
0.00335122
0.00335091
0.00335059
0.00335026
0.00334991
0.00334956
0.00334919
0.00334881
0.00334842
0.00334803
0.00334762
0.00334721
0.00334679
0.00334636
0.00334593
0.00334549
0.00334505
0.00334461
0.00334417
0.00334372
0.00334327
0.00334282
0.00334237
0.00334193
0.00334149
0.00334105
0.00334061
0.00334018
0.00333975
0.00333933
0.00333892
0.00333851
0.00333812
0.00333773
0.00333735
0.00333698
0.00333663
0.00333628
0.00333595
0.00333563
0.00333532
0.00333503
0.00333475
0.00333449
0.00333424
0.00333401
0.00333379
0.00333359
0.00333341
0.00333324
0.0033331
0.00333297
0.00333285
0.00333276
0.00333269
0.00333263
0.00333259
0.00333257
0.00333238
0.0033324
0.00333244
0.00333249
0.00333257
0.00333267
0.00333278
0.00333291
0.00333306
0.00333323
0.00333342
0.00333362
0.00333384
0.00333407
0.00333433
0.00333459
0.00333488
0.00333518
0.00333549
0.00333581
0.00333615
0.0033365
0.00333687
0.00333724
0.00333763
0.00333802
0.00333843
0.00333884
0.00333926
0.00333969
0.00334012
0.00334056
0.003341
0.00334145
0.0033419
0.00334235
0.00334281
0.00334326
0.00334372
0.00334417
0.00334463
0.00334508
0.00334553
0.00334597
0.00334641
0.00334684
0.00334727
0.00334769
0.0033481
0.0033485
0.0033489
0.00334928
0.00334966
0.00335002
0.00335037
0.00335071
0.00335104
0.00335135
0.00335165
0.00335193
0.0033522
0.00335245
0.00335269
0.0033529
0.00335311
0.00335329
0.00335346
0.00335361
0.00335374
0.00335386
0.00335395
0.00335403
0.00335408
0.00335412
0.00335414
0.00335414
0.00335412
0.00335408
0.00335403
0.00335395
0.00335386
0.00335374
0.00335361
0.00335346
0.00335329
0.00335311
0.00335291
0.00335269
0.00335245
0.0033522
0.00335193
0.00335165
0.00335135
0.00335104
0.00335071
0.00335038
0.00335002
0.00334966
0.00334929
0.0033489
0.00334851
0.00334811
0.00334769
0.00334727
0.00334685
0.00334641
0.00334597
0.00334553
0.00334508
0.00334463
0.00334418
0.00334373
0.00334327
0.00334281
0.00334236
0.00334191
0.00334146
0.00334101
0.00334057
0.00334013
0.00333969
0.00333927
0.00333885
0.00333843
0.00333803
0.00333764
0.00333725
0.00333688
0.00333651
0.00333616
0.00333583
0.0033355
0.00333519
0.00333489
0.00333461
0.00333434
0.00333409
0.00333385
0.00333363
0.00333343
0.00333324
0.00333308
0.00333293
0.00333279
0.00333268
0.00333259
0.00333251
0.00333245
0.00333241
0.0033324
0.00333218
0.0033322
0.00333224
0.0033323
0.00333238
0.00333247
0.00333259
0.00333272
0.00333288
0.00333305
0.00333324
0.00333344
0.00333367
0.00333391
0.00333416
0.00333444
0.00333473
0.00333503
0.00333535
0.00333568
0.00333602
0.00333638
0.00333675
0.00333713
0.00333752
0.00333793
0.00333834
0.00333876
0.00333919
0.00333962
0.00334006
0.00334051
0.00334096
0.00334142
0.00334188
0.00334234
0.0033428
0.00334326
0.00334373
0.00334419
0.00334465
0.00334511
0.00334557
0.00334602
0.00334647
0.00334691
0.00334734
0.00334777
0.00334819
0.0033486
0.003349
0.00334939
0.00334977
0.00335014
0.0033505
0.00335085
0.00335118
0.00335149
0.0033518
0.00335209
0.00335236
0.00335262
0.00335286
0.00335308
0.00335329
0.00335348
0.00335365
0.0033538
0.00335393
0.00335405
0.00335415
0.00335422
0.00335428
0.00335432
0.00335434
0.00335434
0.00335432
0.00335428
0.00335422
0.00335415
0.00335405
0.00335393
0.0033538
0.00335365
0.00335348
0.00335329
0.00335308
0.00335286
0.00335262
0.00335236
0.00335209
0.0033518
0.0033515
0.00335118
0.00335085
0.0033505
0.00335015
0.00334978
0.0033494
0.00334901
0.0033486
0.00334819
0.00334777
0.00334735
0.00334691
0.00334647
0.00334602
0.00334557
0.00334512
0.00334466
0.0033442
0.00334373
0.00334327
0.00334281
0.00334234
0.00334188
0.00334142
0.00334097
0.00334052
0.00334007
0.00333963
0.00333919
0.00333877
0.00333835
0.00333794
0.00333753
0.00333714
0.00333676
0.00333639
0.00333603
0.00333569
0.00333536
0.00333504
0.00333474
0.00333445
0.00333418
0.00333392
0.00333368
0.00333346
0.00333325
0.00333306
0.00333289
0.00333274
0.0033326
0.00333249
0.00333239
0.00333231
0.00333226
0.00333222
0.0033322
0.00333197
0.00333199
0.00333202
0.00333208
0.00333216
0.00333226
0.00333238
0.00333252
0.00333267
0.00333285
0.00333304
0.00333325
0.00333348
0.00333372
0.00333399
0.00333426
0.00333456
0.00333487
0.00333519
0.00333553
0.00333588
0.00333625
0.00333662
0.00333701
0.00333741
0.00333782
0.00333824
0.00333867
0.00333911
0.00333955
0.00334
0.00334045
0.00334092
0.00334138
0.00334185
0.00334232
0.00334279
0.00334326
0.00334374
0.00334421
0.00334468
0.00334515
0.00334561
0.00334607
0.00334653
0.00334698
0.00334742
0.00334786
0.00334828
0.0033487
0.00334911
0.00334951
0.0033499
0.00335028
0.00335064
0.00335099
0.00335133
0.00335166
0.00335197
0.00335226
0.00335254
0.0033528
0.00335304
0.00335327
0.00335348
0.00335368
0.00335385
0.00335401
0.00335414
0.00335426
0.00335436
0.00335444
0.0033545
0.00335454
0.00335456
0.00335456
0.00335454
0.0033545
0.00335444
0.00335436
0.00335426
0.00335414
0.00335401
0.00335385
0.00335368
0.00335348
0.00335327
0.00335305
0.0033528
0.00335254
0.00335226
0.00335197
0.00335166
0.00335134
0.003351
0.00335065
0.00335028
0.00334991
0.00334952
0.00334912
0.00334871
0.00334829
0.00334786
0.00334743
0.00334698
0.00334653
0.00334608
0.00334562
0.00334515
0.00334469
0.00334421
0.00334374
0.00334327
0.0033428
0.00334233
0.00334186
0.00334139
0.00334092
0.00334046
0.00334001
0.00333956
0.00333911
0.00333868
0.00333825
0.00333783
0.00333742
0.00333702
0.00333663
0.00333626
0.00333589
0.00333554
0.0033352
0.00333488
0.00333457
0.00333428
0.003334
0.00333374
0.00333349
0.00333326
0.00333305
0.00333286
0.00333269
0.00333253
0.00333239
0.00333228
0.00333218
0.0033321
0.00333204
0.003332
0.00333198
0.00333173
0.00333175
0.00333179
0.00333185
0.00333193
0.00333203
0.00333215
0.00333229
0.00333245
0.00333263
0.00333283
0.00333304
0.00333327
0.00333352
0.00333379
0.00333408
0.00333438
0.00333469
0.00333502
0.00333537
0.00333573
0.0033361
0.00333649
0.00333688
0.00333729
0.00333771
0.00333814
0.00333857
0.00333902
0.00333947
0.00333993
0.0033404
0.00334087
0.00334134
0.00334182
0.0033423
0.00334278
0.00334326
0.00334375
0.00334423
0.00334471
0.00334519
0.00334566
0.00334613
0.0033466
0.00334706
0.00334751
0.00334795
0.00334839
0.00334882
0.00334924
0.00334964
0.00335004
0.00335043
0.0033508
0.00335116
0.0033515
0.00335183
0.00335215
0.00335245
0.00335273
0.003353
0.00335325
0.00335348
0.0033537
0.00335389
0.00335407
0.00335423
0.00335437
0.00335449
0.00335459
0.00335467
0.00335473
0.00335477
0.00335479
0.00335479
0.00335477
0.00335473
0.00335467
0.00335459
0.00335449
0.00335437
0.00335423
0.00335407
0.0033539
0.0033537
0.00335348
0.00335325
0.003353
0.00335273
0.00335245
0.00335215
0.00335184
0.0033515
0.00335116
0.0033508
0.00335043
0.00335004
0.00334965
0.00334924
0.00334882
0.0033484
0.00334796
0.00334751
0.00334706
0.0033466
0.00334614
0.00334567
0.00334519
0.00334471
0.00334423
0.00334375
0.00334327
0.00334279
0.00334231
0.00334183
0.00334135
0.00334087
0.0033404
0.00333994
0.00333948
0.00333903
0.00333858
0.00333814
0.00333772
0.0033373
0.00333689
0.00333649
0.00333611
0.00333574
0.00333538
0.00333503
0.0033347
0.00333439
0.00333409
0.0033338
0.00333354
0.00333329
0.00333305
0.00333284
0.00333264
0.00333247
0.00333231
0.00333217
0.00333205
0.00333195
0.00333187
0.0033318
0.00333176
0.00333174
0.00333147
0.00333149
0.00333153
0.0033316
0.00333168
0.00333178
0.00333191
0.00333205
0.00333221
0.00333239
0.00333259
0.00333281
0.00333305
0.00333331
0.00333358
0.00333387
0.00333418
0.0033345
0.00333484
0.00333519
0.00333556
0.00333594
0.00333633
0.00333674
0.00333716
0.00333758
0.00333802
0.00333847
0.00333892
0.00333939
0.00333986
0.00334033
0.00334081
0.0033413
0.00334179
0.00334228
0.00334277
0.00334326
0.00334376
0.00334425
0.00334474
0.00334523
0.00334571
0.0033462
0.00334667
0.00334714
0.0033476
0.00334806
0.0033485
0.00334894
0.00334937
0.00334979
0.00335019
0.00335059
0.00335097
0.00335133
0.00335169
0.00335202
0.00335235
0.00335265
0.00335294
0.00335322
0.00335347
0.00335371
0.00335393
0.00335413
0.00335431
0.00335448
0.00335462
0.00335474
0.00335484
0.00335493
0.00335499
0.00335503
0.00335505
0.00335505
0.00335503
0.00335499
0.00335493
0.00335484
0.00335474
0.00335462
0.00335448
0.00335431
0.00335413
0.00335393
0.00335371
0.00335347
0.00335322
0.00335295
0.00335266
0.00335235
0.00335203
0.00335169
0.00335134
0.00335097
0.00335059
0.0033502
0.00334979
0.00334937
0.00334895
0.00334851
0.00334806
0.00334761
0.00334715
0.00334668
0.0033462
0.00334572
0.00334524
0.00334475
0.00334426
0.00334376
0.00334327
0.00334278
0.00334228
0.00334179
0.00334131
0.00334082
0.00334034
0.00333986
0.00333939
0.00333893
0.00333848
0.00333803
0.00333759
0.00333717
0.00333675
0.00333634
0.00333595
0.00333557
0.0033352
0.00333485
0.00333451
0.00333419
0.00333388
0.00333359
0.00333332
0.00333306
0.00333283
0.00333261
0.00333241
0.00333222
0.00333206
0.00333192
0.0033318
0.00333169
0.00333161
0.00333155
0.00333151
0.00333149
0.00333119
0.00333122
0.00333126
0.00333132
0.00333141
0.00333151
0.00333164
0.00333178
0.00333195
0.00333214
0.00333234
0.00333257
0.00333281
0.00333307
0.00333335
0.00333365
0.00333396
0.0033343
0.00333464
0.003335
0.00333538
0.00333577
0.00333617
0.00333659
0.00333701
0.00333745
0.0033379
0.00333836
0.00333882
0.0033393
0.00333978
0.00334026
0.00334076
0.00334125
0.00334175
0.00334225
0.00334276
0.00334326
0.00334377
0.00334427
0.00334478
0.00334528
0.00334577
0.00334626
0.00334675
0.00334723
0.00334771
0.00334817
0.00334863
0.00334908
0.00334951
0.00334994
0.00335036
0.00335076
0.00335115
0.00335152
0.00335188
0.00335223
0.00335256
0.00335287
0.00335317
0.00335345
0.00335371
0.00335396
0.00335418
0.00335439
0.00335457
0.00335474
0.00335489
0.00335501
0.00335512
0.0033552
0.00335526
0.00335531
0.00335533
0.00335533
0.00335531
0.00335526
0.0033552
0.00335512
0.00335501
0.00335489
0.00335474
0.00335457
0.00335439
0.00335418
0.00335396
0.00335371
0.00335345
0.00335317
0.00335288
0.00335256
0.00335223
0.00335189
0.00335153
0.00335115
0.00335076
0.00335036
0.00334994
0.00334952
0.00334908
0.00334863
0.00334818
0.00334771
0.00334724
0.00334676
0.00334627
0.00334578
0.00334528
0.00334478
0.00334428
0.00334378
0.00334327
0.00334277
0.00334226
0.00334176
0.00334126
0.00334076
0.00334027
0.00333978
0.0033393
0.00333883
0.00333836
0.00333791
0.00333746
0.00333702
0.0033366
0.00333618
0.00333578
0.00333539
0.00333501
0.00333465
0.00333431
0.00333398
0.00333366
0.00333337
0.00333309
0.00333282
0.00333258
0.00333236
0.00333215
0.00333196
0.0033318
0.00333165
0.00333153
0.00333142
0.00333134
0.00333127
0.00333123
0.00333121
0.0033309
0.00333092
0.00333096
0.00333103
0.00333111
0.00333122
0.00333135
0.0033315
0.00333167
0.00333186
0.00333207
0.0033323
0.00333255
0.00333282
0.00333311
0.00333341
0.00333373
0.00333407
0.00333443
0.0033348
0.00333518
0.00333558
0.003336
0.00333642
0.00333686
0.00333731
0.00333777
0.00333823
0.00333871
0.0033392
0.00333969
0.00334019
0.00334069
0.0033412
0.00334171
0.00334223
0.00334275
0.00334326
0.00334378
0.0033443
0.00334481
0.00334533
0.00334583
0.00334634
0.00334684
0.00334733
0.00334782
0.00334829
0.00334876
0.00334922
0.00334967
0.00335011
0.00335053
0.00335094
0.00335134
0.00335173
0.0033521
0.00335245
0.00335279
0.00335311
0.00335342
0.0033537
0.00335397
0.00335422
0.00335445
0.00335466
0.00335485
0.00335502
0.00335517
0.0033553
0.00335541
0.0033555
0.00335556
0.00335561
0.00335563
0.00335563
0.00335561
0.00335556
0.0033555
0.00335541
0.0033553
0.00335517
0.00335502
0.00335485
0.00335466
0.00335445
0.00335422
0.00335397
0.00335371
0.00335342
0.00335312
0.00335279
0.00335246
0.0033521
0.00335173
0.00335135
0.00335095
0.00335054
0.00335011
0.00334967
0.00334922
0.00334877
0.0033483
0.00334782
0.00334734
0.00334684
0.00334634
0.00334584
0.00334533
0.00334482
0.0033443
0.00334379
0.00334327
0.00334275
0.00334224
0.00334172
0.00334121
0.0033407
0.0033402
0.0033397
0.00333921
0.00333872
0.00333824
0.00333777
0.00333732
0.00333687
0.00333643
0.003336
0.00333559
0.00333519
0.00333481
0.00333444
0.00333408
0.00333375
0.00333342
0.00333312
0.00333283
0.00333257
0.00333232
0.00333209
0.00333187
0.00333168
0.00333151
0.00333136
0.00333123
0.00333113
0.00333104
0.00333098
0.00333093
0.00333091
0.00333058
0.0033306
0.00333064
0.00333071
0.0033308
0.00333091
0.00333104
0.0033312
0.00333137
0.00333157
0.00333178
0.00333202
0.00333228
0.00333255
0.00333285
0.00333316
0.00333349
0.00333384
0.0033342
0.00333458
0.00333497
0.00333538
0.00333581
0.00333624
0.00333669
0.00333715
0.00333762
0.0033381
0.00333859
0.00333909
0.0033396
0.00334011
0.00334063
0.00334115
0.00334167
0.0033422
0.00334273
0.00334326
0.0033438
0.00334433
0.00334485
0.00334538
0.0033459
0.00334642
0.00334693
0.00334744
0.00334793
0.00334842
0.0033489
0.00334937
0.00334983
0.00335028
0.00335072
0.00335114
0.00335155
0.00335195
0.00335233
0.00335269
0.00335304
0.00335337
0.00335368
0.00335397
0.00335425
0.00335451
0.00335474
0.00335496
0.00335515
0.00335533
0.00335548
0.00335561
0.00335573
0.00335581
0.00335588
0.00335593
0.00335595
0.00335595
0.00335593
0.00335588
0.00335581
0.00335573
0.00335562
0.00335548
0.00335533
0.00335516
0.00335496
0.00335474
0.00335451
0.00335425
0.00335398
0.00335368
0.00335337
0.00335304
0.00335269
0.00335233
0.00335195
0.00335156
0.00335115
0.00335072
0.00335029
0.00334984
0.00334938
0.00334891
0.00334843
0.00334794
0.00334744
0.00334694
0.00334642
0.00334591
0.00334539
0.00334486
0.00334433
0.0033438
0.00334327
0.00334274
0.00334221
0.00334168
0.00334116
0.00334063
0.00334012
0.00333961
0.0033391