/*--------------------------------*- C++ -*----------------------------------*\
| =========                 |                                                 |
| \\      /  F ield         | OpenFOAM: The Open Source CFD Toolbox           |
|  \\    /   O peration     | Version:  2106                                  |
|   \\  /    A nd           | Website:  www.openfoam.com                      |
|    \\/     M anipulation  |                                                 |
\*---------------------------------------------------------------------------*/
FoamFile
{
    version     2.0;
    format      ascii;
    arch        "LSB;label=32;scalar=64";
    class       surfaceScalarField;
    location    "1.5";
    object      phi_0;
}
// * * * * * * * * * * * * * * * * * * * * * * * * * * * * * * * * * * * * * //

dimensions      [0 3 -1 0 0 0 0];

oriented        oriented;

internalField   nonuniform List<scalar> 
179250
(
-5.88545e-09
5.9063e-09
-1.17702e-08
5.88606e-09
-1.76297e-08
5.86056e-09
-2.34562e-08
5.82699e-09
-2.92399e-08
5.78401e-09
-3.49713e-08
5.73143e-09
-4.06404e-08
5.6692e-09
-4.62377e-08
5.5973e-09
-5.17535e-08
5.51577e-09
-5.71781e-08
5.42469e-09
-6.25023e-08
5.32418e-09
-6.77167e-08
5.2144e-09
-7.28122e-08
5.09552e-09
-7.778e-08
4.96774e-09
-8.26112e-08
4.83126e-09
-8.72976e-08
4.68633e-09
-9.18308e-08
4.53319e-09
-9.62029e-08
4.3721e-09
-1.00406e-07
4.20336e-09
-1.04433e-07
4.02725e-09
-1.08278e-07
3.84407e-09
-1.11932e-07
3.65416e-09
-1.1539e-07
3.45784e-09
-1.18645e-07
3.25545e-09
-1.21692e-07
3.04736e-09
-1.24526e-07
2.83392e-09
-1.27142e-07
2.6155e-09
-1.29534e-07
2.39251e-09
-1.317e-07
2.16531e-09
-1.33634e-07
1.93432e-09
-1.35334e-07
1.69993e-09
-1.36796e-07
1.46256e-09
-1.38019e-07
1.22263e-09
-1.39e-07
9.80545e-10
-1.39736e-07
7.36743e-10
-1.40228e-07
4.91648e-10
-1.40474e-07
2.4569e-10
-1.40473e-07
-7.00696e-13
-1.40226e-07
-2.47091e-10
-1.39733e-07
-4.93048e-10
-1.38995e-07
-7.38142e-10
-1.38013e-07
-9.81942e-10
-1.36789e-07
-1.22402e-09
-1.35325e-07
-1.46395e-09
-1.33623e-07
-1.70132e-09
-1.31688e-07
-1.9357e-09
-1.29521e-07
-2.16669e-09
-1.27127e-07
-2.39388e-09
-1.2451e-07
-2.61687e-09
-1.21675e-07
-2.83527e-09
-1.18626e-07
-3.0487e-09
-1.1537e-07
-3.25679e-09
-1.1191e-07
-3.45916e-09
-1.08255e-07
-3.65546e-09
-1.0441e-07
-3.84535e-09
-1.00381e-07
-4.0285e-09
-9.61765e-08
-4.20458e-09
-9.18032e-08
-4.37328e-09
-8.72689e-08
-4.53432e-09
-8.25815e-08
-4.6874e-09
-7.77492e-08
-4.83226e-09
-7.27806e-08
-4.96865e-09
-6.76843e-08
-5.09632e-09
-6.24692e-08
-5.21505e-09
-5.71446e-08
-5.32463e-09
-5.17197e-08
-5.42487e-09
-4.62041e-08
-5.51559e-09
-4.06075e-08
-5.59664e-09
-3.49396e-08
-5.66788e-09
-2.92104e-08
-5.72917e-09
-2.343e-08
-5.78041e-09
-1.76085e-08
-5.82151e-09
-1.17561e-08
-5.8524e-09
-5.88311e-09
-5.87302e-09
2.27705e-13
-5.88334e-09
5.88357e-09
-5.88334e-09
1.17566e-08
-5.87302e-09
1.7609e-08
-5.8524e-09
2.34305e-08
-5.82151e-09
2.92109e-08
-5.78041e-09
3.49401e-08
-5.72917e-09
4.06079e-08
-5.66788e-09
4.62046e-08
-5.59665e-09
5.17202e-08
-5.5156e-09
5.71451e-08
-5.42487e-09
6.24697e-08
-5.32463e-09
6.76847e-08
-5.21505e-09
7.2781e-08
-5.09632e-09
7.77497e-08
-4.96865e-09
8.2582e-08
-4.83227e-09
8.72694e-08
-4.68741e-09
9.18037e-08
-4.53432e-09
9.6177e-08
-4.37329e-09
1.00382e-07
-4.20458e-09
1.0441e-07
-4.0285e-09
1.08255e-07
-3.84535e-09
1.11911e-07
-3.65546e-09
1.1537e-07
-3.45916e-09
1.18627e-07
-3.25679e-09
1.21676e-07
-3.04871e-09
1.24511e-07
-2.83528e-09
1.27128e-07
-2.61688e-09
1.29522e-07
-2.39389e-09
1.31688e-07
-2.1667e-09
1.33624e-07
-1.93571e-09
1.35325e-07
-1.70133e-09
1.36789e-07
-1.46396e-09
1.38013e-07
-1.22403e-09
1.38995e-07
-9.81953e-10
1.39733e-07
-7.38154e-10
1.40226e-07
-4.93061e-10
1.40474e-07
-2.47104e-10
1.40474e-07
-7.1485e-13
1.40229e-07
2.45675e-10
1.39737e-07
4.91632e-10
1.39e-07
7.36725e-10
1.3802e-07
9.80525e-10
1.36797e-07
1.2226e-09
1.35335e-07
1.46254e-09
1.33635e-07
1.69991e-09
1.317e-07
1.93429e-09
1.29535e-07
2.16529e-09
1.27143e-07
2.39248e-09
1.24527e-07
2.61548e-09
1.21693e-07
2.83388e-09
1.18646e-07
3.04732e-09
1.15391e-07
3.25541e-09
1.11933e-07
3.4578e-09
1.08279e-07
3.65411e-09
1.04435e-07
3.84402e-09
1.00407e-07
4.02719e-09
9.62041e-08
4.2033e-09
9.18321e-08
4.37203e-09
8.7299e-08
4.53311e-09
8.26127e-08
4.68624e-09
7.77816e-08
4.83116e-09
7.28139e-08
4.96762e-09
6.77186e-08
5.09538e-09
6.25043e-08
5.21424e-09
5.71803e-08
5.32399e-09
5.17559e-08
5.42445e-09
4.62404e-08
5.51547e-09
4.06435e-08
5.59691e-09
3.49748e-08
5.66868e-09
2.92441e-08
5.7307e-09
2.34612e-08
5.78294e-09
1.76358e-08
5.82543e-09
1.17775e-08
5.85825e-09
5.89588e-09
5.88164e-09
5.89588e-09
-5.90566e-09
1.18132e-08
-1.18007e-08
1.17826e-08
-1.76733e-08
1.17339e-08
-2.35131e-08
1.16672e-08
-2.93103e-08
1.15814e-08
-3.5055e-08
1.14763e-08
-4.07375e-08
1.13518e-08
-4.63481e-08
1.12078e-08
-5.18769e-08
1.10446e-08
-5.73145e-08
1.08623e-08
-6.26513e-08
1.0661e-08
-6.78781e-08
1.04412e-08
-7.29857e-08
1.02032e-08
-7.79653e-08
9.94729e-09
-8.2808e-08
9.67402e-09
-8.75055e-08
9.38381e-09
-9.20495e-08
9.07717e-09
-9.6432e-08
8.75462e-09
-1.00645e-07
8.41673e-09
-1.04682e-07
8.06408e-09
-1.08535e-07
7.6973e-09
-1.12198e-07
7.31702e-09
-1.15664e-07
6.92391e-09
-1.18928e-07
6.51866e-09
-1.21982e-07
6.10197e-09
-1.24823e-07
5.67458e-09
-1.27445e-07
5.23724e-09
-1.29843e-07
4.79071e-09
-1.32013e-07
4.33578e-09
-1.33952e-07
3.87324e-09
-1.35656e-07
3.40391e-09
-1.37122e-07
2.92861e-09
-1.38348e-07
2.44816e-09
-1.39331e-07
1.96342e-09
-1.40069e-07
1.47524e-09
-1.40562e-07
9.84466e-10
-1.40808e-07
4.91964e-10
-1.40808e-07
-1.40368e-12
-1.4056e-07
-4.94771e-10
-1.40066e-07
-9.87272e-10
-1.39326e-07
-1.47804e-09
-1.38341e-07
-1.96622e-09
-1.37115e-07
-2.45096e-09
-1.35647e-07
-2.9314e-09
-1.33942e-07
-3.4067e-09
-1.32001e-07
-3.87602e-09
-1.2983e-07
-4.33855e-09
-1.2743e-07
-4.79347e-09
-1.24807e-07
-5.23998e-09
-1.21965e-07
-5.6773e-09
-1.18909e-07
-6.10467e-09
-1.15644e-07
-6.52133e-09
-1.12177e-07
-6.92655e-09
-1.08513e-07
-7.31962e-09
-1.04658e-07
-7.69986e-09
-1.0062e-07
-8.06659e-09
-9.64056e-08
-8.41917e-09
-9.20219e-08
-8.75699e-09
-8.74768e-08
-9.07944e-09
-8.27782e-08
-9.38597e-09
-7.79344e-08
-9.67604e-09
-7.2954e-08
-9.94913e-09
-6.78455e-08
-1.02048e-08
-6.2618e-08
-1.04425e-08
-5.72807e-08
-1.06619e-08
-5.18429e-08
-1.08627e-08
-4.63142e-08
-1.10443e-08
-4.07042e-08
-1.12066e-08
-3.50228e-08
-1.13493e-08
-2.928e-08
-1.1472e-08
-2.34859e-08
-1.15746e-08
-1.76505e-08
-1.16569e-08
-1.17841e-08
-1.17187e-08
-5.89713e-09
-1.176e-08
2.27686e-13
-1.17807e-08
5.89759e-09
-1.17807e-08
1.17846e-08
-1.176e-08
1.76509e-08
-1.17187e-08
2.34863e-08
-1.16569e-08
2.92805e-08
-1.15746e-08
3.50233e-08
-1.1472e-08
4.07047e-08
-1.13493e-08
4.63147e-08
-1.12066e-08
5.18434e-08
-1.10443e-08
5.72812e-08
-1.08627e-08
6.26185e-08
-1.06619e-08
6.7846e-08
-1.04425e-08
7.29544e-08
-1.02048e-08
7.79349e-08
-9.94914e-09
8.27787e-08
-9.67604e-09
8.74773e-08
-9.38598e-09
9.20224e-08
-9.07945e-09
9.64061e-08
-8.75699e-09
1.00621e-07
-8.41918e-09
1.04659e-07
-8.0666e-09
1.08513e-07
-7.69987e-09
1.12177e-07
-7.31963e-09
1.15645e-07
-6.92656e-09
1.18909e-07
-6.52134e-09
1.21965e-07
-6.10468e-09
1.24807e-07
-5.67731e-09
1.27431e-07
-5.23999e-09
1.2983e-07
-4.79348e-09
1.32002e-07
-4.33856e-09
1.33942e-07
-3.87604e-09
1.35648e-07
-3.40671e-09
1.37115e-07
-2.93142e-09
1.38342e-07
-2.45098e-09
1.39326e-07
-1.96625e-09
1.40066e-07
-1.47807e-09
1.40561e-07
-9.87297e-10
1.40808e-07
-4.94798e-10
1.40809e-07
-1.4321e-12
1.40563e-07
4.91934e-10
1.4007e-07
9.84434e-10
1.39331e-07
1.47521e-09
1.38348e-07
1.96339e-09
1.37123e-07
2.44812e-09
1.35657e-07
2.92856e-09
1.33953e-07
3.40387e-09
1.32014e-07
3.8732e-09
1.29844e-07
4.33573e-09
1.27445e-07
4.79066e-09
1.24824e-07
5.23718e-09
1.21983e-07
5.67452e-09
1.18929e-07
6.1019e-09
1.15665e-07
6.51858e-09
1.12199e-07
6.92383e-09
1.08537e-07
7.31693e-09
1.04683e-07
7.6972e-09
1.00647e-07
8.06397e-09
9.64333e-08
8.4166e-09
9.20508e-08
8.75448e-09
8.75069e-08
9.07701e-09
8.28095e-08
9.38364e-09
7.79668e-08
9.67382e-09
7.29874e-08
9.94706e-09
6.78799e-08
1.02029e-08
6.26532e-08
1.04409e-08
5.73166e-08
1.06606e-08
5.18793e-08
1.08618e-08
4.63507e-08
1.1044e-08
4.07405e-08
1.12071e-08
3.50584e-08
1.13508e-08
2.93141e-08
1.1475e-08
2.35174e-08
1.15796e-08
1.76782e-08
1.16647e-08
1.18059e-08
1.17305e-08
5.91009e-09
1.17775e-08
1.1806e-08
-5.93116e-09
1.77455e-08
-1.18493e-08
1.77016e-08
-1.77447e-08
1.76297e-08
-2.36073e-08
1.753e-08
-2.94272e-08
1.74014e-08
-3.51946e-08
1.72437e-08
-4.08995e-08
1.70567e-08
-4.65322e-08
1.68405e-08
-5.20829e-08
1.65953e-08
-5.7542e-08
1.63213e-08
-6.29e-08
1.6019e-08
-6.81475e-08
1.56887e-08
-7.32753e-08
1.5331e-08
-7.82746e-08
1.49466e-08
-8.31366e-08
1.4536e-08
-8.78527e-08
1.40999e-08
-9.24147e-08
1.36392e-08
-9.68146e-08
1.31545e-08
-1.01045e-07
1.26468e-08
-1.05098e-07
1.21169e-08
-1.08966e-07
1.15658e-08
-1.12643e-07
1.09944e-08
-1.16123e-07
1.04037e-08
-1.19399e-07
9.79481e-09
-1.22466e-07
9.1687e-09
-1.25318e-07
8.52652e-09
-1.2795e-07
7.86938e-09
-1.30358e-07
7.19843e-09
-1.32537e-07
6.51486e-09
-1.34484e-07
5.81986e-09
-1.36194e-07
5.11465e-09
-1.37666e-07
4.40047e-09
-1.38897e-07
3.67856e-09
-1.39883e-07
2.95021e-09
-1.40625e-07
2.21667e-09
-1.4112e-07
1.47924e-09
-1.41367e-07
7.39218e-10
-1.41366e-07
-2.10684e-12
-1.41118e-07
-7.43431e-10
-1.40621e-07
-1.48345e-09
-1.39879e-07
-2.22088e-09
-1.3889e-07
-2.95441e-09
-1.37659e-07
-3.68276e-09
-1.36185e-07
-4.40466e-09
-1.34473e-07
-5.11883e-09
-1.32525e-07
-5.82403e-09
-1.30345e-07
-6.51902e-09
-1.27936e-07
-7.20257e-09
-1.25302e-07
-7.87349e-09
-1.22449e-07
-8.5306e-09
-1.19381e-07
-9.17275e-09
-1.16103e-07
-9.79882e-09
-1.12622e-07
-1.04077e-08
-1.08943e-07
-1.09983e-08
-1.05074e-07
-1.15697e-08
-1.01019e-07
-1.21207e-08
-9.67881e-08
-1.26505e-08
-9.2387e-08
-1.31581e-08
-8.78239e-08
-1.36426e-08
-8.31067e-08
-1.41032e-08
-7.82437e-08
-1.4539e-08
-7.32434e-08
-1.49494e-08
-6.81147e-08
-1.53335e-08
-6.28665e-08
-1.56907e-08
-5.7508e-08
-1.60204e-08
-5.20486e-08
-1.6322e-08
-4.6498e-08
-1.6595e-08
-4.08657e-08
-1.68389e-08
-3.51618e-08
-1.70532e-08
-2.93962e-08
-1.72376e-08
-2.3579e-08
-1.73918e-08
-1.77205e-08
-1.75154e-08
-1.18309e-08
-1.76084e-08
-5.92053e-09
-1.76704e-08
2.27996e-13
-1.77015e-08
5.92099e-09
-1.77015e-08
1.18314e-08
-1.76704e-08
1.7721e-08
-1.76084e-08
2.35795e-08
-1.75154e-08
2.93967e-08
-1.73918e-08
3.51623e-08
-1.72376e-08
4.08662e-08
-1.70532e-08
4.64984e-08
-1.68389e-08
5.20491e-08
-1.6595e-08
5.75085e-08
-1.6322e-08
6.2867e-08
-1.60204e-08
6.81152e-08
-1.56907e-08
7.32439e-08
-1.53335e-08
7.82441e-08
-1.49494e-08
8.31071e-08
-1.4539e-08
8.78244e-08
-1.41032e-08
9.23875e-08
-1.36426e-08
9.67886e-08
-1.31581e-08
1.0102e-07
-1.26505e-08
1.05074e-07
-1.21207e-08
1.08944e-07
-1.15697e-08
1.12623e-07
-1.09983e-08
1.16104e-07
-1.04077e-08
1.19381e-07
-9.79884e-09
1.22449e-07
-9.17277e-09
1.25303e-07
-8.53062e-09
1.27936e-07
-7.87351e-09
1.30345e-07
-7.20259e-09
1.32526e-07
-6.51904e-09
1.34474e-07
-5.82405e-09
1.36186e-07
-5.11886e-09
1.37659e-07
-4.40469e-09
1.38891e-07
-3.68279e-09
1.39879e-07
-2.95444e-09
1.40622e-07
-2.22091e-09
1.41118e-07
-1.48349e-09
1.41367e-07
-7.43471e-10
1.41368e-07
-2.14907e-12
1.4112e-07
7.39173e-10
1.40626e-07
1.47919e-09
1.39884e-07
2.21662e-09
1.38897e-07
2.95015e-09
1.37667e-07
3.67851e-09
1.36195e-07
4.40041e-09
1.34484e-07
5.11459e-09
1.32538e-07
5.81979e-09
1.30359e-07
6.51479e-09
1.27951e-07
7.19835e-09
1.25319e-07
7.86929e-09
1.22467e-07
8.52642e-09
1.194e-07
9.1686e-09
1.16124e-07
9.7947e-09
1.12644e-07
1.04036e-08
1.08967e-07
1.09943e-08
1.05099e-07
1.15657e-08
1.01046e-07
1.21168e-08
9.68158e-08
1.26466e-08
9.2416e-08
1.31543e-08
8.78541e-08
1.36389e-08
8.3138e-08
1.40997e-08
7.82762e-08
1.45357e-08
7.3277e-08
1.49463e-08
6.81492e-08
1.53307e-08
6.29018e-08
1.56883e-08
5.7544e-08
1.60184e-08
5.20851e-08
1.63207e-08
4.65347e-08
1.65945e-08
4.09022e-08
1.68395e-08
3.51976e-08
1.70555e-08
2.94305e-08
1.72421e-08
2.36108e-08
1.73993e-08
1.77484e-08
1.75272e-08
1.18528e-08
1.76261e-08
5.93348e-09
1.76967e-08
1.77395e-08
-5.96486e-09
2.37109e-08
-1.19162e-08
2.36533e-08
-1.78443e-08
2.35581e-08
-2.37394e-08
2.34252e-08
-2.95915e-08
2.32536e-08
-3.53909e-08
2.3043e-08
-4.11274e-08
2.27933e-08
-4.67914e-08
2.25045e-08
-5.23729e-08
2.21768e-08
-5.78624e-08
2.18108e-08
-6.32501e-08
2.14067e-08
-6.85268e-08
2.09654e-08
-7.36832e-08
2.04874e-08
-7.87103e-08
1.99737e-08
-8.35993e-08
1.9425e-08
-8.83417e-08
1.88423e-08
-9.2929e-08
1.82265e-08
-9.73534e-08
1.75789e-08
-1.01607e-07
1.69004e-08
-1.05682e-07
1.61923e-08
-1.09572e-07
1.54559e-08
-1.1327e-07
1.46923e-08
-1.1677e-07
1.39029e-08
-1.20064e-07
1.30892e-08
-1.23148e-07
1.22525e-08
-1.26016e-07
1.13943e-08
-1.28662e-07
1.05162e-08
-1.31083e-07
9.61955e-09
-1.33275e-07
8.70607e-09
-1.35232e-07
7.77732e-09
-1.36952e-07
6.83492e-09
-1.38432e-07
5.88052e-09
-1.3967e-07
4.91582e-09
-1.40662e-07
3.94248e-09
-1.41408e-07
2.96223e-09
-1.41905e-07
1.97677e-09
-1.42154e-07
9.8785e-10
-1.42153e-07
-2.81072e-12
-1.41903e-07
-9.93471e-10
-1.41404e-07
-1.98239e-09
-1.40657e-07
-2.96784e-09
-1.39663e-07
-3.94809e-09
-1.38425e-07
-4.92142e-09
-1.36943e-07
-5.88612e-09
-1.35222e-07
-6.8405e-09
-1.33263e-07
-7.78288e-09
-1.3107e-07
-8.71162e-09
-1.28648e-07
-9.62507e-09
-1.26e-07
-1.05217e-08
-1.2313e-07
-1.13998e-08
-1.20045e-07
-1.22579e-08
-1.16749e-07
-1.30946e-08
-1.13249e-07
-1.39082e-08
-1.0955e-07
-1.46975e-08
-1.05658e-07
-1.5461e-08
-1.01582e-07
-1.61974e-08
-9.73268e-08
-1.69053e-08
-9.29012e-08
-1.75837e-08
-8.83127e-08
-1.82311e-08
-8.35692e-08
-1.88466e-08
-7.86792e-08
-1.94291e-08
-7.36511e-08
-1.99774e-08
-6.84938e-08
-2.04908e-08
-6.32164e-08
-2.09681e-08
-5.78281e-08
-2.14087e-08
-5.23383e-08
-2.18118e-08
-4.67568e-08
-2.21766e-08
-4.10932e-08
-2.25024e-08
-3.53575e-08
-2.27889e-08
-2.95598e-08
-2.30353e-08
-2.37103e-08
-2.32413e-08
-1.78192e-08
-2.34066e-08
-1.18968e-08
-2.35308e-08
-5.95348e-09
-2.36137e-08
2.28309e-13
-2.36552e-08
5.95394e-09
-2.36552e-08
1.18972e-08
-2.36137e-08
1.78196e-08
-2.35308e-08
2.37107e-08
-2.34066e-08
2.95603e-08
-2.32413e-08
3.5358e-08
-2.30353e-08
4.10937e-08
-2.27889e-08
4.67572e-08
-2.25025e-08
5.23388e-08
-2.21766e-08
5.78286e-08
-2.18118e-08
6.32169e-08
-2.14088e-08
6.84943e-08
-2.09682e-08
7.36516e-08
-2.04908e-08
7.86796e-08
-1.99775e-08
8.35697e-08
-1.94291e-08
8.83132e-08
-1.88467e-08
9.29017e-08
-1.82312e-08
9.73273e-08
-1.75837e-08
1.01582e-07
-1.69054e-08
1.05659e-07
-1.61974e-08
1.0955e-07
-1.5461e-08
1.13249e-07
-1.46975e-08
1.1675e-07
-1.39082e-08
1.20046e-07
-1.30946e-08
1.23131e-07
-1.22579e-08
1.26e-07
-1.13998e-08
1.28648e-07
-1.05217e-08
1.31071e-07
-9.6251e-09
1.33263e-07
-8.71164e-09
1.35222e-07
-7.78291e-09
1.36944e-07
-6.84053e-09
1.38425e-07
-5.88615e-09
1.39664e-07
-4.92146e-09
1.40658e-07
-3.94813e-09
1.41405e-07
-2.96789e-09
1.41904e-07
-1.98244e-09
1.42154e-07
-9.93524e-10
1.42154e-07
-2.86642e-12
1.41906e-07
9.87792e-10
1.41408e-07
1.97671e-09
1.40663e-07
2.96216e-09
1.3967e-07
3.94241e-09
1.38433e-07
4.91574e-09
1.36953e-07
5.88045e-09
1.35233e-07
6.83484e-09
1.33275e-07
7.77723e-09
1.31084e-07
8.70598e-09
1.28663e-07
9.61945e-09
1.26016e-07
1.05161e-08
1.23149e-07
1.13942e-08
1.20065e-07
1.22524e-08
1.1677e-07
1.3089e-08
1.13271e-07
1.39028e-08
1.09574e-07
1.46921e-08
1.05684e-07
1.54557e-08
1.01608e-07
1.61921e-08
9.73546e-08
1.69002e-08
9.29303e-08
1.75786e-08
8.8343e-08
1.82263e-08
8.36007e-08
1.88419e-08
7.87118e-08
1.94246e-08
7.36848e-08
1.99733e-08
6.85285e-08
2.0487e-08
6.32519e-08
2.09648e-08
5.78643e-08
2.14061e-08
5.2375e-08
2.181e-08
4.67937e-08
2.21759e-08
4.11299e-08
2.25033e-08
3.53935e-08
2.27919e-08
2.95943e-08
2.30412e-08
2.37422e-08
2.32513e-08
1.78471e-08
2.34223e-08
1.19186e-08
2.35546e-08
5.96643e-09
2.3649e-08
2.37059e-08
-6.00821e-09
2.97193e-08
-1.20025e-08
2.96477e-08
-1.79732e-08
2.95289e-08
-2.39106e-08
2.93626e-08
-2.98048e-08
2.91478e-08
-3.56457e-08
2.8884e-08
-4.14235e-08
2.85711e-08
-4.71281e-08
2.82091e-08
-5.27497e-08
2.77985e-08
-5.82785e-08
2.73396e-08
-6.3705e-08
2.68332e-08
-6.90196e-08
2.628e-08
-7.42131e-08
2.56809e-08
-7.92763e-08
2.50369e-08
-8.42004e-08
2.43491e-08
-8.89769e-08
2.36187e-08
-9.35972e-08
2.28469e-08
-9.80534e-08
2.20351e-08
-1.02338e-07
2.11846e-08
-1.06442e-07
2.0297e-08
-1.1036e-07
1.93739e-08
-1.14085e-07
1.84167e-08
-1.17609e-07
1.74273e-08
-1.20927e-07
1.64073e-08
-1.24033e-07
1.53585e-08
-1.26922e-07
1.42828e-08
-1.29587e-07
1.3182e-08
-1.32026e-07
1.20581e-08
-1.34233e-07
1.0913e-08
-1.36204e-07
9.74885e-09
-1.37937e-07
8.56755e-09
-1.39428e-07
7.37123e-09
-1.40674e-07
6.16197e-09
-1.41673e-07
4.9419e-09
-1.42424e-07
3.71315e-09
-1.42925e-07
2.47789e-09
-1.43176e-07
1.23828e-09
-1.43175e-07
-3.5154e-12
-1.42923e-07
-1.24531e-09
-1.42421e-07
-2.48492e-09
-1.41668e-07
-3.72018e-09
-1.40668e-07
-4.94891e-09
-1.3942e-07
-6.16898e-09
-1.37928e-07
-7.37823e-09
-1.36194e-07
-8.57454e-09
-1.34221e-07
-9.75581e-09
-1.32013e-07
-1.092e-08
-1.29573e-07
-1.2065e-08
-1.26906e-07
-1.31889e-08
-1.24016e-07
-1.42896e-08
-1.20908e-07
-1.53653e-08
-1.17589e-07
-1.6414e-08
-1.14063e-07
-1.74339e-08
-1.10338e-07
-1.84233e-08
-1.06418e-07
-1.93803e-08
-1.02312e-07
-2.03034e-08
-9.80267e-08
-2.11908e-08
-9.35693e-08
-2.20411e-08
-8.89478e-08
-2.28527e-08
-8.41702e-08
-2.36242e-08
-7.9245e-08
-2.43543e-08
-7.41807e-08
-2.50417e-08
-6.89864e-08
-2.56851e-08
-6.3671e-08
-2.62835e-08
-5.8244e-08
-2.68358e-08
-5.27147e-08
-2.7341e-08
-4.7093e-08
-2.77983e-08
-4.13887e-08
-2.82068e-08
-3.56118e-08
-2.85658e-08
-2.97724e-08
-2.88747e-08
-2.38808e-08
-2.91329e-08
-1.79473e-08
-2.93401e-08
-1.19823e-08
-2.94958e-08
-5.9963e-09
-2.95997e-08
2.2837e-13
-2.96517e-08
5.99676e-09
-2.96517e-08
1.19828e-08
-2.95997e-08
1.79478e-08
-2.94958e-08
2.38813e-08
-2.93401e-08
2.97729e-08
-2.91329e-08
3.56123e-08
-2.88747e-08
4.13892e-08
-2.85658e-08
4.70935e-08
-2.82068e-08
5.27152e-08
-2.77983e-08
5.82444e-08
-2.7341e-08
6.36715e-08
-2.68358e-08
6.89868e-08
-2.62835e-08
7.41812e-08
-2.56851e-08
7.92454e-08
-2.50417e-08
8.41707e-08
-2.43543e-08
8.89482e-08
-2.36242e-08
9.35698e-08
-2.28527e-08
9.80272e-08
-2.20411e-08
1.02313e-07
-2.11908e-08
1.06419e-07
-2.03034e-08
1.10338e-07
-1.93803e-08
1.14064e-07
-1.84233e-08
1.17589e-07
-1.74339e-08
1.20909e-07
-1.6414e-08
1.24016e-07
-1.53653e-08
1.26906e-07
-1.42896e-08
1.29573e-07
-1.31889e-08
1.32013e-07
-1.2065e-08
1.34222e-07
-1.092e-08
1.36195e-07
-9.75585e-09
1.37929e-07
-8.57458e-09
1.39421e-07
-7.37827e-09
1.40668e-07
-6.16902e-09
1.41669e-07
-4.94897e-09
1.42421e-07
-3.72023e-09
1.42924e-07
-2.48498e-09
1.43176e-07
-1.24537e-09
1.43176e-07
-3.584e-12
1.42926e-07
1.2382e-09
1.42425e-07
2.47781e-09
1.41674e-07
3.71307e-09
1.40675e-07
4.94181e-09
1.39429e-07
6.16188e-09
1.37938e-07
7.37113e-09
1.36205e-07
8.56745e-09
1.34234e-07
9.74874e-09
1.32027e-07
1.09129e-08
1.29588e-07
1.2058e-08
1.26922e-07
1.31818e-08
1.24034e-07
1.42826e-08
1.20928e-07
1.53583e-08
1.1761e-07
1.64071e-08
1.14086e-07
1.74271e-08
1.10361e-07
1.84165e-08
1.06443e-07
1.93736e-08
1.02339e-07
2.02968e-08
9.80546e-08
2.11843e-08
9.35985e-08
2.20348e-08
8.89782e-08
2.28466e-08
8.42018e-08
2.36183e-08
7.92777e-08
2.43487e-08
7.42146e-08
2.50364e-08
6.90212e-08
2.56803e-08
6.37067e-08
2.62793e-08
5.82804e-08
2.68324e-08
5.27516e-08
2.73387e-08
4.71301e-08
2.77974e-08
4.14256e-08
2.82078e-08
3.5648e-08
2.85695e-08
2.98071e-08
2.88821e-08
2.39129e-08
2.91455e-08
1.79754e-08
2.93599e-08
1.20043e-08
2.95257e-08
6.00928e-09
2.9644e-08
2.97152e-08
-6.06154e-09
3.5781e-08
-1.21089e-08
3.56951e-08
-1.81323e-08
3.55524e-08
-2.4122e-08
3.53524e-08
-3.00681e-08
3.50939e-08
-3.59606e-08
3.47765e-08
-4.17892e-08
3.43998e-08
-4.75442e-08
3.3964e-08
-5.32153e-08
3.34697e-08
-5.87929e-08
3.29172e-08
-6.42673e-08
3.23075e-08
-6.96287e-08
3.16415e-08
-7.4868e-08
3.09202e-08
-7.99759e-08
3.01448e-08
-8.49435e-08
2.93167e-08
-8.97621e-08
2.84373e-08
-9.44232e-08
2.7508e-08
-9.89187e-08
2.65306e-08
-1.03241e-07
2.55066e-08
-1.07382e-07
2.4438e-08
-1.11334e-07
2.33264e-08
-1.15092e-07
2.2174e-08
-1.18647e-07
2.09827e-08
-1.21994e-07
1.97546e-08
-1.25128e-07
1.84919e-08
-1.28042e-07
1.71967e-08
-1.30731e-07
1.58713e-08
-1.33191e-07
1.45181e-08
-1.35417e-07
1.31395e-08
-1.37406e-07
1.17378e-08
-1.39154e-07
1.03155e-08
-1.40658e-07
8.87509e-09
-1.41915e-07
7.41912e-09
-1.42924e-07
5.95013e-09
-1.43681e-07
4.47071e-09
-1.44187e-07
2.98343e-09
-1.44439e-07
1.49092e-09
-1.44439e-07
-4.22102e-12
-1.44185e-07
-1.49936e-09
-1.43678e-07
-2.99187e-09
-1.42919e-07
-4.47914e-09
-1.41909e-07
-5.95856e-09
-1.4065e-07
-7.42754e-09
-1.39145e-07
-8.8835e-09
-1.37396e-07
-1.03239e-08
-1.35406e-07
-1.17462e-08
-1.33178e-07
-1.31478e-08
-1.30716e-07
-1.45264e-08
-1.28026e-07
-1.58796e-08
-1.2511e-07
-1.72049e-08
-1.21975e-07
-1.85e-08
-1.18627e-07
-1.97627e-08
-1.1507e-07
-2.09907e-08
-1.11311e-07
-2.21819e-08
-1.07357e-07
-2.33342e-08
-1.03215e-07
-2.44456e-08
-9.88919e-08
-2.55141e-08
-9.43951e-08
-2.65378e-08
-8.97328e-08
-2.7515e-08
-8.4913e-08
-2.8444e-08
-7.99443e-08
-2.9323e-08
-7.48354e-08
-3.01506e-08
-6.95952e-08
-3.09253e-08
-6.42329e-08
-3.16458e-08
-5.8758e-08
-3.23108e-08
-5.318e-08
-3.2919e-08
-4.75086e-08
-3.34696e-08
-4.1754e-08
-3.39614e-08
-3.59261e-08
-3.43937e-08
-3.00352e-08
-3.47656e-08
-2.40916e-08
-3.50765e-08
-1.81057e-08
-3.53259e-08
-1.20881e-08
-3.55134e-08
-6.04922e-09
-3.56385e-08
2.27929e-13
-3.57012e-08
6.04968e-09
-3.57012e-08
1.20885e-08
-3.56385e-08
1.81061e-08
-3.55134e-08
2.4092e-08
-3.53259e-08
3.00356e-08
-3.50765e-08
3.59265e-08
-3.47656e-08
4.17544e-08
-3.43937e-08
4.75091e-08
-3.39614e-08
5.31804e-08
-3.34696e-08
5.87584e-08
-3.29191e-08
6.42334e-08
-3.23108e-08
6.95957e-08
-3.16458e-08
7.48359e-08
-3.09253e-08
7.99448e-08
-3.01506e-08
8.49135e-08
-2.9323e-08
8.97332e-08
-2.8444e-08
9.43956e-08
-2.7515e-08
9.88923e-08
-2.65379e-08
1.03216e-07
-2.55141e-08
1.07358e-07
-2.44456e-08
1.11312e-07
-2.33342e-08
1.1507e-07
-2.21819e-08
1.18627e-07
-2.09907e-08
1.21976e-07
-1.97627e-08
1.25111e-07
-1.85001e-08
1.28026e-07
-1.72049e-08
1.30717e-07
-1.58796e-08
1.33178e-07
-1.45265e-08
1.35406e-07
-1.31479e-08
1.37396e-07
-1.17462e-08
1.39146e-07
-1.03239e-08
1.40651e-07
-8.88355e-09
1.4191e-07
-7.4276e-09
1.42919e-07
-5.95862e-09
1.43678e-07
-4.47921e-09
1.44185e-07
-2.99194e-09
1.44439e-07
-1.49943e-09
1.4444e-07
-4.3016e-12
1.44187e-07
1.49083e-09
1.43682e-07
2.98334e-09
1.42924e-07
4.47061e-09
1.41916e-07
5.95004e-09
1.40659e-07
7.41902e-09
1.39155e-07
8.87498e-09
1.37407e-07
1.03154e-08
1.35418e-07
1.17377e-08
1.33192e-07
1.31394e-08
1.30732e-07
1.4518e-08
1.28042e-07
1.58712e-08
1.25129e-07
1.71965e-08
1.21995e-07
1.84917e-08
1.18648e-07
1.97544e-08
1.15092e-07
2.09825e-08
1.11335e-07
2.21738e-08
1.07383e-07
2.33262e-08
1.03242e-07
2.44377e-08
9.89198e-08
2.55063e-08
9.44244e-08
2.65302e-08
8.97633e-08
2.75076e-08
8.49448e-08
2.84368e-08
7.99773e-08
2.93162e-08
7.48694e-08
3.01442e-08
6.96302e-08
3.09195e-08
6.42689e-08
3.16407e-08
5.87946e-08
3.23066e-08
5.32171e-08
3.29162e-08
4.7546e-08
3.34685e-08
4.17911e-08
3.39627e-08
3.59625e-08
3.43982e-08
3.00701e-08
3.47746e-08
2.41239e-08
3.50917e-08
1.81339e-08
3.53498e-08
1.21101e-08
3.55494e-08
6.06228e-09
3.56918e-08
3.57774e-08
-6.1251e-09
4.19061e-08
-1.22357e-08
4.18058e-08
-1.83221e-08
4.16389e-08
-2.43745e-08
4.14048e-08
-3.03827e-08
4.11022e-08
-3.63367e-08
4.07304e-08
-4.22263e-08
4.02894e-08
-4.80413e-08
3.97791e-08
-5.37717e-08
3.92001e-08
-5.94076e-08
3.85531e-08
-6.49391e-08
3.7839e-08
-7.03566e-08
3.7059e-08
-7.56507e-08
3.62142e-08
-8.08119e-08
3.53061e-08
-8.58314e-08
3.43362e-08
-9.07004e-08
3.33062e-08
-9.54102e-08
3.22179e-08
-9.99527e-08
3.10731e-08
-1.0432e-07
2.98738e-08
-1.08504e-07
2.86222e-08
-1.12498e-07
2.73203e-08
-1.16295e-07
2.59706e-08
-1.19887e-07
2.45753e-08
-1.2327e-07
2.3137e-08
-1.26436e-07
2.1658e-08
-1.2938e-07
2.01411e-08
-1.32097e-07
1.85888e-08
-1.34583e-07
1.70039e-08
-1.36833e-07
1.53892e-08
-1.38843e-07
1.37475e-08
-1.40609e-07
1.20817e-08
-1.42129e-07
1.03947e-08
-1.43399e-07
8.68942e-09
-1.44418e-07
6.96892e-09
-1.45183e-07
5.23619e-09
-1.45694e-07
3.49426e-09
-1.45949e-07
1.7462e-09
-1.45949e-07
-4.92777e-12
-1.45692e-07
-1.75606e-09
-1.4518e-07
-3.50412e-09
-1.44413e-07
-5.24604e-09
-1.43392e-07
-6.97876e-09
-1.42121e-07
-8.69925e-09
-1.406e-07
-1.04045e-08
-1.38832e-07
-1.20915e-08
-1.36821e-07
-1.37573e-08
-1.3457e-07
-1.5399e-08
-1.32083e-07
-1.70136e-08
-1.29364e-07
-1.85985e-08
-1.26418e-07
-2.01507e-08
-1.23251e-07
-2.16675e-08
-1.19867e-07
-2.31464e-08
-1.16273e-07
-2.45847e-08
-1.12475e-07
-2.59799e-08
-1.0848e-07
-2.73295e-08
-1.04294e-07
-2.86311e-08
-9.99257e-08
-2.98826e-08
-9.53819e-08
-3.10816e-08
-9.06709e-08
-3.22261e-08
-8.58007e-08
-3.33141e-08
-8.07801e-08
-3.43436e-08
-7.56178e-08
-3.53129e-08
-7.03228e-08
-3.62203e-08
-6.49045e-08
-3.70641e-08
-5.93723e-08
-3.78429e-08
-5.37359e-08
-3.85554e-08
-4.80053e-08
-3.92002e-08
-4.21905e-08
-3.97762e-08
-3.63017e-08
-4.02825e-08
-3.03492e-08
-4.07181e-08
-2.43434e-08
-4.10823e-08
-1.8295e-08
-4.13744e-08
-1.22144e-08
-4.15939e-08
-6.11247e-09
-4.17405e-08
2.2706e-13
-4.18138e-08
6.11292e-09
-4.18138e-08
1.22149e-08
-4.17405e-08
1.82954e-08
-4.15939e-08
2.43439e-08
-4.13744e-08
3.03496e-08
-4.10823e-08
3.63021e-08
-4.07181e-08
4.2191e-08
-4.02825e-08
4.80058e-08
-3.97762e-08
5.37364e-08
-3.92002e-08
5.93727e-08
-3.85554e-08
6.49049e-08
-3.7843e-08
7.03233e-08
-3.70641e-08
7.56182e-08
-3.62203e-08
8.07806e-08
-3.5313e-08
8.58012e-08
-3.43436e-08
9.06713e-08
-3.33141e-08
9.53824e-08
-3.22261e-08
9.99262e-08
-3.10816e-08
1.04295e-07
-2.98826e-08
1.0848e-07
-2.86311e-08
1.12475e-07
-2.73295e-08
1.16273e-07
-2.59799e-08
1.19867e-07
-2.45847e-08
1.23251e-07
-2.31465e-08
1.26419e-07
-2.16676e-08
1.29364e-07
-2.01507e-08
1.32083e-07
-1.85985e-08
1.3457e-07
-1.70137e-08
1.36822e-07
-1.5399e-08
1.38833e-07
-1.37573e-08
1.406e-07
-1.20915e-08
1.42121e-07
-1.04046e-08
1.43393e-07
-8.69932e-09
1.44413e-07
-6.97883e-09
1.4518e-07
-5.24611e-09
1.45692e-07
-3.5042e-09
1.45949e-07
-1.75614e-09
1.4595e-07
-5.01916e-12
1.45695e-07
1.74611e-09
1.45184e-07
3.49416e-09
1.44418e-07
5.23608e-09
1.434e-07
6.96881e-09
1.42129e-07
8.6893e-09
1.4061e-07
1.03946e-08
1.38843e-07
1.20816e-08
1.36834e-07
1.37474e-08
1.34584e-07
1.53891e-08
1.32098e-07
1.70037e-08
1.29381e-07
1.85886e-08
1.26437e-07
2.01409e-08
1.2327e-07
2.16578e-08
1.19888e-07
2.31367e-08
1.16295e-07
2.45751e-08
1.12499e-07
2.59703e-08
1.08505e-07
2.732e-08
1.04321e-07
2.86218e-08
9.99538e-08
2.98734e-08
9.54113e-08
3.10727e-08
9.07016e-08
3.22174e-08
8.58327e-08
3.33057e-08
8.08132e-08
3.43356e-08
7.5652e-08
3.53055e-08
7.0358e-08
3.62135e-08
6.49406e-08
3.70581e-08
5.94092e-08
3.78381e-08
5.37733e-08
3.8552e-08
4.80429e-08
3.91989e-08
4.22279e-08
3.97777e-08
3.63384e-08
4.02877e-08
3.03843e-08
4.07286e-08
2.4376e-08
4.11001e-08
1.83234e-08
4.14023e-08
1.22367e-08
4.16362e-08
6.12563e-09
4.18029e-08
4.19031e-08
-6.19913e-09
4.81053e-08
-1.23836e-08
4.79903e-08
-1.85434e-08
4.77987e-08
-2.46688e-08
4.75301e-08
-3.07495e-08
4.71829e-08
-3.67753e-08
4.67562e-08
-4.27359e-08
4.625e-08
-4.86211e-08
4.56642e-08
-5.44206e-08
4.49996e-08
-6.01245e-08
4.42569e-08
-6.57227e-08
4.34372e-08
-7.12055e-08
4.25418e-08
-7.65634e-08
4.15721e-08
-8.17869e-08
4.05296e-08
-8.6867e-08
3.94163e-08
-9.17947e-08
3.82339e-08
-9.65613e-08
3.69845e-08
-1.01159e-07
3.56703e-08
-1.05578e-07
3.42937e-08
-1.09813e-07
3.28568e-08
-1.13855e-07
3.13624e-08
-1.17698e-07
2.9813e-08
-1.21334e-07
2.82113e-08
-1.24757e-07
2.65601e-08
-1.27961e-07
2.48623e-08
-1.30941e-07
2.3121e-08
-1.33691e-07
2.1339e-08
-1.36207e-07
1.95197e-08
-1.38484e-07
1.76661e-08
-1.40518e-07
1.57815e-08
-1.42305e-07
1.38692e-08
-1.43843e-07
1.19326e-08
-1.45129e-07
9.97505e-09
-1.4616e-07
8e-09
-1.46935e-07
6.01091e-09
-1.47452e-07
4.01127e-09
-1.4771e-07
2.00458e-09
-1.47709e-07
-5.63576e-12
-1.4745e-07
-2.01585e-09
-1.46931e-07
-4.02253e-09
-1.46155e-07
-6.02217e-09
-1.45123e-07
-8.01126e-09
-1.43836e-07
-9.9863e-09
-1.42296e-07
-1.19438e-08
-1.40507e-07
-1.38804e-08
-1.38472e-07
-1.57927e-08
-1.36194e-07
-1.76772e-08
-1.33676e-07
-1.95308e-08
-1.30925e-07
-2.13501e-08
-1.27943e-07
-2.3132e-08
-1.24738e-07
-2.48733e-08
-1.21313e-07
-2.6571e-08
-1.17676e-07
-2.8222e-08
-1.13832e-07
-2.98236e-08
-1.09789e-07
-3.13729e-08
-1.05553e-07
-3.28671e-08
-1.01131e-07
-3.43037e-08
-9.65328e-08
-3.56802e-08
-9.17649e-08
-3.6994e-08
-8.6836e-08
-3.8243e-08
-8.17548e-08
-3.94248e-08
-7.65302e-08
-4.05376e-08
-7.11713e-08
-4.15792e-08
-6.56876e-08
-4.25478e-08
-6.00887e-08
-4.34419e-08
-5.43843e-08
-4.42597e-08
-4.85846e-08
-4.49999e-08
-4.26996e-08
-4.56612e-08
-3.67397e-08
-4.62424e-08
-3.07154e-08
-4.67424e-08
-2.46372e-08
-4.71605e-08
-1.85157e-08
-4.74958e-08
-1.23618e-08
-4.77478e-08
-6.18623e-09
-4.79161e-08
2.25976e-13
-4.80003e-08
6.18668e-09
-4.80003e-08
1.23623e-08
-4.79161e-08
1.85162e-08
-4.77478e-08
2.46376e-08
-4.74958e-08
3.07158e-08
-4.71605e-08
3.67402e-08
-4.67424e-08
4.27001e-08
-4.62424e-08
4.8585e-08
-4.56612e-08
5.43848e-08
-4.5e-08
6.00891e-08
-4.42598e-08
6.56881e-08
-4.34419e-08
7.11718e-08
-4.25479e-08
7.65307e-08
-4.15792e-08
8.17553e-08
-4.05376e-08
8.68365e-08
-3.94249e-08
9.17654e-08
-3.8243e-08
9.65333e-08
-3.6994e-08
1.01132e-07
-3.56802e-08
1.05553e-07
-3.43038e-08
1.09789e-07
-3.28672e-08
1.13833e-07
-3.13729e-08
1.17676e-07
-2.98237e-08
1.21314e-07
-2.82221e-08
1.24738e-07
-2.6571e-08
1.27944e-07
-2.48733e-08
1.30925e-07
-2.3132e-08
1.33677e-07
-2.13502e-08
1.36194e-07
-1.95309e-08
1.38472e-07
-1.76773e-08
1.40508e-07
-1.57927e-08
1.42297e-07
-1.38805e-08
1.43836e-07
-1.19439e-08
1.45123e-07
-9.98637e-09
1.46156e-07
-8.01134e-09
1.46932e-07
-6.02226e-09
1.4745e-07
-4.02262e-09
1.4771e-07
-2.01594e-09
1.47711e-07
-5.73685e-12
1.47452e-07
2.00447e-09
1.46935e-07
4.01115e-09
1.46161e-07
6.01079e-09
1.4513e-07
7.99988e-09
1.43844e-07
9.97492e-09
1.42306e-07
1.19325e-08
1.40519e-07
1.38691e-08
1.38485e-07
1.57813e-08
1.36208e-07
1.76659e-08
1.33692e-07
1.95195e-08
1.30942e-07
2.13388e-08
1.27962e-07
2.31207e-08
1.24758e-07
2.48621e-08
1.21334e-07