/*--------------------------------*- C++ -*----------------------------------*\
| =========                 |                                                 |
| \\      /  F ield         | OpenFOAM: The Open Source CFD Toolbox           |
|  \\    /   O peration     | Version:  2106                                  |
|   \\  /    A nd           | Website:  www.openfoam.com                      |
|    \\/     M anipulation  |                                                 |
\*---------------------------------------------------------------------------*/
FoamFile
{
    version     2.0;
    format      ascii;
    arch        "LSB;label=32;scalar=64";
    class       volVectorField;
    location    "1.5";
    object      U;
}
// * * * * * * * * * * * * * * * * * * * * * * * * * * * * * * * * * * * * * //

dimensions      [0 1 -1 0 0 0 0];

internalField   nonuniform List<vector> 
90000
(
(-4.41743e-07 4.42896e-07 0)
(-1.32512e-06 4.41401e-07 0)
(-2.20665e-06 4.39441e-07 0)
(-3.08379e-06 4.36905e-07 0)
(-3.95514e-06 4.33678e-07 0)
(-4.81936e-06 4.29734e-07 0)
(-5.67499e-06 4.25067e-07 0)
(-6.52057e-06 4.19675e-07 0)
(-7.35464e-06 4.13562e-07 0)
(-8.17576e-06 4.06733e-07 0)
(-8.9825e-06 3.99197e-07 0)
(-9.77346e-06 3.90966e-07 0)
(-1.05473e-05 3.82052e-07 0)
(-1.13025e-05 3.72471e-07 0)
(-1.2038e-05 3.62238e-07 0)
(-1.27523e-05 3.51372e-07 0)
(-1.34443e-05 3.39889e-07 0)
(-1.41127e-05 3.27812e-07 0)
(-1.47563e-05 3.1516e-07 0)
(-1.5374e-05 3.01955e-07 0)
(-1.59648e-05 2.88221e-07 0)
(-1.65276e-05 2.73981e-07 0)
(-1.70613e-05 2.59262e-07 0)
(-1.75652e-05 2.44087e-07 0)
(-1.80383e-05 2.28485e-07 0)
(-1.84797e-05 2.12481e-07 0)
(-1.88887e-05 1.96105e-07 0)
(-1.92645e-05 1.79385e-07 0)
(-1.96066e-05 1.62351e-07 0)
(-1.99143e-05 1.45031e-07 0)
(-2.01871e-05 1.27457e-07 0)
(-2.04244e-05 1.0966e-07 0)
(-2.0626e-05 9.16699e-08 0)
(-2.07913e-05 7.35192e-08 0)
(-2.09202e-05 5.52394e-08 0)
(-2.10124e-05 3.68627e-08 0)
(-2.10677e-05 1.84213e-08 0)
(-2.10861e-05 -5.25568e-11 0)
(-2.10675e-05 -1.85264e-08 0)
(-2.1012e-05 -3.69678e-08 0)
(-2.09196e-05 -5.53445e-08 0)
(-2.07905e-05 -7.36242e-08 0)
(-2.06249e-05 -9.17748e-08 0)
(-2.04232e-05 -1.09764e-07 0)
(-2.01856e-05 -1.27562e-07 0)
(-1.99126e-05 -1.45135e-07 0)
(-1.96047e-05 -1.62454e-07 0)
(-1.92624e-05 -1.79489e-07 0)
(-1.88864e-05 -1.96208e-07 0)
(-1.84772e-05 -2.12583e-07 0)
(-1.80356e-05 -2.28586e-07 0)
(-1.75623e-05 -2.44187e-07 0)
(-1.70582e-05 -2.59361e-07 0)
(-1.65243e-05 -2.74079e-07 0)
(-1.59613e-05 -2.88317e-07 0)
(-1.53703e-05 -3.02049e-07 0)
(-1.47524e-05 -3.15251e-07 0)
(-1.41086e-05 -3.279e-07 0)
(-1.34401e-05 -3.39975e-07 0)
(-1.27479e-05 -3.51452e-07 0)
(-1.20334e-05 -3.62314e-07 0)
(-1.12978e-05 -3.72539e-07 0)
(-1.05424e-05 -3.82112e-07 0)
(-9.76852e-06 -3.91014e-07 0)
(-8.97748e-06 -3.9923e-07 0)
(-8.17069e-06 -4.06746e-07 0)
(-7.34957e-06 -4.13548e-07 0)
(-6.51555e-06 -4.19626e-07 0)
(-5.6701e-06 -4.24966e-07 0)
(-4.81471e-06 -4.29562e-07 0)
(-3.95087e-06 -4.33404e-07 0)
(-3.0801e-06 -4.36486e-07 0)
(-2.20393e-06 -4.38802e-07 0)
(-1.3239e-06 -4.40348e-07 0)
(-4.41535e-07 -4.41122e-07 0)
(4.416e-07 -4.41122e-07 0)
(1.32396e-06 -4.40348e-07 0)
(2.204e-06 -4.38802e-07 0)
(3.08017e-06 -4.36486e-07 0)
(3.95094e-06 -4.33404e-07 0)
(4.81478e-06 -4.29562e-07 0)
(5.67017e-06 -4.24967e-07 0)
(6.51562e-06 -4.19626e-07 0)
(7.34963e-06 -4.13549e-07 0)
(8.17076e-06 -4.06746e-07 0)
(8.97755e-06 -3.9923e-07 0)
(9.76859e-06 -3.91014e-07 0)
(1.05425e-05 -3.82112e-07 0)
(1.12979e-05 -3.7254e-07 0)
(1.20335e-05 -3.62314e-07 0)
(1.2748e-05 -3.51453e-07 0)
(1.34401e-05 -3.39975e-07 0)
(1.41087e-05 -3.27901e-07 0)
(1.47525e-05 -3.15251e-07 0)
(1.53704e-05 -3.02049e-07 0)
(1.59614e-05 -2.88317e-07 0)
(1.65243e-05 -2.74079e-07 0)
(1.70583e-05 -2.59361e-07 0)
(1.75624e-05 -2.44188e-07 0)
(1.80356e-05 -2.28586e-07 0)
(1.84772e-05 -2.12584e-07 0)
(1.88864e-05 -1.96208e-07 0)
(1.92625e-05 -1.79489e-07 0)
(1.96048e-05 -1.62455e-07 0)
(1.99127e-05 -1.45136e-07 0)
(2.01857e-05 -1.27562e-07 0)
(2.04233e-05 -1.09765e-07 0)
(2.0625e-05 -9.17755e-08 0)
(2.07906e-05 -7.36249e-08 0)
(2.09197e-05 -5.53453e-08 0)
(2.10121e-05 -3.69687e-08 0)
(2.10676e-05 -1.85274e-08 0)
(2.10862e-05 -5.36028e-11 0)
(2.10678e-05 1.84202e-08 0)
(2.10125e-05 3.68616e-08 0)
(2.09203e-05 5.52382e-08 0)
(2.07914e-05 7.35179e-08 0)
(2.06261e-05 9.16686e-08 0)
(2.04245e-05 1.09658e-07 0)
(2.01872e-05 1.27456e-07 0)
(1.99144e-05 1.4503e-07 0)
(1.96067e-05 1.62349e-07 0)
(1.92647e-05 1.79383e-07 0)
(1.88888e-05 1.96103e-07 0)
(1.84798e-05 2.12479e-07 0)
(1.80384e-05 2.28482e-07 0)
(1.75653e-05 2.44085e-07 0)
(1.70615e-05 2.59259e-07 0)
(1.65277e-05 2.73978e-07 0)
(1.5965e-05 2.88217e-07 0)
(1.53742e-05 3.01951e-07 0)
(1.47565e-05 3.15155e-07 0)
(1.41128e-05 3.27807e-07 0)
(1.34445e-05 3.39884e-07 0)
(1.27525e-05 3.51365e-07 0)
(1.20382e-05 3.62231e-07 0)
(1.13028e-05 3.72463e-07 0)
(1.05475e-05 3.82042e-07 0)
(9.77373e-06 3.90954e-07 0)
(8.9828e-06 3.99183e-07 0)
(8.17609e-06 4.06715e-07 0)
(7.35501e-06 4.1354e-07 0)
(6.52099e-06 4.19646e-07 0)
(5.67547e-06 4.25028e-07 0)
(4.81991e-06 4.29678e-07 0)
(3.95578e-06 4.33595e-07 0)
(3.08455e-06 4.3678e-07 0)
(2.20767e-06 4.39241e-07 0)
(1.32656e-06 4.41002e-07 0)
(4.42552e-07 4.42087e-07 0)
(-4.43237e-07 1.3288e-06 0)
(-1.32896e-06 1.32496e-06 0)
(-2.21225e-06 1.31933e-06 0)
(-3.09131e-06 1.31179e-06 0)
(-3.96468e-06 1.30213e-06 0)
(-4.83093e-06 1.2903e-06 0)
(-5.68858e-06 1.2763e-06 0)
(-6.53615e-06 1.26011e-06 0)
(-7.3722e-06 1.24176e-06 0)
(-8.19527e-06 1.22126e-06 0)
(-9.00392e-06 1.19863e-06 0)
(-9.79676e-06 1.17392e-06 0)
(-1.05724e-05 1.14715e-06 0)
(-1.13295e-05 1.11838e-06 0)
(-1.20667e-05 1.08766e-06 0)
(-1.27827e-05 1.05503e-06 0)
(-1.34763e-05 1.02055e-06 0)
(-1.41463e-05 9.84291e-07 0)
(-1.47914e-05 9.46301e-07 0)
(-1.54107e-05 9.06653e-07 0)
(-1.60028e-05 8.65415e-07 0)
(-1.6567e-05 8.2266e-07 0)
(-1.7102e-05 7.78462e-07 0)
(-1.76071e-05 7.32899e-07 0)
(-1.80812e-05 6.8605e-07 0)
(-1.85237e-05 6.37999e-07 0)
(-1.89337e-05 5.88828e-07 0)
(-1.93104e-05 5.38624e-07 0)
(-1.96533e-05 4.87476e-07 0)
(-1.99618e-05 4.35472e-07 0)
(-2.02352e-05 3.82705e-07 0)
(-2.04731e-05 3.29266e-07 0)
(-2.06751e-05 2.75249e-07 0)
(-2.08409e-05 2.2075e-07 0)
(-2.09701e-05 1.65863e-07 0)
(-2.10625e-05 1.10684e-07 0)
(-2.1118e-05 5.53119e-08 0)
(-2.11364e-05 -1.57927e-10 0)
(-2.11177e-05 -5.56277e-08 0)
(-2.10621e-05 -1.11e-07 0)
(-2.09694e-05 -1.66178e-07 0)
(-2.084e-05 -2.21065e-07 0)
(-2.06741e-05 -2.75564e-07 0)
(-2.04718e-05 -3.2958e-07 0)
(-2.02337e-05 -3.83018e-07 0)
(-1.99601e-05 -4.35785e-07 0)
(-1.96515e-05 -4.87787e-07 0)
(-1.93084e-05 -5.38934e-07 0)
(-1.89314e-05 -5.89136e-07 0)
(-1.85212e-05 -6.38305e-07 0)
(-1.80785e-05 -6.86354e-07 0)
(-1.76042e-05 -7.332e-07 0)
(-1.70989e-05 -7.78759e-07 0)
(-1.65636e-05 -8.22953e-07 0)
(-1.59993e-05 -8.65703e-07 0)
(-1.5407e-05 -9.06935e-07 0)
(-1.47876e-05 -9.46577e-07 0)
(-1.41422e-05 -9.84557e-07 0)
(-1.34721e-05 -1.02081e-06 0)
(-1.27783e-05 -1.05527e-06 0)
(-1.20621e-05 -1.08789e-06 0)
(-1.13248e-05 -1.11859e-06 0)
(-1.05676e-05 -1.14733e-06 0)
(-9.79181e-06 -1.17406e-06 0)
(-8.99888e-06 -1.19873e-06 0)
(-8.19016e-06 -1.2213e-06 0)
(-7.36708e-06 -1.24173e-06 0)
(-6.53108e-06 -1.25997e-06 0)
(-5.68362e-06 -1.27601e-06 0)
(-4.82619e-06 -1.28981e-06 0)
(-3.96029e-06 -1.30134e-06 0)
(-3.08745e-06 -1.3106e-06 0)
(-2.20919e-06 -1.31755e-06 0)
(-1.32705e-06 -1.32219e-06 0)
(-4.42588e-07 -1.32452e-06 0)
(4.42653e-07 -1.32452e-06 0)
(1.32712e-06 -1.32219e-06 0)
(2.20925e-06 -1.31755e-06 0)
(3.08751e-06 -1.3106e-06 0)
(3.96036e-06 -1.30134e-06 0)
(4.82625e-06 -1.28981e-06 0)
(5.68368e-06 -1.27601e-06 0)
(6.53115e-06 -1.25997e-06 0)
(7.36715e-06 -1.24173e-06 0)
(8.19023e-06 -1.2213e-06 0)
(8.99894e-06 -1.19873e-06 0)
(9.79187e-06 -1.17406e-06 0)
(1.05676e-05 -1.14733e-06 0)
(1.13248e-05 -1.11859e-06 0)
(1.20622e-05 -1.08789e-06 0)
(1.27784e-05 -1.05528e-06 0)
(1.34722e-05 -1.02081e-06 0)
(1.41423e-05 -9.84558e-07 0)
(1.47876e-05 -9.46577e-07 0)
(1.5407e-05 -9.06936e-07 0)
(1.59994e-05 -8.65704e-07 0)
(1.65637e-05 -8.22954e-07 0)
(1.7099e-05 -7.7876e-07 0)
(1.76042e-05 -7.33201e-07 0)
(1.80786e-05 -6.86356e-07 0)
(1.85213e-05 -6.38306e-07 0)
(1.89315e-05 -5.89138e-07 0)
(1.93084e-05 -5.38936e-07 0)
(1.96515e-05 -4.87789e-07 0)
(1.99602e-05 -4.35787e-07 0)
(2.02338e-05 -3.8302e-07 0)
(2.04719e-05 -3.29582e-07 0)
(2.06742e-05 -2.75566e-07 0)
(2.08401e-05 -2.21067e-07 0)
(2.09695e-05 -1.66181e-07 0)
(2.10622e-05 -1.11003e-07 0)
(2.11178e-05 -5.56305e-08 0)
(2.11365e-05 -1.60886e-10 0)
(2.1118e-05 5.53087e-08 0)
(2.10626e-05 1.10681e-07 0)
(2.09702e-05 1.65859e-07 0)
(2.0841e-05 2.20746e-07 0)
(2.06752e-05 2.75245e-07 0)
(2.04732e-05 3.29262e-07 0)
(2.02353e-05 3.827e-07 0)
(1.99619e-05 4.35468e-07 0)
(1.96535e-05 4.87471e-07 0)
(1.93106e-05 5.38619e-07 0)
(1.89338e-05 5.88822e-07 0)
(1.85238e-05 6.37992e-07 0)
(1.80814e-05 6.86043e-07 0)
(1.76072e-05 7.32891e-07 0)
(1.71022e-05 7.78453e-07 0)
(1.65671e-05 8.2265e-07 0)
(1.6003e-05 8.65404e-07 0)
(1.54108e-05 9.06641e-07 0)
(1.47916e-05 9.46288e-07 0)
(1.41465e-05 9.84276e-07 0)
(1.34765e-05 1.02054e-06 0)
(1.27829e-05 1.05501e-06 0)
(1.20669e-05 1.08764e-06 0)
(1.13297e-05 1.11836e-06 0)
(1.05726e-05 1.14712e-06 0)
(9.79703e-06 1.17388e-06 0)
(9.00422e-06 1.19859e-06 0)
(8.19559e-06 1.2212e-06 0)
(7.37256e-06 1.24169e-06 0)
(6.53655e-06 1.26003e-06 0)
(5.68902e-06 1.27619e-06 0)
(4.83144e-06 1.29015e-06 0)
(3.96525e-06 1.30191e-06 0)
(3.09195e-06 1.31148e-06 0)
(2.21298e-06 1.31887e-06 0)
(1.32977e-06 1.32414e-06 0)
(4.43636e-07 1.32736e-06 0)
(-4.452e-07 2.21655e-06 0)
(-1.33458e-06 2.21092e-06 0)
(-2.22125e-06 2.20189e-06 0)
(-3.10372e-06 2.18941e-06 0)
(-3.98052e-06 2.17334e-06 0)
(-4.85017e-06 2.15363e-06 0)
(-5.7112e-06 2.13027e-06 0)
(-6.56213e-06 2.10327e-06 0)
(-7.40148e-06 2.07264e-06 0)
(-8.2278e-06 2.03842e-06 0)
(-9.03966e-06 2.00066e-06 0)
(-9.83564e-06 1.95941e-06 0)
(-1.06144e-05 1.91474e-06 0)
(-1.13744e-05 1.86673e-06 0)
(-1.21146e-05 1.81544e-06 0)
(-1.28334e-05 1.76098e-06 0)
(-1.35298e-05 1.70344e-06 0)
(-1.42024e-05 1.64291e-06 0)
(-1.48501e-05 1.5795e-06 0)
(-1.54718e-05 1.51332e-06 0)
(-1.60663e-05 1.44449e-06 0)
(-1.66327e-05 1.37313e-06 0)
(-1.71699e-05 1.29935e-06 0)
(-1.76769e-05 1.2233e-06 0)
(-1.8153e-05 1.14511e-06 0)
(-1.85972e-05 1.0649e-06 0)
(-1.90088e-05 9.8283e-07 0)
(-1.93871e-05 8.99034e-07 0)
(-1.97313e-05 8.1366e-07 0)
(-2.0041e-05 7.2686e-07 0)
(-2.03155e-05 6.38784e-07 0)
(-2.05543e-05 5.49588e-07 0)
(-2.07571e-05 4.59427e-07 0)
(-2.09236e-05 3.6846e-07 0)
(-2.10533e-05 2.76846e-07 0)
(-2.1146e-05 1.84747e-07 0)
(-2.12017e-05 9.23228e-08 0)
(-2.12202e-05 -2.63598e-10 0)
(-2.12015e-05 -9.28499e-08 0)
(-2.11456e-05 -1.85274e-07 0)
(-2.10526e-05 -2.77373e-07 0)
(-2.09227e-05 -3.68986e-07 0)
(-2.07561e-05 -4.59952e-07 0)
(-2.05531e-05 -5.50112e-07 0)
(-2.0314e-05 -6.39307e-07 0)
(-2.00393e-05 -7.27381e-07 0)
(-1.97294e-05 -8.1418e-07 0)
(-1.9385e-05 -8.99551e-07 0)
(-1.90065e-05 -9.83344e-07 0)
(-1.85947e-05 -1.06541e-06 0)
(-1.81503e-05 -1.14561e-06 0)
(-1.7674e-05 -1.2238e-06 0)
(-1.71667e-05 -1.29985e-06 0)
(-1.66294e-05 -1.37362e-06 0)
(-1.60628e-05 -1.44497e-06 0)
(-1.54681e-05 -1.51379e-06 0)
(-1.48462e-05 -1.57996e-06 0)
(-1.41983e-05 -1.64335e-06 0)
(-1.35255e-05 -1.70387e-06 0)
(-1.2829e-05 -1.76139e-06 0)
(-1.211e-05 -1.81582e-06 0)
(-1.13697e-05 -1.86707e-06 0)
(-1.06095e-05 -1.91505e-06 0)
(-9.83066e-06 -1.95966e-06 0)
(-9.03459e-06 -2.00084e-06 0)
(-8.22266e-06 -2.03851e-06 0)
(-7.39632e-06 -2.0726e-06 0)
(-6.55699e-06 -2.10306e-06 0)
(-5.70617e-06 -2.12982e-06 0)
(-4.84534e-06 -2.15286e-06 0)
(-3.976e-06 -2.17211e-06 0)
(-3.0997e-06 -2.18756e-06 0)
(-2.21795e-06 -2.19916e-06 0)
(-1.33232e-06 -2.20691e-06 0)
(-4.44344e-07 -2.21079e-06 0)
(4.44409e-07 -2.21079e-06 0)
(1.33238e-06 -2.20691e-06 0)
(2.21802e-06 -2.19916e-06 0)
(3.09976e-06 -2.18756e-06 0)
(3.97607e-06 -2.17211e-06 0)
(4.8454e-06 -2.15286e-06 0)
(5.70624e-06 -2.12983e-06 0)
(6.55706e-06 -2.10306e-06 0)
(7.39638e-06 -2.0726e-06 0)
(8.22273e-06 -2.03851e-06 0)
(9.03465e-06 -2.00084e-06 0)
(9.83073e-06 -1.95966e-06 0)
(1.06096e-05 -1.91505e-06 0)
(1.13698e-05 -1.86707e-06 0)
(1.21101e-05 -1.81583e-06 0)
(1.28291e-05 -1.76139e-06 0)
(1.35256e-05 -1.70387e-06 0)
(1.41984e-05 -1.64335e-06 0)
(1.48463e-05 -1.57996e-06 0)
(1.54682e-05 -1.51379e-06 0)
(1.60629e-05 -1.44497e-06 0)
(1.66294e-05 -1.37362e-06 0)
(1.71668e-05 -1.29985e-06 0)
(1.76741e-05 -1.22381e-06 0)
(1.81503e-05 -1.14562e-06 0)
(1.85948e-05 -1.06542e-06 0)
(1.90066e-05 -9.83347e-07 0)
(1.9385e-05 -8.99554e-07 0)
(1.97295e-05 -8.14183e-07 0)
(2.00394e-05 -7.27384e-07 0)
(2.03141e-05 -6.3931e-07 0)
(2.05532e-05 -5.50115e-07 0)
(2.07562e-05 -4.59955e-07 0)
(2.09228e-05 -3.68989e-07 0)
(2.10527e-05 -2.77377e-07 0)
(2.11457e-05 -1.85278e-07 0)
(2.12016e-05 -9.28542e-08 0)
(2.12203e-05 -2.68285e-10 0)
(2.12018e-05 9.23177e-08 0)
(2.11461e-05 1.84741e-07 0)
(2.10534e-05 2.76841e-07 0)
(2.09237e-05 3.68454e-07 0)
(2.07573e-05 4.5942e-07 0)
(2.05544e-05 5.49581e-07 0)
(2.03156e-05 6.38777e-07 0)
(2.00411e-05 7.26852e-07 0)
(1.97314e-05 8.13652e-07 0)
(1.93872e-05 8.99025e-07 0)
(1.90089e-05 9.8282e-07 0)
(1.85973e-05 1.06489e-06 0)
(1.81531e-05 1.1451e-06 0)
(1.76771e-05 1.22329e-06 0)
(1.717e-05 1.29934e-06 0)
(1.66328e-05 1.37311e-06 0)
(1.60665e-05 1.44447e-06 0)
(1.5472e-05 1.5133e-06 0)
(1.48503e-05 1.57948e-06 0)
(1.42026e-05 1.64288e-06 0)
(1.353e-05 1.70341e-06 0)
(1.28336e-05 1.76095e-06 0)
(1.21148e-05 1.81541e-06 0)
(1.13747e-05 1.86668e-06 0)
(1.06146e-05 1.91469e-06 0)
(9.8359e-06 1.95936e-06 0)
(9.03994e-06 2.00059e-06 0)
(8.22811e-06 2.03834e-06 0)
(7.40182e-06 2.07254e-06 0)
(6.5625e-06 2.10315e-06 0)
(5.71161e-06 2.13011e-06 0)
(4.85062e-06 2.15342e-06 0)
(3.98101e-06 2.17305e-06 0)
(3.10424e-06 2.18902e-06 0)
(2.22177e-06 2.20137e-06 0)
(1.33504e-06 2.21019e-06 0)
(4.454e-07 2.21554e-06 0)
(-4.47748e-07 3.10869e-06 0)
(-1.34215e-06 3.1011e-06 0)
(-2.23374e-06 3.0886e-06 0)
(-3.1211e-06 3.07116e-06 0)
(-4.00276e-06 3.04866e-06 0)
(-4.87724e-06 3.02104e-06 0)
(-5.74304e-06 2.9883e-06 0)
(-6.59869e-06 2.95043e-06 0)
(-7.4427e-06 2.90747e-06 0)
(-8.27362e-06 2.85948e-06 0)
(-9.08999e-06 2.80651e-06 0)
(-9.89039e-06 2.74864e-06 0)
(-1.06734e-05 2.68598e-06 0)
(-1.14377e-05 2.61863e-06 0)
(-1.2182e-05 2.54669e-06 0)
(-1.29049e-05 2.47029e-06 0)
(-1.36051e-05 2.38957e-06 0)
(-1.42815e-05 2.30466e-06 0)
(-1.49328e-05 2.21571e-06 0)
(-1.55579e-05 2.12288e-06 0)
(-1.61557e-05 2.02632e-06 0)
(-1.67252e-05 1.92621e-06 0)
(-1.72654e-05 1.82273e-06 0)
(-1.77753e-05 1.71604e-06 0)
(-1.8254e-05 1.60635e-06 0)
(-1.87007e-05 1.49384e-06 0)
(-1.91146e-05 1.37871e-06 0)
(-1.9495e-05 1.26116e-06 0)
(-1.98411e-05 1.1414e-06 0)
(-2.01525e-05 1.01964e-06 0)
(-2.04285e-05 8.96083e-07 0)
(-2.06687e-05 7.70959e-07 0)
(-2.08727e-05 6.44482e-07 0)
(-2.104e-05 5.16874e-07 0)
(-2.11704e-05 3.88359e-07 0)
(-2.12637e-05 2.59162e-07 0)
(-2.13197e-05 1.2951e-07 0)
(-2.13383e-05 -3.69359e-10 0)
(-2.13195e-05 -1.30249e-07 0)
(-2.12633e-05 -2.599e-07 0)
(-2.11698e-05 -3.89097e-07 0)
(-2.10392e-05 -5.17611e-07 0)
(-2.08716e-05 -6.45218e-07 0)
(-2.06675e-05 -7.71693e-07 0)
(-2.04271e-05 -8.96816e-07 0)
(-2.01508e-05 -1.02037e-06 0)
(-1.98392e-05 -1.14213e-06 0)
(-1.94929e-05 -1.26188e-06 0)
(-1.91123e-05 -1.37943e-06 0)
(-1.86982e-05 -1.49456e-06 0)
(-1.82513e-05 -1.60706e-06 0)
(-1.77724e-05 -1.71675e-06 0)
(-1.72623e-05 -1.82342e-06 0)
(-1.67219e-05 -1.9269e-06 0)
(-1.61522e-05 -2.027e-06 0)
(-1.55542e-05 -2.12354e-06 0)
(-1.49289e-05 -2.21636e-06 0)
(-1.42774e-05 -2.30529e-06 0)
(-1.36008e-05 -2.39017e-06 0)
(-1.29004e-05 -2.47087e-06 0)
(-1.21774e-05 -2.54723e-06 0)
(-1.1433e-05 -2.61912e-06 0)
(-1.06685e-05 -2.68642e-06 0)
(-9.88538e-06 -2.749e-06 0)
(-9.08487e-06 -2.80677e-06 0)
(-8.26843e-06 -2.85961e-06 0)
(-7.43748e-06 -2.90743e-06 0)
(-6.59349e-06 -2.95016e-06 0)
(-5.73793e-06 -2.98771e-06 0)
(-4.87231e-06 -3.02002e-06 0)
(-3.99814e-06 -3.04703e-06 0)
(-3.11695e-06 -3.06869e-06 0)
(-2.2303e-06 -3.08497e-06 0)
(-1.33973e-06 -3.09585e-06 0)
(-4.46818e-07 -3.10129e-06 0)
(4.46882e-07 -3.10129e-06 0)
(1.3398e-06 -3.09584e-06 0)
(2.23036e-06 -3.08497e-06 0)
(3.11702e-06 -3.06869e-06 0)
(3.9982e-06 -3.04703e-06 0)
(4.87237e-06 -3.02002e-06 0)
(5.738e-06 -2.98771e-06 0)
(6.59356e-06 -2.95016e-06 0)
(7.43755e-06 -2.90743e-06 0)
(8.2685e-06 -2.85961e-06 0)
(9.08494e-06 -2.80677e-06 0)
(9.88544e-06 -2.74901e-06 0)
(1.06686e-05 -2.68642e-06 0)
(1.14331e-05 -2.61912e-06 0)
(1.21775e-05 -2.54723e-06 0)
(1.29005e-05 -2.47087e-06 0)
(1.36009e-05 -2.39018e-06 0)
(1.42774e-05 -2.30529e-06 0)
(1.49289e-05 -2.21636e-06 0)
(1.55543e-05 -2.12354e-06 0)
(1.61523e-05 -2.027e-06 0)
(1.6722e-05 -1.9269e-06 0)
(1.72624e-05 -1.82342e-06 0)
(1.77724e-05 -1.71675e-06 0)
(1.82514e-05 -1.60706e-06 0)
(1.86983e-05 -1.49456e-06 0)
(1.91124e-05 -1.37943e-06 0)
(1.94929e-05 -1.26189e-06 0)
(1.98393e-05 -1.14213e-06 0)
(2.01509e-05 -1.02037e-06 0)
(2.04271e-05 -8.9682e-07 0)
(2.06675e-05 -7.71698e-07 0)
(2.08717e-05 -6.45222e-07 0)
(2.10392e-05 -5.17616e-07 0)
(2.11699e-05 -3.89102e-07 0)
(2.12634e-05 -2.59906e-07 0)
(2.13196e-05 -1.30255e-07 0)
(2.13384e-05 -3.75761e-10 0)
(2.13198e-05 1.29503e-07 0)
(2.12638e-05 2.59155e-07 0)
(2.11705e-05 3.88351e-07 0)
(2.10401e-05 5.16866e-07 0)
(2.08728e-05 6.44473e-07 0)
(2.06688e-05 7.70949e-07 0)
(2.04286e-05 8.96073e-07 0)
(2.01526e-05 1.01962e-06 0)
(1.98412e-05 1.14139e-06 0)
(1.94951e-05 1.26115e-06 0)
(1.91147e-05 1.3787e-06 0)
(1.87008e-05 1.49382e-06 0)
(1.82541e-05 1.60633e-06 0)
(1.77754e-05 1.71602e-06 0)
(1.72656e-05 1.82271e-06 0)
(1.67254e-05 1.92619e-06 0)
(1.61559e-05 2.0263e-06 0)
(1.55581e-05 2.12285e-06 0)
(1.49329e-05 2.21568e-06 0)
(1.42816e-05 2.30463e-06 0)
(1.36053e-05 2.38953e-06 0)
(1.29051e-05 2.47025e-06 0)
(1.21822e-05 2.54664e-06 0)
(1.1438e-05 2.61857e-06 0)
(1.06737e-05 2.68592e-06 0)
(9.89064e-06 2.74857e-06 0)
(9.09026e-06 2.80642e-06 0)
(8.27391e-06 2.85937e-06 0)
(7.44301e-06 2.90735e-06 0)
(6.59903e-06 2.95027e-06 0)
(5.7434e-06 2.9881e-06 0)
(4.87762e-06 3.02079e-06 0)
(4.00316e-06 3.04834e-06 0)
(3.12151e-06 3.07075e-06 0)
(2.23413e-06 3.08809e-06 0)
(1.34246e-06 3.10046e-06 0)
(4.47873e-07 3.10794e-06 0)
(-4.51006e-07 4.00666e-06 0)
(-1.35188e-06 3.99698e-06 0)
(-2.24989e-06 3.98094e-06 0)
(-3.14362e-06 3.95851e-06 0)
(-4.03161e-06 3.92954e-06 0)
(-4.91236e-06 3.89397e-06 0)
(-5.78438e-06 3.85178e-06 0)
(-6.64617e-06 3.80298e-06 0)
(-7.49625e-06 3.74762e-06 0)
(-8.33313e-06 3.68576e-06 0)
(-9.15537e-06 3.61748e-06 0)
(-9.96152e-06 3.5429e-06 0)
(-1.07502e-05 3.46214e-06 0)
(-1.152e-05 3.37532e-06 0)
(-1.22696e-05 3.2826e-06 0)
(-1.29977e-05 3.18412e-06 0)
(-1.37029e-05 3.08007e-06 0)
(-1.43842e-05 2.97063e-06 0)
(-1.50402e-05 2.85598e-06 0)
(-1.56698e-05 2.73632e-06 0)
(-1.62719e-05 2.61186e-06 0)
(-1.68455e-05 2.48282e-06 0)
(-1.73896e-05 2.34943e-06 0)
(-1.79031e-05 2.21192e-06 0)
(-1.83853e-05 2.07053e-06 0)
(-1.88352e-05 1.92551e-06 0)
(-1.9252e-05 1.77711e-06 0)
(-1.96351e-05 1.62559e-06 0)
(-1.99838e-05 1.47123e-06 0)
(-2.02974e-05 1.31428e-06 0)
(-2.05754e-05 1.15502e-06 0)
(-2.08173e-05 9.93741e-07 0)
(-2.10228e-05 8.30717e-07 0)
(-2.11913e-05 6.66234e-07 0)
(-2.13227e-05 5.00583e-07 0)
(-2.14166e-05 3.34052e-07 0)
(-2.1473e-05 1.66935e-07 0)
(-2.14918e-05 -4.75239e-10 0)
(-2.14728e-05 -1.67886e-07 0)
(-2.14162e-05 -3.35002e-07 0)
(-2.1322e-05 -5.01532e-07 0)
(-2.11904e-05 -6.67182e-07 0)
(-2.10217e-05 -8.31664e-07 0)
(-2.08161e-05 -9.94687e-07 0)
(-2.05739e-05 -1.15597e-06 0)
(-2.02957e-05 -1.31522e-06 0)
(-1.99819e-05 -1.47216e-06 0)
(-1.9633e-05 -1.62653e-06 0)
(-1.92497e-05 -1.77804e-06 0)
(-1.88326e-05 -1.92643e-06 0)
(-1.83825e-05 -2.07145e-06 0)
(-1.79002e-05 -2.21283e-06 0)
(-1.73864e-05 -2.35033e-06 0)
(-1.68422e-05 -2.48371e-06 0)
(-1.62684e-05 -2.61273e-06 0)
(-1.5666e-05 -2.73717e-06 0)
(-1.50362e-05 -2.85681e-06 0)
(-1.438e-05 -2.97144e-06 0)
(-1.36986e-05 -3.08086e-06 0)
(-1.29932e-05 -3.18487e-06 0)
(-1.2265e-05 -3.28329e-06 0)
(-1.15152e-05 -3.37596e-06 0)
(-1.07453e-05 -3.46271e-06 0)
(-9.95647e-06 -3.54338e-06 0)
(-9.1502e-06 -3.61783e-06 0)
(-8.32789e-06 -3.68594e-06 0)
(-7.49097e-06 -3.74759e-06 0)
(-6.64091e-06 -3.80266e-06 0)
(-5.77919e-06 -3.85106e-06 0)
(-4.90735e-06 -3.8927e-06 0)
(-4.02689e-06 -3.92752e-06 0)
(-3.13937e-06 -3.95544e-06 0)
(-2.24634e-06 -3.97643e-06 0)
(-1.34937e-06 -3.99044e-06 0)
(-4.50031e-07 -3.99746e-06 0)
(4.50096e-07 -3.99746e-06 0)
(1.34943e-06 -3.99044e-06 0)
(2.2464e-06 -3.97643e-06 0)
(3.13943e-06 -3.95544e-06 0)
(4.02695e-06 -3.92752e-06 0)
(4.90741e-06 -3.8927e-06 0)
(5.77926e-06 -3.85106e-06 0)
(6.64097e-06 -3.80266e-06 0)
(7.49103e-06 -3.74759e-06 0)
(8.32796e-06 -3.68594e-06 0)
(9.15027e-06 -3.61783e-06 0)
(9.95653e-06 -3.54338e-06 0)
(1.07453e-05 -3.46271e-06 0)
(1.15153e-05 -3.37596e-06 0)
(1.2265e-05 -3.2833e-06 0)
(1.29933e-05 -3.18487e-06 0)
(1.36987e-05 -3.08086e-06 0)
(1.43801e-05 -2.97144e-06 0)
(1.50363e-05 -2.85681e-06 0)
(1.56661e-05 -2.73718e-06 0)
(1.62684e-05 -2.61274e-06 0)
(1.68422e-05 -2.48371e-06 0)
(1.73865e-05 -2.35033e-06 0)
(1.79002e-05 -2.21283e-06 0)
(1.83826e-05 -2.07145e-06 0)
(1.88327e-05 -1.92644e-06 0)
(1.92498e-05 -1.77804e-06 0)
(1.96331e-05 -1.62653e-06 0)
(1.9982e-05 -1.47217e-06 0)
(2.02958e-05 -1.31522e-06 0)
(2.0574e-05 -1.15597e-06 0)
(2.08162e-05 -9.94692e-07 0)
(2.10218e-05 -8.31669e-07 0)
(2.11905e-05 -6.67189e-07 0)
(2.13221e-05 -5.01538e-07 0)
(2.14163e-05 -3.35009e-07 0)
(2.14729e-05 -1.67893e-07 0)
(2.14919e-05 -4.83343e-10 0)
(2.14731e-05 1.66927e-07 0)
(2.14167e-05 3.34043e-07 0)
(2.13228e-05 5.00573e-07 0)
(2.11914e-05 6.66224e-07 0)
(2.10229e-05 8.30705e-07 0)
(2.08174e-05 9.93729e-07 0)
(2.05755e-05 1.15501e-06 0)
(2.02975e-05 1.31426e-06 0)
(1.99839e-05 1.47121e-06 0)
(1.96352e-05 1.62558e-06 0)
(1.92521e-05 1.77709e-06 0)
(1.88353e-05 1.92549e-06 0)
(1.83854e-05 2.07051e-06 0)
(1.79032e-05 2.2119e-06 0)
(1.73897e-05 2.34941e-06 0)
(1.68456e-05 2.4828e-06 0)
(1.62721e-05 2.61183e-06 0)
(1.56699e-05 2.73628e-06 0)
(1.50403e-05 2.85594e-06 0)
(1.43843e-05 2.97059e-06 0)
(1.37031e-05 3.08003e-06 0)
(1.29978e-05 3.18407e-06 0)
(1.22698e-05 3.28254e-06 0)
(1.15202e-05 3.37525e-06 0)
(1.07504e-05 3.46206e-06 0)
(9.96176e-06 3.54281e-06 0)
(9.15562e-06 3.61738e-06 0)
(8.3334e-06 3.68563e-06 0)
(7.49653e-06 3.74747e-06 0)
(6.64647e-06 3.8028e-06 0)
(5.7847e-06 3.85156e-06 0)
(4.91269e-06 3.8937e-06 0)
(4.03194e-06 3.92921e-06 0)
(3.14394e-06 3.95811e-06 0)
(2.25018e-06 3.98046e-06 0)
(1.3521e-06 3.99641e-06 0)
(4.51089e-07 4.00602e-06 0)
(-4.55012e-07 4.91183e-06 0)
(-1.36387e-06 4.90002e-06 0)
(-2.26981e-06 4.88042e-06 0)
(-3.17143e-06 4.85295e-06 0)
(-4.06724e-06 4.81746e-06 0)
(-4.95576e-06 4.77388e-06 0)
(-5.83546e-06 4.72216e-06 0)
(-6.70485e-06 4.66235e-06 0)
(-7.56242e-06 4.59448e-06 0)
(-8.40668e-06 4.51864e-06 0)
(-9.23617e-06 4.43494e-06 0)
(-1.00494e-05 4.34352e-06 0)
(-1.08451e-05 4.2445e-06 0)
(-1.16217e-05 4.13806e-06 0)
(-1.23779e-05 4.02439e-06 0)
(-1.31124e-05 3.90367e-06 0)
(-1.38238e-05 3.7761e-06 0)
(-1.45111e-05 3.64193e-06 0)
(-1.51729e-05 3.50137e-06 0)
(-1.5808e-05 3.35467e-06 0)
(-1.64155e-05 3.20209e-06 0)
(-1.69942e-05 3.04389e-06 0)
(-1.7543e-05 2.88036e-06 0)
(-1.80611e-05 2.71177e-06 0)
(-1.85475e-05 2.53843e-06 0)
(-1.90014e-05 2.36064e-06 0)
(-1.94219e-05 2.1787e-06 0)
(-1.98084e-05 1.99295e-06 0)
(-2.01601e-05 1.80369e-06 0)
(-2.04765e-05 1.61128e-06 0)
(-2.0757e-05 1.41603e-06 0)
(-2.1001e-05 1.21831e-06 0)
(-2.12083e-05 1.01844e-06 0)
(-2.13783e-05 8.16791e-07 0)
(-2.15108e-05 6.13705e-07 0)
(-2.16056e-05 4.09543e-07 0)
(-2.16625e-05 2.04661e-07 0)
(-2.16814e-05 -5.81211e-10 0)
(-2.16623e-05 -2.05823e-07 0)
(-2.16052e-05 -4.10704e-07 0)
(-2.15102e-05 -6.14866e-07 0)
(-2.13775e-05 -8.17951e-07 0)
(-2.12072e-05 -1.0196e-06 0)
(-2.09998e-05 -1.21946e-06 0)
(-2.07555e-05 -1.41719e-06 0)
(-2.04748e-05 -1.61243e-06 0)
(-2.01582e-05 -1.80484e-06 0)
(-1.98063e-05 -1.99409e-06 0)
(-1.94196e-05 -2.17984e-06 0)
(-1.89988e-05 -2.36177e-06 0)
(-1.85448e-05 -2.53955e-06 0)
(-1.80581e-05 -2.71288e-06 0)
(-1.75399e-05 -2.88146e-06 0)
(-1.69908e-05 -3.04498e-06 0)
(-1.64119e-05 -3.20316e-06 0)
(-1.58043e-05 -3.35572e-06 0)
(-1.51689e-05 -3.50239e-06 0)
(-1.4507e-05 -3.64292e-06 0)
(-1.38195e-05 -3.77707e-06 0)
(-1.31079e-05 -3.90458e-06 0)
(-1.23732e-05 -4.02525e-06 0)
(-1.16168e-05 -4.13886e-06 0)
(-1.08401e-05 -4.24521e-06 0)
(-1.00443e-05 -4.34411e-06 0)
(-9.23096e-06 -4.43539e-06 0)
(-8.40139e-06 -4.51889e-06 0)
(-7.55708e-06 -4.59447e-06 0)
(-6.69952e-06 -4.66198e-06 0)
(-5.8302e-06 -4.72132e-06 0)
(-4.95066e-06 -4.77237e-06 0)
(-4.06243e-06 -4.81506e-06 0)
(-3.16707e-06 -4.84929e-06 0)
(-2.26616e-06 -4.87502e-06 0)
(-1.36128e-06 -4.8922e-06 0)
(-4.54003e-07 -4.9008e-06 0)
(4.54068e-07 -4.9008e-06 0)
(1.36134e-06 -4.8922e-06 0)
(2.26623e-06 -4.87502e-06 0)
(3.16714e-06 -4.84929e-06 0)
(4.06249e-06 -4.81506e-06 0)
(4.95072e-06 -4.77237e-06 0)
(5.83027e-06 -4.72132e-06 0)
(6.69958e-06 -4.66198e-06 0)
(7.55715e-06 -4.59447e-06 0)
(8.40145e-06 -4.51889e-06 0)
(9.23103e-06 -4.43539e-06 0)
(1.00444e-05 -4.34411e-06 0)
(1.08402e-05 -4.24521e-06 0)
(1.16169e-05 -4.13886e-06 0)
(1.23733e-05 -4.02525e-06 0)
(1.31079e-05 -3.90459e-06 0)
(1.38196e-05 -3.77707e-06 0)
(1.4507e-05 -3.64293e-06 0)
(1.5169e-05 -3.5024e-06 0)
(1.58044e-05 -3.35572e-06 0)
(1.6412e-05 -3.20316e-06 0)
(1.69909e-05 -3.04498e-06 0)
(1.75399e-05 -2.88146e-06 0)
(1.80582e-05 -2.71289e-06 0)
(1.85448e-05 -2.53956e-06 0)
(1.89989e-05 -2.36177e-06 0)
(1.94197e-05 -2.17984e-06 0)
(1.98064e-05 -1.99409e-06 0)
(2.01583e-05 -1.80485e-06 0)
(2.04749e-05 -1.61243e-06 0)
(2.07556e-05 -1.4172e-06 0)
(2.09999e-05 -1.21947e-06 0)
(2.12073e-05 -1.01961e-06 0)
(2.13775e-05 -8.17958e-07 0)
(2.15103e-05 -6.14874e-07 0)
(2.16053e-05 -4.10713e-07 0)
(2.16624e-05 -2.05832e-07 0)
(2.16815e-05 -5.9101e-10 0)
(2.16626e-05 2.0465e-07 0)
(2.16057e-05 4.09531e-07 0)
(2.15109e-05 6.13693e-07 0)
(2.13784e-05 8.16778e-07 0)
(2.12084e-05 1.01843e-06 0)
(2.10011e-05 1.21829e-06 0)
(2.07571e-05 1.41602e-06 0)
(2.04766e-05 1.61126e-06 0)
(2.01602e-05 1.80368e-06 0)
(1.98085e-05 1.99293e-06 0)
(1.9422e-05 2.17868e-06 0)
(1.90015e-05 2.36061e-06 0)
(1.85476e-05 2.5384e-06 0)
(1.80612e-05 2.71174e-06 0)
(1.75431e-05 2.88033e-06 0)
(1.69943e-05 3.04386e-06 0)
(1.64156e-05 3.20205e-06 0)
(1.58082e-05 3.35463e-06 0)
(1.5173e-05 3.50132e-06 0)
(1.45112e-05 3.64188e-06 0)
(1.3824e-05 3.77605e-06 0)
(1.31125e-05 3.9036e-06 0)
(1.23781e-05 4.02432e-06 0)
(1.16219e-05 4.13799e-06 0)
(1.08453e-05 4.24441e-06 0)
(1.00497e-05 4.34341e-06 0)
(9.2364e-06 4.43483e-06 0)
(8.40693e-06 4.5185e-06 0)
(7.56268e-06 4.59432e-06 0)
(6.70512e-06 4.66215e-06 0)
(5.83574e-06 4.72193e-06 0)
(4.95604e-06 4.7736e-06 0)
(4.06751e-06 4.81714e-06 0)
(3.17168e-06 4.85256e-06 0)
(2.27003e-06 4.87997e-06 0)
(1.36403e-06 4.89952e-06 0)
(4.55068e-07 4.91128e-06 0)
(-4.59784e-07 5.82574e-06 0)
(-1.37817e-06 5.81177e-06 0)
(-2.29358e-06 5.78855e-06 0)
(-3.20462e-06 5.756e-06 0)
(-4.1098e-06 5.71393e-06 0)
(-5.0076e-06 5.66225e-06 0)
(-5.8965e-06 5.60093e-06 0)
(-6.77497e-06 5.52999e-06 0)
(-7.64149e-06 5.4495e-06 0)
(-8.49458e-06 5.35955e-06 0)
(-9.33273e-06 5.26028e-06 0)
(-1.01545e-05 5.15184e-06 0)
(-1.09584e-05 5.0344e-06 0)
(-1.17431e-05 4.90816e-06 0)
(-1.25073e-05 4.77333e-06 0)
(-1.32494e-05 4.63014e-06 0)
(-1.39683e-05 4.47884e-06 0)
(-1.46628e-05 4.31969e-06 0)
(-1.53315e-05 4.15298e-06 0)
(-1.59733e-05 3.97898e-06 0)
(-1.65871e-05 3.798e-06 0)
(-1.71718e-05 3.61036e-06 0)
(-1.77264e-05 3.4164e-06 0)
(-1.82499e-05 3.21644e-06 0)
(-1.87414e-05 3.01084e-06 0)
(-1.92e-05 2.79996e-06 0)
(-1.96249e-05 2.58416e-06 0)
(-2.00155e-05 2.36384e-06 0)
(-2.03709e-05 2.13937e-06 0)
(-2.06906e-05 1.91114e-06 0)
(-2.0974e-05 1.67956e-06 0)
(-2.12206e-05 1.44504e-06 0)
(-2.143e-05 1.20798e-06 0)
(-2.16018e-05 9.68799e-07 0)
(-2.17357e-05 7.27919e-07 0)
(-2.18315e-05 4.85761e-07 0)
(-2.1889e-05 2.4275e-07 0)
(-2.19081e-05 -6.87255e-10 0)
(-2.18888e-05 -2.44125e-07 0)
(-2.18311e-05 -4.87135e-07 0)
(-2.1735e-05 -7.29292e-07 0)
(-2.16009e-05 -9.70171e-07 0)
(-2.14289e-05 -1.20935e-06 0)
(-2.12193e-05 -1.44641e-06 0)
(-2.09725e-05 -1.68093e-06 0)
(-2.06889e-05 -1.9125e-06 0)
(-2.0369e-05 -2.14072e-06 0)
(-2.00133e-05 -2.36519e-06 0)
(-1.96226e-05 -2.58551e-06 0)
(-1.91975e-05 -2.80129e-06 0)
(-1.87386e-05 -3.01217e-06 0)
(-1.82469e-05 -3.21776e-06 0)
(-1.77232e-05 -3.4177e-06 0)
(-1.71684e-05 -3.61165e-06 0)
(-1.65835e-05 -3.79927e-06 0)
(-1.59695e-05 -3.98022e-06 0)
(-1.53275e-05 -4.15419e-06 0)
(-1.46586e-05 -4.32088e-06 0)
(-1.3964e-05 -4.47999e-06 0)
(-1.32449e-05 -4.63124e-06 0)
(-1.25026e-05 -4.77436e-06 0)
(-1.17383e-05 -4.90911e-06 0)
(-1.09534e-05 -5.03525e-06 0)
(-1.01493e-05 -5.15256e-06 0)
(-9.32746e-06 -5.26083e-06 0)
(-8.48922e-06 -5.35987e-06 0)
(-7.63609e-06 -5.44951e-06 0)
(-6.76956e-06 -5.52959e-06 0)
(-5.89115e-06 -5.59997e-06 0)
(-5.00241e-06 -5.66052e-06 0)
(-4.1049e-06 -5.71115e-06 0)
(-3.20018e-06 -5.75176e-06 0)
(-2.28985e-06 -5.78228e-06 0)
(-1.37551e-06 -5.80265e-06 0)
(-4.5875e-07 -5.81285e-06 0)
(4.58815e-07 -5.81285e-06 0)
(1.37557e-06 -5.80265e-06 0)
(2.28992e-06 -5.78228e-06 0)
(3.20025e-06 -5.75176e-06 0)
(4.10496e-06 -5.71115e-06 0)
(5.00248e-06 -5.66052e-06 0)
(5.89122e-06 -5.59997e-06 0)
(6.76962e-06 -5.52959e-06 0)
(7.63615e-06 -5.44951e-06 0)
(8.48929e-06 -5.35987e-06 0)
(9.32753e-06 -5.26083e-06 0)
(1.01494e-05 -5.15256e-06 0)
(1.09535e-05 -5.03525e-06 0)
(1.17384e-05 -4.90911e-06 0)
(1.25026e-05 -4.77436e-06 0)
(1.3245e-05 -4.63124e-06 0)
(1.39641e-05 -4.47999e-06 0)
(1.46587e-05 -4.32088e-06 0)
(1.53276e-05 -4.1542e-06 0)
(1.59696e-05 -3.98023e-06 0)
(1.65836e-05 -3.79927e-06 0)
(1.71685e-05 -3.61166e-06 0)
(1.77233e-05 -3.41771e-06 0)
(1.8247e-05 -3.21776e-06 0)
(1.87387e-05 -3.01217e-06 0)
(1.91975e-05 -2.8013e-06 0)
(1.96227e-05 -2.58552e-06 0)
(2.00134e-05 -2.3652e-06 0)
(2.0369e-05 -2.14073e-06 0)
(2.06889e-05 -1.91251e-06 0)
(2.09726e-05 -1.68094e-06 0)
(2.12194e-05 -1.44641e-06 0)
(2.1429e-05 -1.20936e-06 0)
(2.1601e-05 -9.7018e-07 0)