/*--------------------------------*- C++ -*----------------------------------*\
| =========                 |                                                 |
| \\      /  F ield         | OpenFOAM: The Open Source CFD Toolbox           |
|  \\    /   O peration     | Version:  2106                                  |
|   \\  /    A nd           | Website:  www.openfoam.com                      |
|    \\/     M anipulation  |                                                 |
\*---------------------------------------------------------------------------*/
FoamFile
{
    version     2.0;
    format      ascii;
    arch        "LSB;label=32;scalar=64";
    class       volScalarField;
    location    "0.04";
    object      p_rgh;
}
// * * * * * * * * * * * * * * * * * * * * * * * * * * * * * * * * * * * * * //

dimensions      [1 -1 -2 0 0 0 0];

internalField   nonuniform List<scalar> 
16384
(
3.6670315
3.6581956
3.6405451
3.6141226
3.5789916
3.5352368
3.4829636
3.422298
3.3533861
3.2763939
3.1915069
3.0989297
2.9988854
2.8916149
2.7773768
2.6564463
2.529115
2.3956896
2.2564918
2.1118569
1.9621337
1.807683
1.648877
1.4860985
1.3197399
1.1502023
0.97789417
0.80323097
0.62663369
0.448528
0.26934299
0.08951077
-0.090535085
-0.2703609
-0.44953333
-0.62762056
-0.80419346
-0.97882659
-1.1510992
-1.3205964
-1.4869097
-1.6496387
-1.8083915
-1.9627857
-2.1124497
-2.257023
-2.3961578
-2.5295192
-2.6567861
-2.7776523
-2.8918271
-2.9990357
-3.0990203
-3.1915404
-3.2763735
-3.3533156
-3.4221816
-3.482806
-3.5350431
-3.5787672
-3.6138733
-3.640277
-3.6579148
-3.6667443
-3.6667443
-3.6579148
-3.640277
-3.6138733
-3.5787672
-3.5350431
-3.482806
-3.4221816
-3.3533156
-3.2763735
-3.1915404
-3.0990203
-2.9990357
-2.8918271
-2.7776523
-2.6567861
-2.5295192
-2.3961578
-2.257023
-2.1124497
-1.9627857
-1.8083915
-1.6496387
-1.4869097
-1.3205964
-1.1510992
-0.97882659
-0.80419346
-0.62762056
-0.44953333
-0.2703609
-0.090535085
0.08951077
0.26934299
0.448528
0.62663369
0.80323097
0.97789417
1.1502023
1.3197399
1.4860985
1.648877
1.807683
1.9621337
2.1118569
2.2564918
2.3956896
2.529115
2.6564463
2.7773768
2.8916149
2.9988854
3.0989297
3.1915069
3.2763939
3.3533861
3.422298
3.4829636
3.5352368
3.5789916
3.6141226
3.6405451
3.6581956
3.6670315
3.6761469
3.6672892
3.6495951
3.6231072
3.5878894
3.5440264
3.491624
3.4308084
3.361726
3.2845433
3.1994463
3.10664
3.0063479
2.8988118
2.7842907
2.6630606
2.5354137
2.4016575
2.2621145
2.1171208
1.967026
1.8121918
1.6529914
1.4898085
1.3230365
1.1530774
0.98034075
0.80524303
0.62820626
0.44965717
0.27002603
0.089745952
-0.090748532
-0.27102259
-0.4506417
-0.62917302
-0.80618634
-0.98125517
-1.1539577
-1.3238779
-1.4906065
-1.6537418
-1.8128911
-1.967671
-2.1177089
-2.2626435
-2.402126
-2.5358207
-2.6634058
-2.7845742
-2.8990345
-3.0065112
-3.1067459
-3.1994974
-3.2845427
-3.3616772
-3.4307155
-3.4914916
-3.5438593
-3.5876929
-3.6228868
-3.6493565
-3.6670385
-3.67589
-3.67589
-3.6670385
-3.6493565
-3.6228868
-3.5876929
-3.5438593
-3.4914916
-3.4307155
-3.3616772
-3.2845427
-3.1994974
-3.1067459
-3.0065112
-2.8990345
-2.7845742
-2.6634058
-2.5358207
-2.402126
-2.2626435
-2.1177089
-1.967671
-1.8128911
-1.6537418
-1.4906065
-1.3238779
-1.1539577
-0.98125517
-0.80618634
-0.62917302
-0.4506417
-0.27102259
-0.090748532
0.089745952
0.27002603
0.44965717
0.62820626
0.80524303
0.98034075
1.1530774
1.3230365
1.4898085
1.6529914
1.8121918
1.967026
2.1171208
2.2621145
2.4016575
2.5354137
2.6630606
2.7842907
2.8988118
3.0063479
3.10664
3.1994463
3.2845433
3.361726
3.4308084
3.491624
3.5440264
3.5878894
3.6231072
3.6495951
3.6672892
3.6761469
3.6940462
3.6851454
3.6673654
3.6407489
3.6053601
3.5612841
3.5086272
3.4475162
3.3780983
3.3005407
3.2150302
3.1217729
3.0209934
2.9129346
2.7978568
2.6760373
2.5477697
2.4133629
2.273141
2.1274419
1.9766166
1.8210288
1.6610534
1.497076
1.3294919
1.1587049
0.98512686
0.80917601
0.63127654
0.45185724
0.27135055
0.090191601
-0.091182976
-0.27233611
-0.45283119
-0.63223327
-0.81011003
-0.98603289
-1.159578
-1.3303272
-1.4978693
-1.6618007
-1.8217265
-1.9772618
-2.1280319
-2.2736738
-2.4138371
-2.5481842
-2.676392
-2.7981518
-2.9131706
-3.0211719
-3.1218958
-3.2151
-3.3005603
-3.3780713
-3.4474465
-3.5085192
-3.5611425
-3.60519
-3.6405557
-3.6671546
-3.6849228
-3.6938176
-3.6938176
-3.6849228
-3.6671546
-3.6405557
-3.60519
-3.5611425
-3.5085192
-3.4474465
-3.3780713
-3.3005603
-3.2151
-3.1218958
-3.0211719
-2.9131706
-2.7981518
-2.676392
-2.5481842
-2.4138371
-2.2736738
-2.1280319
-1.9772618
-1.8217265
-1.6618007
-1.4978693
-1.3303272
-1.159578
-0.98603289
-0.81011003
-0.63223327
-0.45283119
-0.27233611
-0.091182976
0.090191601
0.27135055
0.45185724
0.63127654
0.80917601
0.98512686
1.1587049
1.3294919
1.497076
1.6610534
1.8210288
1.9766166
2.1274419
2.273141
2.4133629
2.5477697
2.6760373
2.7978568
2.9129346
3.0209934
3.1217729
3.2150302
3.3005407
3.3780983
3.4475162
3.5086272
3.5612841
3.6053601
3.6407489
3.6673654
3.6851454
3.6940462
3.7208061
3.711841
3.6939325
3.6671236
3.6314789
3.5870842
3.5340465
3.4724936
3.4025736
3.3244551
3.2383261
3.1443942
3.0428856
2.9340449
2.8181344
2.6954332
2.5662371
2.4308573
2.2896201
2.1428659
1.9909484
1.8342336
1.6730993
1.5079339
1.3391354
1.1671107
0.99227458
0.81504832
0.63585917
0.45513903
0.27332353
0.090850896
-0.091839051
-0.27430602
-0.45611026
-0.63681363
-0.81598068
-0.9931797
-1.1679838
-1.3399717
-1.5087292
-1.6738499
-1.834936
-1.9915996
-2.1434634
-2.290162
-2.431342
-2.5666638
-2.6958015
-2.8184446
-2.9342978
-3.0430824
-3.1445369
-3.2384171
-3.3244972
-3.4025703
-3.4724487
-3.5339643
-3.5869693
-3.6313361
-3.6669583
-3.6937501
-3.7116471
-3.7206064
-3.7206064
-3.7116471
-3.6937501
-3.6669583
-3.6313361
-3.5869693
-3.5339643
-3.4724487
-3.4025703
-3.3244972
-3.2384171
-3.1445369
-3.0430824
-2.9342978
-2.8184446
-2.6958015
-2.5666638
-2.431342
-2.290162
-2.1434634
-1.9915996
-1.834936
-1.6738499
-1.5087292
-1.3399717
-1.1679838
-0.9931797
-0.81598068
-0.63681363
-0.45611026
-0.27430602
-0.091839051
0.090850896
0.27332353
0.45513903
0.63585917
0.81504832
0.99227458
1.1671107
1.3391354
1.5079339
1.6730993
1.8342336
1.9909484
2.1428659
2.2896201
2.4308573
2.5662371
2.6954332
2.8181344
2.9340449
3.0428856
3.1443942
3.2383261
3.3244551
3.4025736
3.4724936
3.5340465
3.5870842
3.6314789
3.6671236
3.6939325
3.711841
3.7208061
3.7565175
3.7474666
3.7293864
3.7023206
3.6663344
3.6215143
3.5679684
3.5058255
3.4352355
3.3563681
3.2694135
3.1745811
3.0720993
2.962215
2.8451929
2.7213149
2.5908795
2.4542011
2.3116088
2.1634465
2.010071
1.8518522
1.6891712
1.5224202
1.3520011
1.1783246
1.0018095
0.8228812
0.64197098
0.45951494
0.27595287
0.091727237
-0.092717913
-0.27693803
-0.46048913
-0.64292884
-0.82381753
-1.0027193
-1.1792031
-1.3528438
-1.523223
-1.6899304
-1.8525644
-2.0107333
-2.1640564
-2.3121645
-2.4547011
-2.591323
-2.7217014
-2.8455227
-2.9624888
-3.0723185
-3.1747475
-3.2695294
-3.3564364
-3.4352593
-3.5058088
-3.5679152
-3.6214292
-3.6662221
-3.7021864
-3.7292355
-3.7473044
-3.7563497
-3.7563497
-3.7473044
-3.7292355
-3.7021864
-3.6662221
-3.6214292
-3.5679152
-3.5058088
-3.4352593
-3.3564364
-3.2695294
-3.1747475
-3.0723185
-2.9624888
-2.8455227
-2.7217014
-2.591323
-2.4547011
-2.3121645
-2.1640564
-2.0107333
-1.8525644
-1.6899304
-1.523223
-1.3528438
-1.1792031
-1.0027193
-0.82381753
-0.64292884
-0.46048913
-0.27693803
-0.092717913
0.091727237
0.27595287
0.45951494
0.64197098
0.8228812
1.0018095
1.1783246
1.3520011
1.5224202
1.6891712
1.8518522
2.010071
2.1634465
2.3116088
2.4542011
2.5908795
2.7213149
2.8451929
2.962215
3.0720993
3.1745811
3.2694135
3.3563681
3.4352355
3.5058255
3.5679684
3.6215143
3.6663344
3.7023206
3.7293864
3.7474666
3.7565175
3.8012666
3.792108
3.7738128
3.7464251
3.7100108
3.6646576
3.6104747
3.5475926
3.4761627
3.396357
3.3083677
3.2124067
3.1087053
2.997513
2.8790979
2.7537452
2.6217568
2.4834508
2.3391604
2.1892334
2.034031
1.8739273
1.709308
1.5405701
1.3681202
1.1923739
1.0137549
0.83269373
0.64962689
0.46499564
0.27924503
0.092822822
-0.093821636
-0.28023847
-0.46597838
-0.65059371
-0.83363956
-1.0146748
-1.1932633
-1.3689747
-1.5413857
-1.7100811
-1.8746544
-2.0347095
-2.1898608
-2.3397348
-2.4839708
-2.6222216
-2.7541543
-2.8794517
-2.9978122
-3.108951
-3.2126008
-3.3085124
-3.3964551
-3.4762175
-3.5476077
-3.6104542
-3.6646058
-3.7099325
-3.7463253
-3.7736967
-3.7919809
-3.801134
-3.801134
-3.7919809
-3.7736967
-3.7463253
-3.7099325
-3.6646058
-3.6104542
-3.5476077
-3.4762175
-3.3964551
-3.3085124
-3.2126008
-3.108951
-2.9978122
-2.8794517
-2.7541543
-2.6222216
-2.4839708
-2.3397348
-2.1898608
-2.0347095
-1.8746544
-1.7100811
-1.5413857
-1.3689747
-1.1932633
-1.0146748
-0.83363956
-0.65059371
-0.46597838
-0.28023847
-0.093821637
0.092822822
0.27924503
0.46499564
0.64962689
0.83269373
1.0137549
1.1923739
1.3681202
1.5405701
1.709308
1.8739273
2.034031
2.1892334
2.3391604
2.4834508
2.6217568
2.7537452
2.8790979
2.997513
3.1087053
3.2124067
3.3083677
3.396357
3.4761627
3.5475926
3.6104747
3.6646576
3.7100108
3.7464251
3.7738128
3.792108
3.8012666
3.8551591
3.8458709
3.8273167
3.7995412
3.7626113
3.716616
3.6616659
3.5978934
3.525452
3.4445161
3.3552806
3.2579605
3.15279
3.0400225
2.9199297
2.7928007
2.6589419
2.5186757
2.3723402
2.2202878
2.062885
1.9005112
1.7335576
1.5624267
1.3875309
1.2092918
1.028139
0.84450916
0.65884502
0.4715941
0.28320779
0.094140206
-0.095152893
-0.28421523
-0.4725911
-0.65982648
-0.84547013
-1.0290747
-1.2101977
-1.3884027
-1.5632605
-1.7343499
-1.9012586
-2.0635849
-2.2209377
-2.3729383
-2.5192207
-2.6594328
-2.7932373
-2.920312
-3.0403514
-3.1530666
-3.2581865
-3.3554583
-3.4446482
-3.5255416
-3.5979442
-3.6616818
-3.7166012
-3.7625706
-3.7994793
-3.8272387
-3.8457822
-3.855065
-3.855065
-3.8457822
-3.8272387
-3.7994793
-3.7625706
-3.7166012
-3.6616818
-3.5979442
-3.5255416
-3.4446482
-3.3554583
-3.2581865
-3.1530666
-3.0403514
-2.920312
-2.7932373
-2.6594328
-2.5192207
-2.3729383
-2.2209377
-2.0635849
-1.9012586
-1.7343499
-1.5632605
-1.3884027
-1.2101977
-1.0290747
-0.84547013
-0.65982648
-0.4725911
-0.28421523
-0.095152893
0.094140206
0.28320779
0.4715941
0.65884502
0.84450916
1.028139
1.2092918
1.3875309
1.5624267
1.7335576
1.9005112
2.062885
2.2202878
2.3723402
2.5186757
2.6589419
2.7928007
2.9199297
3.0400225
3.15279
3.2579605
3.3552806
3.4445161
3.525452
3.5978934
3.6616659
3.716616
3.7626113
3.7995412
3.8273167
3.8458709
3.8551591
3.9183242
3.908884
3.8900262
3.8617963
3.8242622
3.7775142
3.7216649
3.6568488
3.5832218
3.5009612
3.410265
3.3113517
3.2044595
3.0898457
2.9677863
2.8385755
2.7025243
2.5599606
2.4112279
2.2566844
2.0967026
1.931668
1.7619784
1.5880426
1.4102801
1.2291191
1.0449964
0.85835597
0.66964759
0.47932623
0.28785069
0.095682565
-0.096714892
-0.28887789
-0.48034324
-0.67064942
-0.85933778
-1.0459536
-1.2300471
-1.4111748
-1.5889002
-1.7627953
-1.9324411
-2.0974291
-2.257362
-2.4118548
-2.5605355
-2.7030463
-2.8390442
-2.9682019
-3.0902088
-3.2047714
-3.3116141
-3.41048
-3.5011313
-3.5833503
-3.6569391
-3.721721
-3.7775402
-3.8242627
-3.861776
-3.8899902
-3.9088374
-3.9182723
-3.9182723
-3.9088374
-3.8899902
-3.861776
-3.8242627
-3.7775402
-3.721721
-3.6569391
-3.5833503
-3.5011313
-3.41048
-3.3116141
-3.2047714
-3.0902088
-2.9682019
-2.8390442
-2.7030463
-2.5605355
-2.4118548
-2.257362
-2.0974291
-1.9324411
-1.7627953
-1.5889002
-1.4111748
-1.2300471
-1.0459536
-0.85933778
-0.67064942
-0.48034324
-0.28887789
-0.096714892
0.095682565
0.28785069
0.47932623
0.66964759
0.85835597
1.0449964
1.2291191
1.4102801
1.5880426
1.7619784
1.931668
2.0967026
2.2566844
2.4112279
2.5599606
2.7025243
2.8385755
2.9677863
3.0898457
3.2044595
3.3113517
3.410265
3.5009612
3.5832218
3.6568488
3.7216649
3.7775142
3.8242622
3.8617963
3.8900262
3.908884
3.9183242
3.9909138
3.9812989
3.9620922
3.93334
3.8951115
3.8474986
3.7906159
3.7246004
3.6496109
3.5658279
3.4734532
3.372709
3.2638381
3.1471024
3.0227831
2.8911797
2.752609
2.607405
2.4559173
2.298511
2.1355653
1.9674729
1.7946388
1.6174797
1.4364226
1.2519037
1.0643681
0.87426762
0.68206072
0.48821072
0.29318496
0.09745363
-0.09851141
-0.29423774
-0.48925353
-0.6830887
-0.87527603
-1.0653523
-1.2528595
-1.4373458
-1.6183666
-1.7954859
-1.9682771
-2.1363239
-2.2992217
-2.4565784
-2.608015
-2.7531672
-2.8916856
-3.0232369
-3.1475047
-3.26419
-3.3730123
-3.4737099
-3.5660406
-3.6497826
-3.7247346
-3.7907164
-3.8475695
-3.8951573
-3.9333654
-3.9621021
-3.9812984
-3.990908
-3.990908
-3.9812984
-3.9621021
-3.9333654
-3.8951573
-3.8475695
-3.7907164
-3.7247346
-3.6497826
-3.5660406
-3.4737099
-3.3730123
-3.26419
-3.1475047
-3.0232369
-2.8916856
-2.7531672
-2.608015
-2.4565784
-2.2992217
-2.1363239
-1.9682771
-1.7954859
-1.6183666
-1.4373458
-1.2528595
-1.0653523
-0.87527603
-0.6830887
-0.48925353
-0.29423774
-0.098511411
0.09745363
0.29318496
0.48821072
0.68206072
0.87426762
1.0643681
1.2519037
1.4364226
1.6174797
1.7946388
1.9674729
2.1355653
2.298511
2.4559173
2.607405
2.752609
2.8911797
3.0227831
3.1471024
3.2638381
3.372709
3.4734532
3.5658279
3.6496109
3.7246004
3.7906159
3.8474986
3.8951115
3.93334
3.9620922
3.9812989
3.9909138
4.0731021
4.0632895
4.0436878
4.0143443
3.9753295
3.9267373
3.8686847
3.8013112
3.724779
3.6392724
3.5449971
3.44218
3.3310686
3.2119305
3.0850525
2.9507401
2.8093167
2.6611231
2.5065162
2.3458684
2.1795668
2.0080121
1.8316178
1.650809
1.4660215
1.2777007
1.0863006
0.89228253
0.69611437
0.49826902
0.29922348
0.099457665
-0.1005468
-0.30030773
-0.49934353
-0.69717438
-0.89332341
-1.0873178
-1.2786901
-1.4669791
-1.651731
-1.8325008
-2.0088531
-2.1803631
-2.3466178
-2.5072168
-2.6617737
-2.8099164
-2.9512884
-3.0855496
-3.212377
-3.3314656
-3.4425291
-3.5453003
-3.6395323
-3.7249986
-3.8014938
-3.868834
-3.9268575
-3.9754249
-4.0144196
-4.0437479
-4.0633392
-4.0731467
-4.0731467
-4.0633392
-4.0437479
-4.0144196
-3.975425
-3.9268575
-3.868834
-3.8014938
-3.7249986
-3.6395323
-3.5453003
-3.4425291
-3.3314656
-3.212377
-3.0855496
-2.9512884
-2.8099164
-2.6617737
-2.5072168
-2.3466178
-2.1803631
-2.0088531
-1.8325008
-1.651731
-1.4669791
-1.2786901
-1.0873178
-0.89332341
-0.69717438
-0.49934353
-0.30030773
-0.1005468
0.099457665
0.29922348
0.49826902
0.69611437
0.89228253
1.0863006
1.2777007
1.4660215
1.650809
1.8316178
2.0080121
2.1795668
2.3458684
2.5065162
2.6611231
2.8093167
2.9507401
3.0850525
3.2119305
3.3310686
3.44218
3.5449971
3.6392724
3.724779
3.8013112
3.8686847
3.9267373
3.9753295
4.0143443
4.0436878
4.0632895
4.0731021
4.1650866
4.1550527
4.135009
4.1050037
4.065109
4.0154208
3.9560587
3.8871654
3.8089068
3.7214711
3.6250688
3.5199317
3.4063129
3.2844861
3.1547443
3.0174
2.872784
2.7212445
2.5631464
2.3988708
2.2288132
2.0533836
1.8730046
1.6881109
1.4991483
1.3065722
1.1108469
0.91244419
0.71184247
0.5095254
0.30598081
0.10169948
-0.10282603
-0.30710258
-0.51063765
-0.71294054
-0.91352356
-1.1119032
-1.3076013
-1.5001462
-1.689074
-1.8739294
-2.0542672
-2.2296531
-2.3996646
-2.5638924
-2.7219413
-2.8734307
-3.0179963
-3.1552902
-3.2849821
-3.4067602
-3.5203318
-3.6254236
-3.7217833
-3.8091791
-3.8874012
-3.9562617
-4.015595
-4.0652587
-4.1051335
-4.1351237
-4.1551573
-4.1651861
-4.1651861
-4.1551573
-4.1351237
-4.1051335
-4.0652587
-4.015595
-3.9562617
-3.8874012
-3.8091792
-3.7217833
-3.6254236
-3.5203318
-3.4067602
-3.2849821
-3.1552902
-3.0179963
-2.8734307
-2.7219413
-2.5638924
-2.3996646
-2.2296531
-2.0542672
-1.8739294
-1.689074
-1.5001462
-1.3076013
-1.1119032
-0.91352356
-0.71294054
-0.51063765
-0.30710258
-0.10282603
0.10169948
0.30598081
0.5095254
0.71184247
0.91244419
1.1108469
1.3065722
1.4991483
1.6881109
1.8730046
2.0533836
2.2288132
2.3988708
2.5631464
2.7212445
2.872784
3.0174
3.1547443
3.2844861
3.4063129
3.5199317
3.6250688
3.7214711
3.8089068
3.8871654
3.9560587
4.0154208
4.065109
4.1050037
4.135009
4.1550527
4.1650866
4.2670882
4.2568089
4.236275
4.2055359
4.1646655
4.113762
4.052948
3.9823695
3.9021965
3.8126218
3.7138608
3.6061511
3.4897521
3.3649437
3.2320263
3.0913201
2.9431637
2.7879139
2.6259446
2.4576459
2.2834234
2.1036967
1.9188989
1.7294755
1.535883
1.338588
1.1380663
0.93480126
0.72928297
0.52200702
0.31347323
0.10418445
-0.10535464
-0.31463875
-0.52316325
-0.73042535
-0.93592535
-1.1391678
-1.3396629
-1.5369274
-1.7304858
-1.9198718
-2.1046291
-2.2843129
-2.4584902
-2.6267419
-2.7886629
-2.9438634
-3.0919701
-3.2326267
-3.3654949
-3.4902552
-3.6066077
-3.7142727
-3.8129915
-3.9025268
-3.9826637
-4.0532097
-4.1139952
-4.1648744
-4.2057251
-4.2364493
-4.2569731
-4.2672474
-4.2672474
-4.2569731
-4.2364493
-4.2057251
-4.1648744
-4.1139952
-4.0532097
-3.9826637
-3.9025268
-3.8129915
-3.7142727
-3.6066077
-3.4902552
-3.3654949
-3.2326267
-3.0919701
-2.9438634
-2.7886629
-2.6267419
-2.4584902
-2.2843129
-2.1046291
-1.9198718
-1.7304858
-1.5369274
-1.3396629
-1.1391678
-0.93592535
-0.73042535
-0.52316325
-0.31463875
-0.10535464
0.10418445
0.31347323
0.52200702
0.72928297
0.93480126
1.1380663
1.338588
1.535883
1.7294755
1.9188989
2.1036967
2.2834234
2.4576459
2.6259446
2.7879139
2.9431637
3.0913201
3.2320263
3.3649437
3.4897521
3.6061511
3.7138608
3.8126218
3.9021965
3.9823695
4.052948
4.113762
4.1646655
4.2055359
4.236275
4.2568089
4.2670882
4.3793518
4.3688025
4.3477291
4.3161824
4.2742382
4.2219973
4.1595853
4.0871523
4.0048724
3.9129435
3.8115867
3.7010458
3.5815867
3.4534969
3.3170847
3.1726783
3.0206254
2.861292
2.695062
2.5223355
2.3435289
2.1590727
1.9694115
1.7750025
1.5763141
1.3738254
1.1680245
0.9594077
0.74847797
0.53574398
0.32171877
0.1069185
-0.10813882
-0.32293455
-0.53695068
-0.74967115
-0.96058303
-1.1691778
-1.3749526
-1.5774115
-1.7760665
-1.9704389
-2.1600605
-2.3444745
-2.5232368
-2.695917
-2.8620995
-3.0213843
-3.1733883
-3.3177457
-3.4541095
-3.5821517
-3.7015647
-3.8120614
-3.9133764
-4.0052663
-4.0875104
-4.1599112
-4.2222949
-4.2745117
-4.3164363
-4.3479682
-4.3690315
-4.3795759
-4.3795759
-4.3690315
-4.3479682
-4.3164363
-4.2745117
-4.2222949
-4.1599112
-4.0875104
-4.0052663
-3.9133764
-3.8120614
-3.7015647
-3.5821517
-3.4541095
-3.3177457
-3.1733883
-3.0213843
-2.8620995
-2.695917
-2.5232368
-2.3444745
-2.1600605
-1.9704389
-1.7760665
-1.5774115
-1.3749526
-1.1691778
-0.96058303
-0.74967115
-0.53695068
-0.32293455
-0.10813882
0.1069185
0.32171877
0.53574398
0.74847797
0.9594077
1.1680245
1.3738254
1.5763141
1.7750025
1.9694115
2.1590727
2.3435289
2.5223355
2.695062
2.861292
3.0206253
3.1726783
3.3170847
3.4534969
3.5815867
3.7010458
3.8115867
3.9129435
4.0048724
4.0871523
4.1595853
4.2219973
4.2742382
4.3161824
4.3477291
4.3688025
4.3793518
4.502147
4.4913023
4.4696389
4.4372089
4.3940903
4.3403866
4.2762269
4.2017654
4.1171811
4.0226774
3.9184814
3.8048438
3.6820379
3.550359
3.4101241
3.2616705
3.1053556
2.9415557
2.7706652
2.5930956
2.4092747
2.2196453
2.0246644
1.8248018
1.6205393
1.4123694
1.2007939
0.98632291
0.76947377
0.55076941
0.3307373
0.10990815
-0.11118542
-0.33201013
-0.5520334
-0.77072458
-0.98755631
-1.2020057
-1.4135558
-1.6216966
-1.8259264
-2.0257531
-2.2206952
-2.4102833
-2.5940606
-2.7715847
-2.9424284
-3.1061805
-3.2624471
-3.4108523
-3.5510393
-3.6826712
-3.8054314
-3.9190252
-4.0231797
-4.1176447
-4.2021934
-4.2766228
-4.3407543
-4.3944341
-4.4375332
-4.4699484
-4.4916018
-4.5024415
-4.5024415
-4.4916018
-4.4699484
-4.4375332
-4.3944341
-4.3407543
-4.2766228
-4.2021934
-4.1176447
-4.0231797
-3.9190252
-3.8054314
-3.6826712
-3.5510393
-3.4108523
-3.2624471
-3.1061805
-2.9424284
-2.7715847
-2.5940606
-2.4102833
-2.2206952
-2.0257531
-1.8259264
-1.6216966
-1.4135558
-1.2020057
-0.98755631
-0.77072458
-0.5520334
-0.33201013
-0.11118542
0.10990815
0.3307373
0.55076941
0.76947378
0.98632291
1.2007939
1.4123694
1.6205393
1.8248018
2.0246644
2.2196453
2.4092747
2.5930956
2.7706652
2.9415557
3.1053556
3.2616705
3.4101241
3.550359
3.6820379
3.8048438
3.9184814
4.0226774
4.1171811
4.2017654
4.2762269
4.3403866
4.3940903
4.4372089
4.4696389
4.4913023
4.502147
4.6357685
4.6246024
4.6022971
4.5689061
4.5245096
4.4692142
4.4031529
4.3264843
4.2393926
4.1420873
4.0348021
3.9177949
3.7913472
3.655763
3.5113685
3.358511
3.1975585
3.0288983
2.8529364
2.6700967
2.4808194
2.2855606
2.0847907
1.8789936
1.6686654
1.454313
1.2364534
1.0156119
0.79232105
0.56711952
0.34055049
0.1131605
-0.11450192
-0.3418876
-0.56844803
-0.79363673
-1.0169106
-1.2377311
-1.455566
-1.6698898
-1.8801862
-2.0859482
-2.2866801
-2.4818983
-2.6711327
-2.8539278
-3.0298435
-3.1984566
-3.3593614
-3.5121711
-3.6565181
-3.7920557
-3.9184581
-4.0354217
-4.1426656
-4.2399324
-4.3269886
-4.4036252
-4.4696584
-4.5249299
-4.5693069
-4.6026831
-4.6249785
-4.6361396
-4.6361396
-4.6249785
-4.6026831
-4.5693069
-4.5249299
-4.4696584
-4.4036252
-4.3269886
-4.2399324
-4.1426656
-4.0354217
-3.9184581
-3.7920557
-3.6565181
-3.5121711
-3.3593614
-3.1984566
-3.0298435
-2.8539278
-2.6711327
-2.4818983
-2.2866801
-2.0859482
-1.8801862
-1.6698898
-1.455566
-1.2377311
-1.0169106
-0.79363673
-0.56844803
-0.3418876
-0.11450192
0.1131605
0.34055049
0.56711952
0.79232105
1.0156119
1.2364534
1.454313
1.6686654
1.8789936
2.0847907
2.2855606
2.4808194
2.6700967
2.8529364
3.0288983
3.1975585
3.358511
3.5113685
3.655763
3.7913472
3.9177949
4.0348021
4.1420873
4.2393926
4.3264843
4.4031529
4.4692142
4.5245096
4.5689061
4.6022971
4.6246024
4.6357685
4.7805372
4.7690229
4.7460222
4.71159
4.6658092
4.6087896
4.5406683
4.4616086
4.3718007
4.2714602
4.1608283
4.0401708
3.9097777
3.7699626
3.6210617
3.4634331
3.2974562
3.1235303
2.9420741
2.7535245
2.5583356
2.3569776
2.1499357
1.9377088
1.7208084
1.4997576
1.2750892
1.0473452
0.81707491
0.58483372
0.35118194
0.11668327
-0.11809653
-0.35259102
-0.58623446
-0.8184632
-1.048717
-1.2764407
-1.5010848
-1.7221079
-1.9389772
-2.1511698
-2.3581745
-2.5594927
-2.7546396
-2.9431452
-3.1245559
-3.2984353
-3.4643651
-3.6219462
-3.7708001
-3.9105688
-4.0409168
-4.161531
-4.2721217
-4.3724237
-4.4621962
-4.5412238
-4.6093171
-4.6663127
-4.712074
-4.7464913
-4.7694821
-4.7809913
-4.7809913
-4.7694821
-4.7464913
-4.712074
-4.6663127
-4.6093171
-4.5412238
-4.4621962
-4.3724237
-4.2721217
-4.161531
-4.0409168
-3.9105688
-3.7708001
-3.6219462
-3.4643651
-3.2984353
-3.1245559
-2.9431452
-2.7546396
-2.5594927
-2.3581745
-2.1511698
-1.9389772
-1.7221079
-1.5010848
-1.2764407
-1.048717
-0.8184632
-0.58623446
-0.35259102
-0.11809653
0.11668327
0.35118194
0.58483372
0.81707491
1.0473452
1.2750892
1.4997576
1.7208084
1.9377088
2.1499357
2.3569776
2.5583356
2.7535245
2.9420741
3.1235303
3.2974562
3.4634331
3.6210617
3.7699626
3.9097777
4.0401708
4.1608283
4.2714602
4.3718007
4.4616086
4.5406682
4.6087896
4.6658092
4.71159
4.7460222
4.7690229
4.7805372
4.9368004
4.9249104
4.9011591
4.8656033
4.8183285
4.759448
4.6891032
4.607463
4.5147235
4.4111072
4.2968631
4.1722657
4.0376143
3.8932326
3.7394677
3.5766895
3.4052894
3.2256798
3.0382931
2.8435803
2.6420103
2.4340688
2.2202566
2.001089
1.7770944
1.5488128
1.3167946
1.0815996
0.84379507
0.60395469
0.36265717
0.12048476
-0.12197816
-0.36414653
-0.60543597
-0.84526431
-1.0830529
-1.3182282
-1.5502228
-1.7784775
-2.0024418
-2.2215758
-2.4353517
-2.6432543
-2.8447829
-3.0394525
-3.2267944
-3.406358
-3.5777114
-3.7404427
-3.8941607
-4.0384963
-4.1731027
-4.2976568
-4.4118597
-4.5154374
-4.6081414
-4.6897495
-4.760066
-4.8189224
-4.8661776
-4.9017184
-4.9254597
-4.9373446
-4.9373446
-4.9254597
-4.9017184
-4.8661776
-4.8189224
-4.760066
-4.6897495
-4.6081414
-4.5154374
-4.4118597
-4.2976568
-4.1731027
-4.0384963
-3.8941607
-3.7404427
-3.5777114
-3.406358
-3.2267944
-3.0394525
-2.8447829
-2.6432543
-2.4353517
-2.2215758
-2.0024418
-1.7784775
-1.5502228
-1.3182282
-1.0830529
-0.84526431
-0.60543597
-0.36414653
-0.12197816
0.12048476
0.36265717
0.60395469
0.84379507
1.0815996
1.3167946
1.5488128
1.7770944
2.001089
2.2202566
2.4340688
2.6420103
2.8435803
3.0382931
3.2256798
3.4052894
3.5766895
3.7394677
3.8932326
4.0376143
4.1722657
4.2968631
4.4111072
4.5147235
4.607463
4.6891032
4.759448
4.8183285
4.8656033
4.9011591
4.9249104
4.9368004
5.1049332
5.092639
5.0680802
5.0313156
4.9824335
4.921551
4.8488143
4.7643979
4.6685043
4.5613638
4.4432335
4.3143973
4.1751645
4.0258697
3.8668718
3.6985529
3.5213178
3.335593
3.1418253
2.9404812
2.7320454
2.51702
2.295923
2.0692873
1.8376592
1.6015971
1.3616704
1.1184577
0.87254599
0.62452849
0.37500374
0.12457395
-0.12615647
-0.37658237
-0.62609936
-0.87410526
-1.1200016
-1.3631952
-1.6030992
-1.8391351
-2.0707338
-2.2973369
-2.5183984
-2.7333856
-2.9417809
-3.1430825
-3.336806
-3.5224853
-3.699674
-3.8679462
-4.0268975
-4.1761463
-4.3153341
-4.4441269
-4.5622158
-4.6693175
-4.7651753
-4.8495593
-4.9222675
-4.9831256
-5.0319879
-5.0687374
-5.093286
-5.1055751
-5.1055751
-5.093286
-5.0687374
-5.0319879
-4.9831256
-4.9222675
-4.8495593
-4.7651753
-4.6693175
-4.5622158
-4.4441269
-4.3153341
-4.1761463
-4.0268975
-3.8679462
-3.699674
-3.5224853
-3.336806
-3.1430825
-2.9417809
-2.7333856
-2.5183984
-2.2973369
-2.0707338
-1.8391351
-1.6030992
-1.3631952
-1.1200016
-0.87410526
-0.62609936
-0.37658237
-0.12615647
0.12457395
0.37500374
0.62452849
0.87254599
1.1184577
1.3616704
1.6015971
1.8376592
2.0692873
2.295923
2.51702
2.7320454
2.9404812
3.1418253
3.335593
3.5213178
3.6985529
3.8668718
4.0258697
4.1751645
4.3143973
4.4432335
4.5613638
4.6685043
4.7643979
4.8488143
4.921551
4.9824335
5.0313156
5.0680802
5.092639
5.1049332
5.2853389
5.2726111
5.247186
5.2091246
5.1585181
5.0954878
5.0201849
4.93279
4.8335126
4.7225911
4.6002915
4.4669075
4.3227593
4.1681931
4.0035804
3.8293168
3.6458211
3.4535349
3.2529205
3.044461
2.8286581
2.6060316
2.3771178
2.1424684
1.902649
1.658238
1.4098247
1.1580085
0.90339703
0.64660467
0.38825126
0.12896042
-0.1306419
-0.38992902
-0.64827501
-0.90505627
-1.159653
-1.4114509
-1.6598423
-1.9042281
-2.144019
-2.3786367
-2.6075159
-2.8301051
-3.0458682
-3.2542859
-3.4548566
-3.6470978
-3.8305474
-4.0047646
-4.1693307
-4.3238507
-4.4679537
-4.6012941
-4.7235519
-4.8344343
-4.9336754
-5.0210376
-5.0963116
-5.1593171
-5.2099035
-5.2479495
-5.2733642
-5.2860868
-5.2860868
-5.2733642
-5.2479495
-5.2099035
-5.1593171
-5.0963116
-5.0210376
-4.9336754
-4.8344343
-4.7235519
-4.6012941
-4.4679537
-4.3238507
-4.1693307
-4.0047646
-3.8305474
-3.6470978
-3.4548566
-3.2542859
-3.0458682
-2.8301051
-2.6075159
-2.3786367
-2.144019
-1.9042281
-1.6598423
-1.4114509
-1.159653
-0.90505627
-0.64827501
-0.38992902
-0.1306419
0.12896042
0.38825126
0.64660467
0.90339703
1.1580085
1.4098247
1.658238
1.902649
2.1424684
2.3771178
2.6060316
2.8286581
3.044461
3.2529205
3.4535349
3.6458211
3.8293168
4.0035804
4.1681931
4.3227593
4.4669075
4.6002915
4.7225911
4.8335126
4.93279
5.0201849
5.0954878
5.1585181
5.2091246
5.247186
5.2726111
5.2853389
5.4784503
5.4652584
5.4389062
5.3994568
5.3470048
5.2816759
5.2036265
5.1130437
5.0101448
4.8951765
4.7684144
4.6301629
4.4807536
4.3205454
4.1499229
3.9692962
3.7790993
3.5797897
3.3718466
3.1557705
2.9320816
2.7013184
2.464037
2.2208091
1.972221
1.7188723
1.4613741
1.2003475
0.9364226
0.67023638
0.40243147
0.13365444
-0.13544571
-0.40421922
-0.6720171
-0.93819278
-1.2021037
-1.4631127
-1.7205901
-1.9739145
-2.2224751
-2.4656723
-2.7029201
-2.9336469
-3.1572969
-3.3733318
-3.5812317
-3.7804967
-3.9706477
-4.151228
-4.3218037
-4.4819656
-4.6313294
-4.7695368
-4.8962565
-5.0111851
-5.1140472
-5.2045965
-5.2826164
-5.3479201
-5.4003515
-5.4397851
-5.4661267
-5.4793132
-5.4793132
-5.4661267
-5.4397851
-5.4003515
-5.3479201
-5.2826164
-5.2045965
-5.1140472
-5.0111851
-4.8962565
-4.7695367
-4.6313294
-4.4819656
-4.3218037
-4.151228
-3.9706477
-3.7804967
-3.5812317
-3.3733318
-3.1572969
-2.9336469
-2.7029201
-2.4656723
-2.2224751
-1.9739145
-1.7205901
-1.4631127
-1.2021037
-0.93819278
-0.6720171
-0.40421922
-0.13544571
0.13365444
0.40243147
0.67023638
0.9364226
1.2003475
1.4613741
1.7188723
1.972221
2.2208091
2.464037
2.7013184
2.9320816
3.1557705
3.3718466
3.5797897
3.7790993
3.9692962
4.1499229
4.3205454
4.4807536
4.6301629
4.7684144
4.8951765
5.0101448
5.1130437
5.2036265
5.2816759
5.3470048
5.3994568
5.4389062
5.4652584
5.4784503
5.6847304
5.6710428
5.6437005
5.6027689
5.5483459
5.4805619
5.3995793
5.3055919
5.1988251
5.0795346
4.9480065
4.8045561
4.6495276
4.4832931
4.3062515
4.1188283
3.9214736
3.7146618
3.4988904
3.2746784
3.0425655
2.8031106
2.5568905
2.3044986
2.0465433
1.7836466
1.5164429
1.2455769
0.97170238
0.69548053
0.41757834
0.13866695
-0.14058003
-0.41948813
-0.69738372
-0.97359566
-1.247457
-1.5183065
-1.7854903
-2.0483638
-2.3062927
-2.5586551
-2.8048426
-3.0442621
-3.2763368
-3.5005083
-3.7162371
-3.9230044
-4.1203134
-4.3076901
-4.4846846
-4.6508723
-4.8058547
-4.9492602
-5.0807453
-5.1999952
-5.3067243
-5.4006774
-5.4816297
-5.5493877
-5.6037895
-5.6447049
-5.6720363
-5.6857183
-5.6857183
-5.6720363
-5.6447049
-5.6037895
-5.5493877
-5.4816297
-5.4006774
-5.3067243
-5.1999952
-5.0807453
-4.9492602
-4.8058547
-4.6508723
-4.4846846
-4.3076901
-4.1203134
-3.9230044
-3.7162371
-3.5005083
-3.2763368
-3.0442621
-2.8048426
-2.5586551
-2.3062927
-2.0483638
-1.7854903
-1.5183065
-1.247457
-0.97359566
-0.69738372
-0.41948812
-0.14058003
0.13866695
0.41757834
0.69548053
0.97170238
1.2455769
1.5164429
1.7836466
2.0465433
2.3044986
2.5568905
2.8031106
3.0425655
3.2746784
3.4988904
3.7146618
3.9214736
4.1188283
4.3062515
4.4832931
4.6495276
4.8045561
4.9480065
5.0795346
5.1988251
5.3055919
5.3995793
5.4805619
5.5483459
5.6027689
5.6437005
5.6710428
5.6847304
5.9046737
5.8904578
5.86206
5.8195482
5.7630242
5.6926231
5.6085135
5.5108968
5.4000065
5.2761083
5.1394991
4.9905063
4.8294872
4.6568278
4.4729427
4.2782732
4.0732869
3.8584765
3.6343584
3.4014716
3.1603767
2.911654
2.6559027
2.3937392
2.1257953
1.8527175
1.5751644
1.293806
1.0093215
0.72239786
0.43372812
0.14400958
-0.14605785
-0.43577336
-0.72443701
-1.0113515
-1.2958237
-1.5771666
-1.854701
-2.127757
-2.3956757
-2.657811
-2.9135308
-3.162219
-3.4032767
-3.6361235
-3.8601994
-4.0749657
-4.2799061
-4.4745287
-4.6583664
-4.8309782
-4.9919504
-5.1408973
-5.2774624
-5.4013188
-5.5121702
-5.6097516
-5.6938298
-5.7642039
-5.8207059
-5.8632009
-5.8915873
-5.9057975
-5.9057975
-5.8915873
-5.8632009
-5.8207059
-5.7642039