/*--------------------------------*- C++ -*----------------------------------*\
| =========                 |                                                 |
| \\      /  F ield         | OpenFOAM: The Open Source CFD Toolbox           |
|  \\    /   O peration     | Version:  2106                                  |
|   \\  /    A nd           | Website:  www.openfoam.com                      |
|    \\/     M anipulation  |                                                 |
\*---------------------------------------------------------------------------*/
FoamFile
{
    version     2.0;
    format      ascii;
    arch        "LSB;label=32;scalar=64";
    class       volVectorField;
    location    "0.04";
    object      U;
}
// * * * * * * * * * * * * * * * * * * * * * * * * * * * * * * * * * * * * * //

dimensions      [0 1 -1 0 0 0 0];

internalField   nonuniform List<vector> 
16384
(
(-0.00072012032 0.00071945778 0)
(-0.0021586924 0.00071779059 0)
(-0.0035922621 0.00071445958 0)
(-0.0050175058 0.00070947142 0)
(-0.0064311166 0.00070283617 0)
(-0.0078298108 0.00069456721 0)
(-0.0092103352 0.00068468127 0)
(-0.010569473 0.0006731984 0)
(-0.011904051 0.00066014199 0)
(-0.013210946 0.00064553875 0)
(-0.014487093 0.00062941868 0)
(-0.015729487 0.00061181505 0)
(-0.016935196 0.00059276444 0)
(-0.018101363 0.00057230662 0)
(-0.019225214 0.00055048458 0)
(-0.020304064 0.0005273445 0)
(-0.021335324 0.00050293563 0)
(-0.022316507 0.00047731034 0)
(-0.023245232 0.00045052397 0)
(-0.024119233 0.0004226348 0)
(-0.024936364 0.00039370397 0)
(-0.025694603 0.00036379539 0)
(-0.026392059 0.00033297562 0)
(-0.027026978 0.0003013138 0)
(-0.027597744 0.00026888148 0)
(-0.028102889 0.00023575254 0)
(-0.028541094 0.00020200301 0)
(-0.028911195 0.00016771094 0)
(-0.029212185 0.00013295624 0)
(-0.029443218 9.7820423e-05 0)
(-0.029603617 6.2386313e-05 0)
(-0.029692865 2.6739131e-05 0)
(-0.029710625 -9.0355594e-06 0)
(-0.029656723 -4.4852806e-05 0)
(-0.029531165 -8.0624335e-05 0)
(-0.029334127 -0.00011626276 0)
(-0.029065965 -0.00015168026 0)
(-0.028727207 -0.000186789 0)
(-0.028318561 -0.00022150133 0)
(-0.027840905 -0.00025573008 0)
(-0.027295294 -0.0002893888 0)
(-0.026682956 -0.00032239194 0)
(-0.026005286 -0.0003546552 0)
(-0.025263849 -0.00038609569 0)
(-0.024460373 -0.00041663221 0)
(-0.023596746 -0.00044618552 0)
(-0.022675014 -0.00047467853 0)
(-0.021697374 -0.00050203658 0)
(-0.020666171 -0.00052818766 0)
(-0.019583889 -0.00055306265 0)
(-0.01845315 -0.00057659553 0)
(-0.017276703 -0.0005987236 0)
(-0.01605742 -0.00061938769 0)
(-0.014798287 -0.00063853237 0)
(-0.013502397 -0.0006561061 0)
(-0.012172944 -0.00067206146 0)
(-0.01081321 -0.00068635526 0)
(-0.009426561 -0.00069894874 0)
(-0.008016435 -0.00070980764 0)
(-0.0065863344 -0.00071890241 0)
(-0.0051398162 -0.00072620824 0)
(-0.0036804818 -0.00073170516 0)
(-0.0022119679 -0.00073537815 0)
(-0.00073793628 -0.00073721716 0)
(0.00073793632 -0.00073721716 0)
(0.002211968 -0.00073537815 0)
(0.0036804819 -0.00073170516 0)
(0.0051398162 -0.00072620824 0)
(0.0065863345 -0.00071890241 0)
(0.008016435 -0.00070980764 0)
(0.009426561 -0.00069894874 0)
(0.01081321 -0.00068635526 0)
(0.012172944 -0.00067206146 0)
(0.013502397 -0.0006561061 0)
(0.014798287 -0.00063853237 0)
(0.01605742 -0.00061938769 0)
(0.017276703 -0.0005987236 0)
(0.01845315 -0.00057659553 0)
(0.019583889 -0.00055306265 0)
(0.020666171 -0.00052818766 0)
(0.021697374 -0.00050203658 0)
(0.022675014 -0.00047467853 0)
(0.023596746 -0.00044618552 0)
(0.024460373 -0.00041663221 0)
(0.025263849 -0.00038609569 0)
(0.026005286 -0.0003546552 0)
(0.026682956 -0.00032239194 0)
(0.027295295 -0.0002893888 0)
(0.027840905 -0.00025573008 0)
(0.028318561 -0.00022150133 0)
(0.028727207 -0.000186789 0)
(0.029065965 -0.00015168026 0)
(0.029334127 -0.00011626276 0)
(0.029531165 -8.0624334e-05 0)
(0.029656724 -4.4852804e-05 0)
(0.029710625 -9.0355582e-06 0)
(0.029692865 2.6739132e-05 0)
(0.029603617 6.2386314e-05 0)
(0.029443218 9.7820424e-05 0)
(0.029212185 0.00013295624 0)
(0.028911195 0.00016771094 0)
(0.028541094 0.00020200301 0)
(0.028102889 0.00023575254 0)
(0.027597744 0.00026888148 0)
(0.027026978 0.0003013138 0)
(0.026392059 0.00033297562 0)
(0.025694603 0.00036379539 0)
(0.024936364 0.00039370397 0)
(0.024119233 0.0004226348 0)
(0.023245232 0.00045052397 0)
(0.022316507 0.00047731034 0)
(0.021335324 0.00050293564 0)
(0.020304064 0.0005273445 0)
(0.019225214 0.00055048458 0)
(0.018101363 0.00057230662 0)
(0.016935196 0.00059276444 0)
(0.015729487 0.00061181505 0)
(0.014487093 0.00062941868 0)
(0.013210946 0.00064553875 0)
(0.011904051 0.000660142 0)
(0.010569473 0.0006731984 0)
(0.0092103351 0.00068468127 0)
(0.0078298108 0.00069456721 0)
(0.0064311165 0.00070283617 0)
(0.0050175058 0.00070947142 0)
(0.003592262 0.00071445958 0)
(0.0021586923 0.00071779059 0)
(0.00072012027 0.00071945778 0)
(-0.00072182821 0.0021597062 0)
(-0.0021638124 0.0021547018 0)
(-0.0036007832 0.0021447031 0)
(-0.0050294097 0.0021297301 0)
(-0.0064463777 0.002109813 0)
(-0.0078483962 0.002084992 0)
(-0.0092322048 0.0020553172 0)
(-0.010594579 0.0020208489 0)
(-0.01193234 0.0019816571 0)
(-0.013242356 0.0019378222 0)
(-0.014521554 0.001889434 0)
(-0.015766925 0.0018365925 0)
(-0.016975528 0.0017794073 0)
(-0.0181445 0.001717998 0)
(-0.019271061 0.0016524934 0)
(-0.020352518 0.0015830322 0)
(-0.021386277 0.0015097622 0)
(-0.022369843 0.0014328406 0)
(-0.023300831 0.0013524335 0)
(-0.024176969 0.0012687157 0)
(-0.024996105 0.0011818709 0)
(-0.025756212 0.0010920907 0)
(-0.026455394 0.00099957515 0)
(-0.027091891 0.00090453159 0)
(-0.027664085 0.00080717487 0)
(-0.028170502 0.00070772673 0)
(-0.02860982 0.00060641541 0)
(-0.028980871 0.00050347519 0)
(-0.029282646 0.00039914594 0)
(-0.029514297 0.0002936725 0)
(-0.029675142 0.00018730411 0)
(-0.029764666 8.0294592e-05 0)
(-0.029782526 -2.7099177e-05 0)
(-0.029728552 -0.00013461835 0)
(-0.029602745 -0.00024200128 0)
(-0.029405284 -0.00034898497 0)
(-0.029136524 -0.00045530572 0)
(-0.028796995 -0.00056069976 0)
(-0.028387405 -0.00066490402 0)
(-0.027908635 -0.0007676568 0)
(-0.027361742 -0.00086869851 0)
(-0.026747955 -0.00096777241 0)
(-0.026068674 -0.0010646254 0)
(-0.025325467 -0.0011590085 0)
(-0.024520066 -0.0012506782 0)
(-0.023654363 -0.0013393963 0)
(-0.02273041 -0.0014249316 0)
(-0.021750409 -0.0015070599 0)
(-0.02071671 -0.001585565 0)
(-0.019631803 -0.0016602394 0)
(-0.018498317 -0.0017308849 0)
(-0.017319008 -0.0017973132 0)
(-0.016096754 -0.0018593467 0)
(-0.014834549 -0.001916819 0)
(-0.013535494 -0.0019695754 0)
(-0.012202791 -0.0020174734 0)
(-0.01083973 -0.0020603835 0)
(-0.0094496849 -0.0020981892 0)
(-0.0080361036 -0.0021307878 0)
(-0.0066024969 -0.0021580904 0)
(-0.0051524306 -0.0021800226 0)
(-0.0036895155 -0.0021965244 0)
(-0.0022173976 -0.0022075508 0)
(-0.00073974771 -0.0022130715 0)
(0.00073974776 -0.0022130715 0)
(0.0022173976 -0.0022075508 0)
(0.0036895156 -0.0021965244 0)
(0.0051524307 -0.0021800226 0)
(0.0066024969 -0.0021580904 0)
(0.0080361037 -0.0021307878 0)
(0.009449685 -0.0020981892 0)
(0.01083973 -0.0020603835 0)
(0.012202791 -0.0020174734 0)
(0.013535494 -0.0019695754 0)
(0.014834549 -0.001916819 0)
(0.016096754 -0.0018593467 0)
(0.017319008 -0.0017973132 0)
(0.018498317 -0.0017308849 0)
(0.019631803 -0.0016602394 0)
(0.02071671 -0.001585565 0)
(0.021750409 -0.0015070599 0)
(0.02273041 -0.0014249316 0)
(0.023654363 -0.0013393963 0)
(0.024520066 -0.0012506781 0)
(0.025325467 -0.0011590085 0)
(0.026068674 -0.0010646253 0)
(0.026747955 -0.00096777241 0)
(0.027361742 -0.0008686985 0)
(0.027908635 -0.00076765679 0)
(0.028387405 -0.00066490401 0)
(0.028796995 -0.00056069975 0)
(0.029136524 -0.00045530571 0)
(0.029405284 -0.00034898497 0)
(0.029602745 -0.00024200128 0)
(0.029728552 -0.00013461834 0)
(0.029782526 -2.7099173e-05 0)
(0.029764666 8.0294596e-05 0)
(0.029675142 0.00018730411 0)
(0.029514297 0.00029367251 0)
(0.029282646 0.00039914594 0)
(0.028980871 0.0005034752 0)
(0.02860982 0.00060641541 0)
(0.028170502 0.00070772673 0)
(0.027664085 0.00080717487 0)
(0.027091891 0.00090453159 0)
(0.026455394 0.00099957515 0)
(0.025756212 0.0010920907 0)
(0.024996105 0.0011818709 0)
(0.024176969 0.0012687157 0)
(0.023300831 0.0013524335 0)
(0.022369843 0.0014328406 0)
(0.021386277 0.0015097622 0)
(0.020352518 0.0015830322 0)
(0.019271061 0.0016524934 0)
(0.0181445 0.001717998 0)
(0.016975528 0.0017794073 0)
(0.015766925 0.0018365925 0)
(0.014521554 0.001889434 0)
(0.013242356 0.0019378222 0)
(0.01193234 0.0019816571 0)
(0.010594579 0.0020208489 0)
(0.0092322047 0.0020553172 0)
(0.0078483962 0.002084992 0)
(0.0064463776 0.002109813 0)
(0.0050294097 0.0021297301 0)
(0.0036007832 0.0021447031 0)
(0.0021638123 0.0021547018 0)
(0.00072182816 0.0021597062 0)
(-0.0007243903 0.0036046279 0)
(-0.002171493 0.0035962762 0)
(-0.0036135657 0.0035795896 0)
(-0.005047266 0.0035546015 0)
(-0.0064692687 0.0035213622 0)
(-0.0078762717 0.0034799387 0)
(-0.0092650034 0.0034304148 0)
(-0.010632229 0.0033728908 0)
(-0.011974757 0.0033074837 0)
(-0.013289447 0.0032343273 0)
(-0.014573215 0.0031535716 0)
(-0.01582304 0.0030653834 0)
(-0.017035972 0.0029699456 0)
(-0.018209137 0.0028674574 0)
(-0.019339745 0.0027581341 0)
(-0.020425094 0.0026422067 0)
(-0.02146258 0.0025199221 0)
(-0.022449699 0.0023915423 0)
(-0.023384058 0.0022573445 0)
(-0.024263375 0.0021176207 0)
(-0.02508549 0.0019726771 0)
(-0.025848369 0.0018228336 0)
(-0.026550108 0.0016684239 0)
(-0.027188941 0.001509794 0)
(-0.027763242 0.0013473027 0)
(-0.028271533 0.0011813198 0)
(-0.028712485 0.0010122265 0)
(-0.029084927 0.00084041355 0)
(-0.029387843 0.00066628145 0)
(-0.029620384 0.00049023891 0)
(-0.029781864 0.00031270217 0)
(-0.029871766 0.00013409443 0)
(-0.029889745 -4.5155757e-05 0)
(-0.029835629 -0.00022461567 0)
(-0.02970942 -0.00040384876 0)
(-0.029511296 -0.00058241605 0)
(-0.029241614 -0.00075987738 0)
(-0.028900906 -0.00093579247 0)
(-0.02848988 -0.0011097222 0)
(-0.028009422 -0.0012812297 0)
(-0.027460592 -0.0014498816 0)
(-0.026844623 -0.0016152495 0)
(-0.02616292 -0.0017769106 0)
(-0.025417057 -0.0019344497 0)
(-0.024608771 -0.0020874599 0)
(-0.023739963 -0.0022355439 0)
(-0.022812691 -0.0023783156 0)
(-0.021829163 -0.0025154007 0)
(-0.020791741 -0.0026464384 0)
(-0.019702922 -0.0027710822 0)
(-0.018565345 -0.0028890013 0)
(-0.017381776 -0.0029998814 0)
(-0.016155103 -0.003103426 0)
(-0.014888333 -0.0031993573 0)
(-0.013584577 -0.003287417 0)
(-0.012247047 -0.0033673675 0)
(-0.010879048 -0.0034389921 0)
(-0.0094839649 -0.0035020968 0)
(-0.0080652585 -0.0035565097 0)
(-0.0066264527 -0.0036020828 0)
(-0.0051711264 -0.0036386917 0)
(-0.0037029038 -0.0036662364 0)
(-0.0022254441 -0.0036846414 0)
(-0.00074243219 -0.0036938566 0)
(0.00074243224 -0.0036938566 0)
(0.0022254442 -0.0036846414 0)
(0.0037029038 -0.0036662364 0)
(0.0051711265 -0.0036386917 0)
(0.0066264528 -0.0036020828 0)
(0.0080652586 -0.0035565097 0)
(0.009483965 -0.0035020968 0)
(0.010879048 -0.0034389921 0)
(0.012247047 -0.0033673675 0)
(0.013584577 -0.003287417 0)
(0.014888333 -0.0031993573 0)
(0.016155103 -0.003103426 0)
(0.017381776 -0.0029998814 0)
(0.018565345 -0.0028890012 0)
(0.019702922 -0.0027710822 0)
(0.020791741 -0.0026464384 0)
(0.021829164 -0.0025154007 0)
(0.022812691 -0.0023783156 0)
(0.023739963 -0.0022355439 0)
(0.024608771 -0.0020874599 0)
(0.025417057 -0.0019344497 0)
(0.02616292 -0.0017769106 0)
(0.026844623 -0.0016152495 0)
(0.027460592 -0.0014498816 0)
(0.028009422 -0.0012812297 0)
(0.02848988 -0.0011097222 0)
(0.028900906 -0.00093579247 0)
(0.029241614 -0.00075987737 0)
(0.029511296 -0.00058241605 0)
(0.02970942 -0.00040384875 0)
(0.029835629 -0.00022461567 0)
(0.029889745 -4.5155751e-05 0)
(0.029871766 0.00013409443 0)
(0.029781864 0.00031270218 0)
(0.029620384 0.00049023892 0)
(0.029387843 0.00066628146 0)
(0.029084927 0.00084041356 0)
(0.028712485 0.0010122265 0)
(0.028271533 0.0011813199 0)
(0.027763242 0.0013473027 0)
(0.027188941 0.0015097941 0)
(0.026550108 0.0016684239 0)
(0.025848369 0.0018228336 0)
(0.02508549 0.0019726771 0)
(0.024263375 0.0021176207 0)
(0.023384058 0.0022573445 0)
(0.022449699 0.0023915423 0)
(0.02146258 0.0025199221 0)
(0.020425094 0.0026422067 0)
(0.019339745 0.0027581341 0)
(0.018209137 0.0028674574 0)
(0.017035972 0.0029699456 0)
(0.01582304 0.0030653834 0)
(0.014573215 0.0031535716 0)
(0.013289447 0.0032343273 0)
(0.011974757 0.0033074837 0)
(0.010632229 0.0033728908 0)
(0.0092650033 0.0034304148 0)
(0.0078762716 0.0034799387 0)
(0.0064692686 0.0035213622 0)
(0.005047266 0.0035546015 0)
(0.0036135656 0.0035795896 0)
(0.002171493 0.0035962762 0)
(0.00072439025 0.0036046279 0)
(-0.0007278028 0.0050555555 0)
(-0.002181723 0.0050438433 0)
(-0.0036305906 0.0050204424 0)
(-0.0050710483 0.0049853996 0)
(-0.0064997558 0.0049387855 0)
(-0.0079133963 0.004880694 0)
(-0.0093086832 0.0048112423 0)
(-0.010682367 0.0047305711 0)
(-0.012031242 0.0046388444 0)
(-0.013352153 0.0045362497 0)
(-0.014642001 0.0044229972 0)
(-0.015897752 0.0042993207 0)
(-0.017116441 0.0041654766 0)
(-0.018295182 0.004021744 0)
(-0.019431171 0.0038684248 0)
(-0.020521692 0.003705843 0)
(-0.02156413 0.0035343444 0)
(-0.022555968 0.0033542966 0)
(-0.023494801 0.0031660882 0)
(-0.024378336 0.0029701285 0)
(-0.025204402 0.0027668469 0)
(-0.025970954 0.0025566921 0)
(-0.02667608 0.0023401319 0)
(-0.027318003 0.0021176518 0)
(-0.02789509 0.0018897547 0)
(-0.028405854 0.0016569594 0)
(-0.028848961 0.0014198004 0)
(-0.029223232 0.001178826 0)
(-0.029527647 0.00093459772 0)
(-0.029761351 0.00068768897 0)
(-0.029923654 0.00043868366 0)
(-0.030014037 0.00018817513 0)
(-0.030032153 -6.323556e-05 0)
(-0.029977827 -0.00031494113 0)
(-0.029851063 -0.00056632927 0)
(-0.029652039 -0.00081678428 0)
(-0.029381112 -0.0010656887 0)
(-0.029038817 -0.0013124251 0)
(-0.028625866 -0.0015563773 0)
(-0.028143149 -0.0017969327 0)
(-0.02759173 -0.0020334834 0)
(-0.026972848 -0.0022654282 0)
(-0.026287916 -0.0024921744 0)
(-0.025538514 -0.0027131394 0)
(-0.024726388 -0.0029277524 0)
(-0.023853447 -0.0031354563 0)
(-0.02292176 -0.0033357093 0)
(-0.021933547 -0.0035279866 0)
(-0.020891177 -0.0037117819 0)
(-0.019797164 -0.0038866093 0)
(-0.018654157 -0.0040520046 0)
(-0.017464935 -0.0042075272 0)
(-0.016232403 -0.0043527611 0)
(-0.014959578 -0.0044873164 0)
(-0.013649588 -0.0046108311 0)
(-0.012305662 -0.0047229715 0)
(-0.010931119 -0.0048234341 0)
(-0.0095293619 -0.0049119464 0)
(-0.0081038666 -0.0049882675 0)
(-0.0066581746 -0.0050521896 0)
(-0.0051958823 -0.0051035383 0)
(-0.0037206313 -0.0051421732 0)
(-0.0022360986 -0.0051679888 0)
(-0.00074598665 -0.0051809142 0)
(0.00074598669 -0.0051809142 0)
(0.0022360986 -0.0051679888 0)
(0.0037206313 -0.0051421732 0)
(0.0051958824 -0.0051035383 0)
(0.0066581747 -0.0050521896 0)
(0.0081038666 -0.0049882675 0)
(0.0095293619 -0.0049119464 0)
(0.010931119 -0.0048234341 0)
(0.012305662 -0.0047229715 0)
(0.013649588 -0.0046108311 0)
(0.014959578 -0.0044873164 0)
(0.016232403 -0.0043527611 0)
(0.017464936 -0.0042075272 0)
(0.018654157 -0.0040520046 0)
(0.019797164 -0.0038866093 0)
(0.020891177 -0.0037117819 0)
(0.021933547 -0.0035279866 0)
(0.02292176 -0.0033357093 0)
(0.023853447 -0.0031354563 0)
(0.024726388 -0.0029277524 0)
(0.025538514 -0.0027131394 0)
(0.026287916 -0.0024921744 0)
(0.026972849 -0.0022654282 0)
(0.02759173 -0.0020334834 0)
(0.028143149 -0.0017969327 0)
(0.028625866 -0.0015563773 0)
(0.029038817 -0.0013124251 0)
(0.029381112 -0.0010656887 0)
(0.029652039 -0.00081678428 0)
(0.029851063 -0.00056632926 0)
(0.029977827 -0.00031494113 0)
(0.030032153 -6.3235552e-05 0)
(0.030014037 0.00018817514 0)
(0.029923654 0.00043868367 0)
(0.029761351 0.00068768898 0)
(0.029527647 0.00093459773 0)
(0.029223232 0.001178826 0)
(0.028848961 0.0014198004 0)
(0.028405854 0.0016569594 0)
(0.02789509 0.0018897547 0)
(0.027318003 0.0021176518 0)
(0.02667608 0.0023401319 0)
(0.025970954 0.0025566921 0)
(0.025204402 0.0027668469 0)
(0.024378336 0.0029701285 0)
(0.023494801 0.0031660882 0)
(0.022555968 0.0033542966 0)
(0.02156413 0.0035343444 0)
(0.020521692 0.003705843 0)
(0.019431171 0.0038684248 0)
(0.018295182 0.004021744 0)
(0.017116441 0.0041654766 0)
(0.015897752 0.0042993207 0)
(0.014642001 0.0044229972 0)
(0.013352153 0.0045362497 0)
(0.012031242 0.0046388444 0)
(0.010682367 0.0047305711 0)
(0.0093086831 0.0048112423 0)
(0.0079133962 0.004880694 0)
(0.0064997558 0.0049387855 0)
(0.0050710483 0.0049853996 0)
(0.0036305905 0.0050204424 0)
(0.002181723 0.0050438433 0)
(0.00072780275 0.0050555555 0)
(-0.0007320786 0.0065141375 0)
(-0.0021945409 0.0064990478 0)
(-0.0036519223 0.0064688988 0)
(-0.0051008465 0.0064237508 0)
(-0.0065379544 0.0063636944 0)
(-0.0079599105 0.0062888506 0)
(-0.0093634095 0.0061993703 0)
(-0.010745184 0.0060954346 0)
(-0.012102008 0.0059772548 0)
(-0.01343071 0.0058450719 0)
(-0.014728173 0.0056991569 0)
(-0.015991345 0.0055398107 0)
(-0.017217243 0.0053673634 0)
(-0.018402965 0.0051821745 0)
(-0.019545688 0.0049846327 0)
(-0.020642683 0.0047751553 0)
(-0.021691317 0.0045541876 0)
(-0.022689058 0.0043222032 0)
(-0.023633486 0.0040797026 0)
(-0.024522294 0.003827213 0)
(-0.025353298 0.0035652876 0)
(-0.02612444 0.0032945046 0)
(-0.026833795 0.0030154665 0)
(-0.027479576 0.0027287989 0)
(-0.028060139 0.0024351496 0)
(-0.028573987 0.0021351875 0)
(-0.029019778 0.001829601 0)
(-0.029396324 0.0015190967 0)
(-0.0297026 0.0012043984 0)
(-0.029937743 0.00088624477 0)
(-0.030101061 0.00056538847 0)
(-0.030192031 0.00024259398 0)
(-0.030210302 -8.1364135e-05 0)
(-0.030155699 -0.00040570313 0)
(-0.030028224 -0.00072963391 0)
(-0.029828058 -0.001052363 0)
(-0.029555558 -0.0013730948 0)
(-0.029211263 -0.0016910335 0)
(-0.02879589 -0.0020053851 0)
(-0.028310332 -0.00231536 0)
(-0.027755662 -0.002620175 0)
(-0.027133126 -0.0029190553 0)
(-0.026444143 -0.0032112371 0)
(-0.025690304 -0.0034959696 0)
(-0.024873367 -0.0037725172 0)
(-0.023995251 -0.0040401622 0)
(-0.023058037 -0.0042982061 0)
(-0.022063958 -0.0045459728 0)
(-0.0210154 -0.0047828098 0)
(-0.01991489 -0.0050080911 0)
(-0.018765092 -0.0052212184 0)
(-0.017568804 -0.0054216239 0)
(-0.016328945 -0.0056087715 0)
(-0.015048554 -0.0057821589 0)
(-0.013730776 -0.0059413194 0)
(-0.012378859 -0.0060858233 0)
(-0.010996142 -0.0062152792 0)
(-0.0095860478 -0.0063293359 0)
(-0.008152074 -0.0064276832 0)
(-0.0066977828 -0.0065100533 0)
(-0.0052267921 -0.0065762211 0)
(-0.0037427651 -0.0066260061 0)
(-0.0022494011 -0.006659272 0)
(-0.00075042453 -0.0066759278 0)
(0.00075042458 -0.0066759278 0)
(0.0022494011 -0.006659272 0)
(0.0037427652 -0.0066260061 0)
(0.0052267921 -0.0065762211 0)
(0.0066977829 -0.0065100532 0)
(0.008152074 -0.0064276832 0)
(0.0095860479 -0.0063293359 0)
(0.010996142 -0.0062152792 0)
(0.012378859 -0.0060858233 0)
(0.013730776 -0.0059413194 0)
(0.015048554 -0.0057821589 0)
(0.016328945 -0.0056087715 0)
(0.017568804 -0.0054216239 0)
(0.018765092 -0.0052212184 0)
(0.01991489 -0.0050080911 0)
(0.0210154 -0.0047828098 0)
(0.022063958 -0.0045459728 0)
(0.023058037 -0.0042982061 0)
(0.023995251 -0.0040401622 0)
(0.024873367 -0.0037725172 0)
(0.025690304 -0.0034959695 0)
(0.026444143 -0.0032112371 0)
(0.027133126 -0.0029190553 0)
(0.027755662 -0.002620175 0)
(0.028310332 -0.00231536 0)
(0.02879589 -0.0020053851 0)
(0.029211263 -0.0016910335 0)
(0.029555558 -0.0013730948 0)
(0.029828058 -0.001052363 0)
(0.030028224 -0.0007296339 0)
(0.030155699 -0.00040570312 0)
(0.030210302 -8.1364124e-05 0)
(0.030192031 0.00024259399 0)
(0.030101061 0.00056538848 0)
(0.029937743 0.00088624478 0)
(0.0297026 0.0012043984 0)
(0.029396324 0.0015190967 0)
(0.029019778 0.001829601 0)
(0.028573987 0.0021351875 0)
(0.028060139 0.0024351496 0)
(0.027479576 0.0027287989 0)
(0.026833795 0.0030154665 0)
(0.02612444 0.0032945046 0)
(0.025353298 0.0035652876 0)
(0.024522294 0.0038272131 0)
(0.023633486 0.0040797026 0)
(0.022689058 0.0043222032 0)
(0.021691317 0.0045541877 0)
(0.020642683 0.0047751553 0)
(0.019545688 0.0049846327 0)
(0.018402965 0.0051821745 0)
(0.017217243 0.0053673634 0)
(0.015991345 0.0055398107 0)
(0.014728173 0.0056991569 0)
(0.01343071 0.0058450719 0)
(0.012102008 0.0059772548 0)
(0.010745183 0.0060954346 0)
(0.0093634095 0.0061993703 0)
(0.0079599104 0.0062888506 0)
(0.0065379544 0.0063636944 0)
(0.0051008465 0.0064237508 0)
(0.0036519222 0.0064688988 0)
(0.0021945409 0.0064990478 0)
(0.00073207855 0.0065141375 0)
(-0.00073724734 0.0079821349 0)
(-0.0022100357 0.0079636469 0)
(-0.0036777087 0.0079267081 0)
(-0.0051368673 0.0078713922 0)
(-0.0065841295 0.0077978104 0)
(-0.0080161371 0.0077061104 0)
(-0.0094295623 0.0075964772 0)
(-0.010821115 0.0074691323 0)
(-0.012187548 0.0073243345 0)
(-0.013525666 0.0071623787 0)
(-0.014832331 0.0069835968 0)
(-0.01610447 0.0067883571 0)
(-0.01733908 0.0065770637 0)
(-0.018533235 0.0063501571 0)
(-0.019684095 0.0061081131 0)
(-0.020788909 0.0058514427 0)
(-0.021845026 0.0055806915 0)
(-0.022849896 0.0052964393 0)
(-0.02380108 0.0049992994 0)
(-0.024696254 0.0046899175 0)
(-0.025533218 0.0043689714 0)
(-0.026309898 0.0040371695 0)
(-0.027024355 0.0036952499 0)
(-0.027674788 0.0033439793 0)
(-0.02825954 0.0029841515 0)
(-0.028777104 0.002616586 0)
(-0.029226125 0.0022421265 0)
(-0.029605409 0.001861639 0)
(-0.02991392 0.0014760103 0)
(-0.030150791 0.0010861461 0)
(-0.030315322 0.00069296844 0)
(-0.030406986 0.00029741439 0)
(-0.03042543 -9.9566778e-05 0)
(-0.030370478 -0.0004970157 0)
(-0.030242132 -0.00089396526 0)
(-0.030040572 -0.001289443 0)
(-0.02976616 -0.0016824739 0)
(-0.029419438 -0.0020720824 0)
(-0.029001126 -0.0024572958 0)
(-0.028512127 -0.0028371462 0)
(-0.027953519 -0.0032106737 0)
(-0.027326559 -0.0035769289 0)
(-0.026632676 -0.0039349757 0)
(-0.025873472 -0.0042838941 0)
(-0.025050717 -0.0046227827 0)
(-0.024166346 -0.0049507617 0)
(-0.023222454 -0.0052669754 0)
(-0.022221291 -0.0055705952 0)
(-0.021165259 -0.0058608215 0)
(-0.020056903 -0.0061368871 0)
(-0.018898907 -0.006398059 0)
(-0.017694089 -0.0066436412 0)
(-0.01644539 -0.0068729769 0)
(-0.015155868 -0.0070854506 0)
(-0.013828693 -0.0072804903 0)
(-0.012467135 -0.0074575692 0)
(-0.011074558 -0.0076162081 0)
(-0.0096544078 -0.0077559764 0)
(-0.008210208 -0.0078764941 0)
(-0.0067455459 -0.0079774326 0)
(-0.0052640652 -0.0080585166 0)
(-0.0037694554 -0.0081195246 0)
(-0.002265442 -0.0081602896 0)
(-0.00075577594 -0.0081807 0)
(0.00075577599 -0.0081807 0)
(0.002265442 -0.0081602896 0)
(0.0037694555 -0.0081195246 0)
(0.0052640653 -0.0080585166 0)
(0.006745546 -0.0079774326 0)
(0.008210208 -0.0078764941 0)
(0.0096544079 -0.0077559764 0)
(0.011074558 -0.0076162081 0)
(0.012467135 -0.0074575692 0)
(0.013828693 -0.0072804903 0)
(0.015155868 -0.0070854506 0)
(0.01644539 -0.0068729769 0)
(0.017694089 -0.0066436412 0)
(0.018898907 -0.006398059 0)
(0.020056903 -0.0061368871 0)
(0.021165259 -0.0058608215 0)
(0.022221291 -0.0055705952 0)
(0.023222454 -0.0052669754 0)
(0.024166346 -0.0049507617 0)
(0.025050717 -0.0046227827 0)
(0.025873472 -0.0042838941 0)
(0.026632676 -0.0039349757 0)
(0.027326559 -0.0035769289 0)
(0.027953519 -0.0032106737 0)
(0.028512127 -0.0028371462 0)
(0.029001126 -0.0024572958 0)
(0.029419438 -0.0020720824 0)
(0.02976616 -0.0016824739 0)
(0.030040572 -0.001289443 0)
(0.030242132 -0.00089396525 0)
(0.030370478 -0.00049701569 0)
(0.03042543 -9.9566765e-05 0)
(0.030406986 0.00029741441 0)
(0.030315322 0.00069296845 0)
(0.030150791 0.0010861461 0)
(0.02991392 0.0014760103 0)
(0.029605409 0.001861639 0)
(0.029226125 0.0022421265 0)
(0.028777104 0.002616586 0)
(0.02825954 0.0029841515 0)
(0.027674788 0.0033439794 0)
(0.027024355 0.00369525 0)
(0.026309898 0.0040371695 0)
(0.025533218 0.0043689715 0)
(0.024696254 0.0046899176 0)
(0.02380108 0.0049992994 0)
(0.022849896 0.0052964393 0)
(0.021845026 0.0055806915 0)
(0.020788909 0.0058514427 0)
(0.019684095 0.0061081131 0)
(0.018533235 0.0063501572 0)
(0.01733908 0.0065770637 0)
(0.01610447 0.0067883571 0)
(0.014832331 0.0069835968 0)
(0.013525666 0.0071623787 0)
(0.012187548 0.0073243345 0)
(0.010821115 0.0074691323 0)
(0.0094295622 0.0075964772 0)
(0.008016137 0.0077061104 0)
(0.0065841295 0.0077978104 0)
(0.0051368672 0.0078713922 0)
(0.0036777086 0.0079267081 0)
(0.0022100356 0.0079636469 0)
(0.00073724729 0.0079821349 0)
(-0.00074335558 0.0094613761 0)
(-0.0022283469 0.0094394649 0)
(-0.0037081821 0.0093956863 0)
(-0.0051794352 0.0093301278 0)
(-0.0066386971 0.0092429209 0)
(-0.0080825828 0.0091342405 0)
(-0.0095077377 0.0090043056 0)
(-0.010910845 0.0088533785 0)
(-0.012288632 0.0086817654 0)
(-0.013637876 0.0084898157 0)
(-0.014955415 0.0082779224 0)
(-0.016238148 0.0080465214 0)
(-0.017483049 0.0077960916 0)
(-0.018687167 0.0075271545 0)
(-0.019847639 0.0072402737 0)
(-0.02096169 0.0069360545 0)
(-0.022026645 0.0066151435 0)
(-0.023039934 0.0062782274 0)
(-0.023999095 0.005926033 0)
(-0.024901785 0.0055593254 0)
(-0.025745784 0.0051789078 0)
(-0.026529001 0.0047856198 0)
(-0.027249478 0.0043803363 0)
(-0.027905399 0.0039639659 0)
(-0.028495092 0.0035374496 0)
(-0.029017035 0.0031017589 0)
(-0.029469863 0.0026578939 0)
(-0.02985237 0.0022068814 0)
(-0.03016351 0.0017497726 0)
(-0.030402409 0.0012876412 0)
(-0.030568361 0.00082158051 0)
(-0.030660833 0.00035270141 0)
(-0.03067947 -0.00011787066 0)
(-0.030624093 -0.00058899824 0)
(-0.030494704 -0.0010595347 0)
(-0.030291486 -0.0015283272 0)
(-0.030014802 -0.0019942196 0)
(-0.0296652 -0.0024560556 0)
(-0.029243407 -0.0029126818 0)
(-0.028750332 -0.003362951 0)
(-0.028187064 -0.003805725 0)
(-0.02755487 -0.0042398785 0)
(-0.026855191 -0.0046643018 0)
(-0.026089644 -0.0050779041 0)
(-0.025260013 -0.0054796171 0)
(-0.024368251 -0.0058683978 0)
(-0.023416469 -0.0062432321 0)
(-0.022406937 -0.0066031374 0)
(-0.021342077 -0.0069471662 0)
(-0.020224457 -0.0072744089 0)
(-0.019056783 -0.0075839969 0)
(-0.017841895 -0.0078751051 0)
(-0.016582761 -0.0081469548 0)
(-0.015282464 -0.0083988166 0)
(-0.0139442 -0.0086300124 0)
(-0.012571266 -0.008839918 0)
(-0.011167055 -0.0090279651 0)
(-0.0097350419 -0.0091936433 0)
(-0.0082787786 -0.0093365022 0)
(-0.006801883 -0.0094561526 0)
(-0.0053080287 -0.0095522678 0)
(-0.0038009362 -0.0096245852 0)
(-0.0022843617 -0.0096729071 0)
(-0.00076208776 -0.0096971012 0)
(0.00076208781 -0.0096971012 0)
(0.0022843618 -0.0096729071 0)
(0.0038009362 -0.0096245852 0)
(0.0053080288 -0.0095522678 0)
(0.006801883 -0.0094561526 0)
(0.0082787787 -0.0093365022 0)
(0.0097350419 -0.0091936433 0)
(0.011167055 -0.0090279651 0)
(0.012571266 -0.008839918 0)
(0.0139442 -0.0086300124 0)
(0.015282464 -0.0083988166 0)
(0.016582761 -0.0081469548 0)
(0.017841895 -0.0078751051 0)
(0.019056783 -0.0075839969 0)
(0.020224457 -0.0072744089 0)
(0.021342077 -0.0069471662 0)
(0.022406937 -0.0066031373 0)
(0.023416469 -0.0062432321 0)
(0.024368251 -0.0058683978 0)
(0.025260013 -0.0054796171 0)
(0.026089644 -0.0050779041 0)
(0.026855191 -0.0046643018 0)
(0.02755487 -0.0042398785 0)
(0.028187064 -0.003805725 0)
(0.028750332 -0.003362951 0)
(0.029243407 -0.0029126818 0)
(0.0296652 -0.0024560556 0)
(0.030014802 -0.0019942196 0)
(0.030291486 -0.0015283272 0)
(0.030494704 -0.0010595347 0)
(0.030624093 -0.00058899822 0)
(0.03067947 -0.00011787064 0)
(0.030660833 0.00035270142 0)
(0.030568361 0.00082158052 0)
(0.030402409 0.0012876412 0)
(0.03016351 0.0017497726 0)
(0.02985237 0.0022068814 0)
(0.029469863 0.0026578939 0)
(0.029017035 0.0031017589 0)
(0.028495092 0.0035374497 0)
(0.027905399 0.0039639659 0)
(0.027249478 0.0043803363 0)
(0.026529001 0.0047856199 0)
(0.025745784 0.0051789079 0)
(0.024901785 0.0055593254 0)
(0.023999095 0.005926033 0)
(0.023039934 0.0062782274 0)
(0.022026645 0.0066151435 0)
(0.02096169 0.0069360545 0)
(0.019847639 0.0072402737 0)
(0.018687167 0.0075271545 0)
(0.017483049 0.0077960916 0)
(0.016238148 0.0080465214 0)
(0.014955414 0.0082779224 0)
(0.013637876 0.0084898157 0)
(0.012288631 0.0086817654 0)
(0.010910845 0.0088533785 0)
(0.0095077377 0.0090043056 0)
(0.0080825828 0.0091342405 0)
(0.0066386971 0.0092429209 0)
(0.0051794351 0.0093301278 0)
(0.003708182 0.0093956863 0)
(0.0022283468 0.0094394649 0)
(0.00074335554 0.0094613761 0)
(-0.00075046724 0.010953794 0)
(-0.002249666 0.01092843 0)
(-0.0037436614 0.010877753 0)
(-0.0052289956 0.010801864 0)
(-0.0067022283 0.010700915 0)
(-0.0081599429 0.010575109 0)
(-0.0095987539 0.010424698 0)
(-0.011015313 0.010249985 0)
(-0.012406318 0.010051326 0)
(-0.013768515 0.0098291226 0)
(-0.015098711 0.0095838308 0)
(-0.016393778 0.0093159544 0)
(-0.017650658 0.0090260473 0)
(-0.018866374 0.0087147126 0)
(-0.020038033 0.0083826025 0)
(-0.021162834 0.0080304172 0)
(-0.022238075 0.0076589047 0)
(-0.02326116 0.00726886 0)
(-0.024229603 0.0068611238 0)
(-0.025141038 0.0064365819 0)
(-0.025993222 0.0059961639 0)
(-0.026784041 0.0055408417 0)
(-0.027511519 0.005071628 0)
(-0.028173819 0.004589575 0)
(-0.028769255 0.0040957721 0)
(-0.029296287 0.0035913441 0)
(-0.029753536 0.0030774491 0)
(-0.030139783 0.0025552761 0)
(-0.030453973 0.0020260425 0)
(-0.030695221 0.0014909915 0)
(-0.030862814 0.00095138939 0)
(-0.030956215 0.00040852248 0)
(-0.030975063 -0.00013630584 0)
(-0.030919178 -0.00068177833 0)
(-0.030788563 -0.0012265672 0)
(-0.030583401 -0.0017693373 0)
(-0.030304061 -0.0023087498 0)
(-0.029951095 -0.0028434659 0)
(-0.029525239 -0.0033721499 0)
(-0.02902741 -0.0038934733 0)
(-0.028458708 -0.0044061185 0)
(-0.027820412 -0.0049087823 0)
(-0.027113981 -0.0054001798 0)
(-0.026341044 -0.0058790482 0)
(-0.025503406 -0.0063441505 0)
(-0.024603037 -0.0067942794 0)
(-0.02364207 -0.0072282604 0)
(-0.022622798 -0.0076449562 0)
(-0.021547666 -0.0080432699 0)
(-0.020419266 -0.0084221484 0)
(-0.019240332 -0.0087805859 0)
(-0.018013732 -0.0091176274 0)
(-0.016742461 -0.0094323715 0)
(-0.015429632 -0.0097239735 0)
(-0.014078473 -0.0099916485 0)
(-0.012692313 -0.010234674 0)
(-0.011274576 -0.010452392 0)
(-0.0098287705 -0.010644211 0)
(-0.0083584835 -0.010809611 0)
(-0.0068673668 -0.01094814 0)
(-0.0053591294 -0.01105942 0)
(-0.0038375273 -0.011143148 0)
(-0.0023063527 -0.011199094 0)
(-0.00076942414 -0.011227106 0)