/*--------------------------------*- C++ -*----------------------------------*\
| =========                 |                                                 |
| \\      /  F ield         | OpenFOAM: The Open Source CFD Toolbox           |
|  \\    /   O peration     | Version:  2306                                  |
|   \\  /    A nd           | Website:  www.openfoam.com                      |
|    \\/     M anipulation  |                                                 |
\*---------------------------------------------------------------------------*/
FoamFile
{
    version     2.0;
    format      ascii;
    arch        "LSB;label=32;scalar=64";
    class       surfaceScalarField;
    location    "0.2";
    object      phi;
}
// * * * * * * * * * * * * * * * * * * * * * * * * * * * * * * * * * * * * * //

dimensions      [0 3 -1 0 0 0 0];

oriented        oriented;

internalField   nonuniform List<scalar> 
12640
(
-1.0015651e-09
1.0015651e-09
-4.3020866e-09
3.3005215e-09
-9.9050911e-09
5.6030045e-09
-1.7916083e-08
8.0109917e-09
-2.8321178e-08
1.0405095e-08
-4.1063706e-08
1.2742528e-08
-5.6102245e-08
1.5038538e-08
-7.3395517e-08
1.7293272e-08
-9.2899929e-08
1.9504412e-08
-1.1456929e-07
2.1669364e-08
-1.3835411e-07
2.378481e-08
-1.6420099e-07
2.584688e-08
-1.9205249e-07
2.785151e-08
-2.218471e-07
2.9794606e-08
-2.5351923e-07
3.167213e-08
-2.8699938e-07
3.3480144e-08
-3.2221424e-07
3.5214866e-08
-3.5908692e-07
3.6872675e-08
-3.9753704e-07
3.8450126e-08
-4.3748099e-07
3.9943951e-08
-4.7883205e-07
4.1351057e-08
-5.2150056e-07
4.2668507e-08
-5.6539423e-07
4.3893673e-08
-6.1041916e-07
4.5024933e-08
-6.5648439e-07
4.6065232e-08
-7.0351799e-07
4.7033595e-08
-7.5141009e-07
4.7892099e-08
-8.0004185e-07
4.8631765e-08
-8.49312e-07
4.9270143e-08
-8.9912193e-07
4.9809934e-08
-9.4937284e-07
5.0250913e-08
-9.9996563e-07
5.0592789e-08
-1.0508012e-06
5.0835583e-08
-1.1017809e-06
5.097973e-08
-1.152807e-06
5.1026033e-08
-1.2037826e-06
5.0975667e-08
-1.2546127e-06
5.0830097e-08
-1.3052038e-06
5.0591101e-08
-1.3554645e-06
5.0260709e-08
-1.4053057e-06
4.9841197e-08
-1.4546408e-06
4.9335061e-08
-1.5033858e-06
4.874501e-08
-1.5514598e-06
4.8073945e-08
-1.5987847e-06
4.7324925e-08
-1.6452859e-06
4.6501168e-08
-1.6908919e-06
4.5606026e-08
-1.7355349e-06
4.464299e-08
-1.7791505e-06
4.3615626e-08
-1.8216781e-06
4.2527609e-08
-1.8630608e-06
4.138266e-08
-1.9032453e-06
4.0184578e-08
-1.9421825e-06
3.8937179e-08
-1.9798268e-06
3.7644275e-08
-2.0161365e-06
3.6309742e-08
-2.0510739e-06
3.493738e-08
-2.0846049e-06
3.3530992e-08
-2.1166992e-06
3.2094335e-08
-2.1473303e-06
3.0631096e-08
-2.1764753e-06
2.9144925e-08
-2.2041146e-06
2.7639371e-08
-2.2302325e-06
2.6117882e-08
-2.2548164e-06
2.458384e-08
-2.2778569e-06
2.30405e-08
-2.2993479e-06
2.1491e-08
-2.3192862e-06
1.9938374e-08
-2.3376718e-06
1.8385507e-08
-2.354507e-06
1.6835198e-08
-2.369797e-06
1.5290083e-08
-2.3835498e-06
1.3752726e-08
-2.3957753e-06
1.2225578e-08
-2.4064864e-06
1.0711069e-08
-2.415698e-06
9.2115668e-09
-2.4234273e-06
7.7293493e-09
-2.4296937e-06
6.2663957e-09
-2.4345179e-06
4.8242036e-09
-2.4379203e-06
3.4023888e-09
-2.4399101e-06
1.9897335e-09
-2.440419e-06
5.0891844e-10
-2.4396001e-06
-8.1891941e-10
-2.0927983e-09
-2.4834994e-09
3.4850644e-09
-9.9769e-09
1.0793922e-08
-2.2541534e-08
1.8167639e-08
-4.0197425e-08
2.5666883e-08
-6.292088e-08
3.3128549e-08
-9.0659712e-08
4.048136e-08
-1.2334129e-07
4.7720114e-08
-1.6088264e-07
5.4834626e-08
-2.0319077e-07
6.181254e-08
-2.5016264e-07
6.8641234e-08
-3.0168536e-07
7.5307529e-08
-3.5763627e-07
8.1797792e-08
-4.1788311e-07
8.809835e-08
-4.8228426e-07
9.4195755e-08
-5.5068908e-07
1.0007695e-07
-6.2293835e-07
1.0572941e-07
-6.988647e-07
1.1114122e-07
-7.7829317e-07
1.1630115e-07
-8.6104177e-07
1.2119872e-07
-9.4692206e-07
1.2582424e-07
-1.0357399e-06
1.3016889e-07
-1.1272961e-06
1.3422473e-07
-1.2213873e-06
1.3798489e-07
-1.3178061e-06
1.4144371e-07
-1.4163379e-06
1.4459702e-07
-1.516745e-06
1.474407e-07
-1.6188165e-06
1.4996356e-07
-1.7223499e-06
1.5216525e-07
-1.8271277e-06
1.5404789e-07
-1.9329298e-06
1.5561207e-07
-2.0395373e-06
1.5685839e-07
-2.1467326e-06
1.5778814e-07
-2.2543005e-06
1.5840344e-07
-2.3620281e-06
1.5870734e-07
-2.4697059e-06
1.5870378e-07
-2.5771278e-06
1.5839759e-07
-2.6840921e-06
1.5779444e-07
-2.7904018e-06
1.5690081e-07
-2.895865e-06
1.5572391e-07
-3.0002955e-06
1.5427166e-07
-3.1035131e-06
1.5255263e-07
-3.205344e-06
1.5057598e-07
-3.3056215e-06
1.4835137e-07
-3.4041855e-06
1.4588902e-07
-3.5008839e-06
1.4319949e-07
-3.5955716e-06
1.4029377e-07
-3.6881118e-06
1.3718314e-07
-3.7783753e-06
1.3387915e-07
-3.8662413e-06
1.3039357e-07
-3.9515969e-06
1.267383e-07
-4.0343377e-06
1.2292535e-07
-4.1143673e-06
1.1896683e-07
-4.1915978e-06
1.1487475e-07
-4.2659492e-06
1.1066119e-07
-4.3373499e-06
1.0633804e-07
-4.405736e-06
1.0191712e-07
-4.4710517e-06
9.7410036e-08
-4.5332488e-06
9.2828205e-08
-4.5922867e-06
8.8182791e-08
-4.648132e-06
8.3484679e-08
-4.7007585e-06
7.8744418e-08
-4.750147e-06
7.3972252e-08
-4.7962845e-06
6.9178062e-08
-4.8391648e-06
6.4371318e-08
-4.8787876e-06
5.9561139e-08
-4.9151583e-06
5.4756206e-08
-4.9482879e-06
4.9964792e-08
-4.9781926e-06
4.5194771e-08
-5.0048935e-06
4.0453636e-08
-5.0284164e-06
3.5748479e-08
-5.0487915e-06
3.1086149e-08
-5.0660531e-06
2.6473196e-08
-5.0802396e-06
2.191585e-08
-5.091393e-06
1.7419768e-08
-5.0995585e-06
1.2989742e-08
-5.1047879e-06
8.6317747e-09
-5.1071542e-06
4.3560414e-09
-5.1068153e-06
1.6998966e-10
-5.1036128e-06
-4.0214379e-09
-8.1065782e-09
-3.2563575e-09
6.741422e-09
-1.2911921e-08
2.0449485e-08
-2.8986259e-08
3.4241977e-08
-5.1433557e-08
4.8114181e-08
-8.0219043e-08
6.1914036e-08
-1.152926e-07
7.5554912e-08
-1.5657514e-07
8.9002658e-08
-2.0396796e-07
1.0222745e-07
-2.5735613e-07
1.1520071e-07
-3.1660962e-07
1.2789472e-07
-3.8158423e-07
1.4028214e-07
-4.5212235e-07
1.5233591e-07
-5.2805357e-07
1.6402957e-07
-6.0919523e-07
1.7533742e-07
-6.9535305e-07
1.8623478e-07
-7.8632176e-07
1.9669811e-07
-8.8188572e-07
2.0670518e-07
-9.8181972e-07
2.1623515e-07
-1.0858897e-06
2.2526865e-07
-1.1938533e-06
2.3378792e-07
-1.3054613e-06
2.4177681e-07
-1.4204575e-06
2.4922092e-07
-1.5385802e-06
2.5610764e-07
-1.6595627e-06
2.6242618e-07
-1.7831333e-06
2.6816762e-07
-1.9090171e-06
2.733245e-07
-2.0369426e-06
2.7788905e-07
-2.1666343e-06
2.8185695e-07
-2.2978139e-06
2.8522749e-07
-2.4302034e-06
2.8800161e-07
-2.5635266e-06
2.9018154e-07
-2.6975093e-06
2.9177091e-07
-2.8318808e-06
2.9277489e-07
-2.9663737e-06
2.9320024e-07
-3.1007252e-06
2.9305529e-07
-3.2346775e-06
2.9234992e-07
-3.3679786e-06
2.9109551e-07
-3.5003826e-06
2.8930485e-07
-3.6316508e-06
2.8699209e-07
-3.7615517e-06
2.8417259e-07
-3.889862e-06
2.8086289e-07
-4.0163666e-06
2.7708056e-07
-4.1408593e-06
2.7284413e-07
-4.2631433e-06
2.6817298e-07
-4.383031e-06
2.6308721e-07
-4.5003448e-06
2.5760757e-07
-4.614917e-06
2.5175536e-07
-4.7265902e-06
2.4555228e-07
-4.835217e-06
2.3902039e-07
-4.9406607e-06
2.3218197e-07
-5.0427948e-06
2.2505946e-07
-5.1415033e-06
2.1767533e-07
-5.2366805e-06
2.1005198e-07
-5.328231e-06
2.0221173e-07
-5.4160696e-06
1.9417663e-07
-5.500121e-06
1.8596847e-07
-5.5803196e-06
1.7760868e-07
-5.6566097e-06
1.6911824e-07
-5.7289445e-06
1.6051765e-07
-5.7972867e-06
1.5182685e-07
-5.8616075e-06
1.4306518e-07
-5.9218866e-06
1.3425134e-07
-5.9781118e-06
1.2540334e-07
-6.030279e-06
1.1653844e-07
-6.078391e-06
1.0767322e-07
-6.1224583e-06
9.8823427e-08
-6.1624976e-06
9.0004086e-08
-6.1985322e-06
8.122941e-08
-6.2305914e-06
7.2512877e-08
-6.2587102e-06
6.3867257e-08
-6.2829288e-06
5.5304686e-08
-6.3032923e-06
4.6836747e-08
-6.319851e-06
3.8474548e-08
-6.33266e-06
3.0228733e-08
-6.3417797e-06
2.2109479e-08
-6.3472763e-06
1.4128344e-08
-6.3492297e-06
6.3094568e-09
-6.3477123e-06
-1.3474247e-09
-6.3426747e-06
-9.0590063e-09
-1.6521871e-08
-3.5699881e-09
1.031141e-08
-1.417689e-08
3.1056387e-08
-3.1784208e-08
5.1849295e-08
-5.632324e-08
7.2653212e-08
-8.7745969e-08
9.3336765e-08
-1.2599584e-07
1.1380479e-07
-1.7099043e-07
1.3399725e-07
-2.2262526e-07
1.5386228e-07
-2.8077675e-07
1.733522e-07
-3.4530376e-07
1.9242174e-07
-4.1604884e-07
2.1102722e-07
-4.9283924e-07
2.2912631e-07
-5.7548779e-07
2.4667812e-07
-6.637937e-07
2.6364332e-07
-7.5754329e-07
2.7998436e-07
-8.5651077e-07
2.9566559e-07
-9.6045903e-07
3.1065344e-07
-1.0691405e-06
3.2491659e-07
-1.1822978e-06
3.3842601e-07
-1.2996651e-06
3.5115517e-07
-1.4209683e-06
3.6308003e-07
-1.5459266e-06
3.7417921e-07
-1.674253e-06
3.8443402e-07
-1.8056553e-06
3.938285e-07
-1.9398371e-06
4.0234948e-07
-2.076499e-06
4.0998639e-07
-2.2153406e-06
4.1673064e-07
-2.3560603e-06
4.2257659e-07
-2.4983552e-06
4.2752238e-07
-2.6419228e-06
4.3156923e-07
-2.7864621e-06
4.3472087e-07
-2.9316747e-06
4.3698351e-07
-3.0772655e-06
4.3836573e-07
-3.2229439e-06
4.3887857e-07
-3.368424e-06
4.3853537e-07
-3.5134258e-06
4.3735179e-07
-3.657676e-06
4.3534569e-07
-3.8009081e-06
4.3253697e-07
-3.9428636e-06
4.2894756e-07
-4.0832922e-06
4.2460115e-07
-4.2219524e-06
4.1952315e-07
-4.3586124e-06
4.137405e-07
-4.4930497e-06
4.072815e-07
-4.6250524e-06
4.0017569e-07
-4.7544189e-06
3.9245369e-07
-4.8809583e-06
3.8414699e-07
-5.0044909e-06
3.752879e-07
-5.1248479e-06
3.6590928e-07
-5.2418719e-06
3.5604444e-07
-5.355417e-06
3.4572705e-07
-5.4653485e-06
3.3499089e-07
-5.5715429e-06
3.2386978e-07
-5.6738883e-06
3.1239742e-07
-5.7722839e-06
3.0060726e-07
-5.8666397e-06
2.8853241e-07
-5.9568767e-06
2.7620549e-07
-6.0429265e-06
2.6365855e-07
-6.1247312e-06
2.5092292e-07
-6.2022428e-06
2.3802921e-07
-6.275423e-06
2.2500713e-07
-6.3442434e-06
2.118855e-07
-6.4086842e-06
1.9869213e-07
-6.4687346e-06
1.8545378e-07
-6.5243923e-06
1.7219609e-07
-6.5756627e-06
1.5894361e-07
-6.6225589e-06
1.4571969e-07
-6.6651014e-06
1.3254652e-07
-6.7033171e-06
1.1944509e-07
-6.7372394e-06
1.0643522e-07
-6.7669078e-06
9.3535616e-08
-6.7923669e-06
8.0763865e-08
-6.8136668e-06
6.8136616e-08
-6.8308619e-06
5.5669622e-08
-6.8440111e-06
4.337797e-08
-6.8531783e-06
3.127661e-08
-6.8584333e-06
1.9383418e-08
-6.8598603e-06
7.7364e-09
-6.8574822e-06
-3.7254819e-09
-6.8514297e-06
-1.5111504e-08
-2.6202717e-08
-3.6827481e-09
1.3994158e-08
-1.4662401e-08
4.203604e-08
-3.2889801e-08
7.0076696e-08
-5.8293995e-08
9.8057405e-08
-9.0815949e-08
1.2585872e-07
-1.3038919e-07
1.5337803e-07
-1.7692643e-07
1.8053449e-07
-2.303196e-07
2.0725544e-07
-2.9044113e-07
2.3347373e-07
-3.5714519e-07
2.5912581e-07
-4.3026884e-07
2.8415086e-07
-5.0963298e-07
3.0849045e-07
-5.9504336e-07
3.3208851e-07
-6.8629143e-07
3.5489139e-07
-7.8315513e-07
3.7684807e-07
-8.8539981e-07
3.9791027e-07
-9.92779e-07
4.1803263e-07
-1.1050353e-06
4.3717294e-07
-1.2219015e-06
4.5529216e-07
-1.343101e-06
4.7235468e-07
-1.4683493e-06
4.8832834e-07
-1.5973547e-06
5.0318458e-07
-1.7298192e-06
5.1689852e-07
-1.8654396e-06
5.2944894e-07
-2.0039086e-06
5.4081843e-07
-2.1449154e-06
5.5099318e-07
-2.2881477e-06
5.5996295e-07
-2.4332924e-06
5.6772136e-07
-2.5800362e-06
5.7426618e-07
-2.7280661e-06
5.7959909e-07
-2.8770707e-06
5.8372543e-07
-3.0267412e-06
5.8665402e-07
-3.1767725e-06
5.8839707e-07
-3.326864e-06
5.8897007e-07
-3.4767204e-06
5.883917e-07
-3.6260523e-06
5.8668376e-07
-3.7745775e-06
5.8387089e-07
-3.9220212e-06
5.799806e-07
-4.0681165e-06
5.7504295e-07
-4.2126058e-06
5.6909042e-07
-4.3552404e-06
5.6215772e-07
-4.4957815e-06
5.5428162e-07
-4.6340007e-06
5.4550066e-07
-4.76968e-06
5.3585501e-07
-4.9026126e-06
5.2538624e-07
-5.0326026e-06
5.1413709e-07
-5.1594661e-06
5.0215132e-07
-5.2830302e-06
4.8947341e-07
-5.4031342e-06
4.7614842e-07
-5.5196289e-06
4.6222178e-07
-5.6323771e-06
4.4773911e-07
-5.7412534e-06
4.32746e-07
-5.8461438e-06
4.1728782e-07
-5.9469461e-06
4.0140963e-07
-6.0435696e-06
3.851559e-07
-6.1359346e-06
3.6857048e-07
-6.2239724e-06
3.5169638e-07
-6.3076252e-06
3.3457567e-07
-6.3868453e-06
3.172493e-07
-6.4615953e-06
2.9975713e-07
-6.5318475e-06
2.8213769e-07
-6.5975835e-06
2.6442816e-07
-6.658794e-06
2.4666431e-07
-6.7154783e-06
2.2888038e-07
-6.7676437e-06
2.1110908e-07
-6.8153056e-06
1.9338158e-07
-6.8584865e-06
1.757274e-07
-6.8972159e-06
1.5817447e-07
-6.9315298e-06
1.4074911e-07
-6.9614702e-06
1.2347605e-07
-6.9870848e-06
1.0637848e-07
-7.0084264e-06
8.9478148e-08
-7.0255522e-06
7.2795412e-08
-7.0385236e-06
5.6349436e-08
-7.0474057e-06
4.0158731e-08
-7.0522655e-06
2.424314e-08
-7.0531644e-06
8.6353313e-09
-7.0501585e-06
-6.7313985e-09
-7.0434028e-06
-2.1867163e-08
-3.666038e-08
-3.7245514e-09
1.771871e-08
-1.4861803e-08
5.3173292e-08
-3.3365792e-08
8.8580685e-08
-5.9172252e-08
1.2386387e-07
-9.2216299e-08
1.5890277e-07
-1.324231e-07
1.9358483e-07
-1.7969998e-07
2.2781137e-07
-2.3393526e-07
2.6149072e-07
-2.9499838e-07
2.9453685e-07
-3.6274063e-07
3.2686806e-07
-4.36996e-07
3.5840623e-07
-5.1758206e-07
3.8907651e-07
-6.0430085e-07
4.1880729e-07
-6.9693975e-07
4.4753029e-07
-7.9527234e-07
4.7518066e-07
-8.9905928e-07
5.016972e-07
-1.0080492e-06
5.2702252e-07
-1.1219795e-06
5.5110325e-07
-1.2405775e-06
5.7389019e-07
-1.3635613e-06
5.9533845e-07
-1.4906406e-06
6.1540762e-07
-1.6215178e-06
6.3406186e-07
-1.7558893e-06
6.5127001e-07
-1.893446e-06
6.6700563e-07
-2.0338746e-06
6.8124706e-07
-2.1768589e-06
6.939774e-07
-2.3220804e-06
7.0518448e-07
-2.46922e-06
7.1486098e-07
-2.6179584e-06
7.2300456e-07
-2.7679769e-06
7.2961765e-07
-2.9189589e-06
7.3470737e-07
-3.0705902e-06
7.3828532e-07
-3.2225606e-06
7.4036747e-07
-3.3745645e-06
7.4097396e-07
-3.5263017e-06
7.4012898e-07
-3.6774786e-06
7.3786063e-07
-3.8278084e-06
7.3420067e-07
-3.9770121e-06
7.2918436e-07
-4.1248194e-06
7.2285021e-07
-4.2709688e-06
7.1523976e-07
-4.4152083e-06
7.0639731e-07
-4.5572964e-06
6.9636971e-07
-4.6970018e-06
6.8520605e-07
-4.8341042e-06
6.7295742e-07
-4.9683946e-06
6.5967665e-07
-5.0996755e-06
6.45418e-07
-5.2277612e-06
6.3023696e-07
-5.3524777e-06
6.1418992e-07
-5.4736632e-06
5.9733395e-07
-5.591168e-06
5.7972655e-07
-5.7048543e-06
5.6142538e-07
-5.8145963e-06
5.4248807e-07
-5.9202804e-06
5.2297193e-07
-6.0218046e-06
5.0293378e-07
-6.1190784e-06
4.8242975e-07
-6.212023e-06
4.6151507e-07
-6.3005706e-06
4.4024391e-07
-6.3846641e-06
4.1866921e-07
-6.4642573e-06
3.9684251e-07
-6.5393141e-06
3.7481388e-07
-6.6098081e-06
3.526317e-07
-6.6757226e-06
3.3034269e-07
-6.73705e-06
3.0799169e-07
-6.7937913e-06
2.8562162e-07
-6.8459557e-06
2.6327349e-07
-6.8935603e-06
2.4098627e-07
-6.9366298e-06
2.1879687e-07
-6.9751956e-06
1.9674022e-07
-7.0092955e-06
1.7484907e-07
-7.0389737e-06
1.5315422e-07
-7.0642796e-06
1.3168434e-07
-7.0852676e-06
1.1046621e-07
-7.1019968e-06
8.9524638e-08
-7.1145301e-06
6.8882743e-08
-7.1229339e-06
4.8562517e-08
-7.1272776e-06
2.8586836e-08
-7.1276316e-06
8.9892629e-09
-7.1240673e-06
-1.0295631e-08
-7.1167038e-06
-2.9230684e-08
-4.7755392e-08
-3.7516809e-09
2.147039e-08
-1.498897e-08
6.4410581e-08
-3.3673479e-08
1.0726519e-07
-5.9748561e-08
1.4993895e-07
-9.3147233e-08
1.9230144e-07
-1.3378912e-07
2.3422671e-07
-1.8157688e-07
2.7559914e-07
-2.3639519e-07
3.1630903e-07
-2.9811046e-07
3.5625211e-07
-3.6657121e-07
3.9532881e-07
-4.4160871e-07
4.3344373e-07
-5.2303772e-07
4.7050552e-07
-6.1065727e-07
5.0642684e-07
-7.0425151e-07
5.4112453e-07
-8.0359057e-07
5.7451972e-07
-9.0843143e-07
6.0653806e-07
-1.0185188e-06
6.3710993e-07
-1.1335862e-06
6.6617064e-07
-1.2533566e-06
6.9366063e-07
-1.3775438e-06
7.1952565e-07
-1.5058531e-06
7.4371691e-07
-1.6379825e-06
7.6619122e-07
-1.7736236e-06
7.869111e-07
-1.9124628e-06
8.0584486e-07
-2.0541824e-06
8.2296662e-07
-2.1984614e-06
8.3825637e-07
-2.3449768e-06
8.5169996e-07
-2.493405e-06
8.6328913e-07
-2.6434219e-06
8.7302147e-07
-2.7947047e-06
8.8090041e-07
-2.9469323e-06
8.8693499e-07
-3.0997868e-06
8.9113979e-07
-3.2529539e-06
8.9353463e-07
-3.4061244e-06
8.9414449e-07
-3.5589948e-06
8.9299929e-07
-3.7112677e-06
8.901336e-07
-3.8626536e-06
8.855865e-07
-4.0128704e-06
8.7940124e-07
-4.1616453e-06
8.7162503e-07
-4.3087142e-06
8.6230868e-07
-4.4538232e-06
8.5150637e-07
-4.5967288e-06
8.3927528e-07
-4.7371981e-06
8.2567532e-07
-4.8750094e-06
8.1076875e-07
-5.0099526e-06
7.9461991e-07
-5.1418295e-06
7.7729487e-07
-5.2704536e-06
7.5886107e-07
-5.3956508e-06
7.3938708e-07
-5.5172591e-06
7.1894222e-07
-5.6351288e-06
6.9759626e-07
-5.7491225e-06
6.7541917e-07
-5.8591153e-06
6.5248079e-07
-5.9649939e-06
6.2885057e-07
-6.0666574e-06
6.045973e-07
-6.1640166e-06
5.7978892e-07
-6.2569937e-06
5.5449223e-07
-6.3455225e-06
5.2877267e-07
-6.4295475e-06
5.0269421e-07
-6.5090241e-06
4.7631907e-07
-6.5839178e-06
4.4970764e-07
-6.6542044e-06
4.2291828e-07
-6.719869e-06
3.9600725e-07
-6.7809058e-06
3.6902858e-07
-6.8373181e-06
3.420339e-07
-6.8891172e-06
3.1507254e-07
-6.9363222e-06
2.8819129e-07
-6.9789598e-06
2.6143451e-07
-7.0170636e-06
2.3484403e-07
-7.0506737e-06
2.0845915e-07
-7.0798361e-06
1.8231663e-07
-7.1046026e-06
1.5645076e-07
-7.1250297e-06
1.3089335e-07
-7.1411789e-06
1.056738e-07
-7.1531153e-06
8.0819158e-08
-7.1609073e-06
5.6354546e-08
-7.1646238e-06
3.2303345e-08
-7.1643258e-06
8.6912687e-09
-7.1601156e-06
-1.4505829e-08
-7.1520962e-06
-3.7250072e-08
-5.9515781e-08
-3.7821199e-09
2.525251e-08
-1.511964e-08
7.5748101e-08
-3.3980585e-08
1.2612614e-07
-6.0314122e-08
1.7627248e-07
-9.4052959e-08
2.2604028e-07
-1.3511338e-07
2.7528714e-07
-1.8339441e-07
3.2388016e-07
-2.3877723e-07
3.7169185e-07
-3.0112506e-07
4.1859994e-07
-3.7028336e-07
4.6448711e-07
-4.4608037e-07
5.0924074e-07
-5.2832772e-07
5.5275286e-07
-6.1682116e-07
5.9492029e-07
-7.1134139e-07
6.3564476e-07
-8.1165487e-07
6.748332e-07
-9.1751471e-07
7.123979e-07
-1.0286616e-06
7.4825683e-07
-1.1448248e-06
7.823338e-07
-1.2657229e-06
8.1455876e-07
-1.3910652e-06
8.4486796e-07
-1.5205524e-06
8.7320412e-07
-1.6538779e-06
8.9951663e-07
-1.7907284e-06
9.2376164e-07
-1.9307857e-06
9.4590216e-07
-2.0737272e-06
9.6590812e-07
-2.2192272e-06
9.8375642e-07
-2.3669582e-06
9.994309e-07
-2.5165914e-06
1.0129224e-06
-2.6677984e-06
1.0242285e-06
-2.8202519e-06
1.0333538e-06
-2.9736264e-06
1.0403096e-06
-3.1276e-06
1.0451133e-06
-3.2818543e-06
1.047789e-06
-3.4360766e-06
1.0483667e-06
-3.5899594e-06
1.0468822e-06
-3.7432025e-06
1.0433767e-06
-3.895513e-06
1.0378969e-06
-4.0466062e-06
1.0304944e-06
-4.1962064e-06
1.0212252e-06
-4.3440475e-06
1.0101498e-06
-4.4898736e-06
9.9733247e-07
-4.6334393e-06
9.8284099e-07
-4.7745104e-06
9.6674638e-07
-4.9128641e-06
9.491224e-07
-5.0482893e-06
9.3004517e-07
-5.1805873e-06
9.0959281e-07
-5.3095712e-06
8.8784505e-07
-5.435067e-06
8.6488287e-07
-5.5569129e-06
8.4078808e-07
-5.6749596e-06
8.1564302e-07
-5.7890706e-06
7.8953016e-07
-5.8991217e-06
7.6253182e-07
-6.0050008e-06
7.3472974e-07
-6.1066085e-06
7.0620497e-07
-6.2038569e-06
6.7703735e-07
-6.2966702e-06
6.4730544e-07
-6.3849836e-06
6.1708614e-07
-6.4687439e-06
5.8645453e-07
-6.5479085e-06
5.5548365e-07
-6.6224452e-06
5.2424432e-07
-6.6923319e-06
4.9280494e-07
-6.757556e-06
4.6123142e-07
-6.8181144e-06
4.2958696e-07
-6.8740125e-06
3.9793201e-07
-6.9252642e-06
3.6632417e-07
-6.971891e-06
3.3481814e-07
-7.0139222e-06
3.0346567e-07
-7.0513936e-06
2.723155e-07
-7.0843479e-06
2.4141341e-07
-7.1128334e-06
2.1080215e-07
-7.1369042e-06
1.8052152e-07
-7.1566192e-06
1.5060836e-07
-7.172042e-06
1.2109661e-07
-7.1832401e-06
9.2017298e-08
-7.1902842e-06
6.3398676e-08
-7.1932467e-06
3.5265816e-08
-7.1921955e-06
7.6400595e-09
-7.1872347e-06
-1.9466621e-08
-7.1784492e-06
-4.6035572e-08
-7.2045025e-08
-3.8201451e-09
2.9072655e-08
-1.5275525e-08
8.7203482e-08
-3.4338304e-08
1.4518892e-07
-6.0961323e-08
2.028955e-07
-9.507746e-08
2.6015641e-07
-1.366009e-07
3.1681058e-07
-1.8542774e-07
3.7270699e-07
-2.414359e-07
4.2770002e-07
-3.0448528e-07
4.8164931e-07
-3.7441792e-07
5.3441976e-07
-4.5105857e-07
5.8588139e-07
-5.342152e-07
6.359095e-07
-6.2367976e-07
6.8438484e-07
-7.1922889e-07
7.311939e-07
-8.2062483e-07
7.7622913e-07
-9.2761623e-07
8.193893e-07
-1.0399391e-06
8.6057973e-07
-1.1573179e-06
8.9971259e-07
-1.2794663e-06
9.3670713e-07
-1.4060883e-06
9.7148998e-07
-1.5368795e-06
1.0039953e-06
-1.6715277e-06
1.0341649e-06
-1.8097145e-06
1.0619485e-06
-1.9511162e-06
1.0873038e-06
-2.0954047e-06
1.1101966e-06
-2.2422489e-06
1.1306007e-06
-2.3913159e-06
1.1484979e-06
-2.5422718e-06
1.1638782e-06
-2.6947827e-06
1.1767395e-06
-2.8485164e-06
1.1870875e-06
-3.0031426e-06
1.1949358e-06
-3.1583345e-06
1.2003052e-06
-3.3137696e-06
1.2032241e-06
-3.4691305e-06
1.2037276e-06
-3.6241061e-06
1.2018578e-06
-3.7783924e-06
1.197663e-06
-3.9316929e-06
1.1911975e-06
-4.08372e-06
1.1825215e-06
-4.2341951e-06
1.1717003e-06
-4.3828495e-06
1.1588043e-06
-4.5294252e-06
1.1439081e-06
-4.6736749e-06
1.1270907e-06
-4.8153629e-06
1.1084344e-06
-4.9542652e-06
1.0880247e-06
-5.0901699e-06
1.0659499e-06
-5.2228777e-06
1.0423006e-06
-5.3522016e-06
1.0171689e-06
-5.4779675e-06
9.9064876e-07
-5.600014e-06
9.6283463e-07
-5.7181927e-06
9.3382172e-07
-5.8323679e-06
9.037053e-07
-5.9424164e-06
8.7258038e-07
-6.048228e-06
8.4054132e-07
-6.1497046e-06
8.0768152e-07
-6.2467603e-06
7.7409304e-07
-6.3393211e-06
7.3986632e-07
-6.4273249e-06
7.0508991e-07
-6.5107205e-06
6.6985016e-07
-6.5894679e-06
6.3423105e-07
-6.6635375e-06
5.9831393e-07
-6.7329099e-06
5.6217734e-07
-6.7975754e-06
5.2589688e-07
-6.8575335e-06
4.8954502e-07
-6.9127925e-06
4.5319105e-07
-6.9633692e-06
4.1690088e-07
-7.0092882e-06
3.8073709e-07
-7.0505813e-06
3.4475879e-07
-7.0872875e-06
3.0902167e-07
-7.119452e-06
2.735779e-07
-7.147126e-06
2.3847619e-07
-7.1703663e-06
2.0376178e-07
-7.1892344e-06
1.694765e-07
-7.2037966e-06
1.3565878e-07
-7.2141229e-06
1.0234367e-07
-7.2202872e-06
6.9562893e-08
-7.2223658e-06
3.7344498e-08
-7.220431e-06
5.7051993e-09
-7.2145859e-06
-2.5311726e-08
-7.2049101e-06
-5.5711401e-08
-8.5464722e-08
-3.8661467e-09
3.2938802e-08
-1.5461034e-08
9.8798369e-08
-3.4759126e-08
1.6448701e-07
-6.1715242e-08
2.2985162e-07
-9.6262264e-08
2.9470344e-07
-1.3831275e-07
3.5886107e-07
-1.8776021e-07
4.2215445e-07
-2.4447944e-07
4.8441925e-07
-3.0832683e-07
5.454967e-07
-3.7914071e-07
6.0523364e-07
-4.5674184e-07
6.6348252e-07
-5.4093401e-07
7.2010167e-07
-6.3150472e-07
7.7495555e-07
-7.2822595e-07
8.2791512e-07
-8.3085499e-07
8.7885817e-07
-9.3913534e-07
9.2766966e-07
-1.0527977e-06
9.7424205e-07
-1.1715607e-06
1.0184757e-06
-1.2951325e-06
1.0602789e-06
-1.4232111e-06
1.0995686e-06
-1.5554859e-06
1.1362701e-06
-1.6916388e-06
1.1703177e-06
-1.8313451e-06
1.2016547e-06
-1.9742747e-06
1.2302334e-06
-2.1200935e-06
1.2560154e-06
-2.268464e-06
1.2789712e-06
-2.4190472e-06
1.2990811e-06
-2.5715031e-06
1.316334e-06
-2.7254919e-06
1.3307283e-06
-2.8806755e-06
1.3422711e-06
-3.0367182e-06
1.3509784e-06
-3.1932877e-06
1.3568747e-06
-3.3500565e-06
1.3599928e-06
-3.5067023e-06
1.3603735e-06
-3.6629095e-06
1.358065e-06
-3.8183698e-06
1.3531232e-06
-3.9727829e-06
1.3456106e-06
-4.1258575e-06
1.3355961e-06
-4.2773119e-06
1.3231547e-06
-4.4268746e-06
1.308367e-06
-4.5742851e-06
1.2913186e-06
-4.719294e-06
1.2720997e-06
-4.861664e-06
1.2508044e-06
-5.0011697e-06
1.2275304e-06
-5.1375985e-06
1.2023787e-06
-5.2707502e-06
1.1754523e-06
-5.4004379e-06
1.1468566e-06
-5.5264876e-06
1.1166984e-06
-5.6487384e-06
1.0850855e-06
-5.7670428e-06
1.0521261e-06
-5.881266e-06
1.0179286e-06
-5.9912867e-06
9.8260102e-07
-6.096996e-06
9.4625062e-07
-6.1982979e-06
9.0898343e-07
-6.2951088e-06
8.7090392e-07
-6.3873571e-06
8.3211466e-07
-6.4749832e-06
7.9271599e-07
-6.5579388e-06
7.5280572e-07
-6.6361866e-06
7.1247892e-07
-6.7097003e-06
6.7182759e-07
-6.7784634e-06
6.309405e-07
-6.8424696e-06
5.8990304e-07
-6.9017216e-06
5.4879701e-07
-6.9562311e-06
5.0770052e-07
-7.0060181e-06
4.6668788e-07
-7.0511105e-06
4.258295e-07
-7.0915436e-06
3.851919e-07
-7.1273595e-06
3.4483763e-07
-7.1586069e-06
3.0482522e-07
-7.18534e-06
2.652093e-07
-7.2076187e-06
2.2604049e-07
-7.2255077e-06
1.8736554e-07
-7.2390762e-06
1.4922728e-07
-7.2483973e-06
1.1166476e-07
-7.2535475e-06
7.4713104e-08
-7.2546059e-06
3.8402887e-08
-7.2516557e-06
2.7550234e-09
-7.2447876e-06
-3.2179864e-08
-7.234089e-06
-6.6410045e-08
-9.990498e-08
-3.9198283e-09
3.685863e-08
-1.5676338e-08
1.1055488e-07
-3.52451e-08
1.8405577e-07
-6.2581746e-08
2.5718826e-07
-9.7618756e-08
3.2974045e-07
-1.4026708e-07
4.0150939e-07
-1.9041772e-07
4.7230509e-07
-2.4794227e-07
5.419438e-07
-3.1269344e-07
6.1024787e-07
-3.8450548e-07
6.7704568e-07
-4.6319473e-07
7.4217177e-07
-5.4856023e-07
8.0546717e-07
-6.4038443e-07
8.6677975e-07
-7.3843396e-07
9.2596465e-07
-8.4246048e-07
9.8288469e-07
-9.5220158e-07
1.0374108e-06
-1.0673818e-06
1.0894222e-06
-1.1877134e-06
1.1388073e-06
-1.3128978e-06
1.1854633e-06
-1.4426264e-06
1.2292972e-06
-1.5765817e-06
1.2702254e-06
-1.7144385e-06
1.3081745e-06
-1.855865e-06
1.3430812e-06
-2.000524e-06
1.3748925e-06
-2.1480742e-06
1.4035656e-06
-2.2981713e-06
1.4290683e-06
-2.4504689e-06
1.4513787e-06
-2.6046203e-06
1.4704854e-06
-2.760279e-06
1.486387e-06
-2.9171002e-06
1.4990923e-06
-3.0747419e-06
1.5086201e-06
-3.2328658e-06
1.5149986e-06
-3.3911384e-06
1.5182654e-06
-3.5492321e-06
1.5184672e-06
-3.7068261e-06
1.5156591e-06
-3.8636072e-06
1.5099044e-06
-4.0192709e-06
1.5012742e-06
-4.1735217e-06
1.4898469e-06
-4.3260744e-06
1.4757074e-06
-4.4766544e-06
1.458947e-06
-4.6249983e-06
1.4396625e-06
-4.7708546e-06
1.4179559e-06
-4.9139839e-06
1.3939336e-06
-5.0541595e-06
1.3677061e-06
-5.1911677e-06
1.3393869e-06
-5.324808e-06
1.3090926e-06
-5.4548931e-06
1.2769417e-06
-5.5812493e-06
1.2430547e-06
-5.7037165e-06
1.2075527e-06
-5.822148e-06
1.1705575e-06
-5.9364106e-06
1.1321912e-06
-6.0463845e-06
1.0925749e-06
-6.1519629e-06
1.051829e-06
-6.2530521e-06
1.0100727e-06
-6.3495711e-06
9.6742286e-07
-6.441451e-06
9.239946e-07
-6.5286352e-06
8.7990021e-07
-6.6110787e-06
8.3524919e-07
-6.6887475e-06
7.9014777e-07
-6.7616188e-06
7.4469881e-07
-6.8296797e-06
6.9900141e-07
-6.8929274e-06
6.5315081e-07
-6.9513686e-06
6.0723821e-07
-7.0050187e-06
5.6135062e-07
-7.0539015e-06
5.1557069e-07
-7.0980488e-06
4.6997674e-07
-7.1374995e-06
4.2464262e-07
-7.1722996e-06
3.7963772e-07
-7.2025013e-06
3.3502694e-07
-7.2281627e-06
2.9087067e-07
-7.2493471e-06
2.4722491e-07
-7.2661228e-06
2.0414119e-07
-7.2785622e-06
1.6166673e-07
-7.2867418e-06
1.1984438e-07
-7.2907414e-06
7.8712635e-08
-7.2906427e-06
3.8304227e-08
-7.2865382e-06
-1.3494544e-09
-7.2785099e-06
-4.0208192e-08
-7.2666526e-06
-7.8267377e-08
-1.1550013e-07
-3.980969e-09
4.0839599e-08
-1.5921119e-08
1.2249503e-07
-3.5796409e-08
2.0393106e-07
-6.3562518e-08
2.8495437e-07
-9.9151085e-08
3.6532901e-07
-1.4247125e-07
4.4482956e-07
-1.9341136e-07
5.2324519e-07
-2.5183966e-07
6.003721e-07
-3.1760488e-07
6.760131e-07
-3.9053683e-07
7.4997763e-07
-4.7044697e-07
8.2208191e-07
-5.5712904e-07
8.9214924e-07
-6.5035982e-07
9.6001053e-07
-7.4989992e-07
1.0255047e-06
-8.5549462e-07
1.0884794e-06
-9.6687486e-07
1.148791e-06
-1.0837581e-06
1.2063055e-06
-1.2058497e-06
1.2608988e-06
-1.3328433e-06
1.3124569e-06
-1.4644227e-06
1.3608766e-06
-1.6002627e-06
1.4060654e-06
-1.7400301e-06
1.4479419e-06
-1.8833851e-06
1.4864363e-06
-2.0299826e-06
1.52149e-06
-2.1794731e-06
1.5530561e-06
-2.3315043e-06
1.5810995e-06
-2.4857221e-06
1.6055965e-06
-2.6417718e-06
1.6265351e-06
-2.7992993e-06
1.6439146e-06
-2.9579526e-06
1.6577456e-06
-3.1173824e-06
1.6680499e-06
-3.2772436e-06
1.6748598e-06
-3.4371962e-06
1.678218e-06
-3.5969064e-06
1.6781774e-06
-3.7560477e-06
1.6748004e-06
-3.9143015e-06
1.6681582e-06
-4.0713583e-06
1.658331e-06
-4.2269183e-06
1.6454068e-06
-4.3806921e-06
1.6294812e-06
-4.5324016e-06
1.6106565e-06
-4.6817804e-06
1.5890413e-06
-4.8285745e-06
1.56475e-06
-4.9725424e-06
1.5379016e-06
-5.113456e-06
1.5086196e-06
-5.2511004e-06
1.4770313e-06
-5.3852745e-06
1.4432667e-06
-5.515791e-06
1.4074583e-06
-5.6424765e-06
1.3697402e-06
-5.7651718e-06
1.3302479e-06
-5.8837313e-06
1.289117e-06
-5.9980234e-06
1.2464833e-06
-6.1079303e-06
1.2024818e-06
-6.2133476e-06
1.1572463e-06
-6.3141842e-06
1.1109092e-06
-6.4103619e-06
1.0636006e-06
-6.5018152e-06
1.0154479e-06
-6.5884909e-06
9.665759e-07
-6.6703475e-06
9.1710579e-07
-6.747355e-06
8.6715527e-07
-6.8194943e-06
8.1683813e-07
-6.8867569e-06
7.6626395e-07
-6.949144e-06
7.1553792e-07
-7.0066665e-06
6.6476073e-07
-7.0593441e-06
6.1402823e-07
-7.107205e-06
5.6343155e-07
-7.1502851e-06
5.1305684e-07
-7.1886277e-06
4.6298527e-07
-7.222283e-06
4.1329306e-07
-7.2513074e-06
3.6405133e-07
-7.275763e-06
3.1532627e-07
-7.2957172e-06
2.6717908e-07
-7.3112421e-06
2.1966605e-07
-7.322414e-06
1.7283861e-07
-7.329313e-06
1.2674341e-07
-7.3320225e-06
8.142215e-08
-7.3306281e-06
3.6909781e-08
-7.3252245e-06
-6.7530407e-09
-7.3158978e-06
-4.9534859e-08
-7.3027438e-06
-9.1421349e-08
-1.3238701e-07
-4.0495088e-09
4.4889108e-08
-1.6195357e-08
1.3464088e-07
-3.6413458e-08
2.2414916e-07
-6.4659032e-08
3.1319995e-07
-1.0086247e-07
4.0153245e-07
-1.4493082e-07
4.8889792e-07
-1.9674952e-07
5.7506389e-07
-2.5618316e-07
6.5980574e-07
-3.230762e-07
7.4290615e-07
-3.972536e-07
8.2415503e-07
-4.7852143e-07
9.0334973e-07
-5.6666757e-07
9.8029538e-07
-6.6146251e-07
1.0548055e-06
-7.6266013e-07
1.1267024e-06
-8.6999863e-07
1.1958179e-06
-9.8320146e-07
1.2619938e-06
-1.1019784e-06
1.3250824e-06
-1.2260264e-06
1.3849469e-06
-1.3550312e-06
1.4414617e-06
-1.4886679e-06
1.4945133e-06
-1.6266024e-06
1.5439999e-06
-1.7684927e-06
1.5898323e-06
-1.9139902e-06
1.6319338e-06
-2.0627407e-06
1.6702404e-06
-2.2143858e-06
1.7047012e-06
-2.3685641e-06
1.7352779e-06
-2.5249128e-06
1.7619452e-06
-2.6830684e-06
1.7846907e-06
-2.8426686e-06
1.8035147e-06
-3.0033528e-06
1.8184298e-06
-3.1647639e-06
1.829461e-06
-3.3265492e-06
1.8366451e-06
-3.4883614e-06
1.8400303e-06
-3.64986e-06
1.839676e-06
-3.8107118e-06
1.8356522e-06
-3.9705924e-06
1.8280388e-06
-4.1291868e-06
1.8169254e-06
-4.2861902e-06
1.8024103e-06
-4.4413089e-06
1.7845999e-06
-4.5942609e-06
1.7636085e-06
-4.7447764e-06
1.7395569e-06
-4.8925986e-06
1.7125722e-06
-5.0374839e-06
1.6827869e-06
-5.1792024e-06
1.6503381e-06
-5.3175382e-06
1.6153671e-06
-5.4522897e-06
1.5780181e-06
-5.5832694e-06
1.538438e-06
-5.7103046e-06
1.4967754e-06
-5.8332367e-06
1.4531801e-06
-5.9519219e-06
1.4078022e-06
-6.0662303e-06
1.3607917e-06
-6.1760464e-06
1.3122979e-06
-6.2812685e-06
1.2624684e-06
-6.3818084e-06
1.2114492e-06
-6.4775914e-06