/*--------------------------------*- C++ -*----------------------------------*\
| =========                 |                                                 |
| \\      /  F ield         | OpenFOAM: The Open Source CFD Toolbox           |
|  \\    /   O peration     | Version:  2106                                  |
|   \\  /    A nd           | Website:  www.openfoam.com                      |
|    \\/     M anipulation  |                                                 |
\*---------------------------------------------------------------------------*/
FoamFile
{
    version     2.0;
    format      ascii;
    arch        "LSB;label=32;scalar=64";
    class       surfaceScalarField;
    location    "0.001";
    object      phi;
}
// * * * * * * * * * * * * * * * * * * * * * * * * * * * * * * * * * * * * * //

dimensions      [0 3 -1 0 0 0 0];

oriented        oriented;

internalField   nonuniform List<scalar> 
480
(
-0.007232254
0.007232254
-0.013332946
0.0061006915
-0.017363067
0.0040301213
-0.018731109
0.0013680419
-0.017259608
-0.0014715005
-0.013185847
-0.0040737609
-0.0071282123
-0.0060576351
3.9626507e-14
-0.0071282123
0.0071282123
-0.0071282123
0.013185847
-0.0060576351
0.017259608
-0.0040737609
0.018731109
-0.0014715005
0.017363067
0.0013680419
0.013332946
0.0040301213
0.007232254
0.0061006915
0.007232254
-0.0083260256
0.01555828
-0.015331626
0.013106292
-0.019933634
0.0086321289
-0.021471312
0.00290572
-0.019768606
-0.0031742063
-0.015097742
-0.0087446251
-0.0081606427
-0.012994734
6.976896e-14
-0.015288855
0.0081606427
-0.015288855
0.015097742
-0.012994734
0.019768606
-0.0087446251
0.021471312
-0.0031742063
0.019933634
0.00290572
0.015331626
0.0086321289
0.0083260256
0.013106292
0.01555828
-0.010630667
0.026188947
-0.019561948
0.022037573
-0.025407098
0.014477279
-0.027341931
0.0048405524
-0.025154813
-0.0053613242
-0.019203223
-0.014696215
-0.010376267
-0.02182169
6.6428305e-14
-0.025665122
0.010376267
-0.025665122
0.019203223
-0.02182169
0.025154813
-0.014696215
0.027341931
-0.0053613242
0.025407098
0.0048405524
0.019561948
0.014477279
0.010630667
0.022037573
0.026188947
-0.014379712
0.040568659
-0.026351186
0.034009047
-0.034026595
0.022152687
-0.036434202
0.0072481593
-0.03344759
-0.0083479354
-0.025528133
-0.022615672
-0.013796474
-0.033553349
1.2286312e-13
-0.039461597
0.013796474
-0.039461597
0.025528133
-0.033553349
0.03344759
-0.022615672
0.036434202
-0.0083479354
0.034026595
0.0072481593
0.026351186
0.022152687
0.014379712
0.034009047
0.040568659
-0.020646649
0.061215308
-0.037848454
0.051210852
-0.04886347
0.033167704
-0.052307132
0.010691821
-0.047999546
-0.012655522
-0.036615285
-0.033999933
-0.01977185
-0.050396783
7.9344913e-14
-0.059233447
0.01977185
-0.059233447
0.036615285
-0.050396783
0.047999546
-0.033999933
0.052307132
-0.012655522
0.04886347
0.010691821
0.037848454
0.033167704
0.020646649
0.051210852
0.061215308
-0.029080125
0.090295434
-0.052786083
0.07491681
-0.067225253
0.047606874
-0.07119163
0.014658199
-0.065153124
-0.018694029
-0.049815943
-0.049337113
-0.026965258
-0.073247468
2.7077125e-14
-0.086198705
0.026965258
-0.086198705
0.049815943
-0.073247468
0.065153124
-0.049337113
0.07119163
-0.018694029
0.067225253
0.014658199
0.052786083
0.047606874
0.029080125
0.07491681
0.090295434
-0.041681587
0.13197702
-0.076464315
0.10969954
-0.098567112
0.069709671
-0.10542488
0.021515966
-0.096940554
-0.027178354
-0.074122797
-0.072154871
-0.040013549
-0.10735672
4.2760416e-14
-0.12621225
0.040013549
-0.12621225
0.074122797
-0.10735672
0.096940554
-0.072154871
0.10542488
-0.027178354
0.098567112
0.021515966
0.076464315
0.069709671
0.041681587
0.10969954
0.13197702
-0.034369858
0.16634688
-0.065243548
0.14057323
-0.08799009
0.092456213
-0.098334238
0.031860114
-0.093617511
-0.031895082
-0.073328568
-0.092443813
-0.040139765
-0.14054552
6.7019134e-14
-0.16635202
0.040139765
-0.16635202
0.073328568
-0.14054552
0.093617511
-0.092443813
0.098334238
-0.031895082
0.08799009
0.031860114
0.065243548
0.092456213
0.034369858
0.14057323
0.16634688
0.039742593
0.12660429
0.072609925
0.1077059
0.09268959
0.072376549
0.097324213
0.027225491
0.087052742
-0.021623611
0.064535625
-0.069926696
0.033994356
-0.11000425
5.8482513e-14
-0.13235766
-0.033994356
-0.13235766
-0.064535625
-0.11000425
-0.087052742
-0.069926696
-0.097324213
-0.021623611
-0.09268959
0.027225491
-0.072609925
0.072376549
-0.039742593
0.1077059
0.12660429
0.040011235
0.08659305
0.074126203
0.073590928
0.096940821
0.049561931
0.10540034
0.018765967
0.098520738
-0.014744004
0.07642205
-0.047828008
0.041662563
-0.075244764
1.8786471e-14
-0.0906951
-0.041662563
-0.0906951
-0.07642205
-0.075244764
-0.098520738
-0.047828008
-0.10540034
-0.014744004
-0.096940821
0.018765967
-0.074126203
0.049561931
-0.040011235
0.073590928
0.08659305
0.025909521
0.06068353
0.047870683
0.051629765
0.062610875
0.034821739
0.068441801
0.012935041
0.064690159
-0.010992361
0.050855723
-0.033993573
0.028043267
-0.052432307
1.9176405e-14
-0.062651833
-0.028043267
-0.062651833
-0.050855723
-0.052432307
-0.064690159
-0.033993573
-0.068441801
-0.010992361
-0.062610875
0.012935041
-0.047870683
0.034821739
-0.025909521
0.051629765
0.06068353
0.020347731
0.040335799
0.037680645
0.034296851
0.049386824
0.02311556
0.053789524
0.0085323412
0.050204061
-0.0074068978
0.038849982
-0.022639494
0.021179174
-0.0347615
-1.0436509e-14
-0.041472659
-0.021179174
-0.041472659
-0.038849982
-0.0347615
-0.050204061
-0.022639494
-0.053789524
-0.0074068978
-0.049386824
0.0085323412
-0.037680645
0.02311556
-0.020347731
0.034296851
0.040335799
0.011056569
0.02927923
0.020462637
0.024890783
0.026824506
0.016753691
0.029266675
0.0060901723
0.027411172
-0.0055513947
0.021298099
-0.016526421
0.011650219
-0.025113619
-2.233045e-14
-0.029822441
-0.011650219
-0.029822441
-0.021298099
-0.025113619
-0.027411172
-0.016526421
-0.029266675
-0.0055513947
-0.026824506
0.0060901723
-0.020462637
0.016753691
-0.011056569
0.024890783
0.02927923
0.012531817
0.016747413
0.02318802
0.014234579
0.03036189
0.0095798214
0.032972038
0.0034800243
0.03059881
-0.0031781672
0.023525367
-0.0094529781
0.012771184
-0.014359436
-3.1589661e-14
-0.017051257
-0.012771184
-0.017051257
-0.023525367
-0.014359436
-0.03059881
-0.0094529781
-0.032972038
-0.0031781672
-0.03036189
0.0034800243
-0.02318802
0.0095798214
-0.012531817
0.014234579
0.016747413
0.0013769376
0.015370475
0.0025558449
0.013055672
0.003369577
0.0087660893
0.0037078751
0.0031417262
0.0034948103
-0.0029651024
0.0027339182
-0.008692086
0.0015032493
-0.013128767
2.0899705e-14
-0.015548007
-0.0015032493
-0.015548007
-0.0027339182
-0.013128767
-0.0034948103
-0.008692086
-0.0037078751
-0.0029651024
-0.003369577
0.0031417262
-0.0025558449
0.0087660893
-0.0013769376
0.013055672
0.015370475
0.015210694
0.028130941
0.036806578
0.039916549
0.036982833
0.028381042
0.015387852
-1.0519143e-13
-0.015387852
-0.028381042
-0.036982833
-0.039916549
-0.036806578
-0.028130941
-0.015210694
)
;

boundaryField
{
    leftWall
    {
        type            cyclic;
        value           nonuniform List<scalar> 
16
(
-3.1716685e-14
1.5491091e-13
2.7127682e-13
2.464737e-13
-5.3595226e-15
-3.5550655e-14
-9.7285732e-14
-2.1342138e-13
-5.6892711e-14
-1.4382583e-13
3.9139991e-15
-1.0672016e-14
-2.7274074e-13
5.4210284e-14
1.5435165e-13
-2.7519032e-14
)
;
    }
    rightWall
    {
        type            cyclic;
        value           nonuniform List<scalar> 
16
(
3.1716685e-14
-1.5491091e-13
-2.7127682e-13
-2.464737e-13
5.3595226e-15
3.5550655e-14
9.7285732e-14
2.1342138e-13
5.6892711e-14
1.4382583e-13
-3.9139991e-15
1.0672016e-14
2.7274074e-13
-5.4210284e-14
-1.5435165e-13
2.7519032e-14
)
;
    }
    lowerWall
    {
        type            calculated;
        value           uniform 0;
    }
    atmosphere
    {
        type            calculated;
        value           nonuniform List<scalar> 
16
(
0.00015978188
0.00013542427
9.0452249e-05
3.1756206e-05
-3.1386598e-05
-9.0295343e-05
-0.00013557747
-0.00016015519
-0.00016015519
-0.00013557747
-9.0295343e-05
-3.1386598e-05
3.1756206e-05
9.0452249e-05
0.00013542427
0.00015978188
)
;
    }
    defaultFaces
    {
        type            empty;
        value           nonuniform List<scalar> 0();
    }
}


// ************************************************************************* //
