/*--------------------------------*- C++ -*----------------------------------*\
| =========                 |                                                 |
| \\      /  F ield         | OpenFOAM: The Open Source CFD Toolbox           |
|  \\    /   O peration     | Version:  2306                                  |
|   \\  /    A nd           | Website:  www.openfoam.com                      |
|    \\/     M anipulation  |                                                 |
\*---------------------------------------------------------------------------*/
FoamFile
{
    version     2.0;
    format      ascii;
    arch        "LSB;label=32;scalar=64";
    class       volVectorField;
    location    "0.1";
    object      U;
}
// * * * * * * * * * * * * * * * * * * * * * * * * * * * * * * * * * * * * * //

dimensions      [0 1 -1 0 0 0 0];

internalField   nonuniform List<vector> 
51200
(
(-1.8954056e-05 1.4491733e-05 4.0554721e-20)
(-4.5021174e-05 1.7411256e-05 -4.2162128e-22)
(-7.4829901e-05 1.7422097e-05 -1.3916729e-20)
(-0.00010400739 1.7629599e-05 4.1370905e-21)
(-0.00013396488 1.7712902e-05 1.2402623e-20)
(-0.00016374551 1.7664139e-05 -8.2178564e-21)
(-0.00019329342 1.757615e-05 -4.3581773e-21)
(-0.00022256749 1.7455745e-05 1.1781177e-20)
(-0.00025152441 1.7309691e-05 1.1304873e-20)
(-0.00028012362 1.7142213e-05 -1.0285089e-20)
(-0.00030832761 1.6955543e-05 -1.5826173e-20)
(-0.00033610048 1.6751085e-05 1.5434103e-20)
(-0.00036340711 1.6529918e-05 -4.7406265e-21)
(-0.00039021353 1.6292941e-05 -1.5214752e-20)
(-0.00041648721 1.6040958e-05 -6.8239718e-21)
(-0.0004421971 1.5774731e-05 2.1949812e-21)
(-0.00046731361 1.5495018e-05 1.1187413e-20)
(-0.00049180874 1.5202579e-05 -7.7524368e-21)
(-0.00051565611 1.4898161e-05 -8.8152637e-21)
(-0.00053883105 1.45825e-05 8.6119222e-21)
(-0.00056131061 1.4256312e-05 -3.2849886e-21)
(-0.00058307367 1.3920288e-05 -5.4927769e-21)
(-0.0006041009 1.3575074e-05 1.2837275e-20)
(-0.0006243748 1.3221248e-05 3.7722731e-20)
(-0.00064387975 1.2859295e-05 6.1603483e-20)
(-0.00066260191 1.248956e-05 -2.3847671e-20)
(-0.00068052929 1.2112164e-05 -1.1738864e-19)
(-0.00069765162 1.1726922e-05 -2.149468e-20)
(-0.00071396042 1.1333156e-05 6.2312702e-20)
(-0.00072944914 1.0929607e-05 4.888897e-20)
(-0.00074411494 1.0514601e-05 2.7887164e-20)
(-0.00075796501 1.00888e-05 -4.3337264e-21)
(-0.00077100399 9.6675467e-06 2.6162411e-20)
(-0.00078322294 9.2628949e-06 -5.4651137e-20)
(-0.00079461564 8.8742161e-06 -9.0919917e-20)
(-0.00080518527 8.4983776e-06 8.2248112e-20)
(-0.00081493863 8.1329046e-06 3.2772456e-20)
(-0.00082388398 7.7762197e-06 -1.5388427e-19)
(-0.00083203049 7.4274055e-06 3.8448139e-20)
(-0.00083938834 7.0859587e-06 2.2214915e-19)
(-0.00084596873 6.7516339e-06 5.8333756e-20)
(-0.00085178389 6.4243343e-06 -1.0898308e-19)
(-0.00085684707 6.1040505e-06 -1.8216117e-19)
(-0.0008611725 5.7908245e-06 -1.6466129e-19)
(-0.00086477529 5.4847146e-06 7.7287269e-20)
(-0.00086767139 5.1857948e-06 3.8261588e-19)
(-0.00086987751 4.8941396e-06 5.1435691e-20)
(-0.00087141103 4.6098153e-06 -1.2955736e-19)
(-0.00087228997 4.3328876e-06 -1.2544324e-19)
(-0.00087253285 4.0634166e-06 -3.0222524e-19)
(-0.00087215866 3.8014513e-06 1.8631648e-19)
(-0.00087118679 3.547062e-06 1.86988e-19)
(-0.00086963692 3.3003215e-06 -5.7078212e-20)
(-0.00086752902 3.0613472e-06 1.2083506e-19)
(-0.00086488319 2.8302724e-06 -2.3858752e-19)
(-0.0008617197 2.6072772e-06 -1.8547218e-19)
(-0.00085805889 2.3925374e-06 2.4596211e-19)
(-0.00085392118 2.186091e-06 5.6363109e-20)
(-0.00084932691 1.9878918e-06 -5.8014943e-20)
(-0.00084429635 1.7978605e-06 4.6350459e-20)
(-0.00083884963 1.6159215e-06 -6.4449906e-21)
(-0.00083300666 1.4419977e-06 -3.290283e-20)
(-0.00082678717 1.2760073e-06 -2.5240118e-20)
(-0.00082021059 1.1178906e-06 -1.2877123e-20)
(-0.00081329609 9.6759417e-07 -8.7052564e-20)
(-0.00080606252 8.2508775e-07 -4.2676097e-20)
(-0.00079852836 6.903758e-07 2.1594064e-19)
(-0.00079071177 5.6351157e-07 -2.5072644e-20)
(-0.0007826305 4.446313e-07 -9.2864265e-20)
(-0.00077430197 3.339589e-07 2.8035607e-19)
(-0.00076574324 2.3183038e-07 -4.7502956e-20)
(-0.00075697099 1.3864592e-07 -2.1931503e-19)
(-0.00074800132 5.4815086e-08 4.1660702e-20)
(-0.00073884868 -1.9626635e-08 8.6865472e-20)
(-0.00072952291 -8.750913e-08 7.6374424e-20)
(-0.00072002399 -1.6272638e-07 -1.9323815e-19)
(-0.00071038566 -2.8545123e-07 -1.5690363e-19)
(-0.00070064016 -4.1245359e-07 1.7917182e-19)
(-0.00069078552 -5.3177146e-07 2.1244304e-19)
(-0.00068082941 -6.4219884e-07 -6.5716029e-20)
(-0.00067078318 -7.4404496e-07 -2.675406e-19)
(-0.00066065843 -8.3811144e-07 8.0457654e-20)
(-0.00065046634 -9.2524129e-07 1.6887872e-19)
(-0.00064021755 -1.0061395e-06 -1.6742237e-21)
(-0.00062992214 -1.081379e-06 7.0879061e-20)
(-0.0006195897 -1.1514166e-06 -7.7712552e-20)
(-0.00060922932 -1.2166339e-06 -4.2170455e-21)
(-0.00059884961 -1.2773496e-06 -5.5964267e-21)
(-0.00058845873 -1.3338462e-06 -1.1343487e-19)
(-0.0005780644 -1.3863766e-06 7.6573419e-20)
(-0.00056767392 -1.4351612e-06 -9.968289e-20)
(-0.00055729415 -1.4804124e-06 -5.7540654e-20)
(-0.00054693159 -1.5223238e-06 1.3784097e-19)
(-0.0005365923 -1.5610775e-06 5.1923613e-20)
(-0.000526282 -1.5968391e-06 -1.8606419e-20)
(-0.00051600602 -1.629778e-06 -1.2693269e-19)
(-0.00050576936 -1.6600413e-06 -8.5303835e-21)
(-0.00049557666 -1.6877777e-06 7.5465038e-20)
(-0.00048543224 -1.7131217e-06 9.6238562e-20)
(-0.00047534011 -1.7362106e-06 3.7892653e-22)
(-0.00046530394 -1.7571739e-06 -1.6383587e-19)
(-0.00045532714 -1.7761224e-06 2.8621269e-20)
(-0.00044541285 -1.7931792e-06 4.5861688e-20)
(-0.0004355639 -1.8084508e-06 5.0330437e-20)
(-0.0004257829 -1.8220496e-06 1.6381244e-20)
(-0.00041607218 -1.8340663e-06 -1.4777069e-19)
(-0.00040643385 -1.8446072e-06 3.464946e-20)
(-0.00039686981 -1.8537568e-06 8.1549456e-20)
(-0.00038738171 -1.8616074e-06 1.1638956e-20)
(-0.00037797103 -1.8682391e-06 -1.0584402e-21)
(-0.00036863903 -1.87374e-06 -1.0995779e-19)
(-0.0003593868 -1.8781786e-06 -1.3069866e-20)
(-0.00035021525 -1.8816295e-06 6.0103814e-20)
(-0.00034112512 -1.8841671e-06 7.5258138e-21)
(-0.000332117 -1.8858488e-06 2.266123e-20)
(-0.00032319132 -1.8867463e-06 -2.5945913e-20)
(-0.00031434837 -1.8869192e-06 3.6893845e-21)
(-0.00030558833 -1.8864193e-06 1.6284639e-20)
(-0.00029691121 -1.8853027e-06 1.9475428e-21)
(-0.00028831695 -1.883625e-06 3.0348898e-20)
(-0.00027980534 -1.8814284e-06 -3.2170232e-20)
(-0.0002713761 -1.8787674e-06 -1.6540941e-20)
(-0.00026302882 -1.8756789e-06 2.5255664e-20)
(-0.00025476302 -1.8722074e-06 3.6072681e-20)
(-0.00024657813 -1.8683942e-06 6.5066982e-21)
(-0.0002384735 -1.8642754e-06 -7.2701561e-20)
(-0.0002304484 -1.8598867e-06 -2.7808116e-20)
(-0.00022250204 -1.8552599e-06 3.8634168e-20)
(-0.00021463357 -1.850428e-06 2.6537538e-20)
(-0.00020684206 -1.8454207e-06 -1.2894741e-20)
(-0.00019912656 -1.840265e-06 -2.6847525e-20)
(-0.00019148604 -1.8349875e-06 2.2010987e-23)
(-0.00018391943 -1.8296165e-06 -3.8655973e-21)
(-0.00017642564 -1.8241697e-06 -1.2316982e-20)
(-0.00016900351 -1.8186693e-06 -1.5928205e-20)
(-0.00016165188 -1.8131434e-06 9.1029819e-21)
(-0.00015436953 -1.8075994e-06 3.188823e-20)
(-0.00014715524 -1.8020641e-06 5.4342158e-21)
(-0.00014000774 -1.7965504e-06 -5.5480945e-22)
(-0.00013292576 -1.7910727e-06 -2.8093843e-21)
(-0.00012590801 -1.7856486e-06 -9.9099743e-21)
(-0.00011895318 -1.7802863e-06 7.7907304e-21)
(-0.00011205994 -1.7750038e-06 -8.9967865e-22)
(-0.00010522696 -1.7698056e-06 1.9847711e-21)
(-9.8452924e-05 -1.7647039e-06 1.4098149e-20)
(-9.173648e-05 -1.7597082e-06 -1.7511811e-20)
(-8.5076291e-05 -1.7548231e-06 -1.2412309e-20)
(-7.8471025e-05 -1.7500529e-06 1.376982e-20)
(-7.1919364e-05 -1.7453994e-06 1.338858e-20)
(-6.5420008e-05 -1.7408561e-06 -2.843926e-21)
(-5.8971696e-05 -1.7363992e-06 -1.4988843e-20)
(-5.2573252e-05 -1.7319655e-06 -5.450671e-21)
(-4.6223673e-05 -1.7274051e-06 8.4793492e-21)
(-3.9922332e-05 -1.7223444e-06 3.6446116e-21)
(-3.3669455e-05 -1.7158791e-06 -3.5053354e-21)
(-2.7467246e-05 -1.7060508e-06 -3.7511822e-21)
(-2.1322785e-05 -1.6896099e-06 -3.084863e-22)
(-1.525187e-05 -1.6676371e-06 1.7665843e-21)
(-9.2442019e-06 -1.7052726e-06 2.8787804e-22)
(-3.0940049e-06 -2.1078913e-06 -2.0349207e-21)
(-3.5964143e-05 0.00010034827 -1.3482584e-20)
(-8.1203264e-05 0.00010290443 -3.8447316e-21)
(-0.00013293294 0.00010324647 1.2381398e-21)
(-0.00018346155 0.00010365873 2.6250035e-20)
(-0.00023516042 0.00010366362 1.9197748e-20)
(-0.00028657462 0.00010334868 -1.2330542e-20)
(-0.00033761686 0.00010285969 1.3161102e-20)
(-0.00038822134 0.00010223664 1.2944603e-20)
(-0.00043830661 0.00010149903 2.7644098e-21)
(-0.00048779291 0.00010065841 -9.5826653e-21)
(-0.00053660691 9.9721924e-05 -1.9377026e-20)
(-0.00058467977 9.8694678e-05 -9.0539995e-22)
(-0.00063194566 9.7580893e-05 1.3800262e-20)
(-0.00067834194 9.6384302e-05 4.6630419e-20)
(-0.00072380933 9.5108466e-05 9.1408801e-21)
(-0.00076829172 9.375689e-05 1.9516589e-21)
(-0.00081173612 9.2333128e-05 4.9400015e-20)
(-0.0008540927 9.0840801e-05 2.7497653e-21)
(-0.00089531481 8.9283593e-05 -4.7094138e-20)
(-0.00093535903 8.7665261e-05 -3.2679547e-20)
(-0.00097418524 8.5989602e-05 -8.1609529e-21)
(-0.0010117567 8.4260452e-05 4.7314969e-21)
(-0.0010480399 8.2481671e-05 2.1230734e-20)
(-0.0010830049 8.0657081e-05 5.6685598e-20)
(-0.001116625 7.879046e-05 7.2586155e-20)
(-0.0011488773 7.688548e-05 -4.8330693e-20)
(-0.0011797418 7.4945626e-05 -1.1575472e-19)
(-0.0012092026 7.2974152e-05 -4.4825873e-20)
(-0.0012372468 7.0973929e-05 -3.8019818e-20)
(-0.0012638655 6.8947475e-05 1.0119738e-19)
(-0.0012890516 6.6897173e-05 1.665109e-19)
(-0.0013127939 6.4827378e-05 -4.9916672e-20)
(-0.0013350865 6.2752661e-05 -1.1552915e-19)
(-0.001355938 6.0685739e-05 -7.2389376e-20)
(-0.0013753599 5.8629935e-05 4.544141e-20)
(-0.0013933607 5.6585869e-05 7.8834008e-20)
(-0.0014099505 5.4554296e-05 -1.2650686e-19)
(-0.0014251418 5.25366e-05 -2.1479561e-19)
(-0.0014389497 5.0534619e-05 2.182562e-19)
(-0.0014513916 4.8550455e-05 2.9454411e-19)
(-0.0014624874 4.6586309e-05 -3.4455732e-19)
(-0.0014722587 4.4644398e-05 -1.5281856e-19)
(-0.0014807292 4.272689e-05 3.6180071e-19)
(-0.0014879242 4.0835863e-05 4.1687484e-19)
(-0.0014938707 3.8973286e-05 3.1323332e-20)
(-0.0014985971 3.7140994e-05 -7.2054577e-19)
(-0.001502133 3.5340707e-05 -4.446653e-19)
(-0.0015045092 3.3573995e-05 4.2941804e-19)
(-0.0015057576 3.1842303e-05 3.8815998e-19)
(-0.0015059108 3.0146931e-05 -2.2782036e-19)
(-0.0015050022 2.8489002e-05 -3.7409824e-19)
(-0.001503066 2.6869525e-05 3.1471073e-19)
(-0.0015001365 2.5289294e-05 4.8271001e-19)
(-0.0014962488 2.374896e-05 -4.5740777e-20)
(-0.001491438 2.2248971e-05 -2.9920089e-19)
(-0.0014857395 2.0789608e-05 -3.5762506e-19)
(-0.001479189 1.9371017e-05 -3.6376379e-20)
(-0.0014718224 1.7993352e-05 4.5586407e-19)
(-0.0014636752 1.6656764e-05 1.6752489e-19)
(-0.0014547826 1.5361322e-05 -4.6543026e-19)
(-0.0014451795 1.410702e-05 -1.6152059e-19)
(-0.0014349006 1.289376e-05 4.6385002e-19)
(-0.0014239801 1.1721346e-05 1.4760688e-19)
(-0.0014124515 1.0589519e-05 -4.7807727e-19)
(-0.001400348 9.4979324e-06 -2.3201407e-19)
(-0.001387702 8.4461727e-06 2.7931024e-19)
(-0.0013745455 7.4337694e-06 2.4452326e-19)
(-0.0013609095 6.460207e-06 7.9664807e-20)
(-0.0013468245 5.5249476e-06 -1.22646e-19)
(-0.0013323201 4.6274607e-06 -3.3695698e-19)
(-0.0013174253 3.7672521e-06 5.4939554e-20)
(-0.0013021683 2.9438917e-06 2.2496296e-19)
(-0.0012865774 2.1569938e-06 -6.0809132e-20)
(-0.0012706829 1.4061437e-06 3.9939007e-20)
(-0.0012545208 6.8921648e-07 1.8387998e-19)
(-0.0012381373 -2.3430878e-09 4.2085622e-20)
(-0.0012215154 -6.8462915e-07 -2.6874344e-19)
(-0.0012046435 -1.3377569e-06 -1.9052355e-19)
(-0.0011875713 -1.9579718e-06 1.1125645e-19)
(-0.0011703299 -2.5463104e-06 8.4638991e-20)
(-0.0011529419 -3.1041617e-06 -1.6087872e-20)
(-0.0011354272 -3.6329127e-06 4.5359578e-20)
(-0.0011178045 -4.133832e-06 9.9146008e-20)
(-0.0011000914 -4.6080644e-06 -1.2430873e-19)
(-0.0010823048 -5.0566742e-06 -1.1919513e-20)
(-0.0010644609 -5.4806583e-06 1.4287032e-19)
(-0.0010465748 -5.8809939e-06 -1.6484442e-19)
(-0.0010286611 -6.2586084e-06 1.2620804e-20)
(-0.0010107335 -6.6144145e-06 9.291157e-20)
(-0.00099280524 -6.9493048e-06 -5.2640833e-20)
(-0.00097488847 -7.264139e-06 -5.569106e-20)
(-0.00095699486 -7.5597668e-06 -1.1211317e-19)
(-0.00093913534 -7.8370191e-06 1.0180135e-19)
(-0.00092132018 -8.0966972e-06 8.6244471e-20)
(-0.00090355902 -8.3395822e-06 -4.7916101e-20)
(-0.00088586084 -8.5664434e-06 -2.4877869e-20)
(-0.00086823406 -8.7780196e-06 -1.4823588e-20)
(-0.00085068649 -8.9750234e-06 8.0158197e-20)
(-0.00083322539 -9.1581632e-06 6.0810039e-21)
(-0.00081585747 -9.3281112e-06 -1.1502975e-19)
(-0.00079858893 -9.4855363e-06 -2.9073147e-20)
(-0.00078142547 -9.6310501e-06 7.9041335e-20)
(-0.00076437231 -9.7652844e-06 8.0940383e-20)
(-0.00074743421 -9.8888221e-06 1.1645851e-20)
(-0.00073061548 -1.0002246e-05 -8.774713e-20)
(-0.00071392002 -1.0106095e-05 -8.5443261e-20)
(-0.00069735134 -1.0200908e-05 4.2762343e-20)
(-0.00068091255 -1.0287192e-05 1.3170532e-19)
(-0.0006646064 -1.0365449e-05 1.1525326e-20)
(-0.00064843529 -1.043614e-05 -1.1905441e-19)
(-0.00063240129 -1.0499726e-05 -3.3833944e-20)
(-0.00061650616 -1.055664e-05 -1.5958238e-21)
(-0.00060075137 -1.0607302e-05 8.9472933e-20)
(-0.00058513809 -1.0652115e-05 9.7419832e-20)
(-0.00056966724 -1.0691452e-05 -7.630889e-20)
(-0.00055433947 -1.0725698e-05 -8.6883561e-20)
(-0.0005391552 -1.0755197e-05 -1.4405309e-20)
(-0.00052411463 -1.0780278e-05 7.7849291e-20)
(-0.00050921773 -1.0801269e-05 3.8725232e-20)
(-0.00049446431 -1.0818477e-05 -9.0484628e-20)
(-0.00047985395 -1.0832192e-05 -2.8982723e-20)
(-0.00046538607 -1.0842698e-05 7.0095011e-20)
(-0.00045105993 -1.0850247e-05 5.9620219e-20)
(-0.00043687464 -1.0855101e-05 -2.3964835e-20)
(-0.00042282915 -1.0857501e-05 -8.9773271e-20)
(-0.00040892229 -1.0857674e-05 -1.4072596e-20)
(-0.00039515276 -1.0855831e-05 5.4760851e-20)
(-0.00038151915 -1.0852187e-05 3.6589681e-20)
(-0.00036801994 -1.0846931e-05 -8.9041536e-21)
(-0.00035465351 -1.0840248e-05 -5.4125937e-20)
(-0.00034141815 -1.0832315e-05 -1.6517321e-20)
(-0.00032831208 -1.0823295e-05 5.7536802e-20)
(-0.00031533342 -1.0813351e-05 4.3672678e-20)
(-0.00030248024 -1.0802622e-05 -2.810903e-20)
(-0.00028975053 -1.0791243e-05 -7.5507357e-20)
(-0.00027714225 -1.077936e-05 -4.1178907e-21)
(-0.0002646533 -1.0767077e-05 6.2458494e-20)
(-0.00025228153 -1.0754524e-05 2.3963202e-20)
(-0.00024002474 -1.0741803e-05 -1.3882461e-20)
(-0.00022788072 -1.0729014e-05 -2.1599563e-20)
(-0.00021584722 -1.0716255e-05 -2.0288912e-21)
(-0.00020392196 -1.0703603e-05 1.0139273e-20)
(-0.00019210267 -1.0691153e-05 9.7811594e-21)
(-0.00018038702 -1.0678966e-05 -7.6851836e-21)
(-0.00016877271 -1.0667112e-05 -1.7281315e-20)
(-0.00015725742 -1.0655656e-05 -1.4679402e-21)
(-0.00014583882 -1.0644647e-05 1.1264546e-20)
(-0.00013451459 -1.0634127e-05 1.5481516e-20)
(-0.00012328245 -1.062412e-05 -3.8583683e-21)
(-0.0001121401 -1.0614635e-05 -1.9283814e-20)
(-0.0001010853 -1.0605639e-05 -1.9306859e-21)
(-9.0115816e-05 -1.0597006e-05 1.0101254e-20)
(-7.9229494e-05 -1.0588435e-05 7.549924e-21)
(-6.8424192e-05 -1.0579243e-05 -3.4522587e-21)
(-5.7697693e-05 -1.0567881e-05 -7.8991377e-21)
(-4.704719e-05 -1.0551228e-05 -2.5078053e-22)
(-3.6467619e-05 -1.052475e-05 3.1008476e-21)
(-2.5948594e-05 -1.0487772e-05 9.7697863e-22)
(-1.5476491e-05 -1.046774e-05 -1.4651057e-21)
(-5.102423e-06 -1.0601427e-05 -1.9788427e-21)
(-4.1611688e-05 0.00021996833 -6.5446688e-20)
(-9.3069676e-05 0.00022164005 -2.0348792e-20)
(-0.00015200934 0.00022195546 -6.1901178e-21)
(-0.00020931122 0.00022201901 7.1956424e-21)
(-0.00026789402 0.00022160382 -1.0005337e-21)
(-0.00032612439 0.00022078446 -2.3637078e-20)
(-0.00038392746 0.00021967027 2.4114246e-20)
(-0.0004412411 0.00021830361 -6.9603201e-21)
(-0.00049797407 0.00021670834 1.3971023e-20)
(-0.00055403418 0.00021490039 6.1835563e-20)
(-0.00060933599 0.00021289124 1.263634e-20)
(-0.00066379919 0.00021069017 2.6833104e-20)
(-0.00071734727 0.0002083054 -2.4403714e-20)
(-0.00076990765 0.00020574469 2.53059e-20)
(-0.00082141183 0.00020301565 6.1822411e-20)
(-0.00087179512 0.00020012592 4.2028721e-21)
(-0.00092099661 0.00019708332 2.9965745e-20)
(-0.00096895912 0.0001938958 -1.3001076e-20)
(-0.0010156293 0.00019057153 -3.3814667e-20)
(-0.0010609575 0.00018711886 2.4677277e-20)
(-0.0011048979 0.00018354628 8.0714343e-21)
(-0.0011474088 0.00017986244 1.5050219e-21)
(-0.0011884522 0.00017607609 2.5333034e-20)
(-0.001227994 0.00017219606 5.3156121e-20)
(-0.001266004 0.00016823125 3.482558e-20)
(-0.0013024563 0.00016419062 -8.431402e-21)
(-0.0013373283 0.00016008312 -2.9282606e-20)
(-0.0013706019 0.00015591781 -6.471888e-20)
(-0.0014022622 0.00015170379 -6.9932525e-20)
(-0.0014322984 0.00014745043 7.0302815e-21)
(-0.0014607026 0.00014316736 4.1311553e-20)
(-0.0014874695 0.00013886362 2.4098249e-20)
(-0.0015125987 0.00013454217 -4.3696271e-20)
(-0.0015360955 0.00013020704 -9.2995215e-20)
(-0.0015579677 0.0001258669 2.0832397e-20)
(-0.0015782243 0.00012153065 5.6911781e-20)
(-0.0015968774 0.00011720632 -1.3661955e-20)
(-0.001613942 0.00011290126 -3.6406775e-20)
(-0.0016294358 0.00010862231 8.8733733e-21)
(-0.0016433796 0.00010437592 -1.4526518e-20)
(-0.0016557963 0.00010016814 -9.0936683e-20)
(-0.0016667112 9.600465e-05 4.0210922e-20)
(-0.0016761516 9.1890804e-05 1.4114134e-19)
(-0.0016841468 8.7831568e-05 1.4611902e-19)
(-0.0016907279 8.3831573e-05 2.2808329e-20)
(-0.0016959274 7.9895069e-05 -2.8592511e-19)
(-0.0016997795 7.6025983e-05 -1.3970124e-19)
(-0.0017023195 7.2227883e-05 1.0210247e-19)
(-0.0017035839 6.8504008e-05 1.0963334e-19)
(-0.0017036103 6.4857253e-05 7.7835082e-20)
(-0.0017024369 6.129015e-05 -1.6337585e-19)
(-0.0017001027 5.7804929e-05 5.4888355e-21)
(-0.0016966475 5.4403426e-05 1.7706771e-19)
(-0.0016921112 5.1087135e-05 -1.2452993e-20)
(-0.0016865342 4.7857188e-05 -1.8527795e-20)
(-0.0016799569 4.4714365e-05 -6.5843304e-20)
(-0.0016724198 4.1659155e-05 -5.9825433e-20)
(-0.001663963 3.8691964e-05 1.2270523e-19)
(-0.0016546268 3.5813079e-05 3.0858755e-20)
(-0.0016444513 3.3022592e-05 -1.6259278e-19)
(-0.0016334761 3.0320398e-05 -4.4041637e-20)
(-0.0016217406 2.7706188e-05 1.2796436e-19)
(-0.0016092835 2.5179444e-05 4.6216331e-20)
(-0.0015961431 2.2739475e-05 -8.264556e-20)
(-0.001582357 2.0385405e-05 4.0029861e-21)
(-0.0015679622 1.8116178e-05 4.0972913e-20)
(-0.0015529948 1.5930599e-05 -1.8844872e-20)
(-0.0015374902 1.382731e-05 4.1670401e-20)
(-0.001521483 1.180482e-05 -1.1332319e-20)
(-0.0015050071 9.8615304e-06 -1.1184791e-19)
(-0.0014880951 7.9957662e-06 1.2364014e-20)
(-0.0014707789 6.2058541e-06 6.1933565e-20)
(-0.0014530892 4.4900212e-06 -1.9326017e-20)
(-0.0014350557 2.8464866e-06 2.7054492e-20)
(-0.001416708 1.2753155e-06 4.1649462e-20)
(-0.001398072 -2.1595743e-07 1.4252143e-20)
(-0.0013791728 -1.6013517e-06 -4.8161415e-20)
(-0.001360039 -2.9147903e-06 -9.5663192e-20)
(-0.0013406974 -4.1659134e-06 -2.3575633e-20)
(-0.0013211708 -5.3571801e-06 7.1969921e-20)
(-0.0013014819 -6.4906752e-06 6.7758577e-20)
(-0.0012816523 -7.5681432e-06 -5.6649104e-20)
(-0.0012617032 -8.5911984e-06 -3.5806323e-20)
(-0.0012416546 -9.5614624e-06 -4.3012625e-20)
(-0.0012215258 -1.0480599e-05 -2.7319581e-20)
(-0.0012013348 -1.1350298e-05 5.7430093e-20)
(-0.0011810991 -1.2172288e-05 -4.5729802e-20)
(-0.0011608349 -1.2948283e-05 1.1378579e-20)
(-0.001140558 -1.3680002e-05 6.6548504e-20)
(-0.0011202829 -1.436916e-05 -1.7575498e-20)
(-0.0011000234 -1.5017444e-05 -1.0973405e-20)
(-0.0010797927 -1.5626521e-05 -2.3033269e-20)
(-0.001059603 -1.6198039e-05 1.998424e-20)
(-0.0010394659 -1.67336e-05 -2.3596259e-21)
(-0.001019392 -1.7234784e-05 -5.7041202e-21)
(-0.00099939156 -1.7703128e-05 5.2440108e-20)
(-0.00097947389 -1.8140137e-05 -1.9034495e-20)
(-0.00095964776 -1.8547257e-05 -2.0157564e-20)
(-0.00093992127 -1.8925931e-05 -3.30872e-20)
(-0.00092030192 -1.9277523e-05 -2.0658307e-20)
(-0.00090079663 -1.9603387e-05 4.7616993e-20)
(-0.00088141175 -1.9904805e-05 1.2097146e-20)
(-0.00086215309 -2.0183047e-05 1.4205006e-20)
(-0.00084302594 -2.0439321e-05 -2.6585194e-20)
(-0.0008240351 -2.0674802e-05 -1.9573262e-20)
(-0.0008051849 -2.0890616e-05 4.3082329e-20)
(-0.00078647922 -2.1087853e-05 1.3033459e-21)
(-0.00076792151 -2.1267574e-05 9.6580823e-21)
(-0.0007495148 -2.143079e-05 -1.7748562e-20)
(-0.00073126174 -2.157847e-05 -5.1108097e-20)
(-0.0007131646 -2.1711545e-05 2.1151566e-20)
(-0.00069522532 -2.1830917e-05 1.8101239e-20)
(-0.00067744547 -2.1937444e-05 1.2644981e-20)
(-0.00065982634 -2.2031951e-05 2.0481546e-20)
(-0.00064236889 -2.2115229e-05 -2.3686008e-20)
(-0.00062507382 -2.2188044e-05 -2.0803889e-20)
(-0.00060794155 -2.2251111e-05 -9.7395653e-21)
(-0.00059097226 -2.2305124e-05 2.1677985e-20)
(-0.00057416587 -2.2350744e-05 9.7491664e-21)
(-0.0005575221 -2.2388605e-05 -2.32452e-20)
(-0.00054104045 -2.2419309e-05 6.452806e-21)
(-0.00052472023 -2.2443435e-05 1.5567152e-20)
(-0.00050856056 -2.2461512e-05 7.5715156e-21)
(-0.00049256039 -2.2474076e-05 -1.6268482e-20)
(-0.00047671851 -2.248162e-05 -2.2810202e-20)
(-0.00046103356 -2.2484614e-05 1.8147719e-20)
(-0.00044550404 -2.2483497e-05 1.8777998e-20)
(-0.00043012833 -2.247871e-05 3.4999818e-21)
(-0.00041490469 -2.2470643e-05 -1.3780916e-20)
(-0.00039983125 -2.2459677e-05 -1.2163145e-20)
(-0.00038490607 -2.2446181e-05 1.1709521e-20)
(-0.00037012709 -2.2430489e-05 1.159921e-20)
(-0.0003554922 -2.2412929e-05 5.3931305e-21)
(-0.00034099917 -2.2393801e-05 -8.5021541e-21)
(-0.00032664573 -2.2373386e-05 -1.3757874e-20)
(-0.00031242955 -2.2351962e-05 -7.3513898e-23)
(-0.00029834823 -2.2329779e-05 1.0843735e-20)
(-0.00028439933 -2.2307077e-05 6.8224298e-21)
(-0.00027058035 -2.2284082e-05 -8.0226696e-21)
(-0.00025688879 -2.2260995e-05 -6.2400426e-21)
(-0.00024332208 -2.2238014e-05 5.1178484e-21)
(-0.00022987764 -2.2215317e-05 -3.3882723e-21)
(-0.00021655288 -2.2193075e-05 1.7507779e-21)
(-0.00020334517 -2.2171438e-05 -2.2148269e-21)
(-0.00019025189 -2.2150545e-05 -4.4397326e-21)
(-0.00017727041 -2.213053e-05 8.4457022e-21)
(-0.00016439809 -2.2111498e-05 7.9370657e-22)
(-0.00015163229 -2.2093548e-05 -1.0122507e-21)
(-0.0001389704 -2.2076747e-05 -2.5926583e-21)
(-0.0001264098 -2.2061147e-05 -2.5979776e-21)
(-0.00011394789 -2.204676e-05 7.6858258e-21)
(-0.00010158208 -2.2033519e-05 3.3870405e-21)
(-8.9309751e-05 -2.2021261e-05 1.4732133e-22)
(-7.7128175e-05 -2.2009661e-05 -6.8729399e-21)
(-6.5034332e-05 -2.1998147e-05 -2.8667652e-21)
(-5.3024468e-05 -2.1985967e-05 7.1556243e-21)
(-4.1092965e-05 -2.1973571e-05 1.7658789e-21)
(-2.9229468e-05 -2.1968011e-05 -8.1375413e-22)
(-1.7421721e-05 -2.1997172e-05 -3.3655958e-22)
(-5.7505266e-06 -2.211689e-05 3.0240096e-21)
(-4.2817108e-05 0.00034260117 -2.3538329e-19)
(-9.6330221e-05 0.00034326815 -7.4455512e-20)
(-0.0001575414 0.00034316761 1.8571531e-20)
(-0.00021688209 0.00034272418 -5.1655851e-20)
(-0.00027755609 0.00034178494 3.3237017e-20)
(-0.00033783143 0.00034038632 -1.8572442e-20)
(-0.00039764504 0.00033859204 -4.7189442e-21)
(-0.00045694253 0.00033643544 -7.5044889e-21)
(-0.00051563344 0.00033393932 1.9069446e-20)
(-0.00057362411 0.00033112104 3.9500691e-20)
(-0.00063082671 0.00032799482 2.7684826e-20)
(-0.00068715814 0.00032457326 4.1330249e-20)
(-0.000742539 0.00032086824 -3.3881528e-20)
(-0.00079689387 0.00031689138 7.4521055e-21)
(-0.0008501515 0.00031265433 3.7555129e-20)
(-0.0009022446 0.00030816893 -2.758725e-20)
(-0.00095310982 0.00030344729 3.1662712e-20)
(-0.0010026878 0.00029850179 8.7981991e-21)
(-0.001050923 0.00029334517 -1.969099e-20)
(-0.001097764 0.00028799039 1.781518e-20)
(-0.0011431634 0.00028245067 3.0839733e-21)
(-0.0011870778 0.00027673943 5.4511935e-21)
(-0.001229468 0.00027087026 4.2442666e-20)
(-0.0012702987 0.00026485684 1.6285504e-20)
(-0.0013095389 0.00025871293 -2.7365813e-20)
(-0.0013471616 0.00025245232 -3.790765e-20)
(-0.0013831439 0.00024608875 -3.9031092e-20)
(-0.001417467 0.00023963592 5.8123664e-21)
(-0.0014501158 0.00023310742 2.2710166e-21)
(-0.0014810792 0.00022651669 -1.9326804e-20)
(-0.0015103498 0.00021987698 -1.8365599e-20)
(-0.0015379235 0.00021320098 4.2566394e-21)
(-0.0015638004 0.00020650011 3.7371058e-20)
(-0.001587985 0.00019978612 -2.5200979e-20)
(-0.0016104848 0.00019307155 -7.088641e-20)
(-0.0016313101 0.00018636858 1.8945335e-20)
(-0.001650474 0.00017968852 7.202498e-20)
(-0.0016679926 0.00017304196 1.2310687e-20)
(-0.0016838848 0.00016643891 -4.2103448e-21)
(-0.0016981725 0.00015988882 -1.0907428e-20)
(-0.0017108798 0.00015340068 -8.1608484e-21)
(-0.0017220333 0.00014698296 2.0671663e-20)
(-0.0017316615 0.00014064363 2.0632214e-20)
(-0.0017397953 0.00013439013 -3.3186804e-20)
(-0.0017464671 0.00012822939 1.368784e-20)
(-0.001751711 0.00012216778 -1.5647554e-20)
(-0.0017555627 0.00011621118 -4.0714981e-20)
(-0.0017580591 0.00011036492 7.7742827e-21)
(-0.0017592381 0.00010463384 -3.4585697e-20)
(-0.001759139 9.9022269e-05 2.9164165e-20)
(-0.0017578017 9.3534033e-05 3.1105404e-20)
(-0.0017552667 8.8172524e-05 -2.443747e-20)
(-0.0017515752 8.2940668e-05 2.54179e-20)
(-0.0017467689 7.7840971e-05 -7.4691641e-22)
(-0.0017408896 7.2875526e-05 -5.8876371e-21)
(-0.0017339795 6.8046043e-05 3.0752136e-21)
(-0.0017260805 6.3353823e-05 -1.3313292e-20)
(-0.0017172346 5.8799676e-05 2.1674587e-20)
(-0.0017074836 5.4383984e-05 1.4635658e-21)
(-0.0016968691 5.0106765e-05 -5.5368939e-20)
(-0.0016854323 4.5967717e-05 -4.824648e-21)
(-0.0016732138 4.1966245e-05 4.4846945e-20)
(-0.0016602538 3.810146e-05 1.0144223e-20)
(-0.001646592 3.437222e-05 -1.5854171e-20)
(-0.0016322672 3.0777142e-05 8.3899085e-21)
(-0.0016173177 2.7314603e-05 -4.1287612e-21)
(-0.0016017808 2.3982813e-05 -3.3996513e-20)
(-0.0015856931 2.0779776e-05 9.8670275e-21)
(-0.0015690902 1.7703347e-05 7.7475298e-21)
(-0.0015520069 1.4751265e-05 7.4421382e-21)
(-0.0015344769 1.1921161e-05 -3.5565405e-21)
(-0.0015165332 9.2105816e-06 -4.3323293e-21)
(-0.0014982075 6.6168498e-06 -1.2378119e-20)
(-0.0014795306 4.1368244e-06 -1.7940305e-20)
(-0.001460532 1.7684544e-06 2.1663762e-20)
(-0.0014412383 -4.864675e-07 -1.9055716e-21)
(-0.0014216816 -2.6280944e-06 -1.7594502e-20)
(-0.0014018909 -4.6682714e-06 -3.4624201e-20)
(-0.0013818879 -6.6108589e-06 -2.854061e-20)
(-0.0013616968 -8.4583185e-06 1.8677729e-20)
(-0.0013413413 -1.0213626e-05 8.8404133e-21)
(-0.0013208441 -1.1879807e-05 -2.6364407e-20)
(-0.001300227 -1.3459867e-05 -2.2423186e-21)
(-0.0012795106 -1.4956783e-05 -9.8156162e-22)
(-0.0012587146 -1.6373502e-05 4.8593024e-21)
(-0.0012378575 -1.7712938e-05 1.4179481e-20)
(-0.0012169572 -1.8977973e-05 -2.5921359e-20)
(-0.0011960305 -2.0171436e-05 -6.3618567e-21)
(-0.0011750933 -2.1296112e-05 -6.0336031e-22)
(-0.0011541606 -2.2354751e-05 2.6965759e-21)
(-0.0011332468 -2.3350053e-05 4.1371815e-21)
(-0.001112365 -2.4284653e-05 -1.2993647e-20)
(-0.001091528 -2.5161142e-05 2.0194154e-20)
(-0.0010707475 -2.5982045e-05 1.4467768e-21)
(-0.0010500345 -2.6749831e-05 3.5656453e-21)
(-0.0010293994 -2.7466914e-05 1.9013554e-20)
(-0.0010088518 -2.8135628e-05 -2.2409207e-20)
(-0.00098840051 -2.8758244e-05 -6.5373417e-21)
(-0.00096805394 -2.9336986e-05 -2.7383709e-21)
(-0.0009478197 -2.9873988e-05 2.1054014e-22)
(-0.00092770484 -3.0371337e-05 1.7220074e-20)
(-0.00090771583 -3.0831043e-05 -5.6080583e-21)
(-0.00088785859 -3.125505e-05 5.8689585e-21)
(-0.0008681385 -3.1645252e-05 -9.3432381e-21)
(-0.00084856044 -3.2003449e-05 4.8858154e-21)
(-0.0008291288 -3.2331389e-05 1.9343927e-20)
(-0.00080984751 -3.2630768e-05 -1.2981135e-20)
(-0.00079072006 -3.2903206e-05 -2.3024543e-21)
(-0.00077174951 -3.315027e-05 -1.5560809e-20)
(-0.00075293853 -3.3373464e-05 -2.0330999e-20)
(-0.0007342894 -3.3574224e-05 3.0866232e-21)
(-0.00071580405 -3.3753935e-05 1.2442623e-20)
(-0.00069748406 -3.3913925e-05 1.356136e-20)
(-0.00067933069 -3.4055467e-05 -3.6796754e-21)
(-0.00066134489 -3.4179784e-05 -1.335202e-20)
(-0.00064352731 -3.4288042e-05 -6.1669191e-22)
(-0.00062587835 -3.4381358e-05 -5.7664469e-21)
(-0.00060839814 -3.4460795e-05 7.481188e-21)
(-0.00059108655 -3.4527374e-05 5.5036993e-21)
(-0.00057394326 -3.4582064e-05 2.8291428e-21)
(-0.00055696771 -3.4625794e-05 4.0509172e-21)
(-0.00054015914 -3.4659452e-05 -8.2717295e-21)
(-0.00052351662 -3.4683872e-05 -2.1482265e-21)
(-0.00050703901 -3.4699854e-05 2.9732788e-21)
(-0.00049072504 -3.470817e-05 1.0340145e-20)
(-0.00047457328 -3.4709535e-05 1.0899545e-20)
(-0.00045858214 -3.4704636e-05 -3.6576982e-22)
(-0.00044274992 -3.4694138e-05 2.2660729e-21)
(-0.00042707479 -3.4678643e-05 -1.0956192e-20)
(-0.00041155482 -3.4658744e-05 -1.5202157e-21)
(-0.00039618797 -3.4635e-05 1.1677192e-20)
(-0.0003809721 -3.4607926e-05 4.0416892e-21)
(-0.00036590498 -3.4578023e-05 5.9002822e-21)
(-0.00035098432 -3.454576e-05 -5.9432312e-21)
(-0.00033620775 -3.4511565e-05 -9.2966222e-21)
(-0.00032157285 -3.4475862e-05 -6.9412983e-21)
(-0.00030707711 -3.443904e-05 3.7919166e-21)
(-0.00029271802 -3.4401459e-05 1.5295471e-21)
(-0.00027849298 -3.4363472e-05 -5.1014385e-21)
(-0.00026439937 -3.4325387e-05 -4.7881523e-22)
(-0.00025043456 -3.4287504e-05 4.1332113e-21)
(-0.00023659586 -3.4250102e-05 -5.6023622e-22)
(-0.00022288058 -3.4213437e-05 4.9065339e-21)
(-0.00020928601 -3.4177744e-05 6.3651694e-22)
(-0.00019580942 -3.4143242e-05 -3.3321523e-21)
(-0.00018244808 -3.4110128e-05 2.5521562e-21)
(-0.00016919925 -3.4078572e-05 -5.0937361e-21)
(-0.00015606022 -3.4048733e-05 1.2866065e-21)
(-0.00014302824 -3.4020734e-05 6.2402505e-21)
(-0.0001301006 -3.3994676e-05 4.887651e-21)
(-0.00011727456 -3.3970624e-05 3.8120273e-21)
(-0.0001045474 -3.3948586e-05 7.3111807e-22)
(-9.1916335e-05 -3.3928521e-05 2.3976428e-21)
(-7.9378469e-05 -3.3910311e-05 -7.3409438e-21)
(-6.6930688e-05 -3.38938e-05 -1.6228389e-21)
(-5.4569547e-05 -3.3878954e-05 5.412364e-21)
(-4.2290906e-05 -3.3866763e-05 4.3136612e-22)
(-3.0087095e-05 -3.3861684e-05 2.8745531e-21)
(-1.7948131e-05 -3.3877196e-05 2.7276292e-21)
(-5.9307223e-06 -3.3930453e-05 5.0927366e-21)
(-4.3168716e-05 0.00046748012 -2.9998722e-19)