/*--------------------------------*- C++ -*----------------------------------*\
| =========                 |                                                 |
| \\      /  F ield         | OpenFOAM: The Open Source CFD Toolbox           |
|  \\    /   O peration     | Version:  2106                                  |
|   \\  /    A nd           | Website:  www.openfoam.com                      |
|    \\/     M anipulation  |                                                 |
\*---------------------------------------------------------------------------*/
FoamFile
{
    version     2.0;
    format      ascii;
    arch        "LSB;label=32;scalar=64";
    class       volVectorField;
    location    "0.042";
    object      U;
}
// * * * * * * * * * * * * * * * * * * * * * * * * * * * * * * * * * * * * * //

dimensions      [0 1 -1 0 0 0 0];

internalField   nonuniform List<vector> 
1024
(
(0.002402621 -0.0023614558 0)
(0.0071156751 -0.0022713533 0)
(0.011557239 -0.0020945201 0)
(0.015557612 -0.0018375743 0)
(0.018963614 -0.0015101562 0)
(0.021644393 -0.0011245906 0)
(0.023496434 -0.00069544988 0)
(0.024447614 -0.00023903065 0)
(0.024460053 0.00022724621 0)
(0.023531972 0.00068544373 0)
(0.021697503 0.0011179329 0)
(0.019026216 0.0015078492 0)
(0.015620124 0.0018399722 0)
(0.011610102 0.0021012606 0)
(0.0071507903 0.0022814134 0)
(0.0024145888 0.0023733071 0)
(-0.0024151401 0.0023733021 0)
(-0.007151321 0.0022813983 0)
(-0.011610592 0.0021012358 0)
(-0.015620555 0.0018399381 0)
(-0.01902657 0.001507807 0)
(-0.021697765 0.0011178839 0)
(-0.023532129 0.00068539014 0)
(-0.024460099 0.00022719047 0)
(-0.024447547 -0.00023908584 0)
(-0.023496259 -0.00069550195 0)
(-0.021644117 -0.0011246373 0)
(-0.018963251 -0.0015101959 0)
(-0.015557177 -0.0018376059 0)
(-0.011556749 -0.0020945429 0)
(-0.0071151489 -0.0022713671 0)
(-0.0024020762 -0.0023614604 0)
(0.0025267909 -0.0071862207 0)
(0.007483448 -0.0069120483 0)
(0.012154633 -0.0063739604 0)
(0.016361901 -0.0055920906 0)
(0.019944168 -0.0045957665 0)
(0.022763816 -0.0034224847 0)
(0.024711966 -0.0021165821 0)
(0.025712729 -0.00072764447 0)
(0.025726255 0.00069130087 0)
(0.024750488 0.0020857958 0)
(0.022821434 0.0034019755 0)
(0.020012081 0.0045886602 0)
(0.016429722 0.0055994805 0)
(0.012211991 0.0063947298 0)
(0.0075215587 0.0069430447 0)
(0.0025397976 0.0072227359 0)
(-0.0025403696 0.0072227207 0)
(-0.0075221096 0.0069429991 0)
(-0.012212501 0.0063946546 0)
(-0.016430171 0.0055993773 0)
(-0.02001245 0.0045885319 0)
(-0.022821707 0.0034018267 0)
(-0.024750652 0.0020856327 0)
(-0.025726303 0.00069113108 0)
(-0.025712658 -0.00072781253 0)
(-0.024711781 -0.0021167404 0)
(-0.022763528 -0.0034226265 0)
(-0.01994379 -0.0045958869 0)
(-0.016361449 -0.0055921861 0)
(-0.012154126 -0.0063740292 0)
(-0.0074829033 -0.0069120898 0)
(-0.0025262275 -0.0071862345 0)
(0.0027492926 -0.012373418 0)
(0.0081424318 -0.011901381 0)
(0.01322496 -0.01097496 0)
(0.017802721 -0.0096288133 0)
(0.021700455 -0.0079134232 0)
(0.024768445 -0.005893337 0)
(0.02688824 -0.0036448772 0)
(0.027977286 -0.0012533997 0)
(0.027992226 0.0011898277 0)
(0.026930772 0.0035910271 0)
(0.024832064 0.005857452 0)
(0.021775438 0.007900988 0)
(0.017877601 0.0096417381 0)
(0.01328829 0.01101129 0)
(0.0081845176 0.011955599 0)
(0.0027636702 0.012437291 0)
(-0.0027642816 0.012437265 0)
(-0.0081851075 0.011955522 0)
(-0.013288837 0.011011162 0)
(-0.017878084 0.0096415626 0)
(-0.021775836 0.0079007691 0)
(-0.024832359 0.0058571969 0)
(-0.026930949 0.0035907468 0)
(-0.027992276 0.0011895357 0)
(-0.027977207 -0.0012536884 0)
(-0.026888038 -0.0036451485 0)
(-0.024768131 -0.0058935789 0)
(-0.021700046 -0.0079136273 0)
(-0.017802235 -0.0096289745 0)
(-0.013224417 -0.010975076 0)
(-0.0081418518 -0.01190145 0)
(-0.0027486938 -0.012373441 0)
(0.003078776 -0.018101817 0)
(0.0091182388 -0.017411249 0)
(0.0148098 -0.016055942 0)
(0.019936015 -0.014086607 0)
(0.024300631 -0.011577108 0)
(0.027736033 -0.0086218825 0)
(0.030109652 -0.0053325833 0)
(0.031329117 -0.0018340607 0)
(0.031345932 0.0017402129 0)
(0.030157521 0.0052530915 0)
(0.027807635 0.0085689083 0)
(0.024385016 0.011558752 0)
(0.020020281 0.014105685 0)
(0.014881067 0.016109565 0)
(0.0091656032 0.017491273 0)
(0.0030949687 0.018196091 0)
(-0.0030956414 0.018196054 0)
(-0.0091662538 0.017491163 0)
(-0.014881673 0.016109382 0)
(-0.020020819 0.014105432 0)
(-0.024385463 0.011558435 0)
(-0.027807968 0.0085685368 0)
(-0.03015772 0.0052526814 0)
(-0.031345986 0.0017397848 0)
(-0.031329024 -0.0018344834 0)
(-0.03010942 -0.0053329785 0)
(-0.027735678 -0.0086222326 0)
(-0.024300173 -0.011577401 0)
(-0.019935476 -0.014086836 0)
(-0.014809203 -0.016056106 0)
(-0.0091176041 -0.017411346 0)
(-0.0030781228 -0.018101849 0)
(0.0035212975 -0.024592134 0)
(0.010428795 -0.023653899 0)
(0.016938236 -0.021812544 0)
(0.022800871 -0.019137003 0)
(0.027792261 -0.015727682 0)
(0.031720797 -0.011712932 0)
(0.034435017 -0.0072444624 0)
(0.035829455 -0.0024918611 0)
(0.035848776 0.0023636415 0)
(0.034490021 0.0071358613 0)
(0.031803069 0.011640563 0)
(0.027889214 0.015702612 0)
(0.022897682 0.019163072 0)
(0.017020109 0.0218858 0)
(0.010483212 0.023763215 0)
(0.0035399138 0.024720912 0)
(-0.0035406715 0.024720865 0)
(-0.010483948 0.023763072 0)
(-0.017020799 0.02188556 0)
(-0.0228983 0.019162737 0)
(-0.027889732 0.015702186 0)
(-0.031803457 0.01164006 0)
(-0.034490254 0.0071353013 0)
(-0.035848838 0.0023630551 0)
(-0.035829342 -0.0024924387 0)
(-0.034434741 -0.0072449989 0)
(-0.031720381 -0.011713403 0)
(-0.027791731 -0.01572807 0)
(-0.022800256 -0.019137303 0)
(-0.016937562 -0.021812755 0)
(-0.010428085 -0.023654024 0)
(-0.0035205704 -0.024592175 0)
(0.0040937708 -0.03207631 0)
(0.012124174 -0.030852346 0)
(0.019691528 -0.028450279 0)
(0.026506557 -0.024960137 0)
(0.032308372 -0.020513029 0)
(0.036874403 -0.01527651 0)
(0.040028873 -0.0094485294 0)
(0.041649523 -0.0032502498 0)
(0.041672283 0.0030821534 0)
(0.040093668 0.0093061579 0)
(0.03697132 0.015181648 0)
(0.032422582 0.020480183 0)
(0.026620596 0.024994333 0)
(0.019787971 0.028546324 0)
(0.012188281 0.030995648 0)
(0.0041157223 0.032245119 0)
(-0.0041165895 0.032245061 0)
(-0.012189128 0.030995472 0)
(-0.019788772 0.028546025 0)
(-0.026621323 0.024993909 0)
(-0.032423198 0.020479636 0)
(-0.036971788 0.015180991 0)
(-0.040093951 0.0093054191 0)
(-0.041672355 0.0030813756 0)
(-0.04164938 -0.0032510138 0)
(-0.040028532 -0.0094492316 0)
(-0.036873898 -0.015277116 0)
(-0.032307741 -0.020513521 0)
(-0.026505839 -0.02496051 0)
(-0.019690754 -0.028450537 0)
(-0.012123368 -0.030852496 0)
(-0.0040929503 -0.032076359 0)
(0.0048447827 -0.040838392 0)
(0.014348244 -0.039279664 0)
(0.023303225 -0.036220732 0)
(0.031367232 -0.031776453 0)
(0.038231582 -0.026114059 0)
(0.043633214 -0.019447181 0)
(0.047364654 -0.012028005 0)
(0.049281867 -0.0041380536 0)
(0.049309539 0.0039224199 0)
(0.047443437 0.011845374 0)
(0.043751065 0.019325507 0)
(0.038370471 0.026071955 0)
(0.031505919 0.03182036 0)
(0.023420519 0.036343972 0)
(0.014426229 0.03946351 0)
(0.0048715268 0.041054947 0)
(-0.0048725265 0.04105488 0)
(-0.014427213 0.039463303 0)
(-0.023421463 0.036343614 0)
(-0.03150679 0.031819841 0)
(-0.038371224 0.026071271 0)
(-0.043751647 0.019324668 0)
(-0.047443793 0.011844415 0)
(-0.049309626 0.0039214012 0)
(-0.049281679 -0.0041390496 0)
(-0.047364219 -0.012028907 0)
(-0.043632584 -0.019447943 0)
(-0.038230815 -0.02611466 0)
(-0.031366378 -0.031776896 0)
(-0.023302324 -0.03622103 0)
(-0.014347321 -0.039279834 0)
(-0.0048438526 -0.040838447 0)
(0.0058803683 -0.051302677 0)
(0.017414999 -0.049343727 0)
(0.028283104 -0.045499614 0)
(0.038068731 -0.039915072 0)
(0.046397299 -0.03280078 0)
(0.052950065 -0.02442572 0)
(0.057476119 -0.015107029 0)
(0.059801789 -0.0051983244 0)
(0.059836672 0.004924059 0)
(0.057575452 0.014874733 0)
(0.053098691 0.024270972 0)
(0.046572491 0.032747278 0)
(0.038243693 0.039971008 0)
(0.028431101 0.045656471 0)
(0.017513433 0.049577668 0)
(0.0059142028 0.051578215 0)
(-0.005915352 0.051578141 0)
(-0.017514576 0.049577437 0)
(-0.02843222 0.045656063 0)
(-0.038244752 0.039970396 0)
(-0.046573432 0.032746444 0)
(-0.053099437 0.024269917 0)
(-0.057575918 0.014873496 0)
(-0.059836783 0.004922725 0)
(-0.059801531 -0.0051996195 0)
(-0.057475545 -0.015108177 0)
(-0.052949258 -0.02442666 0)
(-0.046396347 -0.032801494 0)
(-0.038067706 -0.039915575 0)
(-0.028282053 -0.045499938 0)
(-0.017413946 -0.049343905 0)
(-0.0058793202 -0.051302733 0)
(0.0073845192 -0.064173338 0)
(0.021869288 -0.061721435 0)
(0.035515772 -0.056910423 0)
(0.047801205 -0.049922128 0)
(0.058255233 -0.04102114 0)
(0.066478366 -0.030545084 0)
(0.072156858 -0.018891292 0)
(0.075074502 -0.0065022111 0)
(0.075119798 0.006152924 0)
(0.072285886 0.018595415 0)
(0.066671503 0.030347981 0)
(0.058482964 0.040953071 0)
(0.048028679 0.049993539 0)
(0.03570822 0.057110437 0)
(0.021997341 0.062019648 0)
(0.0074286598 0.064524531 0)
(-0.0074299632 0.064524457 0)
(-0.021998657 0.062019413 0)
(-0.035709544 0.05711 0)
(-0.048029976 0.049992847 0)
(-0.058484161 0.040952079 0)
(-0.066672489 0.03034667 0)
(-0.072286524 0.018593819 0)
(-0.075119948 0.0061511586 0)
(-0.075074134 -0.0065039061 0)
(-0.072156074 -0.018892751 0)
(-0.066477306 -0.030546224 0)
(-0.058254034 -0.041021957 0)
(-0.047799965 -0.049922665 0)
(-0.03551455 -0.056910744 0)
(-0.021868101 -0.061721599 0)
(-0.0073833594 -0.064173387 0)
(0.0096095584 -0.080604462 0)
(0.028458293 -0.077522161 0)
(0.046214308 -0.071474998 0)
(0.062196685 -0.06269258 0)
(0.075793173 -0.051508992 0)
(0.086484832 -0.038350397 0)
(0.093865028 -0.023717003 0)
(0.097655173 -0.0081652588 0)
(0.097714249 0.0077177109 0)
(0.094033427 0.023337752 0)
(0.0867371 0.038097726 0)
(0.076090772 0.05142186 0)
(0.062494002 0.062784416 0)
(0.046465866 0.071731801 0)
(0.028625721 0.077904876 0)
(0.0096674332 0.081055061 0)
(-0.0096688757 0.081055002 0)
(-0.028627212 0.077904672 0)
(-0.046467424 0.071731381 0)
(-0.0624956 0.062783684 0)
(-0.076092319 0.051420721 0)
(-0.086738441 0.03809612 0)
(-0.094034345 0.02333569 0)
(-0.097714465 0.0077153225 0)
(-0.097654619 -0.0081675088 0)
(-0.093863915 -0.023718855 0)
(-0.086483402 -0.038351752 0)
(-0.075791637 -0.051509877 0)
(-0.062195183 -0.062693095 0)
(-0.046212903 -0.07147526 0)
(-0.028456987 -0.077522271 0)
(-0.0096083168 -0.080604489 0)
(0.012793244 -0.10229889 0)
(0.037886011 -0.098382693 0)
(0.061521591 -0.090700906 0)
(0.082792608 -0.07954659 0)
(0.10088322 -0.065346323 0)
(0.11510336 -0.048644607 0)
(0.12491292 -0.030078077 0)
(0.12994431 -0.01035543 0)
(0.1300181 0.0097803651 0)
(0.12512362 0.029590385 0)
(0.11541956 0.048319605 0)
(0.10125664 0.065234461 0)
(0.083165781 0.079665183 0)
(0.061837317 0.091031833 0)
(0.03809613 0.098875576 0)
(0.012866023 0.10287894 0)
(-0.012867562 0.10287892 0)
(-0.038097778 0.098875466 0)
(-0.061839135 0.091031517 0)
(-0.083167761 0.079664494 0)
(-0.10125868 0.065233219 0)
(-0.11542144 0.048317676 0)
(-0.12512502 0.029587716 0)
(-0.13001844 0.009777015 0)
(-0.12994342 -0.010358484 0)
(-0.12491127 -0.030080431 0)
(-0.11510137 -0.048646164 0)
(-0.10088122 -0.065347192 0)
(-0.082790788 -0.079546977 0)
(-0.061520006 -0.090701014 0)
(-0.037884629 -0.098382687 0)
(-0.012791985 -0.10229887 0)
(0.016945638 -0.13135762 0)
(0.050182077 -0.12632231 0)
(0.081485483 -0.1164479 0)
(0.10965313 -0.10211232 0)
(0.13360242 -0.083866288 0)
(0.15241961 -0.062415022 0)
(0.16538815 -0.038578597 0)
(0.17202304 -0.013273561 0)
(0.17210434 0.012544174 0)
(0.1656213 0.037959108 0)
(0.15277129 0.062002129 0)
(0.13401923 0.083724383 0)
(0.11007018 0.10226361 0)
(0.081838398 0.11686927 0)
(0.050416798 0.12694945 0)
(0.017026988 0.13209505 0)
(-0.017028531 0.1320951 0)
(-0.050418548 0.12694954 0)
(-0.081840494 0.1168692 0)
(-0.11007266 0.10226312 0)
(-0.13402197 0.083723146 0)
(-0.15277402 0.06199989 0)
(-0.16562361 0.037955686 0)
(-0.17210493 0.012539218 0)
(-0.17202151 -0.013277839 0)
(-0.16538558 -0.03858158 0)
(-0.15241675 -0.062416704 0)
(-0.13359977 -0.083866963 0)
(-0.10965093 -0.10211239 0)
(-0.081483746 -0.1164477 0)
(-0.050180704 -0.12632209 0)
(-0.016944482 -0.13135752 0)
(0.021464705 -0.16953052 0)
(0.063563526 -0.16302279 0)
(0.10321089 -0.15026547 0)
(0.13888352 -0.13174702 0)
(0.16920598 -0.10818126 0)
(0.19302036 -0.080485806 0)
(0.20940994 -0.049714778 0)
(0.21775631 -0.017072323 0)
(0.21782003 0.016185172 0)
(0.20959562 0.048954686 0)
(0.19330542 0.079973608 0)
(0.16954984 0.10800229 0)
(0.13923026 0.13192928 0)
(0.10350519 0.15077886 0)
(0.063758966 0.16378773 0)
(0.02153231 0.17042921 0)
(-0.021533653 0.17042939 0)
(-0.063760684 0.1637882 0)
(-0.10350756 0.15077932 0)
(-0.13923341 0.13192929 0)
(-0.16955363 0.10800127 0)
(-0.19330948 0.079971168 0)
(-0.20959973 0.048950488 0)
(-0.21782122 0.016177319 0)
(-0.21775345 -0.01707861 0)
(-0.20940569 -0.049718512 0)
(-0.19301606 -0.080487389 0)
(-0.16920238 -0.10818137 0)
(-0.13888086 -0.13174643 0)
(-0.10320907 -0.15026471 0)
(-0.063562328 -0.1630222 0)
(-0.021463865 -0.16953028 0)
(0.024615507 -0.21646315 0)
(0.07289403 -0.20814484 0)
(0.1183578 -0.19184145 0)
(0.15926128 -0.16817419 0)
(0.19401612 -0.138051 0)
(0.22129247 -0.10266176 0)
(0.24004236 -0.063350683 0)
(0.24951676 -0.021672202 0)
(0.24951379 0.020683165 0)
(0.24004627 0.062494909 0)
(0.22131291 0.10208483 0)
(0.19404485 0.13784084 0)
(0.15929319 0.16836915 0)
(0.11838746 0.19241127 0)
(0.072913177 0.2090006 0)
(0.024622105 0.21747119 0)
(-0.024622825 0.21747159 0)
(-0.072914556 0.20900176 0)
(-0.11839002 0.19241271 0)
(-0.15929725 0.16837024 0)
(-0.19405023 0.13784044 0)
(-0.22131899 0.10208241 0)
(-0.24005396 0.062490487 0)
(-0.24951654 0.020669999 0)
(-0.24951123 -0.021682157 0)
(-0.24003496 -0.063355176 0)
(-0.22128581 -0.10266266 0)
(-0.19401116 -0.13804978 0)
(-0.15925813 -0.16817238 0)
(-0.11835608 -0.19183974 0)
(-0.072893292 -0.20814366 0)
(-0.02461533 -0.2164627 0)
(0.023096467 -0.26685775 0)
(0.06841244 -0.25657178 0)
(0.11108323 -0.23645186 0)
(0.14946877 -0.2072475 0)
(0.18206198 -0.17006574 0)
(0.2076262 -0.12641492 0)
(0.22516727 -0.077897559 0)
(0.23386192 -0.026446458 0)
(0.23369246 0.025546329 0)
(0.22472443 0.077081692 0)
(0.20700789 0.12585757 0)
(0.18135258 0.16985832 0)
(0.14877757 0.20741971 0)
(0.11051502 0.23697508 0)
(0.068039537 0.2573667 0)
(0.022972641 0.26778084 0)
(-0.022972191 0.26778157 0)
(-0.068040101 0.25736899 0)
(-0.11051749 0.23697816 0)
(-0.14878276 0.20742281 0)
(-0.18136011 0.16985886 0)
(-0.20701591 0.12585484 0)
(-0.22473737 0.077078012 0)
(-0.23369941 0.025522302 0)
(-0.2338527 -0.02646546 0)
(-0.22515419 -0.077903111 0)
(-0.20761598 -0.12641431 0)
(-0.18205543 -0.17006202 0)
(-0.14946541 -0.20724372 0)
(-0.11108193 -0.23644872 0)
(-0.06841248 -0.25656975 0)
(-0.023097251 -0.26685699 0)
(0.012300937 -0.30977038 0)
(0.036410083 -0.29786477 0)
(0.059092927 -0.27451256 0)
(0.079465254 -0.2406105 0)
(0.096699365 -0.19737347 0)
(0.11015268 -0.14669543 0)
(0.11933138 -0.090232651 0)
(0.12361471 -0.030095461 0)
(0.12321044 0.029769159 0)
(0.11824352 0.089802725 0)
(0.10858444 0.14638988 0)
(0.094860863 0.19722761 0)
(0.077627311 0.24064575 0)
(0.05752701 0.27472875 0)
(0.035364982 0.29822074 0)
(0.011930639 0.31022607 0)
(-0.011929528 0.31022739 0)
(-0.035364804 0.29822522 0)
(-0.057528744 0.27473518 0)
(-0.077632575 0.24065439 0)
(-0.094869154 0.19723115 0)
(-0.10859036 0.14638549 0)
(-0.11825377 0.089807231 0)
(-0.12322424 0.029733083 0)
(-0.12360996 -0.030136117 0)
(-0.11931375 -0.090234358 0)
(-0.11013974 -0.14668752 0)
(-0.096692344 -0.19736251 0)
(-0.079462686 -0.24060304 0)
(-0.059092395 -0.27450717 0)
(-0.036410643 -0.29786155 0)
(-0.012302048 -0.30976915 0)
(-0.011836943 -0.31031689 0)
(-0.03509181 -0.29831311 0)
(-0.05708579 -0.2748182 0)
(-0.077037598 -0.24073367 0)
(-0.094149792 -0.19731031 0)
(-0.10778372 -0.14646354 0)
(-0.11740567 -0.089867084 0)
(-0.12231964 -0.029648544 0)
(-0.12263834 0.030233883 0)
(-0.1183743 0.090221146 0)
(-0.10929894 0.14670748 0)
(-0.095960352 0.19740602 0)
(-0.078865059 0.24066295 0)
(-0.058650043 0.27458315 0)
(-0.036138825 0.2979461 0)
(-0.012210911 0.3098601 0)
(0.012209709 0.30986141 0)
(0.036138573 0.29795056 0)
(0.058651734 0.27458955 0)
(0.078870332 0.24067156 0)
(0.095968697 0.19740956 0)
(0.10930482 0.14670312 0)
(0.11838449 0.090225661 0)
(0.12265227 0.030197743 0)
(0.12231489 -0.029689206 0)
(0.11738806 -0.089868801 0)
(0.10777084 -0.14645561 0)
(0.094142794 -0.19729932 0)
(0.077035015 -0.24072619 0)
(0.057085223 -0.27481279 0)
(0.035092315 -0.29830988 0)
(0.011837987 -0.31031564 0)
(-0.02287822 -0.26805643 0)
(-0.0677626 -0.25763439 0)
(-0.11006739 -0.23722469 0)
(-0.14817857 -0.20764253 0)
(-0.18062831 -0.1700444 0)
(-0.20619 -0.12599651 0)
(-0.22385469 -0.077161066 0)
(-0.23277338 -0.025513291 0)
(-0.23288954 0.026533868 0)
(-0.22421805 0.077978639 0)
(-0.20676772 0.12653622 0)
(-0.18131681 0.17022978 0)
(-0.14886178 0.20745128 0)
(-0.11063467 0.23668889 0)
(-0.068137568 0.25683198 0)
(-0.023004541 0.26713119 0)
(0.02300405 0.26713191 0)
(0.068138087 0.25683423 0)
(0.11063708 0.23669193 0)
(0.1488669 0.20745432 0)
(0.18132428 0.17023031 0)
(0.20677571 0.1265335 0)
(0.22423102 0.077974892 0)
(0.23289647 0.02650961 0)
(0.23276406 -0.025532272 0)
(0.22384158 -0.077166627 0)
(0.20617973 -0.12599588 0)
(0.18062172 -0.17004063 0)
(0.14817518 -0.20763873 0)
(0.11006606 -0.23722151 0)
(0.067762618 -0.25763235 0)
(0.022878983 -0.26805566 0)
(-0.024526353 -0.21793153 0)
(-0.072629681 -0.20944469 0)
(-0.11792821 -0.19282197 0)
(-0.15867731 -0.16873068 0)
(-0.19329788 -0.13813817 0)
(-0.22046531 -0.10230411 0)
(-0.23913225 -0.062622777 0)
(-0.24855468 -0.020699625 0)
(-0.24853516 0.021746188 0)
(-0.23909045 0.06349034 0)
(-0.22042027 0.10287687 0)
(-0.1932557 0.13833816 0)
(-0.15864013 0.16852488 0)
(-0.11789786 0.19224328 0)
(-0.07261151 0.20858235 0)
(-0.024520152 0.21691959 0)
(0.024520836 0.21691998 0)
(0.072612848 0.20858348 0)
(0.11790037 0.1922447 0)
(0.15864414 0.16852595 0)
(0.19326101 0.13833774 0)
(0.22042628 0.10287443 0)
(0.23909804 0.063485871 0)
(0.24853788 0.021732893 0)
(0.24854916 -0.020709594 0)
(0.2391248 -0.062627285 0)
(0.22045861 -0.10230501 0)
(0.19329289 -0.13813694 0)
(0.15867413 -0.16872885 0)
(0.11792647 -0.19282024 0)
(0.07262893 -0.20944349 0)
(0.024526166 -0.21793108 0)
(-0.021433748 -0.17108804 0)
(-0.063465525 -0.1644218 0)
(-0.10302898 -0.15136356 0)
(-0.13859062 -0.13244176 0)
(-0.16877245 -0.1084219 0)
(-0.19242086 -0.080282576 0)
(-0.20863741 -0.049138589 0)
(-0.21681922 -0.016232986 0)
(-0.21674632 0.017153624 0)
(-0.20843466 0.049913547 0)
(-0.192123 0.080798319 0)
(-0.1684215 0.10859805 0)
(-0.13824134 0.13225365 0)
(-0.1027346 0.15084346 0)
(-0.063270419 0.16365029 0)
(-0.021365227 0.17018365 0)
(0.02136653 0.17018383 0)
(0.063272095 0.16365075 0)
(0.10273692 0.15084389 0)
(0.13824443 0.13225364 0)
(0.16842523 0.10859702 0)
(0.19212701 0.080795863 0)
(0.20843872 0.049909342 0)
(0.21674747 0.017145803 0)
(0.21681633 -0.016239289 0)
(0.20863313 -0.049142329 0)
(0.19241653 -0.080284156 0)
(0.16876883 -0.108422 0)
(0.13858794 -0.13244116 0)
(0.10302715 -0.15136279 0)
(0.063464317 -0.1644212 0)
(0.021432902 -0.17108781 0)
(-0.016922769 -0.13294879 0)
(-0.050105876 -0.12777033 0)
(-0.08133333 -0.11762537 0)
(-0.10939111 -0.10292539 0)
(-0.13319294 -0.084265692 0)
(-0.15182985 -0.062401219 0)
(-0.16460032 -0.038199592 0)
(-0.17104064 -0.012616189 0)
(-0.1709557 0.013368948 0)
(-0.16436001 0.038833911 0)
(-0.15147257 0.062821068 0)
(-0.13277344 0.084408498 0)
(-0.10897376 0.1027708 0)
(-0.080981141 0.11719807 0)
(-0.049871413 0.12713581 0)
(-0.016839987 0.13220356 0)
(0.016841489 0.13220361 0)
(0.049873122 0.12713589 0)
(0.080983193 0.117198 0)
(0.10897619 0.1027703 0)
(0.13277614 0.084407242 0)
(0.15147525 0.06281881 0)
(0.16436228 0.038830473 0)
(0.17095626 0.013363983 0)
(0.17103908 -0.012620478 0)
(0.16459771 -0.038202585 0)
(0.15182696 -0.062402906 0)
(0.13319027 -0.084266366 0)
(0.10938889 -0.10292546 0)
(0.081331585 -0.11762516 0)
(0.050104498 -0.12777011 0)
(0.016921611 -0.13294869 0)
(-0.012751806 -0.10396129 0)
(-0.037755379 -0.099915892 0)
(-0.061283605 -0.091989641 0)
(-0.082420963 -0.080503166 0)
(-0.10034987 -0.065919895 0)
(-0.11438594 -0.048825681 0)
(-0.1240026 -0.029897391 0)
(-0.12885181 -0.0098768477 0)
(-0.12877691 0.010471162 0)
(-0.12378996 0.030399585 0)
(-0.11406891 0.049159203 0)
(-0.099977309 0.06603448 0)
(-0.082049795 0.080382326 0)
(-0.060969896 0.091652618 0)
(-0.037546062 0.099414308 0)
(-0.012677628 0.10337127 0)
(0.012679127 0.10337124 0)
(0.03754767 0.099414189 0)
(0.060971675 0.091652287 0)
(0.082051736 0.080381619 0)
(0.099979309 0.066033219 0)
(0.11407076 0.049157251 0)
(0.12379133 0.030396893 0)
(0.12877723 0.010467791 0)
(0.1288509 -0.0098799209 0)
(0.12400093 -0.029899759 0)
(0.11438393 -0.048827246 0)
(0.10034786 -0.065920767 0)
(0.082419138 -0.080503552 0)
(0.06128202 -0.091989748 0)
(0.037753999 -0.099915884 0)
(0.012750552 -0.10396127 0)
(-0.0095319646 -0.082314609 0)
(-0.028222069 -0.079115222 0)
(-0.045809931 -0.072845748 0)
(-0.06161147 -0.063758586 0)
(-0.075016009 -0.05221842 0)
(-0.085511692 -0.038685915 0)
(-0.092704462 -0.023695162 0)
(-0.096332502 -0.0078313196 0)
(-0.096273527 0.008298384 0)
(-0.092536789 0.024090344 0)
(-0.085261357 0.038948913 0)
(-0.074721494 0.052309492 0)
(-0.061317698 0.063664457 0)
(-0.045561332 0.072581298 0)
(-0.028055929 0.078720933 0)
(-0.0094728781 0.081850317 0)
(0.0094742838 0.081850255 0)
(0.028057384 0.078720719 0)
(0.045562853 0.072580863 0)
(0.061319259 0.063663706 0)
(0.074723006 0.05230833 0)
(0.085262664 0.038947282 0)
(0.092537677 0.024088257 0)
(0.096273721 0.008295973 0)
(0.096331935 -0.0078335911 0)
(0.092703341 -0.023697032 0)
(0.085510259 -0.038687282 0)
(0.075014474 -0.052219314 0)
(0.061609972 -0.063759105 0)
(0.045808533 -0.072846012 0)
(0.028220773 -0.079115334 0)
(0.0095307343 -0.082314636 0)
(-0.0072567503 -0.066331029 0)
(-0.021485978 -0.063755842 0)
(-0.034877464 -0.058708902 0)
(-0.046910969 -0.0513923 0)
(-0.057121753 -0.042098064 0)
(-0.065119486 -0.031195177 0)
(-0.070602903 -0.019112573 0)
(-0.073370532 -0.0063208687 0)
(-0.073326129 0.006688876 0)
(-0.070476578 0.019424297 0)
(-0.064930734 0.031403203 0)
(-0.056899525 0.042171047 0)
(-0.046689136 0.05131963 0)
(-0.034689598 0.058502117 0)
(-0.021360287 0.063446701 0)
(-0.0072118924 0.065966596 0)
(0.0072131571 0.065966519 0)
(0.021361565 0.063446454 0)
(0.034690885 0.058501661 0)
(0.046690398 0.051318915 0)
(0.056900689 0.042170028 0)
(0.064931692 0.031401865 0)
(0.070477192 0.019422676 0)
(0.073326262 0.0066870887 0)
(0.073370154 -0.0063225854 0)
(0.070602114 -0.019114052 0)
(0.065118428 -0.031196336 0)
(0.057120561 -0.042098896 0)
(0.046909742 -0.051392849 0)
(0.034876258 -0.058709231 0)
(0.02148481 -0.063756011 0)
(0.0072556113 -0.066331079 0)
(-0.0056638495 -0.052865206 0)
(-0.016769946 -0.050813794 0)
(-0.0272233 -0.046793156 0)
(-0.036618321 -0.040963852 0)
(-0.044592344 -0.03355785 0)
(-0.050840144 -0.024868319 0)
(-0.055125477 -0.015236578 0)
(-0.057289474 -0.0050376012 0)
(-0.057255277 0.0053360571 0)
(-0.055028152 0.015489375 0)
(-0.050694639 0.025036909 0)
(-0.044420914 0.033616678 0)
(-0.03644706 0.040904169 0)
(-0.027078133 0.046624217 0)
(-0.016672709 0.050561356 0)
(-0.0056290403 0.052567585 0)
(0.0056301473 0.05256751 0)
(0.01667381 0.050561123 0)
(0.027079213 0.046623806 0)
(0.036448083 0.040903554 0)
(0.044421824 0.033615841 0)
(0.05069536 0.025035852 0)
(0.055028598 0.015488139 0)
(0.057255374 0.0053347267 0)
(0.057289208 -0.0050388905 0)
(0.055124902 -0.01523772 0)
(0.050839345 -0.024869251 0)
(0.044591407 -0.033558556 0)
(0.036617317 -0.040964347 0)
(0.027222274 -0.046793474 0)
(0.016768922 -0.050813968 0)
(0.0056628327 -0.05286526 0)
(-0.0045551046 -0.045133068 0)
(-0.013487364 -0.043383749 0)
(-0.02189565 -0.039954785 0)
(-0.029454192 -0.03498239 0)
(-0.035871405 -0.028663454 0)
(-0.040901306 -0.021247001 0)
(-0.044352882 -0.013023535 0)
(-0.046097083 -0.004312834 0)
(-0.046070883 0.0045493192 0)
(-0.04427834 0.013224097 0)
(-0.040789902 0.021381286 0)
(-0.03574016 0.028711315 0)
(-0.029323011 0.034936893 0)
(-0.021784343 0.039823138 0)
(-0.013412705 0.043186208 0)
(-0.0045282859 0.044899841 0)
(0.0045292522 0.044899756 0)
(0.013413656 0.043185948 0)
(0.021785256 0.039822696 0)
(0.029323854 0.034936261 0)
(0.035740889 0.028710494 0)
(0.040790464 0.021380293 0)
(0.04427868 0.013222973 0)
(0.046070962 0.0045481301 0)
(0.046096891 -0.0043139997 0)
(0.044352449 -0.013024599 0)
(0.040900684 -0.02124791 0)
(0.035870651 -0.028664184 0)
(0.029453357 -0.034982938 0)
(0.021894772 -0.03995516 0)
(0.013486466 -0.043383966 0)
(0.0045542011 -0.045133139 0)
(-0.0035744145 -0.032730293 0)
(-0.01058359 -0.031460491 0)
(-0.017181564 -0.028971604 0)
(-0.02311262 -0.025362754 0)
(-0.028147859 -0.020777243 0)
(-0.032094045 -0.015396386 0)
(-0.034801218 -0.0094314021 0)
(-0.036167988 -0.0031145398 0)
(-0.036144843 0.0033103589 0)
(-0.034735301 0.0095973318 0)
(-0.031995389 0.01550704 0)
(-0.028031484 0.020815637 0)
(-0.022996222 0.025322995 0)
(-0.017082741 0.028859815 0)
(-0.010517332 0.031293667 0)
(-0.003550671 0.032533695 0)
(0.0035514295 0.032533662 0)
(0.010518074 0.031293566 0)
(0.017083446 0.028859639 0)
(0.022996864 0.025322737 0)
(0.028032031 0.020815292 0)
(0.031995804 0.015506615 0)
(0.034735549 0.0095968455 0)
(0.036144898 0.0033098448 0)
(0.036167849 -0.003115038 0)
(0.034800902 -0.0094318474 0)
(0.032093584 -0.015396754 0)
(0.028147292 -0.020777525 0)
(0.02311198 -0.025362954 0)
(0.017180882 -0.028971732 0)
(0.010582885 -0.031460561 0)
(0.0035736997 -0.032730315 0)
(-0.0030965296 -0.033916644 0)
(-0.0091686201 -0.032604129 0)
(-0.014885017 -0.030031048 0)
(-0.020024411 -0.026298898 0)
(-0.024388411 -0.02155455 0)
(-0.027809578 -0.015983975 0)
(-0.030157562 -0.0098045877 0)
(-0.031344 -0.0032562936 0)
(-0.03132536 0.0034082432 0)
(-0.030104425 0.009933584 0)
(-0.027729966 0.016070577 0)
(-0.024294433 0.021585818 0)
(-0.019930364 0.026270364 0)
(-0.01480522 0.029947305 0)
(-0.0091150392 0.032478139 0)
(-0.0030771896 0.033767703 0)
(0.0030780125 0.033767596 0)
(0.009115837 0.032477818 0)
(0.014805967 0.029946777 0)
(0.019931031 0.02626964 0)
(0.024294989 0.02158492 0)
(0.027730381 0.016069534 0)
(0.030104673 0.009932439 0)
(0.031325426 0.0034070491 0)
(0.031343879 -0.0032574779 0)
(0.030157264 -0.0098057061 0)
(0.027809127 -0.015984981 0)
(0.024387836 -0.021555406 0)
(0.020023743 -0.02629958 0)
(0.014884283 -0.030031543 0)
(0.009167846 -0.032604429 0)
(0.0030957361 -0.033916744 0)
(-0.002282181 -0.016582114 0)
(-0.0067573934 -0.015937921 0)
(-0.010969641 -0.014675346 0)
(-0.014755449 -0.012844927 0)
(-0.017968516 -0.010519643 0)
(-0.02048547 -0.0077917041 0)
(-0.022210556 -0.0047685693 0)
(-0.023079109 -0.0015683152 0)
(-0.023059729 0.0016851093 0)
(-0.022155373 0.0048673507 0)
(-0.020402936 0.0078573194 0)
(-0.017871223 0.010542019 0)
(-0.01465819 0.012820566 0)
(-0.010887171 0.014607829 0)
(-0.0067022024 0.015837418 0)
(-0.0022626056 0.016463806 0)
(0.0022629193 0.016463841 0)
(0.006702508 0.01583752 0)
(0.010887459 0.01460799 0)
(0.014658449 0.012820776 0)
(0.017871441 0.010542266 0)
(0.020403098 0.0078575923 0)
(0.022155466 0.0048676408 0)
(0.023059745 0.0016854104 0)
(0.023079048 -0.0015680083 0)
(0.022210426 -0.0047682623 0)
(0.020485282 -0.0077914063 0)
(0.017968285 -0.010519368 0)
(0.014755188 -0.01284469 0)
(0.010969361 -0.014675163 0)
(0.0067571032 -0.015937805 0)
(0.0022818867 -0.016582073 0)
(-0.0029471331 -0.029648417 0)
(-0.0087262419 -0.028503756 0)
(-0.014167224 -0.026259355 0)
(-0.019059621 -0.023002935 0)
(-0.023214698 -0.018861583 0)
(-0.026472826 -0.013996556 0)
(-0.028709606 -0.0085968515 0)
(-0.029840679 -0.0028716105 0)
(-0.029824122 0.0029582415 0)
(-0.028662444 0.0086705464 0)
(-0.026402252 0.014046347 0)
(-0.023131421 0.018880124 0)
(-0.018976244 0.022987652 0)
(-0.014096352 0.026212786 0)
(-0.0086785524 0.028433187 0)
(-0.0029297735 0.029564731 0)
(0.0029307116 0.02956459 0)
(0.0086794558 0.02843277 0)
(0.014097188 0.026212107 0)
(0.01897698 0.022986733 0)
(0.023132026 0.018878998 0)
(0.026402701 0.014045056 0)
(0.028662714 0.0086691415 0)
(0.029824204 0.0029567802 0)
(0.029840568 -0.0028730671 0)
(0.028709307 -0.008598244 0)
(0.026472356 -0.013997829 0)
(0.023214079 -0.018862689 0)
(0.019058881 -0.023003835 0)
(0.014166392 -0.026260019 0)
(0.0087253484 -0.028504163 0)
(0.0029462081 -0.029648554 0)
(-0.0024864347 0.00058390085 0)
(-0.0073629801 0.00056392991 0)
(-0.011953642 0.00052445909 0)
(-0.016080586 0.00046626556 0)
(-0.019584499 0.00039061582 0)
(-0.022330875 0.00029937848 0)
(-0.024215176 0.00019510227 0)
(-0.025166403 8.1267822e-05 0)
(-0.025148226 -3.8546805e-05 0)
(-0.02416328 -0.00015912879 0)
(-0.022253274 -0.00027580918 0)
(-0.019492994 -0.00038324664 0)
(-0.015989134 -0.00047639338 0)
(-0.01187619 -0.00055071398 0)
(-0.007311327 -0.00060246042 0)
(-0.0024684666 -0.00062897275 0)
(0.00246822 -0.00062887019 0)
(0.0073110913 -0.00060215742 0)
(0.011875974 -0.0005502226 0)
(0.015988944 -0.00047573305 0)
(0.019492838 -0.00038244315 0)
(0.022253155 -0.00027489336 0)
(0.024163202 -0.00015813524 0)
(0.02514819 -3.7512741e-05 0)
(0.025166411 8.2303027e-05 0)
(0.024215231 0.00019610074 0)
(0.022330976 0.00030030231 0)
(0.019584645 0.00039142898 0)
(0.016080772 0.00046693555 0)
(0.011953861 0.00052495863 0)
(0.0073632226 0.00056423835 0)
(0.0024866906 0.00058400532 0)
(-0.0054165104 -0.025637693 0)
(-0.01603872 -0.024650449 0)
(-0.026041532 -0.022714328 0)
(-0.035039028 -0.019904207 0)
(-0.042684591 -0.016328697 0)
(-0.048684337 -0.012125887 0)
(-0.052808292 -0.007458116 0)
(-0.054900386 -0.0025065116 0)
(-0.054883567 0.0025324702 0)
(-0.052760369 0.0074804193 0)
(-0.048612572 0.012141445 0)
(-0.04259982 0.016335407 0)
(-0.034954042 0.019901304 0)
(-0.025969132 0.022702482 0)
(-0.015989757 0.024631661 0)
(-0.0053982589 0.025614984 0)
(0.0053998671 0.025614807 0)
(0.015991304 0.024631137 0)
(0.02597056 0.022701629 0)
(0.034955295 0.019900152 0)
(0.042600849 0.016333999 0)