/*--------------------------------*- C++ -*----------------------------------*\
| =========                 |                                                 |
| \\      /  F ield         | OpenFOAM: The Open Source CFD Toolbox           |
|  \\    /   O peration     | Version:  2106                                  |
|   \\  /    A nd           | Website:  www.openfoam.com                      |
|    \\/     M anipulation  |                                                 |
\*---------------------------------------------------------------------------*/
FoamFile
{
    version     2.0;
    format      ascii;
    arch        "LSB;label=32;scalar=64";
    class       volVectorField;
    location    "0.042";
    object      U_0;
}
// * * * * * * * * * * * * * * * * * * * * * * * * * * * * * * * * * * * * * //

dimensions      [0 1 -1 0 0 0 0];

internalField   nonuniform List<vector> 
1024
(
(0.0024014219 -0.0023602791 0)
(0.0071121237 -0.0022702219 0)
(0.011551472 -0.0020934775 0)
(0.015549851 -0.0018366608 0)
(0.01895416 -0.0015094069 0)
(0.021633607 -0.0011240341 0)
(0.023484733 -0.00069510771 0)
(0.024435447 -0.00023891579 0)
(0.024447888 0.00022712944 0)
(0.023520276 0.00068509997 0)
(0.021686727 0.0011173754 0)
(0.019016771 0.0015070995 0)
(0.015612374 0.0018390591 0)
(0.011604343 0.0021002192 0)
(0.0071472445 0.0022802836 0)
(0.0024133916 0.0023721323 0)
(-0.002413943 0.0023721273 0)
(-0.0071477753 0.0022802685 0)
(-0.011604834 0.0021001943 0)
(-0.015612805 0.001839025 0)
(-0.019017125 0.0015070572 0)
(-0.021686988 0.0011173264 0)
(-0.023520434 0.00068504637 0)
(-0.024447934 0.00022707369 0)
(-0.024435381 -0.000238971 0)
(-0.023484557 -0.00069515979 0)
(-0.021633332 -0.0011240809 0)
(-0.018953797 -0.0015094466 0)
(-0.015549417 -0.0018366924 0)
(-0.011550982 -0.0020935004 0)
(-0.0071115974 -0.0022702357 0)
(-0.0024008769 -0.0023602837 0)
(0.0025255345 -0.0071826453 0)
(0.0074797269 -0.0069086107 0)
(0.012148591 -0.0063707928 0)
(0.01635377 -0.0055893151 0)
(0.019934262 -0.0045934898 0)
(0.022752516 -0.0034207941 0)
(0.024699706 -0.0021155425 0)
(0.025699981 -0.00072729557 0)
(0.02571351 0.00069094605 0)
(0.024738235 0.0020847513 0)
(0.022810143 0.0034002816 0)
(0.020002186 0.0045863823 0)
(0.016421603 0.0055967062 0)
(0.012205958 0.0063915657 0)
(0.0075178438 0.0069396121 0)
(0.0025385432 0.0072191665 0)
(-0.0025391153 0.0072191512 0)
(-0.0075183949 0.0069395664 0)
(-0.012206468 0.0063914904 0)
(-0.016422051 0.005596603 0)
(-0.020002555 0.0045862539 0)
(-0.022810416 0.0034001328 0)
(-0.024738398 0.0020845881 0)
(-0.025713557 0.00069077623 0)
(-0.02569991 -0.00072746367 0)
(-0.024699521 -0.0021157009 0)
(-0.022752227 -0.003420936 0)
(-0.019933883 -0.0045936101 0)
(-0.016353318 -0.0055894106 0)
(-0.012148083 -0.0063708617 0)
(-0.0074791821 -0.0069086521 0)
(-0.0025249709 -0.0071826591 0)
(0.0027479447 -0.012367284 0)
(0.0081384399 -0.011895483 0)
(0.013218478 -0.010969526 0)
(0.017793998 -0.0096240512 0)
(0.021689828 -0.0079095169 0)
(0.024756322 -0.0058904365 0)
(0.026875089 -0.0036430937 0)
(0.027963611 -0.0012528012 0)
(0.027978554 0.0011892187 0)
(0.026917628 0.0035892347 0)
(0.024819952 0.0058545456 0)
(0.021764823 0.0078970796 0)
(0.017868891 0.009636978 0)
(0.013281819 0.011005861 0)
(0.0081805327 0.01194971 0)
(0.0027623247 0.012431167 0)
(-0.0027629362 0.012431141 0)
(-0.0081811227 0.011949633 0)
(-0.013282366 0.011005733 0)
(-0.017869374 0.0096368025 0)
(-0.021765222 0.0078968606 0)
(-0.024820248 0.0058542905 0)
(-0.026917805 0.0035889543 0)
(-0.027978604 0.0011889266 0)
(-0.027963532 -0.00125309 0)
(-0.026874887 -0.003643365 0)
(-0.024756008 -0.0058906785 0)
(-0.021689419 -0.0079097211 0)
(-0.017793512 -0.0096242124 0)
(-0.013217935 -0.010969641 0)
(-0.0081378597 -0.011895552 0)
(-0.0027473457 -0.012367307 0)
(0.0030772928 -0.018092907 0)
(0.0091138464 -0.017402682 0)
(0.014802668 -0.016048049 0)
(0.019926418 -0.014079691 0)
(0.024288939 -0.011571435 0)
(0.027722695 -0.0086176702 0)
(0.030095182 -0.0053299933 0)
(0.031314072 -0.0018331919 0)
(0.03133089 0.0017393282 0)
(0.03014306 0.0052504882 0)
(0.02779431 0.0085646871 0)
(0.024373338 0.011553075 0)
(0.020010698 0.014098772 0)
(0.014873948 0.01610168 0)
(0.0091612192 0.01748272 0)
(0.0030934884 0.018187196 0)
(-0.0030941613 0.01818716 0)
(-0.0091618699 0.01748261 0)
(-0.014874554 0.016101498 0)
(-0.020011237 0.014098519 0)
(-0.024373785 0.011552758 0)
(-0.027794642 0.0085643156 0)
(-0.030143259 0.005250078 0)
(-0.031330944 0.0017389 0)
(-0.031313979 -0.0018336147 0)
(-0.030094951 -0.0053303887 0)
(-0.02772234 -0.0086180205 0)
(-0.02428848 -0.011571728 0)
(-0.019925879 -0.01407992 0)
(-0.01480207 -0.016048212 0)
(-0.0091132116 -0.01740278 0)
(-0.0030766396 -0.01809294 0)
(0.0035196165 -0.024580133 0)
(0.010423817 -0.02364236 0)
(0.016930152 -0.021801912 0)
(0.022789994 -0.019127687 0)
(0.027779009 -0.01572004 0)
(0.03170568 -0.011707259 0)
(0.034418617 -0.0072409743 0)
(0.035812403 -0.0024906912 0)
(0.035831728 0.0023624495 0)
(0.034473632 0.0071323544 0)
(0.031787967 0.011634878 0)
(0.02787598 0.015694966 0)
(0.022886822 0.019153761 0)
(0.01701204 0.02187518 0)
(0.010478244 0.023751694 0)
(0.0035382361 0.024708932 0)
(-0.003538994 0.024708885 0)
(-0.010478979 0.023751551 0)
(-0.01701273 0.02187494 0)
(-0.02288744 0.019153425 0)
(-0.027876497 0.01569454 0)
(-0.031788355 0.011634374 0)
(-0.034473864 0.0071317944 0)
(-0.03583179 0.002361863 0)
(-0.035812291 -0.002491269 0)
(-0.034418342 -0.0072415109 0)
(-0.031705264 -0.011707729 0)
(-0.027778479 -0.015720429 0)
(-0.022789378 -0.019127987 0)
(-0.016929478 -0.021802123 0)
(-0.010423107 -0.023642485 0)
(-0.0035188892 -0.024580174 0)
(0.004091801 -0.032060751 0)
(0.012118341 -0.030837387 0)
(0.019682056 -0.028436496 0)
(0.026493811 -0.024948061 0)
(0.032292843 -0.020503124 0)
(0.03685669 -0.015269156 0)
(0.040009657 -0.0094440081 0)
(0.041629544 -0.0032487338 0)
(0.041652308 0.0030806078 0)
(0.040074464 0.0093016117 0)
(0.036953625 0.015174277 0)
(0.032407074 0.020470272 0)
(0.026607871 0.024982262 0)
(0.019778516 0.028532557 0)
(0.01218246 0.030980714 0)
(0.0041137566 0.03222959 0)
(-0.0041146239 0.032229531 0)
(-0.012183306 0.030980538 0)
(-0.019779318 0.028532258 0)
(-0.026608598 0.024981838 0)
(-0.032407691 0.020469724 0)
(-0.036954093 0.01517362 0)
(-0.040074747 0.0093008727 0)
(-0.04165238 0.0030798298 0)
(-0.0416294 -0.0032494979 0)
(-0.040009316 -0.0094447105 0)
(-0.036856185 -0.015269762 0)
(-0.032292213 -0.020503616 0)
(-0.026493093 -0.024948434 0)
(-0.019681281 -0.028436754 0)
(-0.012117534 -0.030837537 0)
(-0.0040909804 -0.0320608 0)
(0.0048423989 -0.040818599 0)
(0.014341184 -0.039260634 0)
(0.023291761 -0.036203199 0)
(0.031351807 -0.031761091 0)
(0.03821279 -0.026101458 0)
(0.043611779 -0.019437826 0)
(0.0473414 -0.012022254 0)
(0.049257689 -0.0041361255 0)
(0.049285366 0.0039204533 0)
(0.047420198 0.01183959 0)
(0.043729652 0.01931613 0)
(0.038351705 0.026059347 0)
(0.03149052 0.031805005 0)
(0.023409078 0.03632646 0)
(0.014419185 0.039444512 0)
(0.0048691481 0.041035193 0)
(-0.004870148 0.041035125 0)
(-0.014420168 0.039444305 0)
(-0.023410023 0.036326102 0)
(-0.031491392 0.031804486 0)
(-0.038352459 0.026058663 0)
(-0.043730234 0.019315291 0)
(-0.047420554 0.011838631 0)
(-0.049285453 0.0039194343 0)
(-0.0492575 -0.0041371217 0)
(-0.047340965 -0.012023156 0)
(-0.043611149 -0.019438588 0)
(-0.038212023 -0.02610206 0)
(-0.031350954 -0.031761534 0)
(-0.023290861 -0.036203497 0)
(-0.014340262 -0.039260804 0)
(-0.0048414687 -0.040818653 0)
(0.0058774157 -0.051277689 0)
(0.017406255 -0.049319703 0)
(0.028268906 -0.045477479 0)
(0.038049626 -0.039895679 0)
(0.046374024 -0.032784873 0)
(0.052923516 -0.024413911 0)
(0.057447318 -0.015099769 0)
(0.059771844 -0.0051958911 0)
(0.059806734 0.0049215755 0)
(0.057546672 0.014867431 0)
(0.053072173 0.024259134 0)
(0.046549253 0.032731362 0)
(0.038224626 0.039951624 0)
(0.028416935 0.045634364 0)
(0.01750471 0.049553686 0)
(0.0059112575 0.051553278 0)
(-0.0059124069 0.051553204 0)
(-0.017505853 0.049553455 0)
(-0.028418053 0.045633956 0)
(-0.038225684 0.039951012 0)
(-0.046550194 0.032730527 0)
(-0.05307292 0.024258079 0)
(-0.057547138 0.014866194 0)
(-0.059806845 0.0049202411 0)
(-0.059771585 -0.0051971866 0)
(-0.057446743 -0.015100918 0)
(-0.052922709 -0.024414851 0)
(-0.046373072 -0.032785587 0)
(-0.038048601 -0.039896182 0)
(-0.028267855 -0.045477803 0)
(-0.017405202 -0.049319881 0)
(-0.0058763675 -0.051277745 0)
(0.0073808441 -0.064141865 0)
(0.021858404 -0.061691176 0)
(0.0354981 -0.056882544 0)
(0.047777426 -0.049897702 0)
(0.058226264 -0.041001106 0)
(0.066445322 -0.030530211 0)
(0.072121012 -0.01888215 0)
(0.075037234 -0.0064991483 0)
(0.075082542 0.0061497935 0)
(0.072250075 0.018586215 0)
(0.066638511 0.03033307 0)
(0.058454056 0.040933023 0)
(0.048004961 0.049969125 0)
(0.0356906 0.057082596 0)
(0.021986492 0.061989446 0)
(0.0074249967 0.064493124 0)
(-0.0074263003 0.064493051 0)
(-0.021987808 0.061989211 0)
(-0.035691924 0.057082159 0)
(-0.048006258 0.049968434 0)
(-0.058455252 0.040932031 0)
(-0.066639497 0.030331758 0)
(-0.072250712 0.018584619 0)
(-0.075082692 0.0061480275 0)
(-0.075036866 -0.0065008438 0)
(-0.072120228 -0.018883609 0)
(-0.066444263 -0.030531351 0)
(-0.058225064 -0.041001923 0)
(-0.047776186 -0.049898239 0)
(-0.035496878 -0.056882864 0)
(-0.021857217 -0.06169134 0)
(-0.0073796841 -0.064141914 0)
(0.009605082 -0.080564937 0)
(0.028445036 -0.07748416 0)
(0.046192784 -0.071439987 0)
(0.062167723 -0.062661907 0)
(0.07575789 -0.051483835 0)
(0.086444589 -0.038331722 0)
(0.093821374 -0.023705525 0)
(0.097609791 -0.0081614179 0)
(0.097668889 0.0077137728 0)
(0.093989834 0.023326192 0)
(0.086696948 0.038078995 0)
(0.076055598 0.051396682 0)
(0.062465149 0.06275376 0)
(0.046444434 0.071696844 0)
(0.028612527 0.077866957 0)
(0.0096629786 0.081015633 0)
(-0.0096644212 0.081015574 0)
(-0.028614018 0.077866753 0)
(-0.046445993 0.071696424 0)
(-0.062466748 0.062753028 0)
(-0.076057146 0.051395543 0)
(-0.08669829 0.038077388 0)
(-0.093990753 0.023324128 0)
(-0.097669105 0.0077113834 0)
(-0.097609237 -0.0081636686 0)
(-0.09382026 -0.023707377 0)
(-0.086443158 -0.038333076 0)
(-0.075756355 -0.05148472 0)
(-0.062166221 -0.062662422 0)
(-0.046191379 -0.071440249 0)
(-0.02844373 -0.077484271 0)
(-0.0096038403 -0.080564964 0)
(0.012788091 -0.10224971 0)
(0.037870752 -0.09833541 0)
(0.061496815 -0.090657344 0)
(0.082759272 -0.079508427 0)
(0.10084261 -0.065315025 0)
(0.11505704 -0.048621375 0)
(0.12486268 -0.030063802 0)
(0.12989208 -0.010350664 0)
(0.12996592 0.0097754479 0)
(0.12507349 0.029575981 0)
(0.1153734 0.048296285 0)
(0.10121622 0.065203129 0)
(0.083132638 0.079627047 0)
(0.061812706 0.090988355 0)
(0.038080981 0.098828421 0)
(0.012860909 0.10282991 0)
(-0.012862448 0.10282989 0)
(-0.038082629 0.098828311 0)
(-0.061814524 0.090988039 0)
(-0.083134618 0.079626358 0)
(-0.10121826 0.065201888 0)
(-0.11537529 0.048294356 0)
(-0.12507489 0.02957331 0)
(-0.12996626 0.0097720957 0)
(-0.12989119 -0.010353719 0)
(-0.12486103 -0.030066156 0)
(-0.11505505 -0.048622932 0)
(-0.10084061 -0.065315894 0)
(-0.082757451 -0.079508813 0)
(-0.06149523 -0.090657452 0)
(-0.037869369 -0.098335404 0)
(-0.012786832 -0.10224969 0)
(0.0169403 -0.13129771 0)
(0.050166268 -0.12626472 0)
(0.081459815 -0.11639485 0)
(0.1096186 -0.10206584 0)
(0.13356035 -0.083828175 0)
(0.15237163 -0.062386734 0)
(0.1653361 -0.038561219 0)
(0.17196894 -0.013267779 0)
(0.17205031 0.012538149 0)
(0.16556942 0.037941522 0)
(0.15272357 0.061973697 0)
(0.13397747 0.083686214 0)
(0.11003596 0.10221717 0)
(0.081812994 0.11681635 0)
(0.050401166 0.12689207 0)
(0.017021712 0.13203539 0)
(-0.017023254 0.13203544 0)
(-0.050402916 0.12689216 0)
(-0.081815089 0.11681628 0)
(-0.11003843 0.10221669 0)
(-0.13398021 0.083684979 0)
(-0.1527263 0.061971458 0)
(-0.16557173 0.037938098 0)
(-0.1720509 0.012533188 0)
(-0.17196741 -0.013272059 0)
(-0.16533352 -0.038564202 0)
(-0.15236876 -0.062388416 0)
(-0.1335577 -0.083828849 0)
(-0.10961639 -0.10206591 0)
(-0.081458078 -0.11639465 0)
(-0.050164896 -0.1262645 0)
(-0.016939144 -0.13129761 0)
(0.02146015 -0.16946025 0)
(0.063550035 -0.16295523 0)
(0.10318898 -0.15020323 0)
(0.13885404 -0.13169249 0)
(0.16917006 -0.10813655 0)
(0.19297939 -0.080452623 0)
(0.20936548 -0.04969439 0)
(0.2177101 -0.017065562 0)
(0.2177739 0.016178036 0)
(0.20955139 0.048933976 0)
(0.19326479 0.079940204 0)
(0.16951434 0.1079575 0)
(0.13920119 0.13187483 0)
(0.10348363 0.15071684 0)
(0.063745707 0.16372051 0)
(0.021527836 0.17035933 0)
(-0.021529179 0.17035951 0)
(-0.063747425 0.16372098 0)
(-0.103486 0.1507173 0)
(-0.13920433 0.13187484 0)
(-0.16951812 0.10795649 0)
(-0.19326886 0.079937768 0)
(-0.20955551 0.048929774 0)
(-0.21777509 0.016170172 0)
(-0.21770724 -0.017071854 0)
(-0.20936123 -0.049698124 0)
(-0.19297509 -0.080454203 0)
(-0.16916647 -0.10813666 0)
(-0.13885138 -0.13169191 0)
(-0.10318717 -0.15020247 0)
(-0.063548837 -0.16295464 0)
(-0.02145931 -0.16946001 0)
(0.024613037 -0.21638527 0)
(0.072886711 -0.20806996 0)
(0.11834591 -0.19177247 0)
(0.15924527 -0.16811375 0)
(0.1939966 -0.13800146 0)
(0.22127021 -0.102625 0)
(0.24001815 -0.063328053 0)
(0.24949151 -0.021664679 0)
(0.2494886 0.020675132 0)
(0.24002224 0.062471809 0)
(0.22129094 0.10204772 0)
(0.19402568 0.13779118 0)
(0.15927753 0.16830882 0)
(0.11837586 0.19234261 0)
(0.072906053 0.20892621 0)
(0.024619703 0.21739388 0)
(-0.024620423 0.21739427 0)
(-0.072907432 0.20892736 0)
(-0.11837842 0.19234405 0)
(-0.15928159 0.16830992 0)
(-0.19403105 0.13779078 0)
(-0.22129702 0.10204531 0)
(-0.24002995 0.062467384 0)
(-0.24949135 0.020661937 0)
(-0.24948596 -0.021674643 0)
(-0.24001074 -0.063332538 0)
(-0.22126355 -0.10262588 0)
(-0.19399165 -0.13800024 0)
(-0.15924212 -0.16811194 0)
(-0.11834419 -0.19177075 0)
(-0.072885973 -0.20806878 0)
(-0.02461286 -0.21638482 0)
(0.023096991 -0.26677712 0)
(0.068413979 -0.25649425 0)
(0.11108571 -0.23638042 0)
(0.14947208 -0.20718488 0)
(0.18206599 -0.17001442 0)
(0.20763082 -0.12637683 0)
(0.22517219 -0.077873987 0)
(0.23386661 -0.02643832 0)
(0.23369706 0.025537659 0)
(0.22472917 0.077057506 0)
(0.20701234 0.12581905 0)
(0.18135645 0.16980685 0)
(0.14878074 0.20735725 0)
(0.11051737 0.23690405 0)
(0.068040991 0.25728977 0)
(0.022973133 0.26770091 0)
(-0.022972682 0.26770165 0)
(-0.068041553 0.25729206 0)
(-0.11051984 0.23690713 0)
(-0.14878592 0.20736035 0)
(-0.18136397 0.16980741 0)
(-0.20702039 0.12581635 0)
(-0.22474216 0.077053829 0)
(-0.23370403 0.025513546 0)
(-0.23385735 -0.026457353 0)
(-0.22515908 -0.077879509 0)
(-0.2076206 -0.1263762 0)
(-0.18205945 -0.17001069 0)
(-0.14946873 -0.20718111 0)
(-0.11108442 -0.23637728 0)
(-0.06841402 -0.25649222 0)
(-0.023097776 -0.26677636 0)
(0.012303232 -0.30969603 0)
(0.036416871 -0.29779326 0)
(0.05910392 -0.27444668 0)
(0.079479969 -0.2405527 0)
(0.096717249 -0.19732624 0)
(0.11017323 -0.14666059 0)
(0.11935381 -0.090210879 0)
(0.12363657 -0.030086126 0)
(0.12323169 0.029759937 0)
(0.11826471 0.089780246 0)
(0.10860371 0.14635461 0)
(0.094877355 0.19718029 0)
(0.077640621 0.24058806 0)
(0.0575368 0.27466309 0)
(0.035370959 0.29814955 0)
(0.011932652 0.31015209 0)
(-0.011931538 0.31015341 0)
(-0.035370778 0.29815403 0)
(-0.057538529 0.27466951 0)
(-0.077645877 0.2405967 0)
(-0.094885641 0.19718386 0)
(-0.10860966 0.14635032 0)
(-0.11827508 0.089784802 0)
(-0.12324557 0.029723601 0)
(-0.12363172 -0.030126881 0)
(-0.11933604 -0.090212409 0)
(-0.11016028 -0.14665261 0)
(-0.096710242 -0.19731528 0)
(-0.079477411 -0.24054526 0)
(-0.059103393 -0.27444129 0)
(-0.036417433 -0.29779004 0)
(-0.012304343 -0.3096948 0)
(-0.011838972 -0.31024288 0)
(-0.035097838 -0.2982419 0)
(-0.057095658 -0.2747525 0)
(-0.077050994 -0.24067593 0)
(-0.094166382 -0.197263 0)
(-0.10780322 -0.14642849 0)
(-0.11742745 -0.089844991 0)
(-0.1223414 -0.029638841 0)
(-0.12266007 0.030225027 0)
(-0.11839649 0.090198978 0)
(-0.10931959 0.14667241 0)
(-0.095978427 0.19735876 0)
(-0.078879924 0.24060517 0)
(-0.058661134 0.27451726 0)
(-0.036145671 0.29787458 0)
(-0.012213225 0.30978573 0)
(0.01221202 0.30978704 0)
(0.036145415 0.29787903 0)
(0.05866282 0.27452365 0)
(0.078885188 0.24061378 0)
(0.095986767 0.19736233 0)
(0.10932552 0.14666816 0)
(0.11840681 0.090203543 0)
(0.12267408 0.030188628 0)
(0.12233654 -0.0296796 0)
(0.1174097 -0.08984653 0)
(0.10779032 -0.14642048 0)
(0.094159397 -0.197252 0)
(0.077048421 -0.24066846 0)
(0.057095094 -0.2747471 0)
(0.035098344 -0.29823867 0)
(0.011840017 -0.31024164 0)
(-0.02287873 -0.26797645 0)
(-0.067764107 -0.25755741 0)
(-0.11006983 -0.23715361 0)
(-0.14818184 -0.20758003 0)
(-0.18063232 -0.16999293 0)
(-0.20619465 -0.12595803 0)
(-0.22385972 -0.077136913 0)
(-0.23277824 -0.025504476 0)
(-0.23289436 0.026525866 0)
(-0.22422306 0.077955005 0)
(-0.20677248 0.12649803 0)
(-0.18132099 0.1701784 0)
(-0.14886523 0.20738862 0)
(-0.11063725 0.23661741 0)
(-0.068139166 0.2567544 0)
(-0.023005086 0.26705051 0)
(0.023004594 0.26705123 0)
(0.068139684 0.25675666 0)
(0.11063967 0.23662044 0)
(0.14887034 0.20739166 0)
(0.18132846 0.17017895 0)
(0.20678049 0.12649534 0)
(0.22423609 0.07795126 0)
(0.2329013 0.026501522 0)
(0.23276887 -0.025523488 0)
(0.22384657 -0.077142444 0)
(0.20618438 -0.12595738 0)
(0.18062573 -0.16998916 0)
(0.14817845 -0.20757623 0)
(0.1100685 -0.23715044 0)
(0.067764126 -0.25755537 0)
(0.022879493 -0.26797569 0)
(-0.024523971 -0.21785411 0)
(-0.072622616 -0.20937019 0)
(-0.11791671 -0.19275322 0)
(-0.15866177 -0.16867029 0)
(-0.19327887 -0.13808846 0)
(-0.22044354 -0.10226698 0)
(-0.23910844 -0.062599647 0)
(-0.24852971 -0.020691541 0)
(-0.2485101 0.021738697 0)
(-0.23906641 0.063467681 0)
(-0.22039818 0.10284003 0)
(-0.19323634 0.13828854 0)
(-0.15862426 0.16846437 0)
(-0.11788607 0.19217421 0)
(-0.072604253 0.20850737 0)
(-0.024517703 0.21684161 0)
(0.024518386 0.216842 0)
(0.07260559 0.20850851 0)
(0.11788858 0.19217562 0)
(0.15862826 0.16846543 0)
(0.19324165 0.13828813 0)
(0.2204042 0.10283761 0)
(0.23907402 0.063463209 0)
(0.24851283 0.021725371 0)
(0.24852417 -0.020701519 0)
(0.23910098 -0.062604149 0)
(0.22043683 -0.10226786 0)
(0.19327388 -0.13808722 0)
(0.1586586 -0.16866846 0)
(0.11791497 -0.19275149 0)
(0.072621865 -0.209369 0)
(0.024523784 -0.21785366 0)
(-0.021429298 -0.17101805 0)
(-0.063452336 -0.16435445 0)
(-0.10300753 -0.15130143 0)
(-0.1385617 -0.13238722 0)
(-0.16873713 -0.10837704 0)
(-0.19238046 -0.08024912 0)
(-0.20859343 -0.049117837 0)
(-0.21677334 -0.016225823 0)
(-0.21670035 0.017146867 0)
(-0.20839044 0.049893131 0)
(-0.19208224 0.080765073 0)
(-0.16838577 0.10855326 0)
(-0.13821202 0.13219903 0)
(-0.10271281 0.15078111 0)
(-0.063257 0.16358262 0)
(-0.021360696 0.17011326 0)
(0.021361999 0.17011344 0)
(0.063258675 0.16358307 0)
(0.10271513 0.15078154 0)
(0.13821511 0.13219902 0)
(0.16838951 0.10855223 0)
(0.19208626 0.080762621 0)
(0.20839449 0.049888921 0)
(0.2167015 0.017139035 0)
(0.21677044 -0.016232131 0)
(0.20858914 -0.049121576 0)
(0.19237613 -0.080250697 0)
(0.16873351 -0.10837714 0)
(0.13855902 -0.13238662 0)
(0.1030057 -0.15130066 0)
(0.063451128 -0.16435386 0)
(0.021428452 -0.17101781 0)
(-0.016917522 -0.13288893 0)
(-0.050090329 -0.12771276 0)
(-0.081308065 -0.11757227 0)
(-0.10935707 -0.1028788 0)
(-0.13315141 -0.084227395 0)
(-0.15178238 -0.06237269 0)
(-0.16454872 -0.038181942 0)
(-0.1709869 -0.012610137 0)
(-0.17090189 0.013363151 0)
(-0.16430824 0.038816478 0)
(-0.15142484 0.062792683 0)
(-0.1327316 0.084370251 0)
(-0.10893941 0.10272416 0)
(-0.080955612 0.11714483 0)
(-0.04985569 0.12707802 0)
(-0.016834678 0.13214345 0)
(0.01683618 0.1321435 0)
(0.049857399 0.1270781 0)
(0.080957663 0.11714476 0)
(0.10894184 0.10272366 0)
(0.13273429 0.084368997 0)
(0.15142753 0.062790425 0)
(0.16431051 0.038813037 0)
(0.17090245 0.013358182 0)
(0.17098534 -0.012614429 0)
(0.16454612 -0.038184935 0)
(0.15177949 -0.062374376 0)
(0.13314874 -0.084228068 0)
(0.10935485 -0.10287886 0)
(0.08130632 -0.11757206 0)
(0.050088952 -0.12771253 0)
(0.016916363 -0.13288883 0)
(-0.012746732 -0.10391205 0)
(-0.037740349 -0.099868534 0)
(-0.061259187 -0.091945977 0)
(-0.08238808 -0.080464866 0)
(-0.10030977 -0.065888429 0)
(-0.11434014 -0.048802259 0)
(-0.12395286 -0.029882923 0)
(-0.12880003 -0.0098719067 0)
(-0.1287251 0.010466378 0)
(-0.12374011 0.030385251 0)
(-0.11402296 0.049135871 0)
(-0.099937015 0.066003047 0)
(-0.082016719 0.080343997 0)
(-0.060945313 0.091608867 0)
(-0.037530922 0.099366821 0)
(-0.012672516 0.10332188 0)
(0.012674015 0.10332185 0)
(0.03753253 0.099366702 0)
(0.060947092 0.091608536 0)
(0.08201866 0.080343291 0)
(0.099939016 0.066001786 0)
(0.1140248 0.04913392 0)
(0.12374148 0.030382557 0)
(0.12872541 0.010463005 0)
(0.12879912 -0.0098749812 0)
(0.12395119 -0.029885292 0)
(0.11433814 -0.048803824 0)
(0.10030776 -0.065889301 0)
(0.082386255 -0.080465252 0)
(0.061257601 -0.091946083 0)
(0.037738969 -0.099868526 0)
(0.012745478 -0.10391203 0)
(-0.0095275607 -0.082274608 0)
(-0.028209025 -0.079076752 0)
(-0.045788743 -0.072810283 0)
(-0.061582945 -0.063727484 0)
(-0.074981235 -0.052192875 0)
(-0.085471996 -0.038666909 0)
(-0.092661363 -0.023683431 0)
(-0.096287656 -0.0078273217 0)
(-0.09622866 0.0082944893 0)
(-0.092493629 0.024078701 0)
(-0.085221569 0.038929966 0)
(-0.074686611 0.052283968 0)
(-0.061289064 0.063633335 0)
(-0.045540051 0.072545775 0)
(-0.028042823 0.078682376 0)
(-0.0094684522 0.081810213 0)
(0.0094698581 0.081810151 0)
(0.028044277 0.078682162 0)
(0.045541572 0.07254534 0)
(0.061290625 0.063632584 0)
(0.074688123 0.052282806 0)
(0.085222877 0.038928335 0)
(0.092494517 0.024076613 0)
(0.096228854 0.0082920773 0)
(0.096287089 -0.007829594 0)
(0.092660242 -0.023685301 0)
(0.085470562 -0.038668277 0)
(0.0749797 -0.052193768 0)
(0.061581447 -0.063728003 0)
(0.045787345 -0.072810547 0)
(0.028207729 -0.079076864 0)
(0.0095263303 -0.082274635 0)
(-0.0072531663 -0.066299707 0)
(-0.021475362 -0.06372572 0)
(-0.034860223 -0.058681135 0)
(-0.046887762 -0.051367952 0)
(-0.057093468 -0.042078069 0)
(-0.065087205 -0.031180305 0)
(-0.070567864 -0.019103397 0)
(-0.073334081 -0.0063177465 0)
(-0.073289666 0.0066858217 0)
(-0.070441507 0.019415179 0)
(-0.064898405 0.03138837 0)
(-0.056871183 0.042151067 0)
(-0.046665872 0.051295269 0)
(-0.034672308 0.058474313 0)
(-0.021349638 0.063416523 0)
(-0.0072082967 0.065935208 0)
(0.0072095616 0.065935131 0)
(0.021350917 0.063416276 0)
(0.034673596 0.058473857 0)
(0.046667133 0.051294554 0)
(0.056872347 0.042150049 0)
(0.064899363 0.031387032 0)
(0.070442122 0.019413558 0)
(0.073289799 0.0066840339 0)
(0.073333702 -0.0063194636 0)
(0.070567076 -0.019104877 0)
(0.065086147 -0.031181464 0)
(0.057092276 -0.042078902 0)
(0.046886535 -0.051368501 0)
(0.034859017 -0.058681464 0)
(0.021474195 -0.063725889 0)
(0.0072520271 -0.066299757 0)
(-0.0056609637 -0.052838449 0)
(-0.016761399 -0.050788063 0)
(-0.027209418 -0.046769436 0)
(-0.036599637 -0.040943053 0)
(-0.044569573 -0.03354077 0)
(-0.050814159 -0.024855615 0)
(-0.055097273 -0.015228741 0)
(-0.057260135 -0.0050349346 0)
(-0.05722593 0.0053334479 0)
(-0.054999926 0.015481586 0)
(-0.05066862 0.025024238 0)
(-0.044398103 0.033599611 0)
(-0.036428336 0.040883359 0)
(-0.027064218 0.046600465 0)
(-0.016664139 0.050535576 0)
(-0.0056261463 0.052540771 0)
(0.0056272535 0.052540696 0)
(0.01666524 0.050535343 0)
(0.027065298 0.046600054 0)
(0.03642936 0.040882744 0)
(0.044399013 0.033598773 0)
(0.050669341 0.025023182 0)
(0.055000372 0.01548035 0)
(0.057226028 0.0053321167 0)
(0.057259869 -0.0050362246 0)
(0.055096698 -0.015229883 0)
(0.050813359 -0.024856548 0)
(0.044568635 -0.033541476 0)
(0.036598632 -0.040943548 0)
(0.027208393 -0.046769754 0)
(0.016760375 -0.050788237 0)
(0.0056599467 -0.052838503 0)
(-0.0045528615 -0.045114461 0)
(-0.01348072 -0.043365855 0)
(-0.021884861 -0.03993829 0)
(-0.029439671 -0.034967927 0)
(-0.035853708 -0.028651577 0)
(-0.040881113 -0.021238168 0)
(-0.044330967 -0.013018086 0)
(-0.046074288 -0.0043109808 0)
(-0.046048084 0.0045475037 0)
(-0.044256413 0.013218681 0)
(-0.04076969 0.021372475 0)
(-0.035722441 0.028699446 0)
(-0.029308467 0.034922422 0)
(-0.021773535 0.039806621 0)
(-0.013406049 0.043168281 0)
(-0.0045260382 0.044881195 0)
(0.0045270045 0.04488111 0)
(0.013407 0.043168021 0)
(0.021774448 0.039806179 0)
(0.02930931 0.03492179 0)
(0.03572317 0.028698626 0)
(0.040770252 0.021371482 0)
(0.044256753 0.013217557 0)
(0.046048163 0.0045463151 0)
(0.046074096 -0.004312146 0)
(0.044330534 -0.01301915 0)
(0.04088049 -0.021239077 0)
(0.035852954 -0.028652307 0)
(0.029438836 -0.034968474 0)
(0.021883983 -0.039938665 0)
(0.013479823 -0.043366072 0)
(0.0045519581 -0.045114532 0)
(-0.0035723922 -0.032710919 0)
(-0.010577601 -0.03144186 0)
(-0.017171837 -0.02895443 0)
(-0.023099526 -0.025347697 0)
(-0.028131902 -0.02076488 0)
(-0.032075836 -0.015387192 0)
(-0.034781455 -0.0094257314 0)
(-0.03614743 -0.0031126122 0)
(-0.036124279 0.0033084673 0)
(-0.034715522 0.0095916916 0)
(-0.031977157 0.015497866 0)
(-0.0280155 0.02080328 0)
(-0.0229831 0.025307931 0)
(-0.01707299 0.028842623 0)
(-0.010511327 0.031275007 0)
(-0.003548643 0.032514288 0)
(0.0035494019 0.032514255 0)
(0.010512069 0.031274906 0)
(0.017073695 0.028842446 0)
(0.022983743 0.025307672 0)
(0.028016047 0.020802935 0)
(0.031977572 0.01549744 0)
(0.03471577 0.0095912043 0)
(0.036124335 0.0033079522 0)
(0.036147291 -0.0031131113 0)
(0.03478114 -0.0094261775 0)
(0.032075375 -0.01538756 0)
(0.028131335 -0.020765163 0)
(0.023098887 -0.025347897 0)
(0.017171154 -0.028954559 0)
(0.010576895 -0.031441931 0)
(0.0035716771 -0.032710942 0)
(-0.0030949621 -0.033907683 0)
(-0.0091639782 -0.032595511 0)
(-0.014877478 -0.030023104 0)
(-0.020014266 -0.02629193 0)
(-0.024376048 -0.021548828 0)
(-0.027795472 -0.015979719 0)
(-0.030142254 -0.0098019604 0)
(-0.031328078 -0.0032553978 0)
(-0.031309436 0.0034073719 0)
(-0.03008911 0.0099309775 0)
(-0.02771585 0.016066334 0)
(-0.024282059 0.021580101 0)
(-0.019920208 0.026263392 0)
(-0.014797673 0.029939347 0)
(-0.0091103913 0.0324695 0)
(-0.0030756203 0.033758718 0)
(0.0030764428 0.03375861 0)
(0.0091111887 0.032469179 0)
(0.014798419 0.029938818 0)
(0.019920875 0.026262668 0)
(0.024282614 0.021579202 0)
(0.027716265 0.01606529 0)
(0.030089358 0.0099298322 0)
(0.031309502 0.0034061774 0)
(0.031327957 -0.0032565823 0)
(0.030141956 -0.0098030791 0)
(0.027795021 -0.015980724 0)
(0.024375474 -0.021549684 0)
(0.020013598 -0.026292613 0)
(0.014876745 -0.030023599 0)
(0.0091632045 -0.032595811 0)
(0.003094169 -0.033907783 0)
(-0.0022802321 -0.016567231 0)
(-0.0067516211 -0.01592361 0)
(-0.010960266 -0.014662155 0)
(-0.014742832 -0.012833363 0)
(-0.017953139 -0.01051015 0)
(-0.020467923 -0.0077846471 0)
(-0.022191512 -0.0047642201 0)
(-0.0230593 -0.0015668415 0)
(-0.023039915 0.00168365 0)
(-0.022136317 0.0048630137 0)
(-0.02038537 0.0078502704 0)
(-0.017855823 0.010532528 0)
(-0.014645549 0.012808998 0)
(-0.010877777 0.014594628 0)
(-0.0066964171 0.015823093 0)
(-0.0022606519 0.016448907 0)
(0.0022609659 0.016448942 0)
(0.0066967229 0.015823195 0)
(0.010878066 0.01459479 0)
(0.014645809 0.012809209 0)
(0.017856041 0.010532776 0)
(0.020385532 0.0078505448 0)
(0.02213641 0.0048633054 0)
(0.023039931 0.0016839527 0)
(0.023059239 -0.001566533 0)
(0.022191382 -0.0047639116 0)
(0.020467735 -0.007784348 0)
(0.017952908 -0.010509873 0)
(0.01474257 -0.012833125 0)
(0.010959986 -0.014661971 0)
(0.0067513306 -0.015923493 0)
(0.0022799375 -0.01656719 0)
(-0.0029457669 -0.029649018 0)
(-0.0087221956 -0.028504334 0)
(-0.014160653 -0.026259885 0)
(-0.019050777 -0.023003397 0)
(-0.02320392 -0.018861958 0)
(-0.026460529 -0.013996831 0)
(-0.028696261 -0.0085970161 0)
(-0.029826799 -0.0028716587 0)
(-0.029810241 0.0029583108 0)
(-0.028649094 0.0086707294 0)
(-0.026389948 0.014046635 0)
(-0.023120634 0.018880506 0)
(-0.018967391 0.022988113 0)
(-0.014089773 0.026213308 0)
(-0.0086745008 0.02843375 0)
(-0.0029284053 0.029565316 0)
(0.0029293436 0.029565174 0)
(0.0086754044 0.028433333 0)
(0.014090609 0.026212627 0)
(0.018968127 0.022987192 0)
(0.02312124 0.018879377 0)
(0.026390396 0.014045341 0)
(0.028649365 0.0086693207 0)
(0.029810323 0.0029568455 0)
(0.029826688 -0.0028731192 0)
(0.028695962 -0.0085984125 0)
(0.026460059 -0.013998108 0)
(0.023203302 -0.018863068 0)
(0.019050037 -0.023004299 0)
(0.014159821 -0.026260551 0)
(0.0087213018 -0.028504741 0)
(0.0029448417 -0.029649156 0)
(-0.0024842629 0.00059533362 0)
(-0.0073565492 0.00057492272 0)
(-0.011943198 0.00053458946 0)
(-0.016066531 0.00047514413 0)
(-0.019567371 0.00039790137 0)
(-0.022311332 0.00030479105 0)
(-0.024193967 0.00019843386 0)
(-0.025144343 8.2390485e-05 0)
(-0.025126163 -3.9675941e-05 0)
(-0.024142063 -0.0001624665 0)
(-0.022233718 -0.00028122714 0)
(-0.019475852 -0.00039053664 0)
(-0.015975064 -0.00048527528 0)
(-0.011865735 -0.00056084646 0)
(-0.0073048887 -0.00061345408 0)
(-0.0024662931 -0.00064040514 0)
(0.002466045 -0.00064030202 0)
(0.0073046516 -0.00061314943 0)
(0.011865517 -0.00056035242 0)
(0.015974874 -0.00048461136 0)
(0.019475694 -0.00038972877 0)
(0.022233598 -0.00028030632 0)
(0.024141984 -0.00016146752 0)
(0.025126127 -3.8636223e-05 0)
(0.025144352 8.3431337e-05 0)
(0.024194023 0.00019943777 0)
(0.022311434 0.00030571988 0)
(0.019567518 0.00039871891 0)
(0.016066718 0.00047581771 0)
(0.011943419 0.00053509166 0)
(0.0073567932 0.0005752328 0)
(0.0024845202 0.00059543865 0)
(-0.0054160624 -0.025649158 0)
(-0.016037392 -0.024661472 0)
(-0.026039375 -0.022724485 0)
(-0.035036124 -0.019913108 0)
(-0.042681052 -0.016335999 0)
(-0.048680299 -0.012131309 0)
(-0.052803908 -0.0074614509 0)
(-0.054895825 -0.002507631 0)
(-0.054879004 0.0025336109 0)
(-0.052755978 0.0074837732 0)
(-0.048608523 0.012146882 0)
(-0.042596269 0.016342717 0)
(-0.034951125 0.019910207 0)
(-0.025966964 0.022712635 0)
(-0.015988421 0.024642675 0)
(-0.0053978075 0.025626436 0)
(0.0053994167 0.025626259 0)
(0.015989969 0.024642149 0)
(0.025968393 0.022711778 0)
(0.034952379 0.01990905 0)
(0.042597298 0.016341303 0)
(0.048609286 0.012145264 0)