/*--------------------------------*- C++ -*----------------------------------*\
| =========                 |                                                 |
| \\      /  F ield         | OpenFOAM: The Open Source CFD Toolbox           |
|  \\    /   O peration     | Version:  2306                                  |
|   \\  /    A nd           | Website:  www.openfoam.com                      |
|    \\/     M anipulation  |                                                 |
\*---------------------------------------------------------------------------*/
FoamFile
{
    version     2.0;
    format      ascii;
    arch        "LSB;label=32;scalar=64";
    class       surfaceScalarField;
    location    "0.45";
    object      phi_0;
}
// * * * * * * * * * * * * * * * * * * * * * * * * * * * * * * * * * * * * * //

dimensions      [0 3 -1 0 0 0 0];

oriented        oriented;

internalField   nonuniform List<scalar> 
12640
(
-4.2555919e-06
-2.8109384e-05
-4.0157251e-06
-2.5368124e-05
-4.0598754e-06
-2.2977433e-05
-4.3074168e-06
-2.0951555e-05
-4.6827224e-06
-1.9289185e-05
-5.1193931e-06
-1.7970903e-05
-5.5618733e-06
-1.696484e-05
-5.9667978e-06
-1.6229831e-05
-6.3028273e-06
-1.5720048e-05
-6.5504919e-06
-1.5387361e-05
-6.7010161e-06
-1.5184601e-05
-6.7546633e-06
-1.5068401e-05
-6.7187908e-06
-1.5001152e-05
-6.6057896e-06
-1.4952217e-05
-6.4310778e-06
-1.4898435e-05
-6.2112978e-06
-1.4824006e-05
-5.9627803e-06
-1.471988e-05
-5.7002912e-06
-1.4582867e-05
-5.4362057e-06
-1.4414391e-05
-5.1800778e-06
-1.4219133e-05
-4.9385469e-06
-1.400373e-05
-4.7154908e-06
-1.3775656e-05
-4.5124007e-06
-1.3542273e-05
-4.3288989e-06
-1.3310098e-05
-4.163299e-06
-1.3084362e-05
-4.0131437e-06
-1.2868823e-05
-3.8756666e-06
-1.2665792e-05
-3.7481543e-06
-1.2476304e-05
-3.6281942e-06
-1.2300376e-05
-3.5138146e-06
-1.2137302e-05
-3.4035331e-06
-1.1985939e-05
-3.2963345e-06
-1.1844956e-05
-3.1916029e-06
-1.1713024e-05
-3.0890286e-06
-1.1588952e-05
-2.9885108e-06
-1.1471753e-05
-2.8900692e-06
-1.1360668e-05
-2.7937741e-06
-1.1255154e-05
-2.6996959e-06
-1.1154845e-05
-2.6078754e-06
-1.105951e-05
-2.5183108e-06
-1.0969003e-05
-2.4309568e-06
-1.0883232e-05
-2.3457322e-06
-1.080212e-05
-2.2625305e-06
-1.0725593e-05
-2.1812323e-06
-1.0653565e-05
-2.1017145e-06
-1.0585938e-05
-2.0238589e-06
-1.0522601e-05
-1.947557e-06
-1.0463436e-05
-1.872712e-06
-1.0408322e-05
-1.7992397e-06
-1.035714e-05
-1.7270679e-06
-1.0309778e-05
-1.6561348e-06
-1.0266129e-05
-1.5863874e-06
-1.02261e-05
-1.51778e-06
-1.0189606e-05
-1.4502731e-06
-1.0156571e-05
-1.3838325e-06
-1.0126933e-05
-1.3184282e-06
-1.0100635e-05
-1.2540345e-06
-1.0077632e-05
-1.1906289e-06
-1.0057888e-05
-1.128192e-06
-1.0041373e-05
-1.0667071e-06
-1.002807e-05
-1.0061597e-06
-1.0017968e-05
-9.4653644e-07
-1.0011068e-05
-8.878249e-07
-1.000738e-05
-8.3001244e-07
-1.0006923e-05
-7.7308529e-07
-1.0009728e-05
-7.1702766e-07
-1.0015835e-05
-6.6182045e-07
-1.0025294e-05
-6.0744022e-07
-1.0038168e-05
-5.5385783e-07
-1.0054526e-05
-5.0103724e-07
-1.0074448e-05
-4.4893432e-07
-1.0098023e-05
-3.9749553e-07
-1.0125344e-05
-3.4665707e-07
-1.015651e-05
-2.9634405e-07
-1.0191616e-05
-2.4647023e-07
-1.0230746e-05
-1.9693839e-07
-1.0273966e-05
-1.4764157e-07
-1.03213e-05
-9.8465608e-08
-1.0372719e-05
-4.9292715e-08
-1.0428135e-05
-1.0487614e-05
-1.1914741e-06
-2.8369401e-05
-1.3284e-06
-2.5231198e-05
-1.7589726e-06
-2.254686e-05
-2.3873868e-06
-2.0323141e-05
-3.1221769e-06
-1.8554395e-05
-3.8850896e-06
-1.720799e-05
-4.6110285e-06
-1.6238901e-05
-5.2515453e-06
-1.5589314e-05
-5.7736162e-06
-1.5197977e-05
-6.1592086e-06
-1.5001769e-05
-6.4035107e-06
-1.4940299e-05
-6.5126328e-06
-1.4959279e-05
-6.5009537e-06
-1.5012832e-05
-6.3883841e-06
-1.5064786e-05
-6.1977778e-06
-1.5089041e-05
-5.9526797e-06
-1.5069104e-05
-5.6753216e-06
-1.4997238e-05
-5.3851234e-06
-1.4873065e-05
-5.0977834e-06
-1.4701731e-05
-4.8248921e-06
-1.4492024e-05
-4.5739583e-06
-1.4254664e-05
-4.3487437e-06
-1.400087e-05
-4.1499169e-06
-1.37411e-05
-3.9758349e-06
-1.348418e-05
-3.8233515e-06
-1.3236845e-05
-3.6885618e-06
-1.3003612e-05
-3.5674145e-06
-1.2786939e-05
-3.4561678e-06
-1.258755e-05
-3.3516748e-06
-1.2404869e-05
-3.2515167e-06
-1.223746e-05
-3.1540149e-06
-1.2083441e-05
-3.0581558e-06
-1.1940815e-05
-2.9634587e-06
-1.1807721e-05
-2.8698224e-06
-1.1682588e-05
-2.7773787e-06
-1.1564196e-05
-2.6863678e-06
-1.1451679e-05
-2.5970454e-06
-1.1344477e-05
-2.5096223e-06
-1.1242268e-05
-2.4242347e-06
-1.1144898e-05
-2.3409356e-06
-1.1052303e-05
-2.2597047e-06
-1.0964463e-05
-2.1804649e-06
-1.088136e-05
-2.1031032e-06
-1.0802954e-05
-2.0274892e-06
-1.0729179e-05
-1.9534907e-06
-1.0659936e-05
-1.8809839e-06
-1.0595108e-05
-1.8098593e-06
-1.0534561e-05
-1.7400242e-06
-1.0478157e-05
-1.6714019e-06
-1.0425763e-05
-1.6039304e-06
-1.0377249e-05
-1.5375591e-06
-1.03325e-05
-1.4722471e-06
-1.0291412e-05
-1.4079604e-06
-1.0253892e-05
-1.3446711e-06
-1.0219861e-05
-1.2823555e-06
-1.0189249e-05
-1.2209943e-06
-1.0161996e-05
-1.1605717e-06
-1.0138055e-05
-1.1010755e-06
-1.0117384e-05
-1.0424961e-06
-1.0099952e-05
-9.8482699e-07
-1.0085739e-05
-9.280639e-07
-1.0074731e-05
-8.7220398e-07
-1.0066928e-05
-8.1724535e-07
-1.0062339e-05
-7.6318602e-07
-1.0060982e-05
-7.1002297e-07
-1.0062891e-05
-6.5775096e-07
-1.0068107e-05
-6.0636125e-07
-1.0076684e-05
-5.5584032e-07
-1.0088689e-05
-5.0616844e-07
-1.0104197e-05
-4.5731808e-07
-1.0123298e-05
-4.0925246e-07
-1.0146088e-05
-3.6192417e-07
-1.0172673e-05
-3.1527366e-07
-1.0203161e-05
-2.6922835e-07
-1.0237661e-05
-2.2370201e-07
-1.0276273e-05
-1.7859495e-07
-1.0319073e-05
-1.3379535e-07
-1.03661e-05
-8.9181875e-08
-1.0417332e-05
-4.4627856e-08
-1.0472689e-05
-1.0532242e-05
2.2810703e-06
-2.8171789e-05
1.6553733e-06
-2.4605501e-05
7.3048842e-07
-2.1621975e-05
-3.667639e-07
-1.9225889e-05
-1.5357266e-06
-1.7385432e-05
-2.6889817e-06
-1.6054735e-05
-3.746365e-06
-1.5181518e-05
-4.6548369e-06
-1.4680842e-05
-5.3806242e-06
-1.447219e-05
-5.9087442e-06
-1.4473649e-05
-6.2405893e-06
-1.4608454e-05
-6.390707e-06
-1.4809161e-05
-6.3831803e-06
-1.5020358e-05
-6.2480099e-06
-1.5199957e-05
-6.0178619e-06
-1.5319189e-05
-5.7251422e-06
-1.5361824e-05
-5.3994277e-06
-1.5322953e-05
-5.0657129e-06
-1.520678e-05
-4.7434464e-06
-1.5023997e-05
-4.4462545e-06
-1.4789216e-05
-4.1821126e-06
-1.4518806e-05
-3.9540338e-06
-1.4228949e-05
-3.7610956e-06
-1.3934038e-05
-3.5995918e-06
-1.3645684e-05
-3.4641764e-06
-1.3372261e-05
-3.3488744e-06
-1.3118915e-05
-3.2478881e-06
-1.2887925e-05
-3.1561531e-06
-1.2679285e-05
-3.0696443e-06
-1.2491378e-05
-2.9854759e-06
-1.2321628e-05
-2.9018482e-06
-1.2167068e-05
-2.8178794e-06
-1.2024783e-05
-2.7333757e-06
-1.1892225e-05
-2.6485922e-06
-1.1767372e-05
-2.564019e-06
-1.164877e-05
-2.4802118e-06
-1.1535486e-05
-2.3976744e-06
-1.1427014e-05
-2.316791e-06
-1.1323152e-05
-2.2378011e-06
-1.1223887e-05
-2.1608058e-06
-1.1129298e-05
-2.0857924e-06
-1.1039476e-05
-2.0126682e-06
-1.0954484e-05
-1.9412944e-06
-1.0874328e-05
-1.8715147e-06
-1.0798958e-05
-1.8031766e-06
-1.0728274e-05
-1.7361446e-06
-1.066214e-05
-1.6703061e-06
-1.0600399e-05
-1.6055727e-06
-1.0542891e-05
-1.5418771e-06
-1.0489458e-05
-1.4791699e-06
-1.0439956e-05
-1.4174145e-06
-1.0394256e-05
-1.356584e-06
-1.0352243e-05
-1.296658e-06
-1.0313818e-05
-1.2376209e-06
-1.0278898e-05
-1.1794607e-06
-1.0247409e-05
-1.122169e-06
-1.0219288e-05
-1.0657405e-06
-1.0194484e-05
-1.010173e-06
-1.0172951e-05
-9.5546785e-07
-1.0154658e-05
-9.0162889e-07
-1.0139578e-05
-8.486627e-07
-1.0127697e-05
-7.9657775e-07
-1.0119013e-05
-7.4538359e-07
-1.0113533e-05
-6.9508998e-07
-1.0111276e-05
-6.4570567e-07
-1.0112275e-05
-5.9723722e-07
-1.0116575e-05
-5.4968763e-07
-1.0124234e-05
-5.0305468e-07
-1.0135322e-05
-4.5732943e-07
-1.0149923e-05
-4.1249433e-07
-1.0168133e-05
-3.6852147e-07
-1.0190061e-05
-3.2537063e-07
-1.0215823e-05
-2.8298769e-07
-1.0245543e-05
-2.4130305e-07
-1.0279345e-05
-2.0023073e-07
-1.0317345e-05
-1.5966833e-07
-1.0359636e-05
-1.1949809e-07
-1.040627e-05
-7.9589928e-08
-1.045724e-05
-3.9806038e-08
-1.0512472e-05
-1.0572048e-05
6.1912146e-06
-2.7382402e-05
4.9501639e-06
-2.336445e-05
3.413635e-06
-2.0085446e-05
1.725358e-06
-1.7537612e-05
1.8973521e-08
-1.5679047e-05
-1.5917532e-06
-1.4444009e-05
-3.0325941e-06
-1.3740677e-05
-4.2418682e-06
-1.3471568e-05
-5.1857942e-06
-1.3528264e-05
-5.854726e-06
-1.3804717e-05
-6.2593719e-06
-1.4203808e-05
-6.4262141e-06
-1.4642319e-05
-6.3925703e-06
-1.5054002e-05
-6.201891e-06
-1.5390636e-05
-5.8997178e-06
-1.5621363e-05
-5.5297146e-06
-1.5731827e-05
-5.1305183e-06
-1.5722149e-05
-4.7337002e-06
-1.5603598e-05
-4.3628207e-06
-1.5394877e-05
-4.033291e-06
-1.5118746e-05
-3.7528348e-06
-1.4799262e-05
-3.5227226e-06
-1.4459061e-05
-3.3393148e-06
-1.4117446e-05
-3.1957203e-06
-1.3789279e-05
-3.0833812e-06
-1.34846e-05
-2.9934383e-06
-1.3208857e-05
-2.9177827e-06
-1.2963581e-05
-2.849702e-06
-1.2747366e-05
-2.7841741e-06
-1.2556906e-05
-2.7178955e-06
-1.2387907e-05
-2.6491137e-06
-1.223585e-05
-2.5773038e-06
-1.2096593e-05
-2.5027963e-06
-1.1966733e-05
-2.4264175e-06
-1.1843751e-05
-2.3491887e-06
-1.1725998e-05
-2.2721024e-06
-1.1612572e-05
-2.1959811e-06
-1.1503135e-05
-2.1214102e-06
-1.1397723e-05
-2.0487293e-06
-1.1296568e-05
-1.9780629e-06
-1.1199964e-05
-1.9093733e-06
-1.1108166e-05
-1.8425182e-06
-1.1021339e-05
-1.7773039e-06
-1.0939542e-05
-1.7135269e-06
-1.0862736e-05
-1.6510007e-06
-1.0790801e-05
-1.5895715e-06
-1.0723569e-05
-1.5291226e-06
-1.0660848e-05
-1.4695719e-06
-1.0602442e-05
-1.4108657e-06
-1.0548164e-05
-1.3529715e-06
-1.0497851e-05
-1.2958706e-06
-1.0451357e-05
-1.2395531e-06
-1.040856e-05
-1.1840139e-06
-1.0369357e-05
-1.1292511e-06
-1.0333661e-05
-1.0752648e-06
-1.0301395e-05
-1.0220576e-06
-1.0272495e-05
-9.6963482e-07
-1.0246906e-05
-9.1800478e-07
-1.0224581e-05
-8.6717924e-07
-1.0205483e-05
-8.1717327e-07
-1.0189584e-05
-7.6800497e-07
-1.0176866e-05
-7.196948e-07
-1.0167323e-05
-6.7226482e-07
-1.0160963e-05
-6.2573753e-07
-1.0157803e-05
-5.801348e-07
-1.0157878e-05
-5.3547636e-07
-1.0161234e-05
-4.9177834e-07
-1.0167932e-05
-4.4905155e-07
-1.0178048e-05
-4.072995e-07
-1.0191675e-05
-3.6651636e-07
-1.0208916e-05
-3.2668482e-07
-1.0229893e-05
-2.8777366e-07
-1.0254735e-05
-2.497355e-07
-1.0283582e-05
-2.1250485e-07
-1.0316576e-05
-1.7599653e-07
-1.0353853e-05
-1.4010517e-07
-1.0395527e-05
-1.0470614e-07
-1.0441669e-05
-6.965865e-08
-1.0492288e-05
-3.4810976e-08
-1.054732e-05
-1.0606859e-05
1.0544301e-05
-2.5837002e-05
8.5283028e-06
-2.1348452e-05
6.2333162e-06
-1.779046e-05
3.8358585e-06
-1.5140154e-05
1.4921462e-06
-1.3335335e-05
-6.6961477e-07
-1.2282248e-05
-2.55348e-06
-1.1856812e-05
-4.0961467e-06
-1.1928901e-05
-5.2671031e-06
-1.2357307e-05
-6.06574e-06
-1.300608e-05
-6.5164639e-06
-1.3753084e-05
-6.6623998e-06
-1.4496383e-05
-6.5587309e-06
-1.5157671e-05
-6.2668192e-06
-1.5682548e-05
-5.8489214e-06
-1.603926e-05
-5.3629217e-06
-1.6217827e-05
-4.858524e-06
-1.6226547e-05
-4.3749234e-06
-1.6087198e-05
-3.9399993e-06
-1.5829801e-05
-3.5702844e-06
-1.5488461e-05
-3.2720735e-06
-1.5097473e-05
-3.0433918e-06
-1.4687743e-05
-2.8762694e-06
-1.4284568e-05
-2.759079e-06
-1.3906469e-05
-2.6786814e-06
-1.3564998e-05
-2.6222875e-06
-1.3265251e-05
-2.5788062e-06
-1.3007062e-05
-2.5395437e-06
-1.2786628e-05
-2.4984253e-06
-1.2598024e-05
-2.4519106e-06
-1.2434422e-05
-2.3986051e-06
-1.2289156e-05
-2.3387068e-06
-1.2156492e-05
-2.2734268e-06
-1.2032013e-05
-2.2044677e-06
-1.191271e-05
-2.1336107e-06
-1.1796855e-05
-2.0624321e-06
-1.1683751e-05
-1.9921458e-06
-1.1573422e-05
-1.9235511e-06
-1.1466317e-05
-1.8570589e-06
-1.136306e-05
-1.7927662e-06
-1.1264257e-05
-1.7305518e-06
-1.117038e-05
-1.6701713e-06
-1.1081719e-05
-1.6113343e-06
-1.0998379e-05
-1.5537608e-06
-1.0920309e-05
-1.4972152e-06
-1.0847346e-05
-1.4415202e-06
-1.0779264e-05
-1.3865567e-06
-1.0715812e-05
-1.3322551e-06
-1.0656743e-05
-1.2785828e-06
-1.0601837e-05
-1.225531e-06
-1.0550902e-05
-1.1731048e-06
-1.0503783e-05
-1.1213148e-06
-1.046035e-05
-1.0701737e-06
-1.0420498e-05
-1.0196939e-06
-1.0384141e-05
-9.6988791e-07
-1.0351201e-05
-9.207689e-07
-1.0321614e-05
-8.7235229e-07
-1.0295323e-05
-8.246567e-07
-1.0272277e-05
-7.7770461e-07
-1.0252435e-05
-7.315225e-07
-1.0235766e-05
-6.8614065e-07
-1.0222247e-05
-6.4159238e-07
-1.0211871e-05
-5.9791325e-07
-1.0204642e-05
-5.551398e-07
-1.0200577e-05
-5.1330829e-07
-1.0199709e-05
-4.7245323e-07
-1.0202089e-05
-4.3260558e-07
-1.0207779e-05
-3.9379093e-07
-1.0216863e-05
-3.5602735e-07
-1.0229438e-05
-3.1932295e-07
-1.0245621e-05
-2.8367309e-07
-1.0265543e-05
-2.4905772e-07
-1.028935e-05
-2.1543829e-07
-1.0317201e-05
-1.8275495e-07
-1.0349259e-05
-1.5092432e-07
-1.0385684e-05
-1.198382e-07
-1.0426613e-05
-8.9364124e-08
-1.0472143e-05
-5.9348325e-08
-1.0522304e-05
-2.962177e-08
-1.0577047e-05
-1.0636481e-05
1.535313e-05
-2.3334045e-05
1.2369033e-05
-1.8364355e-05
9.1387783e-06
-1.4560205e-05
5.877022e-06
-1.1878398e-05
2.7701397e-06
-1.0228453e-05
-3.2625336e-08
-9.4794825e-06
-2.4197312e-06
-9.4697059e-06
-4.3246133e-06
-1.0024019e-05
-5.7222907e-06
-1.095963e-05
-6.625839e-06
-1.2102532e-05
-7.0792649e-06
-1.3299658e-05
-7.1485932e-06
-1.4427055e-05
-6.9129687e-06
-1.5393295e-05
-6.457544e-06
-1.6137973e-05
-5.8660958e-06
-1.6630709e-05
-5.214367e-06
-1.6869556e-05
-4.5654517e-06
-1.6875462e-05
-3.9671961e-06
-1.6685454e-05
-3.4516485e-06
-1.6345348e-05
-3.0352499e-06
-1.590486e-05
-2.7209784e-06
-1.5411744e-05
-2.5014006e-06
-1.4907321e-05
-2.3619454e-06
-1.4424023e-05
-2.2841295e-06
-1.3984285e-05
-2.2484184e-06
-1.3600709e-05
-2.2367618e-06
-1.3276908e-05
-2.2343184e-06
-1.3009505e-05
-2.2301081e-06
-1.2790839e-05
-2.2170988e-06
-1.2611033e-05
-2.1919005e-06
-1.245962e-05
-2.1540065e-06
-1.232705e-05
-2.1049048e-06
-1.2205593e-05
-2.0472081e-06
-1.2089709e-05
-1.9839145e-06
-1.1976003e-05
-1.9178582e-06
-1.1862912e-05
-1.8513668e-06
-1.1750242e-05
-1.7861059e-06
-1.1638683e-05
-1.7230683e-06
-1.1529355e-05
-1.6626631e-06
-1.1423466e-05
-1.6048649e-06
-1.1322055e-05
-1.549376e-06
-1.1225869e-05
-1.4957702e-06
-1.1135325e-05
-1.4436029e-06
-1.1050547e-05
-1.3924831e-06
-1.0971429e-05
-1.34211e-06
-1.0897719e-05
-1.2922821e-06
-1.0829092e-05
-1.2428864e-06
-1.0765207e-05
-1.1938783e-06
-1.0705751e-05
-1.1452588e-06
-1.0650456e-05
-1.097054e-06
-1.0599107e-05
-1.0493001e-06
-1.0551537e-05
-1.0020332e-06
-1.0507617e-05
-9.5528559e-07
-1.0467246e-05
-9.0908424e-07
-1.0430342e-05
-8.6345291e-07
-1.0396832e-05
-8.1841444e-07
-1.0366653e-05
-7.739934e-07
-1.0339744e-05
-7.3021794e-07
-1.0316053e-05
-6.8712108e-07
-1.0295532e-05
-6.4474107e-07
-1.0278146e-05
-6.0312094e-07
-1.0263868e-05
-5.6230788e-07
-1.0252685e-05
-5.2235204e-07
-1.0244598e-05
-4.8330539e-07
-1.0239623e-05
-4.4522009e-07
-1.0237795e-05
-4.0814707e-07
-1.0239162e-05
-3.7213403e-07
-1.0243792e-05
-3.3722353e-07
-1.0251773e-05
-3.0345049e-07
-1.0263211e-05
-2.7083941e-07
-1.0278232e-05
-2.3940128e-07
-1.0296981e-05
-2.0913002e-07
-1.0319621e-05
-1.799986e-07
-1.0346332e-05
-1.5195523e-07
-1.0377303e-05
-1.2491998e-07
-1.0412719e-05
-9.8782473e-08
-1.0452751e-05
-7.3401614e-08
-1.0497524e-05
-4.8608216e-08
-1.0547097e-05
-2.4211613e-08
-1.0601443e-05
-1.0660692e-05
2.061872e-05
-1.9626757e-05
1.6431519e-05
-1.4177154e-05
1.2052867e-05
-1.0181553e-05
7.7435889e-06
-7.5691192e-06
3.7269498e-06
-6.2118138e-06
1.7977819e-07
-5.9323109e-06
-2.7732994e-06
-6.5166283e-06
-5.0628759e-06
-7.7344428e-06
-6.6731195e-06
-9.3493863e-06
-7.6373659e-06
-1.1138285e-05
-8.0272573e-06
-1.2909767e-05
-7.9399956e-06
-1.4514317e-05
-7.4868624e-06
-1.5846429e-05
-6.7843499e-06
-1.6840485e-05
-5.9438413e-06
-1.7471217e-05
-5.0633759e-06
-1.7750021e-05
-4.2220863e-06
-1.7716752e-05
-3.4773517e-06
-1.7430188e-05
-2.864598e-06
-1.6958102e-05
-2.3982225e-06
-1.6371235e-05
-2.0749051e-06
-1.5735062e-05
-1.8785557e-06
-1.510367e-05
-1.7848258e-06
-1.4517753e-05
-1.7655193e-06
-1.4003592e-05
-1.7924053e-06
-1.3573823e-05
-1.840451e-06
-1.3228862e-05
-1.890237e-06
-1.2959719e-05
-1.9282909e-06
-1.2752785e-05
-1.9470111e-06
-1.2592313e-05
-1.9438594e-06
-1.2462772e-05
-1.9200685e-06
-1.2350841e-05
-1.8792686e-06
-1.2246393e-05
-1.8262152e-06
-1.2142763e-05
-1.7657654e-06
-1.2036453e-05
-1.7021652e-06
-1.1926512e-05
-1.6386664e-06
-1.1813741e-05
-1.5774107e-06
-1.1699938e-05
-1.5194969e-06
-1.1587269e-05
-1.4651871e-06
-1.1477776e-05
-1.414174e-06
-1.1373068e-05
-1.3658388e-06
-1.1274204e-05
-1.3194612e-06
-1.1181703e-05
-1.2743679e-06
-1.109564e-05
-1.2300175e-06
-1.1015779e-05
-1.1860338e-06
-1.0941703e-05
-1.1422e-06
-1.0872926e-05
-1.098429e-06
-1.0808978e-05
-1.0547238e-06
-1.0749456e-05
-1.0111398e-06
-1.069404e-05
-9.6775349e-07
-1.0642493e-05
-9.2464222e-07
-1.0594648e-05
-8.8187268e-07
-1.0550386e-05
-8.3949751e-07
-1.0509621e-05
-7.9755714e-07
-1.0472282e-05
-7.560842e-07
-1.0438305e-05
-7.1510858e-07
-1.0407628e-05
-6.7466199e-07
-1.0380191e-05
-6.3478109e-07
-1.0355933e-05
-5.9550901e-07
-1.0334804e-05
-5.5689595e-07
-1.0316759e-05
-5.1899861e-07
-1.0301765e-05
-4.8187905e-07
-1.0289804e-05
-4.4560346e-07
-1.0280873e-05
-4.1024056e-07
-1.0274986e-05
-3.7586014e-07
-1.0272175e-05
-3.4253129e-07
-1.0272491e-05
-3.1032058e-07
-1.0276003e-05
-2.7928986e-07
-1.0282804e-05
-2.4949361e-07
-1.0293008e-05
-2.2097589e-07
-1.030675e-05
-1.9376665e-07
-1.032419e-05
-1.6787749e-07
-1.034551e-05
-1.4329668e-07
-1.0370913e-05
-1.1998392e-07
-1.0400616e-05
-9.7865489e-08
-1.0434838e-05
-7.6830446e-08
-1.0473786e-05
-5.6728703e-08
-1.0517626e-05
-3.7373014e-08
-1.0566453e-05
-1.8545789e-08
-1.062027e-05
-1.0679238e-05
2.6326801e-05
-1.4411594e-05
2.064972e-05
-8.5000742e-06
1.4865779e-05
-4.3976122e-06
9.2910627e-06
-1.9944027e-06
4.1943754e-06
-1.1151265e-06
-2.1306119e-07
-1.5248744e-06
-3.7949617e-06
-2.9347278e-06
-6.481791e-06
-5.0476136e-06
-8.2704891e-06
-7.5606882e-06
-9.2241746e-06
-1.01846e-05
-9.4532082e-06
-1.2680733e-05
-9.0969629e-06
-1.4870562e-05
-8.309885e-06
-1.6633506e-05
-7.2494708e-06
-1.7900899e-05
-6.0623946e-06
-1.8658294e-05
-4.8743693e-06
-1.8938046e-05
-3.7835442e-06
-1.8807577e-05
-2.8573882e-06
-1.8356344e-05
-2.1328033e-06
-1.7682687e-05
-1.619296e-06
-1.6884742e-05
-1.3024864e-06
-1.6051871e-05
-1.1531271e-06
-1.5253029e-05
-1.1325741e-06
-1.4538306e-05
-1.1991136e-06
-1.3937052e-05
-1.3132482e-06
-1.3459688e-05
-1.4405761e-06
-1.3101534e-05
-1.5562783e-06
-1.2844017e-05
-1.6444758e-06
-1.2664587e-05
-1.6978231e-06
-1.2538966e-05
-1.7158192e-06
-1.2444776e-05
-1.7027544e-06
-1.2363905e-05
-1.6656495e-06
-1.2283498e-05
-1.6124419e-06
-1.219597e-05
-1.550577e-06
-1.2098318e-05
-1.4861297e-06
-1.1990959e-05
-1.4234269e-06
-1.1876444e-05
-1.3650249e-06
-1.175834e-05
-1.3119254e-06
-1.1640368e-05
-1.2639857e-06
-1.1525715e-05
-1.2203616e-06
-1.1416692e-05
-1.1798999e-06
-1.1314666e-05
-1.1414344e-06
-1.1220168e-05
-1.1039724e-06
-1.1133102e-05
-1.0667852e-06
-1.1052966e-05
-1.0294246e-06
-1.0979063e-05
-9.9168707e-07
-1.0910663e-05
-9.5354972e-07
-1.0847116e-05
-9.1510153e-07
-1.0787905e-05
-8.7648318e-07
-1.0732659e-05
-8.3784338e-07
-1.0681133e-05
-7.9931257e-07
-1.0633179e-05
-7.6099186e-07
-1.0588707e-05
-7.2295315e-07
-1.054766e-05
-6.8524598e-07
-1.0509989e-05
-6.4790679e-07
-1.0475645e-05
-6.1096815e-07
-1.0444567e-05
-5.7446574e-07
-1.0416693e-05
-5.3844286e-07
-1.0391956e-05
-5.0295246e-07
-1.0370295e-05
-4.680572e-07
-1.0351654e-05
-4.3382842e-07
-1.0335994e-05
-4.0034449e-07
-1.0323288e-05
-3.6768909e-07
-1.0313529e-05
-3.3594934e-07
-1.0306726e-05
-3.052143e-07
-1.030291e-05
-2.7557318e-07
-1.0302132e-05
-2.4711365e-07
-1.0304463e-05
-2.1991939e-07
-1.0309998e-05
-1.9406759e-07
-1.0318859e-05
-1.6962538e-07
-1.0331192e-05
-1.4664584e-07
-1.0347169e-05
-1.251631e-07
-1.0366993e-05
-1.0518586e-07
-1.039089e-05
-8.6690109e-08
-1.0419111e-05
-6.9612885e-08
-1.0451915e-05
-5.3845598e-08
-1.0489553e-05
-3.922991e-08
-1.0532242e-05
-2.5558089e-08
-1.0580125e-05
-1.2578933e-08
-1.063325e-05
-1.0691817e-05
3.244597e-05
-7.316304e-06
2.4915923e-05
-9.700278e-07
1.7414223e-05
3.1040878e-06
1.0322229e-05
5.0975917e-06
3.9600728e-06
5.2470295e-06
-1.4337324e-06
3.8689309e-06
-5.7170571e-06
1.3485969e-06
-8.7972232e-06
-1.9674475e-06
-1.0701168e-05
-5.6567438e-06
-1.1535448e-05
-9.35032e-06
-1.1464171e-05
-1.275201e-05
-1.0683491e-05
-1.5651241e-05
-9.4057435e-06
-1.7911254e-05
-7.841894e-06
-1.9464749e-05
-6.1835888e-06
-2.0316599e-05
-4.5906232e-06
-2.0531012e-05
-3.1833705e-06
-2.0214829e-05
-2.0394666e-06
-1.9500248e-05
-1.1936545e-06
-1.8528499e-05
-6.4715404e-07
-1.7431243e-05
-3.6606286e-07
-1.6332962e-05
-3.0132951e-07
-1.5317763e-05
-3.9395335e-07
-1.4445682e-05
-5.8373174e-07
-1.3747274e-05
-8.1839696e-07
-1.3225023e-05
-1.0499897e-06
-1.2869942e-05
-1.2477114e-06
-1.2646296e-05
-1.3939057e-06
-1.2518393e-05
-1.4829568e-06
-1.2449915e-05
-1.5183102e-06
-1.2409422e-05
-1.5093027e-06
-1.2372913e-05
-1.4681537e-06
-1.2324647e-05
-1.4074002e-06
-1.2256724e-05
-1.3379887e-06
-1.216773e-05
-1.2682723e-06
-1.2060676e-05
-1.203724e-06
-1.1940992e-05
-1.1470773e-06
-1.1814987e-05
-1.0988519e-06
-1.1688594e-05
-1.0580716e-06
-1.1566496e-05
-1.0229648e-06
-1.1451799e-05
-9.9154313e-07
-1.1346088e-05
-9.6199803e-07
-1.1249713e-05
-9.3291802e-07
-1.1162182e-05
-9.0336502e-07
-1.1082519e-05
-8.7285218e-07
-1.1009576e-05
-8.4125057e-07
-1.0942265e-05
-8.0867007e-07
-1.0879696e-05
-7.7534587e-07
-1.0821229e-05
-7.4154901e-07
-1.0766455e-05
-7.0752774e-07
-1.0715154e-05
-6.7347796e-07
-1.0667229e-05
-6.3953592e-07
-1.0622649e-05
-6.0578657e-07
-1.0581409e-05
-5.7227934e-07
-1.0543497e-05
-5.3904552e-07
-1.0508878e-05
-5.0611311e-07
-1.04775e-05
-4.7351719e-07
-1.0449289e-05
-4.4130562e-07
-1.0424168e-05
-4.0954088e-07
-1.0402059e-05
-3.7829914e-07
-1.0382896e-05
-3.47668e-07
-1.0366625e-05
-3.1774404e-07
-1.0353212e-05
-2.8863018e-07
-1.0342643e-05
-2.6043371e-07
-1.0334923e-05
-2.3326461e-07
-1.0330079e-05
-2.0723412e-07
-1.0328162e-05
-1.8245335e-07
-1.0329243e-05
-1.5903043e-07
-1.0333421e-05
-1.3706868e-07
-1.0340821e-05
-1.1666234e-07
-1.0351598e-05
-9.7892518e-08
-1.0365939e-05
-8.0822472e-08
-1.0384063e-05
-6.5487912e-08
-1.0406225e-05
-5.1887853e-08
-1.0432711e-05
-3.9976994e-08
-1.0463826e-05
-2.9654751e-08
-1.0499875e-05
-2.0756898e-08
-1.054114e-05
-1.3052982e-08
-1.0587829e-05
-6.2508784e-09
-1.0640052e-05
-1.0698068e-05
3.8892422e-05
2.1192907e-06
2.9124903e-05
8.797491e-06
1.9529528e-05
1.2699462e-05
1.0594219e-05
1.4032901e-05
2.7160532e-06
1.3125195e-05
-3.8130036e-06
1.0397988e-05
-8.8105874e-06
6.3461807e-06
-1.2272339e-05
1.4943041e-06
-1.4193282e-05
-3.7358006e-06
-1.4749492e-05
-8.7941096e-06
-1.4182015e-05
-1.3319487e-05
-1.27645e-05
-1.7068757e-05
-1.0786867e-05
-1.9888886e-05
-8.5298498e-06
-2.1721767e-05
-6.242286e-06
-2.2604162e-05
-4.1256108e-06
-2.2647687e-05
-2.3254545e-06
-2.2014986e-05
-9.3020675e-07
-2.0895496e-05
3.3255467e-08
-1.9491961e-05
5.9228842e-07
-1.7990276e-05
7.9344663e-07
-1.6534121e-05
7.1511632e-07
-1.5239432e-05
4.4512379e-07
-1.417569e-05
7.1890482e-08
-1.337404e-05
-3.2300452e-07
-1.2830128e-05
-6.8994001e-07
-1.2503006e-05
-9.87799e-07
-1.2348437e-05
-1.1985227e-06
-1.2307669e-05
-1.3207299e-06
-1.2327707e-05
-1.3648122e-06
-1.236534e-05
-1.348117e-06
-1.2389608e-05
-1.2906544e-06
-1.238211e-05
-1.2114362e-06
-1.2335942e-05
-1.1260037e-06
-1.2253162e-05
-1.0454204e-06
-1.2141259e-05
-9.76141e-07
-1.2010272e-05
-9.2055886e-07
-1.1870569e-05
-8.7803953e-07
-1.1731113e-05
-8.4609792e-07
-1.1598437e-05
-8.2146026e-07
-1.1476437e-05
-8.0089231e-07
-1.1366656e-05
-7.8170659e-07
-1.1268899e-05
-7.619785e-07
-1.118191e-05
-7.4057901e-07
-1.1103919e-05
-7.1707111e-07
-1.1033084e-05
-6.9151633e-07
-1.096782e-05
-6.6426998e-07
-1.0906943e-05
-6.3580436e-07
-1.0849694e-05
-6.0658157e-07
-1.0795678e-05
-5.7698159e-07
-1.0744754e-05
-5.4727464e-07
-1.0696936e-05
-5.176253e-07
-1.0652298e-05
-4.8811614e-07
-1.0610918e-05
-4.5877929e-07
-1.0572834e-05
-4.2962595e-07
-1.0538032e-05
-4.0066902e-07
-1.0506456e-05
-3.7193684e-07
-1.0478021e-05
-3.4347989e-07
-1.0452625e-05
-3.1537092e-07
-1.0430168e-05
-2.8770177e-07
-1.0410565e-05
-2.6057907e-07
-1.0393748e-05
-2.3411995e-07
-1.0379671e-05
-2.0844885e-07
-1.0368314e-05
-1.8369491e-07
-1.0359677e-05
-1.5999068e-07
-1.0353784e-05
-1.3747084e-07
-1.0350682e-05
-1.1627275e-07
-1.0350441e-05
-9.6531231e-08
-1.0353163e-05
-7.8379576e-08
-1.0358973e-05
-6.1943428e-08
-1.0368034e-05
-4.733685e-08
-1.0380546e-05
-3.4661472e-08
-1.0396738e-05
-2.3989631e-08
-1.0416897e-05
-1.5351036e-08
-1.044135e-05
-8.7292726e-09
-1.0470448e-05
-4.0415229e-09
-1.0504563e-05
-1.1240764e-09
-1.0544057e-05
2.7826928e-10
-1.0589231e-05
5.0565277e-10
-1.0640279e-05
-1.0697562e-05
4.5643502e-05
1.4438804e-05
3.3071194e-05
2.1369799e-05
2.091092e-05
2.4859736e-05
9.7544427e-06
2.5189379e-05
8.6090015e-08
2.2793548e-05
-7.7380776e-06
1.8222155e-05
-1.3528709e-05
1.2136812e-05
-1.7248628e-05
5.2142232e-06
-1.9032654e-05
-1.9517745e-06
-1.9080922e-05
-8.7458415e-06
-1.7743971e-05
-1.4656438e-05
-1.5401236e-05
-1.9411493e-05
-1.2446112e-05
-2.284401e-05
-9.2500582e-06
-2.4917821e-05
-6.1344855e-06
-2.5719735e-05
-3.3517431e-06
-2.5430429e-05
-1.076069e-06
-2.429066e-05
6.0803347e-07
-2.2579598e-05
1.6841058e-06
-2.0568034e-05
2.1957192e-06
-1.8501889e-05
2.2381359e-06
-1.6576537e-05
1.9295783e-06
-1.4930875e-05
1.3996597e-06
-1.3645771e-05
7.7179151e-07
-1.2746172e-05
1.4751344e-07
-1.220585e-05
-3.9369237e-07
-1.19618e-05
-8.1112036e-07
-1.1931009e-05
-1.0893828e-06
-1.2029407e-05
-1.23569e-06
-1.21814e-05
-1.272079e-06
-1.2328951e-05
-1.2283307e-06
-1.2433356e-05
-1.1358765e-06
-1.2474564e-05
-1.0226232e-06
-1.2449195e-05
-9.0993136e-07
-1.2365854e-05
-8.1184593e-07
-1.2239344e-05
-7.3517044e-07
-1.2086947e-05
-6.809894e-07
-1.192475e-05
-6.4641015e-07
-1.1765692e-05
-6.2642105e-07
-1.1618426e-05
-6.1542989e-07
-1.1487428e-05
-6.0842263e-07
-1.1373663e-05
-6.0156652e-07
-1.1275755e-05
-5.9236696e-07
-1.119111e-05
-5.7960844e-07
-1.1116677e-05
-5.6308589e-07
-1.1049607e-05
-5.4325042e-07
-1.0987655e-05
-5.2087931e-07
-1.0929314e-05
-4.9681223e-07
-1.0873761e-05
-4.7177896e-07
-1.0820712e-05
-4.4632312e-07
-1.077021e-05
-4.207882e-07
-1.0722471e-05
-3.9534438e-07
-1.0677742e-05
-3.7004119e-07
-1.0636222e-05
-3.4486386e-07
-1.0598011e-05
-3.1978061e-07
-1.0563115e-05
-2.9477467e-07
-1.0531462e-05
-2.698608e-07
-1.0502935e-05
-2.4509138e-07
-1.0477394e-05
-2.2055247e-07
-1.0454707e-05
-1.9635591e-07
-1.0434762e-05
-1.7263156e-07
-1.0417472e-05
-1.4952073e-07
-1.0402782e-05
-1.2717195e-07
-1.0390662e-05
-1.0573784e-07
-1.0381111e-05
-8.5374747e-08
-1.0374147e-05
-6.6240268e-08
-1.0369816e-05
-4.8503639e-08
-1.0368178e-05
-3.2325431e-08
-1.0369341e-05
-1.7875791e-08
-1.0373422e-05
-5.3160964e-09
-1.0380594e-05
5.192791e-09
-1.0391055e-05
1.3519385e-08
-1.0405065e-05
1.9548821e-08
-1.0422926e-05
2.3189079e-08
-1.044499e-05
2.4415187e-08
-1.0471674e-05
2.3278398e-08
-1.0503426e-05
1.9930529e-08
-1.0540709e-05
1.4643342e-08
-1.0583944e-05
7.8182089e-09
-1.0633454e-05
-1.0689744e-05
5.2513545e-05
3.0347241e-05
3.6500157e-05
3.7383188e-05
2.1205468e-05
4.0154425e-05
7.3663904e-06
3.9028456e-05
-4.4097553e-06
3.4569693e-05
-1.3705788e-05
2.7518188e-05
-2.0302478e-05
1.8733501e-05
-2.4188448e-05
9.1001938e-06
-2.558194e-05
-5.5828296e-07
-2.478727e-05
-9.5405116e-06
-2.2301132e-05
-1.7142576e-05
-1.8643573e-05
-2.3069052e-05
-1.4344377e-05
-2.7143205e-05
-9.8925691e-06
-2.9369629e-05
-5.7007431e-06
-2.9911561e-05
-2.0819777e-06
-2.9049195e-05
7.6616221e-07
-2.71388e-05
2.752943e-06
-2.4566379e-05
3.8892707e-06
-2.1704361e-05
4.2666094e-06
-1.8879228e-05
4.033552e-06
-1.634348e-05
3.3681543e-06
-1.4265477e-05
2.456781e-06
-1.2734398e-05
1.4710627e-06
-1.1760454e-05
5.4919578e-07
-1.1283983e-05
-2.1353611e-07
-1.1199068e-05
-7.6864698e-07
-1.1375898e-05
-1.1098373e-06
-1.1688217e-05
-1.2600677e-06
-1.203117e-05
-1.2601315e-06
-1.2328887e-05
-1.1587761e-06
-1.2534712e-05
-1.0037907e-06
-1.2629549e-05
-8.3501678e-07
-1.2617969e-05
-6.8086326e-07
-1.2520007e-05
-5.5808776e-07
-1.236212e-05
-4.7249531e-07
-1.2172539e-05
-4.2212532e-07
-1.197512e-05
-4.0007366e-07
-1.1787744e-05
-3.9732597e-07
-1.1621174e-05
-4.0488959e-07
-1.1479864e-05
-4.1531723e-07
-1.1363235e-05
-4.2334656e-07
-1.1267726e-05
-4.2597191e-07
-1.1188484e-05
-4.221462e-07
-1.1120503e-05
-4.1222696e-07
-1.1059526e-05
-3.9737474e-07
-1.1002507e-05
-3.7905491e-07
-1.0947634e-05
-3.5865196e-07
-1.0894164e-05
-3.3725083e-07
-1.0842113e-05
-3.155814e-07
-1.079188e-05
-2.9403549e-07
-1.0744016e-05
-2.7273822e-07
-1.069904e-05
-2.5165052e-07
-1.0657309e-05
-2.3066349e-07
-1.0618998e-05
-2.0966932e-07
-1.0584109e-05
-1.8860344e-07
-1.0552528e-05
-1.6746064e-07
-1.0524078e-05
-1.4629856e-07
-1.0498556e-05
-1.2522395e-07
-1.0475782e-05
-1.0437671e-07
-1.0455609e-05
-8.3916605e-08
-1.0437932e-05
-6.4013586e-08
-1.0422685e-05
-4.4844019e-08
-1.0409832e-05
-2.6584505e-08
-1.039937e-05
-9.4180957e-09
-1.0391313e-05
6.4669103e-09
-1.0385701e-05
2.0895162e-08
-1.0382606e-05
3.3657814e-08
-1.0382104e-05
4.4560731e-08
-1.0384325e-05
5.3388811e-08
-1.0389422e-05
5.9942354e-08
-1.0397608e-05
6.4021137e-08
-1.0409144e-05
6.5444873e-08
-1.042435e-05
6.407191e-08
-1.0443617e-05
5.9810068e-08
-1.0467412e-05
5.2652236e-08
-1.0496269e-05
4.2713502e-08
-1.053077e-05
3.027342e-08
-1.0571504e-05
1.5803527e-08
-1.0618984e-05
-1.067394e-05
5.933341e-05
5.0696157e-05
3.9076204e-05
5.7640393e-05
1.9936952e-05
5.9293677e-05
2.834269e-06
5.6131139e-05
-1.1426111e-05
4.8830073e-05
-2.2378624e-05
3.8470702e-05
-2.9767483e-05
2.6122361e-05
-3.3622876e-05
1.2955587e-05
-3.4267452e-05
8.6293243e-08
-3.2167247e-05
-1.1640717e-05
-2.8013147e-05
-2.1296676e-05
-2.2518181e-05
-2.8564017e-05
-1.6393325e-05
-3.3268062e-05
-1.0279744e-05
-3.5483209e-05
-4.7038906e-06
-3.5487415e-05
-4.915496e-08
-3.370393e-05
3.4581976e-06
-3.0646152e-05
5.7382147e-06
-2.6846396e-05
6.8478006e-06
-2.2813947e-05
6.9464322e-06
-1.897786e-05
6.2608584e-06
-1.5657906e-05
5.0554121e-06
-1.3060031e-05
3.5948943e-06
-1.127388e-05
2.1156925e-06
-1.0281252e-05
8.0181606e-07
-9.9701064e-06
-2.3117669e-07
-1.0166076e-05
-9.3449075e-07
-1.0672584e-05