/*--------------------------------*- C++ -*----------------------------------*\
| =========                 |                                                 |
| \\      /  F ield         | OpenFOAM: The Open Source CFD Toolbox           |
|  \\    /   O peration     | Version:  2106                                  |
|   \\  /    A nd           | Website:  www.openfoam.com                      |
|    \\/     M anipulation  |                                                 |
\*---------------------------------------------------------------------------*/
FoamFile
{
    version     2.0;
    format      ascii;
    arch        "LSB;label=32;scalar=64";
    class       volVectorField;
    location    "0.01";
    object      U_0;
}
// * * * * * * * * * * * * * * * * * * * * * * * * * * * * * * * * * * * * * //

dimensions      [0 1 -1 0 0 0 0];

internalField   nonuniform List<vector> 
16384
(
(0.0047155386 -0.0047094945 0)
(0.01413446 -0.0046973565 0)
(0.023516951 -0.0046731171 0)
(0.032838846 -0.0046368496 0)
(0.042076165 -0.0045886634 0)
(0.05120518 -0.0045287037 0)
(0.06020249 -0.0044571505 0)
(0.069045092 -0.0043742183 0)
(0.077710441 -0.0042801549 0)
(0.086176526 -0.0041752402 0)
(0.094421924 -0.0040597852 0)
(0.10242587 -0.0039341306 0)
(0.1101683 -0.0037986455 0)
(0.11762993 -0.0036537255 0)
(0.12479228 -0.0034997917 0)
(0.13163775 -0.0033372885 0)
(0.13814965 -0.0031666823 0)
(0.14431223 -0.0029884594 0)
(0.15011075 -0.0028031243 0)
(0.15553149 -0.0026111981 0)
(0.16056179 -0.0024132161 0)
(0.16519007 -0.0022097265 0)
(0.16940587 -0.002001288 0)
(0.17319985 -0.0017884685 0)
(0.17656381 -0.0015718424 0)
(0.17949072 -0.0013519895 0)
(0.1819747 -0.0011294927 0)
(0.18401104 -0.00090493606 0)
(0.18559621 -0.00067890328 0)
(0.18672785 -0.00045197583 0)
(0.18740474 -0.00022473152 0)
(0.18762678 2.2698207e-06 0)
(0.18739519 0.00022840053 0)
(0.18671203 0.00045322152 0)
(0.18558062 0.00067611752 0)
(0.18400536 0.00089655487 0)
(0.18199168 0.0011140242 0)
(0.17954603 0.0013280237 0)
(0.17667585 0.0015380662 0)
(0.17338953 0.0017436817 0)
(0.16969641 0.0019444182 0)
(0.16560669 0.002139843 0)
(0.16113142 0.0023295428 0)
(0.15628248 0.0025131249 0)
(0.15107248 0.0026902169 0)
(0.14551479 0.0028604678 0)
(0.13962342 0.0030235475 0)
(0.13341307 0.0031791471 0)
(0.12689898 0.0033269789 0)
(0.12009699 0.003466776 0)
(0.11302343 0.0035982921 0)
(0.10569512 0.0037213011 0)
(0.098129284 0.0038355964 0)
(0.090343566 0.0039409907 0)
(0.082355954 0.0040373153 0)
(0.074184757 0.0041244192 0)
(0.065848567 0.004202169 0)
(0.057366227 0.0042704477 0)
(0.048756798 0.0043291547 0)
(0.040039524 0.0043782048 0)
(0.031233807 0.0044175279 0)
(0.022359171 0.0044470682 0)
(0.01343524 0.0044667846 0)
(0.0044817044 0.0044766497 0)
(-0.0044817043 0.0044766497 0)
(-0.01343524 0.0044667846 0)
(-0.022359171 0.0044470682 0)
(-0.031233807 0.0044175279 0)
(-0.040039524 0.0043782048 0)
(-0.048756798 0.0043291547 0)
(-0.057366227 0.0042704477 0)
(-0.065848567 0.004202169 0)
(-0.074184757 0.0041244192 0)
(-0.082355954 0.0040373153 0)
(-0.090343566 0.0039409907 0)
(-0.098129284 0.0038355964 0)
(-0.10569512 0.0037213011 0)
(-0.11302343 0.0035982921 0)
(-0.12009699 0.003466776 0)
(-0.12689898 0.0033269789 0)
(-0.13341307 0.0031791471 0)
(-0.13962342 0.0030235475 0)
(-0.14551479 0.0028604678 0)
(-0.15107248 0.0026902169 0)
(-0.15628248 0.0025131249 0)
(-0.16113142 0.0023295428 0)
(-0.16560669 0.002139843 0)
(-0.16969641 0.0019444182 0)
(-0.17338953 0.0017436817 0)
(-0.17667585 0.0015380662 0)
(-0.17954603 0.0013280237 0)
(-0.18199168 0.0011140242 0)
(-0.18400536 0.00089655487 0)
(-0.18558062 0.00067611752 0)
(-0.18671203 0.00045322152 0)
(-0.18739519 0.00022840053 0)
(-0.18762678 2.2698227e-06 0)
(-0.18740474 -0.00022473152 0)
(-0.18672785 -0.00045197583 0)
(-0.18559621 -0.00067890328 0)
(-0.18401104 -0.00090493606 0)
(-0.1819747 -0.0011294927 0)
(-0.17949072 -0.0013519895 0)
(-0.17656381 -0.0015718424 0)
(-0.17319985 -0.0017884685 0)
(-0.16940587 -0.002001288 0)
(-0.16519007 -0.0022097265 0)
(-0.16056179 -0.0024132161 0)
(-0.15553149 -0.0026111981 0)
(-0.15011075 -0.0028031243 0)
(-0.14431223 -0.0029884594 0)
(-0.13814965 -0.0031666823 0)
(-0.13163775 -0.0033372885 0)
(-0.12479228 -0.0034997917 0)
(-0.11762993 -0.0036537255 0)
(-0.1101683 -0.0037986455 0)
(-0.10242587 -0.0039341306 0)
(-0.094421924 -0.0040597852 0)
(-0.086176526 -0.0041752402 0)
(-0.077710441 -0.0042801549 0)
(-0.069045092 -0.0043742183 0)
(-0.06020249 -0.0044571505 0)
(-0.05120518 -0.0045287036 0)
(-0.042076165 -0.0045886634 0)
(-0.032838846 -0.0046368496 0)
(-0.023516951 -0.0046731171 0)
(-0.01413446 -0.0046973565 0)
(-0.0047155386 -0.0047094945 0)
(0.0047355349 -0.014143609 0)
(0.014194392 -0.014107151 0)
(0.023616646 -0.014034346 0)
(0.032978021 -0.013925414 0)
(0.04225442 -0.013780683 0)
(0.051422008 -0.01360059 0)
(0.060457274 -0.013385676 0)
(0.069337107 -0.013136584 0)
(0.07803886 -0.012854061 0)
(0.086540421 -0.012538946 0)
(0.094820271 -0.012192174 0)
(0.10285755 -0.011814769 0)
(0.11063211 -0.011407839 0)
(0.11812457 -0.010972574 0)
(0.12531639 -0.010510238 0)
(0.13218988 -0.010022166 0)
(0.13872828 -0.0095097599 0)
(0.14491578 -0.0089744801 0)
(0.15073759 -0.0084178426 0)
(0.15617992 -0.0078414122 0)
(0.16123006 -0.0072467975 0)
(0.16587641 -0.0066356449 0)
(0.17010845 -0.006009633 0)
(0.17391681 -0.0053704672 0)
(0.17729328 -0.0047198735 0)
(0.18023079 -0.0040595931 0)
(0.18272346 -0.0033913769 0)
(0.18476658 -0.0027169797 0)
(0.1863566 -0.0020381546 0)
(0.18749117 -0.0013566483 0)
(0.18816907 -0.00067419814 0)
(0.18839028 7.4743356e-06 0)
(0.18815589 0.00068669237 0)
(0.1874681 0.0013618037 0)
(0.18633027 0.0020311477 0)
(0.18474681 0.0026931243 0)
(0.18272316 0.0033461839 0)
(0.18026584 0.0039888161 0)
(0.17738233 0.0046195582 0)
(0.17408109 0.0052369987 0)
(0.17037149 0.0058397809 0)
(0.1662638 0.0064266051 0)
(0.16176913 0.006996231 0)
(0.15689942 0.0075474791 0)
(0.15166736 0.0080792323 0)
(0.14608635 0.0085904366 0)
(0.14017052 0.0090801016 0)
(0.13393458 0.0095473004 0)
(0.12739389 0.0099911699 0)
(0.12056433 0.010410909 0)
(0.11346231 0.01080578 0)
(0.1061047 0.011175104 0)
(0.098508818 0.011518261 0)
(0.090692357 0.011834691 0)
(0.082673375 0.012123887 0)
(0.074470245 0.012385397 0)
(0.066101624 0.012618821 0)
(0.057586415 0.012823809 0)
(0.04894374 0.013000059 0)
(0.040192905 0.013147317 0)
(0.031353368 0.013265371 0)
(0.022444714 0.013354056 0)
(0.013486622 0.013413247 0)
(0.0044988412 0.013442863 0)
(-0.0044988411 0.013442863 0)
(-0.013486622 0.013413247 0)
(-0.022444714 0.013354056 0)
(-0.031353368 0.013265371 0)
(-0.040192905 0.013147317 0)
(-0.04894374 0.013000059 0)
(-0.057586415 0.012823809 0)
(-0.066101624 0.012618821 0)
(-0.074470245 0.012385397 0)
(-0.082673375 0.012123887 0)
(-0.090692357 0.011834691 0)
(-0.098508818 0.011518261 0)
(-0.1061047 0.011175104 0)
(-0.11346231 0.01080578 0)
(-0.12056433 0.010410909 0)
(-0.12739389 0.0099911699 0)
(-0.13393458 0.0095473004 0)
(-0.14017052 0.0090801016 0)
(-0.14608635 0.0085904366 0)
(-0.15166736 0.0080792323 0)
(-0.15689942 0.0075474791 0)
(-0.16176913 0.006996231 0)
(-0.1662638 0.0064266051 0)
(-0.17037149 0.0058397809 0)
(-0.17408109 0.0052369987 0)
(-0.17738233 0.0046195582 0)
(-0.18026584 0.0039888162 0)
(-0.18272316 0.0033461839 0)
(-0.18474681 0.0026931243 0)
(-0.18633027 0.0020311477 0)
(-0.1874681 0.0013618037 0)
(-0.18815589 0.00068669238 0)
(-0.18839028 7.4743403e-06 0)
(-0.18816907 -0.00067419814 0)
(-0.18749117 -0.0013566483 0)
(-0.1863566 -0.0020381546 0)
(-0.18476658 -0.0027169797 0)
(-0.18272346 -0.0033913769 0)
(-0.18023079 -0.0040595931 0)
(-0.17729328 -0.0047198735 0)
(-0.17391681 -0.0053704672 0)
(-0.17010845 -0.006009633 0)
(-0.16587641 -0.0066356449 0)
(-0.16123006 -0.0072467975 0)
(-0.15617992 -0.0078414122 0)
(-0.15073759 -0.0084178426 0)
(-0.14491578 -0.0089744801 0)
(-0.13872828 -0.0095097599 0)
(-0.13218988 -0.010022166 0)
(-0.12531639 -0.010510238 0)
(-0.11812457 -0.010972574 0)
(-0.11063211 -0.011407839 0)
(-0.10285755 -0.011814769 0)
(-0.094820271 -0.012192174 0)
(-0.086540421 -0.012538946 0)
(-0.07803886 -0.012854061 0)
(-0.069337107 -0.013136584 0)
(-0.060457274 -0.013385676 0)
(-0.051422008 -0.01360059 0)
(-0.04225442 -0.013780683 0)
(-0.032978021 -0.013925414 0)
(-0.023616646 -0.014034346 0)
(-0.014194392 -0.014107151 0)
(-0.004735535 -0.014143609 0)
(0.0047694758 -0.023635436 0)
(0.014296118 -0.023574495 0)
(0.02378587 -0.023452796 0)
(0.033214261 -0.023270708 0)
(0.042557009 -0.023028781 0)
(0.05179009 -0.022727744 0)
(0.06088981 -0.022368504 0)
(0.069832879 -0.021952138 0)
(0.078596476 -0.021479891 0)
(0.087158319 -0.020953171 0)
(0.095496725 -0.020373541 0)
(0.10359068 -0.019742713 0)
(0.11141987 -0.019062541 0)
(0.1189648 -0.018335014 0)
(0.12620677 -0.017562247 0)
(0.13312798 -0.016746474 0)
(0.13971153 -0.015890038 0)
(0.14594152 -0.014995381 0)
(0.15180304 -0.014065038 0)
(0.15728223 -0.013101627 0)
(0.16236628 -0.012107837 0)
(0.16704352 -0.01108642 0)
(0.17130336 -0.010040184 0)
(0.17513639 -0.0089719794 0)
(0.17853434 -0.007884692 0)
(0.18149012 -0.0067812331 0)
(0.18399781 -0.0056645299 0)
(0.18605269 -0.0045375158 0)
(0.1876512 -0.0034031221 0)
(0.18879099 -0.0022642679 0)
(0.18947088 -0.0011238528 0)
(0.18969084 1.5252202e-05 0)
(0.18945199 0.0011502157 0)
(0.1887566 0.002278272 0)
(0.18760805 0.0033966758 0)
(0.18601082 0.0045027521 0)
(0.18397043 0.0055939025 0)
(0.18149345 0.0066676023 0)
(0.17858744 0.0077214072 0)
(0.17526096 0.0087529595 0)
(0.17152346 0.0097599928 0)
(0.16738531 0.010740337 0)
(0.16285774 0.01169192 0)
(0.15795276 0.012612773 0)
(0.1526832 0.013501032 0)
(0.14706256 0.014354938 0)
(0.14110508 0.015172839 0)
(0.1348256 0.015953189 0)
(0.12823958 0.016694548 0)
(0.12136303 0.017395583 0)
(0.11421247 0.018055062 0)
(0.10680489 0.018671857 0)
(0.099157715 0.019244936 0)
(0.091288764 0.019773364 0)
(0.083216201 0.0202563 0)
(0.074958512 0.020692992 0)
(0.066534462 0.021082775 0)
(0.057963063 0.021425067 0)
(0.049263541 0.021719368 0)
(0.040455307 0.021965252 0)
(0.031557922 0.022162372 0)
(0.022591072 0.02231045 0)
(0.013574536 0.022409283 0)
(0.0045281622 0.022458733 0)
(-0.0045281621 0.022458733 0)
(-0.013574536 0.022409283 0)
(-0.022591072 0.02231045 0)
(-0.031557922 0.022162372 0)
(-0.040455307 0.021965252 0)
(-0.049263541 0.021719368 0)
(-0.057963063 0.021425067 0)
(-0.066534462 0.021082775 0)
(-0.074958512 0.020692992 0)
(-0.083216201 0.0202563 0)
(-0.091288764 0.019773364 0)
(-0.099157715 0.019244936 0)
(-0.10680489 0.018671857 0)
(-0.11421247 0.018055062 0)
(-0.12136303 0.017395583 0)
(-0.12823958 0.016694548 0)
(-0.1348256 0.015953189 0)
(-0.14110508 0.015172839 0)
(-0.14706256 0.014354938 0)
(-0.1526832 0.013501032 0)
(-0.15795276 0.012612773 0)
(-0.16285774 0.01169192 0)
(-0.16738531 0.010740337 0)
(-0.17152346 0.0097599928 0)
(-0.17526096 0.0087529595 0)
(-0.17858744 0.0077214072 0)
(-0.18149345 0.0066676023 0)
(-0.18397043 0.0055939025 0)
(-0.18601082 0.0045027521 0)
(-0.18760805 0.0033966758 0)
(-0.1887566 0.002278272 0)
(-0.18945199 0.0011502157 0)
(-0.18969084 1.525221e-05 0)
(-0.18947088 -0.0011238528 0)
(-0.18879099 -0.0022642679 0)
(-0.1876512 -0.0034031221 0)
(-0.18605269 -0.0045375158 0)
(-0.18399781 -0.0056645298 0)
(-0.18149012 -0.0067812331 0)
(-0.17853434 -0.007884692 0)
(-0.17513639 -0.0089719794 0)
(-0.17130336 -0.010040184 0)
(-0.16704352 -0.01108642 0)
(-0.16236628 -0.012107837 0)
(-0.15728223 -0.013101627 0)
(-0.15180304 -0.014065038 0)
(-0.14594152 -0.014995381 0)
(-0.13971153 -0.015890038 0)
(-0.13312798 -0.016746474 0)
(-0.12620677 -0.017562247 0)
(-0.1189648 -0.018335014 0)
(-0.11141987 -0.019062541 0)
(-0.10359068 -0.019742713 0)
(-0.095496725 -0.020373541 0)
(-0.087158319 -0.020953171 0)
(-0.078596476 -0.021479891 0)
(-0.069832879 -0.021952138 0)
(-0.06088981 -0.022368504 0)
(-0.05179009 -0.022727744 0)
(-0.042557009 -0.023028781 0)
(-0.033214261 -0.023270708 0)
(-0.02378587 -0.023452796 0)
(-0.014296118 -0.023574495 0)
(-0.0047694758 -0.023635436 0)
(0.0048175216 -0.033209252 0)
(0.01444012 -0.033123594 0)
(0.02402542 -0.032952538 0)
(0.033548684 -0.032696602 0)
(0.042985361 -0.032356559 0)
(0.052311165 -0.031933437 0)
(0.061502143 -0.03142851 0)
(0.070534752 -0.030843294 0)
(0.079385924 -0.030179543 0)
(0.088033138 -0.029439234 0)
(0.096454481 -0.028624569 0)
(0.10462871 -0.027737954 0)
(0.11253532 -0.026782 0)
(0.12015459 -0.025759503 0)
(0.12746764 -0.02467344 0)
(0.13445647 -0.02352695 0)
(0.14110405 -0.022323328 0)
(0.14739429 -0.021066012 0)
(0.15331215 -0.019758564 0)
(0.15884363 -0.018404666 0)
(0.16397582 -0.017008098 0)
(0.16869692 -0.015572731 0)
(0.17299627 -0.014102512 0)
(0.17686436 -0.01260145 0)
(0.18029287 -0.011073601 0)
(0.18327466 -0.0095230576 0)
(0.18580376 -0.007953936 0)
(0.18787543 -0.0063703601 0)
(0.18948612 -0.0047764503 0)
(0.19063346 -0.0031763105 0)
(0.19131628 -0.0015740156 0)
(0.1915346 2.6400999e-05 0)
(0.19128957 0.0016209606 0)
(0.19058354 0.0032057574 0)
(0.18941994 0.0047769474 0)
(0.18780332 0.0063307752 0)
(0.1857393 0.0078635862 0)
(0.18323456 0.0093718322 0)
(0.18029677 0.010852079 0)
(0.17693459 0.012301015 0)
(0.17315763 0.013715457 0)
(0.16897638 0.015092358 0)
(0.16440221 0.016428811 0)
(0.1594473 0.017722052 0)
(0.1541246 0.018969465 0)
(0.14844781 0.020168585 0)
(0.1424313 0.021317094 0)
(0.1360901 0.022412827 0)
(0.12943981 0.023453767 0)
(0.12249662 0.024438047 0)
(0.11527721 0.025363944 0)
(0.10779875 0.026229877 0)
(0.10007881 0.027034406 0)
(0.092135381 0.027776224 0)
(0.083986784 0.028454157 0)
(0.075651665 0.029067153 0)
(0.067148944 0.029614286 0)
(0.058497786 0.030094744 0)
(0.049717569 0.030507828 0)
(0.040827851 0.030852948 0)
(0.031848341 0.031129618 0)
(0.022798868 0.031337453 0)
(0.013699355 0.031476168 0)
(0.004569792 0.031545572 0)
(-0.0045697919 0.031545572 0)
(-0.013699355 0.031476168 0)
(-0.022798868 0.031337453 0)
(-0.031848341 0.031129618 0)
(-0.040827851 0.030852948 0)
(-0.049717569 0.030507828 0)
(-0.058497786 0.030094744 0)
(-0.067148943 0.029614286 0)
(-0.075651665 0.029067153 0)
(-0.083986784 0.028454157 0)
(-0.09213538 0.027776224 0)
(-0.10007881 0.027034406 0)
(-0.10779875 0.026229877 0)
(-0.11527721 0.025363944 0)
(-0.12249662 0.024438047 0)
(-0.12943981 0.023453767 0)
(-0.1360901 0.022412827 0)
(-0.1424313 0.021317094 0)
(-0.14844781 0.020168585 0)
(-0.1541246 0.018969465 0)
(-0.1594473 0.017722052 0)
(-0.16440221 0.016428811 0)
(-0.16897638 0.015092358 0)
(-0.17315763 0.013715457 0)
(-0.17693459 0.012301015 0)
(-0.18029677 0.010852079 0)
(-0.18323456 0.0093718322 0)
(-0.1857393 0.0078635862 0)
(-0.18780332 0.0063307752 0)
(-0.18941994 0.0047769474 0)
(-0.19058354 0.0032057574 0)
(-0.19128957 0.0016209606 0)
(-0.1915346 2.640101e-05 0)
(-0.19131628 -0.0015740156 0)
(-0.19063346 -0.0031763105 0)
(-0.18948612 -0.0047764503 0)
(-0.18787543 -0.0063703601 0)
(-0.18580376 -0.007953936 0)
(-0.18327466 -0.0095230576 0)
(-0.18029287 -0.011073601 0)
(-0.17686436 -0.01260145 0)
(-0.17299627 -0.014102512 0)
(-0.16869692 -0.015572731 0)
(-0.16397582 -0.017008098 0)
(-0.15884363 -0.018404666 0)
(-0.15331215 -0.019758564 0)
(-0.14739429 -0.021066012 0)
(-0.14110405 -0.022323328 0)
(-0.13445647 -0.02352695 0)
(-0.12746764 -0.02467344 0)
(-0.12015459 -0.025759503 0)
(-0.11253532 -0.026782 0)
(-0.10462871 -0.027737954 0)
(-0.096454482 -0.028624569 0)
(-0.088033138 -0.029439234 0)
(-0.079385924 -0.030179543 0)
(-0.070534752 -0.030843294 0)
(-0.061502143 -0.03142851 0)
(-0.052311165 -0.031933437 0)
(-0.042985361 -0.032356559 0)
(-0.033548684 -0.032696602 0)
(-0.02402542 -0.032952538 0)
(-0.01444012 -0.033123594 0)
(-0.0048175217 -0.033209252 0)
(0.0048799834 -0.042893113 0)
(0.014627329 -0.042782428 0)
(0.024336849 -0.042561395 0)
(0.033983455 -0.042230683 0)
(0.043542252 -0.041791295 0)
(0.052988609 -0.041244558 0)
(0.062298241 -0.040592122 0)
(0.071447275 -0.039835949 0)
(0.080412325 -0.038978307 0)
(0.089170557 -0.038021756 0)
(0.09769976 -0.03696914 0)
(0.1059784 -0.035823577 0)
(0.11398571 -0.03458844 0)
(0.12170168 -0.033267348 0)
(0.1291072 -0.031864147 0)
(0.13618403 -0.030382901 0)
(0.14291492 -0.028827869 0)
(0.14928359 -0.027203494 0)
(0.15527479 -0.025514385 0)
(0.16087436 -0.023765299 0)
(0.16606923 -0.021961125 0)
(0.17084746 -0.020106866 0)
(0.17519828 -0.018207624 0)
(0.17911208 -0.01626858 0)
(0.18258045 -0.014294979 0)
(0.18559616 -0.012292111 0)
(0.18815323 -0.010265294 0)
(0.19024686 -0.0082198587 0)
(0.19187349 -0.0061611309 0)
(0.19303075 -0.0040944144 0)
(0.19371751 -0.002024975 0)
(0.1939338 4.1975654e-05 0)
(0.19368085 0.0021012964 0)
(0.19296106 0.004147932 0)
(0.19177796 0.0061769208 0)
(0.19013621 0.0081834137 0)
(0.18804153 0.010162689 0)
(0.18550074 0.012110163 0)
(0.18252166 0.0140214 0)
(0.1791131 0.015892125 0)
(0.17528484 0.017718229 0)
(0.17104756 0.019495779 0)
(0.16641279 0.021221024 0)
(0.16139293 0.022890401 0)
(0.15600112 0.024500539 0)
(0.15025127 0.026048257 0)
(0.14415796 0.027530573 0)
(0.13773642 0.028944699 0)
(0.1310025 0.03028804 0)
(0.12397257 0.031558194 0)
(0.11666355 0.032752947 0)
(0.10909281 0.033870269 0)
(0.10127814 0.034908311 0)
(0.09323775 0.035865397 0)
(0.084990163 0.03674002 0)
(0.07655423 0.037530836 0)
(0.067949077 0.038236656 0)
(0.059194069 0.038856442 0)
(0.05030878 0.039389301 0)
(0.041312961 0.039834478 0)
(0.032226512 0.040191352 0)
(0.023069451 0.040459432 0)
(0.013861889 0.040638354 0)
(0.0046240009 0.040727875 0)
(-0.0046240008 0.040727875 0)
(-0.013861889 0.040638354 0)
(-0.023069451 0.040459432 0)
(-0.032226512 0.040191352 0)
(-0.041312961 0.039834478 0)
(-0.05030878 0.039389301 0)
(-0.059194069 0.038856442 0)
(-0.067949077 0.038236656 0)
(-0.07655423 0.037530836 0)
(-0.084990162 0.03674002 0)
(-0.09323775 0.035865397 0)
(-0.10127814 0.034908311 0)
(-0.10909281 0.033870269 0)
(-0.11666355 0.032752947 0)
(-0.12397257 0.031558194 0)
(-0.1310025 0.03028804 0)
(-0.13773642 0.028944699 0)
(-0.14415796 0.027530573 0)
(-0.15025127 0.026048257 0)
(-0.15600112 0.024500539 0)
(-0.16139293 0.022890401 0)
(-0.16641279 0.021221024 0)
(-0.17104756 0.019495779 0)
(-0.17528484 0.017718229 0)
(-0.1791131 0.015892125 0)
(-0.18252166 0.0140214 0)
(-0.18550074 0.012110163 0)
(-0.18804153 0.010162689 0)
(-0.19013621 0.0081834137 0)
(-0.19177796 0.0061769208 0)
(-0.19296106 0.004147932 0)
(-0.19368085 0.0021012964 0)
(-0.1939338 4.1975669e-05 0)
(-0.19371751 -0.002024975 0)
(-0.19303075 -0.0040944144 0)
(-0.19187349 -0.0061611309 0)
(-0.19024686 -0.0082198586 0)
(-0.18815323 -0.010265294 0)
(-0.18559616 -0.012292111 0)
(-0.18258045 -0.014294979 0)
(-0.17911208 -0.01626858 0)
(-0.17519828 -0.018207624 0)
(-0.17084746 -0.020106866 0)
(-0.16606923 -0.021961125 0)
(-0.16087436 -0.023765299 0)
(-0.15527479 -0.025514385 0)
(-0.14928359 -0.027203494 0)
(-0.14291492 -0.028827869 0)
(-0.13618403 -0.030382901 0)
(-0.1291072 -0.031864147 0)
(-0.12170168 -0.033267348 0)
(-0.11398571 -0.03458844 0)
(-0.1059784 -0.035823577 0)
(-0.09769976 -0.03696914 0)
(-0.089170557 -0.038021756 0)
(-0.080412325 -0.038978307 0)
(-0.071447275 -0.039835949 0)
(-0.062298241 -0.040592122 0)
(-0.052988609 -0.041244558 0)
(-0.043542252 -0.041791295 0)
(-0.033983455 -0.042230683 0)
(-0.024336849 -0.042561395 0)
(-0.014627329 -0.042782428 0)
(-0.0048799834 -0.042893113 0)
(0.0049573223 -0.052716372 0)
(0.014859128 -0.052580268 0)
(0.024722456 -0.052308474 0)
(0.034521786 -0.051901815 0)
(0.044231794 -0.051361525 0)
(0.053827429 -0.050689241 0)
(0.06328399 -0.049886993 0)
(0.0725772 -0.048957199 0)
(0.081683275 -0.047902649 0)
(0.090579 -0.046726498 0)
(0.099241792 -0.045432249 0)
(0.10764977 -0.044023737 0)
(0.11578179 -0.042505117 0)
(0.12361757 -0.040880843 0)
(0.13113765 -0.039155649 0)
(0.13832353 -0.037334537 0)
(0.14515766 -0.035422748 0)
(0.15162352 -0.033425751 0)
(0.15770563 -0.031349215 0)
(0.16338961 -0.029198993 0)
(0.16866221 -0.0269811 0)
(0.17351131 -0.024701694 0)
(0.17792599 -0.022367047 0)
(0.18189651 -0.019983536 0)
(0.18541435 -0.017557609 0)
(0.18847221 -0.015095776 0)
(0.19106403 -0.012604577 0)
(0.19318497 -0.01009057 0)
(0.19483146 -0.0075603046 0)
(0.19600114 -0.0050203041 0)
(0.19669287 -0.002477045 0)
(0.19690676 6.3063018e-05 0)
(0.1966441 0.0025936966 0)
(0.19590737 0.0051086367 0)
(0.19470021 0.007601784 0)
(0.19302739 0.010067178 0)
(0.19089481 0.012499015 0)
(0.18830943 0.014891659 0)
(0.18527924 0.017239661 0)
(0.18181327 0.019537768 0)
(0.17792149 0.021780933 0)
(0.1736148 0.023964327 0)
(0.16890498 0.026083348 0)
(0.16380465 0.028133623 0)
(0.15832721 0.030111016 0)
(0.15248683 0.032011634 0)
(0.14629834 0.033831819 0)
(0.13977725 0.035568161 0)
(0.13293966 0.037217483 0)
(0.12580223 0.038776851 0)
(0.11838213 0.040243557 0)
(0.11069701 0.041615126 0)
(0.10276493 0.0428893 0)
(0.094604336 0.044064037 0)
(0.086234036 0.045137503 0)
(0.077673131 0.046108061 0)
(0.068940998 0.046974265 0)
(0.060057248 0.047734856 0)
(0.051041702 0.048388748 0)
(0.041914351 0.048935024 0)
(0.032695331 0.049372934 0)
(0.023404895 0.04970188 0)
(0.014063384 0.049921422 0)
(0.0046912038 0.050031265 0)
(-0.0046912038 0.050031265 0)
(-0.014063384 0.049921422 0)
(-0.023404895 0.04970188 0)
(-0.032695331 0.049372934 0)
(-0.041914351 0.048935024 0)
(-0.051041702 0.048388748 0)
(-0.060057248 0.047734856 0)
(-0.068940997 0.046974265 0)
(-0.077673131 0.046108061 0)
(-0.086234036 0.045137503 0)
(-0.094604336 0.044064037 0)
(-0.10276493 0.0428893 0)
(-0.11069701 0.041615126 0)
(-0.11838213 0.040243557 0)
(-0.12580223 0.038776851 0)
(-0.13293966 0.037217484 0)
(-0.13977725 0.035568161 0)
(-0.14629834 0.033831819 0)
(-0.15248683 0.032011634 0)
(-0.15832721 0.030111016 0)
(-0.16380465 0.028133623 0)
(-0.16890498 0.026083348 0)
(-0.1736148 0.023964327 0)
(-0.17792149 0.021780933 0)
(-0.18181327 0.019537768 0)
(-0.18527924 0.017239661 0)
(-0.18830943 0.014891659 0)
(-0.19089481 0.012499015 0)
(-0.19302739 0.010067178 0)
(-0.19470021 0.007601784 0)
(-0.19590737 0.0051086367 0)
(-0.1966441 0.0025936966 0)
(-0.19690676 6.3063036e-05 0)
(-0.19669287 -0.002477045 0)
(-0.19600114 -0.0050203041 0)
(-0.19483146 -0.0075603046 0)
(-0.19318497 -0.01009057 0)
(-0.19106403 -0.012604577 0)
(-0.18847221 -0.015095776 0)
(-0.18541435 -0.017557609 0)
(-0.18189651 -0.019983536 0)
(-0.17792599 -0.022367047 0)
(-0.17351131 -0.024701694 0)
(-0.16866221 -0.0269811 0)
(-0.16338961 -0.029198993 0)
(-0.15770563 -0.031349215 0)
(-0.15162352 -0.033425751 0)
(-0.14515766 -0.035422748 0)
(-0.13832353 -0.037334537 0)
(-0.13113765 -0.039155649 0)
(-0.12361757 -0.040880843 0)
(-0.11578179 -0.042505117 0)
(-0.10764977 -0.044023737 0)
(-0.099241792 -0.045432249 0)
(-0.090579001 -0.046726498 0)
(-0.081683275 -0.047902649 0)
(-0.0725772 -0.048957199 0)
(-0.06328399 -0.049886993 0)
(-0.053827429 -0.050689241 0)
(-0.044231794 -0.051361525 0)
(-0.034521786 -0.051901815 0)
(-0.024722456 -0.052308474 0)
(-0.014859128 -0.052580268 0)
(-0.0049573223 -0.052716372 0)
(0.0050501491 -0.062709344 0)
(0.015137348 -0.062547343 0)
(0.025185287 -0.062223836 0)
(0.03516793 -0.061739805 0)
(0.045059439 -0.061096724 0)
(0.054834259 -0.060296544 0)
(0.064467191 -0.059341685 0)
(0.073933472 -0.05823503 0)
(0.083208845 -0.056979908 0)
(0.092269636 -0.055580078 0)
(0.10109282 -0.054039716 0)
(0.10965607 -0.052363394 0)
(0.11793787 -0.050556064 0)
(0.12591751 -0.048623032 0)
(0.13357518 -0.046569943 0)
(0.14089203 -0.044402753 0)
(0.14785018 -0.042127708 0)
(0.15443281 -0.039751321 0)
(0.16062416 -0.037280345 0)
(0.16640959 -0.034721754 0)
(0.17177562 -0.032082709 0)
(0.17670993 -0.029370543 0)
(0.18120141 -0.026592727 0)
(0.18524016 -0.023756853 0)
(0.18881754 -0.0208706 0)
(0.19192615 -0.017941719 0)
(0.19455983 -0.014977997 0)
(0.19671372 -0.011987242 0)
(0.1983842 -0.0089772538 0)
(0.19956891 -0.0059557978 0)
(0.20026677 -0.0029305852 0)
(0.20047791 9.0752734e-05 0)
(0.2002037 0.0031006875 0)
(0.19944674 0.0060918149 0)
(0.19821078 0.0090568759 0)
(0.19650076 0.011988777 0)
(0.19432274 0.014880612 0)
(0.19168387 0.017725677 0)
(0.18859238 0.020517489 0)
(0.1850575 0.023249802 0)
(0.18108947 0.025916617 0)
(0.17669945 0.028512196 0)
(0.1718995 0.031031072 0)
(0.16670253 0.033468054 0)
(0.16112224 0.035818236 0)
(0.15517311 0.038076999 0)
(0.14887028 0.040240012 0)
(0.14222959 0.042303233 0)
(0.13526745 0.044262907 0)
(0.12800085 0.04611556 0)
(0.12044729 0.047857999 0)
(0.11262472 0.0494873 0)
(0.10455155 0.051000801 0)
(0.096246523 0.052396098 0)
(0.087728765 0.053671031 0)
(0.079017686 0.054823675 0)
(0.070132963 0.055852335 0)
(0.061094509 0.05675553 0)
(0.051922437 0.057531987 0)
(0.042637026 0.058180635 0)
(0.033258699 0.058700592 0)
(0.023807988 0.059091161 0)
(0.014305515 0.059351826 0)
(0.0047719599 0.059482243 0)
(-0.0047719598 0.059482243 0)
(-0.014305515 0.059351826 0)
(-0.023807988 0.059091161 0)
(-0.033258698 0.058700592 0)
(-0.042637026 0.058180635 0)
(-0.051922437 0.057531987 0)
(-0.061094509 0.05675553 0)
(-0.070132963 0.055852335 0)
(-0.079017686 0.054823675 0)
(-0.087728765 0.053671031 0)
(-0.096246523 0.052396098 0)
(-0.10455155 0.051000801 0)
(-0.11262472 0.0494873 0)
(-0.12044729 0.047857999 0)
(-0.12800085 0.04611556 0)
(-0.13526745 0.044262907 0)
(-0.14222959 0.042303233 0)
(-0.14887028 0.040240012 0)
(-0.15517311 0.038076999 0)
(-0.16112224 0.035818236 0)
(-0.16670253 0.033468054 0)
(-0.1718995 0.031031072 0)
(-0.17669945 0.028512196 0)
(-0.18108947 0.025916617 0)
(-0.1850575 0.023249802 0)
(-0.18859238 0.020517489 0)
(-0.19168387 0.017725677 0)
(-0.19432274 0.014880612 0)
(-0.19650076 0.011988777 0)
(-0.19821078 0.0090568759 0)
(-0.19944674 0.006091815 0)
(-0.2002037 0.0031006875 0)
(-0.20047791 9.0752756e-05 0)
(-0.20026677 -0.0029305852 0)
(-0.19956891 -0.0059557978 0)
(-0.1983842 -0.0089772538 0)
(-0.19671372 -0.011987242 0)
(-0.19455983 -0.014977997 0)
(-0.19192615 -0.017941719 0)
(-0.18881754 -0.0208706 0)
(-0.18524016 -0.023756853 0)
(-0.18120141 -0.026592727 0)
(-0.17670993 -0.029370543 0)
(-0.17177562 -0.032082709 0)
(-0.16640959 -0.034721754 0)
(-0.16062416 -0.037280345 0)
(-0.15443281 -0.039751321 0)
(-0.14785018 -0.042127708 0)
(-0.14089203 -0.044402753 0)
(-0.13357518 -0.046569943 0)
(-0.12591751 -0.048623032 0)
(-0.11793787 -0.050556064 0)
(-0.10965607 -0.052363394 0)
(-0.10109282 -0.054039716 0)
(-0.092269636 -0.055580078 0)
(-0.083208845 -0.056979908 0)
(-0.073933472 -0.05823503 0)
(-0.064467191 -0.059341685 0)
(-0.054834259 -0.060296544 0)
(-0.045059439 -0.061096724 0)
(-0.03516793 -0.061739805 0)
(-0.025185287 -0.062223836 0)
(-0.015137348 -0.062547343 0)
(-0.0050501492 -0.062709344 0)
(0.005159226 -0.07290366 0)
(0.015464272 -0.072715198 0)
(0.025729144 -0.072338849 0)
(0.035927195 -0.071775761 0)
(0.046031989 -0.071027651 0)
(0.056017376 -0.070096792 0)
(0.065857576 -0.068986008 0)
(0.075527255 -0.067698659 0)
(0.085001602 -0.066238623 0)
(0.094256401 -0.064610283 0)
(0.1032681 -0.062818504 0)
(0.1120139 -0.060868615 0)
(0.12047176 -0.058766383 0)
(0.12862055 -0.056517992 0)
(0.13644001 -0.054130015 0)
(0.14391087 -0.051609388 0)
(0.15101489 -0.048963386 0)
(0.15773488 -0.046199592 0)
(0.16405474 -0.04332587 0)
(0.16995955 -0.040350335 0)
(0.17543555 -0.037281326 0)
(0.18047016 -0.034127377 0)
(0.18505208 -0.030897186 0)
(0.18917121 -0.027599586 0)
(0.19281876 -0.024243517 0)
(0.19598719 -0.020837997 0)
(0.19867028 -0.017392092 0)
(0.20086308 -0.013914887 0)
(0.20256194 -0.010415459 0)
(0.20376451 -0.0069028446 0)
(0.20446973 -0.0033860189 0)
(0.2046778 0.00012613794 0)
(0.20439018 0.0036248651 0)
(0.20360958 0.0071015469 0)
(0.20233991 0.010547738 0)
(0.20058627 0.013955188 0)
(0.19835493 0.017315863 0)
(0.19565327 0.020621969 0)
(0.19248976 0.02386597 0)
(0.18887393 0.027040605 0)
(0.18481629 0.030138906 0)
(0.18032832 0.033154211 0)
(0.1754224 0.036080173 0)
(0.1701118 0.038910773 0)
(0.16441056 0.041640323 0)
(0.15833352 0.044263471 0)
(0.15189621 0.046775207 0)
(0.14511483 0.049170854 0)
(0.13800617 0.051446074 0)
(0.13058762 0.053596858 0)
(0.12287704 0.055619522 0)
(0.11489278 0.057510698 0)
(0.1066536 0.059267324 0)
(0.098178652 0.060886636 0)
(0.089487404 0.062366154 0)
(0.080599635 0.063703672 0)
(0.071535383 0.064897246 0)
(0.06231491 0.065945183 0)
(0.052958674 0.066846028 0)
(0.043487297 0.067598557 0)
(0.033921534 0.068201763 0)
(0.024282252 0.068654854 0)
(0.014590396 0.068957239 0)
(0.0048669741 0.069108529 0)
(-0.004866974 0.069108529 0)
(-0.014590396 0.068957239 0)
(-0.024282251 0.068654854 0)
(-0.033921534 0.068201763 0)
(-0.043487297 0.067598557 0)
(-0.052958674 0.066846028 0)
(-0.06231491 0.065945183 0)
(-0.071535383 0.064897246 0)
(-0.080599635 0.063703672 0)
(-0.089487404 0.062366154 0)
(-0.098178652 0.060886636 0)
(-0.1066536 0.059267324 0)
(-0.11489278 0.057510698 0)
(-0.12287704 0.055619522 0)
(-0.13058762 0.053596858 0)
(-0.13800617 0.051446074 0)
(-0.14511483 0.049170854 0)
(-0.15189621 0.046775207 0)
(-0.15833352 0.044263471 0)
(-0.16441056 0.041640323 0)
(-0.1701118 0.038910773 0)
(-0.1754224 0.036080173 0)
(-0.18032832 0.033154211 0)
(-0.18481629 0.030138906 0)
(-0.18887393 0.027040605 0)
(-0.19248976 0.02386597 0)
(-0.19565327 0.020621969 0)
(-0.19835493 0.017315863 0)
(-0.20058627 0.013955188 0)
(-0.20233991 0.010547738 0)
(-0.20360958 0.007101547 0)
(-0.20439018 0.0036248651 0)
(-0.2046778 0.00012613797 0)
(-0.20446973 -0.0033860189 0)
(-0.20376451 -0.0069028446 0)
(-0.20256194 -0.010415458 0)
(-0.20086308 -0.013914887 0)
(-0.19867028 -0.017392092 0)
(-0.19598719 -0.020837997 0)
(-0.19281876 -0.024243517 0)
(-0.18917121 -0.027599586 0)
(-0.18505208 -0.030897186 0)
(-0.18047016 -0.034127377 0)
(-0.17543555 -0.037281326 0)
(-0.16995955 -0.040350335 0)
(-0.16405474 -0.04332587 0)
(-0.15773488 -0.046199592 0)
(-0.15101489 -0.048963386 0)
(-0.14391087 -0.051609388 0)
(-0.13644001 -0.054130015 0)
(-0.12862055 -0.056517992 0)
(-0.12047176 -0.058766383 0)
(-0.1120139 -0.060868615 0)
(-0.1032681 -0.062818504 0)
(-0.094256401 -0.064610283 0)
(-0.085001602 -0.066238623 0)
(-0.075527255 -0.067698659 0)
(-0.065857576 -0.068986008 0)
(-0.056017376 -0.070096792 0)
(-0.046031989 -0.071027651 0)
(-0.035927195 -0.071775761 0)