/*--------------------------------*- C++ -*----------------------------------*\
| =========                 |                                                 |
| \\      /  F ield         | OpenFOAM: The Open Source CFD Toolbox           |
|  \\    /   O peration     | Version:  2306                                  |
|   \\  /    A nd           | Website:  www.openfoam.com                      |
|    \\/     M anipulation  |                                                 |
\*---------------------------------------------------------------------------*/
FoamFile
{
    version     2.0;
    format      ascii;
    arch        "LSB;label=32;scalar=64";
    class       volVectorField;
    location    "0.34";
    object      U_0;
}
// * * * * * * * * * * * * * * * * * * * * * * * * * * * * * * * * * * * * * //

dimensions      [0 1 -1 0 0 0 0];

internalField   nonuniform List<vector> 
6400
(
(-0.00072213414 7.0694571e-07 -7.250878e-19)
(-0.00071572733 6.6253413e-07 3.1462271e-19)
(-0.00070900205 6.2229621e-07 5.8162192e-19)
(-0.00070197179 5.8710382e-07 -1.5416325e-21)
(-0.00069464477 5.6270219e-07 1.569533e-19)
(-0.00068702414 5.5425089e-07 -2.347846e-19)
(-0.00067912515 5.2088649e-07 3.4191036e-20)
(-0.00067099081 4.5086508e-07 1.6025881e-20)
(-0.00066264607 3.7441355e-07 -4.3770417e-19)
(-0.00065409179 2.996354e-07 8.7020738e-20)
(-0.00064533861 2.2859384e-07 -2.8860778e-19)
(-0.00063639971 1.6157153e-07 -1.8189001e-19)
(-0.00062728871 9.8318757e-08 4.4099153e-19)
(-0.00061801907 3.8509493e-08 2.4134502e-19)
(-0.00060860389 -1.8149182e-08 -6.2146653e-20)
(-0.00059905589 -7.1881623e-08 -4.3616887e-19)
(-0.00058938732 -1.2286993e-07 6.5697605e-20)
(-0.00057961003 -1.7126857e-07 3.7337027e-19)
(-0.0005697354 -2.1718951e-07 1.7961644e-19)
(-0.00055977437 -2.6074564e-07 -1.3813054e-19)
(-0.00054973744 -3.0202938e-07 -4.9363853e-19)
(-0.00053963467 -3.411317e-07 1.3657115e-19)
(-0.00052947567 -3.7813541e-07 2.4907758e-19)
(-0.00051926961 -4.1312177e-07 1.2254205e-19)
(-0.00050902521 -4.4616439e-07 -4.7624411e-20)
(-0.0004987508 -4.7734136e-07 -5.0259785e-19)
(-0.00048845424 -5.0672307e-07 1.2121056e-19)
(-0.000478143 -5.3438102e-07 3.4629752e-19)
(-0.00046782414 -5.6039418e-07 6.6470976e-20)
(-0.0004575043 -5.8481913e-07 4.0349682e-20)
(-0.00044718974 -6.0773235e-07 -3.6707535e-19)
(-0.00043688636 -6.2919541e-07 -1.6790621e-19)
(-0.00042659964 -6.4928018e-07 2.3989277e-19)
(-0.00041633475 -6.6804237e-07 8.1795112e-20)
(-0.00040609647 -6.855501e-07 3.3885728e-20)
(-0.00039588927 -7.018592e-07 -7.1860504e-20)
(-0.00038571729 -7.1703182e-07 7.3063505e-21)
(-0.00037558435 -7.3112827e-07 1.1354036e-19)
(-0.00036549395 -7.4419821e-07 -1.4369357e-20)
(-0.00035544933 -7.5630122e-07 4.2610104e-21)
(-0.00034545343 -7.6748814e-07 -8.5897479e-20)
(-0.00033550894 -7.7780687e-07 -8.5216943e-21)
(-0.00032561827 -7.8730597e-07 1.0049034e-19)
(-0.0003157836 -7.9603613e-07 4.0130766e-20)
(-0.00030600688 -8.0403704e-07 -2.7862051e-20)
(-0.00029628982 -8.1135015e-07 -1.718825e-19)
(-0.00028663394 -8.1801607e-07 -2.1479835e-20)
(-0.00027704055 -8.2406684e-07 1.4017442e-19)
(-0.00026751077 -8.2953997e-07 5.2979053e-20)
(-0.00025804553 -8.3446182e-07 -4.3080161e-20)
(-0.00024864561 -8.3885811e-07 -8.8707584e-20)
(-0.0002393116 -8.4273999e-07 1.9569797e-20)
(-0.00023004398 -8.4613171e-07 6.4760084e-20)
(-0.00022084305 -8.4903611e-07 -2.5128827e-20)
(-0.000211709 -8.5148057e-07 -8.2995867e-20)
(-0.00020264191 -8.5349152e-07 -2.0645218e-20)
(-0.00019364172 -8.5509936e-07 7.5440926e-20)
(-0.00018470827 -8.5633304e-07 3.607323e-20)
(-0.00017584131 -8.5722237e-07 6.0655331e-21)
(-0.00016704048 -8.5778847e-07 -4.2188113e-21)
(-0.00015830535 -8.5806304e-07 -3.5166855e-20)
(-0.00014963541 -8.58057e-07 2.7270182e-20)
(-0.00014103009 -8.5779687e-07 1.986851e-20)
(-0.00013248876 -8.5730141e-07 -1.162903e-20)
(-0.00012401072 -8.5657657e-07 7.9873321e-21)
(-0.00011559528 -8.5563884e-07 -5.5692884e-20)
(-0.00010724169 -8.5449453e-07 -1.5730189e-20)
(-9.8949241e-05 -8.5314008e-07 6.2766496e-20)
(-9.0717242e-05 -8.5155567e-07 2.3067155e-20)
(-8.2545147e-05 -8.4968543e-07 -2.0547688e-20)
(-7.4432682e-05 -8.4738229e-07 -3.8180085e-20)
(-6.6380166e-05 -8.4430799e-07 -6.3163974e-21)
(-5.8389151e-05 -8.396738e-07 2.8743395e-20)
(-5.0463733e-05 -8.3168878e-07 9.1037598e-21)
(-4.2612993e-05 -8.1652537e-07 -5.7172637e-21)
(-3.4854626e-05 -7.8720941e-07 -1.0828478e-20)
(-2.7217634e-05 -7.364334e-07 -4.5993602e-21)
(-1.9733247e-05 -6.8283637e-07 5.1209714e-21)
(-1.2329776e-05 -8.2572912e-07 1.7215555e-21)
(-4.3234518e-06 -1.7819225e-06 -3.4620965e-21)
(-0.0019234245 4.2543431e-06 5.7226791e-20)
(-0.0019028332 3.3190927e-06 2.1836285e-19)
(-0.0018815751 2.4175922e-06 2.4518879e-19)
(-0.0018596817 1.5449906e-06 -6.2664906e-19)
(-0.0018371837 6.8222739e-07 -7.5952035e-20)
(-0.0018141558 -1.6889982e-07 5.8416084e-19)
(-0.0017906503 -1.0001158e-06 -3.6782721e-19)
(-0.0017666582 -1.8127472e-06 2.6201243e-19)
(-0.0017422046 -2.592664e-06 2.5004042e-19)
(-0.0017173389 -3.3375249e-06 -6.2889986e-19)
(-0.0016920992 -4.0477287e-06 -4.5695811e-19)
(-0.0016665194 -4.7243267e-06 -1.458132e-19)
(-0.0016406313 -5.3684869e-06 4.7201843e-19)
(-0.0016144655 -5.9813392e-06 1.4389482e-19)
(-0.0015880514 -6.5639466e-06 -1.6270611e-19)
(-0.0015614174 -7.1173068e-06 3.008445e-21)
(-0.0015345908 -7.6423803e-06 1.4189428e-19)
(-0.0015075976 -8.1401221e-06 3.8929204e-19)
(-0.001480463 -8.6114309e-06 -2.2552003e-19)
(-0.001453211 -9.0572188e-06 -5.7647772e-19)
(-0.0014258643 -9.4783886e-06 -6.2828385e-20)
(-0.0013984447 -9.875829e-06 4.2167664e-19)
(-0.001370973 -1.0250408e-05 3.8667617e-19)
(-0.0013434689 -1.0603015e-05 -8.5370117e-20)
(-0.0013159508 -1.0934501e-05 -4.0094258e-19)
(-0.0012884365 -1.1245725e-05 -2.9313978e-19)
(-0.0012609424 -1.1537519e-05 2.3773909e-19)
(-0.0012334842 -1.1810715e-05 6.0940926e-19)
(-0.0012060766 -1.2066134e-05 6.0871316e-20)
(-0.0011787331 -1.2304558e-05 -4.2512239e-19)
(-0.0011514668 -1.2526777e-05 -1.88839e-19)
(-0.0011242894 -1.2733557e-05 -1.1213198e-19)
(-0.0010972121 -1.2925644e-05 3.6599866e-19)
(-0.0010702451 -1.3103762e-05 4.6781334e-19)
(-0.001043398 -1.3268618e-05 -2.5255441e-19)
(-0.0010166794 -1.3420896e-05 -4.3496274e-19)
(-0.0009900974 -1.3561271e-05 -8.759789e-20)
(-0.00096365919 -1.3690389e-05 3.9792304e-19)
(-0.00093737139 -1.3808869e-05 1.3291157e-19)
(-0.00091123998 -1.3917321e-05 -4.8137904e-19)
(-0.0008852703 -1.4016335e-05 -1.5216924e-19)
(-0.00085946709 -1.4106459e-05 4.2376833e-19)
(-0.00083383454 -1.4188243e-05 3.5286701e-19)
(-0.00080837632 -1.4262217e-05 -2.1359694e-19)
(-0.00078309556 -1.4328871e-05 -5.2668637e-19)
(-0.00075799492 -1.4388692e-05 -4.8783703e-20)
(-0.00073307659 -1.4442146e-05 3.7691687e-19)
(-0.00070834236 -1.4489671e-05 2.1004044e-19)
(-0.00068379356 -1.45317e-05 -7.7936216e-20)
(-0.00065943117 -1.4568642e-05 -2.4506788e-19)
(-0.0006352558 -1.4600894e-05 -9.5322779e-20)
(-0.00061126769 -1.462883e-05 2.660932e-19)
(-0.00058746681 -1.4652824e-05 2.6100948e-19)
(-0.0005638528 -1.4673218e-05 -8.3284159e-20)
(-0.00054042508 -1.4690346e-05 -3.1855427e-19)
(-0.00051718276 -1.4704498e-05 -5.8746121e-20)
(-0.00049412474 -1.4715953e-05 2.0873296e-19)
(-0.00047124965 -1.4724969e-05 9.1238845e-20)
(-0.00044855594 -1.4731793e-05 -2.226041e-20)
(-0.00042604186 -1.4736644e-05 -5.8924797e-20)
(-0.0004037055 -1.4739745e-05 -2.9581604e-20)
(-0.00038154479 -1.4741272e-05 1.6018762e-20)
(-0.00035955752 -1.4741416e-05 4.9084068e-20)
(-0.00033774139 -1.4740339e-05 -2.833297e-20)
(-0.00031609397 -1.473816e-05 -9.8109811e-20)
(-0.0002946128 -1.4734997e-05 -2.3379647e-20)
(-0.00027329535 -1.4730917e-05 7.7977472e-20)
(-0.00025213911 -1.4725938e-05 9.1781208e-20)
(-0.00023114164 -1.4719963e-05 -2.8296018e-20)
(-0.00021030066 -1.4712713e-05 -9.6823152e-20)
(-0.00018961424 -1.4703532e-05 -9.4466499e-21)
(-0.00016908104 -1.4691047e-05 5.8304017e-20)
(-0.00014870075 -1.4672519e-05 3.6073995e-20)
(-0.00012847455 -1.4642786e-05 -1.4043204e-20)
(-0.0001084053 -1.4593102e-05 -2.885091e-20)
(-8.8495731e-05 -1.4512171e-05 -4.1051345e-21)
(-6.8739646e-05 -1.4399168e-05 1.3838929e-20)
(-4.909883e-05 -1.4313228e-05 1.070742e-20)
(-2.9481662e-05 -1.4494864e-05 1.3643355e-21)
(-9.8023757e-06 -1.5474899e-05 -1.6674549e-22)
(-0.0027277751 8.1941324e-06 4.2289566e-19)
(-0.0026966106 5.6867727e-06 -5.0749425e-19)
(-0.002664618 3.2666974e-06 -4.0541009e-19)
(-0.0026318637 9.1940151e-07 -2.4411982e-19)
(-0.002598384 -1.3386099e-06 -1.6868168e-19)
(-0.002564191 -3.527335e-06 2.8570495e-19)
(-0.0025293456 -5.6204414e-06 -1.2947459e-19)
(-0.0024939229 -7.610258e-06 1.9786935e-19)
(-0.0024579731 -9.5112906e-06 5.4767761e-19)
(-0.0024215409 -1.1328329e-05 -2.4813367e-19)
(-0.0023846704 -1.3063922e-05 -3.7406776e-19)
(-0.0023474043 -1.4720037e-05 -3.973931e-20)
(-0.0023097844 -1.62985e-05 1.3635069e-19)
(-0.0022718511 -1.7801191e-05 -1.419298e-19)
(-0.0022336429 -1.9230064e-05 -2.2933513e-22)
(-0.0021951974 -2.0587139e-05 4.4774209e-19)
(-0.00215655 -2.18745e-05 -2.6803097e-20)
(-0.0021177351 -2.3094291e-05 -2.3417517e-19)
(-0.0020787853 -2.4248657e-05 -3.2282128e-19)
(-0.0020397318 -2.5339792e-05 -1.2595085e-19)
(-0.0020006041 -2.6369903e-05 3.9036888e-19)
(-0.0019614303 -2.7341183e-05 2.0586832e-19)
(-0.0019222372 -2.8255821e-05 3.473708e-20)
(-0.0018830499 -2.9116018e-05 -2.644229e-19)
(-0.0018438923 -2.9923941e-05 -1.2967997e-19)
(-0.0018047867 -3.0681738e-05 3.211406e-19)
(-0.0017657542 -3.1391518e-05 7.3524242e-20)
(-0.0017268147 -3.2055381e-05 3.1440496e-20)
(-0.0016879864 -3.2675374e-05 -9.5224831e-20)
(-0.0016492868 -3.3253511e-05 -2.9725449e-19)
(-0.0016107317 -3.3791762e-05 7.954951e-20)
(-0.0015723361 -3.4292047e-05 1.3912823e-19)
(-0.0015341136 -3.4756253e-05 1.102288e-19)
(-0.001496077 -3.5186203e-05 2.0703044e-19)
(-0.0014582379 -3.5583667e-05 -1.3321462e-19)
(-0.0014206068 -3.5950373e-05 -3.1140496e-19)
(-0.0013831934 -3.6288002e-05 -1.2611114e-19)
(-0.0013460064 -3.6598172e-05 1.5386693e-19)
(-0.0013090537 -3.6882445e-05 1.0344628e-19)
(-0.0012723421 -3.7142331e-05 -1.2914533e-19)
(-0.001235878 -3.73793e-05 2.0419633e-20)
(-0.0011996667 -3.7594742e-05 1.6130732e-19)
(-0.0011637129 -3.7790014e-05 6.8292508e-20)
(-0.0011280205 -3.7966428e-05 -1.6508626e-19)
(-0.001092593 -3.812522e-05 -2.0616704e-19)
(-0.0010574329 -3.8267596e-05 9.6215297e-20)
(-0.0010225425 -3.8394708e-05 1.8802376e-19)
(-0.00098792321 -3.8507656e-05 7.8260579e-20)
(-0.00095357611 -3.86075e-05 -9.2059892e-20)
(-0.0009195017 -3.8695257e-05 -9.6960358e-20)
(-0.00088570006 -3.8771901e-05 4.758888e-20)
(-0.00085217082 -3.8838373e-05 8.1329558e-20)
(-0.00081891318 -3.889556e-05 9.1876562e-20)
(-0.00078592598 -3.8944324e-05 2.3366967e-20)
(-0.00075320767 -3.898545e-05 -7.6651289e-20)
(-0.00072075638 -3.9019674e-05 -5.8475832e-20)
(-0.00068856996 -3.9047686e-05 3.0701442e-20)
(-0.00065664597 -3.9070129e-05 4.3515509e-20)
(-0.00062498169 -3.9087613e-05 -2.2191317e-20)
(-0.00059357421 -3.9100693e-05 -2.638104e-20)
(-0.00056242038 -3.9109906e-05 3.8775568e-21)
(-0.00053151685 -3.9115728e-05 -3.7777155e-20)
(-0.00050086012 -3.9118612e-05 1.0869178e-20)
(-0.00047044653 -3.9118966e-05 8.6476871e-21)
(-0.00044027232 -3.9117124e-05 -3.3014846e-20)
(-0.00041033362 -3.9113383e-05 2.764232e-20)
(-0.0003806265 -3.9107939e-05 1.7618223e-20)
(-0.00035114701 -3.9100877e-05 -3.9342734e-22)
(-0.00032189123 -3.9092088e-05 -4.7901152e-21)
(-0.00029285528 -3.9081172e-05 -1.0549269e-20)
(-0.00026403546 -3.906722e-05 3.4502108e-20)
(-0.00023542823 -3.9048475e-05 2.8264173e-20)
(-0.0002070302 -3.9021845e-05 2.2401325e-21)
(-0.00017883772 -3.8982529e-05 -2.574772e-20)
(-0.00015084568 -3.8924729e-05 -1.1728674e-20)
(-0.00012304471 -3.8846831e-05 2.3979084e-20)
(-9.5414793e-05 -3.8770409e-05 1.0899494e-20)
(-6.7913608e-05 -3.8789438e-05 6.8536236e-21)
(-4.0489918e-05 -3.9156505e-05 1.2620152e-20)
(-1.3356316e-05 -4.0233975e-05 2.2369677e-20)
(-0.0031956662 1.1123132e-05 -5.1318816e-20)
(-0.0031579516 6.7794895e-06 -2.5697866e-19)
(-0.0031193377 2.5971838e-06 -3.0671735e-20)
(-0.0030798562 -1.4195934e-06 1.2466616e-19)
(-0.0030395643 -5.2468287e-06 1.3679915e-20)
(-0.0029985501 -8.9032022e-06 -7.1172312e-20)
(-0.0029568615 -1.2412611e-05 -2.6017781e-19)
(-0.00291455 -1.5778857e-05 -9.0652728e-20)
(-0.0028716706 -1.9002657e-05 2.321321e-19)
(-0.0028282776 -2.208535e-05 2.2581021e-19)
(-0.0027844227 -2.5029075e-05 -5.709161e-20)
(-0.0027401556 -2.7836527e-05 -2.7477106e-19)
(-0.0026955238 -3.0510757e-05 -2.3699118e-20)
(-0.0026505731 -3.3055035e-05 1.3482092e-19)
(-0.0026053473 -3.5472814e-05 1.4393797e-19)
(-0.0025598885 -3.7767659e-05 1.0186308e-19)
(-0.0025142367 -3.9943242e-05 -2.0450939e-19)
(-0.0024684305 -4.2003302e-05 -1.5876403e-19)
(-0.0024225063 -4.3951609e-05 -1.4036154e-20)
(-0.002376499 -4.5791996e-05 1.1730031e-20)
(-0.0023304416 -4.7528299e-05 1.8944302e-19)
(-0.0022843654 -4.916434e-05 6.0116667e-20)
(-0.0022383001 -5.0703939e-05 -6.9638319e-20)
(-0.0021922737 -5.2150899e-05 -7.020303e-21)
(-0.0021463124 -5.3508979e-05 1.3568257e-19)
(-0.002100441 -5.4781902e-05 1.2352426e-19)
(-0.0020546828 -5.5973316e-05 -8.0099732e-20)
(-0.0020090594 -5.708684e-05 -8.6021063e-20)
(-0.0019635911 -5.8126007e-05 -1.0074333e-19)
(-0.0019182968 -5.9094296e-05 -1.4261926e-19)
(-0.0018731939 -5.9995087e-05 -6.8923672e-22)
(-0.0018282986 -6.0831684e-05 1.2829738e-19)
(-0.0017836258 -6.160733e-05 9.8426258e-20)
(-0.0017391891 -6.2325145e-05 4.521007e-20)
(-0.0016950009 -6.2988182e-05 -5.1427178e-20)
(-0.0016510727 -6.3599394e-05 -1.0251354e-19)
(-0.0016074148 -6.4161655e-05 -1.0830891e-19)
(-0.0015640362 -6.4677738e-05 -1.1590785e-20)
(-0.0015209453 -6.5150312e-05 6.2185392e-20)
(-0.0014781494 -6.5581967e-05 8.5994821e-20)
(-0.0014356547 -6.5975188e-05 4.4213283e-20)
(-0.0013934669 -6.6332374e-05 -6.1522633e-20)
(-0.0013515906 -6.6655825e-05 -3.2523445e-20)
(-0.0013100298 -6.6947766e-05 4.6424201e-20)
(-0.0012687877 -6.721031e-05 8.2483907e-20)
(-0.0012278667 -6.7445497e-05 3.9490581e-20)
(-0.0011872686 -6.7655271e-05 -2.5114957e-20)
(-0.0011469948 -6.7841494e-05 1.2178958e-21)
(-0.0011070457 -6.8005945e-05 -3.0259041e-20)
(-0.0010674216 -6.8150317e-05 2.049993e-20)
(-0.0010281219 -6.8276226e-05 7.4795803e-20)
(-0.00098914572 -6.8385211e-05 2.2399566e-20)
(-0.00095049173 -6.847872e-05 2.5343937e-20)
(-0.00091215809 -6.8558141e-05 3.3714876e-21)
(-0.00087414263 -6.8624777e-05 -3.2807358e-20)
(-0.00083644277 -6.867988e-05 -5.0004316e-20)
(-0.00079905563 -6.8724632e-05 7.9679008e-22)
(-0.00076197802 -6.8760134e-05 6.6618067e-21)
(-0.00072520646 -6.8787441e-05 -2.3085502e-20)
(-0.0006887372 -6.8807517e-05 -1.4097854e-20)
(-0.0006525663 -6.8821275e-05 1.5520505e-20)
(-0.00061668955 -6.8829564e-05 4.1333263e-22)
(-0.0005811026 -6.8833154e-05 1.4120942e-20)
(-0.00054580093 -6.8832751e-05 7.9905565e-21)
(-0.00051077985 -6.8828969e-05 -2.8646871e-21)
(-0.00047603459 -6.8822341e-05 1.9509723e-20)
(-0.00044156027 -6.8813284e-05 -2.0573778e-20)
(-0.00040735193 -6.8802049e-05 -5.8034356e-21)
(-0.00037340457 -6.878867e-05 3.1640163e-20)
(-0.00033971312 -6.8772873e-05 3.7079397e-20)
(-0.00030627243 -6.8753895e-05 2.6135072e-20)
(-0.00027307711 -6.8730279e-05 5.6244956e-21)
(-0.0002401212 -6.8699659e-05 7.2850117e-21)
(-0.0002073974 -6.8658957e-05 -2.5918825e-20)
(-0.00017489581 -6.860594e-05 -3.8030031e-21)
(-0.00014260258 -6.8544946e-05 2.5579941e-20)
(-0.00011049825 -6.8502482e-05 8.6153003e-21)
(-7.8554527e-05 -6.8558665e-05 1.6958706e-20)
(-4.6757674e-05 -6.8888786e-05 2.1667831e-20)
(-1.5398218e-05 -6.9667646e-05 3.2789284e-20)
(-0.0034407638 1.3196736e-05 9.9486903e-20)
(-0.0033994199 6.8778631e-06 6.1003334e-20)
(-0.003357127 7.982659e-07 -1.038258e-19)
(-0.003313942 -5.0156978e-06 1.7962429e-21)
(-0.0032699381 -1.060208e-05 1.0778378e-20)
(-0.0032251885 -1.5957414e-05 -2.0101896e-21)
(-0.0031797466 -2.1083468e-05 -1.0214366e-19)
(-0.0031336714 -2.5985783e-05 -1.4554083e-19)
(-0.0030870209 -3.0670298e-05 -4.8402106e-20)
(-0.0030398512 -3.5142374e-05 1.7510483e-19)
(-0.0029922165 -3.9407103e-05 1.813316e-19)
(-0.0029441691 -4.3469581e-05 -1.8465422e-19)
(-0.0028957594 -4.7335013e-05 -1.21883e-19)
(-0.0028470356 -5.1008714e-05 1.0428349e-19)
(-0.0027980441 -5.4496159e-05 1.1976354e-19)
(-0.0027488292 -5.780292e-05 9.1296167e-21)
(-0.0026994332 -6.0934666e-05 -1.5971883e-19)
(-0.0026498965 -6.3897119e-05 -7.466613e-20)
(-0.0026002575 -6.6696039e-05 -9.0801772e-21)
(-0.0025505528 -6.9337204e-05 -2.8838878e-22)
(-0.0025008171 -7.1826407e-05 1.2048663e-19)
(-0.002451083 -7.4169395e-05 2.7676269e-20)
(-0.0024013816 -7.6371879e-05 2.7204466e-20)
(-0.0023517422 -7.8439538e-05 6.1721368e-20)
(-0.002302192 -8.0377961e-05 8.5543916e-20)
(-0.002252757 -8.219267e-05 9.7399789e-20)
(-0.0022034612 -8.3889091e-05 -5.1528278e-20)
(-0.0021543273 -8.5472558e-05 -5.5283168e-20)
(-0.0021053761 -8.6948289e-05 -1.0339442e-19)
(-0.0020566271 -8.8321408e-05 -1.1352727e-19)
(-0.0020080984 -8.9596894e-05 2.4795936e-20)
(-0.0019598067 -9.0779605e-05 7.6738555e-20)
(-0.0019117671 -9.1874283e-05 3.1705677e-20)
(-0.0018639938 -9.288552e-05 -2.1303845e-20)
(-0.0018164994 -9.3817776e-05 -3.7293869e-20)
(-0.0017692955 -9.4675378e-05 -3.680703e-21)
(-0.0017223925 -9.5462518e-05 -7.0544064e-20)
(-0.0016757998 -9.6183244e-05 -6.076109e-20)
(-0.0016295256 -9.6841448e-05 -1.0180325e-21)
(-0.0015835771 -9.7440906e-05 3.0098818e-20)
(-0.0015379608 -9.7985242e-05 6.1594526e-20)
(-0.001492682 -9.8477941e-05 2.5741819e-20)
(-0.0014477453 -9.8922354e-05 2.7755103e-20)
(-0.0014031545 -9.9321701e-05 5.4287576e-20)
(-0.0013589125 -9.9679069e-05 2.3593293e-20)
(-0.0013150216 -9.9997408e-05 8.5522897e-21)
(-0.0012714834 -0.00010027954 -2.7719755e-20)
(-0.0012282987 -0.00010052816 -1.9540953e-20)
(-0.0011854679 -0.00010074585 -6.4097094e-21)
(-0.0011429907 -0.00010093506 2.7448678e-20)
(-0.0011008664 -0.00010109814 7.3351176e-20)
(-0.0010590935 -0.0001012373 5.4151896e-20)
(-0.0010176703 -0.00010135464 2.371897e-20)
(-0.00097659471 -0.00010145217 -3.0996495e-20)
(-0.00093586396 -0.00010153179 -4.5108627e-20)
(-0.00089547509 -0.00010159529 -3.8884041e-20)
(-0.00085542474 -0.00010164437 6.9361793e-21)
(-0.00081570926 -0.00010168061 4.9221059e-21)
(-0.00077632469 -0.00010170553 1.117039e-21)
(-0.00073726678 -0.00010172053 9.1362641e-21)
(-0.00069853109 -0.00010172691 1.9545357e-20)
(-0.00066011292 -0.00010172591 -2.6924874e-21)
(-0.00062200738 -0.00010171864 4.3652892e-21)
(-0.00058420942 -0.00010170613 1.2304732e-20)
(-0.00054671384 -0.00010168929 -3.3733933e-21)
(-0.00050951529 -0.00010166892 2.3375125e-20)
(-0.00047260832 -0.00010164572 2.8257399e-21)
(-0.00043598733 -0.0001016202 -3.0973533e-21)
(-0.00039964663 -0.00010159266 1.0241908e-20)
(-0.00036358036 -0.00010156316 1.3592379e-20)
(-0.00032778241 -0.00010153138 9.4305386e-21)
(-0.00029224622 -0.00010149661 7.7797053e-21)
(-0.00025696439 -0.00010145776 1.9033411e-20)
(-0.00022192806 -0.00010141394 -8.1184704e-21)
(-0.00018712617 -0.00010136614 -1.2070398e-21)
(-0.00015254589 -0.00010132197 1.8566447e-20)
(-0.00011817398 -0.00010130579 1.0689166e-20)
(-8.3994286e-05 -0.00010137443 9.6237981e-21)
(-5.0008087e-05 -0.00010162984 1.3066464e-20)
(-1.6486233e-05 -0.00010213011 2.3289905e-20)
(-0.0035603495 1.4865174e-05 9.7153899e-20)
(-0.0035170872 6.505374e-06 6.2023628e-20)
(-0.0034728527 -1.5281985e-06 -7.9215345e-20)
(-0.0034277204 -9.2300974e-06 -6.9853088e-20)
(-0.0033817746 -1.662336e-05 -4.4702166e-20)
(-0.0033350727 -2.3707634e-05 -6.9086374e-20)
(-0.0032876762 -3.0488924e-05 -1.7860434e-21)
(-0.003239646 -3.6973301e-05 5.0494172e-20)
(-0.0031910416 -4.3166937e-05 -6.47953e-21)
(-0.0031419206 -4.9076302e-05 7.8060757e-20)
(-0.0030923389 -5.4708122e-05 4.666004e-20)
(-0.00304235 -6.006938e-05 -1.2699485e-19)
(-0.0029920058 -6.5167275e-05 4.5207778e-21)
(-0.0029413556 -7.0009186e-05 2.9150578e-20)
(-0.0028904471 -7.4602651e-05 5.5311817e-22)
(-0.0028393255 -7.8955333e-05 -2.0718121e-20)
(-0.0027880342 -8.3074982e-05 -1.1135809e-19)
(-0.0027366146 -8.6969403e-05 -4.7712374e-20)
(-0.0026851057 -9.0646436e-05 2.3032583e-20)
(-0.002633545 -9.4113908e-05 1.6129329e-20)
(-0.0025819677 -9.7379659e-05 5.7120202e-20)
(-0.0025304072 -0.00010045144 4.9782169e-20)
(-0.0024788951 -0.00010333698 9.595465e-20)
(-0.0024274609 -0.00010604388 3.7187311e-20)
(-0.0023761326 -0.00010857968 2.9304798e-20)
(-0.0023249364 -0.00011095179 1.0118891e-19)
(-0.0022738966 -0.00011316746 1.2650134e-20)
(-0.002223036 -0.00011523384 -4.1683796e-20)
(-0.0021723758 -0.00011715792 -1.0400375e-19)
(-0.0021219357 -0.00011894652 -7.6298319e-20)
(-0.0020717338 -0.0001206063 -2.8297067e-21)
(-0.0020217868 -0.00012214374 4.7742878e-20)
(-0.0019721101 -0.00012356514 1.0724343e-20)
(-0.0019227177 -0.00012487662 -3.8484498e-20)
(-0.0018736223 -0.00012608412 -2.2117629e-20)
(-0.0018248355 -0.00012719339 -1.2158456e-20)
(-0.0017763675 -0.00012820999 -5.3910306e-20)
(-0.0017282277 -0.00012913929 -4.8619355e-20)
(-0.0016804241 -0.00012998647 -1.0841675e-20)
(-0.0016329639 -0.00013075652 2.7229221e-20)
(-0.0015858532 -0.00013145425 5.377504e-20)
(-0.0015390974 -0.00013208428 3.0234059e-20)
(-0.0014927008 -0.00013265104 2.1969687e-20)
(-0.0014466669 -0.00013315879 2.9703147e-20)
(-0.0014009985 -0.00013361161 1.3239765e-20)
(-0.0013556976 -0.00013401341 -1.6874182e-20)
(-0.0013107656 -0.00013436791 -5.5568835e-20)
(-0.0012662031 -0.00013467869 -8.5278117e-21)
(-0.0012220101 -0.00013494914 -9.9066807e-21)
(-0.0011781862 -0.00013518252 2.3082186e-20)
(-0.0011347302 -0.00013538188 7.2190993e-20)
(-0.0010916406 -0.00013555019 4.748457e-20)
(-0.0010489153 -0.00013569021 1.6092875e-20)
(-0.0010065518 -0.0001358046 -2.257085e-20)
(-0.00096454715 -0.00013589584 -2.8722063e-20)
(-0.00092289807 -0.00013596631 -4.3113263e-20)
(-0.00088160091 -0.00013601824 2.9480853e-21)
(-0.0008406517 -0.00013605373 8.827732e-21)
(-0.00080004617 -0.00013607476 -1.1518112e-20)
(-0.00075977979 -0.00013608318 -7.7680203e-21)
(-0.00071984777 -0.00013608072 8.7452123e-21)
(-0.00068024512 -0.000136069 -7.1897492e-21)
(-0.00064096663 -0.00013604951 2.2631756e-21)
(-0.00060200693 -0.0001360236 2.1509923e-20)
(-0.00056336047 -0.00013599251 1.4756889e-20)
(-0.00052502157 -0.00013595737 3.4425519e-20)
(-0.0004869844 -0.00013591914 1.268125e-20)
(-0.00044924301 -0.00013587864 4.2597976e-22)
(-0.00041179126 -0.0001358365 -1.7071219e-21)
(-0.00037462283 -0.00013579317 -1.1094222e-20)
(-0.00033773112 -0.00013574887 -9.5724392e-21)
(-0.00030110904 -0.00013570368 -9.2356822e-21)
(-0.00026474879 -0.00013565772 2.6742107e-20)
(-0.0002286415 -0.00013561171 1.5250431e-20)
(-0.00019277716 -0.00013556845 1.3240055e-20)
(-0.00015714604 -0.00013553576 2.2807026e-20)
(-0.00012174094 -0.00013553198 8.1928533e-22)
(-8.6551234e-05 -0.00013559155 -1.2085431e-21)
(-5.1575359e-05 -0.00013576575 -1.8247001e-21)
(-1.7025168e-05 -0.00013606148 1.3828834e-20)
(-0.003617987 1.6101472e-05 -1.3658683e-20)
(-0.0035736363 5.6607595e-06 6.2042611e-20)
(-0.0035283138 -4.3643657e-06 2.1392019e-20)
(-0.0034820992 -1.3992077e-05 -4.2642538e-20)
(-0.0034350735 -2.3223907e-05 -3.8023338e-20)
(-0.0033872951 -3.2065806e-05 -1.1576052e-19)
(-0.0033388261 -4.0525076e-05 -5.3174628e-21)
(-0.0032897283 -4.8609473e-05 1.6238986e-19)
(-0.0032400623 -5.6327175e-05 -9.6982015e-21)
(-0.0031898866 -6.3686704e-05 -5.2443181e-20)
(-0.0031392576 -7.0696881e-05 4.076218e-20)
(-0.00308823 -7.7366792e-05 -9.137234e-21)
(-0.003036856 -8.3705759e-05 -1.2428267e-20)
(-0.0029851859 -8.9723323e-05 -5.877355e-20)
(-0.0029332677 -9.5429161e-05 -3.7391605e-20)
(-0.0028811472 -0.00010083311 3.3901612e-20)
(-0.0028288683 -0.00010594507 -3.7240307e-21)
(-0.0027764726 -0.000110775 -1.2150241e-20)
(-0.0027239997 -0.00011533288 1.8309246e-20)
(-0.0026714872 -0.00011962866 1.6859122e-20)
(-0.0026189706 -0.00012367229 1.8776486e-20)
(-0.0025664835 -0.00012747358 1.621616e-20)
(-0.0025140576 -0.0001310423 8.4448352e-20)
(-0.0024617226 -0.00013438807 3.9311335e-20)
(-0.0024095065 -0.00013752041 1.36818e-20)
(-0.0023574354 -0.00014044863 4.7127045e-20)
(-0.0023055339 -0.0001431819 -1.2708449e-20)
(-0.0022538246 -0.0001457292 -2.6588005e-20)
(-0.0022023287 -0.00014809932 -3.9884275e-20)
(-0.0021510658 -0.00015030083 -1.7832324e-20)
(-0.0021000539 -0.00015234209 -1.3691758e-20)
(-0.0020493097 -0.00015423123 3.2821465e-20)
(-0.0019988484 -0.00015597615 2.2990132e-20)
(-0.0019486838 -0.00015758453 -2.5158632e-20)
(-0.0018988285 -0.0001590638 -2.3229875e-20)
(-0.0018492939 -0.00016042114 -3.3052562e-20)
(-0.00180009 -0.00016166353 -5.7644527e-20)
(-0.001751226 -0.00016279767 -4.5768868e-20)
(-0.0017027098 -0.00016383005 4.3423931e-21)
(-0.0016545483 -0.00016476689 3.0984249e-20)
(-0.0016067474 -0.00016561419 4.9142465e-20)
(-0.0015593123 -0.00016637773 2.679015e-20)
(-0.001512247 -0.00016706304 1.5973546e-20)
(-0.0014655549 -0.00016767542 2.7708668e-20)
(-0.0014192384 -0.00016821996 -7.441079e-21)
(-0.0013732995 -0.00016870154 -3.0837107e-20)
(-0.0013277392 -0.0001691248 -6.2604161e-20)
(-0.0012825578 -0.00016949417 -1.6872797e-20)
(-0.0012377552 -0.0001698139 -1.0909645e-20)
(-0.0011933307 -0.00017008804 1.7833232e-20)
(-0.001149283 -0.00017032039 5.8251971e-20)
(-0.0011056101 -0.00017051464 4.3937563e-20)
(-0.0010623098 -0.00017067423 6.3089013e-21)
(-0.0010193793 -0.00017080245 -2.1902326e-20)
(-0.00097681562 -0.00017090242 -2.0914348e-20)
(-0.00093461506 -0.00017097707 -4.4255463e-20)
(-0.0008927738 -0.00017102919 3.0336904e-21)
(-0.00085128763 -0.00017106137 -2.2464777e-20)
(-0.00081015206 -0.0001710761 -2.5275495e-20)
(-0.00076936233 -0.00017107566 1.2453417e-20)
(-0.00072891343 -0.00017106222 1.7768021e-20)
(-0.00068880014 -0.00017103779 -1.811586e-21)
(-0.00064901704 -0.00017100422 -1.8682971e-21)
(-0.00060955851 -0.00017096324 1.6478259e-20)
(-0.00057041878 -0.00017091642 5.0966488e-21)
(-0.00053159194 -0.00017086518 2.6576943e-20)
(-0.00049307192 -0.00017081083 1.3232915e-20)
(-0.0004548525 -0.00017075448 4.1392902e-21)
(-0.00041692732 -0.00017069712 1.3596677e-20)
(-0.0003792898 -0.0001706396 -2.7128064e-22)
(-0.00034193311 -0.00017058266 -1.6930144e-20)
(-0.00030485008 -0.00017052702 -1.1022385e-20)
(-0.00026803305 -0.00017047362 1.3396104e-20)
(-0.00023147377 -0.00017042408 -5.6923065e-23)
(-0.00019516378 -0.00017038165 1.3589775e-20)
(-0.00015909606 -0.0001703528 2.2045627e-20)
(-0.00012326684 -0.00017034952 1.8591749e-21)
(-8.7665811e-05 -0.00017039021 -7.3406097e-21)
(-5.2282421e-05 -0.0001704969 -3.893517e-21)
(-1.7276598e-05 -0.0001706595 1.8560096e-20)
(-0.0036487245 1.7012495e-05 -4.1397195e-20)
(-0.0036036308 4.47608e-06 3.0771793e-20)
(-0.0035575738 -7.5625498e-06 -6.4604313e-21)
(-0.0035106321 -1.9122047e-05 -4.2566662e-20)
(-0.0034628804 -3.0203072e-05 4.9804121e-21)
(-0.0034143817 -4.081197e-05 -8.040519e-20)
(-0.0033652 -5.0957429e-05 2.9577067e-20)
(-0.003315398 -6.0648918e-05 1.0510652e-19)
(-0.0032650369 -6.9896551e-05 -6.2484402e-20)
(-0.0032141757 -7.8710925e-05 1.5897957e-20)
(-0.0031628716 -8.7103008e-05 3.5591068e-20)
(-0.0031111794 -9.5084084e-05 -6.8882597e-20)
(-0.0030591519 -0.0001026657 -2.7060011e-20)
(-0.0030068397 -0.00010985964 -3.3313667e-20)
(-0.002954291 -0.00011667781 2.9227675e-20)
(-0.0029015521 -0.00012313229 5.3123437e-20)
(-0.0028486668 -0.00012923522 -1.690563e-20)
(-0.0027956772 -0.00013499876 6.7299595e-21)
(-0.0027426227 -0.0001404351 1.5836677e-20)
(-0.0026895411 -0.00014555639 -9.2589032e-21)
(-0.002636468 -0.00015037468 -7.8965397e-22)
(-0.0025834369 -0.00015490195 8.5181806e-22)
(-0.0025304794 -0.00015915003 6.0171189e-20)
(-0.0024776253 -0.0001631306 2.2814419e-20)
(-0.0024249024 -0.00016685518 2.5714524e-22)
(-0.0023723368 -0.00017033506 2.8365517e-20)
(-0.0023199527 -0.00017358133 3.3121366e-21)
(-0.0022677728 -0.00017660483 1.433609e-20)
(-0.002215818 -0.00017941619 -1.879602e-20)
(-0.0021641077 -0.00018202574 -1.5201853e-20)
(-0.0021126597 -0.00018444358 -1.351176e-20)
(-0.0020614905 -0.00018667949 3.9212597e-20)
(-0.0020106151 -0.00018874301 2.5973997e-20)
(-0.0019600469 -0.00019064338 -3.5663891e-20)
(-0.0019097985 -0.00019238954 -5.0656776e-21)
(-0.0018598808 -0.00019399013 -2.5857014e-20)
(-0.0018103038 -0.00019545354 -4.4258759e-20)
(-0.0017610762 -0.00019678783 -2.8149258e-20)
(-0.0017122057 -0.00019800078 7.9741203e-21)
(-0.001663699 -0.00019909986 4.8235669e-20)
(-0.0016155618 -0.00020009231 3.2456569e-20)
(-0.0015677988 -0.00020098503 1.4487326e-20)
(-0.001520414 -0.00020178465 1.4771651e-20)
(-0.0014734104 -0.00020249755 1.4292484e-21)
(-0.0014267902 -0.00020312982 7.5041185e-22)
(-0.0013805549 -0.0002036873 -1.980262e-20)
(-0.0013347056 -0.00020417555 -5.9293592e-20)
(-0.0012892422 -0.0002045999 -1.0594506e-20)
(-0.0012441643 -0.00020496542 -1.3874732e-20)
(-0.001199471 -0.00020527694 1.4619542e-20)
(-0.0011551607 -0.00020553905 4.5722896e-20)
(-0.0011112314 -0.00020575613 1.5658453e-20)
(-0.0010676804 -0.00020593232 -7.8307484e-21)
(-0.0010245048 -0.00020607155 -2.0051596e-20)
(-0.00098170131 -0.00020617753 -7.3373081e-21)
(-0.00093926611 -0.00020625379 -3.9745035e-20)
(-0.00089719514 -0.00020630365 9.4925289e-21)
(-0.00085548397 -0.00020633023 -1.5008452e-20)
(-0.00081412791 -0.00020633648 -1.7713936e-20)
(-0.00077312199 -0.00020632515 1.5322428e-20)
(-0.00073246101 -0.00020629882 1.2833286e-20)
(-0.00069213956 -0.0002062599 -4.0307242e-21)
(-0.00065215201 -0.00020621064 -4.3704927e-21)
(-0.00061249257 -0.0002061531 2.2241942e-20)
(-0.00057315528 -0.0002060892 -2.8431917e-21)
(-0.00053413402 -0.00020602069 1.798651e-20)
(-0.00049542254 -0.00020594917 2.1398644e-20)
(-0.00045701445 -0.00020587609 1.1809299e-20)
(-0.00041890321 -0.00020580277 1.3408285e-20)
(-0.00038108213 -0.00020573042 1.2089848e-21)
(-0.00034354431 -0.00020566018 -1.7606107e-20)
(-0.00030628264 -0.00020559326 -4.6380705e-21)
(-0.00026928977 -0.00020553106 1.8935869e-20)
(-0.00023255815 -0.00020547552 -1.0724026e-20)
(-0.00019608049 -0.00020542963 5.8034162e-21)
(-0.00015985143 -0.00020539811 2.2837593e-20)
(-0.00012386833 -0.00020538803 1.939098e-21)
(-8.8118854e-05 -0.00020540805 -1.5050882e-20)
(-5.2583549e-05 -0.00020546563 -1.4895374e-21)