/*--------------------------------*- C++ -*----------------------------------*\
| =========                 |                                                 |
| \\      /  F ield         | OpenFOAM: The Open Source CFD Toolbox           |
|  \\    /   O peration     | Version:  2306                                  |
|   \\  /    A nd           | Website:  www.openfoam.com                      |
|    \\/     M anipulation  |                                                 |
\*---------------------------------------------------------------------------*/
FoamFile
{
    version     2.0;
    format      ascii;
    arch        "LSB;label=32;scalar=64";
    class       surfaceScalarField;
    location    "0.49";
    object      phi;
}
// * * * * * * * * * * * * * * * * * * * * * * * * * * * * * * * * * * * * * //

dimensions      [0 3 -1 0 0 0 0];

oriented        oriented;

internalField   nonuniform List<scalar> 
12640
(
-1.8015999e-06
-1.8666237e-07
-1.7926547e-06
-1.4708977e-07
-1.782751e-06
-1.0774385e-07
-1.7719142e-06
-6.8659585e-08
-1.7601801e-06
-2.9865699e-08
-1.7475831e-06
8.6000693e-09
-1.7341487e-06
4.6716963e-08
-1.7199109e-06
8.446245e-08
-1.7049017e-06
1.2181051e-07
-1.6891531e-06
1.5873813e-07
-1.6726965e-06
1.9522574e-07
-1.6555643e-06
2.3125448e-07
-1.6377871e-06
2.6680727e-07
-1.6193967e-06
3.0186895e-07
-1.6004235e-06
3.3642578e-07
-1.5808978e-06
3.7046587e-07
-1.5608495e-06
4.039781e-07
-1.540308e-06
4.3695381e-07
-1.5193025e-06
4.6938449e-07
-1.4978599e-06
5.0126453e-07
-1.4760087e-06
5.3258777e-07
-1.4537754e-06
5.6335101e-07
-1.4311863e-06
5.935521e-07
-1.4082664e-06
6.2318791e-07
-1.3850406e-06
6.5225905e-07
-1.3615329e-06
6.8076625e-07
-1.3377663e-06
7.0871067e-07
-1.3137623e-06
7.3609448e-07
-1.2895424e-06
7.6292189e-07
-1.2651279e-06
7.8919689e-07
-1.240538e-06
8.149244e-07
-1.2157904e-06
8.401103e-07
-1.1909045e-06
8.6476072e-07
-1.1658956e-06
8.8888336e-07
-1.1407809e-06
9.1248482e-07
-1.1155755e-06
9.3557418e-07
-1.0902925e-06
9.5816041e-07
-1.0649469e-06
9.8025258e-07
-1.0395497e-06
1.0018597e-06
-1.014113e-06
1.022992e-06
-9.8864819e-07
1.04366e-06
-9.6316356e-07
1.0638742e-06
-9.3766954e-07
1.0836454e-06
-9.121731e-07
1.1029842e-06
-8.8668224e-07
1.1219022e-06
-8.612026e-07
1.1404105e-06
-8.3574031e-07
1.1585209e-06
-8.1029998e-07
1.1762441e-06
-7.8488598e-07
1.1935929e-06
-7.5950093e-07
1.210577e-06
-7.341474e-07
1.2272082e-06
-7.0882717e-07
1.2434991e-06
-6.8354107e-07
1.2594599e-06
-6.5828965e-07
1.275101e-06
-6.3307187e-07
1.290435e-06
-6.078865e-07
1.3054715e-06
-5.8273277e-07
1.3202207e-06
-5.576072e-07
1.3346935e-06
-5.3250677e-07
1.3489e-06
-5.0742781e-07
1.3628493e-06
-4.8236604e-07
1.3765516e-06
-4.5731633e-07
1.3900146e-06
-4.3227367e-07
1.4032477e-06
-4.0723164e-07
1.4162591e-06
-3.8218391e-07
1.4290563e-06
-3.5712329e-07
1.4416476e-06
-3.3204272e-07
1.4540387e-06
-3.0693368e-07
1.4662369e-06
-2.8178771e-07
1.4782475e-06
-2.5659634e-07
1.490077e-06
-2.3135003e-07
1.5017296e-06
-2.0603964e-07
1.513209e-06
-1.8065506e-07
1.524519e-06
-1.5518531e-07
1.5356621e-06
-1.2962102e-07
1.5466387e-06
-1.0395056e-07
1.5574476e-06
-7.8163896e-08
1.5680837e-06
-5.2249633e-08
1.5785432e-06
-2.6198867e-08
1.5888282e-06
1.5989699e-06
-1.7599486e-06
-1.9389932e-07
-1.7517403e-06
-1.5529802e-07
-1.7425882e-06
-1.16896e-07
-1.7325225e-06
-7.8725444e-08
-1.7215705e-06
-4.0817314e-08
-1.7097737e-06
-3.1969036e-09
-1.6971456e-06
3.4089012e-08
-1.6837248e-06
7.1041787e-08
-1.6695407e-06
1.0762635e-07
-1.6546236e-06
1.4382116e-07
-1.6390042e-06
1.7960611e-07
-1.6227122e-06
2.1496257e-07
-1.6057776e-06
2.4987287e-07
-1.5882305e-06
2.8432179e-07
-1.5701001e-06
3.1829566e-07
-1.5514161e-06
3.5178148e-07
-1.5322065e-06
3.8476856e-07
-1.5124996e-06
4.1724679e-07
-1.4923238e-06
4.4920872e-07
-1.471705e-06
4.8064592e-07
-1.450671e-06
5.1155358e-07
-1.4292465e-06
5.4192677e-07
-1.4074574e-06
5.7176313e-07
-1.3853285e-06
6.0105874e-07
-1.362883e-06
6.2981383e-07
-1.3401449e-06
6.5802782e-07
-1.3171356e-06
6.8570137e-07
-1.2938775e-06
7.1283633e-07
-1.2703907e-06
7.3943476e-07
-1.2466953e-06
7.6550168e-07
-1.2228107e-06
7.910396e-07
-1.1987549e-06
8.1605462e-07
-1.1745452e-06
8.4055126e-07
-1.1501986e-06
8.6453631e-07
-1.1257301e-06
8.8801654e-07
-1.1011557e-06
9.1099967e-07
-1.0764888e-06
9.3349351e-07
-1.0517426e-06
9.5550621e-07
-1.0269296e-06
9.7704625e-07
-1.0020608e-06
9.9812339e-07
-9.7714699e-07
1.0187463e-06
-9.5219816e-07
1.0389256e-06
-9.2722358e-07
1.0586708e-06
-9.0223054e-07
1.0779915e-06
-8.7722704e-07
1.0968987e-06
-8.5221925e-07
1.1154025e-06
-8.2721263e-07
1.1335144e-06
-8.022135e-07
1.1512447e-06
-7.7722415e-07
1.1686036e-06
-7.5224889e-07
1.1856013e-06
-7.2729077e-07
1.2022502e-06
-7.0235106e-07
1.2185594e-06
-6.7743127e-07
1.2345397e-06
-6.5253227e-07
1.2502022e-06
-6.2765303e-07
1.2655557e-06
-6.0279353e-07
1.2806121e-06
-5.7795187e-07
1.2953792e-06
-5.5312631e-07
1.309868e-06
-5.2831416e-07
1.3240879e-06
-5.0351188e-07
1.3380473e-06
-4.7871564e-07
1.3517547e-06
-4.539205e-07
1.3652196e-06
-4.2912233e-07
1.3784498e-06
-4.0431543e-07
1.3914521e-06
-3.7949379e-07
1.4042346e-06
-3.5465038e-07
1.4168042e-06
-3.2977868e-07
1.4291671e-06
-3.0487169e-07
1.4413297e-06
-2.7992057e-07
1.4532967e-06
-2.5491798e-07
1.4650741e-06
-2.2985472e-07
1.4766661e-06
-2.0472178e-07
1.4880763e-06
-1.7951065e-07
1.4993073e-06
-1.5421081e-07
1.5103622e-06
-1.2881248e-07
1.5212408e-06
-1.0330622e-07
1.531941e-06
-7.7681605e-08
1.5424594e-06
-5.1929011e-08
1.5527903e-06
-2.6038095e-08
1.562938e-06
1.5729317e-06
-1.719174e-06
-2.004589e-07
-1.7116624e-06
-1.6280961e-07
-1.7032256e-06
-1.2533293e-07
-1.6938907e-06
-8.8060296e-08
-1.6836875e-06
-5.1020655e-08
-1.6726416e-06
-1.4242863e-08
-1.6607857e-06
2.2233475e-08
-1.6481452e-06
5.8401129e-08
-1.6347495e-06
9.4230505e-08
-1.6206277e-06
1.2969934e-07
-1.6058088e-06
1.647873e-07
-1.5903217e-06
1.9947546e-07
-1.5741953e-06
2.3374629e-07
-1.5574576e-06
2.6758443e-07
-1.5401375e-06
3.009754e-07
-1.5222624e-06
3.3390634e-07
-1.5038599e-06
3.6636604e-07
-1.4849573e-06
3.983443e-07
-1.465581e-06
4.2983249e-07
-1.4457577e-06
4.6082234e-07
-1.4255124e-06
4.9130836e-07
-1.4048703e-06
5.2128468e-07
-1.3838556e-06
5.5074826e-07
-1.3624924e-06
5.7969577e-07
-1.3408037e-06
6.0812518e-07
-1.3188118e-06
6.3603582e-07
-1.2965383e-06
6.6342786e-07
-1.2740044e-06
6.9030245e-07
-1.2512303e-06
7.1666087e-07
-1.2282357e-06
7.4250673e-07
-1.2050384e-06
7.6784277e-07
-1.1816571e-06
7.9267273e-07
-1.1581082e-06
8.1700241e-07
-1.1344084e-06
8.4083629e-07
-1.1105728e-06
8.6418098e-07
-1.0866163e-06
8.8704351e-07
-1.0625529e-06
9.0943001e-07
-1.0383949e-06
9.3134841e-07
-1.0141554e-06
9.5280664e-07
-9.89845e-07
9.7381293e-07
-9.6547492e-07
9.9437647e-07
-9.4105398e-07
1.0145046e-06
-9.1659188e-07
1.0342086e-06
-8.9209691e-07
1.0534963e-06
-8.6757536e-07
1.0723774e-06
-8.4303541e-07
1.0908624e-06
-8.1848185e-07
1.108961e-06
-7.9391988e-07
1.1266829e-06
-7.6935416e-07
1.1440377e-06
-7.4478819e-07
1.1610354e-06
-7.2022483e-07
1.1776868e-06
-6.9566601e-07
1.1940009e-06
-6.7111357e-07
1.2099876e-06
-6.4656822e-07
1.2256565e-06
-6.220305e-07
1.2410181e-06
-5.9749923e-07
1.2560806e-06
-5.7297391e-07
1.2708538e-06
-5.4845238e-07
1.2853469e-06
-5.2393307e-07
1.2995682e-06
-4.9941241e-07
1.3135264e-06
-4.7488729e-07
1.3272297e-06
-4.5035379e-07
1.3406859e-06
-4.2580662e-07
1.3539025e-06
-4.0124152e-07
1.366887e-06
-3.7665311e-07
1.3796462e-06
-3.5203507e-07
1.3921858e-06
-3.2738132e-07
1.4045131e-06
-3.0268419e-07
1.416633e-06
-2.7793765e-07
1.4285497e-06
-2.5313268e-07
1.4402692e-06
-2.282619e-07
1.4517951e-06
-2.0331687e-07
1.4631311e-06
-1.7828888e-07
1.4742797e-06
-1.5316951e-07
1.4852427e-06
-1.2794881e-07
1.49602e-06
-1.026171e-07
1.5066095e-06
-7.7165987e-08
1.517008e-06
-5.158504e-08
1.5272097e-06
-2.5866041e-08
1.5372189e-06
1.5470654e-06
-1.679265e-06
-2.063788e-07
-1.6724129e-06
-1.6966199e-07
-1.6646533e-06
-1.3309237e-07
-1.6560128e-06
-9.6700681e-08
-1.6465166e-06
-6.0516761e-08
-1.6361926e-06
-2.4567035e-08
-1.62507e-06
1.111102e-08
-1.6131731e-06
4.6504213e-08
-1.6005299e-06
8.1587286e-08
-1.587168e-06
1.1633762e-07
-1.5731151e-06
1.5073472e-07
-1.5583993e-06
1.8475936e-07
-1.5430472e-06
2.1839432e-07
-1.5270867e-06
2.516237e-07
-1.5105443e-06
2.844331e-07
-1.493447e-06
3.1680893e-07
-1.4758213e-06
3.4874025e-07
-1.4576932e-06
3.8021604e-07
-1.4390879e-06
4.1122725e-07
-1.4200315e-06
4.417658e-07
-1.400548e-06
4.7182451e-07
-1.3806618e-06
5.0139866e-07
-1.3603962e-06
5.3048283e-07
-1.3397741e-06
5.5907374e-07
-1.3188187e-06
5.871696e-07
-1.2975506e-06
6.1476802e-07
-1.2759918e-06
6.4186912e-07
-1.254162e-06
6.6847233e-07
-1.2320808e-06
6.9457971e-07
-1.2097677e-06
7.2019342e-07
-1.1872404e-06
7.4531553e-07
-1.1645167e-06
7.69949e-07
-1.1416129e-06
7.9409864e-07
-1.1185449e-06
8.1776859e-07
-1.0953283e-06
8.4096429e-07
-1.0719769e-06
8.6369191e-07
-1.0485046e-06
8.8595777e-07
-1.0249243e-06
9.0776823e-07
-1.001248e-06
9.2913041e-07
-9.7748687e-07
9.5005205e-07
-9.5365132e-07
9.7054085e-07
-9.2975055e-07
9.9060428e-07
-9.057941e-07
1.0102521e-06
-8.8179089e-07
1.0294926e-06
-8.5774691e-07
1.0483338e-06
-8.3367004e-07
1.0667855e-06
-8.0956541e-07
1.0848562e-06
-7.8543873e-07
1.1025559e-06
-7.6129408e-07
1.1198932e-06
-7.3713589e-07
1.1368769e-06
-7.1296609e-07
1.1535172e-06
-6.887883e-07
1.1698231e-06
-6.646037e-07
1.1858032e-06
-6.4041411e-07
1.2014666e-06
-6.1621878e-07
1.216823e-06
-5.9201866e-07
1.2318803e-06
-5.6781266e-07
1.246648e-06
-5.435994e-07
1.2611334e-06
-5.1937648e-07
1.2753458e-06
-4.9514232e-07
1.2892925e-06
-4.708936e-07
1.3029811e-06
-4.4662627e-07
1.3164188e-06
-4.2233733e-07
1.3296135e-06
-3.9802102e-07
1.342571e-06
-3.7367301e-07
1.3552981e-06
-3.4928703e-07
1.3678003e-06
-3.2485872e-07
1.3800844e-06
-3.0038016e-07
1.3921541e-06
-2.7584559e-07
1.4040153e-06
-2.512474e-07
1.4156712e-06
-2.2657817e-07
1.4271261e-06
-2.018303e-07
1.4383834e-06
-1.7699597e-07
1.4494451e-06
-1.5206601e-07
1.4603127e-06
-1.2703217e-07
1.4709862e-06
-1.018861e-07
1.4814632e-06
-7.6618061e-08
1.4917402e-06
-5.1220086e-08
1.5018116e-06
-2.5683468e-08
1.5116824e-06
1.5213819e-06
-1.6402105e-06
-2.1169425e-07
-1.6339815e-06
-1.7589056e-07
-1.6268638e-06
-1.4021035e-07
-1.6188808e-06
-1.046836e-07
-1.6100581e-06
-6.9339528e-08
-1.6004193e-06
-3.420572e-08
-1.5899962e-06
6.8788398e-10
-1.5788078e-06
3.5315845e-08
-1.5668829e-06
6.9662143e-08
-1.5542473e-06
1.0370202e-07
-1.5409272e-06
1.3741466e-07
-1.5269494e-06
1.7078161e-07
-1.5123396e-06
2.0378463e-07
-1.497124e-06
2.3640821e-07
-1.4813288e-06
2.6863757e-07
-1.4649792e-06
3.0045949e-07
-1.4481006e-06
3.3186164e-07
-1.4307183e-06
3.628336e-07
-1.4128565e-06
3.9336542e-07
-1.3945394e-06
4.2344886e-07
-1.3757915e-06
4.5307688e-07
-1.3566356e-06
4.8224265e-07
-1.3370942e-06
5.1094151e-07
-1.3171902e-06
5.3916954e-07
-1.2969447e-06
5.6692379e-07
-1.2763788e-06
5.9420231e-07
-1.2555129e-06
6.2100322e-07
-1.2343668e-06
6.4732663e-07
-1.2129598e-06
6.7317268e-07
-1.1913099e-06
6.9854383e-07
-1.1694348e-06
7.234403e-07
-1.147352e-06
7.4786609e-07
-1.1250775e-06
7.7182431e-07
-1.1026271e-06
7.9531782e-07
-1.0800151e-06
8.183528e-07
-1.0572561e-06
8.4093289e-07
-1.034363e-06
8.6306468e-07
-1.0113493e-06
8.8475438e-07
-9.8822562e-07
9.0600694e-07
-9.6500373e-07
9.2682997e-07
-9.4169429e-07
9.4723107e-07
-9.1830659e-07
9.6721665e-07
-8.9484963e-07
9.8679514e-07
-8.7133149e-07
1.0059742e-06
-8.4776e-07
1.0247622e-06
-8.2414099e-07
1.0431668e-06
-8.0048146e-07
1.0611969e-06
-7.7678617e-07
1.0788606e-06
-7.5306026e-07
1.0961671e-06
-7.2930767e-07
1.1131243e-06
-7.0553126e-07
1.1297407e-06
-6.817339e-07
1.1460256e-06
-6.5791773e-07
1.1619873e-06
-6.3408386e-07
1.1776329e-06
-6.1023335e-07
1.1929722e-06
-5.8636603e-07
1.2080128e-06
-5.6248165e-07
1.2227634e-06
-5.3857933e-07
1.2372314e-06
-5.1465758e-07
1.2514236e-06
-4.9071359e-07
1.2653485e-06
-4.6674615e-07
1.2790134e-06
-4.4275097e-07
1.2924236e-06
-4.1872441e-07
1.3055869e-06
-3.9466255e-07
1.3185094e-06
-3.7056153e-07
1.3311966e-06
-3.4641541e-07
1.3436544e-06
-3.2221911e-07
1.3558878e-06
-2.9796688e-07
1.3679023e-06
-2.7365261e-07
1.3797006e-06
-2.4926928e-07
1.3912882e-06
-2.2481035e-07
1.402667e-06
-2.0026833e-07
1.4138414e-06
-1.7563595e-07
1.4248129e-06
-1.5090492e-07
1.4355815e-06
-1.2606735e-07
1.4461487e-06
-1.0111565e-07
1.4565117e-06
-7.6040949e-08
1.466665e-06
-5.0835538e-08
1.4766059e-06
-2.5491089e-08
1.4863384e-06
1.495891e-06
-1.6019978e-06
-2.1643937e-07
-1.5963591e-06
-1.8152961e-07
-1.5898485e-06
-1.4672089e-07
-1.5824893e-06
-1.120427e-07
-1.5743049e-06
-7.7524012e-08
-1.5653189e-06
-4.3191881e-08
-1.5555617e-06
-9.0693066e-09
-1.5450484e-06
2.4802492e-08
-1.5338084e-06
5.8422351e-08
-1.5218664e-06
9.1760035e-08
-1.5092471e-06
1.2479577e-07
-1.495976e-06
1.5751018e-07
-1.4820776e-06
1.8988625e-07
-1.4675767e-06
2.2190734e-07
-1.4524985e-06
2.5355935e-07
-1.4368672e-06
2.8482817e-07
-1.4207071e-06
3.1570168e-07
-1.4040424e-06
3.4616877e-07
-1.3868969e-06
3.7621989e-07
-1.3692935e-06
4.0584559e-07
-1.3512555e-06
4.3503854e-07
-1.3328049e-06
4.6379208e-07
-1.3139644e-06
4.9210099e-07
-1.2947543e-06
5.1995965e-07
-1.2751966e-06
5.4736576e-07
-1.2553111e-06
5.7431668e-07
-1.2351177e-06
6.0081008e-07
-1.2146357e-06
6.2684433e-07
-1.1938835e-06
6.5242064e-07
-1.1728786e-06
6.7753896e-07
-1.1516393e-06
7.0220098e-07
-1.1301815e-06
7.2640817e-07
-1.1085203e-06
7.5016326e-07
-1.0866725e-06
7.7347015e-07
-1.0646516e-06
7.9633197e-07
-1.042472e-06
8.187532e-07
-1.0201464e-06
8.4073931e-07
-9.9768725e-07
8.6229499e-07
-9.7510642e-07
8.8342626e-07
-9.5241481e-07
9.0413842e-07
-9.2962253e-07
9.2443869e-07
-9.0673945e-07
9.4433344e-07
-8.8377421e-07
9.6382987e-07
-8.6073559e-07
9.8293573e-07
-8.376301e-07
1.0016567e-06
-8.1446464e-07
1.0200013e-06
-7.9124589e-07
1.037978e-06
-7.6797926e-07
1.055594e-06
-7.446693e-07
1.0728569e-06
-7.2132019e-07
1.0897752e-06
-6.9793539e-07
1.1063561e-06
-6.7451796e-07
1.1226082e-06
-6.5106966e-07
1.1385384e-06
-6.27592e-07
1.1541557e-06
-6.0408699e-07
1.1694669e-06
-5.8055456e-07
1.1844803e-06
-5.5699433e-07
1.1992034e-06
-5.3340578e-07
1.2136425e-06
-5.0978776e-07
1.2278054e-06
-4.8613856e-07
1.2416995e-06
-4.6245578e-07
1.2553305e-06
-4.387369e-07
1.2687047e-06
-4.1497859e-07
1.2818286e-06
-3.9117738e-07
1.294708e-06
-3.6732846e-07
1.3073481e-06
-3.4342819e-07
1.3197542e-06
-3.1947117e-07
1.3319308e-06
-2.9545179e-07
1.3438829e-06
-2.7136487e-07
1.3556142e-06
-2.4720397e-07
1.367127e-06
-2.2296304e-07
1.3784263e-06
-1.9863476e-07
1.3895126e-06
-1.7421229e-07
1.4003903e-06
-1.496891e-07
1.411058e-06
-1.2505686e-07
1.4215165e-06
-1.0030819e-07
1.4317627e-06
-7.5435588e-08
1.4417923e-06
-5.0431603e-08
1.4516019e-06
-2.5288583e-08
1.4611958e-06
1.4706018e-06
-1.564616e-06
-2.2064669e-07
-1.559534e-06
-1.8661173e-07
-1.5535982e-06
-1.5265653e-07
-1.5468306e-06
-1.1881023e-07
-1.5392533e-06
-8.5101385e-08
-1.5308891e-06
-5.1556065e-08
-1.5217593e-06
-1.8199189e-08
-1.5118919e-06
1.4935154e-08
-1.5013061e-06
4.7836651e-08
-1.4900267e-06
8.0480495e-08
-1.4780775e-06
1.1284636e-07
-1.4654822e-06
1.44915e-07
-1.4522648e-06
1.7666895e-07
-1.4384493e-06
2.0809179e-07
-1.4240593e-06
2.3916932e-07
-1.409118e-06
2.6988709e-07
-1.3936492e-06
3.0023286e-07
-1.3776754e-06
3.3019521e-07
-1.3612193e-06
3.5976402e-07
-1.3443041e-06
3.8893027e-07
-1.3269509e-06
4.1768522e-07
-1.3091819e-06
4.4602299e-07
-1.2910176e-06
4.7393674e-07
-1.2724795e-06
5.0142169e-07
-1.2535878e-06
5.2847415e-07
-1.2343619e-06
5.5509083e-07
-1.2148209e-06
5.8126887e-07
-1.1949835e-06
6.070072e-07
-1.1748674e-06
6.3230463e-07
-1.1544907e-06
6.5716199e-07
-1.1338693e-06
6.815797e-07
-1.1130204e-06
7.0555899e-07
-1.0919581e-06
7.2910114e-07
-1.0706983e-06
7.5221011e-07
-1.0492552e-06
7.7488889e-07
-1.0276418e-06
7.9713991e-07
-1.0058717e-06
8.1896899e-07
-9.8395635e-07
8.4037973e-07
-9.6190724e-07
8.6137743e-07
-9.3973629e-07
8.8196738e-07
-9.1745273e-07
9.0215521e-07
-8.9506622e-07
9.2194714e-07
-8.7258594e-07
9.4134964e-07
-8.5001967e-07
9.6036918e-07
-8.2737409e-07
9.7901148e-07
-8.0465779e-07
9.9728471e-07
-7.8187575e-07
1.0151962e-06
-7.5903388e-07
1.0327522e-06
-7.3613673e-07
1.04996e-06
-7.1318866e-07
1.066827e-06
-6.9019348e-07
1.0833612e-06
-6.6715457e-07
1.0995692e-06
-6.4407387e-07
1.1154578e-06
-6.2095328e-07
1.1310349e-06
-5.9779455e-07
1.1463084e-06
-5.7459752e-07
1.1612834e-06
-5.5136295e-07
1.1759689e-06
-5.2809055e-07
1.1903702e-06
-5.0477925e-07
1.2044941e-06
-4.8142733e-07
1.2183477e-06
-4.5803336e-07
1.2319365e-06
-4.3459489e-07
1.2452663e-06
-4.1110919e-07
1.2583427e-06
-3.8757315e-07
1.2711719e-06
-3.6398228e-07
1.2837576e-06
-3.4033377e-07
1.2961048e-06
-3.1662149e-07
1.3082188e-06
-2.928414e-07
1.3201032e-06
-2.6898862e-07
1.3317611e-06
-2.450577e-07
1.3431957e-06
-2.2104166e-07
1.3544104e-06
-1.9693508e-07
1.3654064e-06
-1.727305e-07
1.3761861e-06
-1.484225e-07
1.3867502e-06
-1.2400299e-07
1.3970976e-06
-9.9466401e-08
1.4072261e-06
-7.4804231e-08
1.4171304e-06
-5.0010818e-08
1.4268083e-06
-2.5078302e-08
1.4362632e-06
1.445524e-06
-1.5280515e-06
-2.2434689e-07
-1.5234957e-06
-1.9116776e-07
-1.518104e-06
-1.5804841e-07
-1.5118965e-06
-1.2501785e-07
-1.5048942e-06
-9.2104018e-08
-1.4971192e-06
-5.9330994e-08
-1.4885916e-06
-2.6726624e-08
-1.4793373e-06
5.6808329e-09
-1.4693751e-06
3.7874155e-08
-1.4587278e-06
6.9833169e-08
-1.4474184e-06
1.0153702e-07
-1.43547e-06
1.329666e-07
-1.4229052e-06
1.6410397e-07
-1.4097466e-06
1.9493335e-07
-1.3960169e-06
2.2543954e-07
-1.3817386e-06
2.5560863e-07
-1.3669337e-06
2.8542801e-07
-1.3516246e-06
3.1488593e-07
-1.335833e-06
3.439725e-07
-1.3195804e-06
3.7267753e-07
-1.3028884e-06
4.0099336e-07
-1.2857773e-06
4.2891169e-07
-1.2682674e-06
4.5642683e-07
-1.2503794e-06
4.8353361e-07
-1.2321324e-06
5.1022723e-07
-1.2135452e-06
5.3650366e-07
-1.194637e-06
5.6236061e-07
-1.1754253e-06
5.8779506e-07
-1.1559275e-06
6.1280695e-07
-1.1361603e-06
6.3739508e-07
-1.1161408e-06
6.6156017e-07
-1.0958843e-06
6.8530243e-07
-1.0754061e-06
7.0862287e-07
-1.0547203e-06
7.3152439e-07
-1.033841e-06
7.5400967e-07
-1.0127819e-06
7.7608078e-07
-9.9155496e-07
7.9774202e-07
-9.7017218e-07
8.1899697e-07
-9.4864565e-07
8.3985067e-07
-9.2698499e-07
8.6030678e-07
-9.0520134e-07
8.8037136e-07
-8.8330319e-07
9.0004905e-07
-8.612998e-07
9.1934624e-07
-8.3919918e-07
9.3826837e-07
-8.1700889e-07
9.5682133e-07
-7.9473549e-07
9.750112e-07
-7.7238516e-07
9.9284592e-07
-7.4996386e-07
1.0103307e-06
-7.274765e-07
1.0274725e-06
-7.0492741e-07
1.044278e-06
-6.8232e-07
1.0607538e-06
-6.5965806e-07
1.0769071e-06
-6.3694386e-07
1.0927439e-06
-6.1417983e-07
1.108271e-06
-5.9136721e-07
1.1234954e-06
-5.6850735e-07
1.1384234e-06
-5.4559966e-07
1.1530616e-06
-5.2264514e-07
1.1674153e-06
-4.9964286e-07
1.1814918e-06
-4.7659163e-07
1.1952964e-06
-4.5348972e-07
1.2088348e-06
-4.3033551e-07
1.2221122e-06
-4.0712645e-07
1.235134e-06
-3.8385953e-07
1.247905e-06
-3.6053175e-07
1.2604298e-06
-3.3713936e-07
1.2727129e-06
-3.1367797e-07
1.284758e-06
-2.9014387e-07
1.2965688e-06
-2.665317e-07
1.3081487e-06
-2.4283538e-07
1.3195001e-06
-2.1905117e-07
1.3306255e-06
-1.9517316e-07
1.3415281e-06
-1.7119379e-07
1.3522071e-06
-1.4710882e-07
1.3626651e-06
-1.2291034e-07
1.3728997e-06
-9.8592987e-08
1.3829083e-06
-7.4149901e-08
1.3926874e-06
-4.9574025e-08
1.4022321e-06
-2.485951e-08
1.4115487e-06
1.4206642e-06
-1.4922924e-06
-2.2756928e-07
-1.4882331e-06
-1.9522719e-07
-1.4833554e-06
-1.6292593e-07
-1.4776785e-06
-1.3069465e-07
-1.4712228e-06
-9.8559529e-08
-1.4640059e-06
-6.6547882e-08
-1.4560498e-06
-3.4682748e-08
-1.4473817e-06
-2.9872268e-09
-1.4380126e-06
2.850507e-08
-1.4279685e-06
5.9789475e-08
-1.417271e-06
9.0839411e-08
-1.4059414e-06
1.216368e-07
-1.394001e-06
1.5216377e-07
-1.3814721e-06
1.8240428e-07
-1.3683758e-06
2.1234323e-07
-1.3547339e-06
2.4196667e-07
-1.3405674e-06
2.7126156e-07
-1.3258979e-06
3.0021635e-07
-1.3107457e-06
3.2882035e-07
-1.295132e-06
3.5706399e-07
-1.2790772e-06
3.8493837e-07
-1.2626012e-06
4.124358e-07
-1.2457238e-06
4.3954943e-07
-1.2284641e-06
4.6627415e-07
-1.2108411e-06
4.9260411e-07
-1.1928729e-06
5.1853562e-07
-1.1745775e-06
5.4406516e-07
-1.1559726e-06
5.691904e-07
-1.1370752e-06
5.9390941e-07
-1.1179016e-06
6.1822143e-07
-1.0984674e-06
6.4212595e-07
-1.0787879e-06
6.6562314e-07
-1.0588786e-06
6.8871349e-07
-1.0387528e-06
7.113986e-07
-1.0184245e-06
7.3368144e-07
-9.9790641e-07
7.555629e-07
-9.7721132e-07
7.7704683e-07
-9.5635076e-07
7.9813628e-07
-9.353352e-07
8.1883521e-07
-9.1417624e-07
8.3914802e-07
-8.9288287e-07
8.5907826e-07
-8.7146537e-07
8.7863151e-07
-8.4993172e-07
8.9781251e-07
-8.2829024e-07
9.166268e-07
-8.0654834e-07
9.3507933e-07
-7.8471267e-07
9.5317577e-07
-7.6278946e-07
9.7092272e-07
-7.4078472e-07
9.8832594e-07
-7.187037e-07
1.0053913e-06
-6.9654989e-07
1.0221246e-06
-6.7432829e-07
1.038532e-06
-6.5204156e-07
1.0546203e-06
-6.2969309e-07
1.0703952e-06
-6.0728491e-07
1.0858628e-06
-5.8481868e-07
1.1010292e-06
-5.622956e-07
1.1159004e-06
-5.3971633e-07
1.1304821e-06
-5.1708097e-07
1.14478e-06
-4.9438956e-07
1.1588005e-06
-4.7164086e-07
1.1725476e-06
-4.488341e-07
1.1860278e-06
-4.2596736e-07
1.1992455e-06
-4.0303873e-07
1.2122053e-06
-3.8004542e-07
1.2249117e-06
-3.5698459e-07
1.237369e-06
-3.3385365e-07
1.2495815e-06
-3.1064808e-07
1.261552e-06
-2.8736431e-07
1.2732851e-06
-2.6399743e-07
1.2847821e-06
-2.4054379e-07
1.2960462e-06
-2.1699725e-07
1.3070795e-06
-1.9335351e-07
1.3178843e-06
-1.6960705e-07
1.3284605e-06
-1.4575138e-07
1.3388092e-06
-1.2178089e-07
1.3489292e-06
-9.7689765e-08
1.3588172e-06
-7.3472092e-08
1.3684698e-06
-4.9121838e-08
1.377882e-06
-2.4632975e-08
1.3870601e-06
1.3960312e-06
-1.4573259e-06
-2.3034226e-07
-1.4537348e-06
-1.9881796e-07
-1.4493429e-06
-1.6731774e-07
-1.4441683e-06
-1.3586934e-07
-1.4382288e-06
-1.0449906e-07
-1.4315447e-06
-7.3232079e-08
-1.4241341e-06
-4.2093177e-08
-1.4160174e-06
-1.1103792e-08
-1.4072162e-06
1.9703634e-08
-1.3977484e-06
5.0321534e-08
-1.3876349e-06
8.0726262e-08
-1.3768967e-06
1.1089853e-07
-1.3655545e-06
1.4082128e-07
-1.3536285e-06
1.7047842e-07
-1.3411398e-06
1.9985461e-07
-1.3281086e-06
2.2893554e-07
-1.3145556e-06
2.5770857e-07
-1.3005007e-06
2.8616157e-07
-1.2859644e-06
3.1428398e-07
-1.2709665e-06
3.4206603e-07
-1.2555263e-06
3.6949825e-07
-1.2396628e-06
3.965724e-07
-1.2233963e-06
4.2328274e-07
-1.2067438e-06
4.4962148e-07
-1.1897247e-06
4.7558487e-07
-1.1723559e-06
5.0116683e-07
-1.1546552e-06
5.2636439e-07
-1.1366396e-06
5.5117449e-07
-1.1183248e-06
5.7559475e-07
-1.0997276e-06
5.996242e-07
-1.0808629e-06
6.2326124e-07
-1.0617455e-06
6.4650579e-07
-1.0423899e-06
6.6935812e-07
-1.0228106e-06
6.9181919e-07
-1.0030202e-06
7.1389085e-07
-9.8303089e-07
7.3557382e-07
-9.628556e-07
7.5687151e-07
-9.4250519e-07
7.7778647e-07
-9.2199135e-07
7.9832146e-07
-9.0132368e-07
8.1848011e-07
-8.8051256e-07
8.3826701e-07
-8.5956721e-07
8.576862e-07
-8.3849578e-07
8.7674118e-07
-8.1730652e-07
8.9543761e-07
-7.9600649e-07
9.1377906e-07
-7.7460317e-07
9.3177265e-07
-7.5310262e-07
9.4942213e-07
-7.3151002e-07
9.6673332e-07
-7.0983111e-07
9.8371207e-07
-6.8806997e-07
1.0003636e-06
-6.6623126e-07
1.0166935e-06
-6.4431859e-07
1.0327074e-06
-6.2233381e-07
1.0484106e-06
-6.0028065e-07
1.0638096e-06
-5.7816009e-07
1.0789085e-06
-5.5597442e-07
1.0937145e-06
-5.3372351e-07
1.1082313e-06
-5.1140842e-07
1.1224653e-06
-4.8902919e-07
1.1364214e-06
-4.6658575e-07
1.1501038e-06
-4.440761e-07
1.1635183e-06
-4.2149981e-07
1.1766692e-06
-3.9885469e-07
1.1895602e-06
-3.7613896e-07
1.2021959e-06
-3.533494e-07
1.2145795e-06
-3.3048352e-07
1.2267159e-06
-3.0753851e-07
1.238607e-06
-2.8451006e-07
1.2502564e-06
-2.6139444e-07
1.2616667e-06
-2.3818757e-07
1.2728392e-06
-2.1488503e-07
1.283777e-06
-1.9148185e-07
1.2944807e-06
-1.6797295e-07
1.3049515e-06
-1.4435308e-07
1.3151891e-06
-1.2061724e-07
1.325193e-06
-9.6759342e-08
1.3349595e-06
-7.2773988e-08
1.3444839e-06
-4.8655617e-08
1.3537637e-06
-2.4399599e-08
1.3628038e-06
1.3716315e-06
-1.4231384e-06
-2.3269194e-07
-1.4199889e-06
-2.0196749e-07
-1.4160559e-06
-1.7125079e-07
-1.4113562e-06
-1.4056909e-07
-1.4059073e-06
-1.0994779e-07
-1.3997267e-06
-7.9412721e-08
-1.3928331e-06
-4.898687e-08
-1.3852453e-06
-1.8691612e-08
-1.3769833e-06
1.1441575e-08
-1.3680649e-06
4.1402772e-08
-1.3585092e-06
7.1170568e-08
-1.3483367e-06
1.0072604e-07
-1.3375665e-06
1.3005126e-07
-1.3262182e-06
1.5913031e-07
-1.3143118e-06
1.8794796e-07
-1.301867e-06
2.1649059e-07
-1.2889032e-06
2.4474458e-07
-1.2754395e-06
2.7269806e-07
-1.2614958e-06
3.003402e-07
-1.2470905e-06
3.2766087e-07
-1.2322431e-06
3.5465068e-07
-1.2169716e-06
3.8130092e-07
-1.2012941e-06
4.0760554e-07
-1.1852295e-06
4.3355685e-07
-1.1687941e-06
4.5914923e-07
-1.1520056e-06
4.8437832e-07
-1.1348808e-06
5.0923995e-07
-1.1174359e-06
5.3372993e-07
-1.0996875e-06
5.5784621e-07
-1.0816501e-06
5.8158678e-07
-1.0633393e-06
6.049504e-07
-1.0447693e-06
6.2793555e-07
-1.0259538e-06
6.5054284e-07
-1.0069068e-06
6.727721e-07
-9.8764062e-07
6.946244e-07
-9.6816823e-07
7.1610147e-07
-9.4850108e-07
7.3720409e-07
-9.2865071e-07
7.5793588e-07
-9.0862774e-07
7.7829839e-07
-8.8844244e-07
7.9829501e-07
-8.6810449e-07
8.1792908e-07
-8.476228e-07
8.3720436e-07
-8.2700588e-07
8.5612425e-07
-8.0626153e-07
8.7469273e-07
-7.8539751e-07
8.9291515e-07
-7.6442071e-07
9.1079585e-07
-7.433371e-07
9.2833854e-07
-7.2215261e-07
9.4554878e-07
-7.0087207e-07
9.6243169e-07
-6.7950066e-07
9.7899207e-07
-6.5804175e-07
9.9523466e-07
-6.3650005e-07
1.0111653e-06
-6.1487791e-07
1.0267886e-06
-5.93178e-07
1.0421099e-06
-5.7140342e-07
1.0571336e-06
-5.4955408e-07
1.0718653e-06
-5.2763245e-07
1.0863099e-06
-5.0563862e-07
1.1004714e-06
-4.8357277e-07
1.1143556e-06
-4.6143512e-07
1.1279665e-06
-4.3922522e-07
1.1413083e-06
-4.1694188e-07
1.1543852e-06
-3.9458273e-07
1.1672014e-06
-3.7214684e-07
1.1797602e-06
-3.4963241e-07
1.192065e-06
-3.2703612e-07
1.2041193e-06
-3.043552e-07
1.2159262e-06
-2.8158668e-07
1.2274878e-06
-2.5872728e-07
1.2388067e-06
-2.3577254e-07
1.2498846e-06
-2.1271885e-07
1.260723e-06
-1.8956146e-07
1.2713234e-06
-1.6629598e-07
1.2816863e-06
-1.4291823e-07
1.2918114e-06
-1.1942221e-07
1.301697e-06
-9.5803078e-08
1.3113404e-06
-7.2056493e-08
1.3207375e-06
-4.8177228e-08
1.3298845e-06
-2.4159671e-08
1.3387864e-06
1.3474718e-06
-1.3897173e-06
-2.3464391e-07
-1.3869837e-06
-2.0470094e-07
-1.3834839e-06
-1.7475062e-07
-1.3792333e-06
-1.4481967e-07
-1.3742486e-06
-1.1493261e-07
-1.3685462e-06
-8.5114888e-08
-1.3621441e-06
-5.5388954e-08
-1.3550582e-06
-2.5777515e-08
-1.347311e-06
3.6944383e-09
-1.3389158e-06
3.3007758e-08
-1.3298927e-06
6.2147553e-08
-1.3202603e-06
9.1093438e-08
-1.3100374e-06
1.1982813e-07
-1.2992426e-06
1.4833543e-07
-1.2878944e-06
1.7660007e-07
-1.276012e-06
2.0460836e-07
-1.2636138e-06
2.3234652e-07
-1.2507191e-06
2.5980289e-07
-1.2373454e-06
2.8696655e-07
-1.2235113e-06
3.1382671e-07
-1.2092346e-06
3.403741e-07
-1.1945339e-06
3.6659984e-07
-1.1794259e-06
3.9249765e-07
-1.1639283e-06
4.1805911e-07
-1.1480577e-06
4.4327883e-07
-1.1318313e-06
4.6815184e-07
-1.1152645e-06
4.9267305e-07
-1.098374e-06
5.1683919e-07
-1.0811747e-06
5.4064699e-07
-1.0636815e-06
5.6409388e-07
-1.0459085e-06
5.8717747e-07
-1.0278709e-06
6.0989768e-07
-1.0095814e-06
6.3225339e-07
-9.9105326e-07
6.5424399e-07
-9.7229934e-07
6.7587072e-07
-9.5333152e-07
6.9713374e-07
-9.3416091e-07
7.1803381e-07
-9.1479964e-07
7.3857441e-07
-8.9525778e-07
7.5875622e-07
-8.7554488e-07
7.7858248e-07
-8.5567088e-07
7.9805512e-07
-8.3564488e-07
8.1717799e-07
-8.1547477e-07
8.3595429e-07
-7.9516881e-07
8.5438668e-07
-7.7473414e-07
8.7248069e-07
-7.5417728e-07
8.902392e-07
-7.3350554e-07
9.0766686e-07
-7.1272456e-07
9.2476759e-07
-6.9183828e-07
9.4154573e-07
-6.7085265e-07
9.5800628e-07
-6.4977131e-07
9.7415335e-07
-6.2859793e-07
9.8999194e-07
-6.0733648e-07
1.005527e-06
-5.8598914e-07
1.0207625e-06
-5.6455801e-07
1.0357027e-06
-5.4304535e-07
1.0503529e-06
-5.214524e-07
1.0647168e-06
-4.997802e-07
1.0787991e-06
-4.7802907e-07
1.0926041e-06
-4.5619912e-07
1.1061365e-06
-4.3428996e-07
1.1193992e-06
-4.1230079e-07
1.1323966e-06
-3.9023074e-07
1.1451312e-06
-3.6807815e-07
1.1576075e-06
-3.4584132e-07
1.1698285e-06
-3.2351752e-07
1.181796e-06
-3.0110502e-07
1.1935136e-06
-2.7860058e-07
1.2049834e-06
-2.5600116e-07
1.2162075e-06
-2.3330279e-07
1.2271865e-06
-2.1050266e-07
1.2379232e-06
-1.8759621e-07
1.2484172e-06
-1.6458005e-07
1.2586697e-06
-1.4144856e-07
1.2686802e-06
-1.1819856e-07
1.2784467e-06
-9.4824208e-08
1.2879664e-06
-7.1322e-08
1.2972349e-06
-4.7686886e-08
1.3062491e-06
-2.3914178e-08
1.3150141e-06
1.3235574e-06
-1.3570491e-06
-2.3622223e-07
-1.354707e-06
-2.0704312e-07
-1.3516157e-06
-1.7784208e-07
-1.3477897e-06
-1.4864554e-07
-1.3432444e-06
-1.19478e-07
-1.3379959e-06
-9.0363415e-08
-1.3320592e-06
-6.1325772e-08
-1.3254504e-06
-3.2386118e-08
-1.3181952e-06
-3.5605374e-09
-1.3102981e-06
2.5110626e-08
-1.3017829e-06
5.3632322e-08
-1.2926665e-06
8.1977309e-08
-1.2829671e-06
1.1012853e-07
-1.2727018e-06
1.3807029e-07
-1.2618888e-06
1.6578707e-07
-1.2505463e-06
1.9326546e-07
-1.2386917e-06
2.2049196e-07
-1.226343e-06
2.4745412e-07
-1.2135175e-06
2.7414127e-07
-1.2002333e-06
3.0054248e-07
-1.1865073e-06
3.2664797e-07
-1.1723567e-06
3.5244954e-07
-1.1577986e-06
3.7793946e-07
-1.1428497e-06
4.0311013e-07
-1.1275257e-06
4.2795488e-07
-1.1118424e-06
4.5246884e-07
-1.0958166e-06
4.7664719e-07
-1.079463e-06
5.0048564e-07
-1.0627965e-06
5.239804e-07
-1.0458316e-06
5.4712871e-07
-1.0285825e-06
5.6992841e-07
-1.0110625e-06
5.9237779e-07
-9.9328482e-07
6.1447575e-07
-9.7526274e-07
6.3622203e-07
-9.5700773e-07
6.5761587e-07
-9.385322e-07
6.786581e-07
-9.1984756e-07
6.9934926e-07
-9.0096466e-07
7.1969149e-07
-8.8189345e-07
7.3968513e-07
-8.6264345e-07
7.5933251e-07
-8.4322493e-07
7.7863659e-07
-8.2364584e-07
7.9759907e-07
-8.0391511e-07
8.1622322e-07
-7.8404033e-07
8.3451208e-07
-7.6402858e-07
8.5246889e-07
-7.4388698e-07
8.7009785e-07
-7.2362162e-07
8.8740157e-07
-7.0323785e-07
9.0438399e-07
-6.8274233e-07
9.2104976e-07
-6.6213814e-07
9.3740252e-07
-6.4143084e-07
9.5344571e-07
-6.2062379e-07
9.6918505e-07
-5.9972052e-07