/*--------------------------------*- C++ -*----------------------------------*\
| =========                 |                                                 |
| \\      /  F ield         | OpenFOAM: The Open Source CFD Toolbox           |
|  \\    /   O peration     | Version:  2306                                  |
|   \\  /    A nd           | Website:  www.openfoam.com                      |
|    \\/     M anipulation  |                                                 |
\*---------------------------------------------------------------------------*/
FoamFile
{
    version     2.0;
    format      ascii;
    arch        "LSB;label=32;scalar=64";
    class       volVectorField;
    location    "0.49";
    object      U_0;
}
// * * * * * * * * * * * * * * * * * * * * * * * * * * * * * * * * * * * * * //

dimensions      [0 1 -1 0 0 0 0];

internalField   nonuniform List<vector> 
6400
(
(-0.00071718797 -7.2555332e-05 -1.9200723e-20)
(-0.00070506714 -5.5946268e-05 2.45699e-20)
(-0.00069286202 -3.9834124e-05 -3.0688818e-20)
(-0.00068058713 -2.4213833e-05 -2.1411647e-20)
(-0.0006682566 -9.0793326e-06 1.2812048e-20)
(-0.00065588532 5.5752528e-06 7.186149e-21)
(-0.00064348594 1.9755492e-05 2.1416928e-20)
(-0.00063107016 3.3469227e-05 8.9722375e-21)
(-0.00061865058 4.6723511e-05 2.2864653e-21)
(-0.00060623873 5.9525813e-05 2.0042528e-20)
(-0.00059384558 7.1883958e-05 1.6499563e-20)
(-0.00058148168 8.3806096e-05 1.0640972e-20)
(-0.00056915696 9.5300523e-05 -2.4171361e-20)
(-0.00055688085 0.00010637577 -2.5291799e-21)
(-0.0005446623 0.00011704053 2.1376066e-20)
(-0.00053250973 0.00012730377 1.8403004e-20)
(-0.00052043104 0.00013717457 1.1840711e-20)
(-0.00050843369 0.00014666201 -1.8454646e-20)
(-0.0004965247 0.00015577525 -6.8046812e-21)
(-0.00048471046 0.00016452375 1.5831488e-20)
(-0.00047299695 0.00017291668 1.4428235e-20)
(-0.00046138982 0.00018096354 1.0419809e-20)
(-0.00044989424 0.00018867385 -2.1814754e-20)
(-0.00043851489 0.00019605662 -8.2571976e-21)
(-0.0004272561 0.00020312153 1.5384098e-20)
(-0.00041612182 0.00020987783 8.8605204e-21)
(-0.00040511559 0.00021633493 6.2513394e-21)
(-0.00039424049 0.00022250186 -1.7066515e-20)
(-0.00038349922 0.00022838789 -7.6819291e-21)
(-0.00037289437 0.0002340021 2.237578e-20)
(-0.00036242806 0.00023935341 5.0180089e-21)
(-0.00035210193 0.0002444507 -7.3645043e-21)
(-0.00034191744 0.00024930272 -1.3074074e-20)
(-0.00033187575 0.00025391796 1.9352081e-21)
(-0.00032197775 0.00025830494 1.7546312e-20)
(-0.00031222401 0.00026247201 8.3078885e-21)
(-0.00030261479 0.00026642746 -3.7827194e-21)
(-0.00029315022 0.00027017929 -1.2669188e-20)
(-0.00028383012 0.00027373525 2.8528391e-21)
(-0.00027465401 0.00027710312 2.0397464e-20)
(-0.00026562132 0.00028029041 9.1477677e-22)
(-0.00025673119 0.00028330452 -8.5003667e-21)
(-0.00024798255 0.00028615255 -6.2857176e-21)
(-0.00023937416 0.00028884154 9.1359296e-22)
(-0.00023090463 0.00029137827 1.094959e-20)
(-0.00022257233 0.00029376938 3.7626135e-21)
(-0.00021437551 0.0002960214 -3.1794061e-21)
(-0.00020631234 0.00029814039 -8.2059798e-21)
(-0.0001983808 0.00030013271 4.458511e-22)
(-0.00019057868 0.00030200383 2.9451522e-21)
(-0.00018290366 0.00030375958 9.6744838e-23)
(-0.00017535339 0.00030540563 -1.7788719e-21)
(-0.00016792535 0.000306947 -9.164952e-21)
(-0.00016061693 0.00030838881 6.8897925e-22)
(-0.0001534254 0.00030973615 8.3744023e-21)
(-0.00014634793 0.00031099363 9.6197333e-22)
(-0.00013938175 0.00031216553 -2.0738867e-21)
(-0.00013252396 0.00031325644 -6.8580395e-21)
(-0.00012577142 0.00031427052 3.2901264e-21)
(-0.00011912114 0.00031521154 5.9441302e-21)
(-0.00011257004 0.00031608336 -5.5298388e-23)
(-0.00010611491 0.00031688954 -1.2765195e-21)
(-9.9752594e-05 0.00031763336 -6.8582714e-21)
(-9.3479866e-05 0.00031831811 -1.0156774e-21)
(-8.7293457e-05 0.00031894676 3.6211699e-21)
(-8.1190178e-05 0.0003195222 1.7008399e-21)
(-7.5166694e-05 0.0003200471 7.6136246e-22)
(-6.9219661e-05 0.00032052385 -4.6437127e-21)
(-6.3345749e-05 0.00032095479 -4.9330174e-22)
(-5.754167e-05 0.00032134213 5.3112485e-21)
(-5.1804115e-05 0.0003216878 3.9555793e-22)
(-4.6129807e-05 0.00032199336 2.9793996e-22)
(-4.0515459e-05 0.00032226049 -3.6690745e-21)
(-3.4957694e-05 0.00032249049 -1.4222042e-22)
(-2.9453298e-05 0.0003226842 3.3644834e-21)
(-2.3999175e-05 0.00032284197 -4.1802445e-22)
(-1.8592192e-05 0.00032296365 -1.0770182e-21)
(-1.3227802e-05 0.000323049 -2.9813597e-21)
(-7.8997402e-06 0.00032309916 2.4591804e-22)
(-2.6156496e-06 0.00032312135 3.7383837e-22)
(-0.00070050246 -7.5571882e-05 3.1471475e-20)
(-0.0006888716 -5.9310589e-05 6.8736375e-21)
(-0.00067715158 -4.3526517e-05 -3.7520322e-20)
(-0.0006653566 -2.8214648e-05 -1.5496375e-20)
(-0.00065350033 -1.3370489e-05 -4.2433037e-21)
(-0.00064159784 1.0115899e-06 -9.3374409e-21)
(-0.00062966075 1.4938475e-05 -1.2742149e-20)
(-0.00061769984 2.8415636e-05 -1.4681612e-20)
(-0.00060572815 4.1449807e-05 4.7710083e-21)
(-0.00059375682 5.4047969e-05 3.0135767e-21)
(-0.00058179658 6.6217511e-05 9.4204063e-21)
(-0.00056985761 7.7965981e-05 6.4731566e-22)
(-0.00055794959 8.9301037e-05 -1.6516138e-20)
(-0.00054608179 0.00010023078 -1.7261152e-21)
(-0.00053426297 0.00011076334 -7.0762985e-21)
(-0.00052250141 0.00012090712 1.4477882e-21)
(-0.00051080493 0.00013067057 -2.5225251e-21)
(-0.00049918082 0.00014006229 -1.4485268e-20)
(-0.00048763604 0.00014909104 1.5027284e-21)
(-0.00047617692 0.00015776545 -6.766798e-21)
(-0.00046480947 0.00016609446 1.6798419e-21)
(-0.00045353924 0.00017408691 2.503616e-22)
(-0.00044237131 0.00018175193 -1.7351973e-20)
(-0.00043131047 0.00018909799 -7.8548613e-21)
(-0.00042036108 0.00019613433 -1.9764122e-21)
(-0.00040952709 0.00020286979 2.7334332e-21)
(-0.00039881206 0.00020931314 9.3847926e-23)
(-0.00038821922 0.00021547311 -5.7609394e-21)
(-0.00037775138 0.00022135844 -4.5715832e-21)
(-0.00036741106 0.00022697799 -6.383129e-21)
(-0.00035720053 0.00023234008 -1.4150544e-20)
(-0.00034712161 0.00023745326 -1.2317081e-20)
(-0.00033717584 0.00024232583 -6.5409887e-21)
(-0.00032736448 0.00024696606 -5.9481202e-23)
(-0.00031768853 0.00025138201 -4.3192614e-21)
(-0.00030814877 0.00025558176 -5.0569631e-21)
(-0.00029874569 0.00025957317 -4.74284e-21)
(-0.00028947943 0.00026336396 -4.6769391e-21)
(-0.00028034994 0.00026696151 -3.6457681e-22)
(-0.00027135704 0.00027037341 3.3082061e-21)
(-0.00026250019 0.00027360683 -1.0663685e-21)
(-0.00025377873 0.00027666885 -7.3022864e-21)
(-0.00024519184 0.00027956643 -6.8611304e-21)
(-0.00023673844 0.00028230612 -5.6558031e-21)
(-0.00022841728 0.00028489471 -3.2266527e-21)
(-0.00022022691 0.00028733843 -3.8284765e-21)
(-0.00021216581 0.0002896437 -9.9363817e-21)
(-0.00020423237 0.00029181639 -6.4319987e-21)
(-0.00019642469 0.00029386248 -9.1938564e-22)
(-0.00018874063 0.00029578736 -6.5453451e-21)
(-0.00018117827 0.00029759677 -3.9023033e-21)
(-0.00017373541 0.00029929602 -1.2708156e-21)
(-0.00016640963 0.00030089007 -4.8576293e-21)
(-0.00015919855 0.00030238389 -4.3829259e-21)
(-0.00015209963 0.00030378231 -8.294942e-22)
(-0.00014511024 0.00030508991 -1.2448395e-21)
(-0.00013822775 0.00030631088 -1.9790443e-21)
(-0.00013144944 0.00030744957 -5.6595986e-21)
(-0.0001247725 0.00030851005 -1.441126e-21)
(-0.00011819407 0.00030949601 -1.5755562e-21)
(-0.00011171117 0.00031041116 -1.8019823e-21)
(-0.00010532074 0.00031125898 -1.4424977e-21)
(-9.9019911e-05 0.00031204279 -3.0921211e-21)
(-9.2805665e-05 0.00031276561 -4.6581338e-21)
(-8.6674857e-05 0.00031343043 -3.8174591e-21)
(-8.0624405e-05 0.00031404007 -1.1363356e-21)
(-7.4651183e-05 0.00031459708 -2.9718457e-23)
(-6.8752108e-05 0.00031510393 -1.8337121e-21)
(-6.2923983e-05 0.00031556269 -1.3565692e-21)
(-5.7163658e-05 0.00031597572 3.819937e-22)
(-5.1468003e-05 0.00031634481 -1.9581902e-21)
(-4.5833849e-05 0.00031667157 -2.2806435e-21)
(-4.0258126e-05 0.00031695756 -3.5128994e-21)
(-3.4737666e-05 0.00031720413 -2.1444702e-21)
(-2.9269377e-05 0.00031741205 -9.0128011e-22)
(-2.3850279e-05 0.00031758173 5.8690746e-22)
(-1.8477465e-05 0.00031771309 -2.2410125e-21)
(-1.3146563e-05 0.00031780585 -3.8964595e-21)
(-7.8513756e-06 0.00031786137 -1.945099e-21)
(-2.5996552e-06 0.00031788681 -9.9785853e-22)
(-0.0006841727 -7.8311593e-05 -3.4928611e-20)
(-0.00067301204 -6.239395e-05 -1.0295156e-21)
(-0.0006617581 -4.6934441e-05 -2.2747786e-21)
(-0.00065042463 -3.1928702e-05 -3.3091129e-20)
(-0.00063902525 -1.7372613e-05 -4.7708304e-20)
(-0.00062757265 -3.26095e-06 -1.0893479e-20)
(-0.0006160795 1.0413189e-05 1.9127922e-20)
(-0.00060455768 2.3653864e-05 2.4419667e-20)
(-0.00059301805 3.6467528e-05 1.185823e-20)
(-0.00058147181 4.8860741e-05 -2.099492e-20)
(-0.00056992945 6.0840359e-05 4.1234947e-21)
(-0.00055840088 7.2413335e-05 2.5553373e-20)
(-0.00054689564 8.358684e-05 2.1184436e-20)
(-0.00053542283 9.4368461e-05 2.3159503e-21)
(-0.00052399097 0.00010476586 -2.643685e-20)
(-0.00051260816 0.00011478677 -6.0273413e-21)
(-0.00050128209 0.00012443925 1.5491462e-20)
(-0.00049002003 0.00013373133 9.4608175e-21)
(-0.0004788287 0.00014267137 8.6313866e-21)
(-0.00046771446 0.00015126729 -1.5743312e-20)
(-0.0004566833 0.00015952775 5.037695e-21)
(-0.00044574071 0.00016746095 1.6954901e-20)
(-0.00043489175 0.00017507562 1.081819e-20)
(-0.00042414117 0.00018237987 5.0962227e-21)
(-0.0004134934 0.00018938232 -1.1106354e-20)
(-0.00040295233 0.00019609143 4.5941113e-21)
(-0.00039252157 0.0002025155 1.3973751e-20)
(-0.00038220441 0.00020866298 1.0282235e-20)
(-0.00037200383 0.00021454201 7.6511472e-21)
(-0.00036192241 0.00022016119 -3.843908e-21)
(-0.00035196242 0.00022552834 -1.4592204e-21)
(-0.00034212577 0.00023065165 5.0722569e-21)
(-0.00033241414 0.0002355391 7.5427915e-21)
(-0.00032282894 0.00024019851 3.6140506e-21)
(-0.00031337128 0.00024463769 -2.9792428e-21)
(-0.00030404206 0.00024886446 5.1577282e-21)
(-0.00029484185 0.00025288617 9.4606699e-21)
(-0.00028577093 0.0002567103 6.0963769e-21)
(-0.00027682949 0.00026034396 7.6312233e-21)
(-0.00026801744 0.00026379438 2.2394794e-21)
(-0.00025933451 0.00026706853 8.1437846e-22)
(-0.00025078011 0.00027017312 6.73081e-21)
(-0.00024235346 0.00027311498 7.2140483e-21)
(-0.00023405378 0.00027590033 1.7193037e-21)
(-0.00022587996 0.00027853569 -4.0337647e-22)
(-0.00021783083 0.00028102716 2.9845119e-21)
(-0.00020990499 0.00028338085 3.1654168e-21)
(-0.00020210086 0.00028560253 2.7917698e-21)
(-0.00019441679 0.00028769779 7.4279959e-21)
(-0.000186851 0.00028967199 -8.7979317e-22)
(-0.00017940158 0.00029153078 -7.5478473e-22)
(-0.00017206646 0.00029327898 6.8069248e-21)
(-0.00016484351 0.00029492163 4.0579086e-21)
(-0.00015773043 0.00029646353 1.7427543e-21)
(-0.00015072497 0.00029790928 2.9773063e-22)
(-0.00014382467 0.00029926333 2.5599165e-21)
(-0.00013702703 0.00030052983 5.047101e-21)
(-0.00013032951 0.00030171295 3.690925e-21)
(-0.00012372947 0.00030281662 3.286892e-21)
(-0.00011722424 0.00030384443 5.8139052e-22)
(-0.00011081107 0.00030479998 1.3669385e-21)
(-0.00010448714 0.00030568671 7.5293493e-21)
(-9.824956e-05 0.00030650779 2.484352e-21)
(-9.2095489e-05 0.00030726624 9.7629224e-22)
(-8.6022106e-05 0.00030796492 -5.2924792e-22)
(-8.0026438e-05 0.00030860652 -3.8382385e-22)
(-7.4105518e-05 0.00030919363 5.9214826e-21)
(-6.8256429e-05 0.00030972865 1.8108869e-21)
(-6.2476187e-05 0.00031021356 2.0732202e-21)
(-5.6761769e-05 0.00031065064 -8.3345079e-23)
(-5.1110149e-05 0.00031104167 -8.9183847e-22)
(-4.5518373e-05 0.00031138833 1.56504e-21)
(-3.9983509e-05 0.00031169205 1.1312748e-21)
(-3.4502655e-05 0.00031195418 1.5930349e-21)
(-2.9072826e-05 0.00031217545 3.0977709e-22)
(-2.3691089e-05 0.00031235629 6.7516703e-22)
(-1.8354743e-05 0.00031249676 1.4706596e-21)
(-1.3059586e-05 0.00031259648 -7.1504568e-22)
(-7.7995422e-06 0.00031265705 -2.407438e-22)
(-2.5824953e-06 0.00031268558 -9.9162291e-22)
(-0.00066819418 -8.0789826e-05 -5.0322077e-20)
(-0.00065748465 -6.5211475e-05 -4.0091936e-20)
(-0.00064667822 -5.007284e-05 -4.9712165e-21)
(-0.00063578819 -3.5370144e-05 -1.1450232e-20)
(-0.00062482741 -2.1099307e-05 -3.9575033e-20)
(-0.00061380826 -7.2555277e-06 -3.5534557e-20)
(-0.00060274334 6.16611e-06 -3.6663603e-20)
(-0.00059164401 1.9170512e-05 1.8113597e-20)
(-0.00058052077 3.1763586e-05 5.3077448e-21)
(-0.00056938452 4.3951336e-05 -3.2303952e-20)
(-0.00055824549 5.5740012e-05 -3.0792986e-20)
(-0.00054711338 6.7136066e-05 -2.4234639e-20)
(-0.00053599748 7.8146196e-05 1.6294908e-20)
(-0.00052490667 8.8777452e-05 2.9410001e-21)
(-0.00051384929 9.9037015e-05 -3.3861575e-20)
(-0.00050283326 0.0001089321 -3.6914774e-20)
(-0.00049186618 0.00011847035 -2.434124e-20)
(-0.00048095515 0.00012765925 1.2404103e-20)
(-0.0004701068 0.00013650665 5.464306e-21)
(-0.00045932746 0.00014502017 -2.7321353e-20)
(-0.00044862304 0.00015320774 -1.9497665e-20)
(-0.000437999 0.00016107732 -1.6650331e-20)
(-0.00042746042 0.00016863696 8.1708778e-21)
(-0.00041701191 0.00017589455 -1.2742296e-21)
(-0.00040665796 0.00018285823 -2.4424142e-20)
(-0.00039640257 0.00018953591 -2.1177407e-20)
(-0.00038624934 0.00019593563 -1.2384232e-20)
(-0.00037620159 0.00020206526 6.8253141e-21)
(-0.00036626219 0.00020793276 -6.9181329e-22)
(-0.00035643393 0.00021354619 -1.7305066e-20)
(-0.00034671916 0.00021891303 -1.937169e-20)
(-0.0003371199 0.00022404102 -9.1855376e-21)
(-0.00032763793 0.00022893795 1.2481958e-20)
(-0.00031827473 0.00023361113 -3.0788274e-21)
(-0.00030903153 0.00023806818 -1.9465167e-20)
(-0.00029990926 0.00024231646 -1.2136418e-20)
(-0.00029090864 0.00024636313 1.0421529e-21)
(-0.00028203025 0.00025021525 8.1714791e-21)
(-0.00027327431 0.00025387979 -2.6928324e-21)
(-0.00026464086 0.00025736353 -1.2861396e-20)
(-0.0002561297 0.00026067327 -1.037493e-20)
(-0.00024774042 0.0002638153 -1.982585e-21)
(-0.00023947246 0.0002667964 8.4166386e-21)
(-0.00023132518 0.00026962261 -1.9173632e-21)
(-0.00022329769 0.00027229991 -1.0772249e-20)
(-0.00021538894 0.00027483448 -5.3654666e-21)
(-0.00020759765 0.00027723196 -2.043147e-21)
(-0.0001999224 0.00027949807 5.114819e-21)
(-0.00019236177 0.00028163819 2.4537947e-21)
(-0.00018491414 0.00028365749 -8.640301e-21)
(-0.00017757768 0.00028556134 -5.0226076e-21)
(-0.00017035056 0.00028735455 1.0803341e-21)
(-0.00016323083 0.00028904192 5.5757916e-21)
(-0.00015621642 0.00029062806 3.1124315e-22)
(-0.00014930515 0.00029211754 -8.3071291e-21)
(-0.00014249473 0.0002935145 -4.0724967e-21)
(-0.00013578293 0.00029482318 -9.4679046e-22)
(-0.00012916735 0.00029604749 3.5277863e-21)
(-0.00012264543 0.00029719121 3.3864344e-22)
(-0.00011621472 0.00029825795 -5.8557001e-21)
(-0.00010987267 0.00029925112 -5.5104284e-21)
(-0.0001036166 0.00030017404 3.3450731e-21)
(-9.7443886e-05 0.00030102987 3.8386103e-21)
(-9.1351833e-05 0.00030182151 -1.6773889e-21)
(-8.5337617e-05 0.00030255177 -5.2244105e-21)
(-7.9398485e-05 0.00030322323 -3.1318355e-21)
(-7.3531725e-05 0.00030383853 2.6266683e-21)
(-6.7734513e-05 0.0003043998 2.2056969e-21)
(-6.2004024e-05 0.00030490921 -1.6123493e-21)
(-5.6337477e-05 0.00030536881 -3.4547177e-21)
(-5.073197e-05 0.00030578038 -3.042661e-21)
(-4.5184692e-05 0.00030614567 -5.7024041e-22)
(-3.9692881e-05 0.00030646602 2.1362413e-21)
(-3.4253697e-05 0.00030674271 -2.6114507e-21)
(-2.8864353e-05 0.00030697653 -3.4094832e-21)
(-2.3522152e-05 0.00030716786 -1.5119366e-21)
(-1.822444e-05 0.00030731682 -1.6168617e-21)
(-1.2967171e-05 0.00030742309 -9.1059715e-22)
(-7.7444871e-06 0.00030748843 -2.1518785e-21)
(-2.5642909e-06 0.00030751987 -2.5926035e-21)
(-0.00065256191 -8.3021064e-05 -4.2527686e-20)
(-0.00064228527 -6.7777366e-05 -1.9280386e-20)
(-0.00063190845 -5.2955688e-05 2.361459e-20)
(-0.00062144433 -3.8552701e-05 -3.8578732e-20)
(-0.00061090533 -2.4564689e-05 -7.1019661e-20)
(-0.00060030327 -1.0987484e-05 -3.1415134e-20)
(-0.00058965065 2.1835246e-06 -1.0278992e-22)
(-0.00057895837 1.4952521e-05 3.6124986e-20)
(-0.00056823645 2.7325363e-05 -3.9042369e-20)
(-0.00055749568 3.9307419e-05 -5.6973847e-20)
(-0.00054674592 5.0904463e-05 -2.4057257e-20)
(-0.00053599664 6.2122506e-05 -1.4135266e-20)
(-0.00052525695 7.2967713e-05 1.2250752e-20)
(-0.00051453546 8.3446681e-05 -1.6716812e-20)
(-0.00050384038 9.3566116e-05 -3.9746444e-20)
(-0.00049317955 0.00010333284 -3.1860137e-20)
(-0.00048256034 0.00011275391 -1.8714143e-20)
(-0.00047198967 0.00012183646 1.3138617e-20)
(-0.00046147412 0.00013058773 -1.1632867e-20)
(-0.00045101991 0.00013901509 -3.0358378e-20)
(-0.00044063292 0.00014712593 -1.9130813e-20)
(-0.00043031859 0.00015492778 -1.2490408e-20)
(-0.00042008188 0.00016242814 8.1896806e-21)
(-0.00040992753 0.00016963462 -1.313302e-20)
(-0.0003998599 0.00017655492 -3.2508578e-20)
(-0.00038988298 0.00018319655 -2.4098112e-20)
(-0.00038000045 0.00018956709 -1.1888012e-20)
(-0.00037021563 0.00019567401 7.9174586e-21)
(-0.00036053156 0.00020152496 -7.9573159e-21)
(-0.00035095095 0.00020712757 -2.1829529e-20)
(-0.00034147614 0.00021248896 -1.7384616e-20)
(-0.00033210934 0.0002176166 -3.9342146e-21)
(-0.00032285245 0.00022251788 2.9035015e-21)
(-0.00031370702 0.00022719974 -1.3126873e-20)
(-0.00030467438 0.00023166956 -2.4104293e-20)
(-0.00029575558 0.00023593419 -1.6279998e-20)
(-0.00028695139 0.00024000071 -2.0706416e-21)
(-0.00027826254 0.00024387587 2.7216843e-21)
(-0.00026968939 0.00024756619 -9.3554277e-21)
(-0.00026123204 0.0002510783 -2.0230585e-20)
(-0.00025289048 0.00025441871 -1.6518478e-20)
(-0.00024466453 0.00025759346 9.3584632e-23)
(-0.00023655378 0.00026060903 7.2645971e-21)
(-0.0002285576 0.00026347132 -7.0179486e-21)
(-0.00022067528 0.00026618609 -1.4207136e-20)
(-0.00021290588 0.00026875915 -6.1254025e-21)
(-0.0002052483 0.00027119606 -9.5288167e-22)
(-0.00019770136 0.00027350228 -4.3476416e-22)
(-0.00019026373 0.00027568305 -3.7161197e-21)
(-0.00018293401 0.00027774339 -1.3055556e-20)
(-0.00017571057 0.00027968828 -6.4945067e-21)
(-0.00016859164 0.00028152266 1.553265e-22)
(-0.00016157546 0.00028325104 1.199451e-21)
(-0.00015466015 0.00028487784 -1.6126967e-21)
(-0.00014784366 0.00028640744 -1.0295401e-20)
(-0.00014112389 0.000287844 -7.4824513e-21)
(-0.00013449872 0.00028919162 -7.197489e-22)
(-0.00012796596 0.00029045397 3.1589864e-22)
(-0.00012152329 0.00029163474 -1.4632022e-22)
(-0.0001151683 0.00029273756 -6.6080292e-21)
(-0.00010889866 0.00029376568 -1.0066607e-20)
(-0.00010271191 0.0002947222 -1.2603911e-21)
(-9.6605445e-05 0.00029561034 6.7553832e-22)
(-9.0576746e-05 0.00029643285 -4.4540064e-22)
(-8.4623263e-05 0.00029719251 -4.4442595e-21)
(-7.8742435e-05 0.00029789179 -5.1822787e-21)
(-7.2931578e-05 0.0002985333 -7.8144191e-22)
(-6.7188053e-05 0.00029911913 -2.5616823e-22)
(-6.1509243e-05 0.00029965138 -2.4186834e-21)
(-5.5892436e-05 0.00030013202 -3.0617061e-21)
(-5.0334958e-05 0.00030056281 -3.6242354e-21)
(-4.4834118e-05 0.0003009455 -5.0118403e-22)
(-3.9387269e-05 0.00030128143 2.6983288e-21)
(-3.3991755e-05 0.00030157166 -1.4238835e-21)
(-2.8644886e-05 0.00030181723 -5.3419175e-21)
(-2.334419e-05 0.00030201847 -5.1133218e-21)
(-1.8087141e-05 0.0003021753 -1.5633637e-21)
(-1.286978e-05 0.00030228775 -9.9522281e-22)
(-7.6864747e-06 0.00030235754 -6.9362168e-22)
(-2.5451116e-06 0.00030239169 -1.969535e-21)
(-0.00063727083 -8.5019025e-05 -4.0344651e-20)
(-0.00062740962 -7.0105298e-05 3.0991557e-21)
(-0.00061744535 -5.5596541e-05 -9.2498727e-21)
(-0.00060739037 -4.1489885e-05 -3.5870668e-21)
(-0.00059725668 -2.7782106e-05 -1.7214369e-20)
(-0.00058705585 -1.4469499e-05 -4.1688101e-20)
(-0.00057680028 -1.5481889e-06 6.6661465e-21)
(-0.00056650009 1.0987287e-05 1.7785029e-20)
(-0.00055616484 2.3140636e-05 5.4595207e-21)
(-0.00054580537 3.4917122e-05 -5.5981758e-21)
(-0.00053543127 4.6322169e-05 -2.3108336e-20)
(-0.00052505176 5.7361361e-05 1.200663e-20)
(-0.00051467563 6.8040463e-05 -1.4925164e-21)
(-0.00050431128 7.836552e-05 1.3869249e-21)
(-0.00049396676 8.8342925e-05 -1.9935232e-21)
(-0.00048364975 9.7979004e-05 -1.2025465e-20)
(-0.00047336743 0.00010728031 9.7164326e-21)
(-0.00046312665 0.00011625364 -1.1582966e-21)
(-0.00045293395 0.00012490576 4.8485572e-22)
(-0.00044279546 0.00013324352 2.738862e-21)
(-0.00043271686 0.00014127407 -8.7974977e-21)
(-0.00042270351 0.00014900437 7.4055752e-21)
(-0.00041276049 0.00015644161 -3.0352109e-21)
(-0.00040289243 0.00016359285 1.6029759e-21)
(-0.00039310361 0.00017046548 7.5491192e-22)
(-0.00038339812 0.00017706669 -1.1738526e-20)
(-0.00037377963 0.00018340354 6.2554696e-21)
(-0.00036425147 0.00018948321 5.9307758e-22)
(-0.00035481674 0.00019531298 -1.9024486e-21)
(-0.00034547816 0.0002009 7.4775282e-21)
(-0.00033623823 0.00020625123 -6.0375073e-21)
(-0.0003270992 0.00021137372 8.1765248e-21)
(-0.00031806284 0.00021627444 8.2580579e-21)
(-0.00030913092 0.0002209602 5.2750053e-21)
(-0.00030030495 0.00022543791 7.411803e-21)
(-0.00029158598 0.00022971415 -1.895288e-21)
(-0.00028297497 0.00023379568 4.183868e-21)
(-0.00027447265 0.00023768904 4.5550743e-21)
(-0.00026607952 0.00024140043 7.0773681e-21)
(-0.00025779591 0.00024493615 9.4586776e-21)
(-0.00024962183 0.00024830255 -5.0938533e-21)
(-0.00024155723 0.00025150549 4.0355268e-21)
(-0.00023360185 0.00025455102 8.0950473e-21)
(-0.00022575528 0.00025744495 5.1771236e-21)
(-0.00021801687 0.00026019276 5.152475e-21)
(-0.00021038574 0.00026279994 1.4270581e-21)
(-0.00020286105 0.00026527211 8.7309792e-21)
(-0.00019544181 0.00026761434 4.2048697e-21)
(-0.00018812682 0.00026983172 4.7926467e-21)
(-0.00018091472 0.00027192918 3.8342949e-21)
(-0.0001738041 0.00027391142 -1.6739987e-21)
(-0.00016679344 0.00027578323 5.3056373e-21)
(-0.00015988098 0.00027754895 1.2143244e-21)
(-0.00015306499 0.00027921291 1.8933521e-21)
(-0.00014634373 0.00028077935 4.5657617e-21)
(-0.00013971522 0.0002822523 -1.3175551e-21)
(-0.00013317752 0.00028363569 3.0536358e-21)
(-0.00012672847 0.00028493307 4.0198291e-21)
(-0.00012036592 0.00028614806 6.3603868e-21)
(-0.00011408776 0.00028728419 4.9354657e-21)
(-0.00010789167 0.00028834462 -1.7884031e-21)
(-0.00010177534 0.0002893323 3.3305626e-21)
(-9.5736481e-05 0.00029025033 1.3606448e-21)
(-8.9772651e-05 0.00029110154 2.9241754e-21)
(-8.3881414e-05 0.00029188849 5.5640166e-21)
(-7.8060337e-05 0.00029261366 5.2668749e-22)
(-7.2306955e-05 0.0002932795 5.3336067e-21)
(-6.661876e-05 0.00029388822 1.2840737e-21)
(-6.0993261e-05 0.00029444173 2.5531697e-21)
(-5.542791e-05 0.00029494195 4.6428972e-21)
(-4.9920203e-05 0.00029539071 -3.4700484e-22)
(-4.4467581e-05 0.00029578953 3.9113485e-21)
(-3.906747e-05 0.00029614 4.9255841e-21)
(-3.3717447e-05 0.00029644292 3.1696509e-21)
(-2.8415028e-05 0.00029669946 2.6079359e-21)
(-2.3157702e-05 0.00029690988 -4.884314e-22)
(-1.794313e-05 0.00029707411 1.919855e-21)
(-1.2767603e-05 0.00029719236 9.9695621e-22)
(-7.6255249e-06 0.00029726636 4.7402306e-22)
(-2.5249246e-06 0.00029730304 -3.5176863e-22)
(-0.00062231602 -8.6796854e-05 -5.2848249e-20)
(-0.00061285328 -7.2208264e-05 -1.0984035e-20)
(-0.00060328495 -5.8008317e-05 -3.5136937e-20)
(-0.00059362308 -4.4194478e-05 -1.786407e-20)
(-0.00058387929 -3.0763876e-05 9.9664835e-21)
(-0.00057406491 -1.7713403e-05 -1.0862728e-20)
(-0.00056419061 -5.0393933e-06 -1.7434091e-20)
(-0.00055426737 7.2633782e-06 -1.6548448e-20)
(-0.00054430537 1.9197849e-05 -6.3247294e-21)
(-0.00053431381 3.0769076e-05 4.5257778e-21)
(-0.00052430225 4.1982019e-05 6.7060081e-21)
(-0.00051427967 5.2841815e-05 -1.0508484e-21)
(-0.0005042547 6.3353871e-05 -1.4782851e-20)
(-0.00049423559 7.3523769e-05 -8.2058653e-21)
(-0.00048423019 8.3357529e-05 -4.5324378e-21)
(-0.00047424597 9.2860957e-05 4.1379969e-21)
(-0.00046429007 0.00010204029 -1.9590257e-21)
(-0.00045436916 0.0001109018 -1.2851152e-20)
(-0.00044448957 0.00011945198 -3.230942e-21)
(-0.00043465738 0.0001276972 -2.3890177e-21)
(-0.00042487824 0.00013564409 5.5211123e-21)
(-0.00041515743 0.00014329941 -1.8709248e-21)
(-0.00040549989 0.00015066985 -1.6364439e-20)
(-0.0003959103 0.00015776209 -8.7343868e-21)
(-0.0003863931 0.00016458318 1.8836914e-21)
(-0.0003769522 0.00017113988 8.5860985e-21)
(-0.00036759119 0.0001774389 -1.8995008e-21)
(-0.00035831354 0.00018348705 -9.7256946e-21)
(-0.00034912234 0.00018929126 -1.0893579e-20)
(-0.00034002037 0.00019485832 -8.7112741e-21)
(-0.00033101013 0.00020019495 -3.7991734e-21)
(-0.00032209395 0.00020530776 8.2045748e-22)
(-0.00031327375 0.00021020328 -5.9043736e-21)
(-0.00030455123 0.00021488839 -5.8415156e-21)
(-0.00029592801 0.00021936944 -4.6826571e-21)
(-0.00028740532 0.00022365269 3.1493068e-21)
(-0.00027898413 0.00022774476 1.9515887e-21)
(-0.0002706653 0.00023165166 -8.6540937e-21)
(-0.00026244944 0.00023537964 -5.5053277e-21)
(-0.000254337 0.0002389346 -5.0176532e-23)
(-0.00024632816 0.00024232254 2.2939759e-21)
(-0.00023842293 0.00024554926 -2.9167517e-21)
(-0.00023062123 0.00024862048 -7.7387681e-21)
(-0.00022292267 0.00025154179 -7.5438176e-21)
(-0.00021532671 0.00025431835 -5.1636584e-21)
(-0.00020783278 0.00025695568 9.3761001e-22)
(-0.00020044018 0.00025945908 -2.023647e-21)
(-0.00019314795 0.0002618334 -4.3518197e-21)
(-0.00018595495 0.00026408353 -3.7469623e-21)
(-0.00017886004 0.00026621428 -5.430649e-21)
(-0.00017186199 0.00026823027 2.5789042e-21)
(-0.00016495942 0.00027013598 2.1717209e-21)
(-0.0001581508 0.00027193557 -6.0682257e-21)
(-0.00015143449 0.00027363337 -6.0651137e-21)
(-0.00014480885 0.00027523352 -2.9480463e-21)
(-0.00013827209 0.00027673967 2.4618118e-21)
(-0.00013182232 0.00027815586 -1.7306331e-21)
(-0.00012545767 0.00027948538 -5.6917425e-21)
(-0.00011917614 0.00028073185 -2.6429431e-21)
(-0.00011297565 0.00028189864 -1.8309753e-21)
(-0.0001068541 0.00028298881 3.8682313e-23)
(-0.00010080936 0.00028400527 1.2438628e-21)
(-9.4839229e-05 0.00028495097 -3.6602238e-21)
(-8.8941473e-05 0.00028582872 -4.4946633e-21)
(-8.3113825e-05 0.00028664093 -3.3697647e-21)
(-7.7353939e-05 0.00028739009 6.5515826e-22)
(-7.1659486e-05 0.00028807855 1.5228682e-22)
(-6.6028103e-05 0.00028870844 -4.1279924e-21)
(-6.0457452e-05 0.00028928173 -3.4116135e-21)
(-5.4945216e-05 0.00028980019 -1.8119047e-21)
(-4.9488929e-05 0.00029026566 4.9348794e-22)
(-4.4086193e-05 0.00029067951 -2.0099636e-21)
(-3.8734619e-05 0.00029104339 -3.5631625e-21)
(-3.343179e-05 0.00029135822 -3.0743377e-21)
(-2.8175405e-05 0.00029162493 -1.1126648e-21)
(-2.2963218e-05 0.00029184389 1.4013749e-21)
(-1.7792983e-05 0.00029201507 -1.9142957e-21)
(-1.2661064e-05 0.00029213876 -3.0311922e-21)
(-7.5620468e-06 0.00029221668 -1.470303e-21)
(-2.503932e-06 0.00029225577 -7.824648e-22)
(-0.00060769196 -8.8367168e-05 6.4377832e-21)
(-0.00059861153 -7.4098771e-05 -3.5076598e-20)
(-0.00058942343 -6.0203295e-05 -3.013993e-20)
(-0.00058013917 -4.6678627e-05 -1.7311353e-20)
(-0.00057076993 -3.3522174e-05 3.3599855e-20)
(-0.00056132676 -2.07311e-05 -7.7124135e-22)
(-0.00055182007 -8.3017794e-06 -2.7132342e-20)
(-0.00054226049 3.769417e-06 -1.042821e-20)
(-0.00053265772 1.5485859e-05 4.5679255e-22)
(-0.00052302075 2.6852289e-05 2.6144891e-20)
(-0.00051335886 3.7873243e-05 1.0134991e-20)
(-0.00050368084 4.8553412e-05 -1.6128071e-20)
(-0.00049399517 5.8897765e-05 -1.4044448e-20)
(-0.00048430982 6.8911544e-05 3.3053691e-21)
(-0.00047463246 7.860027e-05 2.1417401e-20)
(-0.0004649704 8.7969405e-05 6.8395196e-22)
(-0.00045533056 9.702479e-05 -1.4193498e-20)
(-0.0004457195 0.00010577225 -1.7763604e-20)
(-0.00043614357 0.00011421796 5.8924664e-21)
(-0.0004266086 0.00012236789 1.8676234e-20)
(-0.00041712023 0.00013022828 7.9266982e-21)
(-0.00040768375 0.00013780543 -6.6849642e-21)
(-0.00039830388 0.00014510567 -1.3563461e-20)
(-0.00038898539 0.00015213554 2.3156401e-21)
(-0.00037973262 0.00015890144 1.7539489e-20)
(-0.00037054938 0.00016540984 1.1463359e-20)
(-0.00036143944 0.00017166717 -2.1256752e-21)
(-0.00035240622 0.00017767982 -1.1153084e-20)
(-0.00034345276 0.00018345439 2.6729204e-21)
(-0.0003345819 0.00018899736 1.3836401e-20)
(-0.00032579623 0.00019431515 6.696715e-21)
(-0.00031709807 0.00019941408 -6.2812699e-21)
(-0.00030848948 0.00020430023 -1.3451356e-20)
(-0.00029997224 0.00020898029 -6.799225e-23)
(-0.00029154791 0.00021346037 1.3064693e-20)
(-0.00028321791 0.00021774633 9.8985341e-21)
(-0.0002749833 0.00022184456 1.3118151e-21)
(-0.00026684493 0.00022576078 -1.3705049e-20)
(-0.00025880361 0.00022950105 -5.7161976e-22)
(-0.00025085984 0.000233071 1.30846e-20)
(-0.0002430139 0.00023647637 8.1654283e-21)
(-0.00023526595 0.00023972266 -3.3781426e-21)
(-0.00022761597 0.00024281545 -1.1569281e-20)
(-0.00022006375 0.00024576005 -1.7936311e-21)
(-0.00021260896 0.00024856147 9.0130406e-21)
(-0.00020525109 0.00025122502 4.7190872e-21)
(-0.00019798942 0.00025375579 -4.0045897e-21)
(-0.00019082321 0.00025615845 -1.0265718e-20)
(-0.00018375158 0.00025843769 2.6098686e-21)
(-0.0001767735 0.00026059817 5.2854757e-21)
(-0.00016988778 0.00026264432 5.0268023e-21)
(-0.00016309313 0.00026458054 2.9637811e-21)
(-0.00015638825 0.0002664108 -6.6345777e-21)
(-0.00014977169 0.00026813926 8.1276788e-22)
(-0.0001432419 0.00026976993 5.6737686e-21)
(-0.00013679723 0.00027130636 4.2829428e-21)
(-0.00013043598 0.00027275246 2.4990943e-21)
(-0.00012415633 0.00027411139 -7.5890216e-21)
(-0.00011795649 0.00027538671 -1.7518089e-22)
(-0.00011183456 0.00027658157 3.5179905e-21)
(-0.0001057885 0.00027769905 2.5969139e-21)
(-9.9816339e-05 0.00027874199 3.8504655e-21)
(-9.3916039e-05 0.00027971323 -5.1401352e-21)
(-8.8085475e-05 0.00028061543 4.6334292e-22)
(-8.2322513e-05 0.00028145098 3.351698e-21)
(-7.662504e-05 0.00028222233 2.1564632e-22)
(-7.0990863e-05 0.00028293169 1.6152023e-21)
(-6.5417765e-05 0.00028358123 -5.5133773e-21)
(-5.9903481e-05 0.00028417279 2.3729499e-22)
(-5.4445728e-05 0.00028470813 2.8650168e-21)
(-4.9042268e-05 0.00028518903 4.4095916e-23)
(-4.3690957e-05 0.00028561696 -1.9359611e-22)
(-3.8389458e-05 0.0002859932 -4.7877472e-21)
(-3.3135479e-05 0.00028631914 -1.8342596e-21)
(-2.7926882e-05 0.00028659529 2.0807114e-21)
(-2.2761474e-05 0.00028682222 9.2428052e-22)
(-1.7637222e-05 0.0002869999 -6.5901414e-22)
(-1.255055e-05 0.0002871286 -4.7810665e-21)
(-7.4961376e-06 0.00028721014 -8.5864876e-22)
(-2.482126e-06 0.00028725149 5.7494033e-22)
(-0.00059339351 -8.9742029e-05 -3.6683756e-20)