/*--------------------------------*- C++ -*----------------------------------*\
| =========                 |                                                 |
| \\      /  F ield         | OpenFOAM: The Open Source CFD Toolbox           |
|  \\    /   O peration     | Version:  2306                                  |
|   \\  /    A nd           | Website:  www.openfoam.com                      |
|    \\/     M anipulation  |                                                 |
\*---------------------------------------------------------------------------*/
FoamFile
{
    version     2.0;
    format      ascii;
    arch        "LSB;label=32;scalar=64";
    class       surfaceScalarField;
    location    "0.22";
    object      phi;
}
// * * * * * * * * * * * * * * * * * * * * * * * * * * * * * * * * * * * * * //

dimensions      [0 3 -1 0 0 0 0];

oriented        oriented;

internalField   nonuniform List<scalar> 
12640
(
9.902771e-12
1.7995671e-09
3.963423e-11
5.3985619e-09
8.9556332e-11
9.0010532e-09
1.604633e-10
1.2611298e-08
2.5357917e-10
1.62349e-08
3.7061732e-10
1.9876792e-08
5.1367811e-10
2.3541665e-08
6.8532109e-10
2.7233692e-08
8.8828335e-10
3.095697e-08
1.1259505e-09
3.4715051e-08
1.4018191e-09
3.8511483e-08
1.7198388e-09
4.2349308e-08
2.0841791e-09
4.6231345e-08
2.4992874e-09
5.0160121e-08
2.9699415e-09
5.4137481e-08
3.5010405e-09
5.8165387e-08
4.0977216e-09
6.2245059e-08
4.7653498e-09
6.6377179e-08
5.5093142e-09
7.0562465e-08
6.3353071e-09
7.4800689e-08
7.2487953e-09
7.9091421e-08
8.255705e-09
8.3433619e-08
9.3614509e-09
8.7826101e-08
1.0572429e-08
9.2266514e-08
1.1893507e-08
9.675285e-08
1.3331093e-08
1.0128198e-07
1.4890139e-08
1.0585062e-07
1.6576142e-08
1.1045475e-07
1.8394507e-08
1.1509005e-07
2.0350044e-08
1.1975185e-07
2.2447736e-08
1.2443468e-07
2.4692175e-08
1.2913271e-07
2.7087513e-08
1.3384e-07
2.9637881e-08
1.3854979e-07
3.2346918e-08
1.4325513e-07
3.5217848e-08
1.4794846e-07
3.8253611e-08
1.5262225e-07
4.145693e-08
1.5726827e-07
4.4829622e-08
1.6187835e-07
4.8373618e-08
1.6644339e-07
5.2089996e-08
1.7095483e-07
5.5979708e-08
1.7540309e-07
6.004293e-08
1.7977907e-07
6.4279415e-08
1.8407314e-07
6.8688653e-08
1.8827547e-07
7.3269482e-08
1.9237625e-07
7.8020087e-08
1.9636572e-07
8.2938352e-08
2.002337e-07
8.8021783e-08
2.0397034e-07
9.32669e-08
2.0756567e-07
9.8670198e-08
2.1100964e-07
1.0422751e-07
2.1429233e-07
1.0993397e-07
2.1740433e-07
1.1578457e-07
2.2033562e-07
1.2177378e-07
2.2307729e-07
1.278953e-07
2.2561948e-07
1.3414267e-07
2.2795352e-07
1.4050911e-07
2.3007049e-07
1.4698695e-07
2.3196201e-07
1.5356859e-07
2.3361985e-07
1.602461e-07
2.3503585e-07
1.6701071e-07
2.3620285e-07
1.738535e-07
2.3711354e-07
1.8076541e-07
2.377609e-07
1.8773729e-07
2.3813917e-07
1.9475914e-07
2.3824169e-07
2.0182097e-07
2.3806333e-07
2.089129e-07
2.3759937e-07
2.1602444e-07
2.3684437e-07
2.2314455e-07
2.357948e-07
2.3026331e-07
2.3444675e-07
2.3736945e-07
2.3279729e-07
2.44452e-07
2.308436e-07
2.5150016e-07
2.2858366e-07
2.5850292e-07
2.2601576e-07
2.6544928e-07
2.2313872e-07
2.7232774e-07
2.1995202e-07
2.7912772e-07
2.1645541e-07
2.8583791e-07
2.1264933e-07
2.0853447e-07
1.1411266e-11
1.7881557e-09
4.5664658e-11
5.3643057e-09
1.0312232e-10
8.9436031e-09
1.8449294e-10
1.2529925e-08
2.9097402e-10
1.6128419e-08
4.2408886e-10
1.9743666e-08
5.8587952e-10
2.3379875e-08
7.7866252e-10
2.704091e-08
1.0051418e-09
3.0730494e-08
1.2683542e-09
3.445185e-08
1.5716406e-09
3.8208202e-08
1.9186211e-09
4.20023e-08
2.3132375e-09
4.5836734e-08
2.7597075e-09
4.971362e-08
3.2623514e-09
5.363485e-08
3.8258667e-09
5.7601879e-08
4.4550702e-09
6.1615844e-08
5.154847e-09
6.5677408e-08
5.9304715e-09
6.9786893e-08
6.7869184e-09
7.3944167e-08
7.7297448e-09
7.814863e-08
8.7640767e-09
8.2399323e-08
9.8954319e-09
8.6694696e-08
1.1129016e-08
9.1032933e-08
1.2470258e-08
9.5411628e-08
1.3924348e-08
9.9827876e-08
1.5496539e-08
1.0427839e-07
1.7191694e-08
1.0875955e-07
1.90148e-08
1.1326699e-07
2.0970503e-08
1.1779625e-07
2.3063321e-08
1.2234185e-07
2.5297493e-08
1.2689857e-07
2.7677003e-08
1.3146053e-07
3.0205618e-08
1.3602117e-07
3.2886565e-08
1.4057408e-07
3.5723107e-08
1.4511201e-07
3.8717685e-08
1.4962754e-07
4.1872817e-08
1.5411313e-07
4.5190566e-08
1.5856068e-07
4.867209e-08
1.6296182e-07
5.2318842e-08
1.6730813e-07
5.6131206e-08
1.7159072e-07
6.0109572e-08
1.7580064e-07
6.4253731e-08
1.79929e-07
6.8562903e-08
1.8396627e-07
7.303593e-08
1.8790333e-07
7.7671092e-08
1.9173055e-07
8.2466445e-08
1.9543852e-07
8.741903e-08
1.9901762e-07
9.2526151e-08
2.0245855e-07
9.7784148e-08
2.057516e-07
1.0318866e-07
2.0888778e-07
1.0873573e-07
2.1185742e-07
1.1441981e-07
2.146515e-07
1.2023604e-07
2.1726105e-07
1.2617834e-07
2.1967716e-07
1.3224059e-07
2.218914e-07
1.3841569e-07
2.2389534e-07
1.4469704e-07
2.2568066e-07
1.5107713e-07
2.2723966e-07
1.5754795e-07
2.2856508e-07
1.6410148e-07
2.2964943e-07
1.7072918e-07
2.3048579e-07
1.7742253e-07
2.3106774e-07
1.8417205e-07
2.313895e-07
1.9096889e-07
2.3144485e-07
1.9780322e-07
2.3122901e-07
2.0466542e-07
2.3073715e-07
2.1154549e-07
2.299643e-07
2.1843349e-07
2.2890672e-07
2.2531888e-07
2.2756139e-07
2.3219151e-07
2.2592465e-07
2.3904065e-07
2.2399453e-07
2.4585585e-07
2.2176848e-07
2.5262652e-07
2.1924507e-07
2.5934229e-07
2.1642304e-07
2.6599208e-07
2.1330221e-07
2.7256552e-07
2.0988208e-07
2.7905203e-07
2.0616293e-07
2.0214537e-07
1.2794162e-11
1.7753627e-09
5.1198288e-11
5.3259046e-09
1.1554493e-10
8.8792511e-09
2.0650127e-10
1.2438963e-08
3.2516059e-10
1.6009756e-08
4.73042e-10
1.9595785e-08
6.5196733e-10
2.3200957e-08
8.6411537e-10
2.6828756e-08
1.112022e-09
3.0482581e-08
1.3985181e-09
3.4165363e-08
1.7267551e-09
3.7879944e-08
2.1000934e-09
4.1628964e-08
2.5222331e-09
4.5414566e-08
2.9971345e-09
4.9238771e-08
3.5288652e-09
5.3103132e-08
4.1216931e-09
5.7009023e-08
4.7801899e-09
6.0957333e-08
5.5090423e-09
6.4948545e-08
6.3129411e-09
6.8982974e-08
7.19673e-09
7.3060339e-08
8.1655497e-09
7.7179879e-08
9.2241102e-09
8.1340708e-08
1.0377633e-08
8.5541218e-08
1.163098e-08
8.9779562e-08
1.2989204e-08
9.4053449e-08
1.4457129e-08
9.8359884e-08
1.6039623e-08
1.0269595e-07
1.7741455e-08
1.0705774e-07
1.9567006e-08
1.1144143e-07
2.1520783e-08
1.1584241e-07
2.3606795e-08
1.2025582e-07
2.5829064e-08
1.2467638e-07
2.819125e-08
1.2909822e-07
3.0696897e-08
1.335156e-07
3.3349122e-08
1.3792188e-07
3.6150567e-08
1.4231048e-07
3.9103883e-08
1.4667429e-07
4.2211157e-08
1.5100587e-07
4.5474138e-08
1.5529772e-07
4.8894157e-08
1.5954166e-07
5.2472425e-08
1.6372995e-07
5.6209283e-08
1.6785391e-07
6.0104781e-08
1.7190519e-07
6.4158805e-08
1.7587489e-07
6.8370488e-08
1.7975455e-07
7.2738936e-08
1.83535e-07
7.7262065e-08
1.8720729e-07
8.1938212e-08
1.9076239e-07
8.6764651e-08
1.9419124e-07
9.1738124e-08
1.974851e-07
9.685561e-08
2.0063407e-07
1.0211286e-07
2.0363042e-07
1.0750592e-07
2.0646439e-07
1.1302972e-07
2.0912777e-07
1.1867933e-07
2.1161151e-07
1.24449e-07
2.1390743e-07
1.3033237e-07
2.1600791e-07
1.3632363e-07
2.1790413e-07
1.4241579e-07
2.1958863e-07
1.4860162e-07
2.2105391e-07
1.5487378e-07
2.2229301e-07
1.6122444e-07
2.232986e-07
1.6764528e-07
2.2406487e-07
1.7412794e-07
2.2458503e-07
1.8066404e-07
2.2485345e-07
1.8724448e-07
2.2486443e-07
1.9385989e-07
2.2461347e-07
2.0050131e-07
2.2409569e-07
2.0715904e-07
2.2330644e-07
2.1382321e-07
2.2224258e-07
2.204843e-07
2.2090029e-07
2.2713204e-07
2.1927691e-07
2.3375672e-07
2.1736991e-07
2.4034777e-07
2.1517752e-07
2.468953e-07
2.126976e-07
2.5338889e-07
2.0992929e-07
2.5981866e-07
2.068724e-07
2.6617427e-07
2.0352637e-07
2.7244533e-07
1.9989178e-07
1.9596896e-07
1.4059568e-11
1.761302e-09
5.625597e-11
5.2837041e-09
1.2690336e-10
8.8086076e-09
2.2662094e-10
1.2339255e-08
3.564253e-10
1.587994e-08
5.177417e-10
1.9434484e-08
7.1224733e-10
2.3006432e-08
9.4204988e-10
2.659895e-08
1.2094896e-09
3.0215143e-08
1.5172627e-09
3.3857599e-08
1.8681432e-09
3.7529049e-08
2.2654424e-09
4.1231661e-08
2.7126068e-09
4.4967443e-08
3.2132257e-09
4.8738129e-08
3.7711491e-09
5.2545218e-08
4.3904475e-09
5.6389735e-08
5.0753766e-09
6.0272426e-08
5.8301451e-09
6.4193722e-08
6.6593445e-09
6.8153811e-08
7.5675027e-09
7.2152191e-08
8.5591531e-09
7.618822e-08
9.6390045e-09
8.0260829e-08
1.081177e-08
8.4368472e-08
1.2082054e-08
8.8509291e-08
1.345452e-08
9.2680976e-08
1.4933688e-08
9.6880727e-08
1.6524121e-08
1.0110551e-07
1.8229977e-08
1.0535187e-07
2.0055807e-08
1.0961563e-07
2.2005505e-08
1.1389279e-07
2.4082867e-08
1.1817846e-07
2.6291734e-08
1.2246749e-07
2.863539e-08
1.2675459e-07
3.1117047e-08
1.3103388e-07
3.3739647e-08
1.352993e-07
3.6505715e-08
1.3954449e-07
3.9417515e-08
1.4376248e-07
4.2477025e-08
1.4794636e-07
4.5685904e-08
1.5208879e-07
4.9045349e-08
1.5618227e-07
5.2556211e-08
1.6021909e-07
5.6218841e-08
1.641912e-07
6.0033499e-08
1.6809054e-07
6.3999625e-08
1.7190885e-07
6.8116677e-08
1.7563754e-07
7.2383238e-08
1.7926834e-07
7.6797806e-08
1.8279273e-07
8.1358355e-08
1.862018e-07
8.6062309e-08
1.8948728e-07
9.0907009e-08
1.9264046e-07
9.5888572e-08
1.9565261e-07
1.0100395e-07
1.9851508e-07
1.0624832e-07
2.0121992e-07
1.1161752e-07
2.0375857e-07
1.1710623e-07
2.0612286e-07
1.2270924e-07
2.0830451e-07
1.284209e-07
2.1029621e-07
1.342349e-07
2.1209011e-07
1.4014499e-07
2.1367848e-07
1.4614377e-07
2.1505511e-07
1.5222456e-07
2.1621225e-07
1.583798e-07
2.1714342e-07
1.6460168e-07
2.1784306e-07
1.7088198e-07
2.183047e-07
1.7721251e-07
2.1852297e-07
1.8358452e-07
2.1849236e-07
1.8998981e-07
2.1820847e-07
1.9641882e-07
2.1766655e-07
2.0286232e-07
2.1686292e-07
2.0931156e-07
2.1579344e-07
2.1575674e-07
2.1445515e-07
2.2218847e-07
2.1284518e-07
2.2859681e-07
2.1096153e-07
2.3497215e-07
2.0880208e-07
2.4130487e-07
2.0636476e-07
2.4758502e-07
2.0364923e-07
2.5380275e-07
2.0065467e-07
2.599484e-07
1.9738071e-07
2.6601196e-07
1.9382819e-07
1.8999706e-07
1.521594e-11
1.7460866e-09
6.0871572e-11
5.2380485e-09
1.372551e-10
8.7322226e-09
2.4494602e-10
1.2231559e-08
3.8491838e-10
1.5739977e-08
5.5846135e-10
1.9260956e-08
7.6718152e-10
2.2797703e-08
1.0130406e-09
2.6353113e-08
1.2982516e-09
2.9929934e-08
1.6251827e-09
3.3530671e-08
1.9966841e-09
3.7157557e-08
2.4156871e-09
4.0812624e-08
2.8854148e-09
4.4497756e-08
3.4092632e-09
4.8214278e-08
3.9908349e-09
5.1963628e-08
4.6339295e-09
5.5746623e-08
5.3424088e-09
5.9563918e-08
6.1203597e-09
6.3415747e-08
6.9720124e-09
6.7302156e-08
7.9015759e-09
7.1222633e-08
8.9133999e-09
7.5176445e-08
1.0011676e-08
7.9162524e-08
1.1200944e-08
8.3179186e-08
1.2485469e-08
8.7224775e-08
1.3869573e-08
9.1296892e-08
1.5357484e-08
9.5392814e-08
1.6953319e-08
9.9509668e-08
1.866145e-08
1.0364377e-07
2.0485392e-08
1.0779167e-07
2.2429152e-08
1.1194901e-07
2.4496349e-08
1.1611132e-07
2.6690241e-08
1.202736e-07
2.9014113e-08
1.2443071e-07
3.1470821e-08
1.2857717e-07
3.4063147e-08
1.3270701e-07
3.6793417e-08
1.3681419e-07
3.9663691e-08
1.4089229e-07
4.2675633e-08
1.4493431e-07
4.5830972e-08
1.4893352e-07
4.9130561e-08
1.528826e-07
5.2575314e-08
1.5677441e-07
5.6165288e-08
1.6060115e-07
5.9900844e-08
1.6435505e-07
6.378131e-08
1.6802829e-07
6.7806059e-08
1.7161291e-07
7.1973608e-08
1.7510067e-07
7.628286e-08
1.7848351e-07
8.0731379e-08
1.8175332e-07
8.5316837e-08
1.8490191e-07
9.0036527e-08
1.8792076e-07
9.4886992e-08
1.9080214e-07
9.986474e-08
1.9353738e-07
1.0496573e-07
1.9611897e-07
1.1018562e-07
1.9853865e-07
1.1551959e-07
2.0078889e-07
1.2096217e-07
2.0286209e-07
1.2650796e-07
2.047503e-07
1.3215136e-07
2.0644681e-07
1.3788564e-07
2.0794417e-07
1.4370472e-07
2.0923596e-07
1.4960149e-07
2.1031555e-07
1.5556852e-07
2.1117634e-07
1.6159862e-07
2.1181282e-07
1.6768412e-07
2.1221934e-07
1.7381689e-07
2.1239014e-07
1.799886e-07
2.1232056e-07
1.8619124e-07
2.1200576e-07
1.9241588e-07
2.114419e-07
1.9865386e-07
2.1062498e-07
2.048961e-07
2.0955117e-07
2.1113351e-07
2.0821772e-07
2.1735702e-07
2.066218e-07
2.2355726e-07
2.0476115e-07
2.2972534e-07
2.026341e-07
2.3585116e-07
2.0023893e-07
2.4192573e-07
1.9757468e-07
2.4793954e-07
1.9464081e-07
2.5388282e-07
1.9143742e-07
2.5974657e-07
1.879644e-07
1.8422237e-07
1.626417e-11
1.7298218e-09
6.5065614e-11
5.1892458e-09
1.4667215e-10
8.6506161e-09
2.6162411e-10
1.2116608e-08
4.1081556e-10
1.5590773e-08
5.954674e-10
1.9076302e-08
8.1712226e-10
2.2576047e-08
1.0775102e-09
2.6092722e-08
1.3787322e-09
2.9628702e-08
1.7231375e-09
3.3186269e-08
2.1132231e-09
3.6767458e-08
2.5518113e-09
4.0374064e-08
3.0418757e-09
4.4007669e-08
3.5865884e-09
4.7669573e-08
4.1893763e-09
5.1360848e-08
4.8536578e-09
5.5082325e-08
5.5832498e-09
5.8834344e-08
6.3817544e-09
6.2617208e-08
7.2532725e-09
6.6430661e-08
8.2015859e-09
7.0274267e-08
9.2307837e-09
7.4147224e-08
1.0344994e-08
7.8048332e-08
1.1548183e-08
8.197603e-08
1.2844404e-08
8.5928499e-08
1.4237679e-08
8.9903603e-08
1.5732051e-08
9.3898461e-08
1.7331388e-08
9.7910295e-08
1.9039307e-08
1.0193588e-07
2.0859701e-08
1.0597123e-07
2.2795883e-08
1.1001285e-07
2.4851272e-08
1.1405588e-07
2.7029057e-08
1.1809584e-07
2.9332085e-08
1.2212766e-07
3.1763015e-08
1.2614619e-07
3.4324485e-08
1.3014564e-07
3.7018535e-08
1.3412012e-07
3.9847203e-08
1.3806358e-07
4.2812032e-08
1.4196953e-07
4.5914196e-08
1.4583137e-07
4.9154661e-08
1.4964213e-07
5.2534317e-08
1.5339475e-07
5.6053271e-08
1.5708223e-07
5.9711454e-08
1.6069681e-07
6.3508309e-08
1.6423146e-07
6.7443226e-08
1.6767802e-07
7.1514672e-08
1.7102914e-07
7.5721413e-08
1.7427684e-07
8.0061337e-08
1.7741342e-07
8.4532033e-08
1.8043108e-07
8.9130496e-08
1.8332217e-07
9.3854314e-08
1.8607838e-07
9.8699088e-08
1.8869251e-07
1.0366161e-07
1.9115647e-07
1.0873727e-07
1.9346301e-07
1.139216e-07
1.9560453e-07
1.1920964e-07
1.9757411e-07
1.2459584e-07
1.9936408e-07
1.3007468e-07
2.0096788e-07
1.3563997e-07
2.0237887e-07
1.4128543e-07
2.0359049e-07
1.470049e-07
2.0459608e-07
1.5279089e-07
2.0539034e-07
1.5863647e-07
2.0596733e-07
1.6453447e-07
2.063213e-07
1.70477e-07
2.0644761e-07
1.764562e-07
2.0634135e-07
1.8246372e-07
2.0599826e-07
1.8849141e-07
2.054141e-07
1.9453135e-07
2.0458522e-07
2.0057429e-07
2.0350813e-07
2.0661196e-07
2.0218005e-07
2.1263527e-07
2.0059839e-07
2.1863536e-07
1.9876095e-07
2.2460342e-07
1.9666609e-07
2.3053044e-07
1.9431202e-07
2.3640695e-07
1.9169804e-07
2.4222415e-07
1.8882366e-07
2.4797299e-07
1.8568857e-07
2.5364429e-07
1.8229309e-07
1.7863767e-07
1.7216306e-11
1.7126057e-09
6.8868687e-11
5.1375907e-09
1.5520688e-10
8.564284e-09
2.7672754e-10
1.1995083e-08
4.3428234e-10
1.5433225e-08
6.290257e-10
1.8881567e-08
8.623088e-10
2.2342744e-08
1.1359091e-09
2.5819123e-08
1.4516563e-09
2.9312962e-08
1.8117412e-09
3.2826195e-08
2.2185732e-09
3.636062e-08
2.6747419e-09
3.9917874e-08
3.1830873e-09
4.3499361e-08
3.746476e-09
4.7106143e-08
4.3681411e-09
5.0739189e-08
5.0513706e-09
5.4399099e-08
5.7995288e-09
5.8086175e-08
6.6162407e-09
6.1800502e-08
7.5050284e-09
6.5541889e-08
8.4696735e-09
6.9309615e-08
9.5138705e-09
7.310305e-08
1.0641442e-08
7.6920701e-08
1.1856199e-08
8.07613e-08
1.3161751e-08
8.4622951e-08
1.4562186e-08
8.8503195e-08
1.606076e-08
9.2399865e-08
1.7661324e-08
9.6309725e-08
1.9367487e-08
1.0022975e-07
2.1182344e-08
1.0415645e-07
2.3109403e-08
1.0808576e-07
2.5151701e-08
1.1201357e-07
2.7312131e-08
1.1593547e-07
2.9593233e-08
1.1984653e-07
3.1997843e-08
1.237416e-07
3.4527898e-08
1.2761553e-07
3.7185592e-08
1.314624e-07
3.9972517e-08
1.3527661e-07
4.2890312e-08
1.3905174e-07
4.5939982e-08
1.4278168e-07
4.912243e-08
1.4645967e-07
5.2438084e-08
1.5007914e-07
5.5887227e-08
1.5363302e-07
5.9469661e-08
1.5711442e-07
6.3184951e-08
1.6051607e-07
6.7032288e-08
1.6383075e-07
7.1010344e-08
1.6705109e-07
7.5117532e-08
1.7016958e-07
7.9351963e-08
1.7317907e-07
8.3711281e-08
1.7607166e-07
8.8192989e-08
1.7884052e-07
9.2793781e-08
1.8147754e-07
9.7510434e-08
1.839759e-07
1.0233909e-07
1.8632781e-07
1.0727565e-07
1.8852653e-07
1.1231543e-07
1.9056471e-07
1.1745408e-07
1.9243539e-07
1.226863e-07
1.9413199e-07
1.2800635e-07
1.9564792e-07
1.3340867e-07
1.9697649e-07
1.3888734e-07
1.9811172e-07
1.4443576e-07
1.9904773e-07
1.5004745e-07
1.9977862e-07
1.5571551e-07
2.0029931e-07
1.6143265e-07
2.0060406e-07
1.671919e-07
2.006884e-07
1.7298538e-07
2.0054794e-07
1.7880516e-07
2.001784e-07
1.8464374e-07
1.9957555e-07
1.9049295e-07
1.9873595e-07
1.9634428e-07
1.9765677e-07
2.0218957e-07
1.9633477e-07
2.0801999e-07
1.947679e-07
2.1382748e-07
1.9295343e-07
2.1960331e-07
1.9089029e-07
2.2533854e-07
1.8857668e-07
2.3102444e-07
1.8601214e-07
2.3665253e-07
1.8319567e-07
2.4221377e-07
1.8012732e-07
2.476997e-07
1.7680731e-07
1.7323595e-07
1.8074891e-11
1.6945317e-09
7.2305802e-11
5.0833605e-09
1.6291574e-10
8.4736687e-09
2.9038229e-10
1.1867617e-08
4.5549851e-10
1.5268106e-08
6.593077e-10
1.8677749e-08
9.0315964e-10
2.2098902e-08
1.1885744e-09
2.553371e-08
1.517371e-09
2.8984149e-08
1.8915886e-09
3.2451974e-08
2.3134461e-09
3.5938763e-08
2.7853922e-09
3.9445956e-08
3.3099834e-09
4.2974796e-08
3.8900714e-09
4.6526092e-08
4.5285036e-09
5.0100699e-08
5.2284333e-09
5.3699158e-08
5.9930111e-09
5.7321594e-08
6.8255346e-09
6.0967978e-08
7.7294127e-09
6.4638008e-08
8.7080396e-09
6.8331015e-08
9.7649683e-09
7.2046096e-08
1.0903648e-08
7.5782047e-08
1.2127681e-08
7.9537277e-08
1.344063e-08
8.330997e-08
1.484575e-08
8.7098083e-08
1.6346769e-08
9.0898902e-08
1.7946767e-08
9.4709706e-08
1.964915e-08
9.8527317e-08
2.1457149e-08
1.0234846e-07
2.3373622e-08
1.0616923e-07
2.540149e-08
1.0998576e-07
2.7543417e-08
1.1379356e-07
2.9801923e-08
1.1758801e-07
3.2179265e-08
1.2136425e-07
3.4677511e-08
1.2511725e-07
3.7298561e-08
1.2884148e-07
4.0043906e-08
1.3253123e-07
4.2914914e-08
1.3618074e-07
4.5912594e-08
1.3978402e-07
4.9037595e-08
1.4333464e-07
5.2290543e-08
1.4682622e-07
5.5671185e-08
1.502523e-07
5.9179781e-08
1.5360589e-07
6.281549e-08
1.5688038e-07
6.6577501e-08
1.6006874e-07
7.0464457e-08
1.6316401e-07
7.4475059e-08
1.6615922e-07
7.8607103e-08
1.6904692e-07
8.2858622e-08
1.718203e-07
8.7226747e-08
1.744723e-07
9.1708849e-08
1.7699554e-07
9.6301211e-08
1.7938342e-07
1.0100055e-07
1.816285e-07
1.0580268e-07
1.8372446e-07
1.1070312e-07
1.8566421e-07
1.1569755e-07
1.8744099e-07
1.2078086e-07
1.8904852e-07
1.259481e-07
1.9048068e-07
1.3119335e-07
1.9173124e-07
1.365109e-07
1.9279413e-07
1.418949e-07
1.9366379e-07
1.4733849e-07
1.9433509e-07
1.5283565e-07
1.9480221e-07
1.5837887e-07
1.9506074e-07
1.6396158e-07
1.9510575e-07
1.6957623e-07
1.949334e-07
1.7521564e-07
1.9453915e-07
1.8087181e-07
1.9391939e-07
1.865373e-07
1.9307048e-07
1.9220406e-07
1.9199004e-07
1.9786394e-07
1.9067495e-07
2.035091e-07
1.8912272e-07
2.0913093e-07
1.8733165e-07
2.1472134e-07
1.8529981e-07
2.2027195e-07
1.8302603e-07
2.2577427e-07
1.8050979e-07
2.3122018e-07
1.7774986e-07
2.3660099e-07
1.7474653e-07
2.4190822e-07
1.7150001e-07
1.6801032e-07
1.8846107e-11
1.6756856e-09
7.5391219e-11
5.0268158e-09
1.6985451e-10
8.3792097e-09
3.0266574e-10
1.17348e-08
4.7456781e-10
1.5096197e-08
6.8657226e-10
1.8465757e-08
9.3985492e-10
2.1845608e-08
1.235929e-09
2.5237652e-08
1.5764527e-09
2.8643636e-08
1.9633123e-09
3.2065123e-08
2.3985743e-09
3.5503474e-08
2.8845301e-09
3.896002e-08
3.4236107e-09
4.2435675e-08
4.0183731e-09
4.5931295e-08
4.6716069e-09
4.9447488e-08
5.3861926e-09
5.29846e-08
6.1650816e-09
5.6542716e-08
7.0112906e-09
6.0121741e-08
7.9280836e-09
6.3721214e-08
8.9185846e-09
6.7340474e-08
9.9860986e-09
7.0978615e-08
1.1133813e-08
7.4634318e-08
1.2365107e-08
7.8306e-08
1.3683208e-08
8.1991852e-08
1.5091401e-08
8.5689889e-08
1.6592749e-08
8.9397486e-08
1.8190578e-08
9.3111902e-08
1.988771e-08
9.6830188e-08
2.1687173e-08
1.0054902e-07
2.3591759e-08
1.0426469e-07
2.5604027e-08
1.0797346e-07
2.7726476e-08
1.1167106e-07
2.9961437e-08
1.1535311e-07
3.2311035e-08
1.1901473e-07
3.4777118e-08
1.2265112e-07
3.7361412e-08
1.2625716e-07
4.0065173e-08
1.2982744e-07
4.2889772e-08
1.3335623e-07
4.583601e-08
1.3683778e-07
4.8904495e-08
1.4026613e-07
5.2095639e-08
1.4363506e-07
5.5409386e-08
1.4693845e-07
5.8845538e-08
1.5016982e-07
6.2403428e-08
1.5332237e-07
6.608226e-08
1.5638991e-07
6.9880764e-08
1.593655e-07
7.3797397e-08
1.6224256e-07
7.7830185e-08
1.6501409e-07
8.1976983e-08
1.6767352e-07
8.6235423e-08
1.7021393e-07
9.0602169e-08
1.7262879e-07
9.5074542e-08
1.7491109e-07
9.964852e-08
1.770544e-07
1.0432063e-07
1.7905236e-07
1.0908666e-07
1.8089808e-07
1.1394203e-07
1.8258555e-07
1.1888214e-07
1.8410858e-07
1.2390154e-07
1.8546117e-07
1.2899548e-07
1.8663731e-07
1.3415786e-07
1.8763179e-07
1.3938302e-07
1.8843858e-07
1.4466498e-07
1.8905329e-07
1.4999684e-07
1.894702e-07
1.5537267e-07
1.8968486e-07
1.6078514e-07
1.8969316e-07
1.6622779e-07
1.8949074e-07
1.7169311e-07
1.8907372e-07
1.7717379e-07
1.8843869e-07
1.826625e-07
1.8758183e-07
1.8815144e-07
1.8650102e-07
1.9363293e-07
1.8519336e-07
1.9909931e-07
1.8365626e-07
2.0454256e-07
1.8188824e-07
2.0995479e-07
1.7988757e-07
2.1532764e-07
1.7765336e-07
2.206532e-07
1.7518409e-07
2.2592331e-07
1.7247971e-07
2.3113013e-07
1.6953984e-07
2.3626535e-07
1.6636473e-07
1.6295483e-07
1.9536965e-11
1.6561489e-09
7.8155679e-11
4.9681976e-09
1.7606259e-10
8.2813027e-09
3.1367171e-10
1.1597191e-08
4.916681e-10
1.4918201e-08
7.1094416e-10
1.8246479e-08
9.7269747e-10
2.1583862e-08
1.2782684e-09
2.4932083e-08
1.6292212e-09
2.8292677e-08
2.0273269e-09
3.166701e-08
2.4745063e-09
3.5056307e-08
2.9729022e-09
3.8461608e-08
3.5247711e-09
4.1883813e-08
4.1325061e-09
4.5323564e-08
4.798701e-09
4.878131e-08
5.5260161e-09
5.2257261e-08
6.3172196e-09
5.5751489e-08
7.1752167e-09
5.9263754e-08
8.1028817e-09
6.2793569e-08
9.1032184e-09
6.6340111e-08
1.017929e-08
6.990251e-08
1.1334078e-08
7.3479493e-08
1.2570737e-08
7.706939e-08
1.3892186e-08
8.067043e-08
1.5301544e-08
8.4280541e-08
1.6801712e-08
8.789729e-08
1.8395582e-08
9.1518055e-08
2.0086005e-08
9.5139801e-08
2.1875612e-08
9.8759359e-08
2.3766972e-08
1.0237326e-07
2.5762612e-08
1.0597786e-07
2.7864781e-08
1.0956891e-07
3.0075572e-08
1.1314231e-07
3.2396843e-08
1.1669346e-07
3.4830438e-08
1.2021761e-07
3.7377723e-08
1.2370986e-07
4.0040158e-08
1.2716501e-07
4.2818645e-08
1.305777e-07
4.5714009e-08
1.3394243e-07
4.8726772e-08
1.3725344e-07
5.1857149e-08
1.4050476e-07
5.5105134e-08
1.4369045e-07
5.8470502e-08
1.4680436e-07
6.1952562e-08
1.4984047e-07
6.5550251e-08
1.5279218e-07
6.9262499e-08
1.556533e-07
7.3087807e-08
1.5841717e-07
7.7024124e-08
1.6107771e-07
8.1069427e-08
1.6362825e-07
8.522111e-08
1.660622e-07
8.947664e-08
1.6837309e-07
9.3832608e-08
1.7055516e-07
9.8285704e-08
1.7260144e-07
1.0283237e-07
1.7450574e-07
1.0746833e-07
1.7626205e-07
1.1218935e-07
1.7786458e-07
1.1699085e-07
1.7930699e-07
1.2186812e-07
1.8058406e-07
1.2681566e-07
1.8168969e-07
1.3182841e-07
1.826189e-07
1.3690051e-07
1.833666e-07
1.4202621e-07
1.8392737e-07
1.471995e-07
1.8429707e-07
1.5241373e-07
1.844707e-07
1.5766272e-07
1.8444422e-07
1.6293953e-07
1.8421399e-07
1.6823707e-07
1.8377627e-07
1.7354867e-07
1.8312699e-07
1.7886692e-07
1.8226338e-07
1.8418482e-07
1.8118319e-07
1.8949467e-07
1.7988347e-07
1.9478876e-07
1.7836218e-07
2.0005983e-07
1.766172e-07
2.0530018e-07
1.7464729e-07
2.1050179e-07
1.7245168e-07
2.1565704e-07
1.7002894e-07
2.2075811e-07
1.6737858e-07
2.2579734e-07
1.6450066e-07
2.3076684e-07
1.6139516e-07
1.5806293e-07
2.0154695e-11
1.6359953e-09
8.062791e-11
4.9077238e-09
1.8161027e-10
8.1803183e-09
3.2349844e-10
1.1455306e-08
5.0690263e-10
1.4734793e-08
7.3271931e-10
1.8020663e-08
1.0019734e-09
2.1314619e-08
1.3159901e-09
2.4618076e-08
1.6761976e-09
2.7932474e-08
2.0842598e-09
3.1258941e-08
2.5419609e-09
3.4598632e-08
3.0512648e-09
3.7952299e-08
3.6143399e-09
4.1320725e-08
4.2333875e-09
4.4704521e-08
4.9108162e-09
4.8103868e-08
5.6491057e-09
5.1518982e-08
6.4508481e-09
5.4949766e-08
7.3186815e-09
5.8395912e-08
8.2553729e-09
6.1856814e-08
9.2637439e-09
6.5331781e-08
1.0346516e-08
6.8819767e-08
1.1506598e-08
7.231942e-08
1.2746812e-08
7.5829138e-08
1.4069907e-08
7.9347312e-08
1.5478845e-08
8.2871644e-08
1.6976214e-08
8.6399944e-08
1.856476e-08
8.9929495e-08
2.0247049e-08
9.3457564e-08
2.2025466e-08
9.6980904e-08
2.3902626e-08
1.0049618e-07
2.5880644e-08
1.0399973e-07
2.7961633e-08
1.0748795e-07
3.0147549e-08
1.1095641e-07
3.2440023e-08
1.1440091e-07
3.4840751e-08
1.1781689e-07
3.7351035e-08
1.2119954e-07
3.9972149e-08
1.2454388e-07
4.2704945e-08
1.2784493e-07
4.5549999e-08
1.3109732e-07
4.8507917e-08
1.3429551e-07
5.157871e-08
1.3743391e-07
5.476233e-08
1.4050685e-07
5.8058366e-08
1.4350835e-07
6.146614e-08
1.4643265e-07
6.4984913e-08
1.4927349e-07
6.8613167e-08
1.5202492e-07
7.2349575e-08
1.5468089e-07
7.6192202e-08
1.5723513e-07
8.0138946e-08
1.5968136e-07
8.4187414e-08
1.6201371e-07
8.8334841e-08
1.6422569e-07
9.2578445e-08
1.6631157e-07
9.6914414e-08
1.682654e-07
1.0133949e-07
1.700805e-07
1.0584968e-07
1.7175183e-07
1.1044094e-07
1.7327329e-07
1.1510875e-07
1.746391e-07
1.1984867e-07
1.7584429e-07
1.2465525e-07
1.7688314e-07
1.2952361e-07
1.7775059e-07
1.3444819e-07
1.7844189e-07
1.3942344e-07
1.7895229e-07
1.4444346e-07
1.7927698e-07
1.4950205e-07
1.794122e-07
1.5459297e-07
1.7935332e-07
1.5971005e-07
1.7909699e-07
1.6484628e-07
1.7863986e-07
1.6999504e-07
1.7797826e-07
1.7514933e-07
1.7710919e-07
1.8030214e-07
1.760303e-07
1.8544642e-07
1.7473925e-07
1.9057471e-07
1.7323396e-07
1.9568007e-07
1.71512e-07
2.007548e-07
1.6957259e-07
2.057915e-07
1.6741476e-07
2.1078264e-07
1.6503783e-07
2.1572077e-07
1.6244041e-07
2.2059845e-07
1.5962308e-07
2.254081e-07
1.5658558e-07
1.5332879e-07
2.0701937e-11
1.6152931e-09
8.2821427e-11
4.8456048e-09
1.8653697e-10
8.0766084e-09
3.3220979e-10
1.1309631e-08
5.2043671e-10
1.4546571e-08
7.5201223e-10
1.778909e-08
1.0279184e-09
2.1038705e-08
1.3493795e-09
2.4296609e-08
1.7177488e-09
2.7564118e-08
2.1345267e-09
3.0842174e-08
2.6014322e-09
3.4131703e-08
3.1202662e-09
3.7433451e-08
3.6930461e-09
4.0747952e-08
4.3219037e-09
4.4075663e-08
5.0089426e-09
4.7416825e-08
5.7565081e-09
5.0771362e-08
6.5671087e-09
5.4139201e-08
7.4431428e-09
5.7519876e-08
8.3871075e-09
6.0912837e-08
9.4017246e-09
6.4317169e-08
1.0489535e-08
6.7731958e-08
1.1653148e-08
7.1155782e-08
1.2895258e-08
7.4587043e-08
1.4218462e-08
7.8024086e-08
1.5625367e-08
8.1464705e-08
1.7118459e-08
8.4906842e-08
1.8700326e-08
8.834766e-08
2.0373163e-08
9.1784671e-08
2.2139428e-08
9.5214635e-08
2.4001362e-08
9.8634279e-08
2.5960829e-08
1.0204028e-07
2.8019948e-08
1.0542884e-07
3.0180395e-08
1.0879599e-07
3.2443675e-08
1.1213754e-07
3.4811396e-08
1.1544917e-07
3.7284748e-08
1.1872623e-07
3.9864756e-08
1.2196395e-07
4.2552075e-08
1.2515755e-07
4.5347515e-08
1.2830189e-07
4.8251235e-08
1.3139176e-07
5.1263388e-08
1.3442178e-07
5.4383784e-08
1.3738643e-07
5.7612016e-08
1.4028007e-07
6.0947427e-08
1.4309719e-07
6.4389036e-08
1.4583181e-07
6.7935594e-08
1.4847839e-07
7.1585598e-08
1.5103093e-07
7.5337041e-08
1.5348349e-07
7.9188195e-08
1.5583031e-07
8.3136501e-08
1.5806538e-07
8.7179225e-08
1.6018288e-07
9.1313504e-08
1.6217728e-07
9.553648e-08
1.6404251e-07
9.9843883e-08
1.6577297e-07
1.0423276e-07
1.6736303e-07
1.0869867e-07
1.6880729e-07
1.1323732e-07
1.7010043e-07
1.1784437e-07
1.7123708e-07
1.2251487e-07
1.7221262e-07
1.2724411e-07
1.7302148e-07
1.3202631e-07
1.7365964e-07
1.3685648e-07
1.7412208e-07
1.4172883e-07
1.744046e-07
1.4663739e-07
1.7450363e-07
1.5157648e-07
1.7441437e-07
1.5653921e-07
1.7413411e-07
1.6151961e-07
1.7365931e-07
1.6651146e-07
1.7298645e-07
1.7150752e-07
1.7211317e-07
1.7650153e-07
1.7103621e-07
1.8148651e-07
1.6975425e-07
1.864554e-07
1.6826504e-07
1.9140074e-07
1.6656651e-07
1.9631579e-07
1.6465747e-07
2.0119351e-07
1.6253717e-07
2.060269e-07
1.6020463e-07
2.1080804e-07
1.5765921e-07
2.1552998e-07
1.5490103e-07
2.2018563e-07
1.5192995e-07
1.4874684e-07
2.1186377e-11
1.5941061e-09
8.4756879e-11
4.7820388e-09
1.9088495e-10
7.9704845e-09
3.3989801e-10
1.1160617e-08
5.3236269e-10
1.4354108e-08
7.6900541e-10
1.7552442e-08
1.0507795e-09
2.0756934e-08
1.3787568e-09
2.3968638e-08
1.7542323e-09
2.7188637e-08
2.1786121e-09
3.041779e-08
2.6534928e-09
3.3656825e-08
3.1805933e-09
3.6906373e-08
3.7617148e-09
4.016682e-08
4.3988298e-09
4.3438566e-08
5.0940132e-09
4.6721674e-08
5.8494128e-09
5.0016006e-08
6.6672452e-09
5.3321371e-08
7.5498036e-09
5.6637299e-08
8.4995481e-09
5.9963108e-08
9.5187625e-09
6.3297937e-08
1.0609983e-08
6.6640755e-08
1.1775656e-08
6.9990081e-08
1.3018144e-08
7.3344561e-08
1.4339924e-08
7.6702305e-08
1.5743424e-08
8.0061233e-08
1.7230916e-08
8.3419316e-08
1.8804632e-08
8.6773921e-08
2.0466989e-08
9.0122357e-08
2.2219987e-08
9.346162e-08
2.4065611e-08
9.6788654e-08
2.6005857e-08
1.0010004e-07
2.8042399e-08
1.0339235e-07
3.0176925e-08
1.0666151e-07
3.2410778e-08
1.0990363e-07
3.4745447e-08
1.1311462e-07
3.7181836e-08
1.1628986e-07
3.9720823e-08
1.1942493e-07
4.2363178e-08
1.2251514e-07
4.5109518e-08
1.2555568e-07
4.7959858e-08
1.2854137e-07
5.0914442e-08
1.3146718e-07
5.3972937e-08
1.3432789e-07
5.7134884e-08
1.3711819e-07
6.0399469e-08
1.3983258e-07
6.3765752e-08
1.4246557e-07
6.7232575e-08
1.4501158e-07
7.0798396e-08
1.4746512e-07
7.4461426e-08
1.4982047e-07
7.8219651e-08
1.5207208e-07
8.2070675e-08
1.5421421e-07
8.6011996e-08
1.5624155e-07
9.0040864e-08
1.581486e-07
9.4153833e-08
1.5992938e-07
9.8347902e-08
1.6157893e-07
1.0261924e-07
1.6309183e-07
1.0696398e-07
1.6446249e-07
1.1137781e-07
1.6568655e-07
1.1585658e-07
1.6675839e-07
1.2039591e-07
1.6767333e-07
1.249905e-07
1.6842694e-07
1.2963547e-07
1.6901456e-07
1.3432562e-07
1.6943195e-07
1.3905551e-07
1.6967495e-07
1.4381943e-07
1.6973953e-07
1.4861145e-07
1.6962239e-07
1.5342592e-07
1.6931968e-07
1.5825654e-07
1.688287e-07
1.6309691e-07
1.6814614e-07
1.6794081e-07
1.6726924e-07
1.7278155e-07
1.6619553e-07
1.7761268e-07
1.6492305e-07
1.8242752e-07
1.6345035e-07
1.8721916e-07
1.6177478e-07
1.9198067e-07
1.5989602e-07
1.9670527e-07
1.5781253e-07
2.0138588e-07
1.5552398e-07
2.0601597e-07
1.5302922e-07
2.1058814e-07
1.5032891e-07
2.1509534e-07
1.4742276e-07
1.4431129e-07
2.1613381e-11
1.5724935e-09
8.6465943e-11
4.717189e-09
1.9469868e-10
7.8622424e-09
3.4664258e-10
1.1008674e-08
5.4279711e-10
1.4157954e-08
7.8385134e-10
1.7311388e-08
1.0707297e-09
2.0470067e-08
1.4043512e-09
2.3635005e-08
1.7859885e-09
2.6807004e-08
2.216939e-09
2.9986834e-08
2.6986679e-09
3.3175105e-08
3.2327923e-09
3.6372257e-08