/*--------------------------------*- C++ -*----------------------------------*\
| =========                 |                                                 |
| \\      /  F ield         | OpenFOAM: The Open Source CFD Toolbox           |
|  \\    /   O peration     | Version:  2306                                  |
|   \\  /    A nd           | Website:  www.openfoam.com                      |
|    \\/     M anipulation  |                                                 |
\*---------------------------------------------------------------------------*/
FoamFile
{
    version     2.0;
    format      ascii;
    arch        "LSB;label=32;scalar=64";
    class       volVectorField;
    location    "0.22";
    object      U;
}
// * * * * * * * * * * * * * * * * * * * * * * * * * * * * * * * * * * * * * //

dimensions      [0 1 -1 0 0 0 0];

internalField   nonuniform List<vector> 
6400
(
(2.2752497e-07 0.00011552146 -6.3104255e-20)
(4.9334974e-07 0.00011552071 -1.9480058e-20)
(8.128229e-07 0.00011556754 -3.0235635e-20)
(1.1289301e-06 0.00011566177 -1.6831359e-20)
(1.4597812e-06 0.00011581337 -3.8169323e-21)
(1.8040772e-06 0.00011602098 -2.2535271e-20)
(2.1642896e-06 0.00011628285 -1.4139613e-20)
(2.5445887e-06 0.00011659594 -1.3117442e-20)
(2.9478188e-06 0.00011695797 -4.969307e-21)
(3.3773391e-06 0.00011736649 -1.4664925e-21)
(3.8355797e-06 0.00011781914 4.5729154e-22)
(4.3257001e-06 0.00011831353 -5.9841863e-22)
(4.850609e-06 0.00011884715 -1.1078593e-21)
(5.4129936e-06 0.00011941753 7.4892562e-21)
(6.014803e-06 0.00012002153 7.1040583e-22)
(6.6583858e-06 0.00012065681 -3.8331286e-21)
(7.3465049e-06 0.00012132019 6.3394525e-21)
(8.0805931e-06 0.00012200849 1.3905408e-20)
(8.8625331e-06 0.00012271873 1.7707802e-20)
(9.6943406e-06 0.00012344742 1.8254198e-20)
(1.0577224e-05 0.0001241912 1.0985816e-20)
(1.151257e-05 0.00012494659 1.1198342e-20)
(1.2501793e-05 0.00012571002 3.908397e-21)
(1.3545626e-05 0.00012647794 2.8726488e-21)
(1.4644887e-05 0.0001272462 1.2953876e-20)
(1.5800132e-05 0.00012801179 1.6306411e-20)
(1.7011672e-05 0.00012877018 1.0546292e-20)
(1.8279903e-05 0.00012951774 -2.2041079e-21)
(1.960481e-05 0.00013025086 -3.6311757e-21)
(2.0986128e-05 0.00013096549 1.0989147e-20)
(2.2423482e-05 0.00013165775 1.8398985e-20)
(2.3916398e-05 0.00013232385 9.328892e-21)
(2.54641e-05 0.00013295992 -5.7837834e-21)
(2.7065541e-05 0.00013356239 -7.6368207e-21)
(2.8719633e-05 0.0001341274 1.0306046e-20)
(3.0425185e-05 0.00013465119 1.6392864e-20)
(3.2180585e-05 0.00013513032 1.0510479e-20)
(3.3984228e-05 0.00013556134 -9.496917e-21)
(3.5834312e-05 0.0001359408 2.0249385e-21)
(3.7728806e-05 0.00013626534 1.3537104e-20)
(3.9665598e-05 0.00013653191 1.534125e-20)
(4.1642421e-05 0.00013673721 9.56469e-21)
(4.365687e-05 0.0001368785 -4.4149794e-21)
(4.5706329e-05 0.00013695297 -7.9782508e-21)
(4.7788163e-05 0.00013695791 -1.5485338e-20)
(4.9899649e-05 0.00013689081 -8.9426241e-21)
(5.2037848e-05 0.00013674938 -1.9712859e-21)
(5.4199745e-05 0.00013653141 -8.9429127e-21)
(5.6382345e-05 0.00013623484 -1.4090798e-20)
(5.8582487e-05 0.00013585788 -1.3462418e-20)
(6.0796894e-05 0.00013539885 -6.5786579e-21)
(6.3022348e-05 0.00013485615 4.6046956e-21)
(6.5255497e-05 0.00013422868 -3.5861483e-22)
(6.7492915e-05 0.00013351509 8.7760617e-21)
(6.9731272e-05 0.00013271472 1.7237499e-20)
(7.196712e-05 0.00013182646 1.4793861e-21)
(7.4196973e-05 0.00013084994 -2.6158531e-21)
(7.6417455e-05 0.00012978471 -3.6878508e-21)
(7.8625086e-05 0.00012863061 8.6917081e-21)
(8.0816415e-05 0.00012738756 1.6907625e-20)
(8.2988134e-05 0.00012605564 -8.226483e-21)
(8.513685e-05 0.00012463528 -1.3395298e-20)
(8.7259139e-05 0.00012312686 -1.1622071e-20)
(8.935173e-05 0.00012153108 8.8150777e-21)
(9.1411465e-05 0.00011984898 1.6034539e-20)
(9.343517e-05 0.00011808117 -8.2665963e-21)
(9.5419673e-05 0.00011622909 -7.2169473e-21)
(9.7361991e-05 0.00011429404 -2.9826145e-21)
(9.9259211e-05 0.00011227724 1.0013358e-20)
(0.00010110833 0.00011018038 1.9957255e-20)
(0.00010290664 0.00010800522 -3.9685807e-21)
(0.00010465151 0.0001057536 -1.2303321e-20)
(0.00010634025 0.00010342747 -7.0734292e-21)
(0.00010797041 0.00010102897 7.382245e-21)
(0.00010953966 9.8560254e-05 1.4880638e-20)
(0.00011104576 9.6023617e-05 -5.4253002e-21)
(0.00011248648 9.3421426e-05 -8.4347866e-21)
(0.00011385978 9.0756248e-05 -1.4716304e-21)
(0.00011516378 8.8030612e-05 1.0730176e-20)
(0.00011639669 8.5247125e-05 1.8569975e-20)
(2.6046374e-07 0.00011483692 -1.003029e-19)
(5.6841727e-07 0.00011483561 -8.8394289e-20)
(9.3587999e-07 0.00011487772 -7.0579622e-20)
(1.2986685e-06 0.00011496311 -5.2812037e-20)
(1.6767819e-06 0.00011510119 -3.6402677e-20)
(2.0674006e-06 0.00011529075 -4.1795242e-20)
(2.4729503e-06 0.00011552995 -4.4086159e-20)
(2.8972781e-06 0.00011581609 -1.8012717e-20)
(3.3432602e-06 0.00011614718 -1.599197e-20)
(3.813814e-06 0.00011652056 -2.0462779e-20)
(4.3113144e-06 0.00011693431 -1.2635081e-20)
(4.8386494e-06 0.00011738603 -6.1428562e-21)
(5.3985078e-06 0.00011787352 -4.4568991e-21)
(5.9932505e-06 0.00011839425 -4.825899e-22)
(6.6250085e-06 0.00011894554 4.5340035e-21)
(7.2960379e-06 0.0001195249 -2.2391921e-21)
(8.00844e-06 0.00012012955 -2.0502409e-21)
(8.7639138e-06 0.00012075642 -4.1030846e-21)
(9.5642775e-06 0.00012140275 -1.2937492e-21)
(1.0411201e-05 0.00012206528 4.2319474e-21)
(1.1305961e-05 0.00012274081 -7.114733e-22)
(1.2249771e-05 0.00012342607 -2.6548102e-21)
(1.3243799e-05 0.00012411776 5.2480184e-21)
(1.4288906e-05 0.0001248123 2.3138616e-22)
(1.5385974e-05 0.00012550634 2.9515431e-21)
(1.6535266e-05 0.00012619632 6.867065e-21)
(1.7737143e-05 0.00012687858 -2.0732123e-21)
(1.8992082e-05 0.00012754962 -1.1510573e-20)
(2.0299861e-05 0.00012820572 -1.2927303e-20)
(2.1660329e-05 0.00012884344 -3.3434383e-21)
(2.3073158e-05 0.00012945885 4.4890644e-21)
(2.4537789e-05 0.00013004847 -4.6575283e-21)
(2.6053532e-05 0.00013060885 -1.2629235e-20)
(2.7619472e-05 0.00013113628 -1.4635272e-20)
(2.9234467e-05 0.00013162742 -6.5640219e-21)
(3.0897372e-05 0.00013207867 -2.8228473e-21)
(3.2606721e-05 0.00013248675 -8.1933538e-21)
(3.4360906e-05 0.00013284842 -1.3035724e-20)
(3.6158358e-05 0.0001331605 -1.5458681e-20)
(3.7997087e-05 0.00013341971 -1.5316232e-20)
(3.9875067e-05 0.00013362326 -1.3685319e-20)
(4.1790169e-05 0.00013376806 -1.610411e-20)
(4.3740064e-05 0.00013385146 -2.0565208e-20)
(4.5722424e-05 0.00013387088 -2.2961282e-20)
(4.7734703e-05 0.0001338237 -1.9690881e-20)
(4.9774245e-05 0.00013370765 -1.3582935e-20)
(5.1838303e-05 0.0001335205 -1.9224292e-20)
(5.3924086e-05 0.00013326015 -2.3540145e-20)
(5.6028639e-05 0.00013292471 -2.7236962e-20)
(5.814899e-05 0.0001325125 -1.6029383e-20)
(6.0282184e-05 0.00013202183 -1.483271e-20)
(6.2424991e-05 0.00013145141 -1.4318768e-20)
(6.4574325e-05 0.00013079997 -1.504266e-20)
(6.6726961e-05 0.00013006637 -1.2096861e-20)
(6.8879656e-05 0.00012924988 9.8325872e-21)
(7.1029272e-05 0.00012834958 3.4843648e-21)
(7.3172505e-05 0.00012736508 -8.2272707e-21)
(7.5305997e-05 0.00012629594 -1.2521201e-20)
(7.7426514e-05 0.00012514194 -1.0885781e-20)
(7.95309e-05 0.00012390308 8.3860512e-21)
(8.1615857e-05 0.00012257949 6.0637046e-22)
(8.3678158e-05 0.00012117149 -1.3881691e-20)
(8.5714646e-05 0.00011967949 -1.6725538e-20)
(8.7722239e-05 0.00011810408 -1.4536412e-20)
(8.9697816e-05 0.00011644627 5.3920474e-21)
(9.1638367e-05 0.0001147067 1.8714208e-21)
(9.3540963e-05 0.00011288667 -7.2650995e-21)
(9.5402689e-05 0.00011098748 -9.6309041e-21)
(9.7220755e-05 0.00010901018 -9.2823264e-21)
(9.8992436e-05 0.00010695647 9.3882174e-21)
(0.00010071507 0.00010482802 3.2065586e-21)
(0.00010238608 0.0001026265 -5.1810687e-21)
(0.00010400298 0.00010035386 -1.2492678e-20)
(0.00010556338 9.8012033e-05 -1.4157773e-20)
(0.00010706503 9.5603106e-05 8.0627211e-21)
(0.00010850582 9.3129248e-05 5.9747571e-21)
(0.00010988365 9.0592844e-05 -2.9063241e-21)
(0.00011119653 8.7996167e-05 -8.9259139e-21)
(0.00011244267 8.534166e-05 -1.5572987e-20)
(0.00011362031 8.2631773e-05 -4.8622741e-21)
(2.9052324e-07 0.00011406011 -9.389847e-20)
(6.3729574e-07 0.00011405823 -7.3753433e-20)
(1.048589e-06 0.0001140958 -5.3452038e-20)
(1.4540862e-06 0.00011417292 -2.9466142e-20)
(1.8754755e-06 0.00011429833 -3.3257345e-20)
(2.3082713e-06 0.00011447092 -3.2909855e-20)
(2.7552788e-06 0.00011468895 -1.7442987e-20)
(3.2199422e-06 0.0001149499 -6.5108025e-21)
(3.7049181e-06 0.00011525194 -1.7536281e-20)
(4.2128502e-06 0.0001155925 1.2792722e-21)
(4.7460126e-06 0.00011596979 1.0692634e-20)
(5.307083e-06 0.00011638169 6.9978978e-21)
(5.8986077e-06 0.00011682596 1.4344157e-20)
(6.5227339e-06 0.00011730027 1.1098607e-20)
(7.1814924e-06 0.00011780221 1.5944536e-20)
(7.8769971e-06 0.00011832933 9.6258313e-21)
(8.6111283e-06 0.00011887904 1.1046861e-20)
(9.385651e-06 0.00011944849 1.291733e-20)
(1.0202125e-05 0.00012003506 1.1919931e-20)
(1.1062088e-05 0.00012063573 1.075169e-20)
(1.1966795e-05 0.00012124741 -1.5416289e-21)
(1.2917314e-05 0.00012186715 1.6495538e-21)
(1.3914777e-05 0.00012249167 2.6716276e-22)
(1.496e-05 0.00012311781 -9.6221152e-21)
(1.6053795e-05 0.00012374238 -4.4125927e-21)
(1.7196359e-05 0.00012436179 -4.3814994e-21)
(1.8388017e-05 0.00012497294 -4.7460852e-21)
(1.9629292e-05 0.00012557235 -1.1925379e-20)
(2.0919793e-05 0.00012615661 -1.9629869e-20)
(2.2259464e-05 0.0001267224 -1.4143082e-20)
(2.3648128e-05 0.00012726608 -1.4225691e-20)
(2.5085066e-05 0.00012778444 -1.4898576e-20)
(2.6569604e-05 0.00012827404 -1.8941989e-20)
(2.8100963e-05 0.00012873158 -2.8244399e-20)
(2.9678081e-05 0.0001291538 -2.5681671e-20)
(3.1299707e-05 0.00012953747 -2.0807066e-20)
(3.2964572e-05 0.00012987937 -1.8716417e-20)
(3.4671208e-05 0.00013017647 -1.7795068e-20)
(3.6417957e-05 0.00013042579 -3.0845815e-20)
(3.8203018e-05 0.00013062424 -2.4770145e-20)
(4.002456e-05 0.00013076923 -1.6108846e-20)
(4.1880541e-05 0.00013085784 -2.1910145e-20)
(4.3768674e-05 0.00013088754 -2.0375843e-20)
(4.5686731e-05 0.00013085587 -2.5345269e-20)
(4.7632329e-05 0.0001307605 -1.9369599e-20)
(4.9603034e-05 0.00013059919 -2.0079832e-20)
(5.1596221e-05 0.00013036982 -2.9142972e-20)
(5.3609196e-05 0.00013007047 -2.8089967e-20)
(5.5639265e-05 0.00012969932 -2.7348956e-20)
(5.7683478e-05 0.00012925489 -1.8167473e-20)
(5.9738992e-05 0.00012873532 -1.5096038e-20)
(6.1802905e-05 0.0001281398 -2.3381283e-20)
(6.3872244e-05 0.00012746677 -1.9343764e-20)
(6.594396e-05 0.00012671538 -1.8038066e-20)
(6.8015017e-05 0.0001258847 -8.470543e-21)
(7.0082367e-05 0.00012497407 -9.7928362e-21)
(7.2142777e-05 0.00012398321 -1.3986618e-20)
(7.4193209e-05 0.0001229115 -8.2211771e-21)
(7.6230669e-05 0.00012175876 -9.4251451e-21)
(7.8252002e-05 0.00012052501 -6.9982608e-21)
(8.0254137e-05 0.00011921049 -1.2586744e-20)
(8.2234072e-05 0.00011781531 -2.3702778e-20)
(8.4188733e-05 0.00011634006 -1.4966749e-20)
(8.6115106e-05 0.00011478521 -1.1198824e-20)
(8.8010352e-05 0.00011315161 -5.5593651e-21)
(8.987162e-05 0.00011143999 -9.3204937e-21)
(9.1696012e-05 0.00010965163 -1.6993877e-20)
(9.3480812e-05 0.00010778761 -6.7330831e-21)
(9.522338e-05 0.00010584903 -5.3789988e-21)
(9.6921048e-05 0.00010383752 -1.160149e-21)
(9.8571322e-05 0.00010175461 -5.2301145e-21)
(0.00010017176 9.9601908e-05 -1.3558385e-20)
(0.00010172 9.7381295e-05 -9.5184106e-21)
(0.00010321377 9.5094607e-05 -6.4150091e-21)
(0.00010465086 9.2743726e-05 -2.3047779e-21)
(0.00010602922 9.033077e-05 -7.2652462e-21)
(0.00010734691 8.7858082e-05 -1.2882622e-20)
(0.0001086021 8.5327761e-05 -6.2011771e-21)
(0.00010979294 8.274219e-05 7.2082021e-22)
(0.00011091777 8.0103629e-05 5.6938101e-21)
(3.1793903e-07 0.00011319862 -7.5769152e-20)
(7.0023326e-07 0.00011319622 -3.328608e-20)
(1.1516393e-06 0.00011322954 -1.2080498e-20)
(1.5961149e-06 0.00011329899 4.5087929e-21)
(2.0569811e-06 0.00011341255 -2.3066248e-21)
(2.5284168e-06 0.00011356922 -1.3446426e-20)
(3.0132392e-06 0.0001137675 -1.6185713e-20)
(3.5145885e-06 0.00011400486 1.1088982e-21)
(4.0348691e-06 0.00011427974 -1.8708518e-21)
(4.5767033e-06 0.00011458957 4.0812437e-21)
(5.1423306e-06 0.00011493285 1.3235375e-20)
(5.7339934e-06 0.00011530751 2.6074305e-21)
(6.3540589e-06 0.00011571132 5.767243e-22)
(7.0046715e-06 0.00011614222 5.3527758e-21)
(7.687675e-06 0.00011659802 -9.9245927e-23)
(8.4050049e-06 0.00011707632 4.4207914e-21)
(9.1585249e-06 0.00011757464 1.958442e-21)
(9.9497238e-06 0.00011809038 5.3138654e-21)
(1.0780119e-05 0.00011862113 1.6558272e-20)
(1.1651244e-05 0.00011916395 1.6403135e-20)
(1.2564143e-05 0.00011971595 1.5678838e-20)
(1.351987e-05 0.00012027442 1.2649268e-20)
(1.4519465e-05 0.00012083623 1.6914718e-20)
(1.556367e-05 0.00012139847 8.4786356e-21)
(1.6653178e-05 0.00012195804 6.0715536e-21)
(1.7788217e-05 0.00012251165 1.121327e-20)
(1.896918e-05 0.00012305637 1.0862013e-20)
(2.0196382e-05 0.00012358889 1.2635868e-20)
(2.1469558e-05 0.00012410603 2.7794142e-21)
(2.2788625e-05 0.00012460463 5.6158463e-21)
(2.4153311e-05 0.00012508146 9.2149109e-21)
(2.5563045e-05 0.00012553327 9.144712e-21)
(2.701717e-05 0.0001259569 1.0151384e-20)
(2.8514862e-05 0.00012634929 -5.0744987e-22)
(3.0055155e-05 0.00012670731 -3.3022864e-21)
(3.1636922e-05 0.00012702802 5.0446007e-21)
(3.3258866e-05 0.00012730833 1.4916194e-20)
(3.4919572e-05 0.00012754534 1.6573692e-20)
(3.6617539e-05 0.00012773626 -1.2205904e-21)
(3.8351097e-05 0.00012787826 3.6805537e-21)
(4.0118422e-05 0.00012796885 2.2436347e-20)
(4.1917529e-05 0.00012800531 1.6402506e-20)
(4.3746392e-05 0.00012798528 2.279135e-20)
(4.5602886e-05 0.00012790635 3.094381e-20)
(4.7484732e-05 0.00012776637 3.0757627e-20)
(4.9389563e-05 0.00012756324 2.1000588e-20)
(5.1314911e-05 0.00012729502 1.1124168e-20)
(5.3258264e-05 0.00012695978 1.8362849e-20)
(5.5216999e-05 0.00012655596 2.8822077e-20)
(5.7188493e-05 0.00012608207 3.4297763e-20)
(5.9169924e-05 0.00012553639 2.8344796e-20)
(6.1158556e-05 0.000124918 1.4868452e-20)
(6.3151569e-05 0.00012422568 7.1134399e-21)
(6.5146019e-05 0.00012345854 -4.9876554e-21)
(6.7139056e-05 0.00012261565 -7.0602142e-21)
(6.9127726e-05 0.00012169638 1.4298386e-22)
(7.1109159e-05 0.00012070054 9.0839423e-21)
(7.308042e-05 0.0001196275 1.1503458e-20)
(7.5038588e-05 0.00011847707 4.8605324e-23)
(7.6980653e-05 0.00011724945 -9.3123474e-21)
(7.8903687e-05 0.0001159446 -1.0256153e-20)
(8.0804907e-05 0.00011456268 -3.3017291e-21)
(8.2681436e-05 0.0001131045 2.2369151e-21)
(8.4530381e-05 0.0001115703 -1.2139131e-21)
(8.6348962e-05 0.0001099609 -4.5564984e-21)
(8.8134431e-05 0.000108277 -1.9997387e-21)
(8.9884197e-05 0.00010651983 2.8689526e-21)
(9.1595644e-05 0.00010469036 7.0835984e-21)
(9.3266049e-05 0.00010278981 2.4280045e-21)
(9.4893042e-05 0.00010081957 -1.6785987e-22)
(9.6474263e-05 9.8781073e-05 3.2632729e-22)
(9.8007335e-05 9.667594e-05 3.0253217e-21)
(9.9489985e-05 9.4505942e-05 1.2675402e-21)
(0.00010092001 9.2272861e-05 -1.4537151e-21)
(0.0001022954 8.9978347e-05 -6.3795672e-22)
(0.00010361417 8.7624569e-05 -2.2355872e-21)
(0.00010487441 8.5213653e-05 -3.7358948e-22)
(0.00010607435 8.2747624e-05 5.2848403e-22)
(0.00010721228 8.0228862e-05 3.2757109e-21)
(0.00010828663 7.7659423e-05 1.0345669e-21)
(3.4294404e-07 0.00011225971 -5.6098107e-20)
(7.5769979e-07 0.00011225696 5.5837388e-22)
(1.2455773e-06 0.00011228643 3.3324675e-20)
(1.7254213e-06 0.00011234875 3.6903181e-20)
(2.2223712e-06 0.00011245121 1.8725921e-20)
(2.7290246e-06 0.00011259309 2.3926165e-20)
(3.2480999e-06 0.00011277283 1.7595842e-20)
(3.7828933e-06 0.00011298815 2.2434658e-20)
(4.3353754e-06 0.00011323749 2.3091726e-20)
(4.907886e-06 0.00011351867 1.8588311e-20)
(5.5027749e-06 0.00011383014 1.2106872e-20)
(6.1220293e-06 0.00011416985 7.0896538e-21)
(6.7678161e-06 0.00011453595 -4.5795438e-21)
(7.4421443e-06 0.00011492623 4.5856452e-22)
(8.1468201e-06 0.00011533892 -1.8679179e-21)
(8.8836127e-06 0.00011577156 3.134255e-22)
(9.6541254e-06 0.00011622189 2.1247415e-21)
(1.0459828e-05 0.00011668747 -3.6639029e-21)
(1.1302246e-05 0.00011716602 -4.564998e-21)
(1.2182674e-05 0.00011765473 -1.0854553e-20)
(1.3102168e-05 0.000118151 -1.0768473e-20)
(1.4061718e-05 0.00011865223 -4.045004e-21)
(1.5062158e-05 0.00011915543 -9.5736526e-22)
(1.6104237e-05 0.00011965797 3.9997666e-21)
(1.7188584e-05 0.00012015687 4.9206443e-21)
(1.8315503e-05 0.00012064906 7.2163365e-22)
(1.9485301e-05 0.00012113176 3.2083681e-21)
(2.0698175e-05 0.00012160185 3.6430642e-21)
(2.1953958e-05 0.00012205637 -3.4777958e-21)
(2.3252486e-05 0.00012249238 -9.0301476e-22)
(2.4593575e-05 0.00012290679 -1.2522699e-21)
(2.5976606e-05 0.00012329652 -3.0346194e-22)
(2.7400913e-05 0.00012365869 3.3109643e-21)
(2.8865805e-05 0.00012399037 -1.1140513e-21)
(3.0370348e-05 0.00012428862 -7.0431729e-21)
(3.1913483e-05 0.0001245507 -4.0664341e-21)
(3.3493959e-05 0.0001247737 4.954201e-21)
(3.51104e-05 0.00012495482 2.766693e-21)
(3.67614e-05 0.00012509148 -6.633952e-21)
(3.844538e-05 0.00012518107 -1.1956551e-21)
(4.0160611e-05 0.00012522119 1.367619e-20)
(4.1905198e-05 0.00012520934 8.2957945e-21)
(4.3677227e-05 0.00012514321 3.5849241e-21)
(4.5474693e-05 0.00012502064 1.3084091e-21)
(4.7295395e-05 0.00012483949 5.787114e-21)
(4.9137091e-05 0.00012459782 5.804014e-21)
(5.0997547e-05 0.00012429384 -1.8286463e-21)
(5.2874349e-05 0.00012392574 2.016802e-21)
(5.4764927e-05 0.00012349207 3.4659057e-22)
(5.6666826e-05 0.00012299125 1.0710762e-20)
(5.8577417e-05 0.00012242203 1.1167607e-20)
(6.0494029e-05 0.00012178306 5.9350873e-21)
(6.2414016e-05 0.00012107356 7.6353551e-21)
(6.4334689e-05 0.0001202925 6.5402201e-22)
(6.625332e-05 0.0001194392 -1.7249917e-21)
(6.8167046e-05 0.00011851299 -4.7523629e-22)
(7.0073049e-05 0.00011751342 7.0588922e-21)
(7.1968661e-05 0.00011644026 1.1672305e-20)
(7.3851051e-05 0.00011529316 3.6648045e-22)
(7.5717435e-05 0.00011407243 -8.4329314e-21)
(7.7565116e-05 0.00011277793 -1.1734945e-20)
(7.9391228e-05 0.00011140985 -8.989853e-22)
(8.1193052e-05 0.0001099689 5.9623507e-21)
(8.2967992e-05 0.00010845547 -4.5932491e-22)
(8.4713378e-05 0.00010687016 -2.5302147e-21)
(8.6426548e-05 0.00010521378 -4.9596664e-21)
(8.810501e-05 0.00010348732 2.6922301e-21)
(8.9746292e-05 0.00010169186 9.5135321e-21)
(9.1347917e-05 9.9828624e-05 4.6789639e-21)
(9.290751e-05 9.789871e-05 -1.4545543e-21)
(9.4422731e-05 9.5903648e-05 -3.5486499e-21)
(9.5891369e-05 9.3844903e-05 -2.0757967e-22)
(9.7311292e-05 9.1724173e-05 2.8422842e-21)
(9.8680509e-05 8.9543161e-05 2.9322735e-21)
(9.9996986e-05 8.7303474e-05 4.7514403e-22)
(0.00010125876 8.500717e-05 -7.7248138e-21)
(0.00010246411 8.2656196e-05 -1.328615e-21)
(0.00010361124 8.0252594e-05 2.7235985e-21)
(0.00010469855 7.7798539e-05 -1.4842748e-21)
(0.00010572459 7.5296039e-05 -8.3595046e-21)
(3.654961e-07 0.00011125044 -5.1596007e-20)
(8.0983597e-07 0.00011124744 -1.2033852e-20)
(1.3310144e-06 0.00011127332 1.3327749e-20)
(1.8430765e-06 0.00011132898 2.9601434e-20)
(2.3727181e-06 0.0001114211 2.825153e-20)
(2.9112808e-06 0.00011154916 2.401914e-20)
(3.4615901e-06 0.00011171149 2.848434e-20)
(4.0265854e-06 0.00011190626 3.202462e-20)
(4.6081591e-06 0.00011213171 2.4044779e-20)
(5.2084887e-06 0.00011238615 9.0015652e-21)
(5.8296926e-06 0.00011266782 5.511402e-21)
(6.4737304e-06 0.00011297491 9.1057471e-21)
(7.1425915e-06 0.00011330574 8.0570149e-21)
(7.8380822e-06 0.00011365815 9.7208311e-21)
(8.561983e-06 0.00011403044 1.2014107e-20)
(9.315865e-06 0.00011442045 9.7139309e-21)
(1.0101296e-05 0.00011482592 1.0988806e-20)
(1.0919628e-05 0.00011524467 1.525242e-20)
(1.1772238e-05 0.00011567438 1.6014077e-20)
(1.2660311e-05 0.00011611256 1.525086e-20)
(1.3584795e-05 0.00011655682 2.8284213e-21)
(1.4546749e-05 0.00011700457 -1.2793849e-21)
(1.5546928e-05 0.00011745307 3.0276845e-22)
(1.6585943e-05 0.00011789985 2.1179589e-22)
(1.7664378e-05 0.00011834214 6.4308064e-21)
(1.8782527e-05 0.00011877699 7.8106364e-21)
(1.9940653e-05 0.0001192018 3.5027268e-21)
(2.1138955e-05 0.00011961367 -1.8249328e-21)
(2.2377271e-05 0.00012000977 -4.3830742e-21)
(2.3655428e-05 0.00012038746 1.0826282e-21)
(2.4973163e-05 0.00012074366 4.4475976e-21)
(2.6329998e-05 0.0001210756 3.8941957e-21)
(2.77253e-05 0.0001213805 1.1151426e-21)
(2.9158275e-05 0.00012165571 -9.5997869e-22)
(3.0628089e-05 0.00012189835 8.4429578e-22)
(3.2133746e-05 0.00012210581 6.1487112e-21)
(3.36741e-05 0.00012227552 7.2673784e-21)
(3.5247894e-05 0.00012240473 7.8499769e-22)
(3.6853647e-05 0.00012249109 2.1115848e-21)
(3.8489811e-05 0.00012253205 5.5978228e-21)
(4.0154867e-05 0.00012252537 1.3281746e-20)
(4.1847105e-05 0.00012246879 1.9732849e-20)
(4.3564626e-05 0.00012236001 1.4115123e-20)
(4.5305462e-05 0.00012219715 5.3882774e-21)
(4.7067595e-05 0.00012197807 1.6596086e-20)
(4.8848895e-05 0.000121701 1.990338e-20)
(5.0647192e-05 0.00012136416 1.295686e-20)
(5.2460229e-05 0.00012096601 1.0264732e-20)
(5.4285627e-05 0.00012050507 2.9496757e-21)
(5.612092e-05 0.00011997992 1.5035604e-20)
(5.7963763e-05 0.00011938931 1.9489127e-20)
(5.9811595e-05 0.00011873209 1.5544304e-20)
(6.1661827e-05 0.00011800735 1.7378717e-20)
(6.3511985e-05 0.00011721422 7.8478601e-21)
(6.5359407e-05 0.00011635205 4.7725511e-21)
(6.7201507e-05 0.00011542035 9.0494763e-21)
(6.9035603e-05 0.00011441842 1.562623e-20)
(7.0859031e-05 0.00011334624 1.6265762e-20)
(7.2669117e-05 0.00011220353 5.1890897e-21)
(7.4463201e-05 0.00011099038 2.4182035e-21)
(7.6238777e-05 0.00010970677 4.4506007e-21)
(7.7993185e-05 0.00010835303 9.0880527e-21)
(7.9723759e-05 0.00010692961 1.0396429e-20)
(8.142806e-05 0.00010543692 4.8487739e-21)
(8.3103588e-05 0.00010387562 2.9642484e-21)
(8.4747802e-05 0.00010224648 2.2371945e-21)
(8.6358201e-05 0.00010055041 8.7102251e-21)
(8.7932394e-05 9.8788448e-05 1.5082759e-20)
(8.9468204e-05 9.6961711e-05 8.7597892e-21)
(9.0963334e-05 9.5071295e-05 2.6871103e-21)
(9.2415537e-05 9.3118659e-05 4.1332084e-21)
(9.3822719e-05 9.1105204e-05 4.0526369e-21)
(9.5182785e-05 8.9032451e-05 7.4180783e-21)
(9.6493827e-05 8.6902118e-05 4.5565107e-21)
(9.7753972e-05 8.4715749e-05 2.4955549e-21)
(9.8961319e-05 8.247524e-05 4.9614029e-21)
(0.00010011414 8.0182482e-05 4.7057014e-21)
(0.00010121083 7.7839463e-05 5.2097452e-21)
(0.00010224983 7.5448141e-05 -8.3372673e-22)
(0.00010322965 7.3010556e-05 -4.2761849e-21)
(3.8595267e-07 0.00011017725 -5.8956995e-20)
(8.5713971e-07 0.00011017403 -7.7478075e-21)
(1.4084288e-06 0.00011019665 4.4622307e-21)
(1.9496082e-06 0.00011024608 9.0654748e-21)
(2.5089215e-06 0.00011032858 1.0952204e-20)
(3.0764636e-06 0.00011044365 1.0525692e-20)
(3.6550364e-06 0.00011058976 9.2631407e-21)
(4.2473173e-06 0.00011076529 -2.6478045e-24)
(4.8551633e-06 0.00011096857 8.9355052e-22)
(5.4804899e-06 0.00011119795 -3.5016393e-21)
(6.125304e-06 0.00011145175 -1.4931107e-20)
(6.791507e-06 0.0001117284 -1.0412142e-20)
(7.4809576e-06 0.00011202622 -4.6549643e-21)
(8.1952797e-06 0.00011234328 -5.623622e-21)
(8.9360854e-06 0.00011267786 -8.4645979e-21)
(9.7049703e-06 0.00011302803 -1.2955127e-20)
(1.0503281e-05 0.00011339158 -1.0343266e-20)
(1.1332356e-05 0.00011376656 -5.9488032e-21)
(1.2193466e-05 0.00011415072 2.1366907e-21)
(1.3087588e-05 0.00011454172 3.6748038e-21)
(1.4015794e-05 0.00011493742 1.710997e-21)
(1.4978892e-05 0.00011533518 -6.222726e-21)
(1.5977594e-05 0.00011573269 -1.2374537e-21)
(1.7012636e-05 0.00011612746 6.9822919e-21)
(1.8084434e-05 0.00011651684 4.1933247e-21)
(1.9193221e-05 0.00011689827 5.2647338e-21)
(2.0339248e-05 0.00011726905 5.7912057e-21)
(2.1522766e-05 0.00011762667 3.8719917e-21)
(2.2743566e-05 0.00011796837 7.7751372e-21)
(2.4001449e-05 0.00011829163 5.6864738e-21)
(2.5296219e-05 0.00011859359 8.5970681e-21)
(2.6627372e-05 0.00011887174 1.0004484e-20)
(2.7994223e-05 0.00011912337 4.0348989e-21)
(2.939615e-05 0.00011934595 1.0572578e-20)
(3.0832319e-05 0.00011953692 1.0708849e-20)
(3.2301698e-05 0.00011969363 1.2080696e-20)
(3.3803218e-05 0.00011981381 1.3699333e-20)
(3.5335699e-05 0.00011989486 8.1438177e-21)
(3.6897825e-05 0.00011993457 1.5171929e-20)
(3.8488109e-05 0.0001199305 6.3167443e-21)
(4.0105e-05 0.00011988053 2.7838548e-21)
(4.1746834e-05 0.00011978255 5.7769614e-21)
(4.3411898e-05 0.00011963443 -1.4092534e-21)
(4.5098377e-05 0.0001194344 -2.1560268e-21)
(4.6804356e-05 0.0001191804 -1.4499491e-21)
(4.8527802e-05 0.00011887083 2.971034e-21)
(5.0266578e-05 0.00011850395 8.5673651e-21)
(5.2018539e-05 0.00011807838 1.694325e-21)
(5.3781493e-05 0.00011759258 -2.7515029e-21)
(5.5553191e-05 0.00011704551 -3.2764592e-21)
(5.733128e-05 0.00011643563 2.2530206e-21)
(5.9113338e-05 0.00011576221 7.3704282e-21)
(6.0896992e-05 0.00011502408 6.3091506e-21)
(6.2679792e-05 0.00011422067 5.478839e-21)
(6.4459176e-05 0.0001133512 3.3175878e-21)
(6.6232723e-05 0.00011241523 4.8057775e-21)
(6.7998021e-05 0.00011141226 6.1477375e-21)
(6.9752429e-05 0.00011034213 4.0682267e-21)
(7.14934e-05 0.00010920465 5.834672e-21)
(7.3218526e-05 0.00010799983 5.3278103e-21)
(7.4925295e-05 0.00010672769 3.3244586e-21)
(7.6611178e-05 0.00010538862 -1.0627217e-21)
(7.8273755e-05 0.000103983 -1.813556e-21)
(7.9910563e-05 0.00010251109 4.9928132e-21)
(8.1519254e-05 0.0001009737 3.3693175e-21)
(8.3097483e-05 9.9371581e-05 2.3883568e-21)
(8.4642816e-05 9.7705573e-05 1.867731e-21)
(8.6153054e-05 9.5976531e-05 4.0454047e-21)
(8.7626085e-05 9.4185545e-05 5.3320696e-21)
(8.9059672e-05 9.2333836e-05 7.4997463e-21)
(9.0451691e-05 9.0422629e-05 6.0771918e-21)
(9.1800097e-05 8.8453379e-05 -9.3200139e-22)
(9.3102963e-05 8.6427398e-05 -4.2950329e-21)
(9.4358492e-05 8.4346405e-05 2.7663111e-21)
(9.5564798e-05 8.2211861e-05 7.4928067e-21)
(9.6720083e-05 8.0025636e-05 7.0150634e-21)
(9.7822742e-05 7.7789445e-05 -3.2817988e-21)
(9.8871205e-05 7.5505174e-05 -4.7442395e-21)
(9.9863975e-05 7.3174764e-05 -6.2671913e-23)
(0.00010079964 7.080011e-05 7.0567403e-21)
(4.0432686e-07 0.00010904625 -7.3020389e-20)
(8.9984191e-07 0.0001090428 -2.3739755e-20)
(1.4783501e-06 0.00010906241 -9.6481342e-21)
(2.0458805e-06 0.00010910607 7.5429866e-22)
(2.6320401e-06 0.00010917958 8.3772214e-21)
(3.2256603e-06 0.0001092825 7.4090219e-22)
(3.8297108e-06 0.00010941354 1.1864178e-20)
(4.4465785e-06 0.00010957107 4.1428599e-21)
(5.0778999e-06 0.00010975367 -8.8791719e-21)
(5.7256273e-06 0.00010995964 7.236577e-21)
(6.3916125e-06 0.00011018741 7.4400561e-21)
(7.0776254e-06 0.0001104356 2.0205119e-21)
(7.7852863e-06 0.00011070265 9.5923229e-21)
(8.5162056e-06 0.0001109866 2.9391856e-21)
(9.2718911e-06 0.00011128595 6.5286785e-22)
(1.0053744e-05 0.0001115989 4.0898269e-21)
(1.0863116e-05 0.00011192337 6.6160076e-21)
(1.1701185e-05 0.00011225746 9.3292399e-21)
(1.2569126e-05 0.00011259914 8.5943916e-21)
(1.3467912e-05 0.00011294615 7.1878018e-21)
(1.4398469e-05 0.00011329646 1.4314328e-21)
(1.5361587e-05 0.00011364765 -4.5068728e-21)
(1.6357914e-05 0.00011399753 -3.1392586e-21)
(1.7388126e-05 0.00011434376 6.7061649e-21)
(1.8452538e-05 0.00011468386 8.5794634e-21)
(1.9551479e-05 0.00011501546 1.0586638e-20)
(2.0685172e-05 0.00011533594 5.9261261e-21)
(2.1853629e-05 0.00011564292 4.226214e-21)
(2.3056892e-05 0.00011593399 9.7254463e-21)
(2.4294741e-05 0.00011620649 1.2824742e-20)
(2.5566807e-05 0.00011645803 1.6392939e-20)
(2.6872672e-05 0.00011668611 1.065434e-20)
(2.8211774e-05 0.00011688819 4.7176502e-21)
(2.9583414e-05 0.00011706183 1.2385999e-20)
(3.0986777e-05 0.00011720476 1.7631185e-20)
(3.2420972e-05 0.00011731444 2.2467362e-20)
(3.3884949e-05 0.00011738864 1.9313468e-20)
(3.5377554e-05 0.00011742501 9.9953722e-21)
(3.6897545e-05 0.00011742147 1.2783302e-20)
(3.8443514e-05 0.00011737571 8.7892554e-21)
(4.0014036e-05 0.00011728575 5.8641837e-21)
(4.1607482e-05 0.00011714957 5.2144013e-21)
(4.322224e-05 0.00011696521 -9.4341983e-22)
(4.4856631e-05 0.0001167309 -4.651558e-21)
(4.6508734e-05 0.00011644487 -1.239172e-20)
(4.8176617e-05 0.00011610551 -6.331898e-21)
(4.985835e-05 0.00011571127 4.0354842e-21)
(5.1551865e-05 0.00011526071 -2.1145376e-21)
(5.3255076e-05 0.00011475246 -6.0246751e-21)
(5.4965838e-05 0.00011418553 -8.8623752e-21)
(5.6681938e-05 0.0001135585 -1.935271e-21)
(5.8401088e-05 0.00011287071 1.1157963e-20)
(6.0120999e-05 0.00011212098 1.1438885e-20)
(6.1839387e-05 0.00011130891 1.1971529e-20)
(6.3553785e-05 0.00011043366 9.4949532e-21)
(6.5261873e-05 0.00010949471 7.2315164e-21)
(6.6961313e-05 0.0001084918 1.2811807e-20)
(6.8649754e-05 0.00010742473 7.8410282e-21)
(7.0324788e-05 0.00010629326 9.9137493e-21)
(7.1983968e-05 0.0001050974 5.9643595e-21)
(7.362501e-05 0.00010383731 1.1299306e-21)
(7.5245497e-05 0.00010251327 7.515523e-21)
(7.6843111e-05 0.00010112555 6.6917519e-21)
(7.8415528e-05 9.9674592e-05 7.0346962e-21)
(7.9960428e-05 9.8161034e-05 5.1184259e-21)
(8.1475614e-05 9.6585716e-05 3.1625228e-21)
(8.2958878e-05 9.4949304e-05 1.2954817e-20)
(8.440804e-05 9.3252663e-05 8.5687878e-21)
(8.5820997e-05 9.1496763e-05 7.6128909e-21)
(8.7195734e-05 8.9682976e-05 7.3934055e-21)
(8.85302e-05 8.7812321e-05 1.7876683e-21)
(8.98225e-05 8.5886162e-05 8.9894938e-21)
(9.1070757e-05 8.390582e-05 4.816948e-21)
(9.2273135e-05 8.1872854e-05 5.5059773e-21)
(9.3427929e-05 7.9788745e-05 3.7041841e-21)
(9.4533458e-05 7.765532e-05 -4.7313384e-22)
(9.5588182e-05 7.5474048e-05 8.3885486e-21)
(9.6590588e-05 7.3246842e-05 4.7013982e-21)
(9.7539189e-05 7.0975555e-05 2.3231471e-21)
(9.8432672e-05 6.8661909e-05 -1.1342237e-21)
(4.2078312e-07 0.00010786323 -7.9457204e-20)
(9.3816977e-07 0.00010785956 -3.7075625e-20)
(1.5412115e-06 0.00010787628 -2.2484584e-20)
(2.1324821e-06 0.00010791457 -1.1122052e-20)
(2.742719e-06 0.00010797962 1.6961537e-22)
(3.3598628e-06 0.00010807126 -1.2262462e-22)
(3.9867316e-06 0.00010818824 -4.5939802e-21)
(4.6256141e-06 0.00010832904 2.4092968e-21)
(5.2781396e-06 0.00010849225 2.1872254e-21)
(5.9459054e-06 0.00010867634 1.1799212e-21)
(6.63063e-06 0.00010887983 3.3301796e-21)
(7.3341152e-06 0.00010910151 2.3517171e-21)
(8.0578875e-06 0.00010933975 1.2807639e-21)
(8.8032796e-06 0.00010959284 7.7217589e-22)
(9.5717744e-06 0.00010985932 3.577548e-21)
(1.0364762e-05 0.00011013751 5.432538e-21)
(1.1183457e-05 0.00011042547 -1.7501418e-22)
(1.2028904e-05 0.00011072143 1.4000109e-21)
(1.2902213e-05 0.00011102341 1.8831771e-21)
(1.380433e-05 0.00011132939 7.4201101e-21)