/*--------------------------------*- C++ -*----------------------------------*\
| =========                 |                                                 |
| \\      /  F ield         | OpenFOAM: The Open Source CFD Toolbox           |
|  \\    /   O peration     | Version:  2106                                  |
|   \\  /    A nd           | Website:  www.openfoam.com                      |
|    \\/     M anipulation  |                                                 |
\*---------------------------------------------------------------------------*/
FoamFile
{
    version     2.0;
    format      ascii;
    arch        "LSB;label=32;scalar=64";
    class       volScalarField;
    location    "0.016";
    object      p;
}
// * * * * * * * * * * * * * * * * * * * * * * * * * * * * * * * * * * * * * //

dimensions      [1 -1 -2 0 0 0 0];

internalField   nonuniform List<scalar> 
256
(
9.1101774
7.7009793
5.1037614
1.7395193
-1.8866717
-5.2256947
-7.7828331
-9.1630601
-9.163079
-7.7829078
-5.2258212
-1.8868497
1.7393686
5.1036326
7.7009023
9.1101462
10.616824
8.9720581
5.9429682
2.0264493
-2.1999071
-6.0897877
-9.0746424
-10.68458
-10.684596
-9.0747262
-6.0899301
-2.2001374
2.0262767
5.9428109
8.9719648
10.616783
13.469792
11.380121
7.5310855
2.5678998
-2.7880722
-7.721675
-11.5198
-13.566327
-13.566341
-11.519904
-7.7218385
-2.7884184
2.5676964
7.5308592
11.379984
13.469722
18.437947
15.567428
10.274594
3.4870233
-3.8307119
-10.582327
-15.799494
-18.603976
-18.603988
-15.799641
-10.58248
-3.8313339
3.4868402
10.274239
15.56721
18.437818
25.770888
21.747809
14.311916
4.8317045
-5.3586258
-14.788565
-22.122595
-26.051302
-26.051346
-22.122849
-14.788608
-5.3597435
4.8316638
14.311236
21.747427
25.770636
37.166461
31.318364
20.477325
6.7877634
-7.8403555
-21.487293
-32.089435
-37.743116
-37.743674
-32.089994
-21.486822
-7.8426839
6.7883483
20.475791
31.317755
37.166097
53.758187
45.160102
29.230176
9.4289902
-11.439329
-31.079957
-46.592104
-54.980429
-54.982461
-46.592643
-31.077772
-11.443455
9.4309154
29.226835
45.159831
53.757985
73.895413
62.612625
40.930844
12.988371
-16.16195
-42.276645
-61.166842
-70.868622
-70.869862
-61.169459
-42.272704
-16.167171
12.984554
40.923156
62.612645
73.894945
-70.333006
-60.844811
-41.9671
-16.08033
12.908388
40.695635
62.086226
73.450559
73.45043
62.085903
40.686367
12.903824
-16.085852
-41.965058
-60.847681
-70.33359
-54.301271
-45.986762
-30.585994
-11.338244
9.2415924
28.956224
44.610517
53.098523
53.098734
44.608384
28.950679
9.24299
-11.342991
-30.587202
-45.989482
-54.302127
-36.962797
-31.410736
-20.995914
-7.6908691
6.6287206
20.099643
30.685676
36.406706
36.405885
30.682914
20.094366
6.6254831
-7.6971263
-20.999682
-31.413705
-36.963706
-24.932714
-21.159191
-14.123901
-5.1289492
4.6220739
13.724064
20.836177
24.684558
24.682846
20.831704
13.717114
4.61509
-5.1371022
-14.130318
-21.163568
-24.934145
-16.64263
-14.1226
-9.4419111
-3.4095255
3.1405041
9.232573
13.969873
16.532119
16.529663
13.963011
9.2223328
3.128946
-3.4212989
-9.4517254
-14.129156
-16.644882
-15.9611
-13.536932
-9.0527769
-3.240735
3.0715959
8.9290393
13.464363
15.924096
15.920845
13.455136
8.9153387
3.0557923
-3.2565426
-9.065933
-13.545613
-15.964093
0.18405693
0.14584858
0.08008845
-0.0031373162
-0.070041624
-0.13624439
-0.18153137
-0.2093907
-0.21416803
-0.19505605
-0.15628983
-0.093282447
-0.025748163
0.061417507
0.13366506
0.17984298
-21.932403
-18.594731
-12.433551
-4.3965599
4.3024827
12.390963
18.625424
22.004183
21.997024
18.605076
12.360815
4.2679384
-4.4306835
-12.461196
-18.612656
-21.938616
)
;

boundaryField
{
    leftWall
    {
        type            cyclic;
    }
    rightWall
    {
        type            cyclic;
    }
    lowerWall
    {
        type            calculated;
        value           nonuniform List<scalar> 
16
(
9.1101774
7.7009793
5.1037614
1.7395193
-1.8866717
-5.2256947
-7.7828331
-9.1630601
-9.163079
-7.7829078
-5.2258212
-1.8868497
1.7393686
5.1036326
7.7009023
9.1101462
)
;
    }
    atmosphere
    {
        type            calculated;
        value           nonuniform List<scalar> 
16
(
-0.0023357474
-0.018959753
-0.042565748
-0.059401178
0
0
0
0
0
0
0
0
-0.059400379
-0.042565297
-0.018959343
-0.0023355774
)
;
    }
    defaultFaces
    {
        type            empty;
    }
}


// ************************************************************************* //
