/*--------------------------------*- C++ -*----------------------------------*\
| =========                 |                                                 |
| \\      /  F ield         | OpenFOAM: The Open Source CFD Toolbox           |
|  \\    /   O peration     | Version:  2306                                  |
|   \\  /    A nd           | Website:  www.openfoam.com                      |
|    \\/     M anipulation  |                                                 |
\*---------------------------------------------------------------------------*/
FoamFile
{
    version     2.0;
    format      ascii;
    arch        "LSB;label=32;scalar=64";
    class       surfaceScalarField;
    location    "0.03";
    object      phi_0;
}
// * * * * * * * * * * * * * * * * * * * * * * * * * * * * * * * * * * * * * //

dimensions      [0 3 -1 0 0 0 0];

oriented        oriented;

internalField   nonuniform List<scalar> 
12640
(
-4.058498e-10
4.0584979e-10
-1.6477128e-09
1.2418629e-09
-3.7135853e-09
2.0658726e-09
-6.6033559e-09
2.8897704e-09
-1.030773e-08
3.7043753e-09
-1.4814132e-08
4.5064008e-09
-2.0108629e-08
5.294497e-09
-2.6174883e-08
6.0662539e-09
-3.2994398e-08
6.8195152e-09
-4.0546564e-08
7.5521665e-09
-4.8808735e-08
8.2621705e-09
-5.7756332e-08
8.9475968e-09
-6.7362961e-08
9.6066283e-09
-7.7600531e-08
1.023757e-08
-8.843938e-08
1.0838849e-08
-9.9848417e-08
1.1409034e-08
-1.1179525e-07
1.1946838e-08
-1.2424636e-07
1.2451107e-08
-1.3716722e-07
1.2920857e-08
-1.5052246e-07
1.3355239e-08
-1.6427602e-07
1.3753563e-08
-1.7839131e-07
1.4115287e-08
-1.9283133e-07
1.4440027e-08
-2.0755887e-07
1.4727538e-08
-2.2253659e-07
1.4977721e-08
-2.3772721e-07
1.5190621e-08
-2.5309363e-07
1.5366412e-08
-2.6859903e-07
1.5505406e-08
-2.8420706e-07
1.560803e-08
-2.998819e-07
1.567484e-08
-3.155884e-07
1.5706493e-08
-3.3129215e-07
1.5703753e-08
-3.4695964e-07
1.5667494e-08
-3.625583e-07
1.5598657e-08
-3.7805657e-07
1.5498272e-08
-3.93424e-07
1.5367421e-08
-4.0863127e-07
1.5207274e-08
-4.2365036e-07
1.5019084e-08
-4.3845467e-07
1.4804317e-08
-4.5301976e-07
1.456509e-08
-4.6732451e-07
1.4304752e-08
-4.8134647e-07
1.4021952e-08
-4.9506202e-07
1.3715557e-08
-5.0844956e-07
1.3387538e-08
-5.2149001e-07
1.3040455e-08
-5.3416633e-07
1.2676317e-08
-5.4646303e-07
1.2296702e-08
-5.5836605e-07
1.1903013e-08
-5.6986262e-07
1.1496573e-08
-5.809413e-07
1.1078684e-08
-5.9159192e-07
1.0650621e-08
-6.0180558e-07
1.0213653e-08
-6.1157459e-07
9.7690208e-09
-6.2089249e-07
9.3179053e-09
-6.2975396e-07
8.8614651e-09
-6.3815482e-07
8.4008488e-09
-6.4609191e-07
7.9371118e-09
-6.5356321e-07
7.4712784e-09
-6.6056755e-07
7.0043534e-09
-6.6710481e-07
6.5372601e-09
-6.731757e-07
6.0708837e-09
-6.7878178e-07
5.6060797e-09
-6.8392539e-07
5.1436078e-09
-6.8860963e-07
4.6842373e-09
-6.9283828e-07
4.2286505e-09
-6.9661577e-07
3.7774948e-09
-6.9994714e-07
3.3313803e-09
-7.0283803e-07
2.8908848e-09
-7.0529457e-07
2.4565363e-09
-7.0732339e-07
2.0288208e-09
-7.0893155e-07
1.6081545e-09
-7.1012615e-07
1.1946005e-09
-7.109134e-07
7.8724721e-10
-7.1129464e-07
3.812381e-10
-7.1125276e-07
-4.1874701e-11
-7.1086241e-07
-3.9034812e-10
-7.1010462e-07
-7.5780538e-10
-7.0898271e-07
-1.1219067e-09
-7.0750411e-07
-1.4786025e-09
-1.8266313e-09
-5.7006368e-10
9.7591356e-10
-2.2688244e-09
2.9406236e-09
-5.0963521e-09
4.8934005e-09
-9.0427234e-09
6.8361413e-09
-1.4096478e-08
8.7581292e-09
-2.024277e-08
1.0652694e-08
-2.7462769e-08
1.2514496e-08
-3.5734496e-08
1.433798e-08
-4.5032843e-08
1.6117864e-08
-5.532974e-08
1.7849061e-08
-6.6594285e-08
1.9526717e-08
-7.8792916e-08
2.1146228e-08
-9.1889562e-08
2.2703274e-08
-1.0584582e-07
2.4193831e-08
-1.2062115e-07
2.5614179e-08
-1.3617305e-07
2.6960938e-08
-1.5245726e-07
2.8231047e-08
-1.6942797e-07
2.9421815e-08
-1.8703801e-07
3.0530895e-08
-2.0523907e-07
3.1556302e-08
-2.2398192e-07
3.2496408e-08
-2.4321657e-07
3.3349943e-08
-2.6289254e-07
3.4115994e-08
-2.8295901e-07
3.4793999e-08
-3.0336502e-07
3.5383737e-08
-3.2405972e-07
3.588532e-08
-3.4499248e-07
3.6299178e-08
-3.6611313e-07
3.6626055e-08
-3.8737209e-07
3.686699e-08
-4.0872054e-07
3.7023296e-08
-4.3011061e-07
3.709656e-08
-4.5149545e-07
3.7088602e-08
-4.7282948e-07
3.700152e-08
-4.9406841e-07
3.6837591e-08
-5.1516941e-07
3.6599272e-08
-5.3609117e-07
3.6289176e-08
-5.5679401e-07
3.5910123e-08
-5.7724001e-07
3.546508e-08
-5.9739295e-07
3.4957252e-08
-6.1721796e-07
3.4390113e-08
-6.366804e-07
3.3767172e-08
-6.557492e-07
3.3090764e-08
-6.743969e-07
3.2363255e-08
-6.9259738e-07
3.1588021e-08
-7.1032575e-07
3.0768829e-08
-7.2755877e-07
2.9909331e-08
-7.4427507e-07
2.9012997e-08
-7.6045519e-07
2.808314e-08
-7.760816e-07
2.7122976e-08
-7.9113858e-07
2.6135665e-08
-8.0561227e-07
2.5124322e-08
-8.1949055e-07
2.4091925e-08
-8.3276299e-07
2.3041453e-08
-8.454208e-07
2.1975725e-08
-8.5745682e-07
2.0897481e-08
-8.6886539e-07
1.9809408e-08
-8.7964232e-07
1.8714038e-08
-8.8978484e-07
1.7613806e-08
-8.992915e-07
1.651101e-08
-9.0816213e-07
1.5407889e-08
-9.1639775e-07
1.4306516e-08
-9.2400054e-07
1.3208859e-08
-9.3097368e-07
1.2116763e-08
-9.3732142e-07
1.1031959e-08
-9.4304884e-07
9.9560862e-09
-9.4816195e-07
8.8905823e-09
-9.5266743e-07
7.836879e-09
-9.5657276e-07
6.7962132e-09
-9.5988601e-07
5.7697737e-09
-9.6261586e-07
4.7586933e-09
-9.6477186e-07
3.7641489e-09
-9.6636489e-07
2.7876303e-09
-9.6740907e-07
1.8314419e-09
-9.6792782e-07
8.9999532e-10
-9.6798968e-07
1.9985944e-11
-9.6745562e-07
-9.2440782e-10
-9.6639848e-07
-1.8149399e-09
-9.6484148e-07
-2.6789049e-09
-9.6280028e-07
-3.5198061e-09
-4.3389725e-09
-5.9147845e-10
1.5673918e-09
-2.3546985e-09
4.7038438e-09
-5.2883138e-09
7.8270154e-09
-9.3815768e-09
1.0929405e-08
-1.4622323e-08
1.3998874e-08
-2.0995024e-08
1.7025394e-08
-2.8480324e-08
1.9999796e-08
-3.7055476e-08
2.2913132e-08
-4.6694454e-08
2.5756842e-08
-5.7368117e-08
2.8522724e-08
-6.9044371e-08
3.120297e-08
-8.1688332e-08
3.3790189e-08
-9.5262505e-08
3.6277448e-08
-1.0972697e-07
3.8658299e-08
-1.2503959e-07
4.0926792e-08
-1.4115617e-07
4.3077517e-08
-1.5803072e-07
4.5105592e-08
-1.7561562e-07
4.7006717e-08
-1.9386186e-07
4.8777138e-08
-2.1271925e-07
5.0413696e-08
-2.3213664e-07
5.1913795e-08
-2.5206212e-07
5.327542e-08
-2.7244325e-07
5.4497124e-08
-2.9322728e-07
5.5578027e-08
-3.1436132e-07
5.6517783e-08
-3.3579259e-07
5.7316589e-08
-3.5746857e-07
5.7975161e-08
-3.7933721e-07
5.8494695e-08
-4.013471e-07
5.8876881e-08
-4.2344765e-07
5.9123843e-08
-4.4558922e-07
5.9238124e-08
-4.6772328e-07
5.9222668e-08
-4.8980256e-07
5.90808e-08
-5.1178115e-07
5.8816172e-08
-5.3361462e-07
5.8432736e-08
-5.5526015e-07
5.7934715e-08
-5.7667662e-07
5.7326598e-08
-5.9782466e-07
5.6613116e-08
-6.1866662e-07
5.5799211e-08
-6.3916652e-07
5.4890008e-08
-6.5928999e-07
5.3890647e-08
-6.7900521e-07
5.2805986e-08
-6.9828288e-07
5.1640921e-08
-7.1709557e-07
5.0400718e-08
-7.3541759e-07
4.9090843e-08
-7.5322504e-07
4.7716789e-08
-7.7049599e-07
4.6283943e-08
-7.8721046e-07
4.4797601e-08
-8.033504e-07
4.3262932e-08
-8.1889973e-07
4.1684993e-08
-8.3384419e-07
4.006877e-08
-8.4817135e-07
3.8419086e-08
-8.6187054e-07
3.6740645e-08
-8.7493282e-07
3.5038001e-08
-8.8735089e-07
3.3315551e-08
-8.9911902e-07
3.1577534e-08
-9.1023298e-07
2.9828024e-08
-9.2069009e-07
2.8070899e-08
-9.3048895e-07
2.6309866e-08
-9.3962952e-07
2.4548455e-08
-9.48113e-07
2.2789987e-08
-9.5594178e-07
2.1037637e-08
-9.6311935e-07
1.9294333e-08
-9.6965022e-07
1.7562828e-08
-9.7553988e-07
1.5845735e-08
-9.8079472e-07
1.4145443e-08
-9.8542202e-07
1.246416e-08
-9.8942977e-07
1.0803962e-08
-9.9282669e-07
9.166703e-09
-9.9562212e-07
7.554124e-09
-9.9782579e-07
5.9678163e-09
-9.9944756e-07
4.4094118e-09
-1.0004968e-06
2.8807041e-09
-1.0009816e-06
1.3847175e-09
-1.0008994e-06
-6.222733e-11
-1.0002978e-06
-1.525954e-09
-9.991769e-07
-2.9358481e-09
-9.9754522e-07
-4.310584e-09
-9.9541375e-07
-5.6512711e-09
-6.9581644e-09
-5.9438435e-10
2.1617762e-09
-2.3733859e-09
6.4828453e-09
-5.3320561e-09
1.0785686e-08
-9.4605684e-09
1.5057917e-08
-1.4746373e-08
1.9284678e-08
-2.1173466e-08
2.3452487e-08
-2.8722217e-08
2.7548548e-08
-3.7369568e-08
3.1560484e-08
-4.7089155e-08
3.5476428e-08
-5.7851462e-08
3.928503e-08
-6.9623975e-08
4.2975484e-08
-8.2371362e-08
4.6537577e-08
-9.6055647e-08
4.9961731e-08
-1.1063639e-07
5.3239045e-08
-1.2607092e-07
5.6361322e-08
-1.4231449e-07
5.9321089e-08
-1.5932053e-07
6.2111634e-08
-1.7704085e-07
6.4727031e-08
-1.9542584e-07
6.7162129e-08
-2.1442472e-07
6.9412574e-08
-2.3398573e-07
7.1474813e-08
-2.5405639e-07
7.334608e-08
-2.7458367e-07
7.5024415e-08
-2.9551425e-07
7.650861e-08
-3.167947e-07
7.7798226e-08
-3.3837167e-07
7.8893566e-08
-3.6019215e-07
7.9795633e-08
-3.8220357e-07
8.0506123e-08
-4.0435405e-07
8.1027364e-08
-4.2659255e-07
8.1362333e-08
-4.4886899e-07
8.1514566e-08
-4.7113447e-07
8.1488144e-08
-4.9334133e-07
8.1287664e-08
-5.1544335e-07
8.0918192e-08
-5.3739578e-07
8.0385179e-08
-5.5915555e-07
7.9694479e-08
-5.8068125e-07
7.8852299e-08
-6.0193325e-07
7.786512e-08
-6.2287374e-07
7.6739702e-08
-6.4346671e-07
7.5482986e-08
-6.636781e-07
7.4102031e-08
-6.8347598e-07
7.2603865e-08
-7.0283067e-07
7.0995605e-08
-7.2171447e-07
6.9284514e-08
-7.4010161e-07
6.7477991e-08
-7.5796828e-07
6.5583444e-08
-7.7529257e-07
6.3608248e-08
-7.9205461e-07
6.1559636e-08
-8.0823646e-07
5.944478e-08
-8.238221e-07
5.7270628e-08
-8.3879738e-07
5.5044054e-08
-8.5315002e-07
5.2771716e-08
-8.6686946e-07
5.0460096e-08
-8.7994692e-07
4.8115449e-08
-8.923752e-07
4.574384e-08
-9.0414878e-07
4.335111e-08
-9.1526361e-07
4.0942845e-08
-9.2571712e-07
3.8524413e-08
-9.355081e-07
3.6100863e-08
-9.4463672e-07
3.3677064e-08
-9.5310432e-07
3.1257612e-08
-9.609135e-07
2.8846805e-08
-9.6806788e-07
2.6448719e-08
-9.7457217e-07
2.4067122e-08
-9.8043201e-07
2.1705581e-08
-9.8565396e-07
1.9367382e-08
-9.9024534e-07
1.705556e-08
-9.9421433e-07
1.4772939e-08
-9.975697e-07
1.2522076e-08
-1.0003209e-06
1.0305301e-08
-1.0024778e-06
8.1247526e-09
-1.0040508e-06
5.9823514e-09
-1.00505e-06
3.879894e-09
-1.0054852e-06
1.8199495e-09
-1.0053566e-06
-1.9081503e-10
-1.0047064e-06
-2.1761596e-09
-1.0035318e-06
-4.1104024e-09
-1.0018443e-06
-5.9980951e-09
-9.9965589e-07
-7.8396919e-09
-9.6349564e-09
-5.9820488e-10
2.759981e-09
-2.3906741e-09
8.2753146e-09
-5.3718535e-09
1.3766865e-08
-9.5322566e-09
1.921832e-08
-1.4858986e-08
2.4611409e-08
-2.1335608e-08
2.992911e-08
-2.8942135e-08
3.5155074e-08
-3.7655132e-08
4.0273481e-08
-4.7447837e-08
4.5269132e-08
-5.82903e-08
5.0127494e-08
-7.0149545e-08
5.483473e-08
-8.2989737e-08
5.9377768e-08
-9.6772366e-08
6.3744359e-08
-1.1145644e-07
6.7923125e-08
-1.269987e-07
7.1903581e-08
-1.4335381e-07
7.5676194e-08
-1.6047458e-07
7.9232403e-08
-1.783122e-07
8.2564651e-08
-1.9681644e-07
8.5666363e-08
-2.1593588e-07
8.8532021e-08
-2.3561817e-07
9.11571e-08
-2.5581021e-07
9.3538114e-08
-2.7645837e-07
9.5672571e-08
-2.9750875e-07
9.7558989e-08
-3.1890735e-07
9.9196837e-08
-3.4060033e-07
1.0058654e-07
-3.6253412e-07
1.0172943e-07
-3.8465571e-07
1.026277e-07
-4.0691274e-07
1.032844e-07
-4.2925376e-07
1.0370336e-07
-4.5162832e-07
1.0388913e-07
-4.7398716e-07
1.0384699e-07
-4.9628232e-07
1.0358284e-07
-5.184673e-07
1.0310316e-07
-5.4049712e-07
1.0241499e-07
-5.6232847e-07
1.0152584e-07
-5.839198e-07
1.0044363e-07
-6.0523134e-07
9.9176658e-08
-6.2622519e-07
9.7733551e-08
-6.4686536e-07
9.6123155e-08
-6.6711785e-07
9.4354513e-08
-6.8695074e-07
9.2436759e-08
-7.0633425e-07
9.037912e-08
-7.2524067e-07
8.819093e-08
-7.4364428e-07
8.5881603e-08
-7.615214e-07
8.3460559e-08
-7.788503e-07
8.0937143e-08
-7.9561126e-07
7.832061e-08
-8.1178653e-07
7.5620047e-08
-8.2736029e-07
7.284439e-08
-8.4231859e-07
7.0002362e-08
-8.5664934e-07
6.7102473e-08
-8.7034224e-07
6.415299e-08
-8.8338869e-07
6.1161905e-08
-8.9578179e-07
5.8136939e-08
-9.0751622e-07
5.5085545e-08
-9.1858818e-07
5.201481e-08
-9.2899536e-07
4.8931574e-08
-9.3873681e-07
4.5842321e-08
-9.478129e-07
4.2753159e-08
-9.5622527e-07
3.9669969e-08
-9.6397671e-07
3.6598242e-08
-9.7107111e-07
3.3543117e-08
-9.7751337e-07
3.0509402e-08
-9.8330941e-07
2.750161e-08
-9.8846594e-07
2.4523913e-08
-9.9299056e-07
2.1580175e-08
-9.9689156e-07
1.8673947e-08
-1.0001779e-06
1.5808446e-08
-1.0028593e-06
1.2986643e-08
-1.0049458e-06
1.0211219e-08
-1.006448e-06
7.4845667e-09
-1.0073769e-06
4.8088835e-09
-1.0077433e-06
2.1862885e-09
-1.0075525e-06
-3.8157761e-10
-1.0068321e-06
-2.896627e-09
-1.0055873e-06
-5.3551907e-09
-1.0038298e-06
-7.7555373e-09
-1.0015722e-06
-1.0097302e-08
-1.2380061e-08
-6.0359834e-10
3.3635794e-09
-2.4129119e-09
1.0084628e-08
-5.4222636e-09
1.6776217e-08
-9.6222367e-09
2.3418293e-08
-1.4999641e-08
2.9988813e-08
-2.1537639e-08
3.6467107e-08
-2.9215817e-08
4.2833251e-08
-3.8010273e-08
4.9067938e-08
-4.7893733e-08
5.5152594e-08
-5.8835693e-08
6.1069453e-08
-7.0802579e-08
6.6801614e-08
-8.3757912e-08
7.2333104e-08
-9.7662513e-08
7.764896e-08
-1.1247468e-07
8.2735289e-08
-1.2815041e-07
8.7579313e-08
-1.4464361e-07
9.21694e-08
-1.6190634e-07
9.6495125e-08
-1.7988897e-07
1.0054728e-07
-1.9854051e-07
1.043179e-07
-2.1780876e-07
1.0780027e-07
-2.3764057e-07
1.1098891e-07
-2.5798208e-07
1.1387962e-07
-2.7877892e-07
1.1646942e-07
-2.9997647e-07
1.1875653e-07
-3.2152003e-07
1.207404e-07
-3.4335506e-07
1.2242157e-07
-3.6542739e-07
1.2380176e-07
-3.8768339e-07
1.2488371e-07
-4.1007016e-07
1.2567118e-07
-4.3253573e-07
1.2616892e-07
-4.5502917e-07
1.2638257e-07
-4.7750079e-07
1.263186e-07
-4.9990226e-07
1.259843e-07
-5.2218671e-07
1.2538762e-07
-5.443089e-07
1.2453719e-07
-5.6622528e-07
1.2344222e-07
-5.8789408e-07
1.2211242e-07
-6.0927539e-07
1.2055797e-07
-6.3033121e-07
1.1878938e-07
-6.5102555e-07
1.1681749e-07
-6.713244e-07
1.1465337e-07
-6.9119588e-07
1.1230824e-07
-7.1061021e-07
1.0979345e-07
-7.2953972e-07
1.0712044e-07
-7.4795879e-07
1.0430068e-07
-7.6584386e-07
1.0134564e-07
-7.8317344e-07
9.8266714e-08
-7.9992798e-07
9.5075143e-08
-8.1608997e-07
9.1782042e-08
-8.3164384e-07
8.8398257e-08
-8.4657592e-07
8.4934432e-08
-8.6087438e-07
8.1400936e-08
-8.7452922e-07
7.7807821e-08
-8.8753213e-07
7.4164829e-08
-8.9987655e-07
7.0481356e-08
-9.1155743e-07
6.6766419e-08
-9.2257133e-07
6.3028704e-08
-9.329162e-07
5.9276459e-08
-9.4259146e-07
5.5517572e-08
-9.5159779e-07
5.1759496e-08
-9.5993714e-07
4.8009319e-08
-9.676126e-07
4.4273702e-08
-9.7462839e-07
4.055889e-08
-9.809897e-07
3.6870711e-08
-9.8670272e-07
3.321462e-08
-9.9177447e-07
2.9595665e-08
-9.9621281e-07
2.6018519e-08
-1.0000263e-06
2.2487437e-08
-1.0032242e-06
1.9006339e-08
-1.0058163e-06
1.5578779e-08
-1.007813e-06
1.2207928e-08
-1.0092251e-06
8.8966511e-09
-1.0100636e-06
5.6473496e-09
-1.0103391e-06
2.461809e-09
-1.0100626e-06
-6.5805356e-10
-1.0092523e-06
-3.7069209e-09
-1.0079185e-06
-6.6889835e-09
-1.0060731e-06
-9.6009548e-09
-1.0037286e-06
-1.244181e-08
-1.5210908e-08
-6.1045285e-10
3.9740321e-09
-2.4405115e-09
1.1914687e-08
-5.4844424e-09
1.9820148e-08
-9.7327481e-09
2.7666598e-08
-1.5171937e-08
3.5428002e-08
-2.1784756e-08
4.3079927e-08
-2.9550299e-08
5.0598795e-08
-3.8444098e-08
5.7961737e-08
-4.843826e-08
6.5146756e-08
-5.9501597e-08
7.213279e-08
-7.1599795e-08
7.8899815e-08
-8.4695593e-08
8.5428903e-08
-9.8748977e-08
9.1702342e-08
-1.1371737e-07
9.7703684e-08
-1.2955587e-07
1.0341781e-07
-1.4621746e-07
1.0883099e-07
-1.6365323e-07
1.1393089e-07
-1.8181262e-07
1.1870668e-07
-2.0064365e-07
1.2314894e-07
-2.2009318e-07
1.2724979e-07
-2.4010709e-07
1.3100283e-07
-2.6063059e-07
1.3440313e-07
-2.8160841e-07
1.3744723e-07
-3.0298503e-07
1.4013315e-07
-3.2470488e-07
1.4246026e-07
-3.4671264e-07
1.4442933e-07
-3.6895335e-07
1.4604246e-07
-3.9137265e-07
1.4730299e-07
-4.1391696e-07
1.4821549e-07
-4.3653367e-07
1.4878563e-07
-4.5917129e-07
1.4902019e-07
-4.8177961e-07
1.4892693e-07
-5.0430983e-07
1.4851451e-07
-5.2671469e-07
1.4779247e-07
-5.4894859e-07
1.4677108e-07
-5.7096768e-07
1.4546131e-07
-5.9272997e-07
1.4387471e-07
-6.1419537e-07
1.4202337e-07
-6.3532579e-07
1.3991979e-07
-6.5608513e-07
1.3757684e-07
-6.7643944e-07
1.3500768e-07
-6.9635684e-07
1.3222563e-07
-7.1580759e-07
1.292442e-07
-7.347641e-07
1.2607695e-07
-7.5320091e-07
1.2273749e-07
-7.7109465e-07
1.1923937e-07
-7.8842399e-07
1.1559606e-07
-8.0516969e-07
1.1182086e-07
-8.2131451e-07
1.0792687e-07
-8.368432e-07
1.0392693e-07
-8.5174238e-07
9.9833621e-08
-8.660006e-07
9.5659152e-08
-8.7960819e-07
9.1415408e-08
-8.9255724e-07
8.7113882e-08
-9.048415e-07
8.2765617e-08
-9.1645639e-07
7.8381313e-08
-9.2739878e-07
7.3971091e-08
-9.3766707e-07
6.9544756e-08
-9.4726105e-07
6.5111544e-08
-9.5618178e-07
6.0680233e-08
-9.6443161e-07
5.6259143e-08
-9.7201399e-07
5.1856093e-08
-9.789335e-07
4.7478408e-08
-9.8519576e-07
4.3132964e-08
-9.9080725e-07
3.8826109e-08
-9.9577535e-07
3.456378e-08
-1.0001083e-06
3.0351418e-08
-1.0038149e-06
2.6194028e-08
-1.0069047e-06
2.2096161e-08
-1.0093878e-06
1.8061929e-08
-1.011275e-06
1.4095045e-08
-1.0125771e-06
1.0198749e-08
-1.0133054e-06
6.3757262e-09
-1.0134714e-06
2.6278052e-09
-1.0130883e-06
-1.0412313e-09
-1.0121695e-06
-4.6256322e-09
-1.0107278e-06
-8.1307094e-09
-1.0087755e-06
-1.1553271e-08
-1.0063253e-06
-1.4891966e-08
-1.8146002e-08
-6.1868774e-10
4.5927198e-09
-2.4734851e-09
1.3769484e-08
-5.5585664e-09
2.2905229e-08
-9.8642547e-09
3.1972287e-08
-1.5376718e-08
4.0940466e-08
-2.2078237e-08
4.9781446e-08
-2.9947337e-08
5.8467894e-08
-3.8958899e-08
6.69733e-08
-4.9084285e-08
7.527214e-08
-6.0291497e-08
8.3340004e-08
-7.2545346e-08
9.1153664e-08
-8.5807627e-08
9.8691185e-08
-1.0003733e-07
1.0593204e-07
-1.1519085e-07
1.128572e-07
-1.3122219e-07
1.1944916e-07
-1.4808324e-07
1.2569204e-07
-1.6572396e-07
1.3157161e-07
-1.8409263e-07
1.3707535e-07
-2.0313615e-07
1.4219246e-07
-2.2280021e-07
1.4691385e-07
-2.4302958e-07
1.512322e-07
-2.6376835e-07
1.551419e-07
-2.8496016e-07
1.5863904e-07
-3.0654844e-07
1.6172142e-07
-3.2847663e-07
1.6438844e-07
-3.5068841e-07
1.6664112e-07
-3.7312792e-07
1.6848197e-07
-3.9573993e-07
1.6991501e-07
-4.1847007e-07
1.7094563e-07
-4.4126498e-07
1.7158055e-07
-4.6407251e-07
1.7182771e-07
-4.8684181e-07
1.7169623e-07
-5.0952356e-07
1.7119626e-07
-5.3207001e-07
1.7033893e-07
-5.5443517e-07
1.6913624e-07
-5.7657484e-07
1.6760099e-07
-5.9844677e-07
1.6574664e-07
-6.2001066e-07
1.6358726e-07
-6.4122828e-07
1.6113741e-07
-6.6206349e-07
1.5841205e-07
-6.8248228e-07
1.5542648e-07
-7.0245285e-07
1.5219619e-07
-7.2194552e-07
1.4873687e-07
-7.4093284e-07
1.4506427e-07
-7.593895e-07
1.4119416e-07
-7.7729235e-07
1.3714222e-07
-7.9462036e-07
1.3292407e-07
-8.1135457e-07
1.2855507e-07
-8.2747807e-07
1.2405037e-07
-8.4297596e-07
1.1942484e-07
-8.5783531e-07
1.1469296e-07
-8.7204502e-07
1.0986886e-07
-8.8559586e-07
1.0496626e-07
-8.9848036e-07
9.9998377e-08
-9.1069273e-07
9.4977994e-08
-9.222288e-07
8.9917383e-08
-9.3308597e-07
8.4828263e-08
-9.4326308e-07
7.9721858e-08
-9.5276033e-07
7.4608812e-08
-9.6157933e-07
6.9499223e-08
-9.697228e-07
6.4402622e-08
-9.7719472e-07
5.9327992e-08
-9.8400006e-07
5.4283747e-08
-9.9014485e-07
4.9277757e-08
-9.9563605e-07
4.4317294e-08
-1.0004814e-06
3.9409156e-08
-1.0046895e-06
3.4559522e-08
-1.0082696e-06
2.9774134e-08
-1.0112316e-06
2.5058169e-08
-1.013586e-06
2.041631e-08
-1.0153437e-06
1.5852748e-08
-1.0165161e-06
1.1371128e-08
-1.0171148e-06
6.9744628e-09
-1.0171516e-06
2.6646256e-09
-1.0166405e-06
-1.5523348e-09
-1.0155941e-06
-5.6720182e-09
-1.0140254e-06
-9.6994452e-09
-1.0119472e-06
-1.3631483e-08
-1.0093726e-06
-1.7466614e-08
-2.1203935e-08
-6.2829525e-10
5.2210152e-09
-2.5119015e-09
1.565309e-08
-5.6448546e-09
2.6038183e-08
-1.0017227e-08
3.6344658e-08
-1.5614786e-08
4.6538024e-08
-2.241928e-08
5.6585941e-08
-3.0408584e-08
6.6457198e-08
-3.9556817e-08
7.6121533e-08
-4.9834489e-08
8.5549812e-08
-6.1208657e-08
9.471417e-08
-7.3643102e-08
1.0358811e-07
-8.7098529e-08
1.1214661e-07
-1.0153276e-07
1.2036628e-07
-1.1690098e-07
1.2822542e-07
-1.3315594e-07
1.3570412e-07
-1.5024822e-07
1.4278432e-07
-1.6812647e-07
1.4944986e-07
-1.8673766e-07
1.5568654e-07
-2.0602732e-07
1.6148212e-07
-2.2593983e-07
1.6682636e-07
-2.4641864e-07
1.7171101e-07
-2.6740655e-07
1.761298e-07
-2.8884594e-07
1.8007843e-07
-3.10679e-07
1.8355449e-07
-3.3284802e-07
1.8655746e-07
-3.5529555e-07
1.8908865e-07
-3.7796467e-07
1.9115108e-07
-4.0079915e-07
1.9274949e-07
-4.237437e-07
1.9389017e-07
-4.4674409e-07
1.9458094e-07
-4.697474e-07
1.9483102e-07
-4.9270208e-07
1.9465091e-07
-5.1555817e-07
1.9405235e-07
-5.382674e-07
1.9304816e-07
-5.6078331e-07
1.9165214e-07
-5.8306131e-07
1.89879e-07
-6.0505884e-07
1.8774417e-07
-6.267354e-07
1.8526382e-07
-6.4805258e-07
1.8245459e-07
-6.6897418e-07
1.7933365e-07
-6.8946618e-07
1.7591847e-07
-7.094968e-07
1.7222681e-07
-7.290365e-07
1.6827657e-07
-7.4805798e-07
1.6408574e-07
-7.6653614e-07
1.5967231e-07
-7.844481e-07
1.5505419e-07
-8.0177314e-07
1.502491e-07
-8.1849267e-07
1.4527459e-07
-8.3459016e-07
1.4014786e-07
-8.5005115e-07
1.3488583e-07
-8.6486312e-07
1.2950493e-07
-8.7901549e-07
1.2402123e-07
-8.9249952e-07
1.1845028e-07
-9.0530823e-07
1.1280709e-07
-9.1743639e-07
1.0710615e-07
-9.2888034e-07
1.0136133e-07
-9.39638e-07
9.5585918e-08
-9.4970877e-07
8.9792622e-08
-9.590934e-07
8.3993442e-08
-9.6779399e-07
7.8199806e-08
-9.7581384e-07
7.2422465e-08
-9.8315739e-07
6.6671558e-08
-9.8983019e-07
6.0956549e-08
-9.9583873e-07
5.5286294e-08
-1.0011904e-06
4.9669005e-08
-1.0058935e-06
4.4112254e-08
-1.0099571e-06
3.862307e-08
-1.0133908e-06
3.3207827e-08
-1.0162049e-06
2.7872319e-08
-1.0184104e-06
2.2621781e-08
-1.0200186e-06
1.7460883e-08
-1.0210411e-06
1.2393664e-08
-1.0214901e-06
7.4234112e-09
-1.0213774e-06
2.5520233e-09
-1.0207182e-06
-2.2116336e-09
-1.0195243e-06
-6.8658896e-09
-1.0178091e-06
-1.1414644e-08
-1.0155858e-06
-1.585476e-08
-1.0128677e-06
-2.0184664e-08
-2.4403414e-08
-6.3929976e-10
5.8603149e-09
-2.5558866e-09
1.7569678e-08
-5.7436192e-09
2.9225915e-08
-1.0192255e-08
4.0793295e-08
-1.5887096e-08
5.2232866e-08
-2.280928e-08
6.3508124e-08
-3.0935938e-08
7.4583857e-08
-4.0240323e-08
8.5425917e-08
-5.0691962e-08
9.6001453e-08
-6.2256829e-08
1.0627904e-07
-7.4897528e-08
1.1622881e-07
-8.8573499e-08
1.2582258e-07
-1.0324123e-07
1.3503401e-07
-1.1885452e-07
1.438387e-07
-1.3536466e-07
1.5221426e-07
-1.5272076e-07
1.6014042e-07
-1.7086994e-07
1.6759904e-07
-1.8975765e-07
1.7457425e-07
-2.0932789e-07
1.8105236e-07
-2.2952352e-07
1.8702198e-07
-2.5028648e-07
1.9247396e-07
-2.7155807e-07
1.974014e-07
-2.9327925e-07
2.017996e-07
-3.1539081e-07
2.0566605e-07
-3.378337e-07
2.0900035e-07
-3.6054918e-07
2.1180413e-07
-3.8347913e-07
2.1408103e-07
-4.0656619e-07
2.1583655e-07
-4.2975401e-07
2.1707799e-07
-4.5298739e-07
2.1781433e-07
-4.7621252e-07
2.1805614e-07
-4.9937706e-07
2.1781546e-07
-5.2243036e-07
2.1710565e-07
-5.4532352e-07
2.1594132e-07
-5.6800956e-07
2.1433819e-07
-5.9044349e-07
2.1231292e-07
-6.1258239e-07
2.0988307e-07
-6.343855e-07
2.0706693e-07
-6.5581428e-07
2.0388337e-07
-6.7683242e-07
2.003518e-07
-6.9740591e-07
1.9649196e-07
-7.1750304e-07
1.9232393e-07
-7.3709439e-07
1.8786793e-07
-7.5615285e-07
1.8314421e-07
-7.7465361e-07
1.7817307e-07
-7.9257408e-07
1.7297466e-07
-8.0989392e-07
1.6756894e-07
-8.2659494e-07
1.6197561e-07
-8.4266107e-07
1.5621401e-07
-8.5807835e-07
1.503031e-07
-8.7283478e-07
1.4426136e-07
-8.8692033e-07
1.3810678e-07
-9.0032682e-07
1.3185676e-07
-9.1304787e-07
1.2552815e-07
-9.2507884e-07
1.1913712e-07
-9.3641669e-07
1.1269919e-07
-9.4705996e-07
1.0622919e-07
-9.5700863e-07
9.9741291e-08
-9.662641e-07
9.3248909e-08
-9.7482905e-07
8.6764763e-08
-9.8270741e-07
8.0300825e-08
-9.899042e-07
7.3868349e-08
-9.9642554e-07
6.7477888e-08
-1.0022785e-06
6.1139252e-08
-1.0074711e-06
5.4861553e-08
-1.012012e-06
4.8653185e-08
-1.0159108e-06
4.25219e-08
-1.0191777e-06
3.6474762e-08
-1.0218236e-06
3.0518162e-08
-1.0238596e-06
2.4657847e-08
-1.0252977e-06
1.8898952e-08
-1.0261499e-06
1.3245879e-08
-1.0264287e-06
7.7022007e-09
-1.0261462e-06
2.2695475e-09
-1.0253184e-06
-3.0394175e-09
-1.0239571e-06
-8.2272547e-09
-1.0220757e-06
-1.3296002e-08
-1.0196879e-06
-1.8242569e-08
-1.0168072e-06
-2.306533e-08
-2.7763303e-08
-6.5174118e-10
6.5120561e-09
-2.6056099e-09
1.9523546e-08
-5.8552489e-09
3.2475554e-08
-1.0390047e-08
4.5328093e-08
-1.619477e-08
5.8037588e-08
-2.3249857e-08
7.0563212e-08
-3.1531599e-08
8.2865599e-08
-4.1012262e-08
9.4906579e-08
-5.1660261e-08
1.0664945e-07
-6.3440336e-08
1.1805911e-07
-7.6313757e-08
1.2910223e-07
-9.0238525e-08
1.3974735e-07
-1.0516962e-07
1.4996511e-07
-1.2105924e-07
1.5972832e-07
-1.3785705e-07
1.6901207e-07
-1.5551046e-07
1.7779382e-07
-1.7396488e-07
1.8605347e-07
-1.9316404e-07
1.937734e-07
-2.1305018e-07
2.0093851e-07
-2.3356444e-07
2.0753624e-07
-2.5464705e-07
2.1355658e-07
-2.7623766e-07
2.1899201e-07
-2.9827557e-07
2.2383751e-07
-3.2070001e-07
2.280905e-07
-3.434504e-07
2.3175074e-07
-3.6646659e-07
2.3482032e-07
-3.8968907e-07
2.3730351e-07
-4.1305922e-07
2.392067e-07
-4.3651949e-07
2.4053826e-07
-4.6001362e-07
2.4130846e-07
-4.8348679e-07
2.4152931e-07
-5.0688579e-07
2.4121446e-07
-5.3015917e-07
2.4037903e-07
-5.5325737e-07
2.3903952e-07
-5.7613282e-07
2.3721364e-07
-5.9874007e-07
2.3492017e-07
-6.2103583e-07
2.3217884e-07
-6.4297909e-07
2.2901018e-07
-6.645311e-07
2.2543539e-07
-6.856555e-07
2.2147619e-07
-7.0631829e-07
2.1715475e-07
-7.2648782e-07
2.1249347e-07
-7.4613486e-07
2.0751496e-07
-7.6523255e-07
2.0224189e-07
-7.8375635e-07
1.9669687e-07
-8.0168406e-07
1.9090236e-07
-8.1899575e-07
1.8488064e-07
-8.3567372e-07
1.7865357e-07
-8.5170242e-07
1.7224271e-07
-8.6706845e-07
1.6566912e-07
-8.8176041e-07
1.5895332e-07
-8.9576889e-07
1.5211525e-07
-9.0908636e-07
1.4517424e-07
-9.2170712e-07
1.3814891e-07
-9.3362719e-07
1.3105717e-07
-9.4484422e-07
1.2391622e-07
-9.5535745e-07
1.1674243e-07
-9.6516757e-07
1.0955141e-07
-9.7427664e-07
1.0235799e-07
-9.8268806e-07
9.5176191e-08
-9.9040642e-07
8.8019177e-08
-9.9743742e-07
8.0899347e-08
-1.0037878e-06
7.3828288e-08
-1.0094653e-06
6.6816739e-08
-1.0144785e-06
5.9874729e-08
-1.0188367e-06
5.3011445e-08
-1.0225502e-06
4.6235338e-08
-1.0256295e-06
3.9554123e-08
-1.0280862e-06
3.2974787e-08
-1.0299319e-06
2.6503576e-08
-1.031179e-06
2.0146026e-08
-1.03184e-06
1.3906918e-08
-1.0319279e-06
7.7900537e-09
-1.0314548e-06
1.7964642e-09
-1.030438e-06
-4.0561747e-09
-1.0288889e-06
-9.7763547e-09
-1.0268214e-06
-1.5363491e-08
-1.0242494e-06
-2.0814564e-08
-1.0211868e-06
-2.6127949e-08
-3.1302637e-08
-6.6567005e-10
7.1777262e-09
-2.6612744e-09
2.151915e-08
-5.9802061e-09
3.5794486e-08
-1.061143e-08
4.9959317e-08
-1.6539097e-08
6.3965256e-08
-2.3742867e-08
7.7766982e-08
-3.2198072e-08
9.1320803e-08
-4.1875873e-08
1.0458438e-07
-5.2743428e-08
1.1751701e-07
-6.4764092e-08
1.3007978e-07
-7.7897621e-08
1.4223576e-07
-9.2100408e-08
1.5395013e-07
-1.0732572e-07
1.6519042e-07
-1.2352397e-07
1.7592657e-07
-1.4064297e-07
1.8613107e-07
-1.5862824e-07
1.9577909e-07
-1.7742326e-07
2.0484849e-07
-1.9696979e-07
2.1331993e-07
-2.1720816e-07
2.2117687e-07
-2.3807753e-07
2.2840562e-07
-2.5951624e-07
2.3499529e-07
-2.8146205e-07
2.4093782e-07
-3.0385244e-07
2.462279e-07
-3.2662489e-07
2.5086294e-07
-3.4971712e-07
2.5484296e-07
-3.7306736e-07
2.5817056e-07
-3.966146e-07
2.6085075e-07
-4.2029879e-07
2.628909e-07
-4.4406108e-07
2.6430055e-07
-4.6784398e-07
2.6509137e-07
-4.915916e-07
2.6527693e-07
-5.1524974e-07
2.648726e-07
-5.387661e-07
2.6389539e-07
-5.6209037e-07
2.6236378e-07
-5.8517435e-07
2.6029762e-07
-6.079721e-07
2.5771791e-07
-6.3043992e-07
2.5464666e-07
-6.5253651e-07
2.5110677e-07
-6.7422298e-07
2.4712185e-07
-6.9546286e-07
2.4271608e-07
-7.1622218e-07
2.3791406e-07
-7.3646941e-07
2.3274071e-07
-7.5617552e-07
2.2722109e-07
-7.7531395e-07
2.213803e-07
-7.938605e-07
2.1524342e-07
-8.1179339e-07
2.0883527e-07
-8.2909321e-07
2.0218044e-07
-8.4574276e-07
1.9530313e-07
-8.6172713e-07
1.8822708e-07
-8.7703352e-07
1.8097551e-07
-8.9165121e-07
1.7357102e-07
-9.0557153e-07
1.6603556e-07
-9.1878764e-07
1.5839035e-07
-9.3129461e-07
1.5065588e-07
-9.4308922e-07
1.4285179e-07
-9.541699e-07
1.349969e-07
-9.6453665e-07
1.2710918e-07
-9.7419096e-07
1.192057e-07
-9.8313565e-07
1.1130269e-07
-9.913749e-07
1.0341542e-07
-9.9891402e-07
9.5558303e-08
-1.0057595e-06
8.7744807e-08
-1.0119188e-06
7.9987548e-08
-1.0174003e-06
7.2298232e-08
-1.0222132e-06
6.4687723e-08
-1.0263678e-06
5.7165982e-08
-1.0298746e-06
4.9742155e-08
-1.0327451e-06
4.2424597e-08
-1.0349911e-06
3.5220828e-08
-1.0366251e-06
2.8137582e-08
-1.0376599e-06
2.1180796e-08
-1.0381085e-06
1.4355556e-08
-1.0379843e-06
7.6658179e-09
-1.0372995e-06
1.1116711e-09
-1.036073e-06
-5.2826336e-09
-1.0343157e-06
-1.153365e-08
-1.0320419e-06
-1.7637298e-08
-1.0292658e-06
-2.3590669e-08
-1.0260017e-06
-2.9392111e-08
-3.5040643e-08
-6.8114542e-10
7.8588716e-09
-2.7231159e-09
2.3561121e-08
-6.1190205e-09
3.9190391e-08
-1.0857343e-08
5.4697639e-08
-1.6921549e-08
7.0029462e-08
-2.4290411e-08
8.5135844e-08
-3.2938195e-08
9.9968589e-08
-4.2834817e-08
1.14481e-07
-5.3946031e-08
1.2862822e-07
-6.623364e-08
1.4236739e-07
-7.965571e-08
1.5565783e-07
-9.4166822e-08
1.6846125e-07
-1.0971834e-07
1.8074193e-07
-1.2625867e-07
1.9246689e-07
-1.4373356e-07
2.0360597e-07
-1.620864e-07
2.1413194e-07
-1.8125853e-07
2.2402062e-07
-2.0118954e-07
2.3325093e-07
-2.2181755e-07
2.4180489e-07
-2.430796e-07
2.4966767e-07
-2.6491188e-07
2.5682757e-07
-2.8725006e-07
2.63276e-07
-3.100296e-07
2.6900744e-07
-3.3318601e-07
2.7401935e-07
-3.5665514e-07
2.783121e-07
-3.8037346e-07
2.8188888e-07
-4.0427826e-07
2.8475555e-07
-4.2830794e-07
2.8692057e-07
-4.5240218e-07
2.883948e-07
-4.7650219e-07
2.8919138e-07
-5.0055086e-07
2.893256e-07
-5.2449293e-07
2.8881467e-07
-5.4827517e-07
2.8767762e-07
-5.7184645e-07
2.8593506e-07
-5.9515791e-07
2.8360909e-07
-6.1816305e-07
2.8072305e-07
-6.4081778e-07
2.7730138e-07
-6.6308048e-07
2.7336948e-07
-6.8491208e-07
2.6895345e-07
-7.0627608e-07
2.6408008e-07
-7.2713852e-07
2.5877651e-07
-7.4746806e-07
2.5307025e-07
-7.672359e-07
2.4698892e-07
-7.8641577e-07
2.4056019e-07
-8.0498394e-07
2.3381158e-07
-8.2291911e-07
2.2677044e-07
-8.4020239e-07
2.1946373e-07
-8.5681726e-07
2.11918e-07
-8.7274943e-07
2.0415925e-07
-8.8798684e-07
1.9621292e-07
-9.0251954e-07
1.8810371e-07
-9.1633961e-07
1.7985564e-07
-9.2944109e-07
1.7149183e-07