"Points:0","Points:1","Points:2"
0.03333334,2.231972,-0.0008333334
0,2.224218,0
0.03333334,2.231972,0.0008333334
0.03527636,2.233333,-0.000881909
0.03527636,2.233333,0.000881909
0.06549485,2.266667,0.001637371
0.06549485,2.266667,-0.001637371
0.06511619,2.3,0.001627905
0.06511619,2.3,-0.001627905
0.03784949,2.333333,0.0009462373
0.03784949,2.333333,-0.0009462373
0.03333334,2.336815,-0.0008333334
0.03333334,2.336815,0.0008333334
0,2.345767,0
0.8333333,2.465623,-0.02083333
0.829196,2.466667,0.0207299
0.8333333,2.465623,0.02083333
0.829196,2.466667,-0.0207299
0.8666667,2.462218,0.02166667
0.8666667,2.462218,-0.02166667
0.9,2.462797,0.0225
0.9,2.462797,-0.0225
0.9333333,2.466213,0.02333333
0.9333333,2.466213,-0.02333333
0.9360548,2.466667,-0.02340137
0.9360548,2.466667,0.02340137
0.7666667,2.486673,-0.01916667
0.7412764,2.5,0.01853191
0.7666667,2.486673,0.01916667
0.7412764,2.5,-0.01853191
0.8,2.473823,0.02
0.8,2.473823,-0.02
0.9666666,2.471623,0.02416667
0.9666666,2.471623,-0.02416667
1,2.477823,0.025
1,2.477823,-0.025
1.033333,2.483816,0.02583333
1.033333,2.483816,-0.02583333
1.066667,2.489036,0.02666667
1.066667,2.489036,-0.02666667
1.1,2.493213,0.0275
1.1,2.493213,-0.0275
1.133333,2.496282,0.02833333
1.133333,2.496282,-0.02833333
1.166667,2.498293,0.02916667
1.166667,2.498293,-0.02916667
1.2,2.499372,0.03
1.2,2.499372,-0.03
1.233333,2.499702,0.03083333
1.233333,2.499702,-0.03083333
1.266667,2.499521,0.03166667
1.266667,2.499521,-0.03166667
1.3,2.499081,0.0325
1.3,2.499081,-0.0325
1.333333,2.498606,0.03333334
1.333333,2.498606,-0.03333334
1.366667,2.498245,0.03416667
1.366667,2.498245,-0.03416667
1.4,2.498056,0.035
1.4,2.498056,-0.035
1.433333,2.498026,0.03583333
1.433333,2.498026,-0.03583333
1.466667,2.498103,0.03666667
1.466667,2.498103,-0.03666667
1.5,2.498239,0.0375
1.5,2.498239,-0.0375
1.533333,2.498391,0.03833333
1.533333,2.498391,-0.03833333
1.566667,2.498535,0.03916667
1.566667,2.498535,-0.03916667
1.6,2.498659,0.04
1.6,2.498659,-0.04
1.633333,2.49876,0.04083333
1.633333,2.49876,-0.04083333
1.666667,2.498842,0.04166667
1.666667,2.498842,-0.04166667
1.7,2.498909,0.0425
1.7,2.498909,-0.0425
1.733333,2.498968,0.04333333
1.733333,2.498968,-0.04333333
1.766667,2.499021,0.04416667
1.766667,2.499021,-0.04416667
1.8,2.499069,0.045
1.8,2.499069,-0.045
1.833333,2.499115,0.04583333
1.833333,2.499115,-0.04583333
1.866667,2.499158,0.04666667
1.866667,2.499158,-0.04666667
1.9,2.499198,0.0475
1.9,2.499198,-0.0475
1.933333,2.499236,0.04833333
1.933333,2.499236,-0.04833333
1.966667,2.499271,0.04916667
1.966667,2.499271,-0.04916667
2,2.499303,0.05
2,2.499303,-0.05
2.033333,2.499333,0.05083333
2.033333,2.499333,-0.05083333
2.066667,2.499361,0.05166667
2.066667,2.499361,-0.05166667
2.1,2.499387,0.0525
2.1,2.499387,-0.0525
2.133333,2.499412,0.05333333
2.133333,2.499412,-0.05333333
2.166667,2.499434,0.05416667
2.166667,2.499434,-0.05416667
2.2,2.499456,0.055
2.2,2.499456,-0.055
2.233333,2.499476,0.05583333
2.233333,2.499476,-0.05583333
2.266667,2.499495,0.05666667
2.266667,2.499495,-0.05666667
2.3,2.499512,0.0575
2.3,2.499512,-0.0575
2.333333,2.499529,0.05833333
2.333333,2.499529,-0.05833333
2.366667,2.499545,0.05916667
2.366667,2.499545,-0.05916667
2.4,2.499559,0.06
2.4,2.499559,-0.06
2.433333,2.499573,0.06083333
2.433333,2.499573,-0.06083333
2.466667,2.499586,0.06166667
2.466667,2.499586,-0.06166667
2.5,2.499599,0.0625
2.5,2.499599,-0.0625
2.533333,2.49961,0.06333333
2.533333,2.49961,-0.06333333
2.566667,2.499621,0.06416667
2.566667,2.499621,-0.06416667
2.6,2.499632,0.065
2.6,2.499632,-0.065
2.633333,2.499642,0.06583333
2.633333,2.499642,-0.06583333
2.666667,2.499651,0.06666667
2.666667,2.499651,-0.06666667
2.7,2.49966,0.0675
2.7,2.49966,-0.0675
2.733333,2.499668,0.06833334
2.733333,2.499668,-0.06833334
2.766667,2.499676,0.06916667
2.766667,2.499676,-0.06916667
2.8,2.499683,0.07
2.8,2.499683,-0.07
2.833333,2.49969,0.07083333
2.833333,2.49969,-0.07083333
2.866667,2.499697,0.07166667
2.866667,2.499697,-0.07166667
2.9,2.499703,0.0725
2.9,2.499703,-0.0725
2.933333,2.499709,0.07333333
2.933333,2.499709,-0.07333333
2.966667,2.499715,0.07416666
2.966667,2.499715,-0.07416666
3,2.499721,0.075
3,2.499721,-0.075
3.033333,2.499726,0.07583334
3.033333,2.499726,-0.07583334
3.066667,2.49973,0.07666667
3.066667,2.49973,-0.07666667
3.1,2.499735,0.0775
3.1,2.499735,-0.0775
3.133333,2.499739,0.07833333
3.133333,2.499739,-0.07833333
3.166667,2.499743,0.07916667
3.166667,2.499743,-0.07916667
3.2,2.499747,0.08
3.2,2.499747,-0.08
3.233333,2.499751,0.08083333
3.233333,2.499751,-0.08083333
3.266667,2.499754,0.08166666
3.266667,2.499754,-0.08166666
3.3,2.499757,0.0825
3.3,2.499757,-0.0825
3.333333,2.49976,0.08333334
3.333333,2.49976,-0.08333334
3.366667,2.499763,0.08416667
3.366667,2.499763,-0.08416667
3.4,2.499765,0.085
3.4,2.499765,-0.085
3.433333,2.499768,0.08583333
3.433333,2.499768,-0.08583333
3.466667,2.49977,0.08666667
3.466667,2.49977,-0.08666667
3.5,2.499772,0.0875
3.5,2.499772,-0.0875
3.533333,2.499774,0.08833333
3.533333,2.499774,-0.08833333
3.566667,2.499776,0.08916666
3.566667,2.499776,-0.08916666
3.6,2.499778,0.09
3.6,2.499778,-0.09
3.633333,2.499779,0.09083334
3.633333,2.499779,-0.09083334
3.666667,2.49978,0.09166667
3.666667,2.49978,-0.09166667
3.7,2.499782,0.0925
3.7,2.499782,-0.0925
3.733333,2.499783,0.09333333
3.733333,2.499783,-0.09333333
3.766667,2.499784,0.09416667
3.766667,2.499784,-0.09416667
3.8,2.499785,0.095
3.8,2.499785,-0.095
3.833333,2.499786,0.09583333
3.833333,2.499786,-0.09583333
3.866667,2.499787,0.09666666
3.866667,2.499787,-0.09666666
3.9,2.499787,0.0975
3.9,2.499787,-0.0975
3.933333,2.499788,0.09833334
3.933333,2.499788,-0.09833334
3.966667,2.499789,0.09916667
3.966667,2.499789,-0.09916667
4,2.499789,0.1
4,2.499789,-0.1
0.7,2.523799,-0.0175
0.686377,2.533333,0.01715943
0.7,2.523799,0.0175
0.686377,2.533333,-0.01715943
0.7333333,2.504551,0.01833333
0.7333333,2.504551,-0.01833333
0.03333334,2.562179,-0.0008333334
0,2.547635,0
0.03333334,2.562179,0.0008333334
0.03904526,2.566667,-0.0009761313
0.03904526,2.566667,0.0009761313
0.6666667,2.546882,-0.01666667
0.6390797,2.566667,0.01597699
0.6666667,2.546882,0.01666667
0.6390797,2.566667,-0.01597699
0.057673,2.6,0.001441825
0.057673,2.6,-0.001441825
0.6,2.595114,-0.015
0.594122,2.6,0.01485305
0.6,2.595114,0.015
0.594122,2.6,-0.01485305
0.6333333,2.571228,0.01583333
0.6333333,2.571228,-0.01583333
0.03333334,2.624513,-0.0008333334
0.03333334,2.624513,0.0008333334
0,2.630135,0
0.5666667,2.621255,-0.01416667
0.5522461,2.633333,0.01380615
0.5666667,2.621255,0.01416667
0.5522461,2.633333,-0.01380615
0.5333334,2.649058,-0.01333333
0.5129818,2.666667,0.01282454
0.5333334,2.649058,0.01333333
0.5129818,2.666667,-0.01282454
0.5,2.678416,-0.0125
0.4767587,2.7,0.01191897
0.5,2.678416,0.0125
0.4767587,2.7,-0.01191897
0.4666667,2.709817,-0.01166667
0.4436846,2.733333,0.01109212
0.4666667,2.709817,0.01166667
0.4436846,2.733333,-0.01109212
0.4333333,2.74489,-0.01083333
0.41547,2.766667,0.01038675
0.4333333,2.74489,0.01083333
0.41547,2.766667,-0.01038675
0.4,2.792022,-0.01
0.3949681,2.8,0.009874202
0.4,2.792022,0.01
0.3949681,2.8,-0.009874202
0.3835449,2.833333,0.009588622
0.3835449,2.833333,-0.009588622
0.3801914,2.866667,0.009504785
0.3801914,2.866667,-0.009504785
0.3833173,2.9,0.009582932
0.3833173,2.9,-0.009582932
0.3902832,2.933333,0.009757079
0.3902832,2.933333,-0.009757079
0.3995911,2.966667,0.009989778
0.3995911,2.966667,-0.009989778
0.4,2.967908,0.01
0.4,2.967908,-0.01
0.4098212,3,-0.01024553
0.4098212,3,0.01024553
0.4195202,3.033333,0.010488
0.4195202,3.033333,-0.010488
0.427846,3.066667,0.01069615
0.427846,3.066667,-0.01069615
0.4333333,3.097031,0.01083333
0.4333333,3.097031,-0.01083333
0.4338842,3.1,-0.0108471
0.4338842,3.1,0.0108471
0.4368216,3.133333,0.01092054
0.4368216,3.133333,-0.01092054
0.4364192,3.166667,0.01091048
0.4364192,3.166667,-0.01091048
0.4333333,3.191702,-0.01083333
0.4322787,3.2,0.01080697
0.4333333,3.191702,0.01083333
0.4322787,3.2,-0.01080697
0.4236262,3.233333,0.01059065
0.4236262,3.233333,-0.01059065
0.4105806,3.266667,0.01026451
0.4105806,3.266667,-0.01026451
0.4,3.285193,-0.01
0.3911736,3.3,0.00977934
0.4,3.285193,0.01
0.3911736,3.3,-0.00977934
0.3666667,3.331094,-0.009166666
0.3645524,3.333333,0.009113809
0.3666667,3.331094,0.009166666
0.3645524,3.333333,-0.009113809
0.3333333,3.361802,-0.008333334
0.3273505,3.366667,0.008183762
0.3333333,3.361802,0.008333334
0.3273505,3.366667,-0.008183762
0.3,3.386351,-0.0075
0.2782452,3.4,0.006956128
0.3,3.386351,0.0075
0.2782452,3.4,-0.006956128
0.2333333,3.424879,-0.005833333
0.2161139,3.433333,0.005402847
0.2333333,3.424879,0.005833333
0.2161139,3.433333,-0.005402847
0.2666667,3.407518,0.006666667
0.2666667,3.407518,-0.006666667
0.1333333,3.465322,-0.003333333
0.1283527,3.466667,0.003208817
0.1333333,3.465322,0.003333333
0.1283527,3.466667,-0.003208817
0.1666667,3.454308,0.004166667
0.1666667,3.454308,-0.004166667
0.2,3.44121,0.005
0.2,3.44121,-0.005
0.03333334,3.484099,-0.0008333334
0,3.485036,0
0.03333334,3.484099,0.0008333334
0.06666667,3.480182,0.001666667
0.06666667,3.480182,-0.001666667
0.1,3.473874,0.0025
0.1,3.473874,-0.0025
