"Points:0","Points:1","Points:2"
0.3333333,2.499048,-0.008333334
0.330852,2.5,0.008271299
0.3333333,2.499048,0.008333334
0.330852,2.5,-0.008271299
0.3666667,2.49411,0.009166666
0.3666667,2.49411,-0.009166666
0.4,2.49446,0.01
0.4,2.49446,-0.01
0.4333333,2.495845,0.01083333
0.4333333,2.495845,-0.01083333
0.4666667,2.49731,0.01166667
0.4666667,2.49731,-0.01166667
0.5,2.498385,0.0125
0.5,2.498385,-0.0125
0.5333334,2.498981,0.01333333
0.5333334,2.498981,-0.01333333
0.5666667,2.499297,0.01416667
0.5666667,2.499297,-0.01416667
0.6,2.499471,0.015
0.6,2.499471,-0.015
0.6333333,2.499575,0.01583333
0.6333333,2.499575,-0.01583333
0.6666667,2.49965,0.01666667
0.6666667,2.49965,-0.01666667
0.7,2.499707,0.0175
0.7,2.499707,-0.0175
0.7333333,2.499753,0.01833333
0.7333333,2.499753,-0.01833333
0.7666667,2.499789,0.01916667
0.7666667,2.499789,-0.01916667
0.8,2.499819,0.02
0.8,2.499819,-0.02
0.8333333,2.499843,0.02083333
0.8333333,2.499843,-0.02083333
0.8666667,2.499863,0.02166667
0.8666667,2.499863,-0.02166667
0.9,2.49988,0.0225
0.9,2.49988,-0.0225
0.9333333,2.499893,0.02333333
0.9333333,2.499893,-0.02333333
0.9666666,2.499905,0.02416667
0.9666666,2.499905,-0.02416667
1,2.499915,0.025
1,2.499915,-0.025
1.033333,2.499924,0.02583333
1.033333,2.499924,-0.02583333
1.066667,2.499931,0.02666667
1.066667,2.499931,-0.02666667
1.1,2.499938,0.0275
1.1,2.499938,-0.0275
1.133333,2.499943,0.02833333
1.133333,2.499943,-0.02833333
1.166667,2.499948,0.02916667
1.166667,2.499948,-0.02916667
1.2,2.499952,0.03
1.2,2.499952,-0.03
1.233333,2.499956,0.03083333
1.233333,2.499956,-0.03083333
1.266667,2.499959,0.03166667
1.266667,2.499959,-0.03166667
1.3,2.499963,0.0325
1.3,2.499963,-0.0325
1.333333,2.499965,0.03333334
1.333333,2.499965,-0.03333334
1.366667,2.499968,0.03416667
1.366667,2.499968,-0.03416667
1.4,2.49997,0.035
1.4,2.49997,-0.035
1.433333,2.499972,0.03583333
1.433333,2.499972,-0.03583333
1.466667,2.499974,0.03666667
1.466667,2.499974,-0.03666667
1.5,2.499975,0.0375
1.5,2.499975,-0.0375
1.533333,2.499977,0.03833333
1.533333,2.499977,-0.03833333
1.566667,2.499978,0.03916667
1.566667,2.499978,-0.03916667
1.6,2.499979,0.04
1.6,2.499979,-0.04
1.633333,2.499981,0.04083333
1.633333,2.499981,-0.04083333
1.666667,2.499982,0.04166667
1.666667,2.499982,-0.04166667
1.7,2.499983,0.0425
1.7,2.499983,-0.0425
1.733333,2.499984,0.04333333
1.733333,2.499984,-0.04333333
1.766667,2.499985,0.04416667
1.766667,2.499985,-0.04416667
1.8,2.499985,0.045
1.8,2.499985,-0.045
1.833333,2.499986,0.04583333
1.833333,2.499986,-0.04583333
1.866667,2.499987,0.04666667
1.866667,2.499987,-0.04666667
1.9,2.499987,0.0475
1.9,2.499987,-0.0475
1.933333,2.499988,0.04833333
1.933333,2.499988,-0.04833333
1.966667,2.499988,0.04916667
1.966667,2.499988,-0.04916667
2,2.499989,0.05
2,2.499989,-0.05
2.033333,2.499989,0.05083333
2.033333,2.499989,-0.05083333
2.066667,2.49999,0.05166667
2.066667,2.49999,-0.05166667
2.1,2.49999,0.0525
2.1,2.49999,-0.0525
2.133333,2.49999,0.05333333
2.133333,2.49999,-0.05333333
2.166667,2.499991,0.05416667
2.166667,2.499991,-0.05416667
2.2,2.499991,0.055
2.2,2.499991,-0.055
2.233333,2.499991,0.05583333
2.233333,2.499991,-0.05583333
2.266667,2.499992,0.05666667
2.266667,2.499992,-0.05666667
2.3,2.499992,0.0575
2.3,2.499992,-0.0575
2.333333,2.499992,0.05833333
2.333333,2.499992,-0.05833333
2.366667,2.499993,0.05916667
2.366667,2.499993,-0.05916667
2.4,2.499993,0.06
2.4,2.499993,-0.06
2.433333,2.499993,0.06083333
2.433333,2.499993,-0.06083333
2.466667,2.499993,0.06166667
2.466667,2.499993,-0.06166667
2.5,2.499993,0.0625
2.5,2.499993,-0.0625
2.533333,2.499994,0.06333333
2.533333,2.499994,-0.06333333
2.566667,2.499994,0.06416667
2.566667,2.499994,-0.06416667
2.6,2.499994,0.065
2.6,2.499994,-0.065
2.633333,2.499994,0.06583333
2.633333,2.499994,-0.06583333
2.666667,2.499994,0.06666667
2.666667,2.499994,-0.06666667
2.7,2.499994,0.0675
2.7,2.499994,-0.0675
2.733333,2.499995,0.06833334
2.733333,2.499995,-0.06833334
2.766667,2.499995,0.06916667
2.766667,2.499995,-0.06916667
2.8,2.499995,0.07
2.8,2.499995,-0.07
2.833333,2.499995,0.07083333
2.833333,2.499995,-0.07083333
2.866667,2.499995,0.07166667
2.866667,2.499995,-0.07166667
2.9,2.499995,0.0725
2.9,2.499995,-0.0725
2.933333,2.499995,0.07333333
2.933333,2.499995,-0.07333333
2.966667,2.499995,0.07416666
2.966667,2.499995,-0.07416666
3,2.499995,0.075
3,2.499995,-0.075
3.033333,2.499995,0.07583334
3.033333,2.499995,-0.07583334
3.066667,2.499995,0.07666667
3.066667,2.499995,-0.07666667
3.1,2.499995,0.0775
3.1,2.499995,-0.0775
3.133333,2.499996,0.07833333
3.133333,2.499996,-0.07833333
3.166667,2.499996,0.07916667
3.166667,2.499996,-0.07916667
3.2,2.499996,0.08
3.2,2.499996,-0.08
3.233333,2.499996,0.08083333
3.233333,2.499996,-0.08083333
3.266667,2.499996,0.08166666
3.266667,2.499996,-0.08166666
3.3,2.499996,0.0825
3.3,2.499996,-0.0825
3.333333,2.499996,0.08333334
3.333333,2.499996,-0.08333334
3.366667,2.499996,0.08416667
3.366667,2.499996,-0.08416667
3.4,2.499996,0.085
3.4,2.499996,-0.085
3.433333,2.499996,0.08583333
3.433333,2.499996,-0.08583333
3.466667,2.499996,0.08666667
3.466667,2.499996,-0.08666667
3.5,2.499996,0.0875
3.5,2.499996,-0.0875
3.533333,2.499996,0.08833333
3.533333,2.499996,-0.08833333
3.566667,2.499996,0.08916666
3.566667,2.499996,-0.08916666
3.6,2.499996,0.09
3.6,2.499996,-0.09
3.633333,2.499996,0.09083334
3.633333,2.499996,-0.09083334
3.666667,2.499996,0.09166667
3.666667,2.499996,-0.09166667
3.7,2.499996,0.0925
3.7,2.499996,-0.0925
3.733333,2.499996,0.09333333
3.733333,2.499996,-0.09333333
3.766667,2.499996,0.09416667
3.766667,2.499996,-0.09416667
3.8,2.499996,0.095
3.8,2.499996,-0.095
3.833333,2.499996,0.09583333
3.833333,2.499996,-0.09583333
3.866667,2.499996,0.09666666
3.866667,2.499996,-0.09666666
3.9,2.499996,0.0975
3.9,2.499996,-0.0975
3.933333,2.499996,0.09833334
3.933333,2.499996,-0.09833334
3.966667,2.499996,0.09916667
3.966667,2.499996,-0.09916667
4,2.499996,0.1
4,2.499996,-0.1
0.2666667,2.532955,-0.006666667
0.2659959,2.533333,0.006649896
0.2666667,2.532955,0.006666667
0.2659959,2.533333,-0.006649896
0.3,2.511388,0.0075
0.3,2.511388,-0.0075
0.2666667,2.535188,0.006666667
0.2666667,2.535188,-0.006666667
0.2711318,2.566667,-0.006778294
0.2711318,2.566667,0.006778294
0.2957047,2.6,0.007392617
0.2957047,2.6,-0.007392617
0.3,2.604568,0.0075
0.3,2.604568,-0.0075
0.3295077,2.633333,-0.008237693
0.3295077,2.633333,0.008237693
0.3333333,2.636838,0.008333334
0.3333333,2.636838,-0.008333334
0.3653982,2.666667,-0.009134954
0.3653982,2.666667,0.009134954
0.3666667,2.66795,0.009166666
0.3666667,2.66795,-0.009166666
0.3949546,2.7,-0.009873864
0.3949546,2.7,0.009873864
0.4,2.706066,0.01
0.4,2.706066,-0.01
0.420023,2.733333,-0.01050057
0.420023,2.733333,0.01050057
0.4333333,2.754968,0.01083333
0.4333333,2.754968,-0.01083333
0.4407368,2.766667,-0.01101842
0.4407368,2.766667,0.01101842
0.4567189,2.8,0.01141797
0.4567189,2.8,-0.01141797
0.4666667,2.824329,0.01166667
0.4666667,2.824329,-0.01166667
0.470482,2.833333,-0.01176205
0.470482,2.833333,0.01176205
0.4808424,2.866667,0.01202106
0.4808424,2.866667,-0.01202106
0.4889259,2.9,0.01222315
0.4889259,2.9,-0.01222315
0.4947633,2.933333,0.01236908
0.4947633,2.933333,-0.01236908
0.4982587,2.966667,0.01245647
0.4982587,2.966667,-0.01245647
0.4994378,3,0.01248595
0.4994378,3,-0.01248595
0.4983235,3.033333,0.01245809
0.4983235,3.033333,-0.01245809
0.4948973,3.066667,0.01237243
0.4948973,3.066667,-0.01237243
0.489143,3.1,0.01222857
0.489143,3.1,-0.01222857
0.4811553,3.133333,0.01202888
0.4811553,3.133333,-0.01202888
0.4709578,3.166667,0.01177394
0.4709578,3.166667,-0.01177394
0.4666667,3.177022,-0.01166667
0.4573932,3.2,0.01143483
0.4666667,3.177022,0.01166667
0.4573932,3.2,-0.01143483
0.441757,3.233333,0.01104392
0.441757,3.233333,-0.01104392
0.4333333,3.2473,-0.01083333
0.4217604,3.266667,0.01054401
0.4333333,3.2473,0.01083333
0.4217604,3.266667,-0.01054401
0.4,3.298469,-0.01
0.3987741,3.3,0.009969352
0.4,3.298469,0.01
0.3987741,3.3,-0.009969352
0.372545,3.333333,0.009313625
0.372545,3.333333,-0.009313625
0.3666667,3.339622,-0.009166666
0.339627,3.366667,0.008490675
0.3666667,3.339622,0.009166666
0.339627,3.366667,-0.008490675
0.3,3.398803,-0.0075
0.2985043,3.4,0.007462607
0.3,3.398803,0.0075
0.2985043,3.4,-0.007462607
0.3333333,3.372551,0.008333334
0.3333333,3.372551,-0.008333334
0.2666667,3.421754,-0.006666667
0.2472961,3.433333,0.006182403
0.2666667,3.421754,0.006666667
0.2472961,3.433333,-0.006182403
0.2,3.457391,-0.005
0.1769656,3.466667,0.004424139
0.2,3.457391,0.005
0.1769656,3.466667,-0.004424139
0.2333333,3.441766,0.005833333
0.2333333,3.441766,-0.005833333
0.03333334,3.498822,-0.0008333334
0,3.49969,0
0.03333334,3.498822,0.0008333334
0.06666667,3.495305,0.001666667
0.06666667,3.495305,-0.001666667
0.1,3.489249,0.0025
0.1,3.489249,-0.0025
0.1333333,3.481251,0.003333333
0.1333333,3.481251,-0.003333333
0.1666667,3.470931,0.004166667
0.1666667,3.470931,-0.004166667
