"Points:0","Points:1","Points:2"
0.004748408,2,-0.0001187102
0,1.999114,0
0.004748408,2,0.0001187102
0.03333334,2.005318,0.0008333334
0.03333334,2.005318,-0.0008333334
0.06098025,2.033333,-0.001524506
0.06098025,2.033333,0.001524506
0.06498066,2.066667,0.001624517
0.06498066,2.066667,-0.001624517
0.05077907,2.1,0.001269477
0.05077907,2.1,-0.001269477
0.03333334,2.117217,-0.0008333334
0.03333334,2.117217,0.0008333334
0,2.128503,0
0.008578246,2.266667,-0.0002144562
0,2.263975,0
0.008578246,2.266667,0.0002144562
0.03333334,2.274987,0.0008333334
0.03333334,2.274987,-0.0008333334
0.05715661,2.3,-0.001428915
0.05715661,2.3,0.001428915
0.05029695,2.333333,0.001257424
0.05029695,2.333333,-0.001257424
0.03333334,2.348172,-0.0008333334
0.03333334,2.348172,0.0008333334
0,2.358158,0
1.4,2.460972,-0.035
1.370151,2.466667,0.03425377
1.4,2.460972,0.035
1.370151,2.466667,-0.03425377
1.433333,2.456352,0.03583333
1.433333,2.456352,-0.03583333
1.466667,2.453547,0.03666667
1.466667,2.453547,-0.03666667
1.5,2.452588,0.0375
1.5,2.452588,-0.0375
1.533333,2.453417,0.03833333
1.533333,2.453417,-0.03833333
1.566667,2.45586,0.03916667
1.566667,2.45586,-0.03916667
1.6,2.459615,0.04
1.6,2.459615,-0.04
1.633333,2.464288,0.04083333
1.633333,2.464288,-0.04083333
1.647875,2.466667,-0.04119687
1.647875,2.466667,0.04119687
1.266667,2.494973,-0.03166667
1.252293,2.5,0.03130731
1.266667,2.494973,0.03166667
1.252293,2.5,-0.03130731
1.3,2.484608,0.0325
1.3,2.484608,-0.0325
1.333333,2.475267,0.03333334
1.333333,2.475267,-0.03333334
1.366667,2.467362,0.03416667
1.366667,2.467362,-0.03416667
1.666667,2.469731,0.04166667
1.666667,2.469731,-0.04166667
1.7,2.475507,0.0425
1.7,2.475507,-0.0425
1.733333,2.481394,0.04333333
1.733333,2.481394,-0.04333333
1.766667,2.487036,0.04416667
1.766667,2.487036,-0.04416667
1.8,2.492135,0.045
1.8,2.492135,-0.045
1.833333,2.496562,0.04583333
1.833333,2.496562,-0.04583333
1.864448,2.5,-0.0466112
1.864448,2.5,0.0466112
2.2,2.498616,-0.055
2.168402,2.5,0.05421004
2.2,2.498616,0.055
2.168402,2.5,-0.05421004
2.233333,2.497437,0.05583333
2.233333,2.497437,-0.05583333
2.266667,2.496617,0.05666667
2.266667,2.496617,-0.05666667
2.3,2.49619,0.0575
2.3,2.49619,-0.0575
2.333333,2.496127,0.05833333
2.333333,2.496127,-0.05833333
2.366667,2.496349,0.05916667
2.366667,2.496349,-0.05916667
2.4,2.496755,0.06
2.4,2.496755,-0.06
2.433333,2.497245,0.06083333
2.433333,2.497245,-0.06083333
2.466667,2.497736,0.06166667
2.466667,2.497736,-0.06166667
2.5,2.498163,0.0625
2.5,2.498163,-0.0625
2.533333,2.49849,0.06333333
2.533333,2.49849,-0.06333333
2.566667,2.498703,0.06416667
2.566667,2.498703,-0.06416667
2.6,2.498812,0.065
2.6,2.498812,-0.065
2.633333,2.498839,0.06583333
2.633333,2.498839,-0.06583333
2.666667,2.498816,0.06666667
2.666667,2.498816,-0.06666667
2.7,2.49877,0.0675
2.7,2.49877,-0.0675
2.733333,2.498725,0.06833334
2.733333,2.498725,-0.06833334
2.766667,2.498697,0.06916667
2.766667,2.498697,-0.06916667
2.8,2.49869,0.07
2.8,2.49869,-0.07
2.833333,2.498703,0.07083333
2.833333,2.498703,-0.07083333
2.866667,2.498729,0.07166667
2.866667,2.498729,-0.07166667
2.9,2.498763,0.0725
2.9,2.498763,-0.0725
2.933333,2.498799,0.07333333
2.933333,2.498799,-0.07333333
2.966667,2.498834,0.07416666
2.966667,2.498834,-0.07416666
3,2.498865,0.075
3,2.498865,-0.075
3.033333,2.498892,0.07583334
3.033333,2.498892,-0.07583334
3.066667,2.498914,0.07666667
3.066667,2.498914,-0.07666667
3.1,2.498934,0.0775
3.1,2.498934,-0.0775
3.133333,2.498951,0.07833333
3.133333,2.498951,-0.07833333
3.166667,2.498967,0.07916667
3.166667,2.498967,-0.07916667
3.2,2.498981,0.08
3.2,2.498981,-0.08
3.233333,2.498996,0.08083333
3.233333,2.498996,-0.08083333
3.266667,2.499009,0.08166666
3.266667,2.499009,-0.08166666
3.3,2.499022,0.0825
3.3,2.499022,-0.0825
3.333333,2.499034,0.08333334
3.333333,2.499034,-0.08333334
3.366667,2.499046,0.08416667
3.366667,2.499046,-0.08416667
3.4,2.499058,0.085
3.4,2.499058,-0.085
3.433333,2.499068,0.08583333
3.433333,2.499068,-0.08583333
3.466667,2.499078,0.08666667
3.466667,2.499078,-0.08666667
3.5,2.499088,0.0875
3.5,2.499088,-0.0875
3.533333,2.499096,0.08833333
3.533333,2.499096,-0.08833333
3.566667,2.499105,0.08916666
3.566667,2.499105,-0.08916666
3.6,2.499113,0.09
3.6,2.499113,-0.09
3.633333,2.49912,0.09083334
3.633333,2.49912,-0.09083334
3.666667,2.499128,0.09166667
3.666667,2.499128,-0.09166667
3.7,2.499135,0.0925
3.7,2.499135,-0.0925
3.733333,2.499141,0.09333333
3.733333,2.499141,-0.09333333
3.766667,2.499148,0.09416667
3.766667,2.499148,-0.09416667
3.8,2.499154,0.095
3.8,2.499154,-0.095
3.833333,2.49916,0.09583333
3.833333,2.49916,-0.09583333
3.866667,2.499166,0.09666666
3.866667,2.499166,-0.09666666
3.9,2.499172,0.0975
3.9,2.499172,-0.0975
3.933333,2.499178,0.09833334
3.933333,2.499178,-0.09833334
3.966667,2.499184,0.09916667
3.966667,2.499184,-0.09916667
4,2.499186,0.1
4,2.499186,-0.1
1.166667,2.530627,-0.02916667
1.159935,2.533333,0.02899838
1.166667,2.530627,0.02916667
1.159935,2.533333,-0.02899838
1.2,2.51845,0.03
1.2,2.51845,-0.03
1.233333,2.50657,0.03083333
1.233333,2.50657,-0.03083333
1.866667,2.50025,0.04666667
1.866667,2.50025,-0.04666667
1.9,2.503084,0.0475
1.9,2.503084,-0.0475
1.933333,2.505048,0.04833333
1.933333,2.505048,-0.04833333
1.966667,2.506141,0.04916667
1.966667,2.506141,-0.04916667
2,2.5064,0.05
2,2.5064,-0.05
2.033333,2.505908,0.05083333
2.033333,2.505908,-0.05083333
2.066667,2.504816,0.05166667
2.066667,2.504816,-0.05166667
2.1,2.50334,0.0525
2.1,2.50334,-0.0525
2.133333,2.501698,0.05333333
2.133333,2.501698,-0.05333333
2.166667,2.500077,0.05416667
2.166667,2.500077,-0.05416667
1.1,2.556055,-0.0275
1.071709,2.566667,0.02679272
1.1,2.556055,0.0275
1.071709,2.566667,-0.02679272
1.133333,2.543438,0.02833333
1.133333,2.543438,-0.02833333
1,2.592822,-0.025
0.9796416,2.6,0.02449104
1,2.592822,0.025
0.9796416,2.6,-0.02449104
1.033333,2.580896,0.02583333
1.033333,2.580896,-0.02583333
1.066667,2.568689,0.02666667
1.066667,2.568689,-0.02666667
0.9,2.626277,-0.0225
0.8769794,2.633333,0.02192448
0.9,2.626277,0.0225
0.8769794,2.633333,-0.02192448
0.9333333,2.615681,0.02333333
0.9333333,2.615681,-0.02333333
0.9666666,2.60466,0.02416667
0.9666666,2.60466,-0.02416667
0.7666667,2.663573,-0.01916667
0.7539228,2.666667,0.01884807
0.7666667,2.663573,0.01916667
0.7539228,2.666667,-0.01884807
0.8,2.655181,0.02
0.8,2.655181,-0.02
0.8333333,2.646111,0.02083333
0.8333333,2.646111,-0.02083333
0.8666667,2.636583,0.02166667
0.8666667,2.636583,-0.02166667
0.6,2.696509,-0.015
0.5760961,2.7,0.0144024
0.6,2.696509,0.015
0.5760961,2.7,-0.0144024
0.6333333,2.691226,0.01583333
0.6333333,2.691226,-0.01583333
0.6666667,2.685275,0.01666667
0.6666667,2.685275,-0.01666667
0.7,2.678791,0.0175
0.7,2.678791,-0.0175
0.7333333,2.671585,0.01833333
0.7333333,2.671585,-0.01833333
0.3333333,2.729518,-0.008333334
0.3144402,2.733333,0.007861004
0.3333333,2.729518,0.008333334
0.3144402,2.733333,-0.007861004
0.3666667,2.725138,0.009166666
0.3666667,2.725138,-0.009166666
0.4,2.720735,0.01
0.4,2.720735,-0.01
0.4333333,2.716805,0.01083333
0.4333333,2.716805,-0.01083333
0.4666667,2.71322,0.01166667
0.4666667,2.71322,-0.01166667
0.5,2.709542,0.0125
0.5,2.709542,-0.0125
0.5333334,2.705751,0.01333333
0.5333334,2.705751,-0.01333333
0.5666667,2.7014,0.01416667
0.5666667,2.7014,-0.01416667
0.2333333,2.758876,-0.005833333
0.2232712,2.766667,0.00558178
0.2333333,2.758876,0.005833333
0.2232712,2.766667,-0.00558178
0.2666667,2.745687,0.006666667
0.2666667,2.745687,-0.006666667
0.3,2.736324,0.0075
0.3,2.736324,-0.0075
0.2,2.791643,-0.005
0.1939714,2.8,0.004849286
0.2,2.791643,0.005
0.1939714,2.8,-0.004849286
0.182208,2.833333,0.004555201
0.182208,2.833333,-0.004555201
0.1786109,2.866667,0.004465272
0.1786109,2.866667,-0.004465272
0.1795044,2.9,0.00448761
0.1795044,2.9,-0.00448761
0.1829733,2.933333,0.004574332
0.1829733,2.933333,-0.004574332
0.1881663,2.966667,0.004704156
0.1881663,2.966667,-0.004704156
0.1943983,3,0.004859958
0.1943983,3,-0.004859958
0.2,3.028711,0.005
0.2,3.028711,-0.005
0.2009338,3.033333,-0.005023344
0.2009338,3.033333,0.005023344
0.2071109,3.066667,0.005177773
0.2071109,3.066667,-0.005177773
0.2130103,3.1,0.005325258
0.2130103,3.1,-0.005325258
0.2184084,3.133333,0.005460211
0.2184084,3.133333,-0.005460211
0.2229414,3.166667,0.005573535
0.2229414,3.166667,-0.005573535
0.2262208,3.2,0.005655521
0.2262208,3.2,-0.005655521
0.2277979,3.233333,0.005694948
0.2277979,3.233333,-0.005694948
0.2272249,3.266667,0.005680623
0.2272249,3.266667,-0.005680623
0.2240885,3.3,0.005602213
0.2240885,3.3,-0.005602213
0.2179891,3.333333,0.005449726
0.2179891,3.333333,-0.005449726
0.2086774,3.366667,0.005216935
0.2086774,3.366667,-0.005216935
0.2,3.386858,-0.005
0.1940757,3.4,0.004851892
0.2,3.386858,0.005
0.1940757,3.4,-0.004851892
0.1748657,3.433333,0.004371643
0.1748657,3.433333,-0.004371643
0.1666667,3.443405,-0.004166667
0.1465745,3.466667,0.003664362
0.1666667,3.443405,0.004166667
0.1465745,3.466667,-0.003664362
0.1333333,3.479222,-0.003333333
0.1029929,3.5,0.002574823
0.1333333,3.479222,0.003333333
0.1029929,3.5,-0.002574823
0.03333334,3.527667,-0.0008333334
0,3.529884,0
0.03333334,3.527667,0.0008333334
0.06666667,3.518171,0.001666667
0.06666667,3.518171,-0.001666667
0.1,3.5021,0.0025
0.1,3.5021,-0.0025
