/*--------------------------------*- C++ -*----------------------------------*\
| =========                 |                                                 |
| \\      /  F ield         | OpenFOAM: The Open Source CFD Toolbox           |
|  \\    /   O peration     | Version:  2106                                  |
|   \\  /    A nd           | Website:  www.openfoam.com                      |
|    \\/     M anipulation  |                                                 |
\*---------------------------------------------------------------------------*/
FoamFile
{
    version     2.0;
    format      ascii;
    arch        "LSB;label=32;scalar=64";
    class       volScalarField;
    location    "0.125";
    object      p;
}
// * * * * * * * * * * * * * * * * * * * * * * * * * * * * * * * * * * * * * //

dimensions      [1 -1 -2 0 0 0 0];

internalField   nonuniform List<scalar> 
32768
(
374.76979
374.7722
374.72944
374.64741
374.52451
374.35937
374.15187
373.90204
373.60999
373.27577
372.89947
372.48105
372.02042
371.5175
370.97226
370.3846
369.75436
369.08135
368.36537
367.6062
366.80361
365.95729
365.06701
364.13232
363.15319
362.12863
361.05936
359.94338
358.78187
357.57432
356.31516
355.0198
353.65451
352.2732
350.80648
349.31482
347.77582
346.15088
344.52416
342.81563
341.04042
339.26139
337.3914
335.45758
333.51941
331.49362
329.40009
327.28975
325.11276
322.86887
320.58426
318.24505
315.8504
313.41482
310.92363
308.36342
305.76645
303.14164
300.45199
297.70147
294.92166
292.0999
289.22223
286.31432
283.3792
280.38817
277.35125
274.28972
271.20171
268.08832
264.93736
261.75649
258.55706
255.32558
252.06936
248.80173
245.51488
242.2164
238.89803
235.55289
232.21906
228.88631
225.52645
222.16578
218.82071
215.46939
212.1137
208.77355
205.43589
202.12525
198.8358
195.53581
192.27271
189.03414
185.78146
182.57718
179.43408
176.29377
173.18319
170.13092
167.0966
164.0744
161.10689
158.18578
155.29247
152.45825
149.70449
146.98399
144.28433
141.64538
139.05769
136.4925
133.97491
131.52712
129.13334
126.76425
124.45608
122.26437
120.15505
118.06154
116.01032
114.03496
112.09252
110.15414
108.2694
106.49376
104.80367
103.13539
101.48336
99.878094
98.324428
96.806795
95.322634
93.892778
92.535105
91.233496
89.975786
88.819391
87.829823
86.947243
85.975416
84.983117
84.141597
83.303854
82.378967
81.447997
80.53846
79.781787
79.267765
78.75987
78.273443
77.945991
77.586857
77.090437
76.60845
76.314946
76.121816
75.765712
75.171918
74.397053
73.390977
72.127694
70.728356
69.27356
67.682178
65.856549
63.761605
61.425367
58.884707
56.080797
53.003748
50.017322
47.353184
44.926103
42.938472
40.149881
35.854106
33.210587
35.752924
37.674811
31.229903
22.570926
30.122894
1.3619553
0.8771785
0.99150007
0.89668797
0.74910992
0.64984425
0.5776078
0.52164882
0.47690234
0.44008027
0.40911921
0.38264362
0.35969531
0.33958293
0.32179262
0.30593298
0.29169977
0.27885185
0.2671957
0.25657256
0.24685441
0.23793142
0.22971152
0.22211849
0.21508689
0.20856002
0.20248878
0.19683055
0.19154799
0.18660856
0.18198264
0.17764565
0.17357425
0.16974879
0.16615102
0.16276443
0.15957515
0.15656614
0.15372771
0.15105192
0.14852633
0.14614176
0.14389036
0.1417647
0.13975796
0.13786388
0.1360767
0.13439117
0.13280233
0.13130607
0.12989815
0.12857476
0.12733242
0.126168
0.12507864
0.12406141
0.12311397
0.12223404
0.1214195
0.1206693
0.11998094
0.11935287
0.1187838
0.1182725
0.11781793
0.11741868
0.11707432
0.11678402
0.11654718
0.11636361
0.11623273
0.11615418
0.11613104
366.02481
366.02577
365.98366
365.9024
365.77924
365.61384
365.40619
365.15631
364.86438
364.53028
364.1539
363.73526
363.27432
362.77106
362.22539
361.63721
361.00639
360.33277
359.61616
358.85635
358.0531
357.2061
356.31518
355.37971
354.40001
353.37445
352.30479
351.18747
350.02592
348.81651
347.55798
346.25918
344.89606
343.51004
342.04348
340.55448
339.00685
337.38651
335.7603
334.0374
332.27618
330.49145
328.60685
326.68974
324.74304
322.70274
320.62476
318.50919
316.31498
314.08105
311.79777
309.44388
307.04965
304.61694
302.11442
299.55312
296.96265
294.3243
291.62213
288.88148
286.10387
283.26651
280.38349
277.47956
274.5354
271.53503
268.50314
265.44262
262.34308
259.22047
256.06546
252.88644
249.68747
246.44874
243.188
239.91735
236.6249
233.32161
229.99747
226.65019
223.31957
219.97764
216.60919
213.25103
209.9015
206.54289
203.19147
199.84363
196.49857
193.19576
189.8927
186.58565
183.33629
180.08749
176.82974
173.64058
170.4843
167.33073
164.23147
161.1769
158.12954
155.11578
152.16054
149.23569
146.33639
143.50788
140.75117
138.01687
135.32057
132.70103
130.11418
127.52949
125.00149
122.57109
120.19536
117.82513
115.51233
113.32037
111.19674
109.099
107.06646
105.10762
103.17308
101.24444
99.363654
97.574159
95.859007
94.183242
92.550104
90.970496
89.431781
87.923836
86.451628
85.023364
83.650624
82.347532
81.124298
79.987988
78.936027
77.957704
77.017283
76.106276
75.207261
74.278283
73.371196
72.527435
71.743026
71.048816
70.451977
69.906368
69.526605
69.297465
68.96329
68.43722
68.049673
67.879124
67.630443
67.183931
66.548882
65.777359
64.821964
63.622594
62.227495
60.694993
59.00774
57.105792
54.951618
52.47288
49.785716
47.062753
44.166053
41.578572
39.275054
35.82928
32.730587
30.529532
26.746594
24.248741
26.477543
22.572215
24.891933
38.785448
3.417524
0.48074145
0.69486293
0.83139287
0.76348087
0.67886418
0.60761225
0.54830779
0.49917865
0.4582564
0.42374855
0.39427564
0.36880587
0.34656536
0.3269677
0.3095619
0.29399606
0.27999172
0.267325
0.2558143
0.2453098
0.23568958
0.22684625
0.2186933
0.21115734
0.20417428
0.19768885
0.19165326
0.18602584
0.18077007
0.17585386
0.17124834
0.16692956
0.16287401
0.15906292
0.15547757
0.15210157
0.14892005
0.14592242
0.14309587
0.14042587
0.13790569
0.13552678
0.1332807
0.13115991
0.12915761
0.12726758
0.12548409
0.1238019
0.12221619
0.12072274
0.11931737
0.11799629
0.1167561
0.11559366
0.11450614
0.1134905
0.11254459
0.11166629
0.11085359
0.11010397
0.1094163
0.10878902
0.10822065
0.10770995
0.10725574
0.10685734
0.10651361
0.10622379
0.10598739
0.10580384
0.10567304
0.10559488
0.10557175
357.26973
357.27021
357.22818
357.14689
357.02344
356.8577
356.64971
356.39953
356.1072
355.77283
355.39629
354.97756
354.5166
354.01334
353.46767
352.87946
352.24856
351.57479
350.85796
350.09785
349.29424
348.44677
347.55536
346.61923
345.63898
344.61239
343.54239
342.42328
341.26222
340.04958
338.79308
337.48948
336.12902
334.7373
333.27155
331.7816
330.22636
328.61377
326.9777
325.25167
323.49996
321.69788
319.81284
317.9077
315.9382
313.89806
311.83218
309.69468
307.49874
305.27344
302.97274
300.61178
298.22746
295.78309
293.26115
290.70829
288.11907
285.45956
282.75176
280.01635
277.22633
274.37461
271.49549
268.59024
265.62566
262.61605
259.5883
256.51846
253.40795
250.28109
247.11681
243.93556
240.72879
237.47478
234.21389
230.9403
227.63606
224.32849
220.99337
217.64125
214.31369
210.95056
207.57094
204.21859
200.85788
197.49261
194.14472
190.7789
187.43678
184.1409
180.80257
177.50085
174.26536
170.98079
167.72826
164.56443
161.37848
158.2126
155.13638
152.0713
149.00547
146.00995
143.06627
140.12392
137.22556
134.42266
131.66118
128.89614
126.19082
123.57573
120.99333
118.43089
115.92097
113.47217
111.07664
108.74392
106.5059
104.3171
102.1178
99.987047
97.98085
96.021415
94.067536
92.169932
90.343969
88.55747
86.791286
85.085301
83.471849
81.91239
80.372253
78.863129
77.418053
76.052116
74.727221
73.422832
72.164146
70.990151
69.905908
68.884091
67.909825
66.991914
66.123055
65.275193
64.426856
63.592604
62.822145
62.15337
61.570754
61.058609
60.646054
60.334409
60.072371
59.827732
59.625024
59.461513
59.214632
58.795888
58.2189
57.48997
56.542222
55.297475
53.834696
52.254287
50.452159
48.414801
46.290453
43.912434
41.384212
38.811961
35.453454
32.269182
30.542752
26.504868
24.3991
22.832955
17.201624
7.9135807
9.1860105
13.515908
33.708645
3.4387143
0.05724256
0.43013731
0.60249776
0.64689311
0.63376403
0.59474137
0.54949336
0.50596247
0.46663061
0.43191408
0.40147624
0.37477052
0.35124587
0.33041402
0.31186328
0.29525288
0.28030396
0.26678651
0.25450926
0.24331383
0.23306837
0.22365908
0.2149951
0.2069953
0.19958866
0.19271571
0.18632494
0.18037124
0.17481503
0.16962159
0.1647601
0.16020502
0.15592863
0.15191122
0.14813298
0.14457694
0.14122775
0.13807083
0.13509426
0.13228573
0.12963466
0.12713144
0.12476754
0.12253499
0.12042649
0.1184354
0.11655559
0.11478149
0.11310801
0.11153065
0.11004415
0.10864505
0.10732988
0.10609515
0.10493766
0.10385446
0.10284331
0.10190149
0.10102677
0.10021719
0.099470664
0.098785712
0.098160854
0.097594681
0.097085899
0.096633422
0.096236364
0.095893812
0.095605086
0.095369515
0.095186566
0.095056054
0.09497813
0.094954586
348.50481
348.50489
348.46272
348.38119
348.25737
348.09116
347.88264
347.63188
347.33893
347.00381
346.62647
346.20686
345.74492
345.24057
344.69372
344.10425
343.47202
342.79685
342.07858
341.31695
340.51176
339.66266
338.76953
337.83162
336.84947
335.82098
334.74886
333.6276
332.46445
331.24882
329.99139
328.68248
327.32326
325.92428
324.45811
322.96467
321.40159
319.79185
318.14739
316.4159
314.66541
312.85333
310.96126
309.05882
307.07665
305.02895
302.96322
300.81482
298.61109
296.38061
294.06909
291.70023
289.3145
286.85451
284.31658
281.76539
279.16888
276.49151
273.77282
271.03198
268.22678
265.36233
262.48309
259.56696
256.57714
253.55681
250.52501
247.44017
244.32196
241.18687
238.00071
234.8107
231.59021
228.3184
225.06004
221.77539
218.45474
215.14287
211.78618
208.42525
205.0986
201.70352
198.3143
194.96691
191.58286
188.21392
184.86462
181.47388
178.14299
174.83664
171.45454
168.16944
164.9317
161.61175
158.37816
155.21906
152.01414
148.85042
145.76476
142.68557
139.61823
136.63469
133.70988
130.7556
127.84029
125.05195
122.28678
119.5009
116.81682
114.20041
111.56602
109.02165
106.61336
104.20368
101.73036
99.34043
97.151714
95.030995
92.847102
90.687202
88.648516
86.673839
84.712055
82.807337
81.021594
79.308564
77.55957
75.80822
74.169904
72.620652
71.091527
69.594313
68.162955
66.796855
65.488686
64.240977
63.037591
61.864975
60.748998
59.722101
58.762383
57.81819
56.909407
56.061649
55.255136
54.487219
53.773325
53.107628
52.502061
51.998463
51.622961
51.351257
51.146058
51.007378
50.930588
50.86421
50.752565
50.451031
49.974382
49.308612
48.37688
47.113487
45.53855
43.900649
42.081167
40.036292
38.081145
35.530377
32.459259
29.914392
26.005169
21.587055
22.697288
16.782437
8.6427078
8.164775
6.202209
1.3623582
13.197089
8.3587203
0.55375899
-0.15003203
0.058252974
0.29852385
0.43876704
0.50176035
0.5188914
0.50795827
0.48415088
0.45579543
0.42696996
0.39953524
0.37421009
0.35115893
0.33029955
0.31145094
0.29440643
0.27895478
0.26491561
0.25212484
0.24043331
0.22971534
0.2198632
0.2107827
0.20239431
0.19462684
0.18741842
0.1807157
0.17447187
0.16864569
0.16320071
0.15810465
0.15332896
0.14884747
0.14463843
0.14068175
0.13695736
0.13344934
0.13014315
0.12702595
0.12408383
0.12130559
0.11868284
0.11620588
0.11386571
0.11165469
0.10956582
0.10759264
0.10572923
0.1039701
0.10231023
0.10074489
0.099270171
0.097882031
0.096576722
0.095350949
0.094201682
0.093126094
0.092121771
0.091186189
0.090317148
0.089512659
0.088771005
0.088090497
0.087469592
0.086906939
0.086401323
0.085951645
0.085556934
0.085216377
0.084929299
0.084695055
0.084513159
0.084383415
0.084306046
0.084282664
339.73019
339.7299
339.6874
339.60542
339.48106
339.31421
339.10498
338.85343
338.55959
338.22349
337.84511
337.42438
336.96126
336.45567
335.9075
335.31663
334.68292
334.00621
333.28631
332.52299
331.71603
330.86508
329.96999
329.03005
328.04571
327.01498
325.94042
324.81661
323.65086
322.43207
321.17231
319.85912
318.49821
317.0937
315.62531
314.12651
312.55754
310.94764
309.29238
307.55834
305.80557
303.97881
302.08555
300.18033
298.18165
296.12871
294.06069
291.89864
289.68384
287.44669
285.1251
282.74551
280.34969
277.87474
275.32469
272.76691
270.15742
267.46367
264.73076
261.98064
259.15924
256.28083
253.3921
250.46025
247.45009
244.41678
241.37218
238.26988
235.14511
231.99311
228.77964
225.58431
222.34028
219.04921
215.79731
212.48845
209.15278
205.83614
202.44606
199.07906
195.74728
192.31905
188.93467
185.57375
182.15799
178.79607
175.42657
172.00744
168.69763
165.36698
161.94615
158.6892
155.42558
152.06923
148.87783
145.71006
142.45416
139.32018
136.25931
133.12078
130.03468
127.09805
124.15861
121.1746
118.3046
115.53419
112.71736
109.92527
107.29762
104.70086
102.0355
99.459981
97.065088
94.723687
92.30893
89.915539
87.653238
85.452549
83.308133
81.269982
79.271303
77.248687
75.272909
73.376849
71.560652
69.825858
68.122249
66.44111
64.811502
63.225144
61.68528
60.200121
58.80109
57.474344
56.156369
54.878897
53.707993
52.593963
51.47091
50.40515
49.459996
48.572583
47.704685
46.864301
46.074991
45.363242
44.672032
43.952343
43.266772
42.728547
42.368403
42.155645
42.097948
42.206977
42.41609
42.531227
42.565765
42.256222
41.910882
41.386741
40.430578
39.082984
37.447029
35.831093
33.857349
31.328657
29.729159
27.080139
22.918232
22.977169
18.159952
9.5911648
11.812101
15.014018
13.282315
1.8879551
-0.47592164
-0.17091198
-0.34553775
-0.24655112
-0.22025937
-0.11916777
0.050070584
0.21219709
0.32907658
0.39313209
0.42227652
0.42763686
0.41899801
0.40299064
0.38368346
0.36341765
0.34345821
0.32444055
0.30663984
0.29013876
0.27491562
0.26090392
0.24801101
0.23613748
0.22519363
0.2150921
0.20575216
0.19710112
0.18907446
0.18161426
0.17466894
0.16819276
0.16214503
0.15648945
0.15119356
0.14622832
0.14156799
0.13718845
0.13306987
0.12919435
0.12554249
0.12209916
0.11885114
0.11578527
0.11289049
0.11015611
0.1075726
0.10513092
0.10282293
0.10064128
0.098579234
0.096630576
0.094789594
0.093051008
0.091409964
0.089861896
0.088403036
0.087029509
0.085737602
0.084524129
0.083386161
0.082320971
0.081326083
0.080399146
0.079538032
0.078740784
0.078005719
0.077331144
0.07671557
0.076157718
0.075656425
0.075210635
0.074819254
0.074481484
0.074196729
0.0739644
0.073783997
0.073655378
0.07357875
0.073555702
330.94606
330.94535
330.90238
330.81979
330.69472
330.52707
330.31693
330.06438
329.76945
329.43215
329.05246
328.63035
328.16576
327.65859
327.10876
326.51614
325.88058
325.20192
324.47996
323.71447
322.90522
322.05187
321.15424
320.21168
319.22448
318.19092
317.11306
315.9862
314.8167
313.59439
312.33087
311.01292
309.64895
308.23822
306.76609
305.26154
303.68519
302.07278
300.40701
298.66823
296.91015
295.06859
293.17486
291.25829
289.24516
287.1895
285.10845
282.93107
280.71076
278.45838
276.1208
273.73686
271.32089
268.82604
266.26864
263.69907
261.06802
258.35452
255.60903
252.84339
250.00213
247.1128
244.2019
241.24395
238.21846
235.17602
232.10862
228.98298
225.84937
222.66725
219.42645
216.22953
212.95405
209.64585
206.39116
203.04221
199.69867
196.36841
192.93778
189.5738
186.22337
182.75876
179.39251
175.99652
172.54838
169.20494
165.78379
162.34794
159.06127
155.66581
152.24196
149.02493
145.70345
142.33002
139.16246
135.97557
132.69657
129.53869
126.4968
123.36109
120.22557
117.32528
114.41407
111.3593
108.507
105.79531
102.92577
100.13078
97.555801
94.934268
92.283706
89.764998
87.324108
84.910026
82.544363
80.270799
78.039106
75.762252
73.522998
71.48077
69.573568
67.637802
65.685673
63.816923
62.028869
60.204136
58.360627
56.70079
55.173669
53.621801
52.106082
50.674122
49.280259
47.944942
46.670744
45.419532
44.209328
43.085221
42.02499
40.991472
40.000851
39.115699
38.327462
37.541429
36.730901
35.992518
35.33929
34.675152
33.972735
33.331877
32.919363
32.804033
32.895604
33.156239
33.636031
34.111888
34.645153
34.406984
33.820572
33.490428
32.826887
31.568001
29.485943
27.661703
25.868191
22.052881
21.272816
19.183667
11.942004
8.32466
6.0547421
3.2134293
9.8764579
2.4404889
-0.19781798
-0.19561142
-0.14161551
-0.19212798
-0.30048172
-0.2483673
-0.14697478
-0.058246141
0.051315031
0.16211426
0.25190911
0.30931122
0.34219585
0.35634067
0.35764641
0.35086989
0.33940969
0.32552596
0.31065013
0.29564015
0.28100382
0.26701349
0.25379093
0.24138957
0.22979711
0.21898581
0.20891803
0.19954463
0.1908143
0.18267737
0.17508703
0.16799956
0.16137458
0.15517527
0.149368
0.14392238
0.13881034
0.13400683
0.12948924
0.12523737
0.12123241
0.11745565
0.11389338
0.11053167
0.10735686
0.1043568
0.10152143
0.098841123
0.096306478
0.093909214
0.091641738
0.089497074
0.087468821
0.085551081
0.083738416
0.082025811
0.080408643
0.07888268
0.07744393
0.076088611
0.074813548
0.073615621
0.072491947
0.071439881
0.070457004
0.069541071
0.068690025
0.067901982
0.067175248
0.066508234
0.065899514
0.065347775
0.064851942
0.064410884
0.064023672
0.063689565
0.063407882
0.063178025
0.062999592
0.062872362
0.062796644
0.062773924
322.1527
322.15152
322.10795
322.02459
321.89865
321.73002
321.5188
321.26504
320.9688
320.63006
320.24883
319.82507
319.35871
318.84968
318.29786
317.70315
317.06538
316.38439
315.65997
314.8919
314.07993
313.22373
312.32308
311.3774
310.38682
309.34988
308.26815
307.13766
305.96366
304.73736
303.4689
302.14608
300.77742
299.36004
297.88363
296.37118
294.78806
293.17086
291.49231
289.75061
287.98276
286.12557
284.23218
282.29922
280.27052
278.21272
276.11284
273.91975
271.69301
269.41856
267.06674
264.67744
262.23017
259.71689
257.15625
254.56504
251.90375
249.17166
246.41877
243.62715
240.75804
237.86132
234.92132
231.93242
228.89077
225.8383
222.74219
219.58733
216.43797
213.21781
209.96111
206.75555
203.43754
200.11931
196.8441
193.44765
190.10634
186.74528
183.28361
179.93189
176.53498
173.03891
169.68581
166.23032
162.76817
159.43871
155.9597
152.52827
149.2508
145.7742
142.35905
139.16391
135.77199
132.4165
129.27185
126.00413
122.72175
119.61793
116.5216
113.34888
110.27658
107.3616
104.39373
101.3853
98.572498
95.813549
92.909562
90.148478
87.610153
84.956748
82.297014
79.851483
77.434411
74.938931
72.564432
70.400343
68.220289
65.955408
63.743122
61.640694
59.644425
57.732995
55.839642
53.989592
52.29084
50.565024
48.681684
46.890913
45.323075
43.784862
42.273798
40.935181
39.665913
38.339414
37.021941
35.790694
34.622567
33.479171
32.391692
31.439672
30.552101
29.696953
28.915076
28.161864
27.378337
26.550866
25.679067
24.867693
24.270802
23.778593
23.389134
23.292794
23.54582
24.209814
25.12104
25.72509
25.996815
26.436646
26.642802
26.353891
25.261086
23.680265
21.039346
19.65104
19.746836
14.191091
9.6431671
8.5628147
8.5524719
11.378265
2.6007782
0.53673398
-0.23560134
-0.26542581
-0.2238064
-0.18953859
-0.19709854
-0.23610759
-0.23185204
-0.18457765
-0.11316977
-0.039655205
0.042829876
0.12436926
0.19285189
0.24293984
0.27574893
0.29413016
0.30157552
0.3013076
0.29592582
0.28736179
0.27697919
0.26569371
0.25411536
0.24262377
0.23144896
0.22072236
0.21051619
0.20086113
0.19175795
0.18319358
0.17514653
0.16759033
0.16049635
0.15383543
0.14757891
0.14169946
0.13617095
0.13097035
0.1260733
0.12145909
0.11710949
0.11300696
0.1091346
0.10547686
0.10202132
0.098755737
0.09566742
0.092746348
0.089982209
0.087365414
0.084888786
0.082544616
0.080325594
0.078225177
0.07623739
0.074356704
0.072578004
0.070896568
0.069308015
0.067808346
0.066393633
0.065060522
0.063805857
0.062626669
0.061520209
0.060483947
0.059515559
0.058612898
0.057773993
0.056997033
0.056280369
0.055622487
0.055022008
0.054477683
0.053988348
0.053553049
0.05317094
0.052841251
0.052563276
0.052336451
0.052160371
0.052034858
0.051960211
0.051937874
313.35042
313.3487
313.30442
313.22015
313.09318
312.9234
312.71091
312.45576
312.15798
311.81759
311.43457
311.00888
310.54048
310.02927
309.47514
308.87799
308.23764
307.55393
306.82665
306.05557
305.24043
304.38091
303.47675
302.52743
301.53293
300.49204
299.40583
298.2711
297.0919
295.86093
294.58675
293.25819
291.88406
290.45909
288.97726
287.45641
285.8649
284.24155
282.54979
280.80317
279.02323
277.15165
275.25483
273.30228
271.25847
269.19756
267.07318
264.86243
262.62924
260.3314
257.96014
255.55689
253.08457
250.55199
247.97813
245.35844
242.66909
239.91811
237.15387
234.32792
231.42701
228.52223
225.54808
222.52616
219.47117
216.39725
213.25985
210.08017
206.91243
203.64986
200.38583
197.14945
193.78434
190.46555
187.14449
183.70592
180.37503
176.96089
173.48066
170.14406
166.67863
163.16471
159.80242
156.27607
152.815
149.47824
145.92865
142.53877
139.23897
135.68895
132.33087
129.08684
125.59711
122.28504
119.1694
115.85822
112.51184
109.46244
106.40436
103.10486
100.08067
97.263892
94.145146
91.110494
88.445274
85.62853
82.671108
80.00302
77.434131
74.721813
72.112017
69.730562
67.347772
64.833604
62.386631
60.223387
58.125913
55.916615
53.760107
51.695644
49.611837
47.621806
45.732367
43.885864
42.192157
40.550802
38.838564
37.105813
35.445793
33.883689
32.379448
30.955835
29.687517
28.481059
27.222014
25.997109
24.835769
23.740905
22.694053
21.740813
20.900813
20.126257
19.330796
18.471667
17.687246
17.000485
16.26344
15.292523
14.264328
13.498911
13.384964
13.783983
14.343209
15.248843
16.359192
17.828513
18.181039
17.829649
18.423888
18.729123
18.720267
17.430985
12.268866
8.8482885
8.4425479
6.2402461
10.344652
3.4505243
0.51755941
-0.348904
-0.3033595
-0.25919935
-0.31555421
-0.28364039
-0.23954328
-0.21116327
-0.20284513
-0.2072953
-0.18931163
-0.14946199
-0.09659506
-0.036084267
0.028689993
0.091481622
0.14618228
0.18920196
0.22009251
0.24005043
0.25103881
0.25515251
0.25427541
0.24994789
0.24335036
0.23535905
0.22658866
0.21746428
0.2082813
0.19923102
0.19043757
0.18197358
0.17387869
0.16617155
0.15885649
0.15192813
0.14537501
0.13918206
0.13333223
0.12780759
0.12259019
0.11766156
0.11300539
0.10860588
0.10444667
0.10051326
0.096792024
0.093270695
0.089937793
0.086781278
0.083791757
0.080959666
0.078276372
0.075733858
0.073324517
0.071041798
0.068878744
0.066829435
0.064888421
0.063050595
0.061311208
0.059665853
0.058110437
0.056641177
0.055254504
0.053947195
0.052716242
0.051558844
0.050472406
0.049454532
0.048503014
0.047615814
0.046791049
0.046026995
0.045322071
0.044674831
0.044083954
0.043548244
0.043066591
0.042638067
0.042261909
0.041937312
0.041663618
0.041440321
0.041266977
0.0411435
0.041070089
0.04104824
304.53961
304.53728
304.49218
304.40686
304.27871
304.10761
303.89366
303.63692
303.3374
302.99512
302.61006
302.1822
301.71146
301.19777
300.64101
300.04107
299.39779
298.71098
297.98044
297.20593
296.38719
295.52389
294.61575
293.66228
292.66334
291.61793
290.52672
289.38708
288.20213
286.96574
285.68511
284.35017
282.96947
281.53634
280.04809
278.51744
276.91775
275.28504
273.58054
271.82766
270.03185
268.14828
266.24311
264.26842
262.21229
260.14248
257.98922
255.76586
253.51901
251.19183
248.80695
246.38039
243.88239
241.32769
238.73811
236.08331
233.36567
230.59408
227.81028
224.94883
222.01441
219.09135
216.08676
213.03036
209.95536
206.84831
203.66798
200.46644
197.26734
193.96834
190.70442
187.40296
184.00165
180.6836
177.29404
173.83465
170.49606
167.02071
163.52157
160.18024
156.65452
153.14033
149.75028
146.17515
142.69889
139.3374
135.72808
132.34011
129.0116
125.4021
122.09731
118.82713
115.25582
111.94739
108.82596
105.49629
102.16052
99.08128
96.007716
92.726289
89.667697
86.842406
83.752743
80.712753
78.042758
75.198291
72.215102
69.651196
67.132574
64.328119
61.695623
59.361846
56.974749
54.554293
52.20677
49.912004
47.683446
45.547913
43.509552
41.530905
39.523717
37.507124
35.550008
33.689604
31.956988
30.247984
28.540596
27.039184
25.530288
23.93666
22.473219
21.006045
19.561923
18.313524
17.095144
15.890593
14.839143
13.813907
12.878029
12.056565
11.276341
10.486973
9.6721619
8.7836287
7.9137835
7.095712
5.9807805
5.0238481
4.5837897
3.2296899
2.1245168
2.4411404
3.7076999
5.5795888
7.7049371
9.9922894
11.186248
9.405018
9.668818
10.427577
9.5230499
6.2359787
4.1598381
10.887068
4.079013
0.3429033
-0.52256248
-0.41064078
-0.33562753
-0.332773
-0.33078768
-0.31702036
-0.296537
-0.27262598
-0.24529402
-0.22205699
-0.20647404
-0.19330515
-0.16988499
-0.13399163
-0.089503217
-0.039776309
0.012195839
0.062505845
0.10738762
0.14439764
0.17275433
0.19283185
0.20568001
0.21261989
0.21496976
0.21390364
0.21039078
0.20519981
0.1989089
0.19195054
0.18464099
0.17720378
0.16979361
0.16251622
0.15544093
0.14861176
0.14205468
0.13578268
0.12979978
0.12410387
0.11868878
0.11354562
0.10866405
0.10403224
0.09963948
0.095473804
0.091522995
0.087775889
0.084221848
0.080850904
0.077652659
0.074618067
0.071738892
0.069006598
0.066414128
0.063954632
0.061620937
0.05940667
0.057306248
0.055314359
0.053425982
0.051636438
0.049941376
0.048336743
0.046818763
0.045383926
0.044028956
0.042750823
0.041546709
0.040413996
0.039350254
0.038353233
0.037420862
0.036551213
0.035742504
0.034993101
0.034301514
0.033666372
0.033086424
0.03256051
0.032087621
0.031666837
0.031297395
0.030978611
0.030709819
0.030490498
0.030320318
0.030199095
0.030127089
0.0301058
295.72069
295.71768
295.67167
295.58516
295.45568
295.2831
295.06752
294.80898
294.50751
294.16312
293.77578
293.34547
292.87212
292.35565
291.79595
291.19289
290.54631
289.85603
289.12184
288.34349
287.52071
286.65318
285.74059
284.78247
283.7786
282.72811
281.63134
280.4862
279.29489
278.05242
276.7646
275.42258
274.03444
272.59226
271.09693
269.55508
267.94683
266.30272
264.585
262.82426
261.00998
259.11564
257.19706
255.19972
253.13177
251.04664
248.86535
246.62584
244.3641
242.00412
239.60205
237.14846
234.62633
232.04641
229.42993
226.74016
223.99409
221.20431
218.38816
215.47811
212.5208
209.57834
206.53799
203.4403
200.33697
197.18758
193.97422
190.75054
187.50053
184.16631
180.90353
177.5165
174.09873
170.76734
167.29807
163.83888
160.47213
156.93454
153.40429
150.02341
146.46504
142.92676
139.51259
135.92562
132.42728
129.01765
125.37542
121.96269
118.57511
114.93022
111.63155
108.31193
104.73042
101.45107
98.296075
94.858373
91.583467
88.570422
85.306752
82.071147
79.158868
76.175804
73.027361
70.1565
67.470778
64.547555
61.599823
59.015105
56.518633
53.796649
51.18441
48.805147
46.327172
43.881021
41.728319
39.630203
37.267918
34.943028
32.990824
31.00745
29.088563
27.283889
25.288655
23.37413
21.67968
19.988889
18.077432
16.314586
14.997148
13.647753
12.347878
11.086828
9.6970601
8.2768747
6.954045
5.5652014
4.1134094
3.2379236
2.919827
2.7456364
2.5784242
2.3250015
1.981348
1.5861984
1.1985365
0.82296129
0.47399896
0.19565775
-0.0091213422
-0.18938912
-0.34108955
-0.34634748
-0.153073
0.31318044
1.0966995
1.6598835
2.0726619
5.2947731
6.606926
9.6875956
13.058551
5.5577362
0.065520212
-0.65926154
-0.52609227
-0.42844314
-0.43214566
-0.42468031
-0.3912959
-0.35154943
-0.33310648
-0.31720577
-0.2952385
-0.27296538
-0.24993655
-0.22803611
-0.2080512
-0.18758689
-0.16087402
-0.12814244
-0.089856231
-0.048158735
-0.0052681937
0.036230764
0.073893065
0.10600253
0.13178414
0.15124144
0.16490291
0.17357981
0.17817392
0.17955301
0.17848486
0.17561603
0.17146159
0.16642646
0.16082585
0.15489077
0.14879655
0.14266957
0.13659741
0.13064302
0.12484973
0.11924576
0.11384835
0.10866682
0.10370479
0.098961731
0.094434353
0.090117459
0.086004629
0.082089078
0.078361776
0.074814865
0.0714409
0.068232421
0.065180827
0.062278802
0.059519776
0.056897079
0.054404499
0.052035674
0.049784524
0.047645188
0.045613598
0.043684942
0.041854604
0.040118358
0.038472276
0.036912686
0.035436151
0.034039464
0.032719626
0.031473845
0.03029952
0.029194224
0.028155707
0.027181864
0.02627079
0.025420678
0.024629844
0.023896752
0.023220028
0.022598369
0.022030571
0.021515608
0.021052446
0.020640346
0.020278468
0.019966131
0.019702787
0.019487941
0.019321235
0.019202541
0.0191321
0.019111442
286.89414
286.89038
286.84335
286.75554
286.62458
286.45036
286.23297
285.97245
285.66882
285.32209
284.93223
284.49922
284.02298
283.50343
282.94047
282.33396
281.68374
280.98962
280.2514
279.4688
278.64157
277.76937
276.85187
275.88862
274.87933
273.82322
272.72039
271.5691
270.37092
269.12166
267.82607
266.47619
265.07977
263.62794
262.12424
260.57063
258.95287
257.29551
255.56478
253.793
251.95915
250.05471
248.11782
246.09654
244.02037
241.90857
239.70189
237.4489
235.15977
232.76938
230.34833
227.86397
225.31341
222.708
220.05356
217.33597
214.55667
211.73815
208.88881
205.92618
202.96241
199.96346
196.88351
193.7684
190.61593
187.41758
184.18631
180.92734
177.61641
174.24508
170.96173
167.50521
164.07462
160.70339
157.17415
153.70145
150.29976
146.71235
143.12305
139.73075
136.11517
132.51279
129.10207
125.45418
121.94543
118.53284
114.82731
111.38884
107.99623
104.28476
100.97648
97.633295
93.959172
90.70532
87.570999
84.028348
80.738029
77.81355
74.488962
71.164187
68.33108
65.392611
62.171901
59.267039
56.617888
53.690365
50.792159
48.252461
45.638987
42.895879
40.484551
38.120839
35.541251
33.110252
30.927001
28.934601
26.761981
24.362144
22.363139
20.378271
18.210776
16.453101
14.675701
12.752608
11.114421
9.6388616
7.584144
5.4947078
4.0592116
3.1519917
2.6684757
2.1895674
1.6873652
1.1823075
0.69802396
0.2518998
-0.2133886
-0.28677576
-0.31231249
-0.32284857
-0.34141728
-0.36896376
-0.40046261
-0.43250602
-0.46085004
-0.48557803
-0.50563661
-0.51124404
-0.5011359
-0.48767441
-0.47521662
-0.45139912
-0.41549825
-0.35719649
-0.25090452
-0.042733088
0.50232381
-0.60702571
-2.3234261
1.0660456
-0.093635515
-0.67304293
-0.56156183
-0.54928113
-0.53722796
-0.49620797
-0.45342085
-0.42246965
-0.39394851
-0.36329626
-0.34027021
-0.31983725
-0.29826478
-0.27604275
-0.25366668
-0.23157233
-0.20954677
-0.18589206
-0.15942539
-0.12902604
-0.095294662
-0.059493365
-0.023177471
0.011919686
0.044158106
0.072310952
0.095713427
0.11421817
0.12806174
0.13773533
0.14384414
0.14701903
0.14785158
0.14686895
0.14451178
0.14114709
0.13706906
0.13250645
0.12763894
0.12259872
0.11748886
0.11238578
0.10734486
0.10240583
0.097596589
0.092936129
0.088436438
0.084104357
0.079943086
0.075952837
0.072132081
0.068477491
0.064984881
0.06165078
0.058468235
0.055431433
0.052535681
0.049776048
0.0471462
0.044640905
0.042254776
0.039983246
0.037820788
0.03576331
0.033806633
0.031946586
0.030179227
0.028500866
0.026908031
0.02539745
0.02396605
0.022610942
0.021329422
0.020118955
0.018977174
0.017901855
0.016890925
0.015942469
0.01505467