/*--------------------------------*- C++ -*----------------------------------*\
| =========                 |                                                 |
| \\      /  F ield         | OpenFOAM: The Open Source CFD Toolbox           |
|  \\    /   O peration     | Version:  2106                                  |
|   \\  /    A nd           | Website:  www.openfoam.com                      |
|    \\/     M anipulation  |                                                 |
\*---------------------------------------------------------------------------*/
FoamFile
{
    version     2.0;
    format      ascii;
    arch        "LSB;label=32;scalar=64";
    class       volVectorField;
    location    "0.047";
    object      U;
}
// * * * * * * * * * * * * * * * * * * * * * * * * * * * * * * * * * * * * * //

dimensions      [0 1 -1 0 0 0 0];

internalField   nonuniform List<vector> 
256
(
(0.0023641757 -0.002109839 0)
(0.0067221085 -0.001787465 0)
(0.010060959 -0.0011957688 0)
(0.011869329 -0.00042010069 0)
(0.011871485 0.00041859469 0)
(0.010066425 0.0011958692 0)
(0.006724458 0.001789269 0)
(0.0023644748 0.0021116731 0)
(-0.0023651227 0.002112297 0)
(-0.0067262666 0.0017884657 0)
(-0.010065322 0.0011958131 0)
(-0.01187129 0.00041880533 0)
(-0.01187056 -0.00041959002 0)
(-0.010062 -0.0011966215 0)
(-0.0067203903 -0.001787811 0)
(-0.0023620221 -0.0021100839 0)
(0.0029074353 -0.0068637466 0)
(0.0082650748 -0.0058137873 0)
(0.012368785 -0.0038889618 0)
(0.014591539 -0.0013665847 0)
(0.014594233 0.001361232 0)
(0.012374241 0.0038890169 0)
(0.0082663142 0.0058176689 0)
(0.0029078301 0.0068662033 0)
(-0.00290735 0.0068682257 0)
(-0.0082676804 0.0058143477 0)
(-0.012371374 0.0038879185 0)
(-0.014593241 0.0013620289 0)
(-0.01459412 -0.0013650093 0)
(-0.012371449 -0.0038926669 0)
(-0.0082638083 -0.0058156509 0)
(-0.0029059126 -0.0068647331 0)
(0.0040122505 -0.013419348 0)
(0.011399355 -0.01136732 0)
(0.017053314 -0.0076049293 0)
(0.020116421 -0.0026742384 0)
(0.020118665 0.0026605527 0)
(0.017054886 0.0076036322 0)
(0.011392853 0.011375663 0)
(0.0040102305 0.013427416 0)
(-0.0040080821 0.013431528 0)
(-0.011394228 0.011371495 0)
(-0.01704725 0.0076044621 0)
(-0.02011505 0.0026657374 0)
(-0.020123127 -0.0026680928 0)
(-0.017060222 -0.0076094317 0)
(-0.011398282 -0.011368948 0)
(-0.0040110947 -0.013420481 0)
(0.0060268044 -0.021542088 0)
(0.017120485 -0.018227444 0)
(0.025610203 -0.012185726 0)
(0.030213418 -0.0042804413 0)
(0.030216364 0.0042766993 0)
(0.025609814 0.012198689 0)
(0.017107268 0.018234767 0)
(0.0060248709 0.021528538 0)
(-0.0060175666 0.021537449 0)
(-0.017105966 0.018221478 0)
(-0.025593484 0.012191082 0)
(-0.030208893 0.0042894984 0)
(-0.030227523 -0.0042679714 0)
(-0.025624695 -0.012201662 0)
(-0.017121471 -0.018235505 0)
(-0.0060288351 -0.021544725 0)
(0.0088629343 -0.037886696 0)
(0.02513103 -0.03207108 0)
(0.037559588 -0.021453115 0)
(0.044317676 -0.0075469217 0)
(0.044319835 0.0075230164 0)
(0.037535009 0.021463484 0)
(0.025068871 0.032083435 0)
(0.0088382654 0.037875736 0)
(-0.0088366835 0.0378882 0)
(-0.025083596 0.032067748 0)
(-0.037497689 0.021462107 0)
(-0.044295336 0.007559113 0)
(-0.044356164 -0.0075154833 0)
(-0.03759027 -0.021472397 0)
(-0.025119306 -0.032080583 0)
(-0.0088531246 -0.037889699 0)
(0.011278905 -0.052696493 0)
(0.031955665 -0.044504322 0)
(0.047797644 -0.02974586 0)
(0.056490749 -0.010466056 0)
(0.056529851 0.010492102 0)
(0.047833618 0.02983443 0)
(0.031928195 0.044510474 0)
(0.011257097 0.052592235 0)
(-0.011277663 0.052627511 0)
(-0.031965336 0.044458141 0)
(-0.04777491 0.029778154 0)
(-0.056490819 0.010578982 0)
(-0.056561422 -0.010400134 0)
(-0.047842 -0.0298207 0)
(-0.031918233 -0.044540812 0)
(-0.011240133 -0.052700813 0)
(0.0056516198 -0.085371044 0)
(0.015638091 -0.072237384 0)
(0.023138611 -0.0484429 0)
(0.027500383 -0.017154095 0)
(0.027594886 0.017033206 0)
(0.023164599 0.048512478 0)
(0.015459241 0.072313803 0)
(0.0055469544 0.085383414 0)
(-0.005640512 0.085413742 0)
(-0.015660859 0.0722136 0)
(-0.023051848 0.048436977 0)
(-0.027456398 0.017207879 0)
(-0.027667599 -0.017032701 0)
(-0.023206469 -0.048576363 0)
(-0.015487058 -0.072323764 0)
(-0.0055233247 -0.085385442 0)
(-0.00651767 -0.066868419 0)
(-0.018988936 -0.056013113 0)
(-0.028843693 -0.037565944 0)
(-0.034098635 -0.013486528 0)
(-0.034161586 0.013414377 0)
(-0.029176179 0.037952034 0)
(-0.019501819 0.056136132 0)
(-0.0067509565 0.066667113 0)
(0.0066796711 0.066838269 0)
(0.019289905 0.055896804 0)
(0.029221743 0.037528021 0)
(0.034274307 0.013774797 0)
(0.033999081 -0.01323412 0)
(0.028841013 -0.037961735 0)
(0.019122772 -0.056207975 0)
(0.0066079913 -0.066853176 0)
(0.0066435508 -0.068239337 0)
(0.019304833 -0.057083576 0)
(0.029205653 -0.038162264 0)
(0.034360137 -0.013557525 0)
(0.034240088 0.013815651 0)
(0.029101206 0.038700584 0)
(0.019375168 0.057075216 0)
(0.0066908784 0.067663596 0)
(-0.0066211201 0.067835795 0)
(-0.019166813 0.056836829 0)
(-0.029146315 0.038277276 0)
(-0.034351089 0.014178214 0)
(-0.034259069 -0.013301902 0)
(-0.029202679 -0.038553693 0)
(-0.019440649 -0.057276494 0)
(-0.0067355522 -0.068223971 0)
(-0.0055075024 -0.084246346 0)
(-0.015176717 -0.07123992 0)
(-0.022362618 -0.047688569 0)
(-0.026480583 -0.016769943 0)
(-0.026469902 0.016922584 0)
(-0.022123293 0.047858062 0)
(-0.014708264 0.071200857 0)
(-0.0052670324 0.084015397 0)
(0.0053628827 0.084046287 0)
(0.014914009 0.0710975 0)
(0.022011916 0.047777183 0)
(0.026331214 0.017093957 0)
(0.026647999 -0.016650578 0)
(0.022429888 -0.047822576 0)
(0.015024951 -0.071326507 0)
(0.0053781126 -0.084261405 0)
(-0.011445651 -0.055389134 0)
(-0.032426863 -0.046801674 0)
(-0.048479328 -0.03128278 0)
(-0.057254847 -0.011001521 0)
(-0.057242787 0.011032549 0)
(-0.048402329 0.031359866 0)
(-0.032288855 0.046792941 0)
(-0.011378869 0.055299477 0)
(0.011398801 0.055335351 0)
(0.032324758 0.046742937 0)
(0.048343142 0.031306524 0)
(0.057203614 0.011123623 0)
(0.057325398 -0.010931372 0)
(0.048525388 -0.031352975 0)
(0.032393043 -0.04683525 0)
(0.011410334 -0.055392486 0)
(-0.0081949403 -0.034774602 0)
(-0.02323022 -0.029426455 0)
(-0.034722503 -0.01966146 0)
(-0.040981712 -0.0068821527 0)
(-0.040994754 0.006937597 0)
(-0.034724627 0.01969704 0)
(-0.023197533 0.029400043 0)
(-0.0081837696 0.034701963 0)
(0.0081878696 0.03471392 0)
(0.023218566 0.029380755 0)
(0.034690107 0.019691212 0)
(0.040970722 0.0069686564 0)
(0.041020102 -0.0068551807 0)
(0.034750747 -0.019684592 0)
(0.023214417 -0.029438353 0)
(0.0081809528 -0.034778793 0)
(-0.0066347358 -0.028870457 0)
(-0.018869488 -0.024434491 0)
(-0.02823911 -0.016314553 0)
(-0.033320313 -0.0057064684 0)
(-0.033326491 0.0057563778 0)
(-0.02824959 0.016342385 0)
(-0.018876123 0.024410165 0)
(-0.0066485614 0.02880702 0)
(0.00663464 0.028817201 0)
(0.018867929 0.024402319 0)
(0.028230156 0.016341416 0)
(0.033318318 0.0057781622 0)
(0.033335407 -0.0056856551 0)
(0.028257771 -0.01632275 0)
(0.018877592 -0.024437577 0)
(0.0066448142 -0.028871159 0)
(-0.0026291236 -0.0052784318 0)
(-0.0074514794 -0.0044497194 0)
(-0.011139903 -0.0029560839 0)
(-0.013132653 -0.001005785 0)
(-0.013126072 0.001074748 0)
(-0.011120392 0.0029899865 0)
(-0.0074245187 0.0044292159 0)
(-0.0026165334 0.0052158916 0)
(0.0026210566 0.0052184937 0)
(0.007432639 0.0044179074 0)
(0.011115686 0.0029817959 0)
(0.013123272 0.0010687853 0)
(0.013138782 -0.0010100343 0)
(0.011143804 -0.0029700366 0)
(0.0074448765 -0.0044575137 0)
(0.002622057 -0.0052819197 0)
(-0.0062543001 -0.022726556 0)
(-0.017826711 -0.01925595 0)
(-0.026682393 -0.012856766 0)
(-0.031470394 -0.0045017868 0)
(-0.031466427 0.0045292561 0)
(-0.026674499 0.01286525 0)
(-0.017825348 0.019234551 0)
(-0.0062704105 0.022686417 0)
(0.0062450368 0.022689895 0)
(0.017804072 0.019240382 0)
(0.026658921 0.012874666 0)
(0.03146131 0.0045448079 0)
(0.031477401 -0.0044873359 0)
(0.026698702 -0.012848477 0)
(0.017847488 -0.019250904 0)
(0.0062785447 -0.022724634 0)
(-0.00060715458 0.021454799 0)
(-0.001684014 0.0182015 0)
(-0.0025025709 0.01216869 0)
(-0.0029280332 0.0042919839 0)
(-0.0029041016 -0.0042493837 0)
(-0.002443061 -0.012139696 0)
(-0.0016150551 -0.018193407 0)
(-0.00056481828 -0.021469686 0)
(0.00058746686 -0.021470838 0)
(0.0016366546 -0.018213545 0)
(0.002452653 -0.012161733 0)
(0.0029079458 -0.0042778032 0)
(0.0029253895 0.0042675838 0)
(0.002492369 0.012143064 0)
(0.0016632462 0.018187043 0)
(0.00058378345 0.021448478 0)
)
;

boundaryField
{
    leftWall
    {
        type            cyclic;
    }
    rightWall
    {
        type            cyclic;
    }
    lowerWall
    {
        type            slip;
    }
    atmosphere
    {
        type            slip;
    }
    defaultFaces
    {
        type            empty;
    }
}


// ************************************************************************* //
