/*--------------------------------*- C++ -*----------------------------------*\
| =========                 |                                                 |
| \\      /  F ield         | OpenFOAM: The Open Source CFD Toolbox           |
|  \\    /   O peration     | Version:  2106                                  |
|   \\  /    A nd           | Website:  www.openfoam.com                      |
|    \\/     M anipulation  |                                                 |
\*---------------------------------------------------------------------------*/
FoamFile
{
    version     2.0;
    format      ascii;
    arch        "LSB;label=32;scalar=64";
    class       surfaceScalarField;
    location    "0.225";
    object      phi;
}
// * * * * * * * * * * * * * * * * * * * * * * * * * * * * * * * * * * * * * //

dimensions      [0 3 -1 0 0 0 0];

oriented        oriented;

internalField   nonuniform List<scalar> 
65152
(
4.7418283e-09
-4.7418283e-09
3.0510215e-08
-2.5768387e-08
6.6332365e-08
-3.5822149e-08
1.074728e-07
-4.1140433e-08
1.5090701e-07
-4.3434215e-08
1.9535537e-07
-4.4448352e-08
2.4021128e-07
-4.4855919e-08
2.8517285e-07
-4.4961571e-08
3.3017102e-07
-4.4998167e-08
3.7511621e-07
-4.4945191e-08
4.1993981e-07
-4.4823595e-08
4.6457125e-07
-4.4631437e-08
5.0902149e-07
-4.4450245e-08
5.5322664e-07
-4.4205147e-08
5.9719768e-07
-4.3971045e-08
6.4114343e-07
-4.3945746e-08
6.8425835e-07
-4.3114925e-08
7.2883478e-07
-4.4576424e-08
7.7020426e-07
-4.1369478e-08
8.160437e-07
-4.5839445e-08
8.5653973e-07
-4.0496028e-08
9.0106511e-07
-4.4525385e-08
9.446185e-07
-4.3553382e-08
9.8535274e-07
-4.0734245e-08
1.0303815e-06
-4.5028728e-08
1.0730549e-06
-4.2673415e-08
1.1148535e-06
-4.1798578e-08
1.1588153e-06
-4.3961883e-08
1.2021172e-06
-4.330188e-08
1.2448893e-06
-4.2772047e-08
1.2880045e-06
-4.3115236e-08
1.3313801e-06
-4.3375562e-08
1.3746302e-06
-4.3250144e-08
1.4190888e-06
-4.4458602e-08
1.4614978e-06
-4.2408967e-08
1.5046253e-06
-4.312752e-08
1.5489968e-06
-4.437152e-08
1.5932159e-06
-4.4219091e-08
1.6362904e-06
-4.3074474e-08
1.6794795e-06
-4.3189139e-08
1.722919e-06
-4.3439475e-08
1.7670225e-06
-4.4103513e-08
1.8113193e-06
-4.4296756e-08
1.8545005e-06
-4.3181191e-08
1.8974271e-06
-4.292661e-08
1.9397741e-06
-4.2347032e-08
1.9841428e-06
-4.4368657e-08
2.0274269e-06
-4.3284129e-08
2.0701802e-06
-4.2753339e-08
2.1139536e-06
-4.3773333e-08
2.1548304e-06
-4.087684e-08
2.1963761e-06
-4.1545702e-08
2.2396892e-06
-4.3313132e-08
2.2824477e-06
-4.2758483e-08
2.3245941e-06
-4.2146422e-08
2.365738e-06
-4.1143835e-08
2.4061963e-06
-4.0458344e-08
2.4465475e-06
-4.0351181e-08
2.4872965e-06
-4.0749005e-08
2.5284463e-06
-4.1149834e-08
2.5700597e-06
-4.1613325e-08
2.6106753e-06
-4.0615666e-08
2.6487123e-06
-3.8036931e-08
2.6869977e-06
-3.8285474e-08
2.7269248e-06
-3.9927013e-08
2.7662107e-06
-3.928595e-08
2.8048779e-06
-3.8667179e-08
2.8432475e-06
-3.8369653e-08
2.8818094e-06
-3.8561868e-08
2.9208168e-06
-3.9007355e-08
2.958226e-06
-3.7409252e-08
2.9937061e-06
-3.5480065e-08
3.0298122e-06
-3.6106172e-08
3.0676196e-06
-3.7807373e-08
3.1055234e-06
-3.7903805e-08
3.1426816e-06
-3.7158186e-08
3.1786898e-06
-3.6008214e-08
3.2145475e-06
-3.585771e-08
3.2506067e-06
-3.6059184e-08
3.2853564e-06
-3.4749732e-08
3.3200285e-06
-3.4672062e-08
3.3558651e-06
-3.5836636e-08
3.3911452e-06
-3.5280065e-08
3.4261582e-06
-3.5012997e-08
3.4622986e-06
-3.6140376e-08
3.4975047e-06
-3.5206137e-08
3.5306735e-06
-3.3168787e-08
3.5642485e-06
-3.3575024e-08
3.5991731e-06
-3.4924611e-08
3.6334014e-06
-3.4228208e-08
3.6675065e-06
-3.4105137e-08
3.7017e-06
-3.4193519e-08
3.7346342e-06
-3.2934224e-08
3.7670597e-06
-3.2425424e-08
3.8009513e-06
-3.3891669e-08
3.8366583e-06
-3.5706998e-08
3.8708631e-06
-3.4204795e-08
3.9024854e-06
-3.1622239e-08
3.9347744e-06
-3.2289054e-08
3.9677434e-06
-3.2969033e-08
4.000147e-06
-3.2403555e-08
4.0330799e-06
-3.293291e-08
4.0665262e-06
-3.3446293e-08
4.0983963e-06
-3.1870127e-08
4.1295865e-06
-3.1190216e-08
4.1616942e-06
-3.2107638e-08
4.1946218e-06
-3.2927586e-08
4.2281332e-06
-3.3511435e-08
4.2612866e-06
-3.3153428e-08
4.2928402e-06
-3.1553526e-08
4.3235468e-06
-3.0706627e-08
4.3538277e-06
-3.0280945e-08
4.3839082e-06
-3.0080458e-08
4.415569e-06
-3.1660826e-08
4.4483187e-06
-3.2749722e-08
4.479825e-06
-3.1506237e-08
4.5108194e-06
-3.0994398e-08
4.5422502e-06
-3.1430835e-08
4.5728494e-06
-3.0599181e-08
4.6024157e-06
-2.9566302e-08
4.6332296e-06
-3.081392e-08
4.665134e-06
-3.1904375e-08
4.6957914e-06
-3.0657406e-08
4.7255604e-06
-2.9769027e-08
4.7553412e-06
-2.9780799e-08
4.7845273e-06
-2.9186053e-08
4.8135917e-06
-2.9064463e-08
4.8435379e-06
-2.9946119e-08
4.873531e-06
-2.9993108e-08
4.9033768e-06
-2.9845803e-08
4.9331336e-06
-2.9756827e-08
4.9622079e-06
-2.9074294e-08
4.9904291e-06
-2.8221168e-08
5.0195273e-06
-2.9098297e-08
5.0498771e-06
-3.034978e-08
5.0795752e-06
-2.9698074e-08
5.1080823e-06
-2.8507114e-08
5.1366143e-06
-2.8531959e-08
5.1645381e-06
-2.7923854e-08
5.191162e-06
-2.6623898e-08
5.2177627e-06
-2.6600708e-08
5.2458174e-06
-2.8054692e-08
5.2746201e-06
-2.8802643e-08
5.3026451e-06
-2.8025052e-08
5.3308661e-06
-2.8220966e-08
5.3597341e-06
-2.8868058e-08
5.3876646e-06
-2.7930452e-08
5.4140989e-06
-2.6434266e-08
5.4400366e-06
-2.5937711e-08
5.4667053e-06
-2.6668741e-08
5.4936514e-06
-2.6946102e-08
5.5214047e-06
-2.7753244e-08
5.5495085e-06
-2.8103857e-08
5.5769714e-06
-2.7462851e-08
5.6038051e-06
-2.6833777e-08
5.6293772e-06
-2.5572008e-08
5.6542368e-06
-2.4859636e-08
5.679409e-06
-2.517223e-08
5.7050613e-06
-2.5652292e-08
5.7317098e-06
-2.664848e-08
5.7589952e-06
-2.7285455e-08
5.7865793e-06
-2.7584098e-08
5.813684e-06
-2.7104654e-08
5.8393367e-06
-2.56527e-08
5.8638193e-06
-2.4482625e-08
5.8884138e-06
-2.4594459e-08
5.9131692e-06
-2.4755402e-08
5.9385921e-06
-2.5422893e-08
5.9653637e-06
-2.6771584e-08
5.9927531e-06
-2.7389468e-08
6.0198346e-06
-2.7081497e-08
6.0458241e-06
-2.5989487e-08
6.0709814e-06
-2.5157258e-08
6.0956664e-06
-2.4685016e-08
6.1195342e-06
-2.386785e-08
6.1431978e-06
-2.3663603e-08
6.1673428e-06
-2.4144936e-08
6.1920427e-06
-2.4699916e-08
6.2170064e-06
-2.4963675e-08
6.2416577e-06
-2.4651349e-08
6.2659815e-06
-2.4323816e-08
6.2905942e-06
-2.4612649e-08
6.3151438e-06
-2.454963e-08
6.3397349e-06
-2.4591134e-08
6.3645714e-06
-2.4836441e-08
6.3891805e-06
-2.4609106e-08
6.4135669e-06
-2.4386386e-08
6.4380262e-06
-2.4459347e-08
6.462155e-06
-2.4128801e-08
6.4856407e-06
-2.348564e-08
6.5089503e-06
-2.33096e-08
6.5322264e-06
-2.3276144e-08
6.5554614e-06
-2.3234971e-08
6.5784238e-06
-2.2962394e-08
6.6012656e-06
-2.2841802e-08
6.6243913e-06
-2.3125738e-08
6.6481967e-06
-2.38054e-08
6.6724658e-06
-2.4269107e-08
6.6968381e-06
-2.4372325e-08
6.7206847e-06
-2.3846509e-08
6.7431008e-06
-2.2416103e-08
6.7639373e-06
-2.0836536e-08
6.7840554e-06
-2.0118091e-08
6.8045453e-06
-2.0489869e-08
6.826035e-06
-2.1489791e-08
6.8487636e-06
-2.2728517e-08
6.8716193e-06
-2.285574e-08
6.8930981e-06
-2.1478775e-08
6.9129653e-06
-1.9867265e-08
6.9307838e-06
-1.7818432e-08
6.9476054e-06
-1.6821632e-08
6.9624824e-06
-1.4876944e-08
6.9763824e-06
-1.3900099e-08
6.9882664e-06
-1.1883931e-08
6.9994351e-06
-1.1168673e-08
7.0114133e-06
-1.1978281e-08
7.0223267e-06
-1.0913334e-08
7.0333043e-06
-1.0977589e-08
7.041712e-06
-8.4077231e-09
7.0461911e-06
-4.4791236e-09
7.0459622e-06
2.2888735e-10
7.0406485e-06
5.3137129e-09
7.0321313e-06
8.5172429e-09
7.0176449e-06
1.4486322e-08
6.997408e-06
2.0236932e-08
6.9692781e-06
2.8129923e-08
6.9291297e-06
4.0148415e-08
6.8779164e-06
5.1213242e-08
6.8136481e-06
6.4268322e-08
6.7300748e-06
8.3573346e-08
6.6319087e-06
9.8166075e-08
6.503974e-06
1.2793464e-07
6.3527307e-06
1.5124338e-07
6.165952e-06
1.8677863e-07
5.9408103e-06
2.2514168e-07
5.6697118e-06
2.7109857e-07
5.3504682e-06
3.1924359e-07
4.9705533e-06
3.7991486e-07
4.5277464e-06
4.4280689e-07
4.0154887e-06
5.1225774e-07
3.4256518e-06
5.898369e-07
2.7573015e-06
6.6835034e-07
2.017926e-06
7.3937541e-07
1.2222224e-06
7.9570364e-07
4.3590053e-07
7.8632187e-07
-2.652035e-07
7.0110403e-07
-8.1594508e-07
5.5074158e-07
-1.1956345e-06
3.7968945e-07
-1.4775877e-06
2.8195318e-07
-1.8686098e-06
3.9102205e-07
-2.3564205e-06
4.8781071e-07
-2.791196e-06
4.3477554e-07
-2.9320439e-06
1.4084787e-07
-2.4385067e-06
-4.9353715e-07
-1.4424375e-06
-9.960692e-07
-1.4424375e-06
5.1371718e-09
-9.8790001e-09
3.664327e-08
-5.7274485e-08
7.9929341e-08
-7.910822e-08
1.2801097e-07
-8.9222059e-08
1.784123e-07
-9.3835549e-08
2.2978321e-07
-9.5819265e-08
2.8148147e-07
-9.6554173e-08
3.3317698e-07
-9.6657089e-08
3.846059e-07
-9.6427082e-08
4.3563338e-07
-9.5972674e-08
4.8627503e-07
-9.5465241e-08
5.3661414e-07
-9.497055e-08
5.8659065e-07
-9.4426757e-08
6.3636826e-07
-9.3982753e-08
6.8569596e-07
-9.3298742e-08
7.3528569e-07
-9.3535482e-08
7.8367435e-07
-9.1503581e-08
8.3380376e-07
-9.4705834e-08
8.8052358e-07
-8.8089299e-08
9.3188268e-07
-9.7198545e-08
9.776061e-07
-8.6219447e-08
1.0276838e-06
-9.4603085e-08
1.0766697e-06
-9.2539296e-08
1.1226666e-06
-8.6731152e-08
1.1730254e-06
-9.5387507e-08
1.2216802e-06
-9.1328196e-08
1.2686921e-06
-8.8810528e-08
1.3168222e-06
-9.2091972e-08
1.3671582e-06
-9.3637818e-08
1.4157253e-06
-9.1339232e-08
1.4618221e-06
-8.921203e-08
1.5114282e-06
-9.2981656e-08
1.5618551e-06
-9.3677021e-08
1.611063e-06
-9.3666491e-08
1.6567428e-06
-8.8088787e-08
1.7063093e-06
-9.2694047e-08
1.7570024e-06
-9.5064545e-08
1.8073077e-06
-9.4524439e-08
1.8543722e-06
-9.0138975e-08
1.9016122e-06
-9.0429178e-08
1.9514458e-06
-9.3272988e-08
2.0032418e-06
-9.5899554e-08
2.0522922e-06
-9.3347166e-08
2.098712e-06
-8.9601013e-08
2.1474682e-06
-9.168281e-08
2.1963731e-06
-9.1251918e-08
2.2463214e-06
-9.4316953e-08
2.294744e-06
-9.1706762e-08
2.3444011e-06
-9.241044e-08
2.3928092e-06
-9.2181364e-08
2.4369342e-06
-8.500187e-08
2.4849072e-06
-8.9518646e-08
2.5362624e-06
-9.466834e-08
2.5851057e-06
-9.1601792e-08
2.631111e-06
-8.8151799e-08
2.6775876e-06
-8.7620414e-08
2.7241589e-06
-8.7029651e-08
2.7693019e-06
-8.5494141e-08
2.8157891e-06
-8.72362e-08
2.8651004e-06
-9.046111e-08
2.9138531e-06
-9.0366096e-08
2.9579406e-06
-8.4703147e-08
2.9993323e-06
-7.9428598e-08
3.0445352e-06
-8.3488417e-08
3.0925849e-06
-8.797669e-08
3.1380453e-06
-8.4746301e-08
3.1807798e-06
-8.1401724e-08
3.2245764e-06
-8.2166256e-08
3.2717636e-06
-8.5749047e-08
3.3177889e-06
-8.5032667e-08
3.3583733e-06
-7.799369e-08
3.3976785e-06
-7.4785264e-08
3.4410734e-06
-7.9501026e-08
3.4875391e-06
-8.427311e-08
3.5320002e-06
-8.2364905e-08
3.5739669e-06
-7.912491e-08
3.6155192e-06
-7.7560488e-08
3.6578054e-06
-7.8143837e-08
3.6996553e-06
-7.7909095e-08
3.7404174e-06
-7.5511828e-08
3.780821e-06
-7.5075657e-08
3.8223548e-06
-7.7370526e-08
3.8646319e-06
-7.7557171e-08
3.9071339e-06
-7.7514973e-08
3.9489325e-06
-7.7939002e-08
3.9891629e-06
-7.5436462e-08
4.0281444e-06
-7.2150305e-08
4.0674774e-06
-7.2907986e-08
4.1083978e-06
-7.584503e-08
4.1505739e-06
-7.6404305e-08
4.1919611e-06
-7.5492332e-08
4.2299456e-06
-7.2178017e-08
4.2666371e-06
-6.9625751e-08
4.3064201e-06
-7.2208401e-08
4.3491464e-06
-7.6618021e-08
4.3915405e-06
-7.8101112e-08
4.4304627e-06
-7.3126946e-08
4.4671502e-06
-6.8309795e-08
4.5047157e-06
-6.9854481e-08
4.5440841e-06
-7.2337452e-08
4.5843153e-06
-7.2634738e-08
4.6242811e-06
-7.2898707e-08
4.6628342e-06
-7.19994e-08
4.6996242e-06
-6.8660124e-08
4.7361389e-06
-6.7704905e-08
4.7741341e-06
-7.010283e-08
4.8147775e-06
-7.3571085e-08
4.856332e-06
-7.5065926e-08
4.8955972e-06
-7.2418611e-08
4.9320266e-06
-6.7982891e-08
4.9672888e-06
-6.5968854e-08
5.0030612e-06
-6.6053343e-08
5.0401256e-06
-6.714488e-08
5.078762e-06
-7.0297204e-08
5.1180193e-06
-7.200703e-08
5.1565307e-06
-7.0017612e-08
5.193658e-06
-6.8121707e-08
5.2298029e-06
-6.7575754e-08
5.2659417e-06
-6.6737988e-08
5.3027402e-06
-6.6364809e-08
5.3405728e-06
-6.8646499e-08
5.3789151e-06
-7.0246612e-08
5.4166957e-06
-6.8438032e-08
5.4528149e-06
-6.5888212e-08
5.4876228e-06
-6.4588777e-08
5.5226669e-06
-6.4230128e-08
5.5585988e-06
-6.4996302e-08
5.5951635e-06
-6.6510845e-08
5.6319721e-06
-6.6801751e-08
5.6683923e-06
-6.6265984e-08
5.7033887e-06
-6.4753175e-08
5.7374538e-06
-6.3139422e-08
5.7722284e-06
-6.2995828e-08
5.808521e-06
-6.5390847e-08
5.8456015e-06
-6.7430265e-08
5.8828028e-06
-6.6899429e-08
5.9188554e-06
-6.4559709e-08
5.952567e-06
-6.2243531e-08
5.9851165e-06
-6.0473369e-08
6.0176432e-06
-5.9150557e-08
6.0507243e-06
-5.9681831e-08
6.0846854e-06
-6.2015763e-08
6.1199932e-06
-6.4110475e-08
6.1553828e-06
-6.341464e-08
6.1911783e-06
-6.4016489e-08
6.2268038e-06
-6.449353e-08
6.261051e-06
-6.2177636e-08
6.2934373e-06
-5.8820607e-08
6.3250917e-06
-5.7592109e-08
6.3578725e-06
-5.9449526e-08
6.3922061e-06
-6.12797e-08
6.427927e-06
-6.3474127e-08
6.4639159e-06
-6.4092827e-08
6.4982826e-06
-6.1829479e-08
6.5308129e-06
-5.9364136e-08
6.5620482e-06
-5.6807231e-08
6.5921556e-06
-5.4967073e-08
6.6225083e-06
-5.5524968e-08
6.6548041e-06
-5.7948107e-08
6.6888486e-06
-6.0692979e-08
6.7237711e-06
-6.2207905e-08
6.7587258e-06
-6.2538824e-08
6.7925586e-06
-6.09374e-08
6.8243188e-06
-5.7412952e-08
6.8539606e-06
-5.4124387e-08
6.8829229e-06
-5.3556761e-08
6.9132444e-06
-5.5076887e-08
6.9460048e-06
-5.8183322e-08
6.9803077e-06
-6.1074467e-08
7.0147611e-06
-6.1842873e-08
7.049144e-06
-6.1464465e-08
7.0825572e-06
-5.9402676e-08
7.1145618e-06
-5.7161804e-08
7.145624e-06
-5.5747253e-08
7.1757103e-06
-5.3954167e-08
7.2054413e-06
-5.3394551e-08
7.2364814e-06
-5.5185079e-08
7.2684139e-06
-5.6632429e-08
7.2997295e-06
-5.627922e-08
7.3302373e-06
-5.5159197e-08
7.3606736e-06
-5.4760041e-08
7.3914371e-06
-5.537619e-08
7.4227118e-06
-5.5824373e-08
7.4543438e-06
-5.6223135e-08
7.4855384e-06
-5.6030973e-08
7.5166542e-06
-5.5724937e-08
7.5486618e-06
-5.6393991e-08
7.5806945e-06
-5.6492012e-08
7.6117209e-06
-5.5155264e-08
7.6422441e-06
-5.4008795e-08
7.6727653e-06
-5.3830762e-08
7.7032117e-06
-5.3722601e-08
7.7331522e-06
-5.3175425e-08
7.7622144e-06
-5.2024641e-08
7.7910976e-06
-5.1725028e-08
7.8212857e-06
-5.3313797e-08
7.8531951e-06
-5.5714834e-08
7.8861768e-06
-5.7250775e-08
7.9193186e-06
-5.751411e-08
7.9512717e-06
-5.5799625e-08
7.9805096e-06
-5.1654015e-08
8.0069449e-06
-4.7271829e-08
8.0321746e-06
-4.5347796e-08
8.0583733e-06
-4.6688609e-08
8.0871291e-06
-5.0245578e-08
8.118393e-06
-5.3992363e-08
8.1515435e-06
-5.6006228e-08
8.1856017e-06
-5.5537015e-08
8.2204025e-06
-5.4668067e-08
8.2538628e-06
-5.1278757e-08
8.2863037e-06
-4.926252e-08
8.3144198e-06
-4.2993027e-08
8.3388278e-06
-3.830813e-08
8.3575646e-06
-3.062071e-08
8.3746384e-06
-2.8242499e-08
8.3917307e-06
-2.9070554e-08
8.4120363e-06
-3.1218948e-08
8.4355061e-06
-3.4447356e-08
8.4598729e-06
-3.2774524e-08
8.4852329e-06
-2.9839142e-08
8.507665e-06
-2.2203212e-08
8.5258068e-06
-1.2828111e-08
8.5399158e-06
-5.5917443e-09
8.5488971e-06
5.5050395e-09
8.5528858e-06
1.6248214e-08
8.5502007e-06
3.0815101e-08
8.5408646e-06
4.9484441e-08
8.523436e-06
6.8641846e-08
8.49372e-06
9.398431e-08
8.4499983e-06
1.2729508e-07
8.3958e-06
1.5236442e-07
8.3153768e-06
2.0835778e-07
8.2246859e-06
2.4193427e-07
8.1058e-06
3.0566456e-07
7.9576354e-06
3.7330627e-07
7.7874106e-06
4.4132337e-07
7.5741427e-06
5.3251146e-07
7.3151894e-06
6.3886822e-07
7.0143091e-06
7.4368721e-07
6.6433074e-06
8.8325935e-07
6.2127853e-06
1.020359e-06
5.7240073e-06
1.1571284e-06
5.1541672e-06
1.3092155e-06
4.5157889e-06
1.4340819e-06
3.7671317e-06
1.5349791e-06
2.8600368e-06
1.6081989e-06
1.8367599e-06
1.5740185e-06
7.2909249e-07
1.4873569e-06
-2.8253163e-07
1.2935773e-06
-1.0175542e-06
1.1260446e-06
-1.5469998e-06
1.0172564e-06
-1.8858236e-06
7.7359933e-07
-1.8981784e-06
1.5320266e-07
-1.563812e-06
-8.2790352e-07
-8.40492e-07
-1.7193892e-06
-2.2829295e-06
5.1071116e-09
-1.4986112e-08
3.6247013e-08
-8.8414387e-08
7.8936772e-08
-1.2179798e-07
1.2660349e-07
-1.3688878e-07
1.7652127e-07
-1.4375333e-07
2.2739981e-07
-1.466978e-07
2.7859466e-07
-1.4774903e-07
3.2979994e-07
-1.4786237e-07
3.808664e-07
-1.4749355e-07
4.317737e-07
-1.4687997e-07
4.8246043e-07
-1.4615197e-07
5.3293477e-07
-1.4544489e-07
5.8312195e-07
-1.4461393e-07
6.3329651e-07
-1.4415731e-07
6.8291686e-07
-1.4291909e-07
7.3291674e-07
-1.4353537e-07
7.8201883e-07
-1.4060567e-07
8.316124e-07
-1.442994e-07
8.8075508e-07
-1.3723198e-07
9.2966746e-07
-1.4611093e-07
9.7870264e-07
-1.3525462e-07
1.0277959e-06
-1.4369637e-07
1.0761472e-06
-1.4089057e-07
1.1252307e-06
-1.3581462e-07
1.1743028e-06
-1.4445963e-07
1.2223683e-06
-1.3939376e-07
1.2717823e-06
-1.382245e-07
1.3200075e-06
-1.4031717e-07
1.3694628e-06
-1.4309305e-07
1.4186075e-06
-1.4048398e-07
1.466144e-06
-1.3674853e-07
1.516401e-06
-1.4323864e-07
1.565808e-06
-1.4308406e-07
1.6149278e-06
-1.4278631e-07
1.6623258e-06
-1.3548674e-07
1.7133168e-06
-1.4368501e-07
1.7626074e-06
-1.4435517e-07
1.8127938e-06
-1.4471088e-07
1.8607542e-06
-1.3809932e-07
1.9089623e-06
-1.3863732e-07
1.9598591e-06
-1.4416981e-07
2.0116026e-06
-1.4764304e-07
2.0592579e-06
-1.4100243e-07
2.1060058e-06
-1.3634891e-07
2.1560774e-06
-1.4175441e-07
2.2075765e-06
-1.4275103e-07
2.2570884e-06
-1.4382881e-07
2.3031622e-06
-1.3778059e-07
2.353146e-06
-1.4239426e-07
2.4023706e-06
-1.4140598e-07
2.4489189e-06
-1.3155012e-07
2.4976593e-06
-1.382591e-07
2.5486258e-06
-1.4563485e-07
2.5964945e-06
-1.3947041e-07
2.6411047e-06
-1.3276206e-07
2.6885949e-06
-1.3511063e-07
2.7379861e-06
-1.3642081e-07
2.7844703e-06
-1.319784e-07
2.8297635e-06
-1.3252936e-07
2.878551e-06
-1.3924864e-07
2.927824e-06
-1.3963909e-07
2.9713006e-06
-1.281797e-07
3.0124408e-06
-1.205688e-07
3.0588025e-06
-1.2985014e-07
3.1094926e-06
-1.3866676e-07
3.1568129e-06
-1.3206668e-07
3.1974307e-06
-1.2201948e-07
3.2386862e-06
-1.234218e-07
3.2872065e-06
-1.3426927e-07
3.3349614e-06
-1.3278757e-07
3.3755092e-06
-1.1854152e-07
3.414383e-06
-1.1365907e-07
3.4590029e-06
-1.2412095e-07
3.5080391e-06
-1.3330932e-07
3.5535207e-06
-1.2784652e-07
3.5930382e-06
-1.1864237e-07
3.6325186e-06
-1.1704083e-07
3.6753179e-06
-1.209432e-07
3.7187792e-06
-1.2137033e-07
3.7612214e-06
-1.1795411e-07
3.8022229e-06
-1.1607715e-07
3.8440472e-06
-1.1919476e-07
3.8869098e-06
-1.2041977e-07
3.9298563e-06
-1.2046153e-07
3.9713249e-06
-1.194076e-07
4.0108681e-06
-1.1497968e-07
4.049717e-06
-1.1099919e-07
4.0891425e-06
-1.1233347e-07
4.1302968e-06
-1.1699931e-07
4.1741463e-06
-1.202538e-07
4.2170756e-06
-1.1842169e-07
4.2553815e-06
-1.104839e-07
4.2919489e-06
-1.061931e-07
4.3319612e-06
-1.122207e-07
4.3757492e-06
-1.2040606e-07
4.4184727e-06
-1.2082461e-07
4.4558903e-06
-1.1054457e-07
4.4915121e-06
-1.0393156e-07
4.5290464e-06
-1.0738883e-07
4.5696504e-06
-1.1294147e-07
4.6117191e-06
-1.1470343e-07
4.6537373e-06
-1.1491684e-07
4.6930253e-06
-1.1128745e-07
4.7301163e-06
-1.0575107e-07
4.7659293e-06
-1.0351797e-07
4.8029076e-06
-1.0708108e-07
4.8439518e-06
-1.1461532e-07
4.8864993e-06
-1.1761346e-07
4.9252184e-06
-1.1113762e-07
4.9608207e-06
-1.0358525e-07
4.995791e-06
-1.009391e-07
5.0323416e-06
-1.0260399e-07
5.0708162e-06
-1.0561951e-07
5.111243e-06
-1.1072396e-07
5.1517108e-06
-1.1247488e-07
5.1910451e-06
-1.093519e-07
5.2279781e-06
-1.0505469e-07
5.2634081e-06
-1.0300578e-07
5.2985781e-06
-1.0190794e-07
5.3348528e-06
-1.0263949e-07
5.3721934e-06
-1.0598716e-07
5.4106446e-06
-1.0869775e-07
5.4496789e-06
-1.0747239e-07
5.4872768e-06
-1.0348613e-07
5.5225245e-06
-9.9836411e-08
5.5582876e-06
-9.9993234e-08
5.5951609e-06
-1.0186961e-07
5.6319931e-06
-1.0334303e-07
5.6689518e-06
-1.0376044e-07
5.7061071e-06
-1.0342137e-07
5.7413695e-06
-1.0001557e-07
5.7748176e-06
-9.6587488e-08
5.8091354e-06
-9.7313573e-08
5.8458422e-06
-1.0209768e-07
5.8835838e-06
-1.0517186e-07
5.9213227e-06
-1.0463831e-07
5.9580402e-06
-1.0127722e-07
5.9923217e-06
-9.6525026e-08
6.0251849e-06
-9.3336609e-08
6.0581447e-06
-9.2110352e-08
6.091864e-06
-9.3401115e-08
6.1268295e-06
-9.6981246e-08
6.1623944e-06
-9.9675362e-08
6.1975117e-06
-9.8531938e-08
6.2330829e-06
-9.9587746e-08
6.2692441e-06
-1.006547e-07
6.304089e-06
-9.70225e-08
6.3368749e-06
-9.1606522e-08
6.3688216e-06
-8.9538833e-08
6.4016851e-06
-9.2313085e-08
6.4367814e-06
-9.6375945e-08
6.4729457e-06
-9.9638417e-08
6.509458e-06
-1.0060517e-07
6.5446589e-06
-9.7030384e-08
6.5771504e-06
-9.1855613e-08
6.6073263e-06
-8.6983116e-08
6.6362194e-06
-8.3860202e-08
6.6658305e-06
-8.5136033e-08
6.6983527e-06
-9.0470277e-08
6.732335e-06
-9.4675302e-08
6.7676969e-06
-9.7569803e-08
6.8052881e-06
-1.0013002e-07
6.8418306e-06
-9.747994e-08
6.8742571e-06
-8.9839428e-08
6.9042882e-06
-8.4155527e-08
6.9340002e-06
-8.3268776e-08
6.964445e-06
-8.5521689e-08
6.9960393e-06
-8.9777617e-08
7.0291974e-06
-9.4232553e-08
7.0640777e-06
-9.6723134e-08
7.0987013e-06
-9.6088083e-08
7.1312329e-06
-9.1934264e-08
7.1626519e-06
-8.8580778e-08
7.1938836e-06
-8.6978961e-08
7.224036e-06
-8.4106585e-08
7.253732e-06
-8.3090519e-08
7.2861823e-06
-8.7635405e-08
7.3206337e-06
-9.108386e-08
7.3537539e-06
-8.9399427e-08
7.3852522e-06
-8.6657467e-08
7.4166627e-06
-8.6170551e-08
7.447468e-06
-8.6181522e-08
7.4778671e-06
-8.6223476e-08
7.5085089e-06
-8.6864846e-08
7.5387413e-06
-8.6263459e-08
7.5689346e-06
-8.5918216e-08
7.6003514e-06
-8.7810798e-08
7.63282e-06
-8.8960539e-08
7.6652189e-06
-8.7554156e-08
7.6972593e-06
-8.6049207e-08
7.7295371e-06
-8.6108577e-08
7.7619219e-06
-8.610742e-08
7.7928271e-06
-8.408064e-08
7.8220697e-06
-8.1267227e-08
7.8511698e-06
-8.0825131e-08
7.8812159e-06
-8.3359886e-08
7.912166e-06
-8.6664963e-08
7.9444814e-06
-8.9566158e-08
7.9784761e-06
-9.1508827e-08
8.0129504e-06
-9.0273859e-08
8.0449229e-06
-8.3626529e-08
8.0733397e-06
-7.5688707e-08
8.0994474e-06
-7.1455476e-08
8.125418e-06
-7.265918e-08
8.1525959e-06
-7.7423507e-08
8.1813091e-06
-8.2705528e-08
8.2116727e-06
-8.6369805e-08
8.2434554e-06
-8.7319722e-08
8.2768405e-06
-8.8053193e-08
8.3106326e-06
-8.5070902e-08
8.3443084e-06
-8.2938247e-08
8.3764881e-06
-7.5172723e-08
8.4059699e-06
-6.7789934e-08
8.4314155e-06
-5.6066361e-08
8.454478e-06
-5.1304972e-08
8.4762139e-06
-5.0806499e-08
8.4987309e-06
-5.3735868e-08
8.524642e-06
-6.0358525e-08
8.5472045e-06
-5.5337019e-08
8.5715069e-06
-5.4141564e-08
8.5928154e-06
-4.3511695e-08
8.6131039e-06
-3.3116582e-08
8.6279761e-06
-2.0463913e-08
8.6384413e-06
-4.9601843e-09
8.6459236e-06
8.7659523e-09
8.6486702e-06
2.8068427e-08
8.6508748e-06
4.727991e-08
8.6460431e-06
7.3473542e-08
8.6335014e-06
1.0652595e-07
8.6076839e-06
1.5311256e-07
8.5695819e-06
1.9046648e-07
8.5153936e-06
2.6254608e-07
8.4513875e-06
3.059404e-07
8.3600634e-06
3.9698865e-07
8.2531376e-06
4.8023199e-07
8.131706e-06
5.6275501e-07
7.9624222e-06
7.0179524e-07
7.7922467e-06
8.0904373e-07
7.5730006e-06
9.629333e-07
7.3127685e-06
1.1434915e-06
7.0273374e-06
1.3057901e-06
6.6685889e-06
1.5158768e-06
6.2749142e-06
1.7028902e-06
5.8268291e-06
1.8821671e-06
5.3026383e-06
2.0591699e-06
4.7459232e-06
2.164914e-06
4.0916478e-06
2.2282939e-06
3.3312508e-06
2.2477539e-06
2.4086416e-06
2.2161865e-06
1.4399028e-06
2.0947834e-06
6.4926699e-07
1.8078922e-06
1.3450587e-07
1.2883605e-06
-1.6299094e-07
4.5069947e-07
-3.0092787e-07
-6.8996659e-07
-2.9647281e-07
-1.7238443e-06
-2.5794024e-06
5.3969914e-09
-2.0383103e-08
3.6684699e-08
-1.1970209e-07
7.9552979e-08
-1.6466626e-07
1.2747886e-07
-1.8481466e-07
1.7761934e-07
-1.9389381e-07
2.2867793e-07
-1.9775639e-07
2.8002655e-07
-1.9909764e-07
3.313598e-07
-1.9919562e-07
3.8254229e-07
-1.9867604e-07
4.3352291e-07
-1.9786059e-07
4.8426646e-07
-1.9689552e-07
5.3475743e-07
-1.9593586e-07
5.8499787e-07
-1.9485437e-07
6.3500885e-07
-1.941683e-07
6.8479552e-07
-1.9270576e-07
7.3431266e-07
-1.930525e-07
7.838458e-07
-1.9013881e-07
8.3263959e-07
-1.930932e-07
8.8242932e-07
-1.8702171e-07
9.3031704e-07
-1.9399865e-07
9.7999603e-07
-1.849336e-07
1.0286208e-06
-1.9232116e-07
1.0763825e-06
-1.886523e-07
1.1261776e-06
-1.8560966e-07
1.1747958e-06
-1.930778e-07
1.2218411e-06
-1.8643913e-07
1.2721148e-06
-1.8849822e-07
1.3207682e-06
-1.8897053e-07
1.3689448e-06
-1.9126961e-07
1.4171359e-06
-1.8867514e-07
1.4668806e-06
-1.8649325e-07
1.5170493e-06
-1.9340731e-07
1.5643109e-06
-1.9034569e-07
1.6127435e-06
-1.9121892e-07
1.6630609e-06
-1.8580409e-07
1.7142562e-06
-1.9488032e-07
1.7611848e-06
-1.9128375e-07
1.8101009e-06
-1.9362701e-07
1.8599824e-06
-1.8798083e-07
1.9098156e-06
-1.8847056e-07
1.9602091e-06
-1.9456324e-07
2.0097665e-06
-1.9720046e-07
2.0562349e-06
-1.8747083e-07
2.1055244e-06
-1.8563844e-07
2.1562703e-06
-1.9250033e-07
2.2075929e-06
-1.9407363e-07
2.2566968e-06
-1.9293268e-07
2.301328e-06
-1.8241182e-07
2.3496253e-06
-1.9069152e-07
2.4007838e-06
-1.9256452e-07
2.4511538e-06
-1.819201e-07
2.4980469e-06
-1.851522e-07
2.5467631e-06
-1.9435104e-07
2.5941823e-06
-1.8688957e-07
2.6384572e-06
-1.7703695e-07
2.6862565e-06
-1.8290992e-07
2.7379824e-06
-1.8814668e-07
2.7860859e-06
-1.8008196e-07
2.8299076e-06
-1.7635103e-07
2.876128e-06
-1.8546907e-07
2.9237628e-06
-1.8727389e-07
2.9678771e-06
-1.7229402e-07
3.0113282e-06
-1.6401989e-07
3.0590039e-06
-1.7752583e-07
3.1100545e-06
-1.897174e-07
3.1570876e-06
-1.790997e-07
3.1953075e-06
-1.6023942e-07
3.2341945e-06
-1.6230883e-07
3.2825877e-06
-1.8266241e-07
3.3321507e-06
-1.8235062e-07
3.3757426e-06
-1.6213334e-07
3.4152548e-06
-1.5317133e-07
3.4578269e-06
-1.6669302e-07
3.5054118e-06
-1.8089424e-07
3.551125e-06
-1.735597e-07
3.5898756e-06
-1.5739301e-07
3.6284288e-06
-1.5559401e-07
3.6711256e-06
-1.6363995e-07
3.7163957e-06
-1.6664053e-07
3.7607798e-06
-1.6233817e-07
3.8019505e-06
-1.5724783e-07
3.8419839e-06
-1.5922819e-07
3.8836263e-06
-1.6206211e-07
3.9263645e-06
-1.6319979e-07
3.9672817e-06
-1.6032475e-07
4.0063291e-06
-1.5402711e-07
4.046747e-06
-1.5141709e-07
4.0871361e-06
-1.5272254e-07
4.1277631e-06
-1.5762627e-07
4.1709446e-06
-1.6343539e-07
4.2139609e-06
-1.6143792e-07
4.2527297e-06
-1.4925272e-07
4.2898964e-06
-1.4335983e-07
4.3294745e-06
-1.5179881e-07
4.3725337e-06
-1.634652e-07
4.4135201e-06
-1.6181105e-07
4.4503184e-06
-1.4734286e-07
4.4867743e-06
-1.4038739e-07
4.5261297e-06
-1.4674422e-07
4.5677735e-06
-1.5458535e-07
4.609951e-06
-1.568809e-07
4.6507745e-06
-1.5574035e-07
4.6890864e-06
-1.4959931e-07
4.7259192e-06
-1.4258388e-07
4.7621471e-06
-1.3974594e-07
4.7992372e-06
-1.4417118e-07
4.8405136e-06
-1.5589168e-07
4.8825056e-06
-1.5960542e-07
4.9206635e-06
-1.4929555e-07
4.9555276e-06
-1.3844939e-07
4.9911374e-06
-1.3654883e-07
5.029106e-06
-1.4057261e-07
5.0682487e-06
-1.4476223e-07
5.1078003e-06
-1.502756e-07
5.1482608e-06
-1.5293535e-07
5.1877362e-06
-1.4882732e-07
5.2246872e-06
-1.4200561e-07
5.2603031e-06
-1.3862169e-07
5.2959431e-06
-1.3754798e-07
5.3313014e-06
-1.3799779e-07
5.366169e-06
-1.4085471e-07
5.4030303e-06
-1.4555912e-07
5.4427332e-06
-1.4717524e-07
5.4817192e-06
-1.4247212e-07
5.519162e-06
-1.3727922e-07
5.5567972e-06
-1.3762847e-07
5.5937159e-06
-1.3878835e-07
5.6286013e-06
-1.3822839e-07
5.664061e-06
-1.3922015e-07
5.7009454e-06
-1.4030576e-07
5.7364379e-06
-1.3550803e-07
5.7704727e-06
-1.3062229e-07
5.8058005e-06
-1.3264138e-07
5.8424119e-06
-1.3870913e-07
5.8789666e-06
-1.4172658e-07
5.9163213e-06
-1.4199295e-07
5.9526004e-06
-1.3755634e-07
5.9869366e-06
-1.308612e-07
6.0207301e-06
-1.2713014e-07
6.0549073e-06
-1.2628759e-07
6.0892019e-06
-1.2769567e-07
6.1249592e-06
-1.3273855e-07
6.1603427e-06
-1.3505888e-07
6.1946605e-06
-1.3284973e-07
6.2282773e-06
-1.3320454e-07
6.2630193e-06
-1.3539673e-07
6.298599e-06
-1.326022e-07
6.3329171e-06
-1.2592456e-07
6.3656998e-06
-1.2232159e-07
6.3991787e-06
-1.257919e-07
6.4339067e-06
-1.3110398e-07
6.4685294e-06
-1.3426109e-07
6.5040529e-06
-1.3612867e-07
6.539752e-06
-1.3272953e-07
6.5728785e-06
-1.2498209e-07
6.6038185e-06
-1.1792309e-07
6.6335981e-06
-1.1363981e-07
6.6634128e-06
-1.1495079e-07
6.6944587e-06
-1.2151611e-07
6.7270168e-06
-1.2723346e-07
6.7614717e-06
-1.3202469e-07
6.7988441e-06
-1.3750244e-07
6.8368273e-06
-1.3546317e-07
6.8718702e-06
-1.2488229e-07
6.9038098e-06
-1.1609515e-07
6.9347071e-06
-1.1416606e-07
6.9649124e-06
-1.1572699e-07
6.9949236e-06
-1.1978878e-07
7.0259927e-06
-1.2530172e-07
7.0590094e-06
-1.2973977e-07
7.0935179e-06
-1.3059661e-07
7.1274884e-06
-1.2590473e-07
7.1590634e-06
-1.2015576e-07
7.1893967e-06
-1.1731227e-07
7.2198456e-06
-1.1455551e-07
7.250245e-06
-1.1348998e-07
7.2826012e-06
-1.199916e-07
7.3168769e-06
-1.2535956e-07
7.3507855e-06
-1.2330799e-07
7.3844053e-06
-1.2027727e-07
7.4172589e-06
-1.1902415e-07
7.4483167e-06
-1.1723935e-07
7.4786967e-06
-1.166034e-07
7.5083694e-06
-1.1653762e-07
7.5372632e-06
-1.1515727e-07
7.5670058e-06
-1.1566077e-07
7.5972653e-06
-1.1807027e-07
7.6270716e-06
-1.1876684e-07
7.6588892e-06
-1.1937177e-07
7.6935671e-06
-1.2072716e-07
7.7283768e-06
-1.2091823e-07
7.7614656e-06
-1.1919622e-07
7.7932948e-06
-1.1590985e-07
7.8236555e-06
-1.116279e-07
7.8531286e-06
-1.102983e-07
7.8829899e-06
-1.1322114e-07
7.9123909e-06
-1.1606594e-07
7.941057e-06
-1.182323e-07
7.9713009e-06
-1.2175274e-07
8.0042825e-06
-1.2325546e-07
8.0381462e-06
-1.1749014e-07
8.0705387e-06
-1.080813e-07
8.1007554e-06
-1.0167214e-07
8.129678e-06
-1.0158173e-07
8.1583424e-06
-1.0608793e-07
8.1869844e-06
-1.1134755e-07
8.2149242e-06
-1.1430962e-07
8.2433694e-06
-1.1576486e-07
8.272673e-06
-1.1735682e-07
8.3038347e-06
-1.1623258e-07
8.3357361e-06
-1.1483965e-07
8.3676913e-06
-1.0712791e-07
8.399456e-06
-9.9554712e-08
8.4281599e-06
-8.4770249e-08
8.457561e-06
-8.070604e-08
8.4845355e-06
-7.7781027e-08
8.5123854e-06
-8.1585775e-08
8.5380896e-06
-8.6062662e-08
8.5631849e-06
-8.0432366e-08
8.5854242e-06
-7.638082e-08
8.605e-06
-6.3087502e-08
8.6223598e-06
-5.0476384e-08
8.634985e-06
-3.308916e-08
8.6465928e-06
-1.6567956e-08
8.6556225e-06
-2.6372127e-10
8.6623504e-06
2.1340478e-08
8.6700713e-06
3.9559065e-08
8.6667912e-06
7.6753651e-08
8.658053e-06
1.1526415e-07
8.6477429e-06
1.6342261e-07
8.615798e-06
2.2241141e-07
8.5865755e-06
2.9176861e-07
8.5375563e-06
3.5495961e-07
8.4702211e-06
4.6432384e-07
8.3933053e-06
5.5714771e-07
8.277221e-06
6.7883941e-07
8.1463532e-06
8.3266304e-07
7.9956182e-06
9.5977866e-07
7.7893449e-06
1.1692066e-06
7.5788831e-06
1.3539534e-06
7.310166e-06
1.5745071e-06
7.0071177e-06
1.8189251e-06
6.7083815e-06
2.0016264e-06
6.3385403e-06
2.2520083e-06
5.9716597e-06
2.4260504e-06
5.5705289e-06
2.5660448e-06
5.0909005e-06