/*--------------------------------*- C++ -*----------------------------------*\
| =========                 |                                                 |
| \\      /  F ield         | OpenFOAM: The Open Source CFD Toolbox           |
|  \\    /   O peration     | Version:  2106                                  |
|   \\  /    A nd           | Website:  www.openfoam.com                      |
|    \\/     M anipulation  |                                                 |
\*---------------------------------------------------------------------------*/
FoamFile
{
    version     2.0;
    format      ascii;
    arch        "LSB;label=32;scalar=64";
    class       volVectorField;
    location    "0.225";
    object      U_0;
}
// * * * * * * * * * * * * * * * * * * * * * * * * * * * * * * * * * * * * * //

dimensions      [0 1 -1 0 0 0 0];

internalField   nonuniform List<vector> 
32768
(
(-0.00047220866 -0.00019539227 0)
(0.0015683404 -0.0010865077 0)
(0.0052727502 -0.0015378542 0)
(0.0096674193 -0.0018291908 0)
(0.014442638 -0.0019497847 0)
(0.019385847 -0.0020033722 0)
(0.024389267 -0.0020253186 0)
(0.029414858 -0.0020298481 0)
(0.034454886 -0.0020553675 0)
(0.039496003 -0.0021030864 0)
(0.044524934 -0.0021564274 0)
(0.049533405 -0.0022058459 0)
(0.054524285 -0.0022537572 0)
(0.059484292 -0.0022891691 0)
(0.064432344 -0.0023305775 0)
(0.069338017 -0.0023549691 0)
(0.074243489 -0.0023817687 0)
(0.079112827 -0.002417835 0)
(0.08397037 -0.0023972304 0)
(0.088819636 -0.0024813282 0)
(0.093660902 -0.0024065675 0)
(0.098466427 -0.002510598 0)
(0.1032777 -0.0024659074 0)
(0.10814633 -0.0024678345 0)
(0.11288329 -0.0025581395 0)
(0.11771128 -0.0024700004 0)
(0.12261594 -0.002533698 0)
(0.12732818 -0.0025892181 0)
(0.13211934 -0.0025026156 0)
(0.13708671 -0.00256644 0)
(0.14189484 -0.0026303451 0)
(0.14661863 -0.0025571634 0)
(0.15151733 -0.0025669533 0)
(0.15648055 -0.0026695462 0)
(0.16133221 -0.0026198829 0)
(0.16610227 -0.0026019598 0)
(0.17094877 -0.0026463585 0)
(0.1759505 -0.0026619231 0)
(0.18091988 -0.0026669932 0)
(0.18570559 -0.0026674533 0)
(0.19046527 -0.0026391906 0)
(0.19540941 -0.0026507976 0)
(0.20043798 -0.0027136603 0)
(0.20531773 -0.0026999774 0)
(0.21007838 -0.0026297226 0)
(0.2148904 -0.0026373647 0)
(0.2197399 -0.002707165 0)
(0.22461206 -0.0026532912 0)
(0.22950867 -0.0026483853 0)
(0.23433536 -0.0026940945 0)
(0.23906819 -0.0026112868 0)
(0.24367896 -0.0025889538 0)
(0.24835451 -0.0026257588 0)
(0.25325075 -0.00264282 0)
(0.25806649 -0.0026355339 0)
(0.26266621 -0.0025740623 0)
(0.26723403 -0.0025428605 0)
(0.27178298 -0.0025595161 0)
(0.27627543 -0.0025450828 0)
(0.28084923 -0.0025245653 0)
(0.28555081 -0.0025651965 0)
(0.2901817 -0.0025539092 0)
(0.29457404 -0.0024479645 0)
(0.29880037 -0.0024209413 0)
(0.30312624 -0.0024618959 0)
(0.30763596 -0.0024715244 0)
(0.31206083 -0.0024592767 0)
(0.31629458 -0.0024072571 0)
(0.3205727 -0.0023838938 0)
(0.32498022 -0.0024213665 0)
(0.32930073 -0.002388448 0)
(0.33336069 -0.0023108661 0)
(0.33729566 -0.0023023326 0)
(0.34140519 -0.0023421456 0)
(0.3457213 -0.0023720044 0)
(0.3499691 -0.0023439548 0)
(0.35403529 -0.0022718267 0)
(0.35804276 -0.0022725421 0)
(0.36204638 -0.0022828804 0)
(0.36603689 -0.0022203454 0)
(0.36997119 -0.0022324858 0)
(0.37384242 -0.0022812988 0)
(0.37778839 -0.00222572 0)
(0.38183031 -0.0022052037 0)
(0.38581986 -0.0022720467 0)
(0.38973604 -0.0022301041 0)
(0.39361687 -0.0021323418 0)
(0.39739651 -0.0021690535 0)
(0.40112276 -0.002211916 0)
(0.40497941 -0.0021537664 0)
(0.4089371 -0.002159283 0)
(0.41276974 -0.0022124441 0)
(0.41642956 -0.0021626937 0)
(0.42006983 -0.0020806155 0)
(0.42384189 -0.0021258363 0)
(0.42773825 -0.002224877 0)
(0.43163104 -0.0021586804 0)
(0.43539507 -0.002056168 0)
(0.43896213 -0.0020930567 0)
(0.44249329 -0.0021137202 0)
(0.44618284 -0.0020781845 0)
(0.44994577 -0.0021167961 0)
(0.45362872 -0.0021426094 0)
(0.45724512 -0.0020772221 0)
(0.46081532 -0.0020468978 0)
(0.4643352 -0.0020669885 0)
(0.46793138 -0.0020807271 0)
(0.47168849 -0.0020988918 0)
(0.4754761 -0.0020715248 0)
(0.47911985 -0.0020314445 0)
(0.48256795 -0.0020380401 0)
(0.48592525 -0.0020056855 0)
(0.48933422 -0.0019803687 0)
(0.49280962 -0.0020661758 0)
(0.4963564 -0.0020916548 0)
(0.49999615 -0.0019926493 0)
(0.50359514 -0.0019801776 0)
(0.50702713 -0.0020354514 0)
(0.51041033 -0.0019632503 0)
(0.51385266 -0.0018983312 0)
(0.51728303 -0.001971084 0)
(0.52070703 -0.002014026 0)
(0.52420676 -0.0019406251 0)
(0.52769226 -0.0019260772 0)
(0.53100761 -0.0019502275 0)
(0.53423283 -0.0019160629 0)
(0.53750764 -0.0019084854 0)
(0.54082868 -0.0019343915 0)
(0.54418307 -0.0019196863 0)
(0.54756244 -0.0019024308 0)
(0.55089932 -0.0019098199 0)
(0.55416037 -0.0018740458 0)
(0.55738238 -0.0018240219 0)
(0.56061667 -0.001857123 0)
(0.56389591 -0.0019049886 0)
(0.56723888 -0.0018356195 0)
(0.57059968 -0.0017970642 0)
(0.57382386 -0.0018166259 0)
(0.57688072 -0.0018124215 0)
(0.57990828 -0.0017489116 0)
(0.5829594 -0.0017588039 0)
(0.58601046 -0.0018071941 0)
(0.5891215 -0.0018196005 0)
(0.59234086 -0.0017787451 0)
(0.59557229 -0.0017758393 0)
(0.59873941 -0.0017859829 0)
(0.6018729 -0.0017418588 0)
(0.60495168 -0.0016983163 0)
(0.60791 -0.0017095327 0)
(0.61080171 -0.001702329 0)
(0.61377385 -0.0016826262 0)
(0.61686257 -0.0017122313 0)
(0.62001035 -0.0017052728 0)
(0.62316344 -0.0016632268 0)
(0.62619994 -0.0016410792 0)
(0.62909662 -0.0016235004 0)
(0.63193007 -0.0016322723 0)
(0.63471642 -0.0016420705 0)
(0.63753619 -0.0016444316 0)
(0.64047836 -0.0016949911 0)
(0.64351887 -0.0017256766 0)
(0.64660585 -0.0017041119 0)
(0.64967022 -0.0016518023 0)
(0.65263573 -0.0016350895 0)
(0.65546052 -0.0016388329 0)
(0.65817042 -0.0016088772 0)
(0.66088067 -0.0015621622 0)
(0.663703 -0.0015920816 0)
(0.66666297 -0.0016440472 0)
(0.66971249 -0.0015972224 0)
(0.67275932 -0.0015564753 0)
(0.67573765 -0.0015602015 0)
(0.6786234 -0.0015460968 0)
(0.68139768 -0.0015160413 0)
(0.68409263 -0.0015216863 0)
(0.68674907 -0.0015467245 0)
(0.68941243 -0.0015444817 0)
(0.69215573 -0.0015395864 0)
(0.69495958 -0.0015464095 0)
(0.6977399 -0.0015284159 0)
(0.70048163 -0.0015073181 0)
(0.70321239 -0.0014889526 0)
(0.70595571 -0.0014678423 0)
(0.70872502 -0.0014792048 0)
(0.71150294 -0.0014922115 0)
(0.71425626 -0.001455313 0)
(0.71699371 -0.0014455341 0)
(0.71974437 -0.0014500144 0)
(0.72247857 -0.0014419044 0)
(0.72513944 -0.0014696849 0)
(0.72774575 -0.0014987608 0)
(0.73034991 -0.0014641763 0)
(0.73296083 -0.001434299 0)
(0.73554978 -0.0014366672 0)
(0.73810718 -0.0014100167 0)
(0.740671 -0.001369261 0)
(0.74329698 -0.001378587 0)
(0.74600216 -0.001350006 0)
(0.74874897 -0.0012773646 0)
(0.75146377 -0.0012599314 0)
(0.75405273 -0.0012812503 0)
(0.75646949 -0.0012646193 0)
(0.75874307 -0.0012394799 0)
(0.76097582 -0.0012051862 0)
(0.76330762 -0.0011912264 0)
(0.76581024 -0.0011819703 0)
(0.76842797 -0.0011059339 0)
(0.77092538 -0.00088387802 0)
(0.77321265 -0.00077798804 0)
(0.77529873 -0.00065158507 0)
(0.7772599 -0.00077879675 0)
(0.7789955 -0.00075206054 0)
(0.78063357 -0.0008917821 0)
(0.78204158 -0.00092390964 0)
(0.78330674 -0.00076737638 0)
(0.78461453 -0.00081484424 0)
(0.78580535 -0.00033188584 0)
(0.78715188 -0.00032107609 0)
(0.78827006 0.00014299778 0)
(0.78907675 0.00033198897 0)
(0.78929696 0.00086092309 0)
(0.7889847 0.0011166599 0)
(0.78823306 0.0013991301 0)
(0.78696998 0.0016778803 0)
(0.78507717 0.0020340745 0)
(0.78241456 0.0025237907 0)
(0.77864557 0.003115276 0)
(0.77358133 0.0039269575 0)
(0.7671485 0.004942316 0)
(0.7589465 0.006164212 0)
(0.74891762 0.0077128638 0)
(0.73641131 0.0094444161 0)
(0.72081732 0.011537685 0)
(0.70214243 0.013791841 0)
(0.6792602 0.016432695 0)
(0.65169183 0.019296555 0)
(0.61894985 0.022571257 0)
(0.58014196 0.026022317 0)
(0.53440723 0.029908852 0)
(0.48148827 0.034351295 0)
(0.42019695 0.039033386 0)
(0.35015802 0.043851451 0)
(0.27174359 0.048824278 0)
(0.1850508 0.05189655 0)
(0.091889616 0.048464318 0)
(0.004849656 0.032261039 0)
(-0.061839351 0.012449404 0)
(-0.11693629 -0.0027939575 0)
(-0.14828585 0.0057493278 0)
(-0.18085538 0.041788085 0)
(-0.23988542 0.051336884 0)
(-0.29668372 0.039414645 0)
(-0.3371846 0.021046806 0)
(-0.31545744 -0.036918252 0)
(-0.21139588 -0.063321887 0)
(-0.11571237 -0.11518553 0)
(-0.00059004403 -0.00085726772 0)
(0.001774726 -0.0046704829 0)
(0.0064569502 -0.0064654602 0)
(0.011541984 -0.0073561867 0)
(0.017144671 -0.0077506301 0)
(0.022854767 -0.0079219852 0)
(0.028628963 -0.0079900134 0)
(0.034422719 -0.008006519 0)
(0.04020502 -0.0079876232 0)
(0.045938917 -0.0079291129 0)
(0.051633148 -0.007851469 0)
(0.057277443 -0.0077634994 0)
(0.062915595 -0.0076812796 0)
(0.068458622 -0.0075985985 0)
(0.074095686 -0.007520976 0)
(0.079481525 -0.0074988882 0)
(0.085208421 -0.0072988315 0)
(0.090389424 -0.0075900871 0)
(0.096230663 -0.0068978048 0)
(0.10125922 -0.0078229358 0)
(0.10714927 -0.0066937595 0)
(0.11216038 -0.0074992077 0)
(0.11780856 -0.0073316226 0)
(0.12339747 -0.0066870639 0)
(0.128273 -0.00756748 0)
(0.13419775 -0.0071436971 0)
(0.13964295 -0.0068520897 0)
(0.14453411 -0.0072910737 0)
(0.15030693 -0.0072623511 0)
(0.15605157 -0.0070370989 0)
(0.16102676 -0.0070462995 0)
(0.16639945 -0.0072219237 0)
(0.17218315 -0.0071731501 0)
(0.17770157 -0.007299248 0)
(0.18303185 -0.0069236225 0)
(0.18825628 -0.0071193054 0)
(0.19384448 -0.0073314117 0)
(0.19969975 -0.0072856052 0)
(0.20516342 -0.007020912 0)
(0.21023743 -0.0070485708 0)
(0.21562859 -0.0071504409 0)
(0.2215261 -0.0072845714 0)
(0.22720986 -0.0072333268 0)
(0.23241613 -0.0070109164 0)
(0.23770073 -0.0070498055 0)
(0.24333077 -0.0068996163 0)
(0.24867375 -0.007261904 0)
(0.25431643 -0.0070995678 0)
(0.2598619 -0.0069869332 0)
(0.26523382 -0.0071283948 0)
(0.27057566 -0.0065964088 0)
(0.27546758 -0.0067848036 0)
(0.28106937 -0.0071208436 0)
(0.28698186 -0.0069750112 0)
(0.2921176 -0.0068438543 0)
(0.29721071 -0.0066942032 0)
(0.30255213 -0.0065688265 0)
(0.30764415 -0.0065199318 0)
(0.3126394 -0.00664035 0)
(0.31810229 -0.0067564154 0)
(0.3237158 -0.006783114 0)
(0.3289065 -0.0065623514 0)
(0.33364161 -0.0061307642 0)
(0.33830719 -0.0062205174 0)
(0.34359751 -0.0065163244 0)
(0.34909828 -0.0063643214 0)
(0.35388936 -0.0062405791 0)
(0.3585578 -0.0062405982 0)
(0.36375995 -0.006313245 0)
(0.3691196 -0.0063390159 0)
(0.37398204 -0.0060147423 0)
(0.37831085 -0.0056891325 0)
(0.38278142 -0.0058426303 0)
(0.38794103 -0.0061692575 0)
(0.39322845 -0.0061476136 0)
(0.39794527 -0.0060097173 0)
(0.40256354 -0.0058407494 0)
(0.40729011 -0.0057960611 0)
(0.41195656 -0.0058275678 0)
(0.41669984 -0.0056170053 0)
(0.42121105 -0.0055625219 0)
(0.42560558 -0.005768413 0)
(0.43044736 -0.0057343617 0)
(0.43531825 -0.0056797429 0)
(0.43988845 -0.0058193761 0)
(0.44447596 -0.0056854169 0)
(0.44907025 -0.0053539154 0)
(0.45332391 -0.0053747821 0)
(0.45763828 -0.005640919 0)
(0.46250919 -0.0055706811 0)
(0.46732032 -0.0054997959 0)
(0.47162238 -0.0054391565 0)
(0.47568794 -0.0052561817 0)
(0.47998911 -0.0052509619 0)
(0.48470811 -0.0054876395 0)
(0.48943532 -0.0057671405 0)
(0.4940543 -0.0055320205 0)
(0.49838378 -0.0050774217 0)
(0.50231987 -0.0051502855 0)
(0.50654521 -0.0052997543 0)
(0.51123203 -0.0052351896 0)
(0.51575575 -0.0052789188 0)
(0.52002348 -0.0053543664 0)
(0.52431503 -0.0051034615 0)
(0.52843621 -0.0049916022 0)
(0.53246221 -0.0051604936 0)
(0.53689558 -0.0053424379 0)
(0.54162749 -0.005446719 0)
(0.54620397 -0.0053724828 0)
(0.55043864 -0.0050531462 0)
(0.5543365 -0.004872941 0)
(0.55829298 -0.0048343338 0)
(0.56248402 -0.0048096484 0)
(0.56662188 -0.0050504085 0)
(0.57095313 -0.0052921624 0)
(0.57552819 -0.0051262683 0)
(0.57974305 -0.0049838758 0)
(0.5836134 -0.0050275427 0)
(0.58770524 -0.0049548474 0)
(0.59193376 -0.0047916353 0)
(0.5959708 -0.0049510997 0)
(0.6001248 -0.0051658647 0)
(0.60457724 -0.0049794702 0)
(0.60876236 -0.0047685338 0)
(0.61253495 -0.0047358395 0)
(0.61644472 -0.0046655825 0)
(0.62048514 -0.0046525347 0)
(0.62449192 -0.0048183311 0)
(0.62863846 -0.0048474087 0)
(0.63279308 -0.0048263245 0)
(0.63675263 -0.0047851635 0)
(0.64057889 -0.0046774811 0)
(0.64446617 -0.0045512796 0)
(0.64845181 -0.0046871203 0)
(0.65249094 -0.0049249044 0)
(0.65674448 -0.0048657722 0)
(0.6610213 -0.0046327166 0)
(0.66482629 -0.0045886908 0)
(0.66842534 -0.00447162 0)
(0.67218054 -0.0042702992 0)
(0.67591568 -0.0042608803 0)
(0.67955739 -0.0045042422 0)
(0.68340489 -0.0046612473 0)
(0.68750805 -0.0045582216 0)
(0.69147817 -0.0046084061 0)
(0.69539464 -0.0047100197 0)
(0.69932475 -0.0045420909 0)
(0.70309367 -0.0042710366 0)
(0.70660136 -0.0041633475 0)
(0.71010083 -0.0043312314 0)
(0.71391119 -0.0043951559 0)
(0.71780307 -0.0045447416 0)
(0.72186081 -0.004645998 0)
(0.72591565 -0.0045281396 0)
(0.72952773 -0.0043829355 0)
(0.73309543 -0.0041401409 0)
(0.7365688 -0.0039885225 0)
(0.73984757 -0.0040453234 0)
(0.74334977 -0.0041458387 0)
(0.74707765 -0.0043234171 0)
(0.75096348 -0.0044488284 0)
(0.75493844 -0.004537827 0)
(0.75878334 -0.0044444643 0)
(0.76245889 -0.0041330258 0)
(0.76589962 -0.0039001085 0)
(0.76909913 -0.0039716654 0)
(0.77237473 -0.0040228428 0)
(0.77590047 -0.0041398053 0)
(0.77971924 -0.0044176285 0)
(0.78363857 -0.004596372 0)
(0.78743703 -0.0045181337 0)
(0.79124917 -0.0042844924 0)
(0.79495576 -0.0041457443 0)
(0.79844745 -0.0040634872 0)
(0.80185935 -0.0038655666 0)
(0.80517201 -0.0038136919 0)
(0.80855788 -0.0039346255 0)
(0.81215728 -0.0040458867 0)
(0.81570212 -0.0040801246 0)
(0.81914207 -0.0040358252 0)
(0.82256775 -0.0039898089 0)
(0.82596883 -0.0040557514 0)
(0.82943013 -0.0040542121 0)
(0.83298998 -0.0040727407 0)
(0.83654115 -0.0041253737 0)
(0.84000162 -0.0040909811 0)
(0.84353874 -0.0040304173 0)
(0.84719367 -0.0040466352 0)
(0.85076169 -0.0039861963 0)
(0.85416961 -0.0038257969 0)
(0.85759591 -0.003783805 0)
(0.86104325 -0.0038218189 0)
(0.86443985 -0.0038242021 0)
(0.86772378 -0.0037519066 0)
(0.87095465 -0.0037644419 0)
(0.87424849 -0.0038601505 0)
(0.87772392 -0.0039910789 0)
(0.8813896 -0.0041392455 0)
(0.88514156 -0.0042206835 0)
(0.8888159 -0.0040796281 0)
(0.89222588 -0.0037525829 0)
(0.89533947 -0.0034584386 0)
(0.89817834 -0.0033353689 0)
(0.90097183 -0.0034367738 0)
(0.90403718 -0.003662254 0)
(0.90744883 -0.0039436908 0)
(0.91107491 -0.0040315329 0)
(0.9148657 -0.003955631 0)
(0.91874058 -0.0037190963 0)
(0.92260075 -0.0034127115 0)
(0.92633626 -0.0030696402 0)
(0.92974628 -0.0026568231 0)
(0.93267927 -0.0022858866 0)
(0.9350673 -0.0017679257 0)
(0.93688963 -0.0017378087 0)
(0.93874946 -0.0019156363 0)
(0.94079154 -0.0021592107 0)
(0.94325924 -0.0021762652 0)
(0.9461146 -0.0020870007 0)
(0.94880575 -0.0013786887 0)
(0.95169463 -0.0008130423 0)
(0.95385449 3.057578e-05 0)
(0.9557812 0.00042912571 0)
(0.956963 0.0015039377 0)
(0.95789507 0.0024486363 0)
(0.95760466 0.0036507216 0)
(0.95733247 0.0057927485 0)
(0.95519073 0.0073797877 0)
(0.95346108 0.0093559605 0)
(0.9476766 0.012422065 0)
(0.94394768 0.014031314 0)
(0.93460472 0.019153418 0)
(0.9260617 0.021996116 0)
(0.91416321 0.027839536 0)
(0.89912077 0.033518987 0)
(0.88183872 0.040978068 0)
(0.86067405 0.04837553 0)
(0.8350408 0.058363911 0)
(0.80359986 0.068729232 0)
(0.76875151 0.079670606 0)
(0.72257179 0.09261969 0)
(0.67380061 0.10534877 0)
(0.61357823 0.11687706 0)
(0.54610679 0.12918545 0)
(0.47059014 0.13452665 0)
(0.38041036 0.13417399 0)
(0.26692662 0.11978644 0)
(0.14723864 0.094816179 0)
(0.020132075 0.062257466 0)
(-0.080696093 0.0495364 0)
(-0.14878455 0.059347932 0)
(-0.20582176 0.054941661 0)
(-0.22274113 0.0077601635 0)
(-0.21064375 -0.08275071 0)
(-0.1226357 -0.17323125 0)
(-0.063415382 -0.22396642 0)
(-0.00059518261 -0.0013770476 0)
(0.0017735495 -0.0081617766 0)
(0.0063712512 -0.011254016 0)
(0.011404627 -0.012650811 0)
(0.016957146 -0.013286343 0)
(0.022617405 -0.013561095 0)
(0.028333113 -0.013659426 0)
(0.034068787 -0.013670758 0)
(0.039797456 -0.013639131 0)
(0.045507011 -0.013590481 0)
(0.051202002 -0.013535262 0)
(0.056851467 -0.013483715 0)
(0.06253071 -0.013427693 0)
(0.068057606 -0.013401998 0)
(0.073836462 -0.013314723 0)
(0.079068135 -0.013389346 0)
(0.085177443 -0.013121731 0)
(0.089916699 -0.013548639 0)
(0.096398201 -0.012752656 0)
(0.10093213 -0.013863771 0)
(0.10716159 -0.012531575 0)
(0.1122844 -0.013605507 0)
(0.11772907 -0.013299686 0)
(0.12345247 -0.012649821 0)
(0.12860529 -0.013710918 0)
(0.13430117 -0.013203727 0)
(0.13968561 -0.012943953 0)
(0.14505782 -0.013253213 0)
(0.15066966 -0.013598988 0)
(0.15614288 -0.013310897 0)
(0.16149809 -0.012860768 0)
(0.16703202 -0.013497065 0)
(0.17261614 -0.013687829 0)
(0.17806296 -0.013594474 0)
(0.18367235 -0.012712957 0)
(0.18886348 -0.01351991 0)
(0.19465174 -0.013870683 0)
(0.20032936 -0.013788344 0)
(0.20570766 -0.01305102 0)
(0.21105057 -0.013107494 0)
(0.21651563 -0.013643719 0)
(0.22257953 -0.014077179 0)
(0.22793849 -0.013565509 0)
(0.23324272 -0.012966655 0)
(0.2386059 -0.013371261 0)
(0.24433279 -0.013415694 0)
(0.25003184 -0.013773917 0)
(0.25553503 -0.013347788 0)
(0.26057493 -0.013578715 0)
(0.2662407 -0.013412943 0)
(0.27193137 -0.01234885 0)
(0.27676799 -0.013150432 0)
(0.28252252 -0.013981464 0)
(0.28838451 -0.013445094 0)
(0.29325451 -0.012795431 0)
(0.29831035 -0.012818208 0)
(0.30393515 -0.01280977 0)
(0.3093409 -0.012528383 0)
(0.31434599 -0.012809951 0)
(0.31960962 -0.013399462 0)
(0.32514858 -0.013338792 0)
(0.33056265 -0.012321815 0)
(0.33515751 -0.011556702 0)
(0.33964432 -0.012357797 0)
(0.34538602 -0.013105722 0)
(0.35126034 -0.012523643 0)
(0.35588006 -0.011878806 0)
(0.36025397 -0.01208153 0)
(0.3653292 -0.012798397 0)
(0.3709291 -0.012588697 0)
(0.37602592 -0.011361391 0)
(0.38018563 -0.010968983 0)
(0.38457833 -0.011858704 0)
(0.39011552 -0.012621717 0)
(0.39570738 -0.012227541 0)
(0.40026166 -0.011614485 0)
(0.40448974 -0.011415778 0)
(0.40909096 -0.011619115 0)
(0.41406636 -0.01155336 0)
(0.41899849 -0.011179584 0)
(0.42345968 -0.011143585 0)
(0.42802503 -0.011519099 0)
(0.43304024 -0.011558027 0)
(0.43775371 -0.011560577 0)
(0.4423173 -0.011563398 0)
(0.44708481 -0.011158183 0)
(0.45150897 -0.010694873 0)
(0.45554918 -0.010839105 0)
(0.46009921 -0.011312706 0)
(0.46516302 -0.011477671 0)
(0.46994149 -0.011277199 0)
(0.47440501 -0.010636085 0)
(0.47862028 -0.010293177 0)
(0.48285126 -0.010840281 0)
(0.48748335 -0.011569875 0)
(0.49241229 -0.011673413 0)
(0.49717721 -0.010777603 0)
(0.50108709 -0.0101013 0)
(0.50481423 -0.010415666 0)
(0.50940555 -0.01086999 0)
(0.51425602 -0.010942638 0)
(0.51878459 -0.010937053 0)
(0.52336584 -0.010711149 0)
(0.52781267 -0.010196182 0)
(0.53172374 -0.010070932 0)
(0.53565713 -0.010484394 0)
(0.54010561 -0.011084694 0)
(0.544912 -0.011285787 0)
(0.54958499 -0.010763417 0)
(0.55367925 -0.01007773 0)
(0.55745022 -0.0098116434 0)
(0.56156064 -0.0098877736 0)
(0.56583544 -0.010144138 0)
(0.5700514 -0.010608715 0)
(0.57473263 -0.010781271 0)
(0.57947587 -0.010477931 0)
(0.58352038 -0.010160992 0)
(0.58736446 -0.010033299 0)
(0.5915649 -0.0099543953 0)
(0.59562221 -0.0099844336 0)
(0.59939965 -0.010326949 0)
(0.60369264 -0.010536358 0)
(0.608327 -0.010297306 0)
(0.61250468 -0.009876371 0)
(0.61638254 -0.0096343778 0)
(0.62045539 -0.0096614502 0)
(0.62454129 -0.009829482 0)
(0.62859498 -0.0099929758 0)
(0.63278286 -0.010037863 0)
(0.63695405 -0.0099247965 0)
(0.64097982 -0.0096614285 0)
(0.64488645 -0.009418614 0)
(0.64864041 -0.0094718745 0)
(0.6524523 -0.0098650768 0)
(0.6566925 -0.010157532 0)
(0.66115199 -0.010067947 0)
(0.66529052 -0.0096993424 0)
(0.66906826 -0.0092733758 0)
(0.67286653 -0.0090503427 0)
(0.67670966 -0.0089174441 0)
(0.68028119 -0.0090113833 0)
(0.68396594 -0.0093811598 0)
(0.68812861 -0.0096976067 0)
(0.692203 -0.0095525326 0)
(0.6958916 -0.0095995785 0)
(0.69992622 -0.0096720833 0)
(0.70414219 -0.0093359654 0)
(0.7078896 -0.0087835397 0)
(0.71130063 -0.0086124394 0)
(0.71489675 -0.0089591141 0)
(0.71883992 -0.0093290716 0)
(0.72279084 -0.0096034102 0)
(0.72685257 -0.0096116593 0)
(0.73099116 -0.0092606999 0)
(0.73474382 -0.0088695969 0)
(0.73823965 -0.0084929372 0)
(0.74150926 -0.008232597 0)
(0.74468571 -0.0083530864 0)
(0.74821075 -0.0087951207 0)
(0.75195972 -0.0091838394 0)
(0.75578562 -0.009381592 0)
(0.75992289 -0.0094240145 0)
(0.76423282 -0.0091754415 0)
(0.76811101 -0.0086187916 0)
(0.77146126 -0.0080763362 0)
(0.77473588 -0.0080118949 0)
(0.77821118 -0.0083836816 0)
(0.78166154 -0.0088572652 0)
(0.78519745 -0.0091696166 0)
(0.78909636 -0.0092620842 0)
(0.79310095 -0.0092536705 0)
(0.79684838 -0.0089145323 0)
(0.80034005 -0.0085133886 0)
(0.80389586 -0.0083442017 0)
(0.80740137 -0.0081460272 0)
(0.81064623 -0.008051671 0)
(0.8140923 -0.0083565218 0)
(0.81798947 -0.0085974589 0)
(0.82181192 -0.0084807603 0)
(0.82539231 -0.0082680191 0)
(0.82890011 -0.0082489515 0)
(0.83239337 -0.0083582454 0)
(0.83584073 -0.0084288175 0)
(0.83922764 -0.0084417625 0)
(0.84263475 -0.0083874511 0)
(0.84604553 -0.0084101386 0)
(0.84947637 -0.0085806467 0)
(0.85303923 -0.0085498939 0)
(0.856761 -0.0082975271 0)
(0.8603306 -0.0081720902 0)
(0.86389423 -0.0081440161 0)
(0.86757236 -0.0081033659 0)
(0.87115202 -0.0080188162 0)
(0.87448184 -0.0078490591 0)
(0.87771712 -0.0078033243 0)
(0.88104456 -0.0081083718 0)
(0.88449522 -0.0084854917 0)
(0.88802635 -0.008632848 0)
(0.89170722 -0.0086394954 0)
(0.89565689 -0.0083970772 0)
(0.89943838 -0.0077115363 0)
(0.90276439 -0.0069888658 0)
(0.90570636 -0.0067916929 0)
(0.90861006 -0.0071006808 0)
(0.91153978 -0.0076533416 0)
(0.91476967 -0.0081554494 0)
(0.91794965 -0.0084990733 0)
(0.92161336 -0.0084589193 0)
(0.92508722 -0.0084687628 0)
(0.92912125 -0.0079610248 0)
(0.93259293 -0.0078426909 0)
(0.93660823 -0.0068524753 0)
(0.93977962 -0.0062078075 0)
(0.94311338 -0.0050635036 0)
(0.94545742 -0.0046672488 0)
(0.94817522 -0.0047055049 0)
(0.95036387 -0.0049885847 0)
(0.95316826 -0.0056635697 0)
(0.9561576 -0.0053213172 0)
(0.95823855 -0.0053510535 0)
(0.96139269 -0.0042183954 0)
(0.96320271 -0.0028768275 0)
(0.96557654 -0.0016342047 0)
(0.96664216 -0.00027438416 0)
(0.96749488 0.0010751466 0)
(0.96849416 0.0031070616 0)
(0.9678409 0.0050720387 0)
(0.96881198 0.0076362058 0)
(0.96694552 0.011193904 0)
(0.96564561 0.015490796 0)
(0.9610473 0.019448534 0)
(0.95668812 0.026431987 0)
(0.94897355 0.03098636 0)
(0.94185815 0.039235676 0)
(0.92867317 0.048367376 0)
(0.91809679 0.055836759 0)
(0.90128709 0.068369856 0)
(0.88150878 0.081862514 0)
(0.86312318 0.094227101 0)
(0.83403711 0.11375657 0)
(0.80629999 0.13067584 0)
(0.77093064 0.14760854 0)
(0.72758308 0.16957842 0)
(0.68302729 0.18442353 0)
(0.6282828 0.19938522 0)
(0.56604424 0.21367434 0)
(0.50053805 0.21982179 0)
(0.41979112 0.22632857 0)
(0.33345477 0.21864953 0)
(0.21395541 0.19669328 0)
(0.1090291 0.16204698 0)
(0.031265061 0.11008421 0)
(-0.0031217077 0.02201033 0)
(-0.029698889 -0.10812043 0)
(-0.031699536 -0.2214329 0)
(-0.030148967 -0.29445167 0)
(-0.00057440415 -0.0019831415 0)
(0.0018182014 -0.011654596 0)
(0.006427657 -0.01603975 0)
(0.01148686 -0.018015311 0)
(0.017067673 -0.018909645 0)
(0.022749858 -0.019292002 0)
(0.028485955 -0.019427835 0)
(0.034236409 -0.019440675 0)
(0.039979212 -0.019392072 0)
(0.045700137 -0.019314248 0)
(0.051400476 -0.019219413 0)
(0.057059559 -0.019124136 0)
(0.062725575 -0.019007793 0)
(0.068284682 -0.018939327 0)
(0.073986545 -0.018762324 0)
(0.07934078 -0.018826783 0)
(0.08522626 -0.018451481 0)
(0.090243562 -0.018852306 0)
(0.096375319 -0.018070453 0)
(0.10119659 -0.018957109 0)
(0.10722357 -0.017850644 0)
(0.11235236 -0.018684104 0)
(0.1179129 -0.018354105 0)
(0.12336854 -0.017869891 0)
(0.12877721 -0.018754309 0)
(0.13436286 -0.018123197 0)
(0.13949789 -0.018122007 0)
(0.14522673 -0.018285748 0)
(0.15079089 -0.018570363 0)
(0.15582039 -0.018263578 0)
(0.16152992 -0.017873197 0)
(0.16714499 -0.018710593 0)
(0.17267114 -0.018491433 0)
(0.17763745 -0.018484455 0)
(0.18367941 -0.017743013 0)
(0.18894213 -0.01880547 0)
(0.19478902 -0.018591159 0)
(0.19993829 -0.018722366 0)
(0.20543504 -0.017994253 0)
(0.21115856 -0.018078388 0)
(0.21660664 -0.018780566 0)
(0.2225914 -0.019117915 0)
(0.22746972 -0.018122816 0)
(0.23305041 -0.017692899 0)
(0.23872778 -0.018512686 0)
(0.24422009 -0.018692524 0)
(0.25009212 -0.018568813 0)
(0.25552938 -0.017631397 0)
(0.26006823 -0.018443844 0)
(0.26590572 -0.018375787 0)
(0.27207591 -0.017226413 0)
(0.27697144 -0.017973614 0)
(0.28243849 -0.018783289 0)
(0.28809567 -0.017892167 0)
(0.29296694 -0.017055207 0)
(0.29801066 -0.017580747 0)
(0.30372783 -0.017866683 0)
(0.30951288 -0.017158526 0)
(0.31456199 -0.017025807 0)
(0.31944438 -0.017924868 0)
(0.32467288 -0.018043941 0)
(0.33019132 -0.016481394 0)
(0.33481197 -0.015567121 0)
(0.33961141 -0.016901885 0)
(0.3455479 -0.018098073 0)
(0.35127051 -0.017136193 0)
(0.35581596 -0.015562937 0)
(0.35992086 -0.015717543 0)
(0.36466506 -0.017406351 0)
(0.3704653 -0.01724286 0)
(0.37598915 -0.015258548 0)
(0.38027687 -0.014616129 0)
(0.38458613 -0.016140667 0)
(0.38992433 -0.017381657 0)
(0.39536959 -0.016472138 0)
(0.39997739 -0.015057156 0)
(0.40411039 -0.014938928 0)
(0.40856159 -0.015595769 0)
(0.41368513 -0.015733512 0)
(0.41888608 -0.015342943 0)
(0.42345942 -0.014987477 0)
(0.42794145 -0.015311522 0)
(0.43276068 -0.015526791 0)
(0.43729977 -0.015540649 0)
(0.44190846 -0.015284514 0)
(0.44667273 -0.014672813 0)
(0.45100886 -0.014277893 0)
(0.4552513 -0.014480412 0)
(0.46000632 -0.015022067 0)
(0.46483148 -0.015543059 0)
(0.46946461 -0.015347911 0)
(0.47413812 -0.014206937 0)
(0.47841702 -0.013583227 0)
(0.48261934 -0.014448271 0)
(0.48713387 -0.015555262 0)
(0.49196337 -0.015460376 0)
(0.49664488 -0.014024928 0)
(0.50042972 -0.013275835 0)
(0.5043219 -0.013765519 0)
(0.50925556 -0.014555586 0)
(0.51414063 -0.014873131 0)
(0.51845802 -0.014895003 0)
(0.52300338 -0.014284064 0)
(0.52739483 -0.013564705 0)
(0.5312419 -0.013213962 0)
(0.53529113 -0.013638939 0)
(0.53975233 -0.014716056 0)
(0.54452159 -0.01512268 0)
(0.54916147 -0.014167523 0)
(0.55310748 -0.013198996 0)
(0.55686902 -0.012898267 0)
(0.56119632 -0.013188593 0)
(0.56551791 -0.013647644 0)
(0.56967995 -0.014344193 0)
(0.57442749 -0.014474814 0)
(0.57911637 -0.014034261 0)
(0.5830316 -0.013441524 0)
(0.5870425 -0.013121033 0)
(0.59139158 -0.012915471 -1.0597956e-34)
(0.59527511 -0.013100295 -5.4047712e-30)
(0.59883145 -0.013539817 0)
(0.60302799 -0.013892903 0)
(0.60755406 -0.013819692 0)
(0.61178994 -0.013379524 0)
(0.61601559 -0.012821441 0)
(0.62034698 -0.012831248 0)
(0.62447373 -0.013086849 0)
(0.62845427 -0.013230375 0)
(0.63237552 -0.013265359 -9.9729162e-35)
(0.63638568 -0.01329822 -5.5542625e-30)
(0.64051845 -0.012781898 -1.031452e-34)
(0.64448355 -0.012286349 -5.6746371e-30)
(0.64825908 -0.01245282 0)
(0.65213889 -0.013157429 0)
(0.65632536 -0.013460601 0)
(0.66068373 -0.013406186 0)
(0.66468675 -0.013030091 0)
(0.66841347 -0.012353175 0)
(0.67237776 -0.011854683 -1.0377308e-34)
(0.67637229 -0.011765612 -5.3438019e-30)
(0.67991697 -0.011966356 0)
(0.68372566 -0.012416424 0)
(0.68808423 -0.012725795 0)
(0.6920355 -0.012622618 0)
(0.69548961 -0.012773096 0)
(0.69930052 -0.012884894 0)
(0.70354987 -0.012440519 0)
(0.70746238 -0.011768933 0)
(0.71094473 -0.011437084 0)
(0.7146622 -0.011735246 0)
(0.71864105 -0.012331859 -9.4398507e-35)
(0.7224528 -0.012805883 -5.1594181e-30)
(0.72637074 -0.012938512 0)
(0.73043098 -0.012435232 0)
(0.73430669 -0.011715825 0)
(0.73789847 -0.011062552 0)
(0.74126343 -0.010630588 0)
(0.74454367 -0.01078816 0)
(0.74795042 -0.01156429 0)
(0.75146562 -0.012126962 0)
(0.75522684 -0.012527606 8.8242594e-35)
(0.75925597 -0.012939151 4.8467456e-30)
(0.76354714 -0.012585392 0)
(0.76770706 -0.011540356 0)
(0.7714052 -0.010837757 8.786793e-35)
(0.77486587 -0.010570587 4.7544037e-30)
(0.77826583 -0.010741108 0)
(0.781591 -0.011407233 0)
(0.78505922 -0.012065563 0)
(0.78862308 -0.012324294 0)
(0.79237661 -0.012254369 8.3582677e-35)
(0.79635099 -0.011787667 4.8157883e-30)
(0.80004999 -0.011363268 0)
(0.80337161 -0.01105576 0)
(0.80679204 -0.010670957 0)
(0.81019672 -0.01062027 0)
(0.81367211 -0.011293769 0)
(0.81748283 -0.011746817 0)
(0.82130261 -0.011480032 0)
(0.82511 -0.0111088 0)
(0.82887138 -0.011028448 0)
(0.83241148 -0.010934526 0)
(0.83583354 -0.010939352 0)
(0.83924274 -0.011089667 0)
(0.84246259 -0.010922132 0)
(0.84572752 -0.010841698 0)
(0.849121 -0.011197369 0)
(0.85249637 -0.011479862 0)
(0.85585407 -0.01133885 0)
(0.85958794 -0.011154641 0)
(0.86365257 -0.011181999 0)
(0.8674575 -0.011110889 0)
(0.87102596 -0.010689961 0)
(0.87455673 -0.010269556 0)
(0.8778615 -0.010260741 0)
(0.88109775 -0.010588028 0)
(0.88447138 -0.011030385 0)
(0.88773562 -0.011500804 0)
(0.89087785 -0.011802207 0)
(0.89444532 -0.011742629 0)
(0.89832389 -0.010993303 0)
(0.90215156 -0.0099098354 0)
(0.90556728 -0.0091073963 0)
(0.90893376 -0.009107613 0)
(0.91205676 -0.0097378434 0)
(0.91545452 -0.010445709 0)
(0.91840949 -0.010845695 0)
(0.92171857 -0.011072358 0)
(0.92473111 -0.011245182 0)
(0.92838783 -0.01110686 0)
(0.93167796 -0.010709805 0)
(0.9355341 -0.0099430183 0)
(0.93889404 -0.0089012648 -2.8767264e-35)
(0.94253471 -0.0074400006 -1.2378814e-30)
(0.94542333 -0.0068034971 0)
(0.94889166 -0.0067139951 0)
(0.95169677 -0.0071091641 0)
(0.95480115 -0.0079214811 0)
(0.95771869 -0.0071165021 0)
(0.96012551 -0.0068703335 0)
(0.96279983 -0.0055764052 0)
(0.96427648 -0.0046634754 0)
(0.9666267 -0.0030957893 0)
(0.96715151 -0.00093522625 0)
(0.96910392 0.00078728332 0)
(0.96926617 0.0031443027 0)
(0.9700582 0.0053921046 0)
(0.97130915 0.0089058501 0)
(0.96862682 0.012876399 0)
(0.96978855 0.018910166 0)
(0.96548805 0.023395251 7.2991133e-34)
(0.96318191 0.032765864 5.0124429e-29)
(0.95839135 0.0377887 0)
(0.95203178 0.050006504 0)
(0.94365995 0.059564851 0)
(0.93416758 0.070596644 0)
(0.91828793 0.089562891 0)
(0.90478239 0.099840547 0)
(0.88509829 0.12273378 0)
(0.8594656 0.14424855 0)
(0.83914661 0.16393567 0)
(0.80072505 0.1945837 0)
(0.77346206 0.2131952 0)
(0.73356625 0.23548587 0)
(0.69111754 0.25732035 2.5443368e-33)
(0.65160209 0.26675176 1.2693244e-28)
(0.60004131 0.28005249 -1.9438843e-33)