/*--------------------------------*- C++ -*----------------------------------*\
| =========                 |                                                 |
| \\      /  F ield         | OpenFOAM: The Open Source CFD Toolbox           |
|  \\    /   O peration     | Version:  2106                                  |
|   \\  /    A nd           | Website:  www.openfoam.com                      |
|    \\/     M anipulation  |                                                 |
\*---------------------------------------------------------------------------*/
FoamFile
{
    version     2.0;
    format      ascii;
    arch        "LSB;label=32;scalar=64";
    class       surfaceScalarField;
    location    "0.041";
    object      phi;
}
// * * * * * * * * * * * * * * * * * * * * * * * * * * * * * * * * * * * * * //

dimensions      [0 3 -1 0 0 0 0];

oriented        oriented;

internalField   nonuniform List<scalar> 
1984
(
4.7160529e-05
-4.7160825e-05
9.2554835e-05
-4.5394306e-05
0.0001344769
-4.1922065e-05
0.00017134275
-3.6865851e-05
0.00020174566
-3.0402912e-05
0.00022450931
-2.2763644e-05
0.00023873333
-1.4224027e-05
0.00024383318
-5.0998478e-06
0.00023956423
4.2689528e-06
0.00022604493
1.3519302e-05
0.00020375125
2.229368e-05
0.00017351357
3.023768e-05
0.00013648178
3.7031791e-05
9.4089172e-05
4.2392604e-05
4.7991002e-05
4.609817e-05
3.7125073e-10
4.799063e-05
-4.7990261e-05
4.7990632e-05
-9.4088435e-05
4.6098174e-05
-0.00013648106
4.2392625e-05
-0.0001735129
3.7031842e-05
-0.00020375066
3.0237759e-05
-0.00022604447
2.2293805e-05
-0.00023956392
1.3519453e-05
-0.00024383305
4.2691298e-06
-0.00023873338
-5.0996695e-06
-0.00022450952
-1.4223859e-05
-0.00020174601
-2.2763509e-05
-0.00017134321
-3.0402804e-05
-0.00013447742
-3.6865784e-05
-9.2555404e-05
-4.192202e-05
-4.7161116e-05
-4.5394287e-05
-4.716082e-05
5.0192682e-05
-9.7353838e-05
9.8506459e-05
-9.3708083e-05
0.00014312665
-8.6542255e-05
0.00018236677
-7.6105968e-05
0.00021473034
-6.2766486e-05
0.00023896439
-4.6997698e-05
0.00025411153
-2.9371158e-05
0.00025954683
-1.053515e-05
0.0002550111
8.8046848e-06
0.00024062706
2.790334e-05
0.00021690153
4.6019208e-05
0.00018471692
6.2422291e-05
0.00014529739
7.6451325e-05
0.00010016818
8.7521812e-05
5.1092429e-05
9.5173919e-05
4.0253108e-10
9.9082657e-05
-5.1091624e-05
9.9082659e-05
-0.00010016737
9.5173922e-05
-0.0001452966
8.752185e-05
-0.00018471617
7.645142e-05
-0.00021690087
6.2422456e-05
-0.00024062654
4.6019469e-05
-0.00025501075
2.7903666e-05
-0.00025954668
8.8050624e-06
-0.00025411159
-1.0534765e-05
-0.00023896465
-2.9370798e-05
-0.00021473075
-4.6997404e-05
-0.00018236729
-6.2766261e-05
-0.00014312725
-7.6105829e-05
-9.8507098e-05
-8.654217e-05
-5.0193337e-05
-9.3708049e-05
-9.7353826e-05
5.6412263e-05
-0.00015376649
0.00011071086
-0.00014800668
0.00016085531
-0.00013668671
0.00020495042
-0.00012020108
0.00024131371
-9.9129772e-05
0.00026853882
-7.4222811e-05
0.00028554982
-4.6382159e-05
0.00029164735
-1.663268e-05
0.00028654195
1.3910089e-05
0.00027037134
4.4073951e-05
0.00024370787
7.2682675e-05
0.00020754089
9.858927e-05
0.00016324801
0.0001207442
0.00011254147
0.00013822835
5.7402937e-05
0.00015031246
4.4472583e-10
0.00015648515
-5.7402038e-05
0.00015648514
-0.00011254056
0.00015031245
-0.0001632471
0.00013822838
-0.00020754001
0.00012074433
-0.00024370708
9.8589528e-05
-0.00027037071
7.2683092e-05
-0.00028654153
4.4074493e-05
-0.00029164719
1.3910718e-05
-0.00028554992
-1.6632037e-05
-0.00026853915
-4.6381568e-05
-0.00024131422
-7.4222329e-05
-0.00020495107
-9.9129418e-05
-0.00016085603
-0.00012020087
-0.00011071161
-0.00013668659
-5.6413029e-05
-0.00014800663
-0.00015376647
6.5647411e-05
-0.00021941434
0.00012883261
-0.00021119188
0.00018717755
-0.00019503164
0.00023847575
-0.00017149928
0.00028076864
-0.00014142266
0.00031242317
-0.00010587735
0.00033219005
-6.6149033e-05
0.00033926058
-2.3703216e-05
0.00033330106
1.9869617e-05
0.00031447493
6.2900073e-05
0.00028344933
0.00010370828
0.00024137533
0.00014066327
0.00018985629
0.00017226325
0.00013088243
0.00019720221
6.6757421e-05
0.00021443746
4.7817569e-10
0.00022324209
-6.6756441e-05
0.00022324206
-0.0001308814
0.00021443741
-0.00018985522
0.0001972022
-0.00024137427
0.00017226339
-0.00028344836
0.00014066361
-0.00031447414
0.00010370888
-0.00033330053
6.2900878e-05
-0.00033926038
1.9870566e-05
-0.00033219017
-2.370224e-05
-0.00031242361
-6.6148137e-05
-0.0002807693
-0.00010587663
-0.00023847656
-0.00014142216
-0.00018717843
-0.00017149899
-0.00012883351
-0.00019503151
-6.5648302e-05
-0.00021119184
-0.00021941433
7.6989165e-05
-0.00029640398
0.00015108549
-0.00028528821
0.00021949727
-0.00026344341
0.00027963478
-0.00023163679
0.00032920303
-0.00019099091
0.00036628957
-0.00014296389
0.00038943588
-8.9295346e-05
0.00039770004
-3.1967379e-05
0.00039069584
2.6873815e-05
0.00036861642
8.4979498e-05
0.00033224217
0.00014008254
0.00028292191
0.00018998352
0.00022253266
0.00023265249
0.00015340739
0.00026632748
7.8245481e-05
0.00028959937
4.6285289e-10
0.00030148711
-7.8244508e-05
0.00030148703
-0.00015340631
0.00028959921
-0.00022253146
0.00026632735
-0.00028292065
0.00023265257
-0.00033224096
0.00018998393
-0.00036861541
0.00014008333
-0.00039069518
8.4980643e-05
-0.0003976998
2.6875186e-05
-0.00038943606
-3.1965973e-05
-0.00036629013
-8.9294072e-05
-0.00032920387
-0.00014296289
-0.00027963577
-0.00019099026
-0.00021949831
-0.00023163646
-0.00015108651
-0.00026344331
-7.6990133e-05
-0.00028528822
-0.00029640399
8.9503388e-05
-0.00038590782
0.00017563755
-0.00037142237
0.00025515261
-0.00034295848
0.00032503673
-0.00030152091
0.0003826248
-0.00024857899
0.00042569913
-0.00018603821
0.00045257481
-0.00011617103
0.00046216397
-4.1556531e-05
0.0004540251
3.5012686e-05
0.00042837807
0.00011062652
0.00038612292
0.00018233768
0.00032882076
0.00024728569
0.00025864625
0.000302827
0.00017831
0.00034666374
9.0949721e-05
0.00037695964
3.5130169e-10
0.00039243648
-9.0948921e-05
0.0003924363
-0.00017830896
0.00037695925
-0.00025864495
0.00034666333
-0.00032881926
0.00030282688
-0.00038612142
0.00024728609
-0.00042837677
0.00018233869
-0.00045402422
0.00011062809
-0.00046216364
3.5014607e-05
-0.00045257507
-4.1554546e-05
-0.00042569988
-0.00011616926
-0.00038262589
-0.00018603688
-0.00032503795
-0.0002485782
-0.0002551538
-0.00030152061
-0.00017563862
-0.00034295849
-8.9504337e-05
-0.00037142249
-0.00038590787
0.00010353306
-0.00048944121
0.00020315911
-0.00047104842
0.00029511261
-0.00043491197
0.00037590625
-0.00038231455
0.00044246442
-0.00031513716
0.00049223352
-0.00023580732
0.00052328249
-0.00014722
0.00053436959
-5.2643632e-05
0.0005249906
4.4391672e-05
0.00049538937
0.00014022776
0.00044658342
0.00023114364
0.00038036085
0.00031350826
0.00029922371
0.00038396414
0.00020630339
0.00043958406
0.00010523362
0.00047802941
1.123368e-10
0.00049766999
-0.00010523322
0.00049766963
-0.00020630255
0.00047802859
-0.00029922234
0.00043958312
-0.00038035904
0.00038396358
-0.00044658147
0.00031350851
-0.00049538765
0.00023114487
-0.00052498945
0.0001402299
-0.00053436921
4.4394362e-05
-0.00052328289
-5.2640858e-05
-0.00049223458
-0.00014721757
-0.00044246586
-0.00023580561
-0.00037590776
-0.0003151363
-0.00029511395
-0.00038231441
-0.00020316016
-0.00043491228
-0.00010353383
-0.00047104882
-0.00048944137
0.00012270177
-0.00061214312
0.00024075445
-0.0005891011
0.0003496848
-0.00054384233
0.00044535782
-0.00047798757
0.00052413834
-0.00039391769
0.00058302273
-0.0002946917
0.0006197516
-0.00018394886
0.00063289092
-6.5782954e-05
0.00062185476
5.5427832e-05
0.0005869081
0.00017517442
0.00052921282
0.00028883891
0.0004508487
0.00039187238
0.00035475333
0.0004800595
0.00024463135
0.00054970604
0.00012479844
0.00059786233
-2.9687247e-10
0.00062246872
-0.0001247987
0.00062246804
-0.00024463082
0.00059786071
-0.00035475181
0.00054970411
-0.00045084636
0.00048005814
-0.00052921016
0.00039187231
-0.0005869057
0.00028884041
-0.00062185318
0.00017517737
-0.00063289046
5.5431645e-05
-0.00061975228
-6.5779036e-05
-0.00058302433
-0.00018394553
-0.0005241404
-0.00029468953
-0.00044535985
-0.00039391685
-0.00034968639
-0.00047798787
-0.00024075542
-0.00054384326
-0.00012270223
-0.00058910201
-0.00061214346
0.00015670045
-0.00076884341
0.00030743271
-0.00073983337
0.00044646128
-0.00068287089
0.00056849802
-0.00060002431
0.00066891382
-0.00049433348
0.00074391313
-0.00036969102
0.00079066357
-0.0002306993
0.00080740218
-8.2521568e-05
0.0007934116
6.9418414e-05
0.00074898885
0.00021959717
0.00067554286
0.0003622849
0.00057566945
0.00049174579
0.00045308249
0.00060264646
0.00031249677
0.00069029176
0.00015943824
0.00075092086
-8.6540558e-10
0.00078190783
-0.0001594394
0.00078190657
-0.00031249655
0.00075091786
-0.00045308054
0.0006902881
-0.00057566607
0.00060264367
-0.00067553888
0.00049174512
-0.00074898528
0.00036228682
-0.00079340935
0.00021960144
-0.00080740172
6.9424012e-05
-0.00079066488
-8.2515878e-05
-0.00074391577
-0.00023069464
-0.00066891705
-0.00036968825
-0.00056850101
-0.00049433289
-0.0004464634
-0.00060002548
-0.00030743368
-0.00068287298
-0.00015670046
-0.00073983522
-0.00076884408
0.00022332614
-0.00099216903
0.00043809621
-0.00095460343
0.00063610093
-0.00088087562
0.00080979065
-0.00077371403
0.00095258152
-0.00063712435
0.0010591122
-0.00047622166
0.0011254192
-0.00029700635
0.0011491045
-0.00010620688
0.0011292275
8.9295479e-05
0.0010661503
0.00028267435
0.00096178127
0.00046665392
0.00081974975
0.00063377731
0.00064529966
0.00077709655
0.0004451322
0.00089045922
0.00022713138
0.00096892168
-1.6320068e-09
0.0010090408
-0.00022713364
0.0010090386
-0.0004451321
0.00096891632
-0.00064529666
0.00089045266
-0.00081974437
0.00077709137
-0.00096177498
0.00063377573
-0.0010661448
0.00046665659
-0.0011292242
0.00028268085
-0.0011491041
8.9304004e-05
-0.0011254217
-0.00010619836
-0.0010591167
-0.00029699963
-0.00095258687
-0.00047621806
-0.00080979544
-0.00063712432
-0.00063610414
-0.00077371678
-0.00043809737
-0.00088087975
-0.00022332566
-0.00095460693
-0.00099217027
0.00034790501
-0.0013400729
0.00068241881
-0.0012891172
0.00099070815
-0.001189165
0.0012609786
-0.0010439845
0.0014829705
-0.00085911623
0.0016483714
-0.0006416226
0.001751081
-0.00039971587
0.0017875397
-0.00014266558
0.0017564338
0.00012040134
0.0016582656
0.00038084254
0.0014959024
0.00062901716
0.0012749805
0.00085469915
0.0010036437
0.0010484333
0.00069231211
0.0012017909
0.0003532531
0.0013079807
-2.8883568e-09
0.0013622968
-0.00035325707
0.0013622928
-0.00069231198
0.0013079712
-0.0010036386
0.0012017793
-0.0012749714
0.0010484241
-0.0014958918
0.00085469618
-0.0016582565
0.0006290213
-0.0017564287
0.00038085299
-0.0017875396
0.00012041488
-0.0017510855
-0.00014265238
-0.0016483794
-0.00039970579
-0.0014829796
-0.00064161778
-0.0012609867
-0.00085911731
-0.00099071338
-0.0010439901
-0.00068242043
-0.0011891727
-0.00034790371
-0.0012891236
-0.0013400751
0.00055364698
-0.0018937175
0.0010859017
-0.001821372
0.0015762878
-0.001679551
0.0020059782
-0.0014736749
0.0023586201
-0.0012117581
0.002621003
-0.00090400557
0.0027834434
-0.0005621562
0.0028405648
-0.00019978698
0.0027905975
0.00017036863
0.002634229
0.00053721101
0.00237591
0.00088733615
0.0020247003
0.0012059089
0.0015935796
0.001479554
0.0010991224
0.0016962481
0.00056079032
0.0018463128
-5.4857621e-09
0.0019230926
-0.00056079793
0.0019230852
-0.0010991227
0.001846296
-0.0015935711
0.0016962276
-0.0020246845
0.0014795376
-0.0023758919
0.0012059035
-0.0026342135
0.00088734293
-0.002790589
0.00053722846
-0.002840565
0.00017039088
-0.0027834516
-0.00019976579
-0.0026210169
-0.0005621404
-0.0023586359
-0.00090399882
-0.0020059919
-0.0012117613
-0.0015762964
-0.0014736856
-0.0010859038
-0.0016795653
-0.0005536438
-0.0018213836
-0.0018937213
0.00083950621
-0.0027332177
0.0016464601
-0.0026283259
0.0023897647
-0.0024228556
0.0030407637
-0.0021246739
0.0035745808
-0.0017455752
0.003971159
-0.0013005838
0.0042156703
-0.00080666746
0.0043004811
-0.00028459788
0.0042236207
0.00024722913
0.0039858582
0.00077497346
0.0035937982
0.0012793961
0.0030615812
0.0017381259
0.0024089872
0.002132148
0.0016611446
0.0024440906
0.00084742691
0.0026600305
-1.2169221e-08
0.0027705317
-0.00084744444
0.0027705175
-0.0016611479
0.0026599995
-0.0024089732
0.0024440529
-0.003061553
0.0021321174
-0.0035937653
0.0017381158
-0.00398583
0.0012794076
-0.0042236054
0.00077500383
-0.0043004817
0.00024726718
-0.004215685
-0.00028456243
-0.0039711838
-0.00080664157
-0.0035746088
-0.0013005739
-0.0030407872
-0.0017455829
-0.0023897784
-0.0021246944
-0.0016464613
-0.0024228825
-0.00083949717
-0.0026283477
-0.0027332245
0.0011350012
-0.0038682058
0.0022257535
-0.0037190782
0.003230209
-0.0034273112
0.0041093587
-0.0030038235
0.0048294008
-0.0024656172
0.0053633208
-0.0018345038
0.0056905058
-0.0011338525
0.0058015729
-0.00039566494
0.0056955585
0.00035324352
0.0053726527
0.0010978792
0.0048415721
0.0018104767
0.0041225068
0.0024571912
0.0032423357
0.003012319
0.00223501
0.0034514163
0.0011399566
0.0037550839
-2.5615147e-08
0.003910514
-0.0011399944
0.0039104863
-0.0022350209
0.003755026
-0.0032423143
0.0034513464
-0.0041224588
0.0030122619
-0.0048415153
0.0024571723
-0.0053726039
0.0018104962
-0.0056955326
0.0010979325
-0.0058015741
0.00035330869
-0.0056905309
-0.00039560564
-0.0053633624
-0.0011338101
-0.0048294469
-0.0018344894
-0.004109396
-0.0024656337
-0.0032302288
-0.0030038616
-0.0022257508
-0.0034273604
-0.0011349802
-0.0037191183
-0.0038682178
0.0012449202
-0.0051131053
0.0024411813
-0.0049153393
0.0035423578
-0.0045284877
0.0045052372
-0.003966703
0.0052925363
-0.0032529163
0.0058750682
-0.0024170357
0.0062279579
-0.0014867422
0.0063423036
-0.00051001071
0.0062206933
0.0004748538
0.0058616264
0.0014569462
0.005274969
0.0023971341
0.0044862586
0.0032459016
0.0035249246
0.003973653
0.0024279413
0.0045483996
0.0012378205
0.0049452047
-4.4077041e-08
0.0051483785
-0.001237885
0.0051483272
-0.0024279628
0.0049451037
-0.0035248951
0.0045482787
-0.0044861877
0.0039735545
-0.0052748867
0.0032458713
-0.0058615565
0.002397166
-0.0062206591
0.001457035
-0.0063423087
0.00047495829
-0.0062279947
-0.00050991962
-0.0058751258
-0.001486679
-0.0052925978
-0.0024170174
-0.0045052839
-0.0032529476
-0.00354238
-0.0039667656
-0.002441173
-0.0045285674
-0.0012448853
-0.0049154061
-0.0051131238
0.00078921276
-0.0059023084
0.0015465836
-0.0056727102
0.0022422159
-0.0052241199
0.0028479907
-0.0045724777
0.003339767
-0.0037446927
0.0037000999
-0.0027773685
0.00391081
-0.0016974523
0.0039672268
-0.00056642744
0.0038759621
0.00056611853
0.0036356924
0.0016972159
0.0032556093
0.0027772172
0.002756834
0.0037446769
0.0021578844
0.0045726027
0.0014819247
0.0052243593
0.00075416572
0.0056729637
-3.23127e-08
0.0059025766
-0.00075421028
0.0059025052
-0.00148194
0.0056728334
-0.0021578651
0.0052242039
-0.0027567874
0.0045724768
-0.0032555583
0.0037446423
-0.0036356484
0.002777256
-0.0038759423
0.001697329
-0.0039672329
0.00056624888
-0.0039108355
-0.00056631707
-0.0037001354
-0.0016973791
-0.0033398004
-0.0027773523
-0.0028480112
-0.0037447368
-0.0022422245
-0.0045725523
-0.00154658
-0.0052242118
-0.00078919521
-0.0056727909
-0.0059023286
-0.00075027149
-0.0051520467
-0.0014742575
-0.0049487242
-0.0021467322
-0.0045516453
-0.0027426483
-0.0039765616
-0.0032389579
-0.0032483831
-0.0036172344
-0.002399092
-0.0038564153
-0.0014582714
-0.003947359
-0.00047548376
-0.0038913855
0.00051014504
-0.0036818511
0.0014876814
-0.0033233897
0.0024187558
-0.0028340918
0.003255379
-0.0022313046
0.0039698155
-0.0015390545
0.0045321092
-0.00078536029
0.0049192695
3.3167181e-08
0.0051171831
0.00078540575
0.0051171326
0.0015390693
0.0049191698
0.0022312834
0.0045319898
0.0028340422
0.0039697179
0.0033233355
0.0032553489
0.0036818041
0.0024187875
0.0038913633
0.0014877698
0.0039473628
0.00051024929
0.0038564385
-0.00047539268
0.0036172675
-0.0014582081
0.0032389889
-0.0023990737
0.0027426666
-0.0032484146
0.0021467391
-0.0039766247
0.0014742529
-0.0045517256
0.00075025356
-0.0049487916
-0.0051520653
-0.001233955
-0.0039181131
-0.0024203019
-0.0037623774
-0.0035138148
-0.0034581324
-0.0044721456
-0.0030182308
-0.0052584422
-0.0024620864
-0.0058433642
-0.00181417
-0.0062014185
-0.001100217
-0.0063227693
-0.00035413297
-0.0062089034
0.00039627919
-0.0058571976
0.0011359755
-0.0052765129
0.0018380711
-0.0044916439
0.00247051
-0.0035316826
0.0030098541
-0.0024338058
0.0034342325
-0.0012411289
0.0037265926
4.3216674e-08
0.003876011
0.0012411919
0.0038759839
0.0024338257
0.003726536
0.0035316516
0.0034341639
0.0044915715
0.003009798
0.0052764291
0.0024704914
0.0058571262
0.0018380903
0.0062088677
0.0011360284
0.0063227728
0.00039634419
0.0062014538
-0.00035407374
0.0058434202
-0.0011001745
0.005258502
-0.0018141555
0.0044721905
-0.0024621031
0.0035138353
-0.0030182695
0.002420292
-0.0034581824
0.0012339186
-0.0037624182
-0.0039181252
-0.0011359307
-0.0027821966
-0.002227068
-0.0026712401
-0.0032307792
-0.0024544211
-0.004107792
-0.002141218
-0.0048242828
-0.0017455957
-0.0053534721
-0.0012849807
-0.0056752431
-0.00077844599
-0.0057809251
-0.00024845095
-0.0056703323
0.00028568637
-0.0053443926
0.00081003577
-0.0048124321
0.0013061107
-0.0040949716
0.0017530495
-0.003218924
0.0021338065
-0.0022179759
0.0024332845
-0.0011310193
0.0026396359
2.4269914e-08
0.0027449674
0.0011310547
0.0027449535
0.0022179851
0.0026396056
0.0032189015
0.0024332475
0.0040949229
0.0021337766
0.0048123748
0.0017530396
0.005344343
0.0013061221
0.0056703054
0.00081006592
0.0057809254
0.00028572426
0.0056752671
-0.00024841551
0.0053535127
-0.00077842
0.0048243279
-0.0012849707
0.0041078282
-0.0017456034
0.0032307975
-0.0021412388
0.0022270636
-0.0024544484
0.0011359076
-0.0026712623
-0.0027822035
-0.00084379103
-0.0019384124
-0.0016540019
-0.0018610292
-0.0023986314
-0.0017097916
-0.0030484413
-0.0014914081
-0.003578416
-0.0012156211
-0.0039688592
-0.00089453744
-0.0042056774
-0.00054162779
-0.0042822896
-0.00017183881
-0.0041979137
0.00020131046
-0.0039545003
0.00056662245
-0.0035596372
0.00091124761
-0.0030280855
0.0012214977
-0.0023798153
0.0014855364
-0.0016396047
0.0016930739
-0.00083600259
0.0018360338
1.1253242e-08
0.0019089536
0.00083601846
0.0019089463
0.0016396067
0.0018360174
0.0023798003
0.0016930539
0.0030280566
0.0014855203
0.0035596037
0.0012214925
0.0039544714
0.00091125439
0.0041978976
0.0005666398
0.0042822892
0.00020133264
0.0042056913
-0.00017181761
0.0039688832
-0.00054161189
0.0035784431
-0.00089453058
0.0030484638
-0.0012156242
0.0023986439
-0.0014914188
0.0016540015
-0.001709806
0.00084378027
-0.001861041
-0.0019384163
-0.00055646175
-0.0013819538
-0.0010906213
-0.0013268697
-0.0015812317
-0.0012191812
-0.0020089819
-0.0010636578
-0.002357431
-0.00086717201
-0.002613707
-0.00063826146
-0.0027688312
-0.00038650351
-0.0028184003
-0.0001222698
-0.0027617489
0.00014465913
-0.0026006111
0.00040548466
-0.0023403076
0.00065094407
-0.0019904322
0.00087162229
-0.0015640892
0.0010591933
-0.0010775042
0.001206489
-0.00054936396
0.0013078935
4.9110829e-09
0.0013595847
0.00054937049
0.0013595807
0.0010775036
0.0013078842
0.0015640799
0.0012064777
0.0019904159
0.0010591843
0.0023402889
0.0008716194
0.0026005951
0.00065094825
0.0027617398
0.00040549508
0.0028183997
0.00014467268
0.0027688387
-0.00012225657
0.0026137201
-0.0003864933
0.002357446
-0.00063825651
0.0020089947
-0.00086717296
0.0015812392
-0.0010636633
0.0010906221
-0.0012191889
0.00055645721
-0.0013268761
-0.001381956
-0.00035075243
-0.001031203
-0.00068741531
-0.00099020678
-0.00099656638
-0.00091003015
-0.001266033
-0.00079419122
-0.0014854666
-0.00064773842
-0.0016467771
-0.00047695098
-0.0017443554
-0.00028892517
-0.0017753441
-9.1281104e-05
-0.0017392256
0.00010854064
-0.001637294
0.00030355303
-0.0014730701
0.00048672022
-0.0012526077
0.00065115987
-0.00098416073
0.00079074635
-0.00067792207
0.00090025034
-0.00034561483
0.00097558625
2.5442268e-09
0.0010139673
0.00034561815
0.0010139651
0.00067792139
0.00097558098
0.00098415517
0.00090024389
0.0012525982
0.00079074128
0.0014730592
0.00065115836
0.0016372845
0.00048672297
0.00173922
0.00030355957
0.0017753434
0.00010854927
0.0017443593
-9.1272476e-05
0.0016467843
-0.00028891826
0.001485475
-0.0004769472
0.0012660402
-0.0006477382
0.00099657074
-0.00079419383
0.00068741599
-0.00091003419
0.00035075014
-0.00099021023
-0.0010312042
-0.00022139862
-0.0008098053
-0.00043388365
-0.00077772175
-0.0006289642
-0.00071494961
-0.00079895327
-0.00062420216
-0.00093732255
-0.00050936914
-0.0010389727
-0.0003753008
-0.0011003774
-0.0002275205
-0.0011196989
-7.1959626e-05
-0.0010965977
8.5439446e-05
-0.0010319873
0.00023894265
-0.00092819114
0.00038292406
-0.0007890662
0.00051203492
-0.00061982811
0.00062150826
-0.00042689144
0.00070731367
-0.00021761424
0.00076630905
1.4429831e-09
0.00079635164
0.00021761612
0.00079635041
0.000426891
0.00076630611
0.00061982478
0.00070731011
0.00078906051
0.00062150556
0.00092818452
0.00051203435
0.0010319814
0.00038292605
0.001096594
0.000238947
0.0011196981
8.5445168e-05
0.0011003794
-7.1953785e-05
0.0010389768
-0.00022751563
0.00093732738
-0.0003752978
0.00079895748
-0.0005093683
0.00062896675
-0.0006242031
0.00043388409
-0.00071495152
0.00022139735
-0.00077772349
-0.00080980594
-0.00015830283
-0.00065150294
-0.00031028331
-0.00062574127
-0.00044990749
-0.00057532543
-0.0005716977
-0.00050241194
-0.00067097288
-0.00041009396
-0.00074403745
-0.00030223624
-0.00078830057
-0.00018325737
-0.00080234273
-5.7917467e-05
-0.00078583952
6.8936229e-05
-0.00073949134
0.00019259447
-0.00066503221
0.00030846493
-0.00056526863
0.00041227134
-0.00044396861
0.00050020824
-0.00030573834
0.00056908341
-0.00015584313
0.00061641383
7.9641704e-10
0.00064050772
0.00015584416
0.00064050705
0.00030573801
0.00061641225
0.00044396659
0.00056908154
0.0005652652
0.00050020695
0.00066502817
0.00041227138
0.00073948766
0.00030846656
0.00078583706
0.0001925976
0.00080234198
6.8940247e-05
0.00078830148
-5.7913282e-05
0.00074403961
-0.00018325376
0.00067097557
-0.00030223376
0.00057170012
-0.00041009285
0.00044990899
-0.00050241198
0.00031028365
-0.00057532618
0.00015830222
-0.00062574206
-0.00065150325
-0.00011155508
-0.00053994796
-0.00021864852
-0.00051864784
-0.0003170195
-0.00047695445
-0.00040280272
-0.00041662873
-0.00047268969
-0.00034020699
-0.00052406852
-0.0002508574
-0.00055510983
-0.00015221606
-0.00056480259
-4.8224706e-05
-0.00055295147
5.708511e-05
-0.00052007972
0.00015972272
-0.00046748042
0.00025586563
-0.00039716686
0.00034195778
-0.00031181661
0.00041485799
-0.00021466823
0.00047193502
-0.00010940204
0.00051114764
3.0501158e-10
0.00053110537
0.00010940231
0.00053110504
0.00021466769
0.00051114688
0.00031181505
0.00047193418
0.00039716443
0.00041485756
0.00046747763
0.00034195819
0.00052007716
0.00025586703
0.00055294969
0.00015972507
0.0005648019
5.7088033e-05
0.00055511027
-4.822165e-05
0.00052406986
-0.00015221334
0.00047269144
-0.00025085534
0.00040280441
-0.00034020582
0.00031702071
-0.00041662828
0.00021864906
-0.00047695453
0.00011155508
-0.00051864808
-0.00053994806
-0.00010240083
-0.00043754706
-0.00020076483
-0.00042028384
-0.00029122698
-0.00038649229
-0.00037025868
-0.00033759703
-0.00043481335
-0.00027565232
-0.00048244812
-0.00020322263
-0.0005114102
-0.00012325398
-0.00052069039
-3.8944521e-05
-0.00051001685
4.641157e-05
-0.00047987347
0.00012957934
-0.00043145283
0.00020744499
-0.00036662366
0.00027712861
-0.00028787211
0.00033610645
-0.00019819926
0.00038226217
-0.00010101316
0.00041396154
2.0418113e-11
0.0004300922
0.00010101302
0.00043009204
0.00019819869
0.0004139612
0.000287871
0.00038226187
0.00036662208
0.00033610647
0.00043145106
0.00027712921
0.00047987183
0.00020744625
0.00051001567
0.00012958123
0.00052068985
4.6413849e-05
0.00051141033
-3.894213e-05
0.00048244879
-0.0001232518
0.00043481433
-0.00020322088
0.00037025969
-0.00027565117
0.0002912278
-0.00033759639
0.00020076533
-0.00038649207
0.00010240106
-0.00042028381
-0.00043754707
-5.3454788e-05
-0.00038409201
-0.00010475027
-0.00036898836
-0.00015182673
-0.00033941583
-0.00019281559
-0.00029660816
-0.00022612859
-0.00024233932
-0.00025051638
-0.00017883485
-0.00026510755
-0.00010866281
-0.0002694376
-3.4614473e-05
-0.00026345641
4.0430379e-05
-0.00024746888
0.00011359182
-0.00022214975
0.00018212586
-0.0001885107
0.00024348956
-0.00014785189
0.00029544764
-0.00010171021
0.0003361205
-5.1810036e-05
0.00036406136
-2.1316362e-10
0.00037828237
5.1809499e-05
0.00037828233
0.0001017094
0.0003640613
0.00014785075
0.00033612053
0.00018850929
0.00029544793
0.00022214826
0.00024349024
0.00024746754
0.00018212697
0.00026345545
0.00011359333
0.00026943715
4.0432145e-05
0.00026510765
-3.4612633e-05
0.00025051694
-0.00010866109
0.00022612948
-0.00017883342
0.00019281654
-0.00024233824
0.00015182763
-0.00029660748
0.000104751
-0.00033941543
5.3455374e-05
-0.00036898819
-0.00038409196
-6.9011277e-05
-0.00031508052
-0.00013530916
-0.00030269048
-0.00019629419
-0.0002784308
-0.00024958833
-0.00024331402
-0.00029313371
-0.00019879394
-0.00032527308
-0.00014669548
-0.00034480837
-8.912752e-05
-0.00035104941
-2.8373432e-05
-0.00034379804
3.3179009e-05
-0.00032340752
9.3201292e-05
-0.00029069671
0.00014941505
-0.00024695237
0.00019974522
-0.00019385993
0.0002423552
-0.0001334473
0.00027570787
-6.8004029e-05
0.00029861809
-2.2952679e-10
0.00031027857
6.8003519e-05
0.00031027858
0.00013344667
0.00029861815
0.00019385914
0.00027570805
0.00024695146
0.00024235561
0.00029069579
0.00019974592
0.00032340669
0.00014941607
0.00034379742
9.3202593e-05
0.00035104909
3.3180481e-05
0.00034480834
-2.8371891e-05
0.00032527333
-8.912607e-05
0.00029313416
-0.00014669425
0.00024958887
-0.00019879295
0.00019629474
-0.00024331335
0.00013530967
-0.00027843036
6.9011734e-05
-0.00030269026
-0.00031508044
1.1627797e-05
-0.00032670791
2.2894091e-05
-0.00031395677
3.3438033e-05
-0.00028897474
4.290184e-05
-0.00025277783
5.093786e-05
-0.00020682997
5.7218568e-05
-0.00015297618
6.1451269e-05
-9.336022e-05
6.3405122e-05
-3.0327285e-05
6.2912044e-05
3.3672087e-05
5.9917227e-05
9.6196109e-05
5.4463399e-05
0.00015486888
4.6715487e-05
0.00020749313
3.6960386e-05
0.0002521103
2.5588977e-05
0.00028707928
1.3085579e-05
0.00031112148
-4.2549116e-10
0.00032336458
-1.3086461e-05
0.00032336462
-2.5589927e-05
0.00031112162
-3.6961417e-05
0.00028707954
-4.6716545e-05
0.00025211074
-5.4464406e-05
0.00020749378
-5.9918072e-05
0.00015486974
-6.2912632e-05
9.6197154e-05
-6.3405398e-05
3.3673247e-05
-6.1451197e-05
-3.0326092e-05
-5.7218188e-05
-9.335908e-05
-5.093726e-05
-0.00015297518
-4.2901078e-05
-0.00020682913
-3.3437219e-05
-0.00025277721
-2.2893266e-05
-0.00028897431
-1.1626994e-05
-0.00031395653
-0.00032670783
-7.1679379e-05
-0.00025502805
-0.00014054949
-0.00024508667
-0.00020391654
-0.00022560769
-0.00025931453
-0.00019737984
-0.00030460406
-0.00016154043
-0.00033805665
-0.0001195236
-0.00035841935
-7.2997516e-05
-0.00036495916
-2.3787472e-05
-0.00035747081
2.6183732e-05
-0.00033630396
7.5029262e-05
-0.00030231469
0.00012087961
-0.00025683717
0.00016201561
-0.0002016285
0.00019690163
-0.00013879887
0.00022424965
-7.0732584e-05
0.0002430552
-5.2424066e-10
0.00025263252
7.0731533e-05
0.00025263256
0.00013879782
0.00024305533
0.00020162746
0.0002242499
0.00025683619
0.00019690202
0.00030231382
0.00016201615
0.00033630326
0.0001208803
0.00035747033
7.5030081e-05
0.00036495895
2.6184627e-05
0.00035841941
-2.3786548e-05
0.00033805696
-7.2996635e-05
0.0003046046
-0.00011952282
0.00025931524
-0.00016153977
0.00020391737
-0.00019737933
0.0001405504
-0.00022560734
7.1680328e-05
-0.00024508646
-0.00025502799
1.7923383e-05
-0.00027295058
3.5233978e-05
-0.00026239726
5.1332293e-05
-0.000241706
6.5642305e-05
-0.00021168985
7.7627833e-05
-0.00017352596
8.6810246e-05
-0.00012870601
9.2789511e-05
-7.8976781e-05
9.5274679e-05
-2.6272641e-05
9.4128473e-05
2.7329937e-05
8.9284434e-05
7.9873301e-05
8.0859588e-05
0.00012930445
6.9139378e-05
0.00017373582
5.4562142e-05
0.00021147887
3.7705157e-05
0.00024110663
1.9259732e-05
0.00026150062
-9.4690996e-10
0.0002718932
-1.9261609e-05
0.00027189322
-3.7706972e-05
0.0002615007
-5.4563844e-05
0.00024110677
-6.9140901e-05
0.00021147907
-8.0860858e-05
0.00017373611
-8.9285381e-05
0.00012930482
-9.4129038e-05
7.9873739e-05
-9.5274831e-05
2.733042e-05
-9.2789239e-05
-2.627214e-05
-8.6809581e-05
-7.8976294e-05
-7.7626826e-05
-0.00012870557
-6.5641022e-05
-0.00017352558
-5.1330808e-05
-0.00021168955
-3.5232359e-05
-0.00024170579
-1.792169e-05
-0.00026239713
-0.00027295054
-0.00025638871
-0.00050286176
-0.00072989213
-0.00092871897
-0.0010916889
-0.0012125514
-0.0012866985
-0.0013113408
-0.0012856408
-0.0012105968
-0.0010891356
-0.0009259558
-0.00072734002
-0.00050090925
-0.00025533318
-1.1226066e-09
0.00025533096
0.0005009071
0.00072733801
0.00092595399
0.0010891341
0.0012105956
0.0012856401
0.0013113405
0.0012866988
0.0012125521
0.0010916901
0.00092872055
0.00072989401
0.00050286385
0.00025639093
)
;

boundaryField
{
    leftWall
    {
        type            cyclic;
        value           nonuniform List<scalar> 
32
(
2.9582488e-10
3.3090797e-10
3.8512339e-10
4.4360132e-10
4.7367928e-10
4.5081929e-10
3.3894622e-10
1.3847828e-10
-1.6221868e-10
-5.2053328e-10
-1.1209974e-09
-2.3992927e-09
-6.020141e-09
-1.308987e-08
-2.0737418e-08
-9.5961387e-09
9.7214236e-09
2.1452995e-08
1.4146819e-08
6.9114007e-09
3.104352e-09
1.6232272e-09
9.2516445e-10
4.7582652e-10
1.0356988e-10
-6.8982667e-11
-2.6432184e-10
-2.1890247e-10
-3.9939052e-10
-4.8126832e-10
-8.5848531e-10
-1.1310775e-09
)
;
    }
    rightWall
    {
        type            cyclic;
        value           nonuniform List<scalar> 
32
(
-2.9582488e-10
-3.3090797e-10
-3.8512339e-10
-4.4360132e-10
-4.7367928e-10
-4.5081929e-10
-3.3894622e-10
-1.3847828e-10
1.6221868e-10
5.2053328e-10
1.1209974e-09
2.3992927e-09
6.020141e-09
1.308987e-08
2.0737418e-08
9.5961387e-09
-9.7214236e-09
-2.1452995e-08
-1.4146819e-08
-6.9114007e-09
-3.104352e-09
-1.6232272e-09
-9.2516445e-10
-4.7582652e-10
-1.0356988e-10
6.8982667e-11
2.6432184e-10
2.1890247e-10
3.9939052e-10