/*--------------------------------*- C++ -*----------------------------------*\
| =========                 |                                                 |
| \\      /  F ield         | OpenFOAM: The Open Source CFD Toolbox           |
|  \\    /   O peration     | Version:  2106                                  |
|   \\  /    A nd           | Website:  www.openfoam.com                      |
|    \\/     M anipulation  |                                                 |
\*---------------------------------------------------------------------------*/
FoamFile
{
    version     2.0;
    format      ascii;
    arch        "LSB;label=32;scalar=64";
    class       surfaceScalarField;
    location    "0.048";
    object      phi;
}
// * * * * * * * * * * * * * * * * * * * * * * * * * * * * * * * * * * * * * //

dimensions      [0 3 -1 0 0 0 0];

oriented        oriented;

internalField   nonuniform List<scalar> 
8064
(
-4.0254075e-05
4.0254981e-05
-8.0119921e-05
3.9865847e-05
-0.0001192113
3.9091377e-05
-0.00015715044
3.7939141e-05
-0.00019357084
3.6420397e-05
-0.00022812081
3.4549975e-05
-0.00026046694
3.2346131e-05
-0.0002902973
2.9830355e-05
-0.00031732445
2.7027158e-05
-0.00034128828
2.3963826e-05
-0.00036195842
2.0670142e-05
-0.00037913652
1.7178092e-05
-0.00039265806
1.3521545e-05
-0.00040239397
9.7359106e-06
-0.00040825173
5.8577622e-06
-0.00041017641
1.9246761e-06
-0.00040815091
-2.0254991e-06
-0.00040219618
-5.9547316e-06
-0.00039237095
-9.8252273e-06
-0.00037877113
-1.3599818e-05
-0.00036152882
-1.7242313e-05
-0.00034081098
-2.0717836e-05
-0.00031681783
-2.3993156e-05
-0.00028978084
-2.7036991e-05
-0.00025996053
-2.9820309e-05
-0.00022764394
-3.2316589e-05
-0.00019314187
-3.4502068e-05
-0.00015678591
-3.6355961e-05
-0.00011892526
-3.786065e-05
-7.9923416e-05
-3.9001845e-05
-4.0154703e-05
-3.9768712e-05
-7.2816195e-10
-4.0153975e-05
4.0153251e-05
-4.0153979e-05
7.9921975e-05
-3.9768724e-05
0.00011892384
-3.9001865e-05
0.00015678452
-3.786068e-05
0.00019314052
-3.6356001e-05
0.00022764264
-3.450212e-05
0.0002599593
-3.2316655e-05
0.00028977969
-2.9820391e-05
0.00031681678
-2.7037089e-05
0.00034081005
-2.399327e-05
0.00036152801
-2.0717967e-05
0.00037877047
-1.7242459e-05
0.00039237045
-1.3599978e-05
0.00040219585
-9.8253997e-06
0.00040815076
-5.9549132e-06
0.00041017645
-2.0256867e-06
0.00040825196
1.924486e-06
0.00040239439
5.857573e-06
0.00039265867
9.7357257e-06
0.0003791373
1.3521367e-05
0.00036195937
1.7177925e-05
0.00034128939
2.0669988e-05
0.0003173257
2.3963686e-05
0.00029029867
2.7027034e-05
0.00026046842
2.9830246e-05
0.00022812238
3.2346039e-05
0.00019357248
3.4549899e-05
0.00015715215
3.6420336e-05
0.00011921305
3.7939095e-05
8.0121707e-05
3.9091344e-05
4.025588e-05
3.9865827e-05
4.0254974e-05
-4.0680257e-05
8.093615e-05
-8.0968152e-05
8.0153741e-05
-0.00012047334
7.8596562e-05
-0.00015881403
7.6279833e-05
-0.00019561982
7.3226192e-05
-0.00023053531
6.9465463e-05
-0.00026322353
6.5034351e-05
-0.00029336925
5.9976071e-05
-0.000320682
5.433991e-05
-0.0003448989
4.8180732e-05
-0.00036578719
4.1558424e-05
-0.00038314639
3.4537299e-05
-0.0003968103
2.7185455e-05
-0.00040664849
1.9574095e-05
-0.00041256755
1.1776828e-05
-0.00041451189
3.869018e-06
-0.00041246429
-4.0731006e-06
-0.00040644596
-1.1973066e-05
-0.00039651628
-1.9754908e-05
-0.00038277219
-2.7343907e-05
-0.0003653472
-3.46673e-05
-0.00034441007
-4.165497e-05
-0.00032016312
-4.8240104e-05
-0.00029284029
-5.4359818e-05
-0.00026270486
-5.995574e-05
-0.0002300469
-6.4974555e-05
-0.00019518047
-6.9368493e-05
-0.00015844067
-7.3095766e-05
-0.00012018036
-7.6120957e-05
-8.0766868e-05
-7.8415336e-05
-4.0578454e-05
-7.9957126e-05
-7.3119938e-10
-8.0731698e-05
4.0576995e-05
-8.0731706e-05
8.076542e-05
-7.9957148e-05
0.00012017893
-7.8415374e-05
0.00015843926
-7.6121014e-05
0.00019517911
-7.3095844e-05
0.00023004558
-6.9368596e-05
0.00026270361
-6.4974687e-05
0.00029283913
-5.9955903e-05
0.00032016205
-5.4360013e-05
0.00034440911
-4.8240333e-05
0.00036534638
-4.1655232e-05
0.00038277151
-3.4667594e-05
0.00039651576
-2.7344231e-05
0.00040644562
-1.9755256e-05
0.00041246414
-1.1973433e-05
0.00041451193
-4.0734796e-06
0.00041256779
3.8686337e-06
0.00040664891
1.1776446e-05
0.00039681092
1.9573722e-05
0.00038314719
2.7185097e-05
0.00036578815
3.4536962e-05
0.00034490003
4.1558113e-05
0.00032068326
4.8180451e-05
0.00029337063
5.433966e-05
0.00026322503
5.9975854e-05
0.0002305369
6.5034167e-05
0.00019562149
6.9465311e-05
0.00015881575
7.3226071e-05
0.0001204751
7.6279741e-05
8.0969951e-05
7.8596497e-05
4.0682075e-05
8.0153703e-05
8.0936137e-05
-4.135295e-05
0.00012229002
-8.2307024e-05
0.00012110781
-0.0001224654
0.00011875494
-0.00016143997
0.0001152544
-0.00019885419
0.00011064041
-0.00023434676
0.00010495803
-0.00026757514
9.826273e-05
-0.00029821888
9.0619811e-05
-0.00032598272
8.2103751e-05
-0.00035059944
7.2797453e-05
-0.00037183243
6.2791412e-05
-0.00038947794
5.2182806e-05
-0.00040336702
4.1074534e-05
-0.00041336711
2.9574191e-05
-0.0004193833
1.7793013e-05
-0.00042135909
5.8448127e-06
-0.00041927701
-6.1551892e-06
-0.00041315862
-1.8091449e-05
-0.00040306434
-2.9849194e-05
-0.00038909271
-4.1315532e-05
-0.00037137948
-5.2380531e-05
-0.0003500962
-6.2938254e-05
-0.00032544854
-7.2887758e-05
-0.00029767433
-8.2134034e-05
-0.00026704117
-9.0588897e-05
-0.00023384393
-9.8171795e-05
-0.00019840187
-0.00010481056
-0.00016105558
-0.00011044205
-0.00012216376
-0.00011501278
-8.2099774e-05
-0.00011847932
-4.1248113e-05
-0.00012080879
-7.3550218e-10
-0.00012197908
4.1246645e-05
-0.00012197909
8.2098315e-05
-0.00012080882
0.00012216232
-0.00011847937
0.00016105416
-0.00011501286
0.00019840048
-0.00011044217
0.00023384259
-0.00010481071
0.00026703989
-9.8171988e-05
0.00029767313
-9.0589138e-05
0.00032544744
-8.2134326e-05
0.00035009521
-7.2888101e-05
0.00037137863
-6.293865e-05
0.00038909201
-5.2380976e-05
0.0004030638
-4.1316022e-05
0.00041315827
-2.9849722e-05
0.00041927684
-1.8092007e-05
0.00042135913
-6.1557661e-06
0.00041938353
5.8442276e-06
0.00041336755
1.7792431e-05
0.00040336765
2.9573623e-05
0.00038947875
4.107399e-05
0.00037183342
5.2182296e-05
0.00035060059
6.2790942e-05
0.00032598401
7.2797029e-05
0.0002982203
8.2103375e-05
0.00026757667
9.0619486e-05
0.00023434838
9.8262456e-05
0.00019885588
0.00010495781
0.00016144172
0.00011064023
0.00012246719
0.00011525427
8.2308845e-05
0.00011875485
4.1354789e-05
0.00012110776
0.00012229
-4.2285726e-05
0.00016457669
-8.4163549e-05
0.00016298564
-0.00012522769
0.00015981908
-0.00016508125
0.00015510797
-0.00020333919
0.00014889835
-0.00023963204
0.00014125089
-0.00027360954
0.00013224023
-0.000304944
0.00012195427
-0.00033333352
0.00011049326
-0.00035850484
9.7968778e-05
-0.00038021604
8.4502613e-05
-0.0003982588
7.0225561e-05
-0.00041246037
5.5276108e-05
-0.00042268525
3.9799065e-05
-0.00042883637
2.3944138e-05
-0.00043085603
7.8644723e-06
-0.00042872636
-8.284859e-06
-0.00042246946
-2.4348351e-05
-0.0004121471
-4.0171552e-05
-0.00039786009
-5.5602541e-05
-0.00037974724
-7.0493382e-05
-0.00035798398
-8.4701516e-05
-0.00033278063
-9.8091102e-05
-0.00030438038
-0.00011053429
-0.00027305686
-0.00012191241
-0.00023911159
-0.00013211707
-0.000202871
-0.00014105114
-0.00016468337
-0.00014862969
-0.00012491545
-0.0001547807
-8.3949008e-05
-0.00015944576
-4.2177181e-05
-0.00016258061
-7.4124752e-10
-0.00016415552
4.21757e-05
-0.00016415553
8.3947534e-05
-0.00016258065
0.00012491399
-0.00015944583
0.00016468193
-0.0001547808
0.00020286959
-0.00014862983
0.00023911022
-0.00014105134
0.00027305555
-0.00013211732
0.00030437914
-0.00012191273
0.00033277949
-0.00011053468
0.00035798295
-9.809156e-05
0.00037974634
-8.4702047e-05
0.00039785935
-7.0493982e-05
0.00041214653
-5.5603204e-05
0.00042246908
-4.0172268e-05
0.00042872618
-2.4349109e-05
0.00043085606
-8.2856437e-06
0.00042883661
7.8636762e-06
0.00042268569
2.3943346e-05
0.00041246102
3.9798294e-05
0.00039825964
5.5275371e-05
0.00038021707
7.022487e-05
0.00035850603
8.4501979e-05
0.00033333485
9.7968208e-05
0.00030494547
0.00011049276
0.00027361111
0.00012195384
0.0002396337
0.00013223987
0.00020334092
0.00014125059
0.00016508303
0.00014889812
0.00012522951
0.00015510779
8.4165402e-05
0.00015981896
4.2287595e-05
0.00016298557
0.00016457666
-4.3492619e-05
0.00020807026
-8.656566e-05
0.00020605868
-0.00012880174
0.00020205516
-0.00016979263
0.00019609886
-0.00020914227
0.00018824799
-0.00024647064
0.00017857926
-0.00028141747
0.00016718706
-0.00031364572
0.00015418253
-0.00034284488
0.00013969242
-0.00036873391
0.00012385781
-0.000391064
0.0001068327
-0.0004096209
8.8782458e-05
-0.00042422697
6.9882177e-05
-0.00043474285
5.0314945e-05
-0.00044106875
3.0270035e-05
-0.00044314533
9.9410592e-06
-0.00044095426
-1.047593e-05
-0.00043451828
-3.078433e-05
-0.00042390096
-5.0788879e-05
-0.00040920598
-7.0297519e-05
-0.00039057613
-8.9123229e-05
-0.00036819186
-0.00010708579
-0.0003422695
-0.00012401346
-0.00031305916
-0.00013974464
-0.00028084229
-0.00015412928
-0.00024592899
-0.00016703037
-0.000208655
-0.00017832513
-0.00016937853
-0.00018790617
-0.00012847676
-0.00019568246
-8.6342346e-05
-0.00020158018
-4.3379613e-05
-0.00020554335
-7.4759099e-10
-0.00020753438
4.3378119e-05
-0.00020753439
8.6340855e-05
-0.00020554339
0.00012847528
-0.00020158025
0.00016937705
-0.00019568257
0.00020865355
-0.00018790633
0.00024592757
-0.00017832535
0.00028084092
-0.00016703067
0.00031305786
-0.00015412966
0.00034226829
-0.00013974511
0.00036819077
-0.00012401403
0.00039057517
-0.00010708645
0.00040920518
-8.912399e-05
0.00042390034
-7.0298364e-05
0.00043451787
-5.0789794e-05
0.00044095406
-3.0785301e-05
0.00044314535
-1.0476936e-05
0.00044106899
9.9400378e-06
0.00043474331
3.026902e-05
0.00042422765
5.0313957e-05
0.00040962179
6.9881235e-05
0.00039106508
8.8781579e-05
0.00036873516
0.0001068319
0.00034284628
0.00012385709
0.00031364725
0.00013969179
0.0002814191
0.00015418199
0.00024647236
0.00016718661
0.00020914405
0.00017857889
0.00016979447
0.0001882477
0.00012880361
0.00019609864
8.6567554e-05
0.00020205501
4.3494527e-05
0.00020605859
0.00020807023
-4.4989095e-05
0.00025306033
-8.9544135e-05
0.00025061372
-0.00013323336
0.00024574439
-0.00017563447
0.00023849997
-0.00021633776
0.00022895128
-0.00025495013
0.00021719162
-0.00029109889
0.00020333582
-0.00032443542
0.00018751906
-0.00035463853
0.00016989553
-0.00038141753
0.00015063681
-0.00040451506
0.00012993024
-0.00042370954
0.00010797694
-0.00043881724
8.498988e-05
-0.00044969405
6.119175e-05
-0.00045623676
3.6812748e-05
-0.00045838405
1.2088344e-05
-0.00045611696
-1.2743021e-05
-0.00044945904
-3.7442243e-05
-0.00043847607
-6.1771848e-05
-0.00042327533
-8.5498266e-05
-0.00040400451
-0.00010839405
-0.00038085027
-0.00013024003
-0.00035403638
-0.00015082735
-0.00032382156
-0.00016995946
-0.00029049693
-0.00018745391
-0.00025438325
-0.00020314405
-0.00021582779
-0.00021688058
-0.00017520106
-0.0002285329
-0.00013289321
-0.00023799031
-8.9310379e-05
-0.00024516301
-4.4870778e-05
-0.00024998295
-7.5304201e-10
-0.00025240441
4.4869271e-05
-0.00025240442
8.930887e-05
-0.00024998299
0.0001328917
-0.00024516308
0.00017519955
-0.00023799042
0.00021582629
-0.00022853308
0.00025438177
-0.00021688083
0.0002904955
-0.00020314439
0.00032382018
-0.00018745435
0.00035403509
-0.00016996002
0.00038084909
-0.00015082803
0.00040400347
-0.00013024083
0.00042327445
-0.00010839498
0.00043847539
-8.5499303e-05
0.00044945858
-6.1772977e-05
0.00045611672
-3.7443444e-05
0.00045838405
-1.2744268e-05
0.00045623701
1.2087078e-05
0.00044969454
3.6811491e-05
0.00043881797
6.1190528e-05
0.00042371049
8.4988719e-05
0.00040451621
0.00010797586
0.00038141885
0.00012992925
0.00035464
0.00015063594
0.00032443703
0.00016989477
0.0002911006
0.00018751842
0.00025495191
0.00020333529
0.00021633961
0.00021719119
0.00017563637
0.00022895095
0.00013323529
0.00023849972
8.9546078e-05
0.00024574422
4.4991048e-05
0.00025061362
0.0002530603
-4.6794224e-05
0.00029985556
-9.3136924e-05
0.00029695642
-0.000138579
0.00029118647
-0.00018268118
0.00028260215
-0.0002250173
0.0002712874
-0.00026517847
0.00025735278
-0.00030277704
0.00024093439
-0.00033745041
0.00022219244
-0.00036886451
0.00020130962
-0.00039671702
0.00017848932
-0.00042074027
0.00015395349
-0.00044070383
0.00012794049
-0.00045641664
0.00010070269
-0.00046772883
7.2503947e-05
-0.00047453312
4.3617038e-05
-0.00047676575
1.4320968e-05
-0.00047440703
-1.510174e-05
-0.00046748149
-4.436778e-05
-0.00045605756
-7.3195783e-05
-0.00044024682
-0.00010130901
-0.0004202029
-0.00012843796
-0.00039611996
-0.00015432297
-0.00036823074
-0.00017871657
-0.0003368043
-0.0002013859
-0.00030214345
-0.00022211476
-0.00026458178
-0.00024070572
-0.0002244805
-0.00025698186
-0.00018222495
-0.00027078845
-0.00013822092
-0.00028199433
-9.2890822e-05
-0.00029049311
-4.6669623e-05
-0.00029620415
-7.5559893e-10
-0.00029907327
4.6668109e-05
-0.00029907328
9.2889298e-05
-0.00029620418
0.00013821939
-0.00029049317
0.0001822234
-0.00028199444
0.00022447895
-0.00027078862
0.00026458023
-0.00025698212
0.00030214192
-0.00024070608
0.00033680282
-0.00022211525
0.00036822934
-0.00020138653
0.00039611867
-0.00017871737
0.00042020176
-0.00015432392
0.00044024585
-0.00012843907
0.00045605679
-0.00010131025
0.00046748096
-7.3197145e-05
0.00047440675
-4.4369234e-05
0.00047676573
-1.5103253e-05
0.00047453338
1.4319432e-05
0.00046772936
4.3615514e-05
0.00045641742
7.250247e-05
0.00044070484
0.00010070129
0.0004207415
0.0001279392
0.00039671844
0.00015395232
0.00036886609
0.00017848829
0.00033745212
0.00020130874
0.00030277884
0.0002221917
0.00026518034
0.00024093379
0.00022501923
0.00025735231
0.00018268315
0.00027128703
0.00013858099
0.00028260188
9.313892e-05
0.00029118629
4.6796226e-05
0.00029695632
0.00029985553
-4.8934107e-05
0.00034879069
-9.7395973e-05
0.00034541828
-0.00014491595
0.00033870644
-0.00019103463
0.00032872083
-0.00023530633
0.0003155591
-0.00027730345
0.00029934991
-0.00031662063
0.00028025157
-0.00035287867
0.00025845048
-0.00038572823
0.00023415919
-0.00041485322
0.00020761431
-0.00043997377
0.00017907404
-0.00046084895
0.00014881567
-0.00047727901
0.00011713275
-0.0004891073
8.4332234e-05
-0.00049622165
5.0731397e-05
-0.00049855545
1.6654769e-05
-0.00049608816
-1.7569038e-05
-0.00048884543
-5.1610505e-05
-0.00047689885
-8.5142369e-05
-0.0004603651
-0.00011784275
-0.00043940485
-0.00014939822
-0.0004142211
-0.00017950672
-0.00038505722
-0.00020788045
-0.00035219457
-0.00023424854
-0.00031594978
-0.00025835955
-0.00027667167
-0.00027998383
-0.00023473793
-0.0002989156
-0.00019055151
-0.00031497487
-0.00014453675
-0.0003280091
-9.7135325e-05
-0.00033789453
-4.8802098e-05
-0.00034453738
-7.5280876e-10
-0.00034787462
4.8800586e-05
-0.00034787462
9.7133793e-05
-0.00034453738
0.00014453519
-0.00033789456
0.00019054992
-0.00032800917
0.00023473631
-0.00031497501
0.00027667003
-0.00029891583
0.00031594814
-0.0002799842
0.00035219297
-0.00025836008
0.00038505569
-0.00023424925
0.00041421967
-0.00020788135
0.00043940356
-0.00017950781
0.000460364
-0.00014939951
0.00047689798
-0.00011784422
0.00048884482
-8.5143988e-05
0.00049608782
-5.1612239e-05
0.00049855542
-1.7570848e-05
0.00049622192
1.665293e-05
0.00048910786
5.0729574e-05
0.00047727986
8.4330473e-05
0.00046085006
0.00011713109
0.00043997512
0.00014881414
0.00041485477
0.00017907267
0.00038572994
0.00020761311
0.0003528805
0.00023415818
0.00031662255
0.00025844964
0.00027730544
0.0002802509
0.00023530836
0.00029934939
0.00019103667
0.00031555872
0.000144918
0.00032872056
9.7398027e-05
0.00033870626
4.8936159e-05
0.00034541818
0.00034879066
-5.1446575e-05
0.00040023832
-0.00010239657
0.00039636828
-0.0001523562
0.00038866607
-0.00020084243
0.00037720706
-0.00024738666
0.00036210333
-0.0002915393
0.00034350255
-0.00033287418
0.00032158644
-0.00037099264
0.00029656894
-0.00040552745
0.000268694
-0.00043614629
0.00023823315
-0.00046255501
0.00020548275
-0.00048450035
0.00017076101
-0.00050177241
0.0001344048
-0.00051420652
9.6766352e-05
-0.00052168486
5.8209734e-05
-0.00052413742
1.910733e-05
-0.00052154266
-2.0163805e-05
-0.00051392758
-5.9225581e-05
-0.00050136744
-9.7702504e-05
-0.00048398494
-0.00013522525
-0.00046194896
-0.0001714342
-0.00043547291
-0.00020598277
-0.00040481262
-0.00023854074
-0.00037026387
-0.00026879729
-0.00033215949
-0.00029646393
-0.00029086621
-0.00032127711
-0.00024678107
-0.00034300073
-0.00020032768
-0.00036142826
-0.00015195214
-0.00037638464
-0.00010211879
-0.00038772788
-5.1305835e-05
-0.00039535033
-7.4167749e-10
-0.00039917971
5.1304341e-05
-0.0003991797
0.00010211727
-0.00039535031
0.00015195056
-0.00038772786
0.00020032605
-0.00037638466
0.00024677938
-0.00036142835
0.00029086447
-0.00034300092
0.00033215773
-0.00032127745
0.00037026211
-0.00029646446
0.00040481091
-0.00026879805
0.0004354713
-0.00023854174
0.0004619475
-0.00020598402
0.00048398368
-0.00017143569
0.00050136643
-0.00013522697
0.00051392686
-9.770441e-05
0.00052154225
-5.9227635e-05
0.00052413736
-2.0165953e-05
0.00052168514
1.9105146e-05
0.00051420714
5.8207573e-05
0.00050177335
9.6764269e-05
0.00048450159
0.00013440285
0.0004625565
0.00017075923
0.00043614799
0.00020548118
0.00040552931
0.00023823179
0.00037099463
0.00026869286
0.00033287625
0.00029656802
0.00029154142
0.00032158573
0.00024738879
0.00034350202
0.00020084456
0.00036210295
0.00015235833
0.0003772068
0.00010239868
0.00038866591
5.1448674e-05
0.00039636819
0.00040023829
-5.4387074e-05
0.00045462645
-0.00010824906
0.00045023027
-0.00016106393
0.00044148094
-0.00021232098
0.0004284641
-0.00026152477
0.00041130712
-0.0003082
0.00039017779
-0.00035189613
0.00036528257
-0.00039219173
0.00033686454
-0.00042869862
0.00030520088
-0.00046106555
0.00027060008
-0.00048898161
0.00023339882
-0.00051217918
0.00019395858
-0.00053043643
0.00015266205
-0.0005435794
0.00010990932
-0.00055148359
6.6113925e-05
-0.00055407508
2.1698818e-05
-0.00055133113
-2.2907754e-05
-0.00054328034
-6.7276376e-05
-0.00053000226
-0.00011098058
-0.00051162658
-0.00015360093
-0.00048833183
-0.00019472895
-0.00046034356
-0.00023397104
-0.00042793218
-0.00027095212
-0.00039141032
-0.00030531915
-0.0003511298
-0.00033674445
-0.00030747824
-0.00036492866
-0.00026087536
-0.00038960361
-0.00021176894
-0.00041053468
-0.00016063056
-0.00042752303
-0.00010795109
-0.00044040735
-5.4236027e-05
-0.00044906539
-7.1861688e-10
-0.00045341502
5.4234572e-05
-0.00045341499
0.00010794958
-0.00044906532
0.00016062898
-0.00044040725
0.00021176727
-0.00042752295
0.00026087359
-0.00041053467
0.00030747638
-0.00038960371
0.00035112787
-0.00036492895
0.00039140837
-0.00033674496
0.00042793026
-0.00030531994
0.00046034172
-0.00027095321
0.00048833015
-0.00023397244
0.00051162512
-0.00019473066
0.00053000107
-0.00015360292
0.00054327948
-0.00011098282
0.00055133064
-6.7278797e-05
0.00055407498
-2.2910294e-05
0.00055148389
2.1696234e-05
0.00054358009
6.6111373e-05
0.00053043749
0.00010990687
0.00051218057
0.00015265977
0.00048898328
0.00019395652
0.00046106745
0.00023339701
0.00042870069
0.00027059855
0.00039219392
0.00030519963
0.00035189838
0.00033686356
0.00030820228
0.00036528183
0.00026152703
0.00039017726
0.00021232321
0.00041130677
0.00016106613
0.00042846388
0.00010825123
0.00044148081
5.4389212e-05
0.00045023021
0.00045462643
-5.7835528e-05
0.00051246306
-0.00011511252
0.00050750726
-0.0001712758
0.00049764422
-0.00022578221
0.00048297051
-0.00027810484
0.00046362976
-0.00032773824
0.00043981118
-0.00037420325
0.00041174759
-0.00041705179
0.00037971308
-0.00045587108
0.00034402018
-0.00049028771
0.00030501671
-0.00051997115
0.00026308226
-0.00054463691
0.00021862435
-0.00056404924
0.00017207438
-0.00057802326
0.00012388334
-0.00058642669
7.4517361e-05
-0.00058918102
2.4453143e-05
-0.00058626212
-2.5826652e-05
-0.00057770044
-7.5838061e-05
-0.00056358057
-0.00012510045
-0.0005440404
-0.0001731411
-0.00051926972
-0.00021949964
-0.00048950832
-0.00026373244
-0.00045504369
-0.00030541675
-0.0004162082
-0.00034415464
-0.00037337591
-0.00037957673
-0.00032695898
-0.0004113456
-0.00027740367
-0.00043915892
-0.00022518612
-0.00046275223
-0.00017080779
-0.00048190136
-0.00011479066
-0.00049642448
-5.7672285e-05
-0.00050618376
-6.7939483e-10
-0.00051108663
5.76709e-05
-0.00051108657
0.0001147892
-0.00050618361
0.00017080621
-0.00049642427
0.0002251844
-0.00048190114
0.0002774018
-0.00046275206
0.00032695696
-0.00043915888
0.00037337379
-0.00041134577
0.00041620601
-0.00037957718
0.00045504149
-0.00034415542
0.0004895062
-0.00030541791
0.00051926775
-0.000263734
0.00054403867
-0.00021950158
0.00056357916
-0.0001731434
0.0005776994
-0.00012510307
0.00058626152
-7.5840912e-05
0.00058918088
-2.5829652e-05
0.00058642702
2.4450089e-05
0.00057802405
7.451435e-05
0.00056405045
0.00012388047
0.0005446385
0.00017207172
0.00051997305
0.00021862197
0.00049028986
0.0002630802
0.00045587341
0.00030501501
0.00041705422
0.00034401882
0.00037420572
0.00037971206
0.00032774069
0.00041174686
0.00027810725
0.0004398107
0.00022578455
0.00046362947
0.00017127807
0.00048297036
0.00011511473
0.00049764415
5.7837693e-05
0.00050750724
0.00051246305
-6.1903747e-05
0.00057436788
-0.00012320946
0.00056881298
-0.00018332287
0.00055775763
-0.00024166251
0.00054131015
-0.00029766435
0.0005196316
-0.00035078731
0.00049293414
-0.00040051856
0.00046147884
-0.00044637849
0.00042557301
-0.00048792539
0.00038556707
-0.00052475966
0.00034185098
-0.00055652768
0.00029485027
-0.0005829251
0.00024502177
-0.00060369974
0.00019284902
-0.00061865389
0.00013883749
-0.00062764611
8.3509579e-05
-0.00063059246
2.7399494e-05
-0.0006274672
-2.8951904e-05
-0.00061830296
-8.500231e-05
-0.00060319025
-0.00014021316
-0.00058227663
-0.00019405472
-0.00055576514
-0.00024601113
-0.00052391235
-0.00029558523
-0.00048702586
-0.00034230324
-0.00044546132
-0.00038571918
-0.00039961902
-0.00042541903
-0.00034994001
-0.00046102462
-0.00029690189
-0.00049219704
-0.00024101427
-0.00051863985
-0.00018281384
-0.00054010179
-0.00012285931
-0.00055637901
-6.1726043e-05
-0.00056731703
-6.1908601e-10
-0.00057281205
6.1724767e-05
-0.00057281196
0.00012285792
-0.00056731677
0.00018281229
-0.00055637863
0.00024101251
-0.00054010136
0.00029689991
-0.00051863946
0.00034993781
-0.00049219678
0.00039961664
-0.0004610246
0.00044545882
-0.00042541936
0.00048702331
-0.00038571992
0.00052390986
-0.00034230445
0.00055576281
-0.00029558695
0.00058227456
-0.00024601334
0.00060318855
-0.00019405739
0.0006183017
-0.00014021622
0.00062746646
-8.5005673e-05
0.00063059226
-2.8955455e-05
0.00062764647
2.7395878e-05
0.0006186548
8.3506022e-05
0.00060370116
0.00013883411
0.00058292696
0.00019284592
0.00055652989
0.00024501903
0.00052476215
0.00029484795
0.00048792805
0.00034184911
0.00044638123
0.00038556564
0.0004005213
0.00042557198
0.00035079
0.00046147817
0.00029766694
0.00049293376
0.00024166498
0.00051963144
0.00018332521
0.00054131012
0.0001232117
0.00055775766
6.1905921e-05
0.00056881302
0.0005743679
-6.6742547e-05
0.00064111149
-0.00013284005
0.00063491048
-0.00019765173
0.00062256931
-0.00026055056
0.00060420898
-0.00032092832
0.00058000936
-0.00037820157
0.00055020739
-0.0004318174
0.00051509467
-0.00048125876
0.00047501437
-0.00052604949
0.0004303578
-0.0005657589
0.00038156039
-0.0006000059
0.00032909727
-0.00062846255
0.00027347843
-0.00065085719
0.00021524366
-0.00066697686
0.00015495716
-0.00067666923
9.3201953e-05
-0.00067984396
3.0574221e-05
-0.00067647338
-3.2322484e-05
-0.00066659267
-9.4883017e-05
-0.00065029942
-0.0001565064
-0.00062775262
-0.00021660152
-0.00059917105
-0.00027459269
-0.00056483122
-0.00032992507
-0.0005250646
-0.00038206985
-0.00048025452
-0.00043052926
-0.00043083242
-0.00047484114
-0.00037727372
-0.00051458331
-0.00032009331
-0.00054937745
-0.00025984057
-0.0005788926
-0.00019709413
-0.00060284822
-0.00013245638
-0.00062101676
-6.6547696e-05
-0.00063322572
-5.3197279e-10
-0.00063935921
6.6546581e-05
-0.00063935907
0.00013245512
-0.00063322531
0.00019709263
-0.00062101615
0.00025983877
-0.0006028475
0.0003200912
-0.00057889188
0.00037727129
-0.00054937688
0.00043082971
-0.00051458302
0.00048025162
-0.00047484126
0.0005250616
-0.0004305299
0.00056482824
-0.00038207109
0.00059916824
-0.00032992695
0.00062775011
-0.0002745952
0.00065029734
-0.00021660462
0.00066659113
-0.00015651
0.00067647245
-9.4886999e-05
0.0006798437
-3.2326704e-05
0.00067666966
3.0569923e-05
0.00066697794
9.3197736e-05
0.00065085888
0.00015495317
0.00062846476
0.00021524004
0.00060000851
0.00027347528
0.00056576181
0.00032909465
0.00052605257
0.00038155835
0.0004812619
0.00043035631
0.0004318205
0.00047501339
0.00037820454
0.00051509412
0.00032093111
0.00055020719
0.00026055316
0.00058000939
0.00019765415
0.00060420914
0.00013284231
0.0006225695
6.6744706e-05
0.00063491062
0.00064111154
-7.2547303e-05
0.00071365982
-0.00014439313
0.0007067563
-0.00021484093
0.00069301711
-0.00028320897
0.00067257702
-0.00034883603
0.00064563641
-0.00041108787
0.00061245924
-0.00046936347
0.00057337027
-0.00052310086
0.00052875176
-0.0005717826
0.00047903954
-0.00061494072
0.00042471851
-0.00065216118
0.00036631773
-0.00068308781
0.00030440506
-0.00070742558
0.00023958142
-0.00072494326
0.00017247484
-0.00073547552
0.00010373421
-0.00073892432
3.402302e-05
-0.00073525969
-3.5987118e-05
-0.00072451987
-0.00010562283
-0.00070681089
-0.00017421538
-0.00068230542
-0.000241107
-0.00065124111
-0.000305657
-0.0006139183
-0.00036724788
-0.0005706971
-0.00042529105
-0.00052199398
-0.00047923238
-0.00046827774
-0.00052855738
-0.00041006505
-0.000572796
-0.00034791548
-0.00061152702
-0.00028242615
-0.00064438193
-0.00021422603
-0.00067104834
-0.00014396992
-0.00069127287
-7.23322e-05
-0.00070486343
-4.1130503e-10
-0.000711691
7.2331307e-05
-0.00071169079
0.00014396882
-0.00070486282
0.00021422461
-0.00069127194
0.00028242432
-0.00067104721
0.0003479132
-0.00064438076
0.00041006232
-0.000611526
0.00046827462
-0.00057279532
0.00052199055
-0.0005285572
0.00057069351
-0.00047923286
0.0006139147
-0.00042529229
0.00065123768
-0.00036724993
0.00068230234
-0.00030565986
0.00070680832
-0.00024111061
0.00072451796
-0.00017421964
0.00073525853
-0.00010562757
0.00073892399
-3.599216e-05
0.00073547603
3.4017883e-05
0.00072494457
0.00010372919
0.00070742762
0.00017247012
0.00068309048
0.00023957718
0.00065216433
0.00030440143
0.00061494419
0.00036631479
0.00057178624
0.00042471629
0.00052310452
0.00047903803
0.00046936701
0.00052875089
0.0004110912
0.00057336993
0.00034883908
0.00061245931
0.00028321173
0.00064563674
0.00021484341
0.00067257745
0.00014439539
0.00069301753
7.2549417e-05
0.00070675659
0.00071365993
-7.9560053e-05
0.00079322085
-0.00015835043
0.00078554668
-0.0002356072
0.00077027388
-0.00031058254
0.00074755237
-0.0003825512
0.00071760507
-0.00045081754
0.00068072558
-0.00051472245
0.00063727518
-0.0005736497
0.00058767901
-0.00062703197
0.0005324218
-0.00067435625
0.00047204279
-0.00071516877
0.00040713026
-0.00074907925
0.00033831554
-0.00077576445
0.00026626662
-0.00079497113
0.00019168152
-0.00080651826
0.00011528134
-0.0008102985
3.7803263e-05
-0.00080627909
-4.0006525e-05
-0.00079450198
-0.00011739994
-0.00077508331
-0.00019363406
-0.00074821225
-0.00026797805
-0.00071414919
-0.00033972006
-0.00067322321
-0.00040817386
-0.00062582896
-0.00047268529
-0.00057242294
-0.00053263841
-0.00051351906
-0.00058746126
-0.00044968378
-0.00063663127
-0.0003815307
-0.0006796801
-0.00030971462
-0.00071619801
-0.00023492533
-0.00074583764
-0.00015788098
-0.00076831722
-7.932125e-05
-0.00078342317
-2.4873835e-10
-0.000791012
7.9320656e-05
-0.00079101169
0.00015788011
-0.00078342227
0.00023492401
-0.00076831584
0.00030971275
-0.00074583595
0.00038152821
-0.00071619622
0.00044968067
-0.00067967846
0.00051351538
-0.00063663003
0.00057241883
-0.00058746065
0.00062582459
-0.00053263862
0.00067321878
-0.00047268647
0.00071414494
-0.00040817609
0.00074820842
-0.00033972333
0.0007750801
-0.00026798229
0.00079449958
-0.00019363912
0.00080627764
-0.00011740563
0.00081029807
-4.0012594e-05
0.00080651887
3.7797079e-05
0.00079497275
0.00011527531
0.00077576697
0.0001916759
0.00074908253
0.00026626163
0.00071517262
0.00033831133
0.00067436046
0.00040712695
0.00062703633
0.00047204042
0.00057365403
0.00053242033
0.00051472657
0.00058767835
0.00045082133
0.00063727517
0.00038255458
0.00068072606
0.0003105855
0.00071760582
0.00023560975
0.0007475532
0.00015835267
0.00077027461
7.9562084e-05
0.00078554718
0.00079322103
-8.8065613e-05
0.00088128737
-0.00017527882
0.00087275989
-0.00026079397
0.00085578903
-0.00034378312
0.00083054152
-0.00042344332
0.00079726526
-0.0004990045
0.00075628677
-0.00056973707
0.00070800774
-0.000634959
0.00065290094
-0.00069404246
0.00059150526
-0.00074641987
0.0005244202
-0.00079158925
0.00045229964
-0.00082911897
0.00037584525
-0.00085865162
0.00029579928
-0.00087990728
0.00021293718
-0.00089268586
0.00012805992
-0.0008968688
4.19862e-05
-0.00089241991
-4.4455414e-05
-0.00087938557
-0.00013043428
-0.00085789417
-0.00021512546
-0.00082815483
-0.0002977174
-0.0007904554
-0.00037741949
-0.00074515979
-0.00045346947
-0.00069270451
-0.00052514057
-0.00063359454
-0.00059174838
-0.00056839851
-0.00065265729
-0.0004977433
-0.00070728649
-0.00042230798
-0.00075511542
-0.00034281739
-0.0007956886
-0.00026003511
-0.00082861991
-0.00017475619
-0.00085359614
-8.7799526e-05
-0.00087037983
-3.2892868e-11
-0.0008788115
8.779933e-05
-0.00087881106
0.00017475562
-0.00087037855
0.00026003394
-0.00085359417
0.00034281547
-0.00082861747
0.00042230521
-0.00079568597
0.00049773967
-0.00075511293
0.00056839412
-0.00070728448
0.00063358954
-0.00065265606
0.00069269912
-0.0005917482
0.00074515429
-0.00052514164
0.00079045008
-0.00045347189
0.00082815
-0.00037742325
0.00085789013
-0.00029772241
0.00087938254
-0.00021513154
0.00089241807
-0.00013044116
0.00089686826
-4.4462779e-05
0.00089268664
4.1978698e-05
0.00087990931
0.00012805263
0.00085865478
0.00021293043
0.00082912306
0.00029579336
0.00079159403
0.00037584036
0.00074642506
0.00045229593
0.00069404779
0.00052441769
0.00063496421
0.00059150391
0.00056974195
0.00065290061
0.00049900889