/*--------------------------------*- C++ -*----------------------------------*\
| =========                 |                                                 |
| \\      /  F ield         | OpenFOAM: The Open Source CFD Toolbox           |
|  \\    /   O peration     | Version:  2106                                  |
|   \\  /    A nd           | Website:  www.openfoam.com                      |
|    \\/     M anipulation  |                                                 |
\*---------------------------------------------------------------------------*/
FoamFile
{
    version     2.0;
    format      ascii;
    arch        "LSB;label=32;scalar=64";
    class       volScalarField;
    location    "0.165";
    object      p_rgh;
}
// * * * * * * * * * * * * * * * * * * * * * * * * * * * * * * * * * * * * * //

dimensions      [1 -1 -2 0 0 0 0];

internalField   nonuniform List<scalar> 
32768
(
313.62475
313.64968
313.63823
313.59513
313.51394
313.39242
313.23041
313.02802
312.78569
312.50385
312.18277
311.82264
311.42368
310.98615
310.51028
309.99639
309.44468
308.85515
308.22815
307.56329
306.86146
306.12176
305.34461
304.53207
303.67576
302.79602
301.85478
300.90841
299.89362
298.85227
297.7931
296.65028
295.51179
294.3306
293.07041
291.81871
290.52555
289.15057
287.77509
286.37046
284.89403
283.39509
281.8647
280.2914
278.69168
277.04284
275.34925
273.64959
271.91728
270.12433
268.30521
266.47477
264.60889
262.70707
260.78485
258.84107
256.85276
254.85478
252.85551
250.81021
248.74994
246.68447
244.58905
242.47955
240.37199
238.24727
236.11399
233.9669
231.80352
229.66154
227.4936
225.30882
223.15834
220.98798
218.80815
216.65753
214.48044
212.28467
210.13862
207.99042
205.80355
203.66455
201.5473
199.38415
197.26246
195.16537
193.01299
190.9146
188.87362
186.76684
184.67759
182.66527
180.62401
178.57169
176.58538
174.59232
172.57361
170.61918
168.69551
166.73027
164.79009
162.92078
161.04325
159.13688
157.28581
155.49095
153.65986
151.8167
150.06587
148.35796
146.59262
144.8311
143.16282
141.51827
139.82934
138.1775
136.61266
135.04026
133.43612
131.89231
130.42114
128.93219
127.41825
125.95153
124.5375
123.11442
121.67427
120.28727
118.96546
117.64029
116.29254
114.97275
113.71886
112.474
111.19197
109.93211
108.73486
107.55928
106.36705
105.18307
104.05461
102.96958
101.8772
100.78821
99.738071
98.714623
97.709394
96.716194
95.710062
94.711257
93.744433
92.784893
91.82633
90.884937
89.963029
89.078161
88.226396
87.38986
86.580751
85.780106
84.956741
84.138787
83.349116
82.570678
81.805725
81.077609
80.361763
79.643118
78.974816
78.355075
77.74422
77.102716
76.503724
75.999286
75.498243
74.98919
74.471184
73.930395
73.343829
72.813694
72.483204
72.228792
71.803953
71.413418
71.237599
70.980679
70.60915
70.13087
69.66421
69.291823
69.109862
69.173431
69.325788
69.341213
69.226459
69.201104
69.38054
69.535401
69.603874
69.596569
69.52131
69.3354
69.009163
68.586933
68.082619
67.385087
66.537948
65.733647
64.964808
64.074439
63.151973
62.381607
61.683761
60.834218
59.772537
58.657673
57.521827
56.307094
55.053987
53.801413
52.439175
50.817805
49.096383
47.507912
46.314611
45.697259
44.977426
44.039416
42.39952
39.396823
35.472707
31.766244
30.548692
29.869134
28.951492
28.642811
30.314678
33.956342
30.611303
28.307655
41.60204
2.3207168
1.1660111
1.2365763
1.1487401
0.99953595
0.89765844
0.82511876
0.77081276
0.72977812
0.69851767
0.67480276
0.65722515
0.64482042
0.63699747
0.63344594
313.6037
313.62667
313.61582
313.57404
313.49238
313.37056
313.20845
313.00618
312.76405
312.48224
312.16091
311.80033
311.40084
310.96279
310.48646
309.97196
309.41959
308.8293
308.20173
307.53607
306.8339
306.09326
305.31605
304.50223
303.64657
302.76389
301.82544
300.87498
299.86038
298.82278
297.75586
296.61724
295.48183
294.28613
293.03778
291.78816
290.47525
289.1148
287.74454
286.31846
284.84963
283.36083
281.81592
280.24217
278.64652
276.99127
275.30154
273.60188
271.85544
270.06544
268.25766
266.4173
264.53993
262.64521
260.72566
258.77204
256.78309
254.79212
252.78469
250.73052
248.67748
246.61191
244.51359
242.4002
240.28813
238.17117
236.03349
233.8732
231.72394
229.58462
227.39586
225.22447
223.08085
220.89088
218.71923
216.57281
214.381
212.19897
210.06147
207.88673
205.70488
203.58926
201.44704
199.27777
197.18327
195.06761
192.90893
190.83962
188.77476
186.65172
184.59915
182.58101
180.51047
178.47869
176.50484
174.48798
172.47349
170.54038
168.59979
166.61864
164.69988
162.84172
160.94242
159.02744
157.20261
155.41019
153.55179
151.71682
149.99318
148.26062
146.46702
144.74611
143.10315
141.41092
139.70305
138.10034
136.54119
134.92613
133.32794
131.82139
130.33794
128.81484
127.31789
125.88768
124.46338
123.01341
121.59016
120.22252
118.87744
117.53722
116.21105
114.90455
113.63647
112.37618
111.10427
109.86069
108.66698
107.48554
106.2885
105.10957
103.98308
102.88113
101.77908
100.70121
99.659361
98.632599
97.621168
96.623565
95.628529
94.647743
93.676766
92.705545
91.749398
90.810921
89.894322
89.00921
88.141512
87.298949
86.497856
85.700615
84.888136
84.090727
83.297841
82.494439
81.713243
80.978529
80.265605
79.56849
78.916768
78.288094
77.656959
77.039703
76.47055
75.924913
75.362089
74.819614
74.311171
73.811008
73.3357
72.886511
72.48619
72.100469
71.664177
71.381785
71.213864
70.908452
70.447624
69.946601
69.549183
69.387501
69.319659
69.312629
69.378223
69.39178
69.430134
69.524276
69.63597
69.680924
69.656243
69.593417
69.466332
69.265558
68.952405
68.510797
67.977474
67.288154
66.476606
65.675682
64.854308
63.90375
62.899323
62.042877
61.360626
60.633685
59.636872
58.411816
57.134543
55.805703
54.487872
53.263546
52.047218
50.840102
49.739537
48.402025
46.860128
45.68354
44.005447
41.86919
41.02655
39.223213
36.297432
32.808468
31.214791
27.516641
26.681146
27.722896
27.083341
24.847953
32.644964
55.900966
7.1037589
0.71779841
0.96682167
1.0917347
1.0175039
0.93156769
0.85996128
0.80178338
0.75539866
0.71887133
0.69032154
0.66833482
0.65186286
0.64016915
0.63276708
0.62940938
313.55822
313.58077
313.57012
313.52833
313.44627
313.32403
313.16148
312.95878
312.71618
312.43403
312.11256
311.75204
311.35279
310.915
310.43885
309.92447
309.37221
308.78186
308.15437
307.48827
306.78648
306.04457
305.26878
304.45214
303.59961
302.71242
301.7779
300.82239
299.8092
298.77377
297.69835
296.56855
295.42744
294.22529
292.98907
291.72955
290.40938
289.06389
287.68165
286.24731
284.79406
283.2916
281.73932
280.18135
278.57031
276.90494
275.23047
273.52526
271.76007
269.97956
268.17434
266.31769
264.44275
262.55379
260.62262
258.65766
256.67573
254.69149
252.66732
250.60806
248.56365
246.48901
244.38352
242.27052
240.16662
238.04849
235.88659
233.72761
231.60429
229.43914
227.23752
225.10265
222.93976
220.73094
218.58518
216.42376
214.2127
212.0608
209.92085
207.71495
205.56477
203.45642
201.264
199.12271
197.04996
194.8821
192.75053
190.71434
188.59652
186.4865
184.47338
182.40831
180.32823
178.34434
176.34814
174.3025
172.33089
170.39794
168.41474
166.45824
164.57224
162.68091
160.75402
158.87899
157.07697
155.23597
153.35954
151.58002
149.8667
148.07441
146.27658
144.61167
142.96854
141.23031
139.53553
137.97902
136.40492
134.74648
133.16663
131.70163
130.18954
128.61982
127.1543
125.77602
124.32281
122.82511
121.43504
120.12289
118.74771
117.35301
116.0438
114.79308
113.50731
112.1909
110.93367
109.74362
108.55394
107.33947
106.13542
104.98731
103.87324
102.74995
101.63656
100.57068
99.537564
98.509709
97.487794
96.467921
95.470846
94.513961
93.558442
92.595203
91.647007
90.71577
89.800762
88.899007
88.021306
87.183042
86.365412
85.543419
84.732359
83.9434
83.163549
82.391164
81.63674
80.886374
80.142374
79.448336
78.797018
78.147208
77.509085
76.886782
76.299613
75.76454
75.237271
74.714896
74.208736
73.703581
73.21214
72.766526
72.357491
71.933172
71.543568
71.280473
70.987236
70.607898
70.292272
69.973442
69.658218
69.49717
69.452619
69.459869
69.52887
69.563865
69.611384
69.721906
69.802417
69.867991
69.857032
69.764526
69.539037
69.237196
68.844339
68.339803
67.785376
67.153693
66.490933
65.804053
65.010727
64.055019
62.855178
61.655948
60.703268
59.88507
59.0943
58.252909
57.357815
56.157577
54.645842
53.313854
51.954675
50.366018
49.142146
47.774261
46.489832
46.07102
44.762634
42.375926
42.903225
38.818134
31.097672
27.401377
29.732889
29.835057
25.514017
24.17233
28.321399
37.091991
32.185366
6.4150344
0.11292265
0.55757955
0.79697061
0.87610802
0.87451298
0.84152991
0.80057596
0.76112528
0.72644832
0.69731035
0.6735691
0.65476386
0.64038601
0.63004564
0.62345266
0.62044262
313.48937
313.51151
313.50074
313.45872
313.3762
313.25334
313.09012
312.88667
312.64329
312.36027
312.03787
311.67633
311.27592
310.83688
310.35946
309.84382
309.29026
308.69864
308.0698
307.40246
306.69926
305.95607
305.17918
304.36041
303.50851
302.61671
301.68526
300.72393
299.71142
298.67625
297.59277
296.46873
295.3228
294.1144
292.88391
291.61859
290.29088
288.95042
287.56363
286.12164
284.66923
283.16177
281.6071
280.04777
278.42469
276.75769
275.08861
273.37311
271.59332
269.81991
268.00948
266.14266
264.2686
262.3725
260.43289
258.46168
256.4832
254.49823
252.45541
250.39511
248.35368
246.26692
244.16028
242.04464
239.94213
237.81722
235.63623
233.48768
231.3738
229.18004
226.98435
224.86897
222.6779
220.46851
218.33824
216.15432
213.94169
211.814
209.65689
207.43518
205.3155
203.19275
200.9717
198.86194
196.78107
194.58417
192.48956
190.45487
188.30483
186.22001
184.21882
182.11841
180.03975
178.08229
176.06859
174.00449
172.06524
170.14169
168.121
166.16186
164.31973
162.42255
160.44786
158.59909
156.84086
154.95414
153.04605
151.32268
149.61161
147.75749
145.99486
144.38124
142.67687
140.91371
139.29651
137.75662
136.11991
134.45749
132.92515
131.45336
129.89559
128.33529
126.91627
125.52583
124.04026
122.56154
121.18794
119.84886
118.48092
117.11644
115.78772
114.5211
113.25694
111.94709
110.67481
109.48814
108.31518
107.10692
105.9087
104.76344
103.64463
102.51894
101.40743
100.34586
99.317876
98.290908
97.272716
96.264371
95.262275
94.273921
93.306139
92.356588
91.409123
90.489753
89.60869
88.715689
87.822998
86.99237
86.175271
85.327742
84.512398
83.722309
82.904391
82.116475
81.410247
80.710246
79.970873
79.269895
78.606801
77.919629
77.259213
76.671762
76.103811
75.527603
74.9825
74.490343
74.023398
73.553184
73.077247
72.637245
72.213655
71.743803
71.340062
71.033462
70.681157
70.332183
70.049129
69.737255
69.485245
69.432242
69.453266
69.480528
69.594729
69.742989
69.85991
69.913325
69.954163
69.988388
69.928676
69.830624
69.718169
69.466964
68.972569
68.408142
67.717789
66.818226
65.988596
65.347911
64.672713
63.926139
62.763876
61.616755
60.697315
59.64906
58.506344
57.370477
56.209014
55.153179
53.882848
52.848743
51.43113
50.121731
49.80053
48.639386
46.210781
43.316103
42.308705
41.980326
43.094362
41.426339
34.411962
31.818222
24.427269
9.8555511
2.9111277
0.60716039
1.5734501
1.9911958
-0.24952356
-0.14915212
0.091530265
0.4117498
0.61699467
0.71198327
0.74736599
0.74768461
0.73199538
0.7104559
0.68818565
0.6675992
0.6497495
0.63500408
0.62341114
0.61491583
0.60944288
0.60692689
313.3972
313.41898
313.40789
313.36533
313.28213
313.15845
312.99429
312.78984
312.54537
312.26118
311.93757
311.5748
311.17313
310.73281
310.2541
309.73718
309.18235
308.58949
307.95937
307.29079
306.58629
305.84175
305.06372
304.2432
303.3907
302.49636
301.56492
300.60065
299.58699
298.55097
297.46198
296.34119
295.18986
293.97667
292.75153
291.47567
290.1452
288.80829
287.41215
285.96497
284.51345
282.9995
281.43933
279.87736
278.2451
276.57557
274.90502
273.17803
271.39075
269.61768
267.79634
265.92766
264.04735
262.13721
260.19755
258.21932
256.23917
254.24714
252.18822
250.13099
248.08324
245.98779
243.88432
241.75601
239.65232
237.52065
235.32593
233.19005
231.07241
228.85875
226.67577
224.55737
222.34288
220.14574
218.01899
215.81481
213.61016
211.50063
209.31636
207.08602
204.99847
202.84967
200.61072
198.54091
196.44116
194.22223
192.15581
190.11086
187.94664
185.88222
183.87424
181.76043
179.70001
177.74529
175.71254
173.66106
171.73203
169.7866
167.77089
165.82773
163.97289
162.0573
160.09855
158.26866
156.48462
154.58967
152.71882
151.00471
149.25652
147.38888
145.65466
144.06393
142.34765
140.55184
138.9467
137.45379
135.79447
134.09672
132.61477
131.15939
129.53098
127.97057
126.621
125.21723
123.67976
122.24236
120.93121
119.54011
118.10239
116.77349
115.50267
114.21772
112.90878
111.62821
110.40856
109.20913
107.99444
106.77977
105.61743
104.49342
103.35107
102.21288
101.12377
100.06692
99.016778
97.990632
96.987744
95.990876
95.011256
94.033834
93.036436
92.052809
91.119962
90.213697
89.298489
88.410739
87.567695
86.749689
85.927761
85.088391
84.27635
83.508707
82.709356
81.883702
81.112198
80.379656
79.671081
79.017095
78.359705
77.65574
76.965989
76.359256
75.807759
75.255009
74.728776
74.237663
73.779668
73.343088
72.901967
72.46597
72.003366
71.539599
71.15744
70.766333
70.328232
69.99045
69.706405
69.450734
69.37594
69.418858
69.443396
69.521671
69.775362
69.968951
70.028778
70.1321
70.246277
70.268514
70.03447
69.867816
69.80908
69.535186
68.940518
68.302981
67.496908
66.67566
66.001015
65.415841
64.471241
63.478524
61.473768
59.818496
59.375943
59.315244
58.590795
57.224159
55.584534
54.154946
52.50423
51.498517
50.336273
50.07166
46.022663
45.980739
46.282014
40.145155
41.479584
47.454052
43.049879
18.471019
2.8603748
-0.10606933
-0.091327371
0.041389401
0.12607131
0.0006505511
-0.18158589
-0.27683027
-0.23007419
-0.06580344
0.14236658
0.3474011
0.503018
0.59486569
0.64311184
0.66206227
0.66385225
0.65661728
0.64531577
0.63290214
0.62103887
0.61060906
0.60208138
0.59566593
0.59147993
0.58955169
313.28188
313.30326
313.29166
313.24833
313.16423
313.0395
312.87417
312.66846
312.42264
312.13703
311.81193
311.44762
311.04439
310.60247
310.12214
309.60358
309.04706
308.45254
307.82063
307.15043
306.44398
305.69789
304.91777
304.09555
303.24127
302.34445
301.41197
300.44462
299.42906
298.39135
297.29744
296.1777
295.02056
293.80422
292.57969
291.29346
289.96406
288.62354
287.21761
285.7704
284.31334
282.78889
281.23005
279.65858
278.01383
276.34748
274.66993
272.92263
271.13888
269.36034
267.52077
265.6544
263.76325
261.83877
259.89811
257.90977
255.93053
253.91955
251.84837
249.80044
247.73542
245.63347
243.53034
241.38852
239.27879
237.13891
234.94198
232.81147
230.67107
228.45628
226.2915
224.14152
221.92202
219.74496
217.5998
215.38541
213.19527
211.08893
208.87717
206.6455
204.57725
202.41184
200.17283
198.11722
196.00038
193.78084
191.72382
189.66652
187.49386
185.43776
183.42931
181.30271
179.2549
177.31567
175.25599
173.20634
171.31507
169.34745
167.28949
165.38209
163.56346
161.59628
159.62824
157.8573
156.04634
154.08482
152.26692
150.61411
148.79474
146.91863
145.24486
143.61091
141.88395
140.15703
138.52332
136.97431
135.34705
133.68009
132.19052
130.74289
129.12221
127.55036
126.17924
124.77051
123.25661
121.83171
120.51705
119.14685
117.71889
116.33267
115.05029
113.82261
112.50791
111.17803
109.98932
108.85496
107.62903
106.38179
105.22284
104.10974
102.96811
101.81455
100.72839
99.713737
98.664525
97.588409
96.594705
95.633327
94.626668
93.659745
92.724622
91.703531
90.729525
89.887613
88.991419
88.040749
87.182786
86.383081
85.545159
84.705448
83.929065
83.178489
82.386986
81.605524
80.872769
80.088558
79.287558
78.601624
77.957359
77.26288
76.589218
75.987573
75.441979
74.900608
74.386562
73.927159
73.456621
73.014637
72.575407
72.133575
71.719023
71.253229
70.812322
70.417858
69.99554
69.685089
69.459476
69.182078
69.038823
69.119326
69.214065
69.374914
69.741254
70.13629
70.314761
70.389154
70.465873
70.582413
70.442
70.210005
70.00275
69.723695
69.103755
68.444379
67.526366
66.396878
65.199869
64.775692
64.462616
64.395729
61.983466
59.3609
58.236704
57.65982
56.737983
57.012593
56.390386
53.882289
50.948535
44.833665
37.492431
35.893909
38.115987
31.105736
12.748299
1.3252267
-0.31949307
-0.25736229
-0.12143207
0.010180111
0.015502774
-0.021332968
-0.029134559
0.047879117
0.059134251
-0.091394752
-0.22007948
-0.17227956
-0.088198753
0.029149737
0.17212474
0.31371713
0.42918867
0.50967265
0.5603616
0.58839133
0.60100566
0.60395077
0.60131267
0.59588141
0.58944698
0.58312438
0.57760032
0.57327631
0.57040364
0.56908439
313.14364
313.16459
313.15232
313.10798
313.02274
312.89673
312.72999
312.52275
312.2753
311.98798
311.66111
311.29497
310.88986
310.44604
309.96377
309.44325
308.88473
308.28823
307.65425
306.98211
306.27341
305.52549
304.74284
303.91887
303.062
302.16299
301.2286
300.2578
299.24083
298.19959
297.10179
295.98224
294.81696
293.60038
292.37275
291.07627
289.749
288.40189
286.98558
285.53821
284.07456
282.53724
280.98118
279.39313
277.74224
276.07607
274.38379
272.61579
270.84409
269.05059
267.19056
265.32536
263.42142
261.48617
259.54112
257.53784
255.55845
253.52262
251.44483
249.40811
247.31938
245.20852
243.09994
240.95305
238.82728
236.682
234.49719
232.35753
230.18354
227.97797
225.82486
223.64369
221.43109
219.26475
217.10307
214.87346
212.69378
210.59687
208.35049
206.12919
204.07979
201.87384
199.65664
197.62842
195.46036
193.24082
191.22167
189.14952
186.9546
184.9111
182.90959
180.76994
178.72986
176.79377
174.71391
172.67131
170.79394
168.8121
166.7497
164.85575
163.03449
161.06766
159.11152
157.33363
155.5197
153.55569
151.73265
150.09355
148.27174
146.38835
144.73142
143.08345
141.32777
139.64337
138.07587
136.48336
134.78067
133.15931
131.71311
130.21141
128.61397
127.14606
125.72741
124.19072
122.70834
121.37125
120.01791
118.62111
117.2813
115.91272
114.56712
113.33177
112.05677
110.71345
109.48175
108.35443
107.14874
105.91618
104.77849
103.67567
102.54495
101.39277
100.27083
99.239289
98.227501
97.169253
96.146115
95.186565
94.193184
93.19835
92.272063
91.302974
90.324755
89.441273
88.586836
87.728793
86.86194
85.993256
85.140723
84.29597
83.489922
82.733942
81.964082
81.188356
80.465238
79.741901
78.978082
78.234213
77.532086
76.831062
76.145604
75.560453
75.02822
74.539157
74.054995
73.574594
73.130777
72.704827
72.247629
71.802621
71.364587
70.895772
70.423882
69.958068
69.489502
69.131061
69.009281
68.866093
68.822831
68.977151
69.204297
69.517318
69.935421
70.258697
70.559571
70.762721
70.837592
70.867407
70.923708
70.5854
70.383709
69.962814
69.292569
68.258946
66.650923
66.052689
66.266711
64.958551
63.468744
57.820423
50.156783
42.912748
36.17942
28.77209
22.810261
22.209541
22.756133
14.222613
2.1058149
-0.42594122
-0.44851761
-0.42564684
-0.38726706
-0.29815964
-0.22147085
-0.16662766
-0.16038203
-0.1953617
-0.16055629
-0.076536007
-0.043615826
-0.049991096
-0.024025329
0.019394299
0.032552891
-0.01430651
-0.074012457
-0.056077438
0.003772723
0.087738356
0.18902408
0.29095661
0.379169
0.44715466
0.49527696
0.52662013
0.54520553
0.55479796
0.55847108
0.55853283
0.55662639
0.55389029
0.55107888
0.54869437
0.54706039
0.54632067
312.98276
313.00319
312.99011
312.94455
312.85795
312.7304
312.56199
312.35295
312.10361
311.81429
311.48534
311.11706
310.70975
310.2637
309.77916
309.25634
308.69549
308.09667
307.46027
306.78583
306.07455
305.32443
304.53895
303.71279
302.85307
301.95135
301.01471
300.04013
299.02134
297.97583
296.87485
295.75281
294.58026
293.36405
292.12883
290.82562
289.49912
288.14049
286.71684
285.26809
283.79493
282.2432
280.6913
279.08201
277.42871
275.75501
274.04592
272.26494
270.4994
268.67952
266.80991
264.93947
263.02153
261.07413
259.12093
257.10477
255.11478
253.06225
250.98052
248.93807
246.83146
244.71032
242.5914
240.4507
238.30063
236.14887
233.97551
231.81031
229.62148
227.43254
225.26234
223.06869
220.87411
218.6807
216.5201
214.29018
212.09483
210.01349
207.74795
205.52382
203.50113
201.26325
199.02123
197.03687
194.85971
192.60226
190.60964
188.54748
186.33408
184.29739
182.30013
180.15045
178.11803
176.17369
174.08169
172.06041
170.19042
168.17166
166.1159
164.27277
162.41524
160.41369
158.50827
156.73439
154.85394
152.91515
151.16785
149.45309
147.60426
145.82931
144.14005
142.43089
140.72612
139.01716
137.43536
135.92549
134.21547
132.54434
131.1218
129.58267
127.94579
126.56375
125.21085
123.63013
122.1222
120.79428
119.40232
117.98712
116.68443
115.36904
114.03606
112.7985
111.54154
110.19878
108.9335
107.75795
106.54343
105.33942
104.20147
103.09635
102.02629
100.92743
99.797781
98.733677
97.675125
96.631308
95.667391
94.670502
93.638825
92.700528
91.771746
90.734682
89.828095
89.006884
88.020256
87.183296
86.471397
85.616111
84.732862
83.863404
83.056112
82.290555
81.427208
80.591415
79.892051
79.1823
78.383548
77.771607
77.181796
76.394094
75.624394
75.061789
74.588487
74.082429
73.64199
73.218099
72.826419
72.364265
71.845681
71.509252
71.144079
70.482605
69.894132
69.288701
67.196366
65.17558
63.508054
62.244556
61.637126
61.964963
63.566881
66.461245
69.487797
70.151726
70.897653
71.370653
71.494157
71.338201
71.191289
71.030957
70.44009
66.884521
61.51617
53.898267
44.531174
36.257293
29.879661
20.570408
8.3815308
0.19103348
-0.38509957
-0.3258639
-0.30873648
-0.3173731
-0.31183552
-0.29526301
-0.24304484
-0.19270601
-0.18915934
-0.22305227
-0.30929964
-0.37230364
-0.38074412
-0.32129035
-0.23634779
-0.18990323
-0.20709033
-0.18222895
-0.13247468
-0.084929832
-0.05916698
-0.045093321
-0.024039722
-0.00033215612
0.0078920225
-0.0031347209
-0.0096679653
0.01154697
0.057743067
0.12198508
0.19715218
0.27434752
0.34332243
0.40012358
0.44374218
0.47519568
0.49654432
0.51012071
0.51807379
0.52217438
0.52380426
0.5239927
0.5234796
0.52277933
0.52223646
0.5220179
312.79955
312.8194
312.80536
312.75838
312.67018
312.54085
312.37049
312.15938
311.90784
311.61622
311.28488
310.91414
310.50431
310.05569
309.56855
309.0431
308.47958
307.8781
307.23897
306.5619
305.84774
305.09506
304.30645
303.47779
302.61479
301.71017
300.77086
299.79188
298.77174
297.72034
296.61709
295.49103
294.31074
293.09556
291.85031
290.54125
289.21462
287.84065
286.41365
284.95946
283.47405
281.91129
280.3576
278.72859
277.07078
275.38695
273.65851
271.86961
270.1008
268.25053
266.38238
264.49069
262.56541
260.60706
258.63484
256.61174
254.59638
252.54269
250.4558
248.38812
246.27455
244.14553
242.00449
239.87539
237.70514
235.52601
233.37968
231.18832
228.98023
226.80518
224.6186
222.41896
220.22602
218.01877
215.84809
213.61663
211.43023
209.33541
207.0516
204.85462
202.82018
200.55064
198.33261
196.34718
194.14168
191.90881
189.93697
187.82055
185.60849
183.61773
181.59625
179.43404
177.43408
175.4566
173.35282
171.37431
169.47845
167.45025
165.43342
163.5777
161.70438
159.71316
157.79069
156.04514
154.15749
152.16916
150.4802
148.75999
146.84241
145.14244
143.48408
141.71284
140.03991
138.33449
136.68761
135.20091
133.5638
131.90713
130.45988
128.88959
127.25144
125.86404
124.48008
122.95307
121.54492
120.21284
118.7425
117.31561
116.00762
114.68739
113.37682
112.15289
110.91571
109.61904
108.40174
107.16965
105.87501
104.70219
103.59225
102.42055
101.32158
100.28343
99.234785
98.236373
97.131437
96.002477
95.11084
94.18364
93.070438
92.075988
91.19552
90.15188
89.178957
88.460639
87.496919
86.568653
85.881133
85.098991
84.313724
83.448282
82.51221
81.831068
81.071502
79.98449
79.069014
78.138718
72.855209
67.064484
61.728359
56.224778
50.766503
45.810768
41.233728
36.892321
32.747957
28.782818
24.970096
21.28451
17.739082
14.324494
10.863769
7.2381949
3.6456293
0.51916729
-0.17253222
-0.17774879
-0.16861182
-0.1552098
-0.12922831
-0.090208501
-0.023698254
0.075621848
0.25717793
1.8999905
4.4477916
6.2608205
7.1606173
6.8945625
5.4236868
3.0074771
0.26405778
-0.17974032
-0.20367993
-0.22906729
-0.23264436
-0.20153
-0.1282529
-0.018340379
0.086039192
0.036357349
-0.094904705
-0.18968285
-0.23112465
-0.26583183
-0.28992869
-0.2962317
-0.26663958
-0.21568223
-0.22947997
-0.30155735
-0.31974692
-0.32057878
-0.30329746
-0.26620892
-0.22002301
-0.18960125
-0.17838773
-0.15485973
-0.1200948
-0.086637208
-0.061743045
-0.042060452
-0.02234949
-0.0042173334
0.0076579221
0.014080622
0.024839295
0.050629731
0.090417142
0.14142364
0.19865013
0.2617711
0.31605261
0.36350798
0.40224899
0.43222378
0.45437534
0.47005357
0.48068908
0.48757964
0.49181687
0.49426606
0.49559096
0.49626885
0.49663126
0.49685677
312.5944
312.61356
312.59842
312.54981
312.45978
312.3284
312.15583
311.94235
311.68831
311.39408
311.06002
310.68649
310.27381
309.82229
309.3322
308.80378
308.23727
307.6328
306.99061
306.31056
305.59324
304.83764
304.04565
303.21408
302.34756
301.43964
300.49726
299.51381
298.49154
297.43436
296.32854
295.19666
294.01041
292.79364
291.53763
290.22435
288.89446
287.50328
286.07615
284.61294
283.11035
281.54442
279.97687
278.33491
276.66791
274.97062
273.22091
271.43134
269.64453
267.76491
265.90392
263.98305
262.05109
260.07744
258.08568
256.05868
254.00763
251.96186
249.86019
247.75886
245.65088
243.51125
241.3497
239.22634
237.02354
234.82977
232.70985
230.47535
228.26772
226.08831
223.88411
221.70769
219.47125
217.27028
215.1103
212.85033
210.68495
208.56933
206.25489
204.10923
202.06467
199.72132
197.56283
195.59957
193.31541
191.1147
189.18562
187.01643
184.78746
182.82584
180.80766
178.63863
176.64929
174.67398
172.53679
170.58709
168.68592
166.61088
164.65758
162.81095
160.88401
158.92136
156.99472
155.23395
153.38462
151.39738
149.67214
147.94604
146.05466
144.34642
142.67686
140.94883
139.28663
137.55238
135.89506
134.38189
132.74903
131.16294
129.7214
128.12386
126.5325
125.13974
123.63853
122.09927
120.79091
119.47616
118.0256
116.66968
115.33639
113.94331
112.65407
111.44154
110.1248
108.798
107.7032
106.54585
105.21037
104.02347
102.94224
101.77277
100.62263
99.46543
98.378137
97.561039
96.498196
95.299283
94.356698
93.574539
92.500905
91.395813
90.642809
89.533978
88.234131
87.466951
81.716719
73.527133
65.835542
58.368448
50.862177
43.2386
35.671414
28.492485
21.326347
14.064511
7.2112106
1.113655
-0.11867778
-0.16292809
-0.20131248
-0.23987262
-0.26921016
-0.28847844
-0.29125439
-0.27168968
-0.23724255
-0.19926644
-0.16540136
-0.13895573
-0.12152501
-0.11741175
-0.12774346
-0.14219168
-0.15368129
-0.16335163
-0.16841885
-0.16856347
-0.15999102
-0.15061202
-0.14390295
-0.1339966
-0.11641317
-0.091920186
-0.11687863
-0.19550875
-0.20305552
-0.20395285
-0.20023893
-0.18730884
-0.17155453
-0.1656441
-0.15955155
-0.16438205
-0.19601624
-0.23420167
-0.24733957
-0.21538636
-0.14405175
-0.0545639
0.011606639
-0.0078527209
-0.11552877
-0.1870783
-0.23248609
-0.24808494
-0.25432237
-0.24891386
-0.23022548
-0.20966485
-0.21043542
-0.23320877
-0.26181272
-0.26883397
-0.25721167
-0.23273308
-0.20354104
-0.17884012
-0.15915065
-0.13614824
-0.10897534
-0.08219091
-0.058817886
-0.037964441
-0.018272693
-0.00042446806
0.014692502
0.029057403
0.047764891
0.07441918
0.10971437
0.15217736
0.19915178
0.24802218
0.29340305
0.33381496
0.36810025
0.3959682
0.41778274
0.43430344
0.4464497
0.45513527
0.46118387
0.46528944
0.46800572
0.46975458
0.47083034
0.47140983
312.3677
312.3861
312.3697
312.31925
312.22715
312.09347
311.9184
311.70224
311.44539
311.14821
310.8111
310.43443
310.01855
309.56378
309.07041
308.53869
307.96885
307.36105
306.71549
306.03213
305.31137
304.5525
303.75688
302.92209
302.05171
301.14036
300.1943
299.20639
298.18147
297.11801
296.00995
294.87083
293.67945
292.45882
291.19202
289.87549
288.5377
287.13274
285.70262
284.22844
282.70692
281.13991
279.55348
277.89807
276.21937
274.50782
272.73643
270.94754
269.12263
267.23744
265.36752
263.42158
261.46965
259.48615
257.47897
255.44075
253.35512
251.31414
249.18784
247.05912
244.9641
242.78828
240.62208
238.50908
236.25485
234.07188
231.95571
229.66311
227.49002
225.32134
223.03863
220.88971
218.6715
216.41878
214.27376
212.0348
209.83302
207.69408
205.40904
203.2621
201.18685
198.86353
196.70679
194.71023
192.43775
190.25517
188.288
186.12541
183.92619
181.92312
179.91362
177.7946
175.74911
173.78108
171.68886
169.68439
167.7875
165.75215
163.77542
161.91484
160.00451
158.02833
156.12039
154.35228
152.45884
150.5336
148.81872
147.00887
145.17349
143.48379
141.73512
140.08914
138.47304
136.68874
135.0752
133.52369
131.79544
130.28476
128.89442
127.25617
125.73366
124.38088
122.76654
121.21885
119.98094
118.57591
117.10081
115.92507
114.65121
113.15958
111.86865
110.75556
109.41949
107.88927
106.7565
105.70263
104.39858
103.29919
102.26668
101.02221
100.02541
98.862027
97.357862
96.708219
90.617859
80.073091
69.993127
60.186886
50.289425
40.506082
30.973301
21.358295
11.90833
3.0270956
0.0049253995
0.0032656605
0.013319354
0.017978132
0.020742472
0.023119843
0.022884085
0.020906646
0.01163364
-0.0079208835
-0.036799779
-0.073217689
-0.11132453
-0.16138754
-0.21008518
-0.25294402
-0.28670784
-0.30215429
-0.29840966
-0.2752955
-0.23173181
-0.18490621
-0.14787541
-0.12271504
-0.11081635
-0.11465971
-0.12598328
-0.14069121
-0.1537865
-0.16370052
-0.16975865
-0.16872779
-0.15602982
-0.13436078
-0.10999791
-0.089397744
-0.07818368
-0.099956942
-0.15782665
-0.22232519
-0.22802791
-0.20960959
-0.19546424
-0.17737201
-0.16586267
-0.16146235
-0.15846819
-0.16925162
-0.19976011
-0.23075047
-0.23843853
-0.21077791
-0.15198115
-0.087307372
-0.045440907
-0.047790869
-0.093799201
-0.14254661
-0.18338303
-0.21197804
-0.22552291
-0.22685981
-0.21884928
-0.21070601
-0.21285695
-0.22236129
-0.23002386
-0.23085336
-0.22175649
-0.20470991
-0.18403365
-0.1632962
-0.14299433
-0.12114147
-0.097864352
-0.074759225
-0.05299729
-0.03257223
-0.013078318
0.0054993534
0.02310022
0.04125543
0.062587268
0.088918996
0.12064868
0.15694801
0.19616613
0.2361812
0.27432396
0.309057
0.33940402
0.36497685
0.3858435
0.40241254
0.41524808
0.42497431
0.43219036
0.43743331
0.44114684
0.44368482
0.44529383
0.44613881
312.11992
312.13747
312.11966
312.06717
311.97275
311.83649
311.6586
311.43945
311.17944
310.87897
310.53846
310.15831
309.73888
309.28051
308.78351
308.24814
307.67464
307.06319
306.41395
305.72695
305.00246
304.24002
303.44051
302.60219
301.72771
300.81267
299.86255
298.87011
297.84182
296.77224
295.66132
294.5147
293.31849
292.09173
290.81429
289.49562
288.14436
286.73063
285.29311
283.80459
282.26789
280.69636
279.08607
277.42111