/*--------------------------------*- C++ -*----------------------------------*\
| =========                 |                                                 |
| \\      /  F ield         | OpenFOAM: The Open Source CFD Toolbox           |
|  \\    /   O peration     | Version:  2106                                  |
|   \\  /    A nd           | Website:  www.openfoam.com                      |
|    \\/     M anipulation  |                                                 |
\*---------------------------------------------------------------------------*/
FoamFile
{
    version     2.0;
    format      ascii;
    arch        "LSB;label=32;scalar=64";
    class       volScalarField;
    location    "4";
    object      p;
}
// * * * * * * * * * * * * * * * * * * * * * * * * * * * * * * * * * * * * * //

dimensions      [1 -1 -2 0 0 0 0];

internalField   nonuniform List<scalar> 
90000
(
0
8.79703e-06
2.6515e-05
5.30864e-05
8.84574e-05
0.000132576
0.000185375
0.000246771
0.000316665
0.000394947
0.00048149
0.00057616
0.000678806
0.000789265
0.000907362
0.00103291
0.00116571
0.00130554
0.00145218
0.0016054
0.00176494
0.00193055
0.00210195
0.00227887
0.00246101
0.00264806
0.00283973
0.00303568
0.0032356
0.00343914
0.00364596
0.00385571
0.00406803
0.00428256
0.00449893
0.00471677
0.00493569
0.00515532
0.00537527
0.00559516
0.0058146
0.00603319
0.00625055
0.00646629
0.00668002
0.00689136
0.00709992
0.00730533
0.0075072
0.00770518
0.00789888
0.00808797
0.00827208
0.00845088
0.00862403
0.0087912
0.00895209
0.00910639
0.00925381
0.00939407
0.00952691
0.00965207
0.00976931
0.00987841
0.00997916
0.0100714
0.0101549
0.0102295
0.0102951
0.0103515
0.0103987
0.0104365
0.0104649
0.0104839
0.0104933
0.0104933
0.0104839
0.0104649
0.0104365
0.0103987
0.0103515
0.0102951
0.0102295
0.0101549
0.0100714
0.00997915
0.0098784
0.0097693
0.00965206
0.0095269
0.00939406
0.0092538
0.00910638
0.00895208
0.00879119
0.00862401
0.00845086
0.00827206
0.00808795
0.00789886
0.00770515
0.00750718
0.0073053
0.0070999
0.00689134
0.00668
0.00646626
0.00625052
0.00603316
0.00581457
0.00559513
0.00537524
0.00515529
0.00493566
0.00471674
0.0044989
0.00428253
0.004068
0.00385568
0.00364593
0.00343911
0.00323557
0.00303565
0.0028397
0.00264804
0.00246098
0.00227885
0.00210193
0.00193053
0.00176492
0.00160538
0.00145216
0.00130552
0.00116568
0.00103289
0.000907342
0.000789247
0.000678793
0.000576154
0.000481494
0.000394963
0.000316697
0.00024682
0.000185442
0.000132659
8.85528e-05
5.31902e-05
2.66233e-05
8.89443e-06
3.39964e-08
-0.0066758
-0.00666695
-0.0066492
-0.00662259
-0.00658716
-0.00654297
-0.00649008
-0.00642858
-0.00635857
-0.00628016
-0.00619347
-0.00609864
-0.00599583
-0.00588518
-0.00576689
-0.00564113
-0.00550811
-0.00536804
-0.00522115
-0.00506767
-0.00490786
-0.00474197
-0.00457028
-0.00439306
-0.00421062
-0.00402324
-0.00383125
-0.00363496
-0.00343471
-0.00323082
-0.00302364
-0.00281353
-0.00260084
-0.00238594
-0.0021692
-0.00195098
-0.00173168
-0.00151167
-0.00129133
-0.00107106
-0.000851243
-0.00063227
-0.000414531
-0.000198415
1.56885e-05
0.000227394
0.000436318
0.000642081
0.000844306
0.00104262
0.00123667
0.00142608
0.00161052
0.00178962
0.00196307
0.00213054
0.00229171
0.00244628
0.00259395
0.00273446
0.00286752
0.0029929
0.00311034
0.00321963
0.00332056
0.00341293
0.00349657
0.00357131
0.00363701
0.00369355
0.00374082
0.00377872
0.00380718
0.00382615
0.00383558
0.00383558
0.00382615
0.00380718
0.00377872
0.00374081
0.00369355
0.00363701
0.0035713
0.00349656
0.00341292
0.00332055
0.00321962
0.00311033
0.00299288
0.00286751
0.00273444
0.00259394
0.00244626
0.00229169
0.00213052
0.00196305
0.0017896
0.0016105
0.00142606
0.00123665
0.0010426
0.000844284
0.000642058
0.000436295
0.00022737
1.56637e-05
-0.00019844
-0.000414557
-0.000632296
-0.00085127
-0.00107109
-0.00129136
-0.0015117
-0.00173171
-0.00195101
-0.00216923
-0.00238597
-0.00260087
-0.00281356
-0.00302367
-0.00323084
-0.00343473
-0.00363499
-0.00383128
-0.00402327
-0.00421064
-0.00439309
-0.0045703
-0.00474199
-0.00490788
-0.0050677
-0.00522117
-0.00536806
-0.00550813
-0.00564115
-0.00576691
-0.0058852
-0.00599584
-0.00609865
-0.00619347
-0.00628014
-0.00635854
-0.00642853
-0.00649001
-0.00654289
-0.00658707
-0.00662248
-0.00664908
-0.00666683
-0.0066757
-0.0133608
-0.0133519
-0.0133341
-0.0133074
-0.0132719
-0.0132276
-0.0131745
-0.0131128
-0.0130425
-0.0129639
-0.0128769
-0.0127817
-0.0126786
-0.0125675
-0.0124489
-0.0123227
-0.0121892
-0.0120486
-0.0119013
-0.0117473
-0.0115869
-0.0114204
-0.0112482
-0.0110703
-0.0108873
-0.0106993
-0.0105066
-0.0103096
-0.0101087
-0.0099041
-0.0096962
-0.00948537
-0.00927194
-0.0090563
-0.0088388
-0.00861983
-0.00839976
-0.00817898
-0.00795787
-0.00773683
-0.00751625
-0.00729651
-0.00707801
-0.00686114
-0.00664629
-0.00643384
-0.00622418
-0.0060177
-0.00581477
-0.00561576
-0.00542103
-0.00523095
-0.00504587
-0.00486614
-0.00469208
-0.00452403
-0.00436229
-0.00420718
-0.00405899
-0.00391799
-0.00378445
-0.00365864
-0.00354078
-0.00343111
-0.00332983
-0.00323713
-0.0031532
-0.0030782
-0.00301226
-0.00295552
-0.00290809
-0.00287006
-0.00284149
-0.00282246
-0.00281299
-0.00281299
-0.00282246
-0.00284149
-0.00287006
-0.0029081
-0.00295553
-0.00301227
-0.0030782
-0.00315321
-0.00323714
-0.00332983
-0.00343112
-0.00354079
-0.00365865
-0.00378447
-0.003918
-0.004059
-0.0042072
-0.00436231
-0.00452404
-0.0046921
-0.00486616
-0.00504589
-0.00523097
-0.00542105
-0.00561578
-0.00581479
-0.00601772
-0.00622421
-0.00643386
-0.00664631
-0.00686116
-0.00707803
-0.00729654
-0.00751627
-0.00773686
-0.0079579
-0.00817901
-0.00839979
-0.00861985
-0.00883883
-0.00905632
-0.00927197
-0.00948539
-0.00969623
-0.00990412
-0.0101087
-0.0103097
-0.0105066
-0.0106993
-0.0108873
-0.0110704
-0.0112482
-0.0114205
-0.0115869
-0.0117473
-0.0119013
-0.0120487
-0.0121892
-0.0123227
-0.0124489
-0.0125676
-0.0126786
-0.0127817
-0.0128769
-0.0129638
-0.0130425
-0.0131127
-0.0131744
-0.0132275
-0.0132718
-0.0133074
-0.013334
-0.0133518
-0.0133607
-0.0200552
-0.0200463
-0.0200284
-0.0200015
-0.0199658
-0.0199212
-0.0198679
-0.0198059
-0.0197353
-0.0196562
-0.0195688
-0.0194731
-0.0193695
-0.0192579
-0.0191386
-0.0190117
-0.0188776
-0.0187363
-0.0185882
-0.0184334
-0.0182722
-0.0181049
-0.0179317
-0.017753
-0.017569
-0.01738
-0.0171863
-0.0169884
-0.0167864
-0.0165807
-0.0163717
-0.0161598
-0.0159453
-0.0157285
-0.0155099
-0.0152898
-0.0150686
-0.0148466
-0.0146244
-0.0144022
-0.0141804
-0.0139595
-0.0137399
-0.0135219
-0.0133059
-0.0130923
-0.0128816
-0.012674
-0.01247
-0.0122699
-0.0120742
-0.0118831
-0.0116971
-0.0115164
-0.0113414
-0.0111725
-0.0110099
-0.0108539
-0.010705
-0.0105632
-0.010429
-0.0103025
-0.010184
-0.0100738
-0.00997196
-0.00987877
-0.0097944
-0.009719
-0.00965271
-0.00959568
-0.00954799
-0.00950976
-0.00948104
-0.00946191
-0.00945239
-0.00945239
-0.00946191
-0.00948104
-0.00950976
-0.009548
-0.00959568
-0.00965272
-0.009719
-0.0097944
-0.00987878
-0.00997197
-0.0100738
-0.010184
-0.0103025
-0.010429
-0.0105632
-0.010705
-0.010854
-0.0110099
-0.0111725
-0.0113414
-0.0115164
-0.0116971
-0.0118831
-0.0120742
-0.01227
-0.01247
-0.012674
-0.0128816
-0.0130924
-0.0133059
-0.0135219
-0.0137399
-0.0139596
-0.0141804
-0.0144022
-0.0146244
-0.0148466
-0.0150686
-0.0152898
-0.0155099
-0.0157285
-0.0159453
-0.0161598
-0.0163718
-0.0165807
-0.0167864
-0.0169884
-0.0171864
-0.01738
-0.017569
-0.017753
-0.0179317
-0.0181049
-0.0182722
-0.0184334
-0.0185882
-0.0187363
-0.0188776
-0.0190118
-0.0191386
-0.0192579
-0.0193695
-0.0194732
-0.0195688
-0.0196562
-0.0197353
-0.0198058
-0.0198678
-0.0199212
-0.0199657
-0.0200014
-0.0200283
-0.0200462
-0.0200551
-0.0267589
-0.0267499
-0.0267319
-0.0267049
-0.0266689
-0.026624
-0.0265703
-0.0265079
-0.0264368
-0.0263572
-0.0262692
-0.0261729
-0.0260685
-0.0259562
-0.0258361
-0.0257084
-0.0255733
-0.0254311
-0.0252819
-0.0251261
-0.0249638
-0.0247953
-0.024621
-0.024441
-0.0242558
-0.0240655
-0.0238705
-0.0236711
-0.0234678
-0.0232607
-0.0230503
-0.0228369
-0.0226209
-0.0224026
-0.0221825
-0.0219608
-0.0217381
-0.0215146
-0.0212908
-0.021067
-0.0208438
-0.0206213
-0.0204001
-0.0201806
-0.0199631
-0.0197481
-0.0195358
-0.0193268
-0.0191214
-0.0189199
-0.0187228
-0.0185304
-0.018343
-0.0181611
-0.0179849
-0.0178148
-0.017651
-0.017494
-0.017344
-0.0172012
-0.0170661
-0.0169387
-0.0168194
-0.0167083
-0.0166058
-0.016512
-0.016427
-0.0163511
-0.0162843
-0.0162269
-0.0161788
-0.0161403
-0.0161114
-0.0160922
-0.0160826
-0.0160826
-0.0160922
-0.0161114
-0.0161403
-0.0161789
-0.0162269
-0.0162843
-0.0163511
-0.016427
-0.016512
-0.0166058
-0.0167083
-0.0168194
-0.0169387
-0.0170661
-0.0172012
-0.017344
-0.017494
-0.017651
-0.0178148
-0.0179849
-0.0181611
-0.0183431
-0.0185304
-0.0187228
-0.01892
-0.0191214
-0.0193268
-0.0195359
-0.0197481
-0.0199632
-0.0201806
-0.0204002
-0.0206213
-0.0208438
-0.0210671
-0.0212908
-0.0215146
-0.0217381
-0.0219608
-0.0221825
-0.0224026
-0.0226209
-0.0228369
-0.0230503
-0.0232607
-0.0234678
-0.0236712
-0.0238705
-0.0240655
-0.0242558
-0.0244411
-0.024621
-0.0247954
-0.0249638
-0.0251261
-0.025282
-0.0254311
-0.0255733
-0.0257084
-0.0258361
-0.0259562
-0.0260685
-0.0261729
-0.0262692
-0.0263572
-0.0264368
-0.0265079
-0.0265703
-0.026624
-0.0266688
-0.0267048
-0.0267318
-0.0267498
-0.0267588
-0.033472
-0.033463
-0.0334448
-0.0334175
-0.0333813
-0.033336
-0.0332819
-0.0332189
-0.0331472
-0.033067
-0.0329782
-0.0328811
-0.0327758
-0.0326626
-0.0325414
-0.0324126
-0.0322764
-0.032133
-0.0319826
-0.0318254
-0.0316617
-0.0314918
-0.031316
-0.0311345
-0.0309477
-0.0307557
-0.0305591
-0.030358
-0.0301529
-0.0299441
-0.0297319
-0.0295166
-0.0292988
-0.0290786
-0.0288566
-0.028633
-0.0284083
-0.0281829
-0.0279572
-0.0277315
-0.0275063
-0.0272819
-0.0270588
-0.0268374
-0.026618
-0.0264011
-0.026187
-0.0259761
-0.0257689
-0.0255657
-0.0253669
-0.0251728
-0.0249838
-0.0248002
-0.0246225
-0.0244509
-0.0242857
-0.0241273
-0.023976
-0.023832
-0.0236956
-0.0235671
-0.0234467
-0.0233347
-0.0232313
-0.0231366
-0.0230509
-0.0229743
-0.022907
-0.022849
-0.0228006
-0.0227618
-0.0227326
-0.0227132
-0.0227035
-0.0227035
-0.0227132
-0.0227326
-0.0227618
-0.0228006
-0.022849
-0.022907
-0.0229743
-0.0230509
-0.0231366
-0.0232313
-0.0233347
-0.0234468
-0.0235671
-0.0236956
-0.023832
-0.023976
-0.0241273
-0.0242857
-0.0244509
-0.0246225
-0.0248002
-0.0249838
-0.0251728
-0.0253669
-0.0255657
-0.0257689
-0.0259762
-0.026187
-0.0264011
-0.026618
-0.0268374
-0.0270588
-0.0272819
-0.0275063
-0.0277315
-0.0279572
-0.0281829
-0.0284083
-0.028633
-0.0288566
-0.0290786
-0.0292988
-0.0295167
-0.0297319
-0.0299441
-0.0301529
-0.0303581
-0.0305591
-0.0307558
-0.0309477
-0.0311345
-0.031316
-0.0314919
-0.0316618
-0.0318254
-0.0319826
-0.032133
-0.0322765
-0.0324127
-0.0325414
-0.0326626
-0.0327759
-0.0328811
-0.0329782
-0.033067
-0.0331472
-0.0332189
-0.0332819
-0.033336
-0.0333812
-0.0334175
-0.0334447
-0.0334629
-0.0334719
-0.0401947
-0.0401855
-0.0401672
-0.0401396
-0.040103
-0.0400573
-0.0400026
-0.039939
-0.0398666
-0.0397855
-0.0396959
-0.0395978
-0.0394915
-0.039377
-0.0392547
-0.0391246
-0.038987
-0.0388421
-0.0386902
-0.0385314
-0.0383661
-0.0381945
-0.0380168
-0.0378335
-0.0376447
-0.0374509
-0.0372522
-0.0370491
-0.0368419
-0.0366309
-0.0364165
-0.036199
-0.0359789
-0.0357565
-0.0355322
-0.0353063
-0.0350793
-0.0348516
-0.0346235
-0.0343955
-0.0341679
-0.0339412
-0.0337158
-0.0334921
-0.0332704
-0.0330513
-0.032835
-0.0326219
-0.0324125
-0.0322072
-0.0320063
-0.0318102
-0.0316192
-0.0314337
-0.0312541
-0.0310807
-0.0309138
-0.0307538
-0.0306008
-0.0304553
-0.0303176
-0.0301877
-0.0300661
-0.0299529
-0.0298484
-0.0297527
-0.0296661
-0.0295887
-0.0295207
-0.0294621
-0.0294132
-0.0293739
-0.0293444
-0.0293248
-0.029315
-0.029315
-0.0293248
-0.0293444
-0.0293739
-0.0294132
-0.0294621
-0.0295207
-0.0295887
-0.0296661
-0.0297527
-0.0298484
-0.0299529
-0.0300661
-0.0301877
-0.0303176
-0.0304554
-0.0306009
-0.0307538
-0.0309138
-0.0310807
-0.0312541
-0.0314338
-0.0316192
-0.0318102
-0.0320063
-0.0322072
-0.0324126
-0.0326219
-0.032835
-0.0330513
-0.0332705
-0.0334921
-0.0337159
-0.0339413
-0.034168
-0.0343955
-0.0346235
-0.0348516
-0.0350794
-0.0353064
-0.0355322
-0.0357565
-0.035979
-0.0361991
-0.0364165
-0.0366309
-0.0368419
-0.0370491
-0.0372522
-0.0374509
-0.0376448
-0.0378335
-0.0380169
-0.0381945
-0.0383661
-0.0385314
-0.0386902
-0.0388422
-0.038987
-0.0391246
-0.0392547
-0.0393771
-0.0394915
-0.0395978
-0.0396959
-0.0397856
-0.0398666
-0.039939
-0.0400026
-0.0400573
-0.040103
-0.0401396
-0.0401671
-0.0401854
-0.0401946
-0.0469269
-0.0469176
-0.0468991
-0.0468712
-0.0468342
-0.046788
-0.0467326
-0.0466683
-0.0465951
-0.046513
-0.0464223
-0.0463231
-0.0462155
-0.0460997
-0.045976
-0.0458444
-0.0457051
-0.0455585
-0.0454048
-0.0452442
-0.0450769
-0.0449033
-0.0447235
-0.044538
-0.044347
-0.0441509
-0.0439499
-0.0437443
-0.0435347
-0.0433212
-0.0431042
-0.0428842
-0.0426615
-0.0424364
-0.0422094
-0.0419808
-0.0417511
-0.0415206
-0.0412898
-0.0410591
-0.0408288
-0.0405994
-0.0403712
-0.0401448
-0.0399205
-0.0396987
-0.0394798
-0.0392641
-0.0390522
-0.0388444
-0.0386411
-0.0384426
-0.0382493
-0.0380616
-0.0378798
-0.0377043
-0.0375354
-0.0373734
-0.0372186
-0.0370713
-0.0369319
-0.0368004
-0.0366773
-0.0365628
-0.036457
-0.0363602
-0.0362725
-0.0361942
-0.0361253
-0.036066
-0.0360165
-0.0359767
-0.0359469
-0.035927
-0.0359172
-0.0359172
-0.035927
-0.0359469
-0.0359767
-0.0360165
-0.036066
-0.0361253
-0.0361942
-0.0362725
-0.0363602
-0.036457
-0.0365628
-0.0366773
-0.0368005
-0.0369319
-0.0370713
-0.0372186
-0.0373734
-0.0375354
-0.0377043
-0.0378798
-0.0380616
-0.0382493
-0.0384426
-0.0386411
-0.0388444
-0.0390523
-0.0392642
-0.0394798
-0.0396987
-0.0399205
-0.0401448
-0.0403713
-0.0405994
-0.0408288
-0.0410591
-0.0412898
-0.0415207
-0.0417511
-0.0419808
-0.0422094
-0.0424364
-0.0426615
-0.0428842
-0.0431042
-0.0433212
-0.0435347
-0.0437444
-0.0439499
-0.0441509
-0.0443471
-0.0445381
-0.0447236
-0.0449033
-0.0450769
-0.0452442
-0.0454048
-0.0455586
-0.0457052
-0.0458444
-0.045976
-0.0460998
-0.0462156
-0.0463231
-0.0464223
-0.046513
-0.0465951
-0.0466683
-0.0467326
-0.0467879
-0.0468342
-0.0468712
-0.046899
-0.0469176
-0.0469269
-0.0536689
-0.0536595
-0.0536407
-0.0536125
-0.0535749
-0.0535281
-0.053472
-0.0534069
-0.0533327
-0.0532495
-0.0531576
-0.0530571
-0.0529481
-0.0528308
-0.0527053
-0.052572
-0.0524309
-0.0522824
-0.0521266
-0.0519638
-0.0517943
-0.0516183
-0.0514362
-0.0512482
-0.0510546
-0.0508558
-0.0506521
-0.0504438
-0.0502313
-0.050015
-0.0497951
-0.0495721
-0.0493464
-0.0491182
-0.0488882
-0.0486565
-0.0484237
-0.0481901
-0.0479561
-0.0477222
-0.0474888
-0.0472563
-0.047025
-0.0467955
-0.0465681
-0.0463433
-0.0461213
-0.0459028
-0.045688
-0.0454773
-0.0452712
-0.0450699
-0.044874
-0.0446837
-0.0444994
-0.0443215
-0.0441503
-0.043986
-0.0438291
-0.0436798
-0.0435384
-0.0434052
-0.0432804
-0.0431643
-0.043057
-0.0429588
-0.04287
-0.0427905
-0.0427207
-0.0426606
-0.0426104
-0.0425701
-0.0425399
-0.0425197
-0.0425097
-0.0425097
-0.0425197
-0.0425399
-0.0425701
-0.0426104
-0.0426606
-0.0427207
-0.0427905
-0.04287
-0.0429588
-0.043057
-0.0431643
-0.0432804
-0.0434052
-0.0435384
-0.0436798
-0.0438291
-0.043986
-0.0441503
-0.0443215
-0.0444995
-0.0446837
-0.044874
-0.04507
-0.0452712
-0.0454773
-0.045688
-0.0459028
-0.0461214
-0.0463433
-0.0465681
-0.0467955
-0.047025
-0.0472563
-0.0474888
-0.0477222
-0.0479561
-0.0481901
-0.0484237
-0.0486565
-0.0488882
-0.0491183
-0.0493464
-0.0495721
-0.0497951
-0.050015
-0.0502314
-0.0504439
-0.0506522
-0.0508559
-0.0510547
-0.0512482
-0.0514362
-0.0516183
-0.0517943
-0.0519638
-0.0521266
-0.0522824
-0.0524309
-0.052572
-0.0527054
-0.0528308
-0.0529481
-0.0530571
-0.0531577
-0.0532496
-0.0533327
-0.0534069
-0.0534721
-0.0535281
-0.0535749
-0.0536125
-0.0536407
-0.0536595
-0.0536688
-0.0604207
-0.0604112
-0.0603921
-0.0603635
-0.0603254
-0.0602779
-0.060221
-0.0601548
-0.0600795
-0.0599952
-0.0599019
-0.0597999
-0.0596893
-0.0595702
-0.0594429
-0.0593076
-0.0591644
-0.0590137
-0.0588556
-0.0586904
-0.0585183
-0.0583397
-0.0581549
-0.0579641
-0.0577676
-0.0575659
-0.0573591
-0.0571477
-0.056932
-0.0567124
-0.0564892
-0.0562628
-0.0560337
-0.0558021
-0.0555686
-0.0553334
-0.055097
-0.0548599
-0.0546224
-0.054385
-0.054148
-0.0539119
-0.0536772
-0.0534441
-0.0532133
-0.052985
-0.0527597
-0.0525378
-0.0523197
-0.0521058
-0.0518965
-0.0516922
-0.0514933
-0.0513001
-0.051113
-0.0509323
-0.0507584
-0.0505917
-0.0504323
-0.0502807
-0.0501372
-0.0500019
-0.0498752
-0.0497572
-0.0496483
-0.0495486
-0.0494584
-0.0493777
-0.0493068
-0.0492458
-0.0491948
-0.0491539
-0.0491232
-0.0491027
-0.0490926
-0.0490926
-0.0491027
-0.0491232
-0.0491539
-0.0491948
-0.0492458
-0.0493068
-0.0493777
-0.0494584
-0.0495486
-0.0496483
-0.0497572
-0.0498752
-0.0500019
-0.0501372
-0.0502807
-0.0504323
-0.0505917
-0.0507584
-0.0509323
-0.051113
-0.0513001
-0.0514933
-0.0516922
-0.0518965
-0.0521058
-0.0523197
-0.0525378
-0.0527597
-0.052985
-0.0532133
-0.0534442
-0.0536772
-0.0539119
-0.054148
-0.054385
-0.0546224
-0.0548599
-0.0550971
-0.0553334
-0.0555686
-0.0558022
-0.0560337
-0.0562629
-0.0564892
-0.0567124
-0.056932
-0.0571477
-0.0573591
-0.0575659
-0.0577677
-0.0579641
-0.0581549
-0.0583398
-0.0585184
-0.0586904
-0.0588556
-0.0590137
-0.0591645
-0.0593076
-0.059443
-0.0595703
-0.0596893
-0.0597999
-0.059902
-0.0599952
-0.0600796
-0.0601549
-0.060221
-0.0602779
-0.0603254
-0.0603635
-0.0603921
-0.0604112
-0.0604207
-0.0671826
-0.0671729
-0.0671535
-0.0671244
-0.0670857
-0.0670374
-0.0669796
-0.0669124
-0.0668359
-0.0667501
-0.0666554
-0.0665517
-0.0664392
-0.0663182
-0.0661889
-0.0660513
-0.0659058
-0.0657526
-0.0655919
-0.065424
-0.0652491
-0.0650676
-0.0648797
-0.0646858
-0.0644861
-0.064281
-0.0640708
-0.0638559
-0.0636367
-0.0634134
-0.0631866
-0.0629564
-0.0627235
-0.0624881
-0.0622506
-0.0620116
-0.0617713
-0.0615302
-0.0612887
-0.0610473
-0.0608064
-0.0605663
-0.0603276
-0.0600907
-0.059856
-0.0596239
-0.0593948
-0.0591691
-0.0589474
-0.0587299
-0.0585171
-0.0583093
-0.058107
-0.0579105
-0.0577203
-0.0575366
-0.0573597
-0.0571902
-0.0570281
-0.056874
-0.0567279
-0.0565904
-0.0564615
-0.0563416
-0.0562308
-0.0561294
-0.0560377
-0.0559556
-0.0558835
-0.0558215
-0.0557696
-0.055728
-0.0556968
-0.055676
-0.0556656
-0.0556656
-0.055676
-0.0556968
-0.055728
-0.0557696
-0.0558215
-0.0558835
-0.0559556
-0.0560377
-0.0561294
-0.0562308
-0.0563416
-0.0564615
-0.0565904
-0.056728
-0.056874
-0.0570281
-0.0571902
-0.0573597
-0.0575366
-0.0577203
-0.0579106
-0.058107
-0.0583093
-0.0585171
-0.0587299
-0.0589474
-0.0591692
-0.0593948
-0.0596239
-0.059856
-0.0600907
-0.0603277
-0.0605663
-0.0608064
-0.0610473
-0.0612887
-0.0615302
-0.0617713
-0.0620116
-0.0622507
-0.0624881
-0.0627235
-0.0629565
-0.0631866
-0.0634135
-0.0636367
-0.063856
-0.0640709
-0.064281
-0.0644861
-0.0646858
-0.0648798
-0.0650676
-0.0652492
-0.065424
-0.0655919
-0.0657526
-0.0659059
-0.0660514
-0.0661889
-0.0663183
-0.0664393
-0.0665517
-0.0666554
-0.0667502
-0.0668359
-0.0669124
-0.0669796
-0.0670374
-0.0670857
-0.0671244
-0.0671535
-0.0671729
-0.0671826
-0.0739546
-0.0739447
-0.073925
-0.0738954
-0.073856
-0.0738069
-0.0737481
-0.0736797
-0.0736018
-0.0735145
-0.0734181
-0.0733126
-0.0731981
-0.073075
-0.0729433
-0.0728033
-0.0726552
-0.0724993
-0.0723357
-0.0721648
-0.0719868
-0.0718021
-0.0716108
-0.0714134
-0.0712102
-0.0710014
-0.0707874
-0.0705687
-0.0703455
-0.0701182
-0.0698873
-0.069653
-0.0694158
-0.0691762
-0.0689344
-0.068691
-0.0684464
-0.0682009
-0.067955
-0.0677092
-0.0674639
-0.0672195
-0.0669765
-0.0667352
-0.0664962
-0.0662598
-0.0660266
-0.0657968
-0.065571
-0.0653495
-0.0651327
-0.0649212
-0.0647152
-0.0645151
-0.0643213
-0.0641342
-0.0639541
-0.0637814
-0.0636164
-0.0634594
-0.0633107
-0.0631705
-0.0630393
-0.0629171
-0.0628043
-0.0627011
-0.0626076
-0.0625241
-0.0624506
-0.0623874
-0.0623346
-0.0622922
-0.0622604
-0.0622392
-0.0622287
-0.0622287
-0.0622392
-0.0622604
-0.0622922
-0.0623346
-0.0623874
-0.0624506
-0.0625241
-0.0626076
-0.0627011
-0.0628043
-0.0629171
-0.0630393
-0.0631705
-0.0633107
-0.0634594
-0.0636164
-0.0637814
-0.0639541
-0.0641342
-0.0643213
-0.0645151
-0.0647152
-0.0649212
-0.0651328
-0.0653495
-0.065571
-0.0657968
-0.0660266
-0.0662598
-0.0664962
-0.0667352
-0.0669765
-0.0672195
-0.0674639
-0.0677092
-0.0679551
-0.0682009
-0.0684464
-0.068691
-0.0689345
-0.0691762
-0.0694159
-0.069653
-0.0698873
-0.0701182
-0.0703455
-0.0705687
-0.0707875
-0.0710014
-0.0712102
-0.0714134
-0.0716109
-0.0718021
-0.0719869
-0.0721648
-0.0723358
-0.0724993
-0.0726553
-0.0728033
-0.0729433
-0.073075
-0.0731982
-0.0733126
-0.0734181
-0.0735146
-0.0736018
-0.0736797
-0.0737481
-0.0738069
-0.0738561
-0.0738954
-0.073925
-0.0739448
-0.0739546
-0.080737
-0.080727
-0.0807069
-0.0806767
-0.0806366
-0.0805865
-0.0805265
-0.0804568
-0.0803775
-0.0802886
-0.0801903
-0.0800827
-0.0799661
-0.0798406
-0.0797064
-0.0795637
-0.0794128
-0.0792539
-0.0790872
-0.078913
-0.0787316
-0.0785433
-0.0783483
-0.0781471
-0.0779399
-0.0777271
-0.077509
-0.077286
-0.0770585
-0.0768268
-0.0765914
-0.0763526
-0.0761108
-0.0758664
-0.07562
-0.0753718
-0.0751224
-0.0748721
-0.0746214
-0.0743708
-0.0741207
-0.0738714
-0.0736236
-0.0733776
-0.0731339
-0.0728929
-0.072655
-0.0724207
-0.0721904
-0.0719645
-0.0717435
-0.0715277
-0.0713176
-0.0711136
-0.0709159
-0.0707251
-0.0705414
-0.0703653
-0.070197
-0.0700368
-0.0698852
-0.0697423
-0.0696084
-0.0694838
-0.0693687
-0.0692634
-0.0691681
-0.0690829
-0.069008
-0.0689435
-0.0688896
-0.0688464
-0.068814
-0.0687923
-0.0687816
-0.0687816
-0.0687923
-0.068814
-0.0688464
-0.0688896
-0.0689435
-0.069008
-0.0690829
-0.0691681
-0.0692634
-0.0693687
-0.0694838
-0.0696084
-0.0697423
-0.0698852
-0.0700368
-0.070197
-0.0703653
-0.0705414
-0.0707251
-0.0709159
-0.0711136
-0.0713176
-0.0715277
-0.0717435
-0.0719645
-0.0721904
-0.0724207
-0.072655
-0.0728929
-0.0731339
-0.0733776
-0.0736236
-0.0738715
-0.0741207
-0.0743708
-0.0746214
-0.0748721
-0.0751224
-0.0753718
-0.07562
-0.0758665
-0.0761108
-0.0763526
-0.0765914
-0.0768269
-0.0770585
-0.0772861
-0.0775091
-0.0777271
-0.0779399
-0.0781471
-0.0783484
-0.0785433
-0.0787316
-0.078913
-0.0790872
-0.0792539
-0.0794128
-0.0795638
-0.0797064
-0.0798406
-0.0799661
-0.0800828
-0.0801903
-0.0802886
-0.0803775
-0.0804569
-0.0805266
-0.0805865
-0.0806366
-0.0806767
-0.0807069
-0.080727
-0.080737
-0.08753
-0.0875197
-0.0874992
-0.0874685
-0.0874275
-0.0873764
-0.0873152
-0.0872441
-0.0871631
-0.0870724
-0.0869721
-0.0868624
-0.0867434
-0.0866153
-0.0864784
-0.0863328
-0.0861787
-0.0860165
-0.0858464
-0.0856686
-0.0854835
-0.0852913
-0.0850924
-0.084887
-0.0846755
-0.0844583
-0.0842357
-0.0840081
-0.0837758
-0.0835393
-0.083299
-0.0830552
-0.0828084
-0.082559
-0.0823074
-0.082054
-0.0817993
-0.0815438
-0.0812879
-0.081032
-0.0807766
-0.0805221
-0.0802691
-0.0800179
-0.079769
-0.0795229
-0.07928
-0.0790407
-0.0788056
-0.0785749
-0.0783492
-0.0781289
-0.0779143
-0.0777059
-0.0775041
-0.0773092
-0.0771216
-0.0769417
-0.0767698
-0.0766062
-0.0764513
-0.0763054
-0.0761686
-0.0760414
-0.0759238
-0.0758163
-0.0757189
-0.0756319
-0.0755554
-0.0754895
-0.0754345
-0.0753903
-0.0753572
-0.0753351
-0.0753242
-0.0753242
-0.0753351
-0.0753572
-0.0753903
-0.0754345
-0.0754895
-0.0755554
-0.0756319
-0.0757189
-0.0758163
-0.0759239
-0.0760414
-0.0761686
-0.0763054
-0.0764513
-0.0766062
-0.0767698
-0.0769417
-0.0771216
-0.0773092
-0.0775041
-0.0777059
-0.0779143
-0.0781289
-0.0783492
-0.0785749
-0.0788056
-0.0790408
-0.07928
-0.0795229
-0.079769
-0.0800179
-0.0802691
-0.0805222
-0.0807766
-0.081032
-0.0812879
-0.0815438
-0.0817994
-0.082054
-0.0823074
-0.082559
-0.0828084
-0.0830552
-0.083299
-0.0835394
-0.0837759
-0.0840081
-0.0842357
-0.0844583
-0.0846755
-0.084887
-0.0850924
-0.0852913
-0.0854835
-0.0856687
-0.0858464
-0.0860166
-0.0861788
-0.0863328
-0.0864784
-0.0866153
-0.0867434
-0.0868624
-0.0869721
-0.0870724
-0.0871632
-0.0872441
-0.0873153
-0.0873764
-0.0874275
-0.0874685
-0.0874993
-0.0875198
-0.08753
-0.0943338
-0.0943233
-0.0943024
-0.0942709
-0.0942291
-0.0941769
-0.0941144
-0.0940417
-0.093959
-0.0938663
-0.0937638
-0.0936517
-0.0935301
-0.0933993
-0.0932594
-0.0931106
-0.0929532
-0.0927875
-0.0926136
-0.092432
-0.0922428
-0.0920464
-0.0918431
-0.0916332
-0.0914171
-0.0911951
-0.0909676
-0.090735
-0.0904976
-0.0902559
-0.0900102
-0.0897611
-0.0895088
-0.0892538
-0.0889966
-0.0887376
-0.0884773
-0.0882161
-0.0879544
-0.0876928
-0.0874317
-0.0871716
-0.0869129
-0.0866561
-0.0864016
-0.08615
-0.0859016
-0.0856569
-0.0854165
-0.0851806
-0.0849498
-0.0847245
-0.0845051
-0.084292
-0.0840856
-0.0838863
-0.0836944
-0.0835105
-0.0833347
-0.0831674
-0.083009
-0.0828597
-0.0827198
-0.0825897
-0.0824695
-0.0823595
-0.0822599
-0.0821709
-0.0820926
-0.0820253
-0.081969
-0.0819238
-0.0818899
-0.0818674
-0.0818562
-0.0818562
-0.0818674
-0.0818899
-0.0819238
-0.081969
-0.0820253
-0.0820926
-0.0821709
-0.0822599
-0.0823595
-0.0824695
-0.0825897
-0.0827198
-0.0828597
-0.083009
-0.0831674
-0.0833347
-0.0835105
-0.0836945
-0.0838863
-0.0840856
-0.084292
-0.0845051
-0.0847245
-0.0849498
-0.0851806
-0.0854165
-0.085657
-0.0859016
-0.08615
-0.0864016
-0.0866561
-0.0869129
-0.0871716
-0.0874317
-0.0876929
-0.0879545
-0.0882161
-0.0884773
-0.0887377
-0.0889966
-0.0892538
-0.0895088
-0.0897611
-0.0900103
-0.0902559
-0.0904976
-0.090735
-0.0909676
-0.0911951
-0.0914171
-0.0916332
-0.0918431
-0.0920464
-0.0922428
-0.092432
-0.0926136
-0.0927875
-0.0929532
-0.0931106
-0.0932594
-0.0933993
-0.0935302
-0.0936517
-0.0937639
-0.0938663
-0.093959
-0.0940418
-0.0941144
-0.0941769
-0.0942291
-0.094271
-0.0943024
-0.0943233
-0.0943338
-0.101149
-0.101138
-0.101116
-0.101084
-0.101042
-0.100988
-0.100924
-0.10085
-0.100765
-0.10067
-0.100566
-0.100451
-0.100327
-0.100193
-0.10005
-0.0998974
-0.0997364
-0.0995668
-0.099389
-0.0992031
-0.0990096
-0.0988086
-0.0986006
-0.0983859
-0.0981648
-0.0979376
-0.0977049
-0.0974668
-0.0972239
-0.0969766
-0.0967252
-0.0964702
-0.096212
-0.0959511
-0.0956878
-0.0954228
-0.0951563
-0.0948889
-0.0946211
-0.0943534
-0.0940861
-0.0938198
-0.093555
-0.0932921
-0.0930316
-0.0927739
-0.0925197
-0.0922692
-0.092023
-0.0917815
-0.0915452
-0.0913145
-0.0910899
-0.0908717
-0.0906603
-0.0904563
-0.0902598
-0.0900714
-0.0898914
-0.0897201
-0.0895579
-0.089405
-0.0892618
-0.0891285
-0.0890055
-0.0888928
-0.0887908
-0.0886996
-0.0886195
-0.0885505
-0.0884929
-0.0884467
-0.088412
-0.0883888
-0.0883774
-0.0883774
-0.0883888
-0.088412
-0.0884467
-0.0884929
-0.0885505
-0.0886195
-0.0886996
-0.0887908
-0.0888928
-0.0890055
-0.0891285
-0.0892618
-0.089405
-0.0895579
-0.0897201
-0.0898914
-0.0900714
-0.0902598
-0.0904563
-0.0906603
-0.0908717
-0.0910899
-0.0913145
-0.0915452
-0.0917816
-0.092023
-0.0922692
-0.0925197
-0.092774
-0.0930316
-0.0932921
-0.093555
-0.0938198
-0.0940861
-0.0943534
-0.0946212
-0.094889
-0.0951563
-0.0954228
-0.0956879
-0.0959511
-0.096212
-0.0964702
-0.0967252
-0.0969766
-0.0972239
-0.0974668
-0.0977049
-0.0979377
-0.0981648
-0.0983859
-0.0986007
-0.0988087
-0.0990096
-0.0992032
-0.099389
-0.0995669
-0.0997364
-0.0998974
-0.10005
-0.100193
-0.100327
-0.100451
-0.100566
-0.10067
-0.100765
-0.10085
-0.100924
-0.100988
-0.101042
-0.101084
-0.101117
-0.101138
-0.101149
-0.107975
-0.107964
-0.107942
-0.107909
-0.107865
-0.10781
-0.107745
-0.107669
-0.107582
-0.107485
-0.107378
-0.10726
-0.107133
-0.106996
-0.106849
-0.106693
-0.106529
-0.106355
-0.106173
-0.105982
-0.105784
-0.105578
-0.105365
-0.105145
-0.104919
-0.104686
-0.104448
-0.104204
-0.103955
-0.103702
-0.103444
-0.103183
-0.102918
-0.102651
-0.102381
-0.102109
-0.101836
-0.101562
-0.101288
-0.101014
-0.10074
-0.100467
-0.100195
-0.0999259
-0.0996589
-0.0993948
-0.0991342
-0.0988775
-0.0986251
-0.0983776
-0.0981354
-0.0978989
-0.0976686
-0.0974449
-0.0972282
-0.097019
-0.0968176
-0.0966245
-0.0964399
-0.0962643
-0.096098
-0.0959412
-0.0957944
-0.0956577
-0.0955315
-0.095416
-0.0953114
-0.095218
-0.0951358
-0.0950651
-0.095006
-0.0949586
-0.094923
-0.0948993
-0.0948875
-0.0948875
-0.0948993
-0.094923
-0.0949586
-0.095006
-0.0950651
-0.0951358
-0.095218
-0.0953114
-0.095416
-0.0955315
-0.0956577
-0.0957944
-0.0959412
-0.096098
-0.0962643
-0.0964399
-0.0966245
-0.0968176
-0.097019
-0.0972282
-0.0974449
-0.0976686
-0.0978989
-0.0981354
-0.0983776
-0.0986251
-0.0988775
-0.0991342
-0.0993948
-0.0996589
-0.0999259
-0.100195
-0.100467
-0.10074
-0.101014
-0.101288
-0.101562
-0.101836
-0.102109
-0.102381
-0.102651
-0.102918
-0.103183
-0.103444
-0.103702
-0.103955
-0.104204
-0.104448
-0.104686
-0.104919
-0.105145
-0.105365
-0.105578
-0.105784
-0.105982
-0.106173
-0.106355
-0.106529
-0.106693
-0.106849
-0.106996
-0.107133
-0.10726
-0.107378
-0.107485
-0.107582
-0.107669
-0.107745
-0.10781
-0.107865
-0.107909
-0.107942
-0.107964
-0.107975
-0.114812
-0.114801
-0.114779
-0.114745
-0.1147
-0.114644
-0.114577
-0.114499
-0.11441
-0.114311
-0.114201
-0.11408
-0.11395
-0.113809
-0.113659
-0.113499
-0.11333
-0.113152
-0.112965
-0.11277
-0.112567
-0.112356
-0.112137
-0.111911
-0.111679
-0.111441
-0.111196
-0.110946
-0.110691
-0.110431
-0.110167
-0.109899
-0.109627
-0.109353
-0.109076
-0.108798
-0.108518
-0.108237
-0.107955
-0.107673
-0.107392
-0.107112
-0.106834
-0.106557
-0.106284
-0.106013
-0.105745
-0.105482
-0.105223
-0.104969
-0.10472
-0.104477
-0.104241
-0.104011
-0.103789
-0.103574
-0.103368
-0.103169
-0.10298
-0.1028
-0.102629
-0.102468
-0.102317
-0.102177
-0.102047
-0.101929
-0.101822
-0.101726
-0.101641
-0.101569
-0.101508
-0.101459
-0.101423
-0.101398
-0.101386
-0.101386
-0.101398
-0.101423
-0.101459
-0.101508
-0.101569
-0.101641
-0.101726
-0.101822
-0.101929
-0.102047
-0.102177
-0.102317
-0.102468
-0.102629
-0.1028
-0.10298
-0.103169
-0.103368
-0.103574
-0.103789
-0.104011
-0.104241
-0.104477
-0.10472
-0.104969
-0.105223
-0.105482
-0.105745
-0.106013
-0.106284
-0.106557
-0.106834
-0.107112
-0.107392
-0.107674
-0.107955
-0.108237
-0.108518
-0.108798
-0.109076
-0.109353
-0.109627
-0.109899
-0.110167
-0.110431
-0.110691
-0.110946
-0.111196
-0.111441
-0.111679
-0.111912
-0.112137