/*--------------------------------*- C++ -*----------------------------------*\
| =========                 |                                                 |
| \\      /  F ield         | OpenFOAM: The Open Source CFD Toolbox           |
|  \\    /   O peration     | Version:  2106                                  |
|   \\  /    A nd           | Website:  www.openfoam.com                      |
|    \\/     M anipulation  |                                                 |
\*---------------------------------------------------------------------------*/
FoamFile
{
    version     2.0;
    format      ascii;
    arch        "LSB;label=32;scalar=64";
    class       volScalarField;
    location    "4";
    object      p_rgh;
}
// * * * * * * * * * * * * * * * * * * * * * * * * * * * * * * * * * * * * * //

dimensions      [1 -1 -2 0 0 0 0];

internalField   nonuniform List<scalar> 
90000
(
0.00333333
0.00334213
0.00335985
0.00338642
0.00342179
0.00346591
0.00351871
0.0035801
0.00365
0.00372828
0.00381482
0.00390949
0.00401214
0.0041226
0.0042407
0.00436624
0.00449904
0.00463887
0.00478552
0.00493873
0.00509828
0.00526388
0.00543529
0.0056122
0.00579434
0.0059814
0.00617306
0.00636901
0.00656893
0.00677247
0.00697929
0.00718904
0.00740136
0.00761589
0.00783226
0.0080501
0.00826902
0.00848865
0.00870861
0.00892849
0.00914793
0.00936652
0.00958388
0.00979962
0.0100134
0.0102247
0.0104333
0.0106387
0.0108405
0.0110385
0.0112322
0.0114213
0.0116054
0.0117842
0.0119574
0.0121245
0.0122854
0.0124397
0.0125871
0.0127274
0.0128602
0.0129854
0.0131026
0.0132117
0.0133125
0.0134047
0.0134882
0.0135628
0.0136284
0.0136848
0.013732
0.0137699
0.0137983
0.0138172
0.0138266
0.0138266
0.0138172
0.0137983
0.0137699
0.013732
0.0136848
0.0136284
0.0135628
0.0134882
0.0134047
0.0133125
0.0132117
0.0131026
0.0129854
0.0128602
0.0127274
0.0125871
0.0124397
0.0122854
0.0121245
0.0119573
0.0117842
0.0116054
0.0114213
0.0112322
0.0110385
0.0108405
0.0106386
0.0104332
0.0102247
0.0100133
0.0097996
0.00958386
0.0093665
0.0091479
0.00892847
0.00870858
0.00848862
0.00826899
0.00805007
0.00783223
0.00761586
0.00740133
0.00718901
0.00697926
0.00677244
0.0065689
0.00636899
0.00617303
0.00598137
0.00579432
0.00561218
0.00543527
0.00526386
0.00509826
0.00493871
0.00478549
0.00463885
0.00449902
0.00436622
0.00424068
0.00412258
0.00401213
0.00390949
0.00381483
0.0037283
0.00365003
0.00358015
0.00351878
0.00346599
0.00342189
0.00338652
0.00335996
0.00334223
0.00333337
0.0033242
0.00333305
0.0033508
0.00337741
0.00341284
0.00345703
0.00350992
0.00357142
0.00364143
0.00371984
0.00380653
0.00390136
0.00400417
0.00411482
0.00423311
0.00435887
0.00449189
0.00463196
0.00477885
0.00493233
0.00509214
0.00525803
0.00542972
0.00560694
0.00578938
0.00597676
0.00616875
0.00636504
0.00656529
0.00676918
0.00697636
0.00718647
0.00739916
0.00761406
0.0078308
0.00804902
0.00826832
0.00848833
0.00870867
0.00892894
0.00914876
0.00936773
0.00958547
0.00980158
0.0100157
0.0102274
0.0104363
0.0106421
0.0108443
0.0110426
0.0112367
0.0114261
0.0116105
0.0117896
0.0119631
0.0121305
0.0122917
0.0124463
0.012594
0.0127345
0.0128675
0.0129929
0.0131103
0.0132196
0.0133206
0.0134129
0.0134966
0.0135713
0.013637
0.0136936
0.0137408
0.0137787
0.0138072
0.0138262
0.0138356
0.0138356
0.0138261
0.0138072
0.0137787
0.0137408
0.0136935
0.013637
0.0135713
0.0134966
0.0134129
0.0133206
0.0132196
0.0131103
0.0129929
0.0128675
0.0127344
0.0125939
0.0124463
0.0122917
0.0121305
0.0119631
0.0117896
0.0116105
0.0114261
0.0112366
0.0110426
0.0108443
0.0106421
0.0104363
0.0102274
0.0100157
0.00980156
0.00958544
0.0093677
0.00914873
0.00892891
0.00870864
0.0084883
0.00826829
0.00804899
0.00783077
0.00761403
0.00739913
0.00718644
0.00697633
0.00676916
0.00656527
0.00636501
0.00616872
0.00597673
0.00578936
0.00560691
0.0054297
0.00525801
0.00509212
0.0049323
0.00477883
0.00463194
0.00449187
0.00435885
0.00423309
0.0041148
0.00400416
0.00390135
0.00380653
0.00371986
0.00364146
0.00357147
0.00350999
0.00345711
0.00341293
0.00337752
0.00335092
0.00333317
0.0033243
0.00330583
0.00331472
0.00333252
0.00335922
0.00339477
0.00343911
0.00349218
0.00355389
0.00362413
0.00370281
0.00378979
0.00388494
0.0039881
0.00409912
0.00421782
0.004344
0.00447747
0.00461802
0.00476541
0.00491941
0.00507977
0.00524622
0.0054185
0.00559633
0.0057794
0.00596742
0.00616007
0.00635703
0.00655798
0.00676257
0.00697046
0.0071813
0.00739473
0.00761037
0.00782787
0.00804684
0.00826691
0.00848769
0.00870879
0.00892983
0.00915042
0.00937016
0.00958866
0.00980553
0.0100204
0.0102328
0.0104425
0.010649
0.0108519
0.0110509
0.0112456
0.0114357
0.0116208
0.0118005
0.0119746
0.0121426
0.0123044
0.0124595
0.0126077
0.0127487
0.0128822
0.013008
0.0131259
0.0132356
0.0133368
0.0134295
0.0135135
0.0135885
0.0136544
0.0137111
0.0137586
0.0137966
0.0138252
0.0138442
0.0138537
0.0138537
0.0138442
0.0138252
0.0137966
0.0137586
0.0137111
0.0136544
0.0135885
0.0135135
0.0134295
0.0133368
0.0132355
0.0131259
0.013008
0.0128822
0.0127487
0.0126077
0.0124595
0.0123044
0.0121426
0.0119746
0.0118005
0.0116208
0.0114357
0.0112456
0.0110509
0.0108519
0.0106489
0.0104425
0.0102328
0.0100204
0.0098055
0.00958863
0.00937013
0.00915039
0.00892981
0.00870877
0.00848766
0.00826688
0.00804681
0.00782784
0.00761034
0.0073947
0.00718127
0.00697044
0.00676254
0.00655795
0.00635701
0.00616004
0.00596739
0.00577937
0.0055963
0.00541848
0.0052462
0.00507975
0.00491939
0.00476539
0.004618
0.00447745
0.00434398
0.00421779
0.0040991
0.00398808
0.00388493
0.00378979
0.00370282
0.00362416
0.00355393
0.00349224
0.00343919
0.00339486
0.00335932
0.00333262
0.00331483
0.00330594
0.00327815
0.00328708
0.00330497
0.00333181
0.00336754
0.0034121
0.00346544
0.00352746
0.00359806
0.00367714
0.00376456
0.00386019
0.00396388
0.00407546
0.00419477
0.0043216
0.00445575
0.00459702
0.00474516
0.00489995
0.00506113
0.00522844
0.00540161
0.00558035
0.00576436
0.00595335
0.006147
0.00634498
0.00654697
0.00675262
0.00696159
0.00717352
0.00738805
0.00760482
0.00782345
0.00804357
0.00826478
0.00848672
0.00870898
0.00893118
0.00915292
0.0093738
0.00959345
0.00981146
0.0100274
0.010241
0.0104518
0.0106593
0.0108633
0.0110634
0.0112591
0.0114502
0.0116363
0.011817
0.0119919
0.0121609
0.0123235
0.0124794
0.0126284
0.0127701
0.0129043
0.0130308
0.0131493
0.0132596
0.0133614
0.0134546
0.0135389
0.0136143
0.0136806
0.0137377
0.0137853
0.0138236
0.0138523
0.0138714
0.0138809
0.0138809
0.0138714
0.0138523
0.0138236
0.0137853
0.0137377
0.0136806
0.0136143
0.0135389
0.0134546
0.0133614
0.0132595
0.0131493
0.0130308
0.0129043
0.0127701
0.0126283
0.0124794
0.0123234
0.0121609
0.0119919
0.0118169
0.0116363
0.0114502
0.0112591
0.0110634
0.0108633
0.0106593
0.0104517
0.010241
0.0100274
0.00981144
0.00959343
0.00937378
0.00915289
0.00893115
0.00870895
0.00848669
0.00826475
0.00804354
0.00782342
0.00760479
0.00738802
0.00717349
0.00696156
0.00675259
0.00654694
0.00634495
0.00614697
0.00595333
0.00576434
0.00558032
0.00540159
0.00522842
0.00506111
0.00489993
0.00474514
0.00459699
0.00445573
0.00432157
0.00419474
0.00407544
0.00396386
0.00386018
0.00376455
0.00367714
0.00359808
0.00352749
0.00346549
0.00341217
0.00336762
0.0033319
0.00330507
0.00328718
0.00327826
0.00324111
0.0032501
0.00326811
0.00329513
0.0033311
0.00337597
0.00342966
0.0034921
0.00356318
0.00364279
0.0037308
0.00382708
0.00393147
0.00404381
0.00416393
0.00429162
0.00442669
0.00456892
0.00471807
0.00487392
0.0050362
0.00520466
0.00537901
0.00555897
0.00574425
0.00593453
0.00612951
0.00632885
0.00653223
0.0067393
0.00694971
0.00716311
0.00737912
0.00759739
0.00781754
0.00803918
0.00826193
0.00848541
0.00870922
0.00893296
0.00915625
0.00937867
0.00959985
0.00981938
0.0100369
0.0102519
0.0104642
0.0106732
0.0108786
0.0110801
0.0112772
0.0114696
0.011657
0.0118389
0.0120151
0.0121852
0.012349
0.012506
0.012656
0.0127988
0.0129339
0.0130613
0.0131806
0.0132917
0.0133942
0.013488
0.013573
0.0136489
0.0137157
0.0137731
0.0138212
0.0138597
0.0138886
0.0139078
0.0139174
0.0139174
0.0139078
0.0138886
0.0138597
0.0138211
0.0137731
0.0137157
0.0136489
0.013573
0.013488
0.0133942
0.0132917
0.0131806
0.0130613
0.0129339
0.0127988
0.012656
0.012506
0.012349
0.0121852
0.0120151
0.0118389
0.0116569
0.0114696
0.0112772
0.01108
0.0108786
0.0106732
0.0104641
0.0102519
0.0100368
0.00981936
0.00959983
0.00937865
0.00915622
0.00893294
0.00870919
0.00848538
0.0082619
0.00803915
0.00781751
0.00759736
0.0073791
0.00716308
0.00694968
0.00673927
0.0065322
0.00632883
0.00612948
0.00593451
0.00574422
0.00555895
0.00537898
0.00520463
0.00503618
0.0048739
0.00471805
0.00456889
0.00442667
0.0042916
0.0041639
0.00404379
0.00393145
0.00382706
0.00373079
0.00364279
0.00356319
0.00349212
0.0034297
0.00337602
0.00333117
0.00329521
0.0032682
0.00325019
0.0032412
0.00319465
0.00320371
0.00322187
0.00324912
0.00328539
0.00333064
0.00338478
0.00344774
0.00351942
0.0035997
0.00368845
0.00378554
0.00389082
0.00400411
0.00412525
0.00425402
0.00439024
0.00453367
0.00468409
0.00484127
0.00500493
0.00517482
0.00535066
0.00553215
0.00571901
0.00591092
0.00610757
0.00630862
0.00651374
0.00672259
0.00693481
0.00715004
0.00736792
0.00758806
0.00781011
0.00803366
0.00825834
0.00848375
0.0087095
0.00893519
0.00916041
0.00938477
0.00960787
0.00982931
0.0100487
0.0102656
0.0104797
0.0106905
0.0108978
0.011101
0.0112998
0.0114939
0.0116829
0.0118664
0.0120442
0.0122158
0.012381
0.0125394
0.0126907
0.0128347
0.0129711
0.0130996
0.0132199
0.0133319
0.0134354
0.01353
0.0136157
0.0136923
0.0137597
0.0138176
0.0138661
0.0139049
0.0139341
0.0139535
0.0139632
0.0139632
0.0139535
0.0139341
0.0139049
0.0138661
0.0138176
0.0137597
0.0136923
0.0136157
0.01353
0.0134354
0.0133319
0.0132199
0.0130996
0.0129711
0.0128347
0.0126907
0.0125394
0.012381
0.0122158
0.0120442
0.0118664
0.0116829
0.0114939
0.0112998
0.011101
0.0108977
0.0106905
0.0104797
0.0102656
0.0100487
0.00982928
0.00960784
0.00938474
0.00916038
0.00893516
0.00870948
0.00848373
0.00825832
0.00803364
0.00781008
0.00758804
0.00736789
0.00715001
0.00693478
0.00672256
0.00651372
0.0063086
0.00610754
0.0059109
0.00571899
0.00553213
0.00535063
0.00517479
0.0050049
0.00484124
0.00468407
0.00453364
0.00439021
0.004254
0.00412522
0.00400409
0.0038908
0.00378553
0.00368844
0.00359969
0.00351942
0.00344776
0.00338481
0.00333068
0.00328544
0.00324918
0.00322195
0.00320378
0.00319473
0.00313868
0.00314783
0.00316618
0.00319369
0.00323033
0.00327603
0.00333072
0.00339431
0.0034667
0.00354779
0.00363744
0.00373551
0.00384185
0.00395629
0.00407865
0.00420872
0.00434632
0.00449121
0.00464316
0.00480193
0.00496725
0.00513887
0.0053165
0.00549984
0.00568861
0.00588248
0.00608113
0.00628424
0.00649146
0.00670245
0.00691684
0.00713428
0.0073544
0.00757682
0.00780115
0.00802701
0.00825401
0.00848175
0.00870983
0.00893785
0.0091654
0.00939209
0.0096175
0.00984124
0.0100629
0.0102821
0.0104984
0.0107114
0.0109208
0.0111261
0.011327
0.0115232
0.0117141
0.0118996
0.0120792
0.0122526
0.0124195
0.0125796
0.0127325
0.012878
0.0130158
0.0131456
0.0132672
0.0133804
0.0134849
0.0135806
0.0136672
0.0137446
0.0138127
0.0138712
0.0139202
0.0139594
0.0139889
0.0140085
0.0140183
0.0140183
0.0140085
0.0139889
0.0139594
0.0139202
0.0138712
0.0138127
0.0137446
0.0136672
0.0135806
0.0134849
0.0133804
0.0132672
0.0131456
0.0130158
0.012878
0.0127325
0.0125795
0.0124195
0.0122526
0.0120792
0.0118996
0.0117141
0.0115232
0.011327
0.0111261
0.0109208
0.0107114
0.0104984
0.0102821
0.0100629
0.00984122
0.00961748
0.00939206
0.00916538
0.00893782
0.0087098
0.00848172
0.00825398
0.00802698
0.00780112
0.00757679
0.00735438
0.00713426
0.00691682
0.00670242
0.00649144
0.00628422
0.00608111
0.00588245
0.00568858
0.00549982
0.00531647
0.00513884
0.00496723
0.0048019
0.00464313
0.00449118
0.00434629
0.0042087
0.00407862
0.00395626
0.00384183
0.00373549
0.00363742
0.00354778
0.0034667
0.00339431
0.00333073
0.00327605
0.00323037
0.00319374
0.00316623
0.00314789
0.00313874
0.0030731
0.00308235
0.00310092
0.00312875
0.00316581
0.00321204
0.00326737
0.0033317
0.00340494
0.00348697
0.00357767
0.00367689
0.00378447
0.00390025
0.00402404
0.00415565
0.00429486
0.00444145
0.00459519
0.00475583
0.0049231
0.00509674
0.00527646
0.00546198
0.00565297
0.00584914
0.00605014
0.00625566
0.00646534
0.00667883
0.00689578
0.00711581
0.00733855
0.00756361
0.00779062
0.00801918
0.0082489
0.00847937
0.00871018
0.00894094
0.00917122
0.00940063
0.00962876
0.00985519
0.0100795
0.0103013
0.0105202
0.0107359
0.0109478
0.0111556
0.0113589
0.0115574
0.0117507
0.0119384
0.0121202
0.0122957
0.0124646
0.0126266
0.0127814
0.0129287
0.0130681
0.0131996
0.0133227
0.0134372
0.013543
0.0136398
0.0137275
0.0138058
0.0138747
0.013934
0.0139835
0.0140233
0.0140531
0.014073
0.0140828
0.0140828
0.014073
0.0140531
0.0140233
0.0139835
0.013934
0.0138747
0.0138058
0.0137275
0.0136398
0.013543
0.0134372
0.0133227
0.0131995
0.0130681
0.0129287
0.0127814
0.0126266
0.0124646
0.0122957
0.0121202
0.0119384
0.0117507
0.0115574
0.0113589
0.0111556
0.0109477
0.0107358
0.0105202
0.0103013
0.0100795
0.00985517
0.00962874
0.00940061
0.0091712
0.00894092
0.00871016
0.00847934
0.00824887
0.00801916
0.0077906
0.00756359
0.00733852
0.00711578
0.00689575
0.00667881
0.00646531
0.00625563
0.00605012
0.00584911
0.00565295
0.00546195
0.00527644
0.00509671
0.00492307
0.0047558
0.00459516
0.00444142
0.00429483
0.00415562
0.00402402
0.00390023
0.00378445
0.00367687
0.00357765
0.00348696
0.00340493
0.0033317
0.00326737
0.00321206
0.00316583
0.00312878
0.00310095
0.0030824
0.00307314
0.00299779
0.00300717
0.00302598
0.00305418
0.00309173
0.00313857
0.00319462
0.0032598
0.00333401
0.00341713
0.00350903
0.00360957
0.00371858
0.0038359
0.00396134
0.00409469
0.00423576
0.0043843
0.00454009
0.00470288
0.00487238
0.00504835
0.00523048
0.00541847
0.00561203
0.00581083
0.00601454
0.00622282
0.00643532
0.00665169
0.00687156
0.00709456
0.00732031
0.00754842
0.00777851
0.00801017
0.008243
0.0084766
0.00871055
0.00894445
0.00917787
0.00941041
0.00964165
0.00987117
0.0100986
0.0103234
0.0105453
0.0107639
0.0109787
0.0111894
0.0113955
0.0115967
0.0117927
0.0119829
0.0121672
0.0123452
0.0125164
0.0126806
0.0128375
0.0129868
0.0131282
0.0132615
0.0133863
0.0135024
0.0136097
0.0137078
0.0137967
0.0138761
0.013946
0.014006
0.0140563
0.0140965
0.0141268
0.0141469
0.014157
0.014157
0.0141469
0.0141268
0.0140965
0.0140563
0.014006
0.013946
0.0138761
0.0137967
0.0137078
0.0136097
0.0135024
0.0133863
0.0132615
0.0131282
0.0129868
0.0128375
0.0126806
0.0125164
0.0123451
0.0121672
0.0119829
0.0117926
0.0115967
0.0113955
0.0111893
0.0109787
0.0107639
0.0105453
0.0103234
0.0100985
0.00987115
0.00964163
0.00941039
0.00917785
0.00894443
0.00871053
0.00847658
0.00824298
0.00801015
0.00777849
0.0075484
0.00732029
0.00709454
0.00687154
0.00665166
0.00643529
0.00622279
0.00601451
0.0058108
0.00561201
0.00541845
0.00523045
0.00504832
0.00487236
0.00470285
0.00454006
0.00438428
0.00423573
0.00409466
0.00396131
0.00383587
0.00371855
0.00360954
0.00350901
0.00341711
0.003334
0.00325979
0.00319462
0.00313857
0.00309174
0.00305419
0.003026
0.0030072
0.00299782
0.00291263
0.00292214
0.00294122
0.00296984
0.00300794
0.00305547
0.00311235
0.00317849
0.0032538
0.00333814
0.0034314
0.00353342
0.00364405
0.00376311
0.00389041
0.00402575
0.00416891
0.00431966
0.00447777
0.00464297
0.00481501
0.0049936
0.00517845
0.00536925
0.00556571
0.00576748
0.00597424
0.00618564
0.00640134
0.00662096
0.00684414
0.0070705
0.00729965
0.00753121
0.00776477
0.00799993
0.00823629
0.00847343
0.00871093
0.00894838
0.00918535
0.00942142
0.00965618
0.00988919
0.0101201
0.0103483
0.0105736
0.0107955
0.0110136
0.0112275
0.0114368
0.0116411
0.0118401
0.0120333
0.0122204
0.012401
0.0125749
0.0127417
0.012901
0.0130526
0.0131962
0.0133315
0.0134582
0.0135761
0.013685
0.0137847
0.0138749
0.0139556
0.0140265
0.0140875
0.0141385
0.0141794
0.0142101
0.0142306
0.0142408
0.0142408
0.0142306
0.0142101
0.0141794
0.0141385
0.0140875
0.0140265
0.0139556
0.0138749
0.0137847
0.013685
0.0135761
0.0134582
0.0133314
0.0131962
0.0130526
0.012901
0.0127417
0.0125749
0.012401
0.0122204
0.0120333
0.01184
0.0116411
0.0114368
0.0112275
0.0110136
0.0107955
0.0105736
0.0103483
0.01012
0.00988918
0.00965616
0.0094214
0.00918533
0.00894836
0.00871091
0.00847341
0.00823627
0.00799991
0.00776474
0.00753118
0.00729963
0.00707047
0.00684411
0.00662093
0.00640131
0.00618562
0.00597421
0.00576745
0.00556568
0.00536923
0.00517842
0.00499357
0.00481498
0.00464295
0.00447774
0.00431963
0.00416888
0.00402572
0.00389038
0.00376308
0.00364403
0.0035334
0.00343138
0.00333812
0.00325378
0.00317847
0.00311233
0.00305546
0.00300794
0.00296984
0.00294123
0.00292215
0.00291264
0.00281745
0.00282711
0.0028465
0.00287558
0.0029143
0.0029626
0.0030204
0.00308762
0.00316414
0.00324986
0.00334464
0.00344832
0.00356075
0.00368175
0.00381113
0.00394868
0.00409418
0.0042474
0.0044081
0.00457601
0.00475087
0.00493238
0.00512027
0.00531421
0.0055139
0.005719
0.00592917
0.00614406
0.00636332
0.00658657
0.00681345
0.00704356
0.00727651
0.00751191
0.00774936
0.00798843
0.00822873
0.00846982
0.00871129
0.00895271
0.00919364
0.00943367
0.00967236
0.00990928
0.010144
0.0103761
0.0106052
0.0108309
0.0110526
0.0112701
0.0114829
0.0116907
0.011893
0.0120895
0.0122797
0.0124634
0.0126403
0.0128098
0.0129719
0.013126
0.0132721
0.0134096
0.0135385
0.0136584
0.0137692
0.0138706
0.0139623
0.0140444
0.0141165
0.0141785
0.0142304
0.014272
0.0143032
0.014324
0.0143344
0.0143344
0.014324
0.0143032
0.014272
0.0142304
0.0141785
0.0141165
0.0140444
0.0139623
0.0138706
0.0137692
0.0136584
0.0135385
0.0134096
0.013272
0.013126
0.0129719
0.0128098
0.0126403
0.0124634
0.0122797
0.0120894
0.011893
0.0116907
0.0114829
0.0112701
0.0110526
0.0108308
0.0106052
0.0103761
0.010144
0.00990927
0.00967234
0.00943365
0.00919363
0.00895269
0.00871128
0.00846981
0.00822871
0.00798841
0.00774934
0.00751189
0.00727649
0.00704353
0.00681342
0.00658655
0.00636329
0.00614403
0.00592914
0.00571897
0.00551387
0.00531419
0.00512024
0.00493236
0.00475084
0.00457598
0.00440807
0.00424737
0.00409415
0.00394865
0.0038111
0.00368173
0.00356073
0.0034483
0.00334461
0.00324984
0.00316412
0.00308759
0.00302038
0.00296258
0.00291429
0.00287557
0.0028465
0.00282711
0.00281745
0.00271208
0.00272192
0.00274165
0.00277124
0.00281064
0.00285978
0.00291861
0.00298701
0.00306489
0.00315213
0.00324858
0.00335411
0.00346853
0.00359168
0.00372335
0.00386335
0.00401144
0.00416738
0.00433094
0.00450185
0.00467983
0.00486459
0.00505583
0.00525325
0.00545651
0.00566528
0.00587922
0.00609798
0.00632118
0.00654845
0.00677941
0.00701367
0.00725083
0.00749049
0.00773223
0.00797564
0.0082203
0.00846577
0.00871163
0.00895744
0.00920276
0.00944716
0.0096902
0.00993145
0.0101705
0.0104068
0.0106401
0.0108699
0.0110957
0.0113172
0.0115339
0.0117455
0.0119515
0.0121516
0.0123454
0.0125325
0.0127126
0.0128853
0.0130503
0.0132073
0.013356
0.0134961
0.0136274
0.0137495
0.0138623
0.0139656
0.0140591
0.0141426
0.0142161
0.0142792
0.0143321
0.0143744
0.0144063
0.0144274
0.014438
0.014438
0.0144274
0.0144063
0.0143744
0.0143321
0.0142792
0.014216
0.0141426
0.0140591
0.0139656
0.0138623
0.0137495
0.0136274
0.0134961
0.013356
0.0132073
0.0130503
0.0128853
0.0127125
0.0125325
0.0123454
0.0121516
0.0119515
0.0117455
0.0115339
0.0113172
0.0110957
0.0108699
0.0106401
0.0104068
0.0101705
0.00993143
0.00969018
0.00944714
0.00920274
0.00895742
0.00871161
0.00846575
0.00822028
0.00797562
0.00773221
0.00749047
0.00725081
0.00701365
0.00677939
0.00654843
0.00632115
0.00609795
0.0058792
0.00566526
0.00545648
0.00525322
0.0050558
0.00486456
0.0046798
0.00450182
0.00433091
0.00416735
0.00401141
0.00386332
0.00372332
0.00359165
0.0034685
0.00335408
0.00324856
0.0031521
0.00306487
0.00298699
0.00291858
0.00285976
0.00281062
0.00277122
0.00274163
0.0027219
0.00271207
0.00259635
0.00260637
0.00262647
0.00265662
0.00269677
0.00274685
0.00280679
0.0028765
0.00295587
0.00304477
0.00314306
0.0032506
0.00336721
0.00349272
0.00362691
0.00376959
0.00392052
0.00407946
0.00424616
0.00442035
0.00460175
0.00479007
0.004985
0.00518623
0.00539341
0.00560622
0.00582431
0.0060473
0.00627482
0.00650651
0.00674196
0.00698078
0.00722256
0.00746689
0.00771335
0.00796151
0.00821095
0.00846123
0.00871191
0.00896254
0.00921268
0.00946189
0.00970971
0.00995571
0.0101994
0.0104405
0.0106784
0.0109127
0.011143
0.0113688
0.0115898
0.0118056
0.0120157
0.0122198
0.0124174
0.0126082
0.0127919
0.012968
0.0131363
0.0132965
0.0134482
0.0135911
0.013725
0.0138495
0.0139646
0.0140699
0.0141653
0.0142505
0.0143254
0.0143898
0.0144437
0.0144869
0.0145194
0.014541
0.0145517
0.0145517
0.014541
0.0145194
0.0144869
0.0144437
0.0143898
0.0143254
0.0142505
0.0141653
0.0140699
0.0139646
0.0138495
0.013725
0.0135911
0.0134482
0.0132965
0.0131363
0.012968
0.0127919
0.0126082
0.0124174
0.0122198
0.0120157
0.0118056
0.0115898
0.0113688
0.0111429
0.0109126
0.0106783
0.0104405
0.0101994
0.0099557
0.00970969
0.00946187
0.00921266
0.00896253
0.00871189
0.00846121
0.00821093
0.00796149
0.00771333
0.00746687
0.00722253
0.00698075
0.00674193
0.00650648
0.0062748
0.00604727
0.00582428
0.0056062
0.00539339
0.0051862
0.00498497
0.00479004
0.00460172
0.00442032
0.00424613
0.00407943
0.00392049
0.00376956
0.00362689
0.00349269
0.00336719
0.00325058
0.00314304
0.00304474
0.00295584
0.00287647
0.00280677
0.00274682
0.00269674
0.00265659
0.00262644
0.00260635
0.00259633
0.00247003
0.00248025
0.00250076
0.00253152
0.00257249
0.00262359
0.00268475
0.00275588
0.00283686
0.00292758
0.00302788
0.00313762
0.00325662
0.00338469
0.00352163
0.00366723
0.00382126
0.00398346
0.00415359
0.00433136
0.00451649
0.00470869
0.00490764
0.00511302
0.00532449
0.0055417
0.00576429
0.00599191
0.00622415
0.00646065
0.006701
0.00694479
0.0071916
0.00744103
0.00769264
0.00794599
0.00820065
0.00845618
0.00871212
0.00896801
0.00922341
0.00947786
0.0097309
0.00998209
0.010231
0.0104771
0.01072
0.0109593
0.0111944
0.0114251
0.0116508
0.0118711
0.0120857
0.0122941
0.0124959
0.0126908
0.0128784
0.0130583
0.0132302
0.0133938
0.0135487
0.0136946
0.0138314
0.0139586
0.0140762
0.0141837
0.0142811
0.0143681
0.0144446
0.0145105
0.0145655
0.0146097
0.0146428
0.0146649
0.0146758
0.0146758
0.0146649
0.0146428
0.0146097
0.0145655
0.0145105
0.0144446
0.0143681
0.0142811
0.0141837
0.0140761
0.0139586
0.0138314
0.0136946
0.0135487
0.0133938
0.0132302
0.0130583
0.0128784
0.0126908
0.0124959
0.0122941
0.0120857
0.0118711
0.0116508
0.0114251
0.0111944
0.0109592
0.01072
0.0104771
0.010231
0.00998207
0.00973089
0.00947784
0.00922339
0.008968
0.0087121
0.00845616
0.00820063
0.00794597
0.00769262
0.00744101
0.00719158
0.00694476
0.00670097
0.00646063
0.00622413
0.00599188
0.00576427
0.00554167
0.00532446
0.00511299
0.00490761
0.00470867
0.00451647
0.00433133
0.00415356
0.00398343
0.00382123
0.00366721
0.00352161
0.00338466
0.00325659
0.00313759
0.00302786
0.00292755
0.00283684
0.00275585
0.00268472
0.00262356
0.00257246
0.00253149
0.00250073
0.00248023
0.00247001
0.00233291
0.00234335
0.0023643
0.00239572
0.00243757
0.00248978
0.00255226
0.00262493
0.00270767
0.00280035
0.00290283
0.00301495
0.00313654
0.00326739
0.00340732
0.00355608
0.00371346
0.00387921
0.00405304
0.0042347
0.00442388
0.00462029
0.0048236
0.00503348
0.00524959
0.00547157
0.00569907
0.00593169
0.00616906
0.00641077
0.00665643
0.00690561
0.0071579
0.00741286
0.00767005
0.00792903
0.00818936
0.00845058
0.00871223
0.00897383
0.00923494
0.00949508
0.00975379
0.0100106
0.0102651
0.0105167
0.0107651
0.0110097
0.0112502
0.0114861
0.0117169
0.0119422
0.0121616
0.0123747
0.0125811
0.0127804
0.0129722
0.0131562
0.013332
0.0134993
0.0136577
0.013807
0.0139468
0.014077
0.0141972
0.0143072
0.0144068
0.0144958
0.0145741
0.0146414
0.0146977
0.0147428
0.0147767
0.0147993
0.0148105
0.0148105
0.0147993
0.0147767
0.0147428
0.0146977
0.0146414
0.0145741
0.0144958
0.0144068
0.0143072
0.0141972
0.014077
0.0139468
0.013807
0.0136577
0.0134993
0.013332
0.0131562
0.0129722
0.0127804
0.0125811
0.0123747
0.0121616
0.0119422
0.0117168
0.011486
0.0112502
0.0110097
0.0107651
0.0105167
0.010265
0.0100106
0.00975377
0.00949506
0.00923492
0.00897382
0.00871221
0.00845056
0.00818934
0.00792901
0.00767003
0.00741283
0.00715788
0.00690559
0.00665641
0.00641075
0.00616903
0.00593166
0.00569904
0.00547155
0.00524956
0.00503345
0.00482357
0.00462026
0.00442386
0.00423467
0.00405302
0.00387918
0.00371344
0.00355606
0.00340729
0.00326737
0.00313651
0.00301493
0.00290281
0.00280033
0.00270765
0.00262491
0.00255224
0.00248975
0.00243754
0.00239569
0.00236427
0.00234332
0.00233288
0.00218474
0.00219542
0.00221684
0.00224898
0.00229178
0.00234518
0.00240909
0.00248342
0.00256806
0.00266286
0.00276769
0.00288238
0.00300675
0.00314061
0.00328375
0.00343594
0.00359694
0.0037665
0.00394434
0.00413019
0.00432374
0.00452469
0.0047327
0.00494744
0.00516856
0.0053957
0.00562848
0.00586652
0.00610941
0.00635676
0.00660816
0.00686316
0.00712135
0.00738228
0.00764551
0.00791057
0.00817702
0.00844439
0.0087122
0.00897998
0.00924725
0.00951354
0.00977838
0.0100413
0.0103018
0.0105594
0.0108137
0.0110641
0.0113103
0.0115518
0.0117881
0.0120188
0.0122435
0.0124617
0.012673
0.0128771
0.0130735
0.0132619
0.0134419
0.0136132
0.0137754
0.0139283
0.0140715
0.0142048
0.0143279
0.0144405
0.0145425
0.0146337
0.0147138
0.0147828
0.0148404
0.0148867
0.0149214
0.0149445
0.014956
0.014956
0.0149445
0.0149214
0.0148867
0.0148404
0.0147828
0.0147138
0.0146337
0.0145425
0.0144405
0.0143279
0.0142048
0.0140715
0.0139283
0.0137754
0.0136132
0.0134419
0.0132619
0.0130735
0.0128771
0.012673
0.0124617
0.0122435
0.0120188
0.0117881
0.0115518
0.0113103
0.0110641
0.0108136
0.0105594
0.0103018
0.0100413
0.00977836
0.00951353
0.00924724
0.00897996
0.00871218
0.00844437
0.008177
0.00791055
0.00764548
0.00738226
0.00712133
0.00686314
0.00660813
0.00635674
0.00610939
0.00586649
0.00562845
0.00539567
0.00516854
0.00494741
0.00473267
0.00452466
0.00432372
0.00413016
0.00394432
0.00376647
0.00359691
0.00343591
0.00328372
0.00314058
0.00300672
0.00288235
0.00276766
0.00266283
0.00256803
0.0024834
0.00240907
0.00234515
0.00229175
0.00224895
0.00221681
0.00219539
0.00218471
0.00202526
0.00203618
0.00205812
0.00209103
0.00213486
0.00218954
0.00225498
0.0023311
0.00241776
0.00251485
0.0026222
0.00273965
0.00286702
0.0030041
0.0031507
0.00330656
0.00347146
0.00364512
0.00382727
0.00401762
0.00421587
0.0044217
0.00463477
0.00485474
0.00508124
0.00531392
0.00555239
0.00579624
0.00604508
0.0062985
0.00655606
0.00681733
0.00708186
0.00734922
0.00761894
0.00789055
0.00816358
0.00843757
0.00871202
0.00898644
0.00926035
0.00953326
0.00980468
0.0100741
0.0103411
0.0106052
0.0108658
0.0111225
0.0113749
0.0116224
0.0118646
0.0121011
0.0123314
0.0125551
0.0127718
0.012981
0.0131824
0.0133755
0.0135601
0.0137357
0.013902
0.0140588
0.0142056
0.0143423
0.0144685
0.014584
0.0146886
0.014782
0.0148642
0.0149349
0.014994
0.0150414
0.015077
0.0151007
0.0151125
0.0151125
0.0151007
0.015077
0.0150414
0.014994
0.0149349
0.0148642
0.014782
0.0146886
0.014584
0.0144685
0.0143423
0.0142056
0.0140588
0.013902
0.0137357
0.0135601
0.0133755
0.0131824
0.012981
0.0127718
0.0125551
0.0123314
0.0121011
0.0118646
0.0116224
0.0113749
0.0111225
0.0108658
0.0106052
0.0103411
0.0100741
0.00980466
0.00953324
0.00926033
0.00898642
0.008712
0.00843755
0.00816356
0.00789052
0.00761891
0.0073492
0.00708184
0.0068173
0.00655603
0.00629847
0.00604506
0.00579621
0.00555236
0.00531389
0.00508122
0.00485471
0.00463474
0.00442167
0.00421585
0.0040176
0.00382724
0.00364509
0.00347143
0.00330654
0.00315067
0.00300408
0.00286699
0.00273962
0.00262217
0.00251482
0.00241774
0.00233107
0.00225495
0.00218951
0.00213483
0.002091
0.00205809
0.00203615
0.00202523
0.00185418
0.00186537
0.00188785
0.00192158
0.00196651
0.00202256
0.00208965
0.00216767
0.00225652
0.00235604
0.00246609
0.0025865
0.00271708
0.00285762
0.00300792
0.00316772
0.00333678
0.00351483
0.0037016
0.00389678
0.00410006
0.00431111
0.0045296
0.00475517
0.00498745
0.00522606
0.00547062
0.00572071
0.00597593
0.00623584
0.00650001
0.00676799
0.00703934
0.00731358
0.00759026
0.00786889
0.00814898
0.00843006
0.00871163
0.00899318
0.00927421
0.00955422
0.00983271
0.0101092
0.0103832
0.0106541
0.0109215
0.011185
0.011444
0.011698
0.0119466
0.0121893
0.0124257
0.0126553
0.0128776
0.0130924
0.013299
0.0134973
0.0136867
0.013867
0.0140377
0.0141986
0.0143493
0.0144896
0.0146192
0.0147377
0.0148451
0.0149411
0.0150254
0.015098
0.0151587
0.0152073
0.0152438
0.0152682
0.0152802
0.0152802
0.0152682
0.0152438
0.0152073
0.0151587
0.015098
0.0150254
0.0149411
0.0148451
0.0147377
0.0146192
0.0144896
0.0143493
0.0141986
0.0140377
0.013867
0.0136867
0.0134973
0.013299
0.0130923
0.0128776
0.0126552
0.0124257
0.0121893
0.0119466
0.011698
0.011444
0.011185
0.0109215
0.0106541
0.0103831
0.0101092
0.00983269
0.0095542
0.00927419
0.00899316
0.00871161
0.00843004
0.00814896
0.00786886
0.00759023
0.00731356
0.00703931
0.00676797
0.00649998
0.00623581
0.0059759
0.00572068
0.00547059
0.00522604
0.00498742
0.00475514
0.00452957
0.00431109
0.00410003
0.00389675
0.00370158
0.00351481
0.00333676
0.00316769
0.00300789
0.0028576
0.00271705
0.00258648
0.00246607
0.00235602
0.00225649
0.00216765
0.00208962
0.00202253
0.00196648
0.00192155
0.00188782
0.00186534
0.00185415
0.00167119
0.00168267
0.00170573
0.00174035
0.00178644
0.00184395
0.0019128
0.00199286
0.00208403
0.00218616
0.00229909
0.00242266
0.00255666
0.0027009
0.00285514
0.00301914
0.00319265
0.0033754
0.00356709
0.00376742
0.00397608
0.00419271
0.00441699
0.00464854
0.00488699
0.00513194
0.00538301
0.00563976
0.00590179
0.00616864
0.00643987
0.00671504
0.00699366
0.00727527
0.00755938
0.00784551
0.00813316
0.00842183
0.00871101
0.00900017
0.00928882
0.00957642
0.00986248
0.0101465
0.0104279
0.0107062
0.010981
0.0112516
0.0115177
0.0117786
0.0120341
0.0122834
0.0125263
0.0127622
0.0129906
0.0132113
0.0134237
0.0136274
0.013822
0.0140073
0.0141827
0.0143481
0.014503
0.0146471
0.0147802
0.0149021
0.0150124
0.0151111
0.0151977
0.0152723
0.0153347
0.0153847
0.0154222
0.0154472
0.0154596
0.0154596
0.0154472