/*--------------------------------*- C++ -*----------------------------------*\
| =========                 |                                                 |
| \\      /  F ield         | OpenFOAM: The Open Source CFD Toolbox           |
|  \\    /   O peration     | Version:  2106                                  |
|   \\  /    A nd           | Website:  www.openfoam.com                      |
|    \\/     M anipulation  |                                                 |
\*---------------------------------------------------------------------------*/
FoamFile
{
    version     2.0;
    format      ascii;
    arch        "LSB;label=32;scalar=64";
    class       surfaceScalarField;
    location    "0.043";
    object      phi;
}
// * * * * * * * * * * * * * * * * * * * * * * * * * * * * * * * * * * * * * //

dimensions      [0 3 -1 0 0 0 0];

oriented        oriented;

internalField   nonuniform List<scalar> 
130560
(
3.121225e-06
-3.121225e-06
6.2405135e-06
-3.1192885e-06
9.3559302e-06
-3.1154167e-06
1.2465542e-05
-3.1096123e-06
1.5567422e-05
-3.1018791e-06
1.8659644e-05
-3.0922224e-06
2.1740293e-05
-3.0806486e-06
2.4807458e-05
-3.0671655e-06
2.785924e-05
-3.0517822e-06
3.0893749e-05
-3.0345089e-06
3.3909106e-05
-3.0153572e-06
3.6903446e-05
-2.99434e-06
3.9874918e-05
-2.9714714e-06
4.2821684e-05
-2.9467666e-06
4.5741926e-05
-2.9202421e-06
4.8633842e-05
-2.8919157e-06
5.1495648e-05
-2.8618062e-06
5.4325582e-05
-2.8299338e-06
5.7121902e-05
-2.7963197e-06
5.9882888e-05
-2.7609862e-06
6.2606845e-05
-2.7239568e-06
6.5292101e-05
-2.6852562e-06
6.7937011e-05
-2.6449099e-06
7.0539956e-05
-2.6029448e-06
7.3099344e-05
-2.5593885e-06
7.5613614e-05
-2.5142698e-06
7.8081233e-05
-2.4676186e-06
8.0500698e-05
-2.4194655e-06
8.287054e-05
-2.3698422e-06
8.5189322e-05
-2.3187813e-06
8.7455638e-05
-2.2663163e-06
8.966812e-05
-2.2124816e-06
9.1825432e-05
-2.1573122e-06
9.3926276e-05
-2.1008442e-06
9.5969391e-05
-2.0431144e-06
9.7953551e-05
-1.9841603e-06
9.9877571e-05
-1.9240201e-06
0.0001017403
-1.8627328e-06
0.00010354064
-1.800338e-06
0.00010527752
-1.7368759e-06
0.0001069499
-1.6723873e-06
0.00010855682
-1.6069137e-06
0.00011009732
-1.540497e-06
0.0001115705
-1.4731797e-06
0.0001129755
-1.4050048e-06
0.00011431152
-1.3360155e-06
0.00011557777
-1.2662558e-06
0.00011677354
-1.1957698e-06
0.00011789814
-1.124602e-06
0.00011895094
-1.0527973e-06
0.00011993134
-9.8040093e-07
0.0001208388
-9.0745822e-07
0.00012167281
-8.3401481e-07
0.00012243293
-7.6011654e-07
0.00012311874
-6.858094e-07
0.00012372988
-6.111395e-07
0.00012426603
-5.3615307e-07
0.00012472693
-4.6089641e-07
0.00012511235
-3.8541583e-07
0.0001254221
-3.0975768e-07
0.00012565607
-2.3396827e-07
0.00012581417
-1.5809386e-07
0.00012589635
-8.218066e-08
0.00012590262
-6.2747211e-09
0.00012583304
6.9577693e-08
0.00012568771
1.453317e-07
0.00012546677
2.2094113e-07
0.00012517041
2.9636052e-07
0.00012479886
3.7154493e-07
0.00012435241
4.4644955e-07
0.00012383139
5.2102988e-07
0.00012323614
5.952417e-07
0.0001225671
6.690412e-07
0.00012182472
7.4238492e-07
0.00012100949
8.152298e-07
0.00012012195
8.8753321e-07
0.0001191627
9.5925298e-07
0.00011813235
1.0303474e-06
0.00011703158
1.1007752e-06
0.00011586108
1.1704958e-06
0.00011462161
1.239469e-06
0.00011331396
1.3076551e-06
0.00011193894
1.3750151e-06
0.00011049743
1.4415106e-06
0.00010899033
1.5071038e-06
0.00010741857
1.5717574e-06
0.00010578314
1.6354349e-06
0.00010408504
1.6981004e-06
0.00010232532
1.7597187e-06
0.00010050506
1.8202552e-06
9.8625386e-05
1.8796762e-06
9.6687438e-05
1.9379485e-06
9.4692398e-05
1.9950399e-06
9.2641479e-05
2.0509186e-06
9.0535925e-05
2.1055539e-06
8.837701e-05
2.1589157e-06
8.6166035e-05
2.2109747e-06
8.3904333e-05
2.2617023e-06
8.1593262e-05
2.3110709e-06
7.9234208e-05
2.3590537e-06
7.6828584e-05
2.4056245e-06
7.4377825e-05
2.4507582e-06
7.1883395e-05
2.4944303e-06
6.9346778e-05
2.5366174e-06
6.6769481e-05
2.5772967e-06
6.4153035e-05
2.6164464e-06
6.1498989e-05
2.6540456e-06
5.8808915e-05
2.6900742e-06
5.6084402e-05
2.7245129e-06
5.3327058e-05
2.7573436e-06
5.053851e-05
2.7885487e-06
4.7720398e-05
2.8181118e-06
4.4874381e-05
2.8460171e-06
4.2002131e-05
2.87225e-06
3.9105334e-05
2.8967966e-06
3.618569e-05
2.9196441e-06
3.324491e-05
2.9407803e-06
3.0284716e-05
2.9601943e-06
2.730684e-05
2.9778757e-06
2.4313024e-05
2.9938155e-06
2.1305019e-05
3.0080052e-06
1.8284582e-05
3.0204375e-06
1.5253476e-05
3.0311057e-06
1.2213472e-05
3.0400045e-06
9.1663425e-06
3.047129e-06
6.1138668e-06
3.0524757e-06
3.0578251e-06
3.0560417e-06
-4.3907772e-15
3.0578251e-06
-3.0578251e-06
3.0578251e-06
-6.1138668e-06
3.0560417e-06
-9.1663425e-06
3.0524757e-06
-1.2213472e-05
3.047129e-06
-1.5253476e-05
3.0400045e-06
-1.8284582e-05
3.0311057e-06
-2.1305019e-05
3.0204375e-06
-2.4313024e-05
3.0080052e-06
-2.730684e-05
2.9938155e-06
-3.0284716e-05
2.9778757e-06
-3.324491e-05
2.9601943e-06
-3.618569e-05
2.9407803e-06
-3.9105334e-05
2.9196441e-06
-4.2002131e-05
2.8967966e-06
-4.4874381e-05
2.87225e-06
-4.7720398e-05
2.8460171e-06
-5.053851e-05
2.8181118e-06
-5.3327058e-05
2.7885487e-06
-5.6084402e-05
2.7573436e-06
-5.8808915e-05
2.7245129e-06
-6.1498989e-05
2.6900742e-06
-6.4153035e-05
2.6540456e-06
-6.6769481e-05
2.6164464e-06
-6.9346778e-05
2.5772967e-06
-7.1883395e-05
2.5366174e-06
-7.4377825e-05
2.4944303e-06
-7.6828584e-05
2.4507582e-06
-7.9234208e-05
2.4056245e-06
-8.1593262e-05
2.3590537e-06
-8.3904333e-05
2.3110709e-06
-8.6166035e-05
2.2617023e-06
-8.837701e-05
2.2109747e-06
-9.0535925e-05
2.1589157e-06
-9.2641479e-05
2.1055539e-06
-9.4692398e-05
2.0509186e-06
-9.6687438e-05
1.9950399e-06
-9.8625386e-05
1.9379485e-06
-0.00010050506
1.8796762e-06
-0.00010232532
1.8202552e-06
-0.00010408504
1.7597187e-06
-0.00010578314
1.6981004e-06
-0.00010741857
1.6354349e-06
-0.00010899033
1.5717574e-06
-0.00011049743
1.5071038e-06
-0.00011193894
1.4415106e-06
-0.00011331396
1.3750151e-06
-0.00011462161
1.3076551e-06
-0.00011586108
1.239469e-06
-0.00011703158
1.1704958e-06
-0.00011813235
1.1007752e-06
-0.0001191627
1.0303474e-06
-0.00012012195
9.5925298e-07
-0.00012100949
8.8753321e-07
-0.00012182472
8.152298e-07
-0.0001225671
7.4238492e-07
-0.00012323614
6.690412e-07
-0.00012383139
5.952417e-07
-0.00012435241
5.2102987e-07
-0.00012479886
4.4644955e-07
-0.00012517041
3.7154493e-07
-0.00012546677
2.9636052e-07
-0.00012568771
2.2094113e-07
-0.00012583304
1.453317e-07
-0.00012590262
6.9577692e-08
-0.00012589635
-6.2747214e-09
-0.00012581417
-8.2180661e-08
-0.00012565607
-1.5809386e-07
-0.0001254221
-2.3396827e-07
-0.00012511235
-3.0975768e-07
-0.00012472693
-3.8541583e-07
-0.00012426603
-4.6089641e-07
-0.00012372988
-5.3615307e-07
-0.00012311874
-6.111395e-07
-0.00012243293
-6.858094e-07
-0.00012167281
-7.6011654e-07
-0.0001208388
-8.3401481e-07
-0.00011993134
-9.0745822e-07
-0.00011895094
-9.8040093e-07
-0.00011789814
-1.0527973e-06
-0.00011677354
-1.124602e-06
-0.00011557777
-1.1957698e-06
-0.00011431152
-1.2662558e-06
-0.0001129755
-1.3360155e-06
-0.0001115705
-1.4050048e-06
-0.00011009732
-1.4731797e-06
-0.00010855682
-1.540497e-06
-0.0001069499
-1.6069137e-06
-0.00010527752
-1.6723873e-06
-0.00010354064
-1.7368759e-06
-0.0001017403
-1.800338e-06
-9.9877571e-05
-1.8627328e-06
-9.7953551e-05
-1.9240201e-06
-9.5969391e-05
-1.9841603e-06
-9.3926276e-05
-2.0431144e-06
-9.1825432e-05
-2.1008442e-06
-8.966812e-05
-2.1573122e-06
-8.7455638e-05
-2.2124816e-06
-8.5189322e-05
-2.2663163e-06
-8.287054e-05
-2.3187813e-06
-8.0500698e-05
-2.3698422e-06
-7.8081233e-05
-2.4194655e-06
-7.5613614e-05
-2.4676186e-06
-7.3099344e-05
-2.5142698e-06
-7.0539956e-05
-2.5593885e-06
-6.7937011e-05
-2.6029448e-06
-6.5292101e-05
-2.6449099e-06
-6.2606845e-05
-2.6852562e-06
-5.9882888e-05
-2.7239568e-06
-5.7121902e-05
-2.7609862e-06
-5.4325582e-05
-2.7963197e-06
-5.1495648e-05
-2.8299338e-06
-4.8633842e-05
-2.8618062e-06
-4.5741926e-05
-2.8919157e-06
-4.2821684e-05
-2.9202421e-06
-3.9874918e-05
-2.9467666e-06
-3.6903446e-05
-2.9714714e-06
-3.3909106e-05
-2.99434e-06
-3.0893749e-05
-3.0153572e-06
-2.785924e-05
-3.0345089e-06
-2.4807458e-05
-3.0517822e-06
-2.1740293e-05
-3.0671655e-06
-1.8659644e-05
-3.0806486e-06
-1.5567422e-05
-3.0922224e-06
-1.2465542e-05
-3.1018791e-06
-9.3559302e-06
-3.1096123e-06
-6.2405135e-06
-3.1154167e-06
-3.121225e-06
-3.1192885e-06
-3.121225e-06
3.1242819e-06
-6.245507e-06
6.2466254e-06
-6.241632e-06
9.3650933e-06
-6.2338845e-06
1.2477751e-05
-6.2222699e-06
1.5582668e-05
-6.2067959e-06
1.8677918e-05
-6.1874729e-06
2.1761583e-05
-6.1643138e-06
2.4831752e-05
-6.1373342e-06
2.7886522e-05
-6.1065522e-06
3.0924002e-05
-6.0719885e-06
3.3942311e-05
-6.0336662e-06
3.6939582e-05
-5.9916109e-06
3.9913961e-05
-5.9458509e-06
4.2863611e-05
-5.8964168e-06
4.5786711e-05
-5.8433415e-06
4.8681456e-05
-5.7866605e-06
5.1546061e-05
-5.7264118e-06
5.4378763e-05
-5.6626353e-06
5.7177817e-05
-5.5953737e-06
5.9941502e-05
-5.5246717e-06
6.2668121e-05
-5.4505763e-06
6.5356002e-05
-5.3731366e-06
6.8003496e-05
-5.2924041e-06
7.0608983e-05
-5.2084322e-06
7.3170871e-05
-5.1212765e-06
7.5687596e-05
-5.0309945e-06
7.8157623e-05
-4.9376458e-06
8.057945e-05
-4.841292e-06
8.2951604e-05
-4.7419963e-06
8.5272647e-05
-4.639824e-06
8.7541172e-05
-4.5348421e-06
8.975581e-05
-4.4271194e-06
9.1915224e-05
-4.3167261e-06
9.4018114e-05
-4.2037344e-06
9.6063218e-05
-4.0882178e-06
9.8049309e-05
-3.9702514e-06
9.99752e-05
-3.8499116e-06
0.00010183974
-3.7272766e-06
0.00010364183
-3.6024254e-06
0.00010538039
-3.4754386e-06
0.0001070544
-3.3463979e-06
0.00010866288
-3.2153863e-06
0.00011020487
-3.0824875e-06
0.00011167947
-2.9477867e-06
0.00011308584
-2.8113697e-06
0.00011442315
-2.6733233e-06
0.00011569063
-2.5337353e-06
0.00011688755
-2.392694e-06
0.00011801324
-2.2502885e-06
0.00011906705
-2.1066087e-06
0.00012004839
-1.9617449e-06
0.00012095672
-1.8157879e-06
0.00012179154
-1.6688291e-06
0.00012255238
-1.5209601e-06
0.00012323884
-1.3722731e-06
0.00012385056
-1.2228601e-06
0.00012438723
-1.0728139e-06
0.00012484856
-9.2222696e-07
0.00012523433
-7.7119201e-07
0.00012554438
-6.1980177e-07
0.00012577856
-4.6814892e-07
0.00012593679
-3.1632605e-07
0.00012601903
-1.6442557e-07
0.0001260253
-1.2539712e-08
0.00012595564
1.3923958e-07
0.00012581015
2.908211e-07
0.00012558898
4.4211341e-07
0.00012529231
5.9302565e-07
0.00012492039
7.4346765e-07
0.00012447349
8.9334976e-07
0.00012395193
1.0425829e-06
0.0001233561
1.1910787e-06
0.00012268639
1.3387493e-06
0.00012194327
1.4855079e-06
0.00012112723
1.6312683e-06
0.00012023882
1.7759452e-06
0.00011927861
1.9194543e-06
0.00011824725
2.0617119e-06
0.00011714539
2.2026358e-06
0.00011597374
2.3421444e-06
0.00011473305
2.4801574e-06
0.00011342411
2.6165955e-06
0.00011204775
2.7513806e-06
0.00011060482
2.8844358e-06
0.00010909624
3.0156854e-06
0.00010752294
3.1450549e-06
0.00010588591
3.2724713e-06
0.00010418614
3.3978626e-06
0.0001024247
3.5211585e-06
0.00010060267
3.6422898e-06
9.8721157e-05
3.7611889e-06
9.6781315e-05
3.8777896e-06
9.4784328e-05
3.9920271e-06
9.2731409e-05
4.1038383e-06
9.0623801e-05
4.2131613e-06
8.8462781e-05
4.319936e-06
8.6249652e-05
4.4241038e-06
8.3985746e-05
4.5256077e-06
8.1672425e-05
4.6243922e-06
7.9311075e-05
4.7204036e-06
7.690311e-05
4.8135898e-06
7.4449968e-05
4.9039003e-06
7.1953112e-05
4.9912863e-06
6.9414028e-05
5.0757007e-06
6.6834227e-05
5.1570981e-06
6.4215238e-05
5.2354349e-06
6.1558615e-05
5.3106692e-06
5.8865928e-05
5.3827607e-06
5.613877e-05
5.4516711e-06
5.337875e-05
5.5173637e-06
5.0587495e-05
5.5798037e-06
4.7766649e-05
5.6389579e-06
4.4917871e-05
5.6947951e-06
4.2042835e-05
5.7472859e-06
3.9143229e-05
5.7964025e-06
3.6220754e-05
5.8421191e-06
3.3277123e-05
5.8844116e-06
3.0314059e-05
5.923258e-06
2.7333297e-05
5.9586378e-06
2.433658e-05
5.9905325e-06
2.132566e-05
6.0189254e-06
1.8302296e-05
6.0438017e-06
1.5268253e-05
6.0651483e-06
1.2225303e-05
6.0829542e-06
9.1752224e-06
6.0972101e-06
6.1197896e-06
6.1079085e-06
3.0607874e-06
6.1150439e-06
-4.394336e-15
6.1186125e-06
-3.0607874e-06
6.1186125e-06
-6.1197896e-06
6.1150439e-06
-9.1752224e-06
6.1079085e-06
-1.2225303e-05
6.0972101e-06
-1.5268253e-05
6.0829542e-06
-1.8302296e-05
6.0651483e-06
-2.132566e-05
6.0438017e-06
-2.433658e-05
6.0189254e-06
-2.7333297e-05
5.9905325e-06
-3.0314059e-05
5.9586378e-06
-3.3277123e-05
5.923258e-06
-3.6220754e-05
5.8844116e-06
-3.9143229e-05
5.8421191e-06
-4.2042835e-05
5.7964025e-06
-4.4917871e-05
5.7472859e-06
-4.7766649e-05
5.6947951e-06
-5.0587495e-05
5.6389579e-06
-5.337875e-05
5.5798037e-06
-5.613877e-05
5.5173637e-06
-5.8865928e-05
5.4516711e-06
-6.1558615e-05
5.3827607e-06
-6.4215238e-05
5.3106692e-06
-6.6834227e-05
5.2354349e-06
-6.9414028e-05
5.1570981e-06
-7.1953112e-05
5.0757007e-06
-7.4449968e-05
4.9912863e-06
-7.690311e-05
4.9039003e-06
-7.9311075e-05
4.8135898e-06
-8.1672425e-05
4.7204036e-06
-8.3985746e-05
4.6243922e-06
-8.6249652e-05
4.5256077e-06
-8.8462781e-05
4.4241038e-06
-9.0623801e-05
4.319936e-06
-9.2731409e-05
4.2131613e-06
-9.4784328e-05
4.1038383e-06
-9.6781315e-05
3.9920271e-06
-9.8721157e-05
3.8777896e-06
-0.00010060267
3.7611889e-06
-0.0001024247
3.6422898e-06
-0.00010418614
3.5211585e-06
-0.00010588591
3.3978626e-06
-0.00010752294
3.2724713e-06
-0.00010909624
3.1450549e-06
-0.00011060482
3.0156854e-06
-0.00011204775
2.8844358e-06
-0.00011342411
2.7513806e-06
-0.00011473305
2.6165955e-06
-0.00011597374
2.4801574e-06
-0.00011714539
2.3421444e-06
-0.00011824725
2.2026358e-06
-0.00011927861
2.0617119e-06
-0.00012023882
1.9194543e-06
-0.00012112723
1.7759452e-06
-0.00012194327
1.6312683e-06
-0.00012268639
1.4855079e-06
-0.0001233561
1.3387493e-06
-0.00012395193
1.1910787e-06
-0.00012447349
1.0425829e-06
-0.00012492039
8.9334976e-07
-0.00012529231
7.4346765e-07
-0.00012558898
5.9302565e-07
-0.00012581015
4.4211341e-07
-0.00012595564
2.908211e-07
-0.0001260253
1.3923958e-07
-0.00012601903
-1.2539713e-08
-0.00012593679
-1.6442557e-07
-0.00012577856
-3.1632605e-07
-0.00012554438
-4.6814892e-07
-0.00012523433
-6.1980177e-07
-0.00012484856
-7.7119201e-07
-0.00012438723
-9.2222696e-07
-0.00012385056
-1.0728139e-06
-0.00012323884
-1.2228601e-06
-0.00012255238
-1.3722731e-06
-0.00012179154
-1.5209601e-06
-0.00012095672
-1.6688291e-06
-0.00012004839
-1.8157879e-06
-0.00011906705
-1.9617449e-06
-0.00011801324
-2.1066087e-06
-0.00011688755
-2.2502885e-06
-0.00011569063
-2.392694e-06
-0.00011442315
-2.5337353e-06
-0.00011308584
-2.6733233e-06
-0.00011167947
-2.8113697e-06
-0.00011020487
-2.9477867e-06
-0.00010866288
-3.0824875e-06
-0.0001070544
-3.2153863e-06
-0.00010538039
-3.346398e-06
-0.00010364183
-3.4754386e-06
-0.00010183974
-3.6024254e-06
-9.99752e-05
-3.7272766e-06
-9.8049309e-05
-3.8499117e-06
-9.6063218e-05
-3.9702514e-06
-9.4018114e-05
-4.0882178e-06
-9.1915224e-05
-4.2037344e-06
-8.975581e-05
-4.3167261e-06
-8.7541172e-05
-4.4271194e-06
-8.5272646e-05
-4.5348421e-06
-8.2951604e-05
-4.639824e-06
-8.057945e-05
-4.7419963e-06
-7.8157623e-05
-4.841292e-06
-7.5687596e-05
-4.9376458e-06
-7.3170871e-05
-5.0309945e-06
-7.0608983e-05
-5.1212765e-06
-6.8003496e-05
-5.2084322e-06
-6.5356002e-05
-5.2924041e-06
-6.2668121e-05
-5.3731366e-06
-5.9941502e-05
-5.4505763e-06
-5.7177817e-05
-5.5246717e-06
-5.4378763e-05
-5.5953737e-06
-5.1546061e-05
-5.6626353e-06
-4.8681456e-05
-5.7264118e-06
-4.5786711e-05
-5.7866605e-06
-4.2863611e-05
-5.8433415e-06
-3.9913961e-05
-5.8964168e-06
-3.6939582e-05
-5.9458509e-06
-3.3942311e-05
-5.9916109e-06
-3.0924002e-05
-6.0336662e-06
-2.7886522e-05
-6.0719885e-06
-2.4831752e-05
-6.1065522e-06
-2.1761583e-05
-6.1373342e-06
-1.8677918e-05
-6.1643138e-06
-1.5582668e-05
-6.1874729e-06
-1.2477751e-05
-6.2067959e-06
-9.3650933e-06
-6.2222699e-06
-6.2466254e-06
-6.2338845e-06
-3.1242819e-06
-6.241632e-06
-6.245507e-06
3.1294322e-06
-9.3749392e-06
6.2569228e-06
-9.3691225e-06
9.3805313e-06
-9.3574931e-06
1.249832e-05
-9.3400586e-06
1.5608355e-05
-9.316831e-06
1.8708708e-05
-9.2878256e-06
2.1797456e-05
-9.2530621e-06
2.4872686e-05
-9.2125638e-06
2.7932491e-05
-9.1663578e-06
3.0974978e-05
-9.114475e-06
3.3998262e-05
-9.0569504e-06
3.7000473e-05
-8.9938223e-06
3.9979756e-05
-8.9251331e-06
4.2934268e-05
-8.8509288e-06
4.5862185e-05
-8.7712588e-06
4.8761701e-05
-8.6861765e-06
5.1631028e-05
-8.5957387e-06
5.4468398e-05
-8.5000055e-06
5.7272065e-05
-8.3990409e-06
6.0040306e-05
-8.2929119e-06
6.2771419e-05
-8.1816892e-06
6.5463728e-05
-8.0654466e-06
6.8115586e-05
-7.9442611e-06
7.0725366e-05
-7.8182132e-06
7.3291476e-05
-7.687386e-06
7.5812348e-05
-7.5518662e-06
7.8286445e-05
-7.411743e-06
8.0712262e-05
-7.2671088e-06
8.3088324e-05
-7.1180588e-06
8.5413191e-05
-6.9646908e-06
8.7685454e-05
-6.8071053e-06
8.9903741e-05
-6.6454057e-06
9.2066712e-05
-6.4796974e-06
9.4173066e-05
-6.3100887e-06
9.6221538e-05
-6.1366899e-06
9.8210901e-05
-5.9596138e-06
0.00010013996
-5.7789752e-06
0.00010200758
-5.5948912e-06
0.00010381263
-5.4074806e-06
0.00010555406
-5.2168644e-06
0.00010723083
-5.0231651e-06
0.00010884195
-4.8265073e-06
0.00011038648
-4.6270168e-06
0.00011186351
-4.4248213e-06
0.00011327219
-4.2200497e-06
0.0001146117
-4.0128323e-06
0.00011588127
-3.8033008e-06
0.00011708016
-3.5915879e-06
0.0001182077
-3.3778273e-06
0.00011926324
-3.1621538e-06
0.0001202462
-2.9447031e-06
0.00012115603
-2.7256115e-06
0.00012199221
-2.505016e-06
0.00012275431
-2.2830544e-06
0.0001234419
-2.0598648e-06
0.00012405462
-1.8355856e-06
0.00012459217
-1.6103558e-06
0.00012505425
-1.3843144e-06
0.00012544066
-1.1576005e-06
0.00012575121
-9.3035338e-07
0.00012598578
-7.0271205e-07
0.00012614427
-4.7481552e-07
0.00012622664
-2.4680252e-07
0.00012623292
-1.881144e-08
0.00012616313
2.0901978e-07
0.0001260174
4.3655383e-07
0.00012579586
6.6365372e-07
0.0001254987
8.9018318e-07
0.00012512617
1.1160068e-06
0.00012467853
1.3409899e-06
0.00012415611
1.5649989e-06
0.00012355929
1.7879009e-06
0.00012288847
2.0095644e-06
0.00012214412
2.2298589e-06
0.00012132673
2.4486549e-06
0.00012043685
2.6658245e-06
0.00011947507
2.881241e-06
0.000118442
3.0947791e-06
0.00011733832
3.3063151e-06
0.00011616474
3.5157266e-06
0.000114922
3.7228931e-06
0.0001136109
3.9276955e-06
0.00011223227
4.1300167e-06
0.00011078696
4.3297411e-06
0.00010927589
4.5267552e-06
0.0001077
4.7209471e-06
0.00010606026
4.9122072e-06
0.0001043577
5.1004276e-06
0.00010259336
5.2855025e-06
0.00010076832
5.4673282e-06
9.8883703e-05
5.6458032e-06
9.6940665e-05
5.8208281e-06
9.4940386e-05
5.9923058e-06
9.2884083e-05
6.1601412e-06
9.0773002e-05
6.3242418e-06
8.8608421e-05
6.4845172e-06
8.6391646e-05
6.6408795e-06
8.412401e-05
6.793243e-06
8.1806878e-05
6.9415246e-06
7.9441638e-05
7.0856436e-06
7.7029706e-05
7.2255217e-06
7.4572523e-05
7.3610831e-06
7.2071555e-05
7.4922547e-06
6.952829e-05
7.6189658e-06
6.694424e-05
7.7411482e-06
6.4320938e-05
7.8587363e-06
6.165994e-05
7.9716674e-06
5.896282e-05
8.079881e-06
5.6231171e-05
8.1833195e-06
5.3466607e-05
8.281928e-06
5.0670757e-05
8.375654e-06
4.7845267e-05
8.4644479e-06
4.4991799e-05
8.5482628e-06
4.211203e-05
8.6270545e-06
3.9207651e-05
8.7007813e-06
3.6280366e-05
8.7694046e-06
3.3331889e-05
8.8328881e-06
3.0363949e-05
8.8911988e-06
2.7378281e-05
8.9443058e-06
2.4376632e-05
8.9921816e-06
2.1360756e-05
9.0348009e-06
1.8332416e-05
9.0721416e-06
1.529338e-05
9.1041842e-06
1.2245423e-05
9.1309119e-06
9.1903219e-06
9.1523107e-06
6.1298608e-06
9.1683697e-06
3.0658244e-06
9.1790803e-06
-4.3971619e-15
9.1844369e-06
-3.0658244e-06
9.1844369e-06
-6.1298608e-06
9.1790803e-06
-9.190322e-06
9.1683697e-06
-1.2245423e-05
9.1523107e-06
-1.529338e-05
9.1309119e-06
-1.8332416e-05
9.1041842e-06
-2.1360756e-05
9.0721416e-06
-2.4376632e-05
9.0348009e-06
-2.7378281e-05
8.9921816e-06
-3.0363949e-05
8.9443058e-06
-3.3331889e-05
8.8911988e-06
-3.6280366e-05
8.8328881e-06
-3.9207651e-05
8.7694046e-06
-4.211203e-05
8.7007813e-06
-4.4991799e-05
8.6270545e-06
-4.7845267e-05
8.5482628e-06
-5.0670757e-05
8.4644479e-06
-5.3466607e-05
8.375654e-06
-5.6231171e-05
8.281928e-06
-5.896282e-05
8.1833195e-06
-6.165994e-05
8.079881e-06
-6.4320938e-05
7.9716674e-06
-6.694424e-05
7.8587363e-06
-6.952829e-05
7.7411482e-06
-7.2071555e-05
7.6189658e-06
-7.4572523e-05
7.4922547e-06
-7.7029706e-05
7.3610831e-06
-7.9441638e-05
7.2255217e-06
-8.1806878e-05
7.0856436e-06
-8.412401e-05
6.9415246e-06
-8.6391646e-05
6.793243e-06
-8.8608421e-05
6.6408795e-06
-9.0773002e-05
6.4845172e-06
-9.2884083e-05
6.3242418e-06
-9.4940386e-05
6.1601412e-06
-9.6940665e-05
5.9923058e-06
-9.8883703e-05
5.8208281e-06
-0.00010076832
5.6458032e-06
-0.00010259336
5.4673282e-06
-0.0001043577
5.2855025e-06
-0.00010606026
5.1004276e-06
-0.0001077
4.9122072e-06
-0.00010927589
4.7209471e-06
-0.00011078696
4.5267552e-06
-0.00011223227
4.3297411e-06
-0.0001136109
4.1300167e-06
-0.000114922
3.9276955e-06
-0.00011616474
3.7228931e-06
-0.00011733832
3.5157266e-06
-0.000118442
3.3063151e-06
-0.00011947507
3.0947791e-06
-0.00012043685
2.881241e-06
-0.00012132673
2.6658245e-06
-0.00012214412
2.4486549e-06
-0.00012288847
2.2298589e-06
-0.00012355929
2.0095644e-06
-0.00012415611
1.7879009e-06
-0.00012467853
1.5649989e-06
-0.00012512617
1.3409899e-06
-0.0001254987
1.1160068e-06
-0.00012579586
8.9018318e-07
-0.0001260174
6.6365372e-07
-0.00012616313
4.3655383e-07
-0.00012623292
2.0901978e-07
-0.00012622664
-1.8811441e-08
-0.00012614427
-2.4680252e-07
-0.00012598578
-4.7481552e-07
-0.00012575121
-7.0271205e-07
-0.00012544066
-9.3035338e-07
-0.00012505425
-1.1576005e-06
-0.00012459217
-1.3843144e-06
-0.00012405462
-1.6103558e-06
-0.0001234419
-1.8355856e-06
-0.00012275431
-2.0598648e-06
-0.00012199221
-2.2830544e-06
-0.00012115603
-2.505016e-06
-0.0001202462
-2.7256115e-06
-0.00011926324
-2.9447031e-06
-0.0001182077
-3.1621538e-06
-0.00011708016
-3.3778273e-06
-0.00011588127
-3.5915879e-06
-0.0001146117
-3.8033008e-06
-0.00011327219
-4.0128323e-06
-0.00011186351
-4.2200497e-06
-0.00011038648
-4.4248213e-06
-0.00010884195
-4.6270168e-06
-0.00010723083
-4.8265073e-06
-0.00010555406
-5.0231651e-06
-0.00010381263
-5.2168644e-06
-0.00010200758
-5.4074806e-06
-0.00010013996
-5.5948912e-06
-9.8210901e-05
-5.7789752e-06
-9.6221538e-05
-5.9596138e-06
-9.4173066e-05
-6.1366899e-06
-9.2066712e-05
-6.3100887e-06
-8.9903741e-05
-6.4796974e-06
-8.7685454e-05
-6.6454057e-06
-8.5413191e-05
-6.8071053e-06
-8.3088324e-05
-6.9646908e-06
-8.0712262e-05
-7.1180588e-06
-7.8286445e-05
-7.2671088e-06
-7.5812348e-05
-7.411743e-06
-7.3291476e-05
-7.5518662e-06
-7.0725366e-05
-7.687386e-06
-6.8115586e-05
-7.8182132e-06
-6.5463728e-05
-7.9442611e-06
-6.2771418e-05
-8.0654466e-06
-6.0040306e-05
-8.1816892e-06
-5.7272065e-05
-8.2929119e-06
-5.4468398e-05
-8.3990409e-06
-5.1631028e-05
-8.5000055e-06
-4.8761701e-05
-8.5957387e-06
-4.5862185e-05
-8.6861765e-06
-4.2934268e-05
-8.7712588e-06
-3.9979756e-05
-8.8509288e-06
-3.7000473e-05
-8.9251331e-06
-3.3998262e-05
-8.9938223e-06
-3.0974978e-05
-9.0569504e-06
-2.7932491e-05
-9.114475e-06
-2.4872686e-05
-9.1663578e-06
-2.1797456e-05
-9.2125638e-06
-1.8708708e-05
-9.2530621e-06
-1.5608355e-05
-9.2878256e-06
-1.249832e-05
-9.316831e-06
-9.3805313e-06
-9.3400586e-06
-6.2569228e-06
-9.3574931e-06
-3.1294322e-06
-9.3691225e-06
-9.3749392e-06
3.1366794e-06
-1.2511619e-05
6.2714126e-06
-1.2503856e-05
9.4022548e-06
-1.2488335e-05
1.2527264e-05
-1.2465068e-05
1.5644501e-05
-1.2434068e-05
1.8752034e-05
-1.2395358e-05
2.1847936e-05
-1.2348964e-05
2.4930287e-05
-1.2294915e-05
2.7997179e-05
-1.223325e-05
3.1046712e-05
-1.2164008e-05
3.4076998e-05
-1.2087237e-05
3.7086163e-05
-1.2002987e-05
4.0072346e-05
-1.1911316e-05
4.3033701e-05
-1.1812284e-05
4.5968401e-05
-1.1705958e-05
4.8874633e-05
-1.1592409e-05
5.1750606e-05
-1.1471712e-05
5.459455e-05
-1.1343949e-05
5.7404712e-05
-1.1209203e-05
6.0179365e-05
-1.1067565e-05
6.2916806e-05
-1.091913e-05
6.5615354e-05
-1.0763995e-05
6.8273355e-05
-1.0602263e-05
7.0889184e-05
-1.0434042e-05
7.346124e-05
-1.0259442e-05
7.5987953e-05
-1.007858e-05
7.8467785e-05
-9.8915742e-06
8.0899224e-05
-9.6985482e-06
8.3280794e-05
-9.4996289e-06
8.561105e-05
-9.2949469e-06
8.7888581e-05
-9.0846364e-06
9.0112011e-05
-8.8688351e-06
9.2279997e-05
-8.647684e-06
9.4391236e-05
-8.4213274e-06
9.6444459e-05
-8.1899128e-06
9.8438436e-05
-7.9535904e-06
0.00010037197
-7.7125136e-06
0.00010224392
-7.4668386e-06
0.00010405316
-7.2167241e-06
0.00010579863
-6.9623313e-06
0.00010747929
-6.7038239e-06
0.00010909415
-6.4413681e-06
0.00011064227
-6.1751319e-06
0.00011212273
-5.9052856e-06
0.00011353468
-5.6320013e-06
0.0001148773
-5.355453e-06
0.00011614982
-5.0758162e-06
0.0001173515
-4.7932681e-06
0.00011848166
-4.5079872e-06
0.00011953966
-4.2201535e-06
0.0001205249
-3.9299478e-06
0.00012143684
-3.6375522e-06
0.00012227498
-3.3431496e-06
0.00012303885
-3.0469238e-06
0.00012372804
-2.749059e-06
0.0001243422
-2.4497402e-06
0.00012488099
-2.1491527e-06
0.00012534416
-1.847482e-06
0.00012573147
-1.5449138e-06
0.00012604275
-1.2416339e-06
0.00012627787
-9.3782795e-07
0.00012643674
-6.3368139e-07
0.00012651931
-3.2937936e-07
0.00012652561
-2.5106547e-08
0.00012645567
2.7895295e-07
0.00012630961
5.8261575e-07
0.00012608757
8.8569912e-07
0.00012578973
1.1880212e-06
0.00012541633
1.4894014e-06
0.00012496766
1.7896598e-06
0.00012444404
2.0886182e-06
0.00012384585
2.3860993e-06
0.00012317348
2.6819275e-06
0.00012242741
2.9759285e-06
0.00012160814
3.2679298e-06
0.0001207162
3.5577605e-06
0.00011975219
3.8452515e-06
0.00011871674
4.1302357e-06
0.0001176105
4.4125477e-06
0.00011643421
4.6920246e-06
0.00011518859
4.9685053e-06
0.00011387446
5.2418309e-06
0.00011249263
5.5118451e-06
0.00011104398
5.7783937e-06
0.00010952941
6.0413251e-06
0.00010794986
6.3004902e-06
0.00010630633
6.5557424e-06
0.00010459982
6.8069379e-06
0.00010283139
7.0539354e-06
0.00010100212
7.2965967e-06
9.9113134e-05
7.5347862e-06
9.7165591e-05
7.7683712e-06
9.5160674e-05
7.9972221e-06
9.3099604e-05
8.2212121e-06
9.0983628e-05
8.4402176e-06
8.8814027e-05
8.6541181e-06
8.659211e-05
8.8627962e-06
8.4319215e-05
9.0661376e-06
8.1996709e-05
9.2640314e-06
7.9625982e-05
9.4563698e-06
7.7208456e-05
9.6430484e-06
7.4745573e-05
9.8239661e-06
7.2238802e-05
9.9990251e-06
6.9689637e-05
1.0168131e-05
6.7099592e-05
1.0331193e-05
6.4470204e-05
1.0488124e-05
6.1803032e-05
1.063884e-05
5.9099653e-05
1.0783259e-05
5.6361666e-05
1.0921306e-05
5.3590687e-05
1.1052907e-05
5.0788349e-05
1.1177992e-05
4.7956303e-05
1.1296495e-05
4.5096213e-05
1.1408352e-05
4.2209762e-05
1.1513506e-05
3.9298643e-05
1.16119e-05
3.6364565e-05
1.1703483e-05
3.3409246e-05
1.1788207e-05
3.0434417e-05
1.1866027e-05
2.744182e-05
1.1936903e-05
2.4433205e-05
1.2000797e-05
2.141033e-05
1.2057676e-05
1.8374962e-05
1.210751e-05
1.5328873e-05
1.2150273e-05
1.2273842e-05
1.2185943e-05
9.2116511e-06
1.2214502e-05
6.1440871e-06
1.2235934e-05
3.0729397e-06
1.2250228e-05
-4.3973711e-15
1.2257377e-05
-3.0729397e-06
1.2257377e-05
-6.1440871e-06
1.2250228e-05
-9.2116511e-06
1.2235934e-05
-1.2273842e-05
1.2214502e-05
-1.5328873e-05
1.2185943e-05
-1.8374962e-05
1.2150273e-05
-2.141033e-05
1.210751e-05
-2.4433205e-05
1.2057676e-05
-2.744182e-05
1.2000797e-05
-3.0434417e-05
1.1936903e-05
-3.3409246e-05
1.1866027e-05
-3.6364565e-05
1.1788207e-05
-3.9298643e-05
1.1703483e-05
-4.2209762e-05
1.16119e-05
-4.5096213e-05
1.1513506e-05
-4.7956303e-05
1.1408352e-05
-5.0788349e-05
1.1296494e-05
-5.3590687e-05
1.1177992e-05
-5.6361666e-05
1.1052907e-05
-5.9099653e-05
1.0921306e-05
-6.1803032e-05
1.0783259e-05
-6.4470204e-05
1.063884e-05
-6.7099592e-05
1.0488124e-05
-6.9689637e-05
1.0331193e-05
-7.2238802e-05
1.0168131e-05
-7.4745573e-05
9.9990251e-06
-7.7208456e-05
9.8239661e-06
-7.9625982e-05
9.6430484e-06
-8.1996709e-05
9.4563698e-06
-8.4319215e-05
9.2640314e-06
-8.659211e-05
9.0661376e-06
-8.8814027e-05
8.8627962e-06
-9.0983628e-05
8.6541181e-06
-9.3099604e-05
8.4402176e-06
-9.5160674e-05
8.2212121e-06
-9.7165591e-05
7.9972221e-06
-9.9113134e-05
7.7683712e-06
-0.00010100212
7.5347862e-06
-0.00010283139
7.2965967e-06
-0.00010459982
7.0539354e-06
-0.00010630633
6.8069379e-06
-0.00010794986
6.5557424e-06
-0.00010952941
6.3004902e-06
-0.00011104398
6.0413251e-06
-0.00011249263
5.7783937e-06
-0.00011387446
5.5118451e-06
-0.00011518859
5.2418309e-06
-0.00011643421
4.9685053e-06
-0.0001176105
4.6920246e-06
-0.00011871674
4.4125477e-06
-0.00011975219
4.1302357e-06
-0.0001207162
3.8452515e-06
-0.00012160814
3.5577605e-06
-0.00012242741
3.2679298e-06
-0.00012317348
2.9759285e-06
-0.00012384585
2.6819275e-06
-0.00012444404
2.3860993e-06
-0.00012496766
2.0886182e-06
-0.00012541633
1.7896598e-06
-0.00012578973
1.4894014e-06
-0.00012608757
1.1880212e-06
-0.00012630961
8.8569912e-07
-0.00012645567
5.8261575e-07
-0.00012652561
2.7895295e-07
-0.00012651931
-2.5106548e-08
-0.00012643674
-3.2937936e-07
-0.00012627787
-6.3368139e-07
-0.00012604275
-9.3782795e-07
-0.00012573147
-1.2416339e-06
-0.00012534416
-1.5449138e-06
-0.00012488099
-1.847482e-06
-0.0001243422
-2.1491527e-06
-0.00012372804
-2.4497402e-06
-0.00012303885
-2.749059e-06
-0.00012227498
-3.0469238e-06
-0.00012143684
-3.3431496e-06
-0.0001205249
-3.6375522e-06
-0.00011953966
-3.9299478e-06
-0.00011848166
-4.2201535e-06
-0.0001173515
-4.5079872e-06
-0.00011614982
-4.7932681e-06
-0.0001148773
-5.0758162e-06
-0.00011353468
-5.355453e-06
-0.00011212273
-5.6320013e-06
-0.00011064227
-5.9052856e-06
-0.00010909415
-6.1751319e-06
-0.00010747929
-6.4413681e-06
-0.00010579863
-6.7038239e-06
-0.00010405316
-6.9623313e-06
-0.00010224392
-7.2167241e-06
-0.00010037197
-7.4668386e-06
-9.8438436e-05
-7.7125136e-06
-9.6444459e-05
-7.9535904e-06
-9.4391236e-05
-8.1899128e-06
-9.2279997e-05
-8.4213274e-06
-9.0112011e-05
-8.647684e-06
-8.7888581e-05
-8.8688351e-06
-8.561105e-05
-9.0846364e-06
-8.3280794e-05
-9.2949469e-06
-8.0899224e-05
-9.4996289e-06
-7.8467785e-05
-9.6985482e-06
-7.5987953e-05
-9.8915742e-06
-7.346124e-05
-1.007858e-05
-7.0889184e-05
-1.0259442e-05
-6.8273355e-05
-1.0434042e-05
-6.5615354e-05
-1.0602263e-05
-6.2916806e-05
-1.0763995e-05
-6.0179365e-05
-1.091913e-05
-5.7404712e-05
-1.1067565e-05
-5.459455e-05
-1.1209203e-05
-5.1750606e-05
-1.1343949e-05
-4.8874633e-05
-1.1471712e-05
-4.5968401e-05
-1.1592409e-05
-4.3033701e-05
-1.1705958e-05
-4.0072346e-05
-1.1812284e-05
-3.7086163e-05