/*--------------------------------*- C++ -*----------------------------------*\
| =========                 |                                                 |
| \\      /  F ield         | OpenFOAM: The Open Source CFD Toolbox           |
|  \\    /   O peration     | Version:  2106                                  |
|   \\  /    A nd           | Website:  www.openfoam.com                      |
|    \\/     M anipulation  |                                                 |
\*---------------------------------------------------------------------------*/
FoamFile
{
    version     2.0;
    format      ascii;
    arch        "LSB;label=32;scalar=64";
    class       surfaceScalarField;
    location    "0.043";
    object      phi_0;
}
// * * * * * * * * * * * * * * * * * * * * * * * * * * * * * * * * * * * * * //

dimensions      [0 3 -1 0 0 0 0];

oriented        oriented;

internalField   nonuniform List<scalar> 
130560
(
3.1206051e-06
-3.1206051e-06
6.239274e-06
-3.1186689e-06
9.3540719e-06
-3.1147979e-06
1.2463066e-05
-3.1089945e-06
1.5564329e-05
-3.1012628e-06
1.8655937e-05
-3.091608e-06
2.1735974e-05
-3.0800364e-06
2.4802529e-05
-3.0665558e-06
2.7853705e-05
-3.0511754e-06
3.088761e-05
-3.0339054e-06
3.3902368e-05
-3.0147574e-06
3.6896112e-05
-2.9937442e-06
3.9866992e-05
-2.9708799e-06
4.2813172e-05
-2.9461798e-06
4.5732832e-05
-2.9196604e-06
4.8624171e-05
-2.8913394e-06
5.1485407e-05
-2.8612357e-06
5.4314776e-05
-2.8293693e-06
5.7110538e-05
-2.7957616e-06
5.9870973e-05
-2.7604349e-06
6.2594385e-05
-2.7234126e-06
6.5279105e-05
-2.6847194e-06
6.7923486e-05
-2.6443808e-06
7.0525909e-05
-2.6024237e-06
7.3084785e-05
-2.5588758e-06
7.5598551e-05
-2.5137658e-06
7.8065674e-05
-2.4671235e-06
8.0484654e-05
-2.4189796e-06
8.285402e-05
-2.3693659e-06
8.5172335e-05
-2.3183148e-06
8.7438195e-05
-2.2658599e-06
8.965023e-05
-2.2120355e-06
9.1807107e-05
-2.1568768e-06
9.3907527e-05
-2.1004198e-06
9.5950228e-05
-2.0427011e-06
9.7933986e-05
-1.9837584e-06
9.9857616e-05
-1.9236299e-06
0.00010171997
-1.8623545e-06
0.00010351994
-1.7999718e-06
0.00010525646
-1.736522e-06
0.00010692851
-1.672046e-06
0.0001085351
-1.6065852e-06
0.00011007528
-1.5401815e-06
0.00011154815
-1.4728773e-06
0.00011295287
-1.4047157e-06
0.00011428861
-1.33574e-06
0.0001155546
-1.2659939e-06
0.00011675013
-1.1955218e-06
0.00011787449
-1.124368e-06
0.00011892707
-1.0525775e-06
0.00011990727
-9.8019538e-07
0.00012081453
-9.0726708e-07
0.00012164837
-8.338382e-07
0.00012240833
-7.5995458e-07
0.00012309399
-6.8566218e-07
0.000123705
-6.1100713e-07
0.00012424103
-5.3603563e-07
0.00012470183
-4.6079396e-07
0.00012508715
-3.8532846e-07
0.00012539684
-3.0968544e-07
0.00012563075
-2.3391121e-07
0.0001257888
-1.5805202e-07
0.00012587096
-8.2154069e-08
0.00012587722
-6.263404e-09
0.00012580765
6.9573722e-08
0.00012566233
1.4531244e-07
0.00012544143
2.2090658e-07
0.00012514512
2.963107e-07
0.00012477364
3.7147986e-07
0.00012432727
4.4636927e-07
0.00012380633
5.2093441e-07
0.0001232112
5.9513112e-07
0.00012254229
6.6891555e-07
0.00012180004
7.4224427e-07
0.00012098497
8.1507423e-07
0.00012009761
8.8736281e-07
0.00011913854
9.5906785e-07
0.00011810839
1.0301476e-06
0.00011700783
1.100561e-06
0.00011583756
1.1702672e-06
0.00011459834
1.2392261e-06
0.00011329094
1.307398e-06
0.00011191619
1.3747441e-06
0.00011047497
1.4412258e-06
0.00010896816
1.5068053e-06
0.00010739672
1.5714455e-06
0.00010576161
1.6351097e-06
0.00010406384
1.6977621e-06
0.00010230448
1.7593675e-06
0.00010048459
1.8198913e-06
9.8605286e-05
1.8792998e-06
9.6667726e-05
1.93756e-06
9.4673087e-05
1.9946393e-06
9.2622581e-05
2.0505063e-06
9.0517451e-05
2.10513e-06
8.835897e-05
2.1584805e-06
8.6148442e-05
2.2105285e-06
8.3887196e-05
2.2612454e-06
8.1576593e-05
2.3106035e-06
7.9218017e-05
2.3585761e-06
7.681288e-05
2.405137e-06
7.4362619e-05
2.4502611e-06
7.1868695e-05
2.4939239e-06
6.9332593e-05
2.536102e-06
6.675582e-05
2.5767726e-06
6.4139906e-05
2.615914e-06
6.1486401e-05
2.6535051e-06
5.8796875e-05
2.689526e-06
5.6072918e-05
2.7239574e-06
5.3316137e-05
2.756781e-06
5.0528157e-05
2.7879794e-06
4.7710621e-05
2.8175361e-06
4.4865186e-05
2.8454355e-06
4.1993523e-05
2.8716627e-06
3.9097319e-05
2.8962041e-06
3.6178272e-05
2.9190466e-06
3.3238094e-05
2.9401783e-06
3.0278506e-05
2.959588e-06
2.730124e-05
2.9772657e-06
2.4308038e-05
2.993202e-06
2.130065e-05
3.0073887e-06
1.8280831e-05
3.0198182e-06
1.5250347e-05
3.0304842e-06
1.2210966e-05
3.039381e-06
9.1644621e-06
3.046504e-06
6.1126126e-06
3.0518495e-06
3.0571978e-06
3.0554148e-06
-4.3902111e-15
3.0571978e-06
-3.0571978e-06
3.0571978e-06
-6.1126126e-06
3.0554148e-06
-9.1644622e-06
3.0518495e-06
-1.2210966e-05
3.046504e-06
-1.5250347e-05
3.039381e-06
-1.8280831e-05
3.0304842e-06
-2.130065e-05
3.0198182e-06
-2.4308038e-05
3.0073887e-06
-2.730124e-05
2.993202e-06
-3.0278506e-05
2.9772657e-06
-3.3238094e-05
2.959588e-06
-3.6178272e-05
2.9401783e-06
-3.9097319e-05
2.9190466e-06
-4.1993523e-05
2.8962041e-06
-4.4865186e-05
2.8716627e-06
-4.7710621e-05
2.8454355e-06
-5.0528157e-05
2.8175361e-06
-5.3316137e-05
2.7879794e-06
-5.6072918e-05
2.756781e-06
-5.8796875e-05
2.7239574e-06
-6.1486401e-05
2.689526e-06
-6.4139906e-05
2.6535051e-06
-6.675582e-05
2.615914e-06
-6.9332593e-05
2.5767726e-06
-7.1868695e-05
2.536102e-06
-7.4362619e-05
2.4939239e-06
-7.681288e-05
2.4502611e-06
-7.9218017e-05
2.405137e-06
-8.1576593e-05
2.3585761e-06
-8.3887196e-05
2.3106035e-06
-8.6148442e-05
2.2612454e-06
-8.835897e-05
2.2105285e-06
-9.0517451e-05
2.1584805e-06
-9.2622581e-05
2.10513e-06
-9.4673087e-05
2.0505063e-06
-9.6667726e-05
1.9946393e-06
-9.8605286e-05
1.9375599e-06
-0.00010048459
1.8792998e-06
-0.00010230448
1.8198913e-06
-0.00010406384
1.7593675e-06
-0.00010576161
1.6977621e-06
-0.00010739672
1.6351097e-06
-0.00010896816
1.5714455e-06
-0.00011047497
1.5068053e-06
-0.00011191619
1.4412258e-06
-0.00011329094
1.3747441e-06
-0.00011459834
1.307398e-06
-0.00011583756
1.2392261e-06
-0.00011700783
1.1702672e-06
-0.00011810839
1.100561e-06
-0.00011913854
1.0301476e-06
-0.00012009761
9.5906785e-07
-0.00012098497
8.8736281e-07
-0.00012180004
8.1507423e-07
-0.00012254229
7.4224427e-07
-0.0001232112
6.6891555e-07
-0.00012380633
5.9513112e-07
-0.00012432727
5.2093441e-07
-0.00012477364
4.4636927e-07
-0.00012514512
3.7147986e-07
-0.00012544143
2.963107e-07
-0.00012566233
2.2090658e-07
-0.00012580765
1.4531244e-07
-0.00012587722
6.9573722e-08
-0.00012587096
-6.2634043e-09
-0.0001257888
-8.215407e-08
-0.00012563075
-1.5805202e-07
-0.00012539684
-2.3391121e-07
-0.00012508715
-3.0968544e-07
-0.00012470183
-3.8532846e-07
-0.00012424103
-4.6079396e-07
-0.000123705
-5.3603563e-07
-0.00012309399
-6.1100713e-07
-0.00012240833
-6.8566218e-07
-0.00012164837
-7.5995458e-07
-0.00012081453
-8.338382e-07
-0.00011990727
-9.0726708e-07
-0.00011892707
-9.8019538e-07
-0.00011787449
-1.0525775e-06
-0.00011675013
-1.124368e-06
-0.0001155546
-1.1955218e-06
-0.00011428861
-1.2659939e-06
-0.00011295287
-1.33574e-06
-0.00011154815
-1.4047157e-06
-0.00011007528
-1.4728773e-06
-0.0001085351
-1.5401815e-06
-0.00010692851
-1.6065852e-06
-0.00010525646
-1.672046e-06
-0.00010351994
-1.736522e-06
-0.00010171997
-1.7999718e-06
-9.9857616e-05
-1.8623545e-06
-9.7933986e-05
-1.9236299e-06
-9.5950228e-05
-1.9837584e-06
-9.3907527e-05
-2.0427011e-06
-9.1807107e-05
-2.1004198e-06
-8.965023e-05
-2.1568768e-06
-8.7438195e-05
-2.2120355e-06
-8.5172335e-05
-2.2658599e-06
-8.285402e-05
-2.3183148e-06
-8.0484654e-05
-2.3693659e-06
-7.8065674e-05
-2.4189796e-06
-7.5598551e-05
-2.4671235e-06
-7.3084785e-05
-2.5137658e-06
-7.0525909e-05
-2.5588758e-06
-6.7923486e-05
-2.6024237e-06
-6.5279105e-05
-2.6443808e-06
-6.2594385e-05
-2.6847194e-06
-5.9870973e-05
-2.7234126e-06
-5.7110538e-05
-2.7604349e-06
-5.4314776e-05
-2.7957616e-06
-5.1485407e-05
-2.8293693e-06
-4.8624171e-05
-2.8612357e-06
-4.5732832e-05
-2.8913394e-06
-4.2813172e-05
-2.9196604e-06
-3.9866992e-05
-2.9461798e-06
-3.6896112e-05
-2.9708799e-06
-3.3902368e-05
-2.9937442e-06
-3.088761e-05
-3.0147574e-06
-2.7853705e-05
-3.0339054e-06
-2.4802529e-05
-3.0511754e-06
-2.1735974e-05
-3.0665558e-06
-1.8655937e-05
-3.0800364e-06
-1.5564329e-05
-3.091608e-06
-1.2463066e-05
-3.1012628e-06
-9.3540719e-06
-3.1089945e-06
-6.239274e-06
-3.1147979e-06
-3.1206051e-06
-3.1186689e-06
-3.1206051e-06
3.1236616e-06
-6.2442666e-06
6.245385e-06
-6.2403924e-06
9.3632336e-06
-6.2326464e-06
1.2475273e-05
-6.221034e-06
1.5579573e-05
-6.2055629e-06
1.8674209e-05
-6.1862436e-06
2.1757261e-05
-6.1630889e-06
2.482682e-05
-6.1361144e-06
2.7880983e-05
-6.1053383e-06
3.0917858e-05
-6.0707812e-06
3.3935567e-05
-6.0324661e-06
3.6932242e-05
-5.9904189e-06
3.9906029e-05
-5.9446676e-06
4.2855092e-05
-5.8952428e-06
4.577761e-05
-5.8421776e-06
4.8671778e-05
-5.7855075e-06
5.1535812e-05
-5.7252702e-06
5.4367949e-05
-5.6615059e-06
5.7166445e-05
-5.5942572e-06
5.9929578e-05
-5.5235686e-06
6.2655653e-05
-5.4494874e-06
6.5342996e-05
-5.3720625e-06
6.7989961e-05
-5.2913455e-06
7.0594927e-05
-5.2073896e-06
7.3156302e-05
-5.1202506e-06
7.5672522e-05
-5.029986e-06
7.8142054e-05
-4.9366552e-06
8.0563394e-05
-4.8403199e-06
8.2935071e-05
-4.7410433e-06
8.5255647e-05
-4.6388907e-06
8.7523716e-05
-4.533929e-06
8.9737908e-05
-4.426227e-06
9.1896886e-05
-4.3158551e-06
9.3999351e-05
-4.2028852e-06
9.6044041e-05
-4.0873909e-06
9.802973e-05
-3.9694473e-06
9.9955231e-05
-3.8491309e-06
0.0001018194
-3.7265197e-06
0.00010362112
-3.6016927e-06
0.00010535933
-3.4747307e-06
0.00010703299
-3.3457151e-06
0.00010864114
-3.214729e-06
0.00011018281
-3.0818562e-06
0.00011165712
-2.9471817e-06
0.00011306319
-2.8107913e-06
0.00011440023
-2.672772e-06
0.00011566744
-2.5332114e-06
0.00011686412
-2.3921978e-06
0.00011798957
-2.2498204e-06
0.00011904316
-2.1061689e-06
0.0001200243
-1.9613336e-06
0.00012093244
-1.8154055e-06
0.00012176708
-1.6684757e-06
0.00012252776
-1.5206361e-06
0.00012321407
-1.3719785e-06
0.00012382566
-1.2225953e-06
0.00012436221
-1.0725789e-06
0.00012482343
-9.22022e-07
0.00012520912
-7.710172e-07
0.00012551909
-6.1965723e-07
0.00012575322
-4.6803475e-07
0.00012591141
-3.1624233e-07
0.00012599363
-1.6437237e-07
0.00012599988
-1.2517067e-08
0.00012593022
1.3923164e-07
0.00012578475
2.9078256e-07
0.00012556361
4.4204429e-07
0.000125267
5.9292597e-07
0.00012489514
7.4333746e-07
0.00012444832
8.9318913e-07
0.00012392686
1.0423919e-06
0.00012333114
1.1908574e-06
0.00012266156
1.3384979e-06
0.00012191857
1.4852265e-06
0.00012110269
1.6309571e-06
0.00012021445
1.7756043e-06
0.00011925443
1.9190839e-06
0.00011822327
2.0613123e-06
0.00011712162
2.2022071e-06
0.0001159502
2.3416869e-06
0.00011470976
2.4796714e-06
0.00011340107
2.6160812e-06
0.00011202498
2.7508384e-06
0.00011058234
2.883866e-06
0.00010907406
3.0150883e-06
0.00010750107
3.1444309e-06
0.00010586436
3.2718206e-06
0.00010416494
3.3971858e-06
0.00010240385
3.5204559e-06
0.00010058218
3.6415618e-06
9.8701042e-05
3.760436e-06
9.676159e-05
3.8770121e-06
9.4765003e-05
3.9912256e-06
9.2712496e-05
4.1030132e-06
9.0605313e-05
4.2123132e-06
8.8444728e-05
4.3190653e-06
8.6232046e-05
4.4232111e-06
8.3968598e-05
4.5246935e-06
8.1655744e-05
4.6234571e-06
7.9294872e-05
4.7194481e-06
7.6887395e-05
4.8126145e-06
7.443475e-05
4.9029058e-06
7.1938401e-05
4.9902732e-06
6.9399833e-05
5.0746696e-06
6.6820556e-05
5.1560496e-06
6.42021e-05
5.2343697e-06
6.1546018e-05
5.3095878e-06
5.885388e-05
5.3816639e-06
5.6127277e-05
5.4505596e-06
5.336782e-05
5.5162381e-06
5.0577135e-05
5.5786647e-06
4.7756865e-05
5.6378062e-06
4.4908669e-05
5.6936314e-06
4.2034221e-05
5.7461109e-06
3.9135208e-05
5.7952169e-06
3.6213331e-05
5.8409237e-06
3.3270302e-05
5.8832071e-06
3.0307845e-05
5.9220451e-06
2.7327693e-05
5.9574173e-06
2.433159e-05
5.9893051e-06
2.1321287e-05
6.0176919e-06
1.8298543e-05
6.0425628e-06
1.5265122e-05
6.0639048e-06
1.2222796e-05
6.0817069e-06
9.1733407e-06
6.0959597e-06
6.1185344e-06
6.1066558e-06
3.0601596e-06
6.1137896e-06
-4.3938198e-15
6.1173574e-06
-3.0601596e-06
6.1173574e-06
-6.1185344e-06
6.1137896e-06
-9.1733407e-06
6.1066558e-06
-1.2222796e-05
6.0959597e-06
-1.5265122e-05
6.0817069e-06
-1.8298543e-05
6.0639048e-06
-2.1321287e-05
6.0425628e-06
-2.433159e-05
6.0176919e-06
-2.7327693e-05
5.9893051e-06
-3.0307845e-05
5.9574173e-06
-3.3270302e-05
5.9220451e-06
-3.6213331e-05
5.8832071e-06
-3.9135208e-05
5.8409237e-06
-4.2034221e-05
5.7952169e-06
-4.4908669e-05
5.7461109e-06
-4.7756865e-05
5.6936314e-06
-5.0577135e-05
5.6378062e-06
-5.336782e-05
5.5786647e-06
-5.6127277e-05
5.5162381e-06
-5.885388e-05
5.4505596e-06
-6.1546018e-05
5.3816639e-06
-6.42021e-05
5.3095878e-06
-6.6820556e-05
5.2343697e-06
-6.9399833e-05
5.1560496e-06
-7.1938401e-05
5.0746696e-06
-7.443475e-05
4.9902732e-06
-7.6887395e-05
4.9029058e-06
-7.9294872e-05
4.8126145e-06
-8.1655744e-05
4.7194481e-06
-8.3968598e-05
4.6234571e-06
-8.6232046e-05
4.5246935e-06
-8.8444728e-05
4.4232111e-06
-9.0605313e-05
4.3190653e-06
-9.2712496e-05
4.2123132e-06
-9.4765003e-05
4.1030132e-06
-9.676159e-05
3.9912256e-06
-9.8701042e-05
3.8770121e-06
-0.00010058218
3.760436e-06
-0.00010240385
3.6415618e-06
-0.00010416494
3.5204559e-06
-0.00010586436
3.3971858e-06
-0.00010750107
3.2718206e-06
-0.00010907406
3.1444309e-06
-0.00011058234
3.0150883e-06
-0.00011202498
2.883866e-06
-0.00011340107
2.7508384e-06
-0.00011470976
2.6160812e-06
-0.0001159502
2.4796714e-06
-0.00011712162
2.3416869e-06
-0.00011822327
2.2022071e-06
-0.00011925443
2.0613123e-06
-0.00012021445
1.9190839e-06
-0.00012110269
1.7756043e-06
-0.00012191857
1.6309571e-06
-0.00012266156
1.4852265e-06
-0.00012333114
1.3384979e-06
-0.00012392686
1.1908574e-06
-0.00012444832
1.0423919e-06
-0.00012489514
8.9318913e-07
-0.000125267
7.4333746e-07
-0.00012556361
5.9292597e-07
-0.00012578475
4.4204429e-07
-0.00012593022
2.9078256e-07
-0.00012599988
1.3923164e-07
-0.00012599363
-1.2517068e-08
-0.00012591141
-1.6437237e-07
-0.00012575322
-3.1624233e-07
-0.00012551909
-4.6803475e-07
-0.00012520912
-6.1965723e-07
-0.00012482343
-7.710172e-07
-0.00012436221
-9.22022e-07
-0.00012382566
-1.0725789e-06
-0.00012321407
-1.2225953e-06
-0.00012252776
-1.3719785e-06
-0.00012176708
-1.5206361e-06
-0.00012093244
-1.6684757e-06
-0.0001200243
-1.8154055e-06
-0.00011904316
-1.9613336e-06
-0.00011798957
-2.1061689e-06
-0.00011686412
-2.2498204e-06
-0.00011566744
-2.3921978e-06
-0.00011440023
-2.5332114e-06
-0.00011306319
-2.672772e-06
-0.00011165712
-2.8107913e-06
-0.00011018281
-2.9471817e-06
-0.00010864114
-3.0818562e-06
-0.00010703299
-3.214729e-06
-0.00010535933
-3.3457151e-06
-0.00010362112
-3.4747307e-06
-0.0001018194
-3.6016927e-06
-9.9955231e-05
-3.7265197e-06
-9.802973e-05
-3.8491309e-06
-9.6044041e-05
-3.9694473e-06
-9.3999351e-05
-4.0873909e-06
-9.1896886e-05
-4.2028852e-06
-8.9737908e-05
-4.3158551e-06
-8.7523716e-05
-4.426227e-06
-8.5255647e-05
-4.533929e-06
-8.2935071e-05
-4.6388907e-06
-8.0563394e-05
-4.7410433e-06
-7.8142054e-05
-4.8403199e-06
-7.5672522e-05
-4.9366552e-06
-7.3156302e-05
-5.029986e-06
-7.0594927e-05
-5.1202506e-06
-6.7989961e-05
-5.2073896e-06
-6.5342996e-05
-5.2913455e-06
-6.2655653e-05
-5.3720625e-06
-5.9929578e-05
-5.4494874e-06
-5.7166444e-05
-5.5235686e-06
-5.4367949e-05
-5.5942572e-06
-5.1535812e-05
-5.6615059e-06
-4.8671778e-05
-5.7252702e-06
-4.577761e-05
-5.7855075e-06
-4.2855092e-05
-5.8421776e-06
-3.9906029e-05
-5.8952428e-06
-3.6932242e-05
-5.9446676e-06
-3.3935567e-05
-5.9904189e-06
-3.0917858e-05
-6.0324661e-06
-2.7880983e-05
-6.0707812e-06
-2.482682e-05
-6.1053383e-06
-2.1757261e-05
-6.1361144e-06
-1.8674209e-05
-6.1630889e-06
-1.5579573e-05
-6.1862436e-06
-1.2475273e-05
-6.2055629e-06
-9.3632336e-06
-6.221034e-06
-6.245385e-06
-6.2326464e-06
-3.1236616e-06
-6.2403924e-06
-6.2442666e-06
3.1288111e-06
-9.3730778e-06
6.255681e-06
-9.3672622e-06
9.3786695e-06
-9.3556349e-06
1.2495839e-05
-9.3382038e-06
1.5605257e-05
-9.3149806e-06
1.8704994e-05
-9.2859808e-06
2.1793129e-05
-9.2512239e-06
2.4867748e-05
-9.2107332e-06
2.7926946e-05
-9.164536e-06
3.0968828e-05
-9.1126631e-06
3.3991511e-05
-9.0551494e-06
3.6993125e-05
-8.9920333e-06
3.9971815e-05
-8.9233572e-06
4.2925739e-05
-8.849167e-06
4.5853074e-05
-8.7695122e-06
4.8752012e-05
-8.6844461e-06
5.1620767e-05
-8.5940255e-06
5.4457572e-05
-8.4983106e-06
5.726068e-05
-8.3973652e-06
6.0028368e-05
-8.2912565e-06
6.2758936e-05
-8.180055e-06
6.5450708e-05
-8.0638346e-06
6.8102035e-05
-7.9426724e-06
7.0711294e-05
-7.8166485e-06
7.3276889e-05
-7.6858465e-06
7.5797256e-05
-7.5503526e-06
7.8270857e-05
-7.4102563e-06
8.0696187e-05
-7.2656499e-06
8.3071773e-05
-7.1166285e-06
8.5396172e-05
-6.96329e-06
8.7667978e-05
-6.805735e-06
8.9885817e-05
-6.6440664e-06
9.2048352e-05
-6.4783902e-06
9.4154281e-05
-6.3088142e-06
9.6202339e-05
-6.1354489e-06
9.8191299e-05
-5.9584071e-06
0.00010011997
-5.7778036e-06
0.00010198721
-5.5937553e-06
0.0001037919
-5.4063811e-06
0.00010553297
-5.2158019e-06
0.00010720939
-5.0221404e-06
0.00010882018
-4.8255208e-06
0.0001103644
-4.6260693e-06
0.00011184113
-4.4239133e-06
0.00011324952
-4.2191817e-06
0.00011458875
-4.012005e-06
0.00011585806
-3.8025146e-06
0.0001170567
-3.5908433e-06
0.00011818401
-3.3771247e-06
0.00011923933
-3.1614937e-06
0.00012022208
-2.9440859e-06
0.00012113171
-2.7250375e-06
0.00012196772
-2.5044857e-06
0.00012272966
-2.2825681e-06
0.0001234171
-2.0594227e-06
0.00012402969
-1.8351881e-06
0.00012456712
-1.6100032e-06
0.0001250291
-1.3840068e-06
0.00012541542
-1.1573382e-06
0.0001257259
-9.3013645e-07
0.00012596041
-7.0254071e-07
0.00012611886
-4.7468988e-07
0.00012620121
-2.4672267e-07
0.00012620747
-1.8777452e-08
0.00012613769
2.0900787e-07
0.00012599198
4.36496e-07
0.00012577047
6.6354999e-07
0.00012547336
8.9003359e-07
0.00012510089
1.1158114e-06
0.00012465333
1.3407488e-06
0.00012413101
1.5647122e-06
0.0001235343
1.7875689e-06
0.00012286361
2.0091871e-06
0.0001221194
2.2294366e-06
0.00012130217
2.4481878e-06
0.00012041246
2.6653129e-06
0.00011945086
2.8806852e-06
0.00011841799
3.0941794e-06
0.00011731453
3.3056717e-06
0.00011614117
3.51504e-06
0.00011489868
3.7221637e-06
0.00011358784
3.9269237e-06
0.00011220947
4.129203e-06
0.00011076445
4.3288859e-06
0.00010925368
4.525859e-06
0.0001076781
4.7200105e-06
0.00010603869
4.9112307e-06
0.00010433647
5.0994118e-06
0.00010257248
5.2844479e-06
0.0001007478
5.4662356e-06
9.8863565e-05
5.6446732e-06
9.6920916e-05
5.8196613e-06
9.4921039e-05
5.9911029e-06
9.2865149e-05
6.158903e-06
9.0754493e-05
6.322969e-06
8.8590348e-05
6.4832105e-06
8.6374019e-05
6.6395397e-06
8.4106841e-05
6.791871e-06
8.1790177e-05
6.9401212e-06
7.9425416e-05
7.0842096e-06
7.7013972e-05
7.224058e-06
7.4557288e-05
7.3595906e-06
7.2056827e-05
7.4907343e-06
6.9514078e-05
7.6174183e-06
6.6930553e-05
7.7395746e-06
6.4307785e-05
7.8571377e-06
6.1647328e-05
7.9700446e-06
5.8950757e-05
8.078235e-06
5.6219665e-05
8.1816514e-06
5.3455665e-05
8.2802387e-06
5.0660385e-05
8.3739446e-06
4.7835471e-05
8.4627195e-06
4.4982586e-05
8.5465164e-06
4.2103406e-05
8.6252911e-06
3.9199621e-05
8.6990021e-06
3.6272934e-05
8.7676105e-06
3.3325061e-05
8.8310805e-06
3.0357727e-05
8.8893785e-06
2.7372671e-05
8.9424741e-06
2.4371636e-05
8.9903395e-06
2.1356378e-05
9.0329497e-06
1.8328659e-05
9.0702823e-06
1.5290245e-05
9.102318e-06
1.2242912e-05
9.1290399e-06
9.188438e-06
9.1504341e-06
6.1286042e-06
9.1664896e-06
3.065196e-06
9.1771979e-06
-4.396549e-15
9.1825534e-06
-3.065196e-06
9.1825534e-06
-6.1286042e-06
9.1771979e-06
-9.188438e-06
9.1664896e-06
-1.2242913e-05
9.1504341e-06
-1.5290246e-05
9.1290399e-06
-1.8328659e-05
9.102318e-06
-2.1356378e-05
9.0702823e-06
-2.4371636e-05
9.0329497e-06
-2.7372671e-05
8.9903395e-06
-3.0357727e-05
8.9424741e-06
-3.3325061e-05
8.8893785e-06
-3.6272934e-05
8.8310805e-06
-3.9199621e-05
8.7676105e-06
-4.2103406e-05
8.6990021e-06
-4.4982586e-05
8.6252911e-06
-4.7835471e-05
8.5465164e-06
-5.0660385e-05
8.4627195e-06
-5.3455665e-05
8.3739446e-06
-5.6219665e-05
8.2802387e-06
-5.8950757e-05
8.1816514e-06
-6.1647328e-05
8.078235e-06
-6.4307785e-05
7.9700446e-06
-6.6930553e-05
7.8571377e-06
-6.9514078e-05
7.7395746e-06
-7.2056827e-05
7.6174183e-06
-7.4557288e-05
7.4907343e-06
-7.7013972e-05
7.3595906e-06
-7.9425416e-05
7.224058e-06
-8.1790177e-05
7.0842096e-06
-8.4106841e-05
6.9401212e-06
-8.6374019e-05
6.791871e-06
-8.8590348e-05
6.6395397e-06
-9.0754493e-05
6.4832105e-06
-9.2865149e-05
6.322969e-06
-9.4921039e-05
6.158903e-06
-9.6920916e-05
5.9911029e-06
-9.8863565e-05
5.8196613e-06
-0.0001007478
5.6446732e-06
-0.00010257248
5.4662356e-06
-0.00010433647
5.2844479e-06
-0.00010603869
5.0994118e-06
-0.0001076781
4.9112307e-06
-0.00010925368
4.7200105e-06
-0.00011076445
4.525859e-06
-0.00011220947
4.3288859e-06
-0.00011358784
4.129203e-06
-0.00011489868
3.9269237e-06
-0.00011614117
3.7221637e-06
-0.00011731453
3.51504e-06
-0.00011841799
3.3056717e-06
-0.00011945086
3.0941793e-06
-0.00012041246
2.8806852e-06
-0.00012130217
2.6653129e-06
-0.0001221194
2.4481878e-06
-0.00012286361
2.2294366e-06
-0.0001235343
2.0091871e-06
-0.00012413101
1.7875689e-06
-0.00012465333
1.5647122e-06
-0.00012510089
1.3407488e-06
-0.00012547336
1.1158114e-06
-0.00012577047
8.9003359e-07
-0.00012599198
6.6354999e-07
-0.00012613769
4.36496e-07
-0.00012620747
2.0900787e-07
-0.00012620121
-1.8777453e-08
-0.00012611886
-2.4672267e-07
-0.00012596041
-4.7468988e-07
-0.0001257259
-7.0254071e-07
-0.00012541542
-9.3013646e-07
-0.0001250291
-1.1573382e-06
-0.00012456712
-1.3840068e-06
-0.00012402969
-1.6100032e-06
-0.0001234171
-1.8351882e-06
-0.00012272966
-2.0594227e-06
-0.00012196772
-2.2825681e-06
-0.00012113171
-2.5044857e-06
-0.00012022208
-2.7250375e-06
-0.00011923933
-2.9440859e-06
-0.00011818401
-3.1614937e-06
-0.0001170567
-3.3771247e-06
-0.00011585806
-3.5908433e-06
-0.00011458875
-3.8025146e-06
-0.00011324952
-4.012005e-06
-0.00011184113
-4.2191818e-06
-0.0001103644
-4.4239133e-06
-0.00010882018
-4.6260693e-06
-0.00010720939
-4.8255208e-06
-0.00010553297
-5.0221404e-06
-0.0001037919
-5.2158019e-06
-0.00010198721
-5.4063811e-06
-0.00010011997
-5.5937553e-06
-9.8191299e-05
-5.7778036e-06
-9.6202339e-05
-5.9584071e-06
-9.4154281e-05
-6.1354489e-06
-9.2048352e-05
-6.3088142e-06
-8.9885817e-05
-6.4783902e-06
-8.7667978e-05
-6.6440664e-06
-8.5396172e-05
-6.805735e-06
-8.3071773e-05
-6.96329e-06
-8.0696187e-05
-7.1166285e-06
-7.8270857e-05
-7.2656499e-06
-7.5797256e-05
-7.4102563e-06
-7.3276889e-05
-7.5503526e-06
-7.0711294e-05
-7.6858465e-06
-6.8102035e-05
-7.8166485e-06
-6.5450708e-05
-7.9426724e-06
-6.2758936e-05
-8.0638346e-06
-6.0028368e-05
-8.180055e-06
-5.726068e-05
-8.2912565e-06
-5.4457572e-05
-8.3973652e-06
-5.1620767e-05
-8.4983106e-06
-4.8752012e-05
-8.5940255e-06
-4.5853074e-05
-8.6844461e-06
-4.2925739e-05
-8.7695122e-06
-3.9971815e-05
-8.849167e-06
-3.6993125e-05
-8.9233572e-06
-3.3991511e-05
-8.9920333e-06
-3.0968828e-05
-9.0551494e-06
-2.7926946e-05
-9.1126631e-06
-2.4867748e-05
-9.164536e-06
-2.1793129e-05
-9.2107332e-06
-1.8704994e-05
-9.2512239e-06
-1.5605257e-05
-9.2859808e-06
-1.2495839e-05
-9.3149806e-06
-9.3786695e-06
-9.3382038e-06
-6.2556809e-06
-9.3556349e-06
-3.1288111e-06
-9.3672622e-06
-9.3730778e-06
3.1360573e-06
-1.2509135e-05
6.2701688e-06
-1.2501374e-05
9.40039e-06
-1.2485856e-05
1.2524779e-05
-1.2462593e-05
1.5641398e-05
-1.24316e-05
1.8748314e-05
-1.2392897e-05
2.1843602e-05
-1.2346511e-05
2.4925342e-05
-1.2292473e-05
2.7991625e-05
-1.2230819e-05
3.1040552e-05
-1.216159e-05
3.4070236e-05
-1.2084834e-05
3.7078803e-05
-1.20006e-05
4.0064393e-05
-1.1908946e-05
4.3025159e-05
-1.1809934e-05
4.5959275e-05
-1.1703628e-05
4.8864929e-05
-1.15901e-05
5.174033e-05
-1.1469427e-05
5.4583706e-05
-1.1341687e-05
5.7393309e-05
-1.1206967e-05
6.0167409e-05
-1.1065357e-05
6.2904303e-05
-1.0916949e-05
6.5602313e-05
-1.0761844e-05
6.8259783e-05
-1.0600143e-05
7.0875089e-05
-1.0431954e-05
7.344663e-05
-1.0257388e-05
7.5972838e-05
-1.0076561e-05
7.8452173e-05
-9.8895907e-06
8.0883124e-05
-9.6966018e-06
8.3264216e-05
-9.4977207e-06
8.5594004e-05
-9.293078e-06
8.7871077e-05
-9.082808e-06
9.0094059e-05
-8.8670483e-06
9.2261609e-05
-8.6459399e-06
9.4372422e-05
-8.419627e-06
9.642523e-05
-8.1882571e-06
9.8418803e-05
-7.9519805e-06
0.00010035195
-7.7109504e-06
0.00010222352
-7.465323e-06
0.00010403239
-7.215257e-06
0.00010577751
-6.9609137e-06
0.00010745782
-6.7024567e-06
0.00010907235
-6.440052e-06
0.00011062015
-6.1738678e-06
0.00011210031
-5.9040742e-06
0.00011351197
-5.6308433e-06
0.00011485432
-5.3543492e-06
0.00011612657
-5.0747672e-06
0.000117328
-4.7922746e-06
0.00011845793
-4.5070499e-06
0.00011951571
-4.2192728e-06
0.00012050074
-3.9291243e-06
0.00012141249
-3.6367864e-06
0.00012225045
-3.3424421e-06
0.00012301416
-3.0462749e-06
0.0001237032
-2.7484692e-06
0.00012431723
-2.4492099e-06
0.0001248559
-2.1486822e-06
0.00012531897
-1.8470716e-06
0.00012570619
-1.5445638e-06
0.0001260174
-1.2413445e-06
0.00012625246
-9.3759934e-07
0.00012641129
-6.3351375e-07
0.00012649384
-3.2927282e-07
0.00012650012
-2.5061197e-08
0.00012643019
2.7893706e-07
0.00012628415
5.8253859e-07
0.00012606214
8.8556072e-07
0.00012576435
1.1878217e-06
0.00012539102
1.4891407e-06
0.00012494243
1.7893382e-06
0.00012441891
2.0882358e-06
0.00012382082
2.3856563e-06
0.00012314858
2.6814241e-06
0.00012240265
2.975365e-06
0.00012158353
3.2673066e-06
0.00012069177
3.5570779e-06
0.00011972795
3.8445099e-06
0.00011869269
4.1294354e-06
0.00011758667
4.4116894e-06
0.0001164106
4.6911086e-06
0.00011516523
4.9675321e-06
0.00011385136
5.2408012e-06
0.0001124698
5.5107595e-06
0.00011102143
5.7772527e-06
0.00010950716
6.0401295e-06
0.00010792793
6.2992406e-06
0.00010628472
6.5544396e-06
0.00010457855
6.8055826e-06
0.00010281047
7.0525285e-06
0.00010098157
7.295139e-06
9.9092964e-05
7.5332785e-06
9.7145811e-05
7.7668145e-06
9.5141297e-05
7.9956172e-06
9.308064e-05
8.2195601e-06
9.0965089e-05
8.4385194e-06
8.8795925e-05
8.6523748e-06
8.6574456e-05
8.8610088e-06
8.430202e-05
9.0643072e-06
8.1979982e-05
9.262159e-06
7.9609735e-05
9.4544566e-06
7.7192697e-05
9.6410955e-06
7.4730313e-05
9.8219747e-06
7.2224051e-05
9.9969965e-06
6.9675403e-05
1.0166067e-05
6.7085883e-05
1.0329094e-05
6.445703e-05
1.0485991e-05
6.17904e-05
1.0636675e-05
5.9087571e-05
1.0781063e-05
5.6350142e-05
1.0919081e-05
5.3579728e-05
1.1050653e-05
5.0777961e-05
1.1175711e-05
4.7946492e-05
1.1294188e-05
4.5086986e-05
1.1406022e-05
4.2201124e-05
1.1511153e-05
3.92906e-05
1.1609526e-05
3.6357121e-05
1.170109e-05
3.3402406e-05
1.1785795e-05
3.0428186e-05
1.1863599e-05
2.7436201e-05
1.1934459e-05
2.4428202e-05
1.1998339e-05
2.1405946e-05
1.2055206e-05
1.8371199e-05
1.2105029e-05
1.5325734e-05
1.2147783e-05
1.2271328e-05
1.2183446e-05
9.2097642e-06
1.2211998e-05
6.1428286e-06
1.2233425e-05
3.0723102e-06
1.2247716e-05
-4.3965294e-15
1.2254864e-05
-3.0723102e-06
1.2254864e-05
-6.1428286e-06
1.2247716e-05
-9.2097642e-06
1.2233425e-05
-1.2271328e-05
1.2211998e-05
-1.5325734e-05
1.2183446e-05
-1.8371199e-05
1.2147783e-05
-2.1405946e-05
1.2105029e-05
-2.4428202e-05
1.2055206e-05
-2.7436201e-05
1.1998339e-05
-3.0428186e-05
1.1934459e-05
-3.3402406e-05
1.1863599e-05
-3.6357121e-05
1.1785795e-05
-3.92906e-05
1.170109e-05
-4.2201124e-05
1.1609526e-05
-4.5086986e-05
1.1511153e-05
-4.7946492e-05
1.1406022e-05
-5.0777961e-05
1.1294188e-05
-5.3579728e-05
1.1175711e-05
-5.6350142e-05
1.1050653e-05
-5.9087571e-05
1.0919081e-05
-6.17904e-05
1.0781063e-05
-6.445703e-05
1.0636675e-05
-6.7085883e-05
1.0485991e-05
-6.9675403e-05
1.0329094e-05
-7.2224051e-05
1.0166067e-05
-7.4730313e-05
9.9969965e-06
-7.7192697e-05
9.8219747e-06
-7.9609735e-05
9.6410955e-06
-8.1979982e-05
9.4544566e-06
-8.430202e-05
9.262159e-06
-8.6574456e-05
9.0643072e-06
-8.8795925e-05
8.8610088e-06
-9.0965089e-05
8.6523748e-06
-9.308064e-05
8.4385194e-06
-9.5141297e-05
8.2195601e-06
-9.7145811e-05
7.9956172e-06
-9.9092964e-05
7.7668145e-06
-0.00010098157
7.5332785e-06
-0.00010281047
7.295139e-06
-0.00010457855
7.0525285e-06
-0.00010628472
6.8055826e-06
-0.00010792793
6.5544396e-06
-0.00010950716
6.2992406e-06
-0.00011102143
6.0401295e-06
-0.0001124698
5.7772527e-06
-0.00011385136
5.5107595e-06
-0.00011516523
5.2408012e-06
-0.0001164106
4.9675321e-06
-0.00011758667
4.6911086e-06
-0.00011869269
4.4116894e-06
-0.00011972795
4.1294354e-06
-0.00012069177
3.8445099e-06
-0.00012158353
3.5570779e-06
-0.00012240265
3.2673066e-06
-0.00012314858
2.975365e-06
-0.00012382082
2.6814241e-06
-0.00012441891
2.3856563e-06
-0.00012494243
2.0882358e-06
-0.00012539102
1.7893382e-06
-0.00012576435
1.4891407e-06
-0.00012606214
1.1878217e-06
-0.00012628415
8.8556072e-07
-0.00012643019
5.8253859e-07
-0.00012650012
2.7893706e-07
-0.00012649384
-2.5061198e-08
-0.00012641129
-3.2927282e-07
-0.00012625246
-6.3351375e-07
-0.0001260174
-9.3759934e-07
-0.00012570619
-1.2413445e-06
-0.00012531897
-1.5445638e-06
-0.0001248559
-1.8470716e-06
-0.00012431723
-2.1486822e-06
-0.0001237032
-2.4492099e-06
-0.00012301416
-2.7484692e-06
-0.00012225045
-3.0462749e-06
-0.00012141249
-3.3424421e-06
-0.00012050074
-3.6367864e-06
-0.00011951571
-3.9291243e-06
-0.00011845793
-4.2192728e-06
-0.000117328
-4.5070499e-06
-0.00011612657
-4.7922746e-06
-0.00011485432
-5.0747672e-06
-0.00011351197
-5.3543492e-06
-0.00011210031
-5.6308433e-06
-0.00011062015
-5.9040742e-06
-0.00010907235
-6.1738678e-06
-0.00010745782
-6.440052e-06
-0.00010577751
-6.7024567e-06
-0.00010403239
-6.9609137e-06
-0.00010222352
-7.215257e-06
-0.00010035195
-7.465323e-06
-9.8418803e-05
-7.7109504e-06
-9.642523e-05
-7.9519805e-06
-9.4372422e-05
-8.1882571e-06
-9.2261609e-05
-8.419627e-06
-9.0094059e-05
-8.6459399e-06
-8.7871077e-05
-8.8670483e-06
-8.5594004e-05
-9.082808e-06
-8.3264216e-05
-9.293078e-06
-8.0883124e-05
-9.4977207e-06
-7.8452173e-05
-9.6966018e-06
-7.5972838e-05
-9.8895907e-06
-7.344663e-05
-1.0076561e-05
-7.0875089e-05
-1.0257388e-05
-6.8259783e-05
-1.0431954e-05
-6.5602313e-05
-1.0600143e-05
-6.2904303e-05
-1.0761844e-05
-6.0167409e-05
-1.0916949e-05
-5.7393309e-05
-1.1065357e-05
-5.4583706e-05
-1.1206967e-05
-5.174033e-05
-1.1341687e-05
-4.8864929e-05
-1.1469427e-05
-4.5959275e-05
-1.15901e-05
-4.3025159e-05
-1.1703628e-05
-4.0064393e-05
-1.1809934e-05
-3.7078803e-05
-1.1908946e-05
-3.4070236e-05
-1.20006e-05