/*--------------------------------*- C++ -*----------------------------------*\
| =========                 |                                                 |
| \\      /  F ield         | OpenFOAM: The Open Source CFD Toolbox           |
|  \\    /   O peration     | Version:  2306                                  |
|   \\  /    A nd           | Website:  www.openfoam.com                      |
|    \\/     M anipulation  |                                                 |
\*---------------------------------------------------------------------------*/
FoamFile
{
    version     2.0;
    format      ascii;
    arch        "LSB;label=32;scalar=64";
    class       volVectorField;
    location    "0.22";
    object      U;
}
// * * * * * * * * * * * * * * * * * * * * * * * * * * * * * * * * * * * * * //

dimensions      [0 1 -1 0 0 0 0];

internalField   nonuniform List<vector> 
6400
(
(0.001973834 0.02823813 -1.0398931e-16)
(0.0044423713 0.028548005 -1.4525729e-16)
(0.007208785 0.029716138 -9.2699634e-17)
(0.0097190848 0.031569397 -3.5590204e-17)
(0.01203702 0.034114505 -2.582282e-17)
(0.013996733 0.037291495 -3.657181e-17)
(0.015521686 0.041023803 -2.1970508e-17)
(0.016542295 0.045230687 1.2014172e-18)
(0.016998969 0.049822924 -1.9610347e-17)
(0.01684371 0.05470394 -1.0811025e-17)
(0.01604218 0.059770583 -7.3961458e-18)
(0.0145752 0.064914692 -4.578669e-18)
(0.012436268 0.070025142 -3.5152914e-18)
(0.0096348168 0.074992848 -1.3153375e-18)
(0.0061945899 0.079706802 1.2410493e-17)
(0.0021467568 0.084063711 -4.3249582e-18)
(-0.0024645966 0.087972007 -2.817904e-18)
(-0.0075744601 0.091329878 -2.9956532e-18)
(-0.013111093 0.094053149 -9.7767089e-18)
(-0.018996663 0.096068051 6.2245824e-19)
(-0.025142781 0.097310632 2.2634601e-18)
(-0.03145297 0.097728483 4.5272336e-18)
(-0.037823436 0.09728217 1.9886121e-17)
(-0.044144091 0.095946879 2.7229297e-17)
(-0.050299945 0.093714234 1.8143098e-17)
(-0.056172952 0.090594158 1.5541997e-17)
(-0.061644565 0.086616726 1.0359487e-17)
(-0.066599121 0.081833706 1.626511e-17)
(-0.070928042 0.076319442 2.169852e-17)
(-0.074534673 0.070170672 1.7661305e-17)
(-0.077339375 0.063504912 9.0608941e-18)
(-0.079284112 0.056457219 3.9171579e-18)
(-0.080335962 0.049175413 6.2427835e-18)
(-0.080489849 0.041814294 1.0363307e-17)
(-0.079769924 0.034528745 1.5534362e-17)
(-0.078228706 0.027466442 1.0481788e-17)
(-0.075944217 0.020760987 -5.3540393e-18)
(-0.073015367 0.014525966 -9.2222989e-18)
(-0.06955612 0.008850646 -4.9680246e-18)
(-0.065689482 0.0037975217 -4.3661349e-18)
(-0.061542154 -0.00059951687 1.2835615e-18)
(-0.057231404 -0.004328792 8.1586383e-18)
(-0.052870945 -0.0074049254 3.4726132e-18)
(-0.048559565 -0.009861612 -1.8546689e-18)
(-0.044380362 -0.011747937 -1.3438456e-17)
(-0.040399476 -0.013123819 -1.8939397e-17)
(-0.036665772 -0.014055613 -1.1055202e-17)
(-0.033211614 -0.014612123 -1.8526878e-18)
(-0.030054409 -0.014861271 1.6279399e-18)
(-0.027198545 -0.014867273 -7.4418886e-18)
(-0.024637621 -0.014688475 -5.8488718e-18)
(-0.022356919 -0.014375943 -2.747798e-18)
(-0.020335876 -0.013972738 -4.815291e-18)
(-0.01855036 -0.013513801 -1.4344614e-18)
(-0.016974663 -0.013026323 -8.6331897e-19)
(-0.015583108 -0.012530494 -2.5434187e-18)
(-0.01435127 -0.012040474 -2.4450014e-18)
(-0.013256793 -0.011565479 -1.0068413e-18)
(-0.012279856 -0.011110868 -3.2948028e-19)
(-0.011403351 -0.010679171 1.6626286e-19)
(-0.010612832 -0.010270978 -1.4642926e-19)
(-0.0098963009 -0.0098856562 -7.9811992e-19)
(-0.0092438998 -0.0095218981 -1.3886807e-18)
(-0.0086475672 -0.0091781082 -1.0175112e-19)
(-0.0081007016 -0.0088526552 -1.2507484e-19)
(-0.0075978558 -0.0085440159 -4.1707332e-19)
(-0.0071344777 -0.0082508412 -1.0072734e-19)
(-0.0067067027 -0.0079719711 1.5309203e-20)
(-0.0063111947 -0.0077064191 -1.4084719e-19)
(-0.0059450292 -0.007453343 -3.0243481e-19)
(-0.0056056102 -0.0072120125 -6.3255954e-19)
(-0.0052906122 -0.0069817811 -5.2779545e-19)
(-0.0049979399 -0.0067620624 1.7470352e-19)
(-0.0047256992 -0.0065523145 1.5263102e-19)
(-0.004472175 -0.0063520292 1.9735635e-19)
(-0.0042358133 -0.0061607256 -2.1420581e-19)
(-0.004015206 -0.005977947 -2.4746107e-19)
(-0.0038090767 -0.0058032593 1.9635048e-19)
(-0.0036162682 -0.0056362503 1.5683526e-19)
(-0.0034357302 -0.005476529 4.8170397e-20)
(0.0024793945 0.021857919 -8.5815456e-17)
(0.0055919237 0.022207423 -1.6673137e-16)
(0.0090843466 0.023560086 -8.795551e-17)
(0.012274427 0.025718775 -5.1578392e-17)
(0.015252951 0.028699795 -2.6423064e-17)
(0.017816639 0.032436859 8.0837053e-18)
(0.019874693 0.036841675 -2.6139605e-17)
(0.021344085 0.041820263 -7.4560849e-18)
(0.022153704 0.047268183 1.5729441e-18)
(0.022246371 0.053072186 2.0181516e-18)
(0.021580824 0.059111142 1.6107553e-17)
(0.020133079 0.065258491 2.032113e-17)
(0.017896106 0.071383819 5.5616638e-18)
(0.01487941 0.077359327 2.19397e-17)
(0.011109408 0.083056175 1.251041e-17)
(0.0066282168 0.088352712 2.4365522e-17)
(0.0014819959 0.093138205 3.4708365e-17)
(-0.0042617586 0.097309161 2.1170115e-17)
(-0.010517604 0.10075607 1.9478588e-17)
(-0.017195453 0.10339376 5.3197393e-18)
(-0.02419611 0.10514732 -2.22634e-18)
(-0.031410483 0.10595328 4.4651099e-18)
(-0.038720451 0.10576206 2.416822e-17)
(-0.045999666 0.1045399 2.3810547e-17)
(-0.053114779 0.10227126 1.5771877e-17)
(-0.059927207 0.098961274 1.1111841e-18)
(-0.066295797 0.094638555 -3.5608079e-18)
(-0.072080693 0.089357697 5.974867e-18)
(-0.077148466 0.083201146 1.0158181e-17)
(-0.081378352 0.076279766 1.6678666e-17)
(-0.084669106 0.06873152 -4.7044341e-18)
(-0.086945456 0.060717854 -8.9299342e-18)
(-0.088163119 0.052417799 7.7019052e-18)
(-0.088312787 0.044020583 1.5692623e-17)
(-0.087422415 0.035716594 1.1555666e-17)
(-0.085556401 0.027687617 9.2451605e-18)
(-0.082811955 0.020097569 2.9406673e-19)
(-0.079313005 0.013084623 -6.2388996e-18)
(-0.075202271 0.0067553917 -5.8744366e-18)
(-0.070634505 0.0011814795 -1.0191997e-17)
(-0.065760864 -0.0035979529 -5.390291e-18)
(-0.060730905 -0.0075778092 6.2080625e-19)
(-0.055680881 -0.010782807 4.9552222e-18)
(-0.050728344 -0.01326087 -1.2713682e-19)
(-0.045970485 -0.015078134 -6.2070589e-18)
(-0.041482421 -0.016312912 -1.6344595e-17)
(-0.037317301 -0.017050057 -1.7576271e-17)
(-0.033507736 -0.017376018 -5.4078368e-18)
(-0.030067993 -0.017374739 -2.5633502e-19)
(-0.026996603 -0.017124173 -3.560379e-18)
(-0.02427942 -0.016693798 -4.3781952e-18)
(-0.021892902 -0.016143102 -5.3806485e-18)
(-0.019807303 -0.015520932 -4.0148128e-18)
(-0.017989563 -0.014865612 -3.3391771e-18)
(-0.016405764 -0.014205673 -3.2312739e-18)
(-0.015023067 -0.013561006 -2.4547634e-18)
(-0.013811094 -0.012944268 -2.1707852e-18)
(-0.012742794 -0.01236239 -5.1944333e-19)
(-0.011794865 -0.011818068 -1.3248914e-18)
(-0.010947799 -0.011311099 -1.1337836e-18)
(-0.010185637 -0.010839485 2.2301312e-19)
(-0.0094955525 -0.010400296 -4.862142e-19)
(-0.0088673482 -0.0099902814 -1.200489e-18)
(-0.0082929489 -0.0096062745 -9.0570722e-19)
(-0.0077659261 -0.009245421 -9.8616014e-19)
(-0.0072810917 -0.0089052743 -1.9426338e-19)
(-0.0068341706 -0.0085838031 -2.8691222e-19)
(-0.0064215527 -0.0082793489 3.8478296e-19)
(-0.0060401145 -0.0079905584 -1.6870779e-19)
(-0.0056870976 -0.0077163128 -5.5705692e-19)
(-0.0053600295 -0.0074556648 -3.7279008e-19)
(-0.0050566744 -0.0072077877 -2.3073335e-19)
(-0.0047750014 -0.0069719396 2.3754881e-19)
(-0.0045131642 -0.0067474391 -3.6374747e-19)
(-0.0042694851 -0.0065336508 -1.6727602e-19)
(-0.004042442 -0.0063299774 1.541697e-20)
(-0.0038306553 -0.0061358558 -1.8977257e-19)
(-0.003632876 -0.0059507548 7.7156465e-20)
(-0.0034479728 -0.0057741744 -5.1565483e-20)
(-0.003274921 -0.0056056445 -3.1091833e-19)
(0.0030759236 0.013877563 -3.9582998e-17)
(0.0069503289 0.014270636 -5.4068924e-18)
(0.011300387 0.015835245 2.7420874e-17)
(0.01529533 0.018342959 3.3880068e-17)
(0.019058981 0.02182669 -1.9794453e-17)
(0.022343004 0.026212557 -1.8840832e-17)
(0.025039804 0.031399166 1.0832065e-18)
(0.02705011 0.03727746 -2.4937092e-17)
(0.028288839 0.0437253 -7.6982963e-18)
(0.02868773 0.050609617 9.9792983e-18)
(0.028197431 0.057787867 7.7076175e-18)
(0.02678873 0.06511144 5.1343842e-18)
(0.024453268 0.072428184 -5.2154857e-18)
(0.021201629 0.079587024 1.1733497e-18)
(0.017064034 0.086439568 4.0622535e-18)
(0.012089285 0.092844464 1.6704478e-17)
(0.0063408532 0.098666465 1.7632118e-17)
(-0.00012026996 0.10379108 1.3775937e-17)
(-0.0071974023 0.10810536 1.6477923e-19)
(-0.014781432 0.11149019 -9.2342708e-18)
(-0.022761914 0.11386557 -3.1391942e-17)
(-0.031017112 0.11515442 -2.598888e-17)
(-0.039413656 0.11529475 -1.5114952e-17)
(-0.047807559 0.11424133 -9.0083316e-18)
(-0.056045073 0.11196854 -1.2484353e-17)
(-0.063964153 0.10847381 -3.1290281e-17)
(-0.071397017 0.10378153 -5.6661691e-17)
(-0.078174407 0.097947035 -2.293953e-17)
(-0.084131756 0.091059965 4.5727856e-18)
(-0.089117202 0.083246171 3.5554706e-18)
(-0.093000852 0.074667105 -6.5697095e-18)
(-0.095683942 0.065515991 -3.3161318e-17)
(-0.097106115 0.056010575 -3.1075812e-19)
(-0.097251267 0.046383579 1.7263811e-17)
(-0.096151266 0.036870801 1.8521303e-17)
(-0.093885327 0.027697833 1.2627879e-17)
(-0.090575247 0.019067402 -6.6893001e-18)
(-0.086377236 0.011148656 3.1225287e-18)
(-0.08147175 0.0040686847 2.2640236e-17)
(-0.076050637 -0.0020866326 5.944833e-18)
(-0.070302635 -0.0072773225 1.715832e-17)
(-0.064414573 -0.011507515 1.6114384e-17)
(-0.058549889 -0.014815384 1.0393477e-17)
(-0.052849216 -0.017268457 1.3758752e-17)
(-0.047425881 -0.018955457 9.8072682e-18)
(-0.042364584 -0.019978526 2.0786992e-18)
(-0.037722171 -0.020446028 -8.035969e-18)
(-0.033529959 -0.02046651 2.611583e-19)
(-0.029796749 -0.020143545 7.3161974e-18)
(-0.026512382 -0.019571547 6.538211e-18)
(-0.023651926 -0.018832962 3.9044593e-18)
(-0.021179989 -0.017996683 5.5482804e-19)
(-0.019054821 -0.017117575 -9.0910804e-19)
(-0.017231962 -0.016236956 5.438356e-20)
(-0.015667269 -0.015383825 7.5007905e-19)
(-0.014319202 -0.014576567 4.943918e-19)
(-0.013150385 -0.013824952 1.3903255e-18)
(-0.01212851 -0.013132267 8.2372724e-19)
(-0.011226634 -0.012497304 -3.1226365e-19)
(-0.010422965 -0.011916062 3.5867952e-19)
(-0.0097003365 -0.011383109 3.3309638e-19)
(-0.0090455037 -0.01089259 6.2302708e-19)
(-0.0084483775 -0.010438889 -5.1394598e-19)
(-0.0079012946 -0.01001702 -2.2093845e-19)
(-0.0073983735 -0.0096227894 2.4656948e-19)
(-0.0069349908 -0.0092527984 6.7530776e-19)
(-0.0065073826 -0.0089043636 7.363543e-19)
(-0.006112362 -0.008575384 5.0916969e-19)
(-0.0057471324 -0.0082642035 1.5546436e-19)
(-0.005409175 -0.0079694855 3.2242145e-19)
(-0.0050961858 -0.0076901127 -3.7775799e-20)
(-0.0048060452 -0.0074251133 7.587165e-20)
(-0.0045368031 -0.0071736127 4.1586803e-19)
(-0.0042866721 -0.006934804 -2.7512508e-19)
(-0.0040540216 -0.0067079319 -1.3556633e-19)
(-0.0038373698 -0.0064922862 -1.5662789e-19)
(-0.0036353751 -0.0062871981 2.2555381e-19)
(-0.0034468246 -0.0060920399 1.6865239e-19)
(-0.0032706223 -0.005906224 -1.3543974e-19)
(-0.0031057773 -0.0057292017 -1.9862675e-19)
(0.0037773079 0.0040377049 -6.8992896e-17)
(0.0085533123 0.0044777687 -1.1517493e-16)
(0.013912721 0.0062710531 -8.4987257e-17)
(0.018858018 0.0091658141 6.174137e-18)
(0.023553651 0.013225427 -3.0933552e-18)
(0.02769457 0.018361252 -3.5209875e-17)
(0.031154866 0.024455505 -9.7100969e-18)
(0.033815277 0.031382139 6.9389884e-19)
(0.035573638 0.038997717 1.5072523e-18)
(0.03634805 0.047145797 -8.7263412e-18)
(0.036079569 0.05565848 -1.9261788e-17)
(0.034733451 0.06436063 -1.0550284e-17)
(0.032299549 0.07307389 -3.6932143e-18)
(0.028790609 0.081620714 -7.6754254e-19)
(0.024242533 0.089829299 1.3739203e-17)
(0.018710434 0.097535513 2.2676149e-17)
(0.012268034 0.10458336 3.7180209e-17)
(0.0050035229 0.11083254 3.2871856e-17)
(-0.0030054509 0.11616512 2.4370858e-17)
(-0.011628178 0.12044841 1.9766307e-18)
(-0.020729044 0.12357784 -1.4748188e-17)
(-0.030179683 0.12546421 -1.400404e-17)
(-0.039830425 0.1260311 -7.560951e-20)
(-0.049518681 0.1252188 1.4508907e-17)
(-0.059068614 0.12298788 1.3107081e-17)
(-0.068291815 0.11932387 8.600666e-18)
(-0.076989465 0.11424277 2.5467674e-19)
(-0.084956723 0.10779705 1.2627213e-17)
(-0.091989972 0.10008134 1.2982857e-17)
(-0.09789702 0.091236483 3.8884759e-18)
(-0.10250965 0.081450409 1.8928275e-17)
(-0.10569671 0.070954487 1.7969391e-18)
(-0.10737487 0.060014711 -1.0239675e-17)
(-0.10751717 0.04891923 -1.7769637e-17)
(-0.10615906 0.03796251 -8.216316e-18)
(-0.10339827 0.027427026 -1.289019e-17)
(-0.099388628 0.017565621 -1.6713832e-17)
(-0.094329739 0.0085871562 -1.526564e-17)
(-0.088449595 0.00064485051 -1.1221253e-17)
(-0.081983196 -0.0061589033 -4.5806403e-18)
(-0.075179896 -0.011789048 1.3317819e-17)
(-0.068263573 -0.016259316 2.2526166e-17)
(-0.061434109 -0.019628683 1.3208609e-17)
(-0.05485939 -0.021991207 1.6845747e-17)
(-0.048671036 -0.023465491 1.0293503e-17)
(-0.042963593 -0.024184499 -9.6208914e-19)
(-0.037796417 -0.024286473 -9.1359252e-18)
(-0.033197161 -0.023907562 -2.7628243e-18)
(-0.029165829 -0.023175312 3.0737523e-18)
(-0.02567973 -0.022203763 3.1063021e-18)
(-0.022699127 -0.021090334 5.4892959e-18)
(-0.020172854 -0.019914248 5.4440198e-18)
(-0.018043572 -0.018736368 3.9037665e-19)
(-0.016252348 -0.017600217 -6.7806869e-19)
(-0.014742338 -0.016533852 -1.8266999e-18)
(-0.013461493 -0.015552333 -6.3366619e-19)
(-0.012364355 -0.01466064 2.0913884e-18)
(-0.011412909 -0.013856591 2.1276496e-18)
(-0.010576583 -0.013133447 -1.0027859e-18)
(-0.0098316606 -0.012482071 -1.5454122e-18)
(-0.0091603373 -0.011892583 -1.2951579e-19)
(-0.0085496096 -0.011355497 1.4982941e-18)
(-0.0079901569 -0.010862412 1.8771585e-19)
(-0.007475324 -0.010406319 -5.7893706e-19)
(-0.007000272 -0.0099816402 -2.2112595e-19)
(-0.0065613242 -0.009584088 2.8321953e-19)
(-0.0061555011 -0.0092104354 1.7672717e-18)
(-0.00578022 -0.0088582648 9.4439201e-19)
(-0.0054331213 -0.008525734 -8.3726012e-19)
(-0.0051119849 -0.0082113843 -7.8557605e-19)
(-0.0048147034 -0.0079139995 2.5910779e-19)
(-0.0045392837 -0.0076325103 2.7201013e-19)
(-0.0042838599 -0.007365938 8.5349669e-20)
(-0.0040467055 -0.0071133652 -4.5477422e-19)
(-0.0038262398 -0.0068739239 -4.1748205e-19)
(-0.0036210273 -0.0066467925 -3.1502946e-19)
(-0.0034297716 -0.0064311971 3.2386089e-19)
(-0.0032513046 -0.0062264129 3.9645995e-19)
(-0.0030845749 -0.0060317649 -8.2324424e-20)
(-0.0029286343 -0.0058466265 -3.275401e-19)
(0.0046003816 -0.0080396982 1.4524653e-17)
(0.01042403 -0.0075440272 7.3009797e-17)
(0.016965469 -0.0054690517 -1.1474854e-16)
(0.023042515 -0.0021313289 4.9392861e-17)
(0.028849777 0.0026001142 1.5903033e-17)
(0.034008967 0.0085886657 -3.4745282e-17)
(0.038380995 0.015727832 -1.5439258e-17)
(0.04182095 0.023875102 -3.9446742e-18)
(0.04420618 0.032853959 1.6375244e-18)
(0.045438564 0.042480194 1.1411967e-17)
(0.045447243 0.052555585 1.8898192e-18)
(0.044191037 0.062872979 -3.6642959e-18)
(0.041658493 0.073222166 -5.4971915e-18)
(0.037866069 0.083394982 -1.9567439e-17)
(0.032856644 0.093191479 -3.6942289e-18)
(0.026694919 0.10242122 1.0399394e-17)
(0.019467635 0.11090732 1.4108564e-18)
(0.011276522 0.118488 -2.4019778e-17)
(0.0022157513 0.12501432 -2.952256e-17)
(-0.0075806888 0.13037095 -2.9388871e-17)
(-0.017963895 0.13440872 9.7140118e-18)
(-0.02878418 0.13703017 -1.2601153e-17)
(-0.039878647 0.13814122 2.2034055e-18)
(-0.051066533 0.1376639 5.1352715e-17)
(-0.062149026 0.13554011 3.6091835e-17)
(-0.072908843 0.13173767 4.2401533e-17)
(-0.083111517 0.12625801 5.3182723e-17)
(-0.092509462 0.11914492 2.9825837e-17)
(-0.10085013 0.11049366 4.7539897e-17)
(-0.10788882 0.10045846 4.9896372e-18)
(-0.11340559 0.089256224 -1.7992098e-17)
(-0.11722415 0.077163835 1.5513848e-17)
(-0.11922791 0.064507685 1.7937766e-18)
(-0.11937282 0.051647233 3.662367e-18)
(-0.11769687 0.038953642 -3.0236558e-17)
(-0.11432122 0.026784109 -6.549028e-17)
(-0.10944137 0.015456638 -3.1893081e-17)
(-0.10331346 0.0052285896 -2.4272749e-17)
(-0.096226077 -0.0037013205 -3.5668619e-17)
(-0.088482877 -0.01122955 -1.7364831e-17)
(-0.08039656 -0.017320617 1.2801166e-17)
(-0.072244131 -0.022006116 3.5869874e-17)
(-0.064269582 -0.025374113 2.2121454e-17)
(-0.056672914 -0.027554676 8.6929556e-18)
(-0.049606087 -0.028705901 7.5977222e-18)
(-0.043173165 -0.029000539 -1.3847902e-18)
(-0.037433924 -0.028614808 -7.4314496e-18)
(-0.032408783 -0.027719151 -1.7395578e-18)
(-0.028084288 -0.026470299 -7.2292715e-19)
(-0.024420041 -0.02500554 1.9589243e-18)
(-0.021356219 -0.023439394 4.2960668e-18)
(-0.018820836 -0.021862178 2.8371144e-18)
(-0.016736427 -0.020340353 -1.7911991e-19)
(-0.015025733 -0.018918251 4.377503e-19)
(-0.013616171 -0.017620773 -7.4516347e-19)
(-0.012443148 -0.016457084 -1.9813191e-18)
(-0.011452077 -0.015424756 -8.0213663e-19)
(-0.010598957 -0.014513689 1.1783295e-18)
(-0.0098499121 -0.013709513 -8.8429367e-20)
(-0.0091800271 -0.0129963 -3.9175642e-19)
(-0.0085718026 -0.012358523 -7.5064856e-20)
(-0.0080134808 -0.011782318 7.1462948e-19)
(-0.0074974533 -0.011256112 -1.694094e-19)
(-0.0070188818 -0.010770781 -1.8986967e-19)
(-0.0065746044 -0.010319456 -5.629693e-20)
(-0.0061623483 -0.0098971504 -6.3115214e-19)
(-0.0057802186 -0.009500325 5.9578221e-19)
(-0.0054264116 -0.0091264634 5.2278543e-19)
(-0.0050990895 -0.0087737207 -3.0300777e-19)
(-0.0047963586 -0.0084406546 -6.3908007e-19)
(-0.0045163045 -0.0081260434 -3.2009633e-19)
(-0.0042570453 -0.0078287767 3.2844976e-20)
(-0.0040167832 -0.0075478015 1.1014411e-19)
(-0.0037938419 -0.0072821019 -2.4740416e-19)
(-0.0035866868 -0.007030699 -1.0698794e-19)
(-0.003393931 -0.0067926583 -2.1298478e-19)
(-0.0032143298 -0.0065670979 2.8601473e-20)
(-0.0030467696 -0.0063531944 2.3729851e-19)
(-0.0028902529 -0.006150185 1.0965446e-19)
(-0.0027438843 -0.0059573662 -2.0692777e-19)
(0.0055704955 -0.022768639 -2.5381097e-17)
(0.012648241 -0.022216876 3.0616463e-17)
(0.020557432 -0.019797955 -5.9463976e-17)
(0.027964224 -0.015985443 -2.0255392e-17)
(0.035082533 -0.010456899 7.6151369e-17)
(0.041435059 -0.0034625967 -1.0149849e-18)
(0.04690081 0.0048986021 -4.613502e-17)
(0.051279895 0.014452845 -7.0469402e-17)
(0.054419496 0.025021087 -9.5475784e-18)
(0.056207571 0.036376827 -5.7208877e-17)
(0.056558587 0.048282791 -7.2377142e-17)
(0.055423904 0.060492763 -1.1790553e-17)
(0.052791407 0.072757849 -1.6002117e-18)
(0.048683181 0.084833626 1.6556169e-17)
(0.043152078 0.096486573 3.2895583e-17)
(0.036275971 0.10749709 1.9405886e-17)
(0.028156653 0.11766438 1.7932309e-17)
(0.018909752 0.12680319 9.0800614e-18)
(0.0086637306 0.1347468 -2.4620126e-17)
(-0.0024694518 0.14136298 -5.5986572e-18)
(-0.01431059 0.1464934 2.1614651e-17)
(-0.026692203 0.15001467 -2.9355579e-17)
(-0.039441996 0.15181489 -3.6440108e-17)
(-0.052361702 0.15179375 2.2164213e-17)
(-0.065229896 0.14986838 -7.964381e-19)
(-0.077798837 0.14598094 2.0975017e-17)
(-0.089793974 0.14010932 2.9931271e-17)
(-0.10091697 0.13227957 -1.3975457e-17)
(-0.11085422 0.12257987 3.483924e-18)
(-0.11929241 0.11117346 -1.8520084e-17)
(-0.12594131 0.098307307 -3.4203046e-17)
(-0.1305609 0.08431196 3.8964331e-18)
(-0.13298599 0.06958974 -1.7435627e-18)
(-0.13314556 0.054592744 -7.0970831e-19)
(-0.13107787 0.0397938 -1.9583405e-17)
(-0.12693423 0.025649904 -4.4077469e-17)
(-0.12096843 0.012566877 -2.6598247e-17)
(-0.11350401 0.00086536651 -7.5684536e-18)
(-0.10490775 -0.0092083233 -3.5115442e-17)
(-0.095595589 -0.017541329 -1.5301523e-17)
(-0.085943946 -0.024105178 2.2226225e-17)
(-0.076301062 -0.028959536 2.8982052e-17)
(-0.066964909 -0.032233418 2.2507476e-17)
(-0.058173114 -0.034105887 8.4017778e-18)
(-0.050099592 -0.034787172 4.1220453e-18)
(-0.042856643 -0.034501335 -1.816977e-18)
(-0.036500994 -0.033472704 -6.332855e-18)
(-0.03104058 -0.031914126 -1.6584174e-18)
(-0.026442073 -0.030017718 2.5472302e-18)
(-0.02264044 -0.027948044 4.8676804e-18)
(-0.01954891 -0.025838899 6.7870791e-18)
(-0.01706822 -0.023792167 3.5938981e-18)
(-0.015095047 -0.021878931 1.8574879e-18)
(-0.013528923 -0.020141992 2.3527874e-18)
(-0.012277877 -0.018599868 -3.2163816e-19)
(-0.011262573 -0.017252228 -1.258208e-18)
(-0.010418327 -0.016085626 1.537863e-18)
(-0.0096952193 -0.0150788 3.707262e-18)
(-0.0090568838 -0.014207075 1.2575028e-18)
(-0.0084784734 -0.013445706 1.3836054e-19)
(-0.0079442641 -0.01277214 7.1530026e-19)
(-0.0074452148 -0.01216737 1.1636087e-18)
(-0.0069767462 -0.011616412 1.2123446e-18)
(-0.0065369057 -0.011108126 7.4721274e-19)
(-0.0061249933 -0.010634662 -3.6860891e-19)
(-0.0057406578 -0.01019073 -2.3292461e-19)
(-0.0053833867 -0.0097728694 8.2062631e-19)
(-0.0050522911 -0.0093788055 1.468285e-18)
(-0.0047460838 -0.0090069531 1.586581e-19)
(-0.0044631674 -0.0086560668 -4.2737817e-19)
(-0.0042017667 -0.0083250298 -2.0841823e-19)
(-0.0039600577 -0.0080127476 3.4774269e-19)
(-0.0037362694 -0.0077181136 9.698548e-19)
(-0.0035287501 -0.0074400145 1.392783e-19)
(-0.003336001 -0.0071773529 1.8932929e-20)
(-0.0031566843 -0.0069290718 -1.2171349e-19)
(-0.0029896149 -0.0066941743 1.9740457e-19)
(-0.0028337444 -0.0064717345 6.6279731e-19)
(-0.0026881416 -0.0062609011 1.3834421e-19)
(-0.0025519746 -0.0060608959 -1.7129137e-19)
(0.0066947585 -0.040551065 1.4163787e-17)
(0.015270909 -0.039956059 -4.653994e-17)
(0.024739065 -0.037110109 1.7263284e-17)
(0.033736896 -0.032859417 -5.1877818e-17)
(0.042437581 -0.026357387 1.3620765e-17)
(0.05018818 -0.018233901 3.2241483e-17)
(0.056949115 -0.0084545898 1.4856162e-16)
(0.062430575 0.0027645109 6.0913246e-17)
(0.066486494 0.015178265 -9.892821e-18)
(0.06894845 0.028557424 8.3643985e-17)
(0.069718192 0.042609831 2.8394544e-17)
(0.068740359 0.0570387 5.0788824e-18)
(0.06600381 0.071547776 -1.8035299e-17)
(0.061539195 0.085848865 -6.4858013e-18)
(0.05541348 0.099669127 3.1563281e-17)
(0.047723165 0.11275612 -2.181902e-17)
(0.038588349 0.12488185 3.2548319e-17)
(0.028144827 0.1358397 -1.9034929e-17)
(0.016543358 0.14544628 -7.429287e-17)
(0.0039099609 0.15353916 -4.7085701e-17)
(-0.0095798602 0.15997829 4.1174037e-18)
(-0.023735404 0.16459369 -4.4706552e-18)
(-0.03837395 0.16726089 2.4654477e-18)
(-0.053284752 0.16785169 5.4351075e-17)
(-0.068226767 0.16625088 5.1219919e-17)
(-0.082922115 0.16236446 6.6608047e-17)
(-0.097052646 0.15613392 4.1137129e-17)
(-0.11026081 0.14755389 6.4969101e-18)
(-0.12215738 0.13669267 1.6925555e-17)
(-0.13233952 0.12371338 4.5300812e-17)
(-0.14042072 0.10889108 2.7298294e-17)
(-0.14607014 0.092618348 -1.5918272e-17)
(-0.14905058 0.075393142 8.4030102e-18)
(-0.14924846 0.057789166 -7.8262897e-18)
(-0.14669751 0.040415785 -8.0121535e-18)
(-0.14158623 0.023864676 1.0543154e-17)
(-0.13424707 0.0086583526 -3.4296179e-17)
(-0.12509989 -0.0047830312 -2.3676472e-17)
(-0.11462681 -0.016182501 -4.3740588e-17)
(-0.10336537 -0.02540245 -4.0384297e-17)
(-0.09179449 -0.032433904 -3.4663776e-18)
(-0.080348825 -0.037378893 -7.6979343e-18)
(-0.06939129 -0.040424419 -1.0724602e-18)
(-0.059202624 -0.041816085 6.2253096e-18)
(-0.04997927 -0.041832806 3.1870314e-18)
(-0.041838913 -0.040764705 -8.8617564e-18)
(-0.0348297 -0.038896717 -1.7249691e-17)
(-0.028939587 -0.036493766 -3.1426415e-18)
(-0.024106627 -0.033790711 5.9921222e-19)
(-0.020231947 -0.030983706 -1.300494e-18)
(-0.017193001 -0.028227922 6.9727756e-19)
(-0.014855057 -0.025636775 -2.7199528e-18)
(-0.013081602 -0.023284108 5.4531452e-19)
(-0.011742858 -0.021207593 1.9127473e-18)
(-0.010723168 -0.019414798 3.883075e-18)
(-0.0099260408 -0.017890798 6.1598383e-19)
(-0.0092760127 -0.016606232 -2.01963e-18)
(-0.0087179075 -0.015524461 1.3460908e-18)
(-0.0082144142 -0.01460712 1.4866303e-18)
(-0.0077427744 -0.013818094 2.5703418e-18)
(-0.0072912413 -0.013126286 1.2239137e-18)
(-0.0068556281 -0.012506932 -1.1451792e-18)
(-0.0064361973 -0.011941661 6.0858138e-20)
(-0.0060352425 -0.011417756 7.5560185e-19)
(-0.0056554461 -0.010927021 1.3249946e-18)
(-0.0052989198 -0.010464542 4.8943532e-19)
(-0.0049667801 -0.01002755 -7.3473232e-19)
(-0.0046590962 -0.0096145044 8.4452951e-19)
(-0.0043750578 -0.0092244267 6.4259188e-19)
(-0.0041132395 -0.0088564848 9.8315609e-19)
(-0.0038718777 -0.0085097782 6.729662e-20)
(-0.0036491016 -0.0081832681 -4.9603567e-19)
(-0.0034430957 -0.0078757922 4.6819962e-19)
(-0.0032521934 -0.0075861184 7.2436811e-20)
(-0.0030749174 -0.0073130054 6.6672478e-19)
(-0.002909982 -0.0070552533 2.400901e-19)
(-0.002756274 -0.0068117366 -4.2413617e-19)
(-0.0026128258 -0.0065814212 1.2224383e-19)
(-0.0024787881 -0.0063633673 2.1624194e-19)
(-0.002353406 -0.0061567251 6.5705357e-19)
(0.0079737963 -0.061940041 1.7441224e-16)
(0.018383558 -0.061369189 5.2897139e-16)
(0.029539396 -0.0578344 4.5355632e-16)
(0.040486572 -0.053368267 2.7215858e-16)
(0.051110721 -0.045549771 6.5025912e-17)
(0.060448128 -0.036206565 -5.7289856e-18)
(0.06879215 -0.024789439 -4.7528831e-17)
(0.075601962 -0.011642363 8.3230359e-17)
(0.080725978 0.0029546753 5.0755551e-17)
(0.084008395 0.018695088 2.4365827e-17)
(0.085287416 0.035267015 7.3765188e-17)
(0.084504592 0.052300734 1.4211921e-17)
(0.081653958 0.069439605 -2.9336201e-17)
(0.076779579 0.086341877 -1.2987066e-17)
(0.069968927 0.10268856 -1.8803496e-17)
(0.061343445 0.11819015 -2.2575142e-17)
(0.051049574 0.13258882 -6.0185315e-17)
(0.039247029 0.14565826 -7.6684017e-17)
(0.026107052 0.15719954 -7.4862159e-17)
(0.011793825 0.16703219 -6.0921093e-17)
(-0.0035581101 0.17501208 -4.2191581e-17)
(-0.019713476 0.18095344 -4.6492633e-17)
(-0.036491272 0.18470443 -4.8891706e-17)
(-0.053677352 0.18610614 -4.0389125e-17)
(-0.071016357 0.18500237 -3.1698084e-17)
(-0.088203924 0.18124931 -2.4731182e-17)
(-0.10487698 0.17473409 -2.1219704e-17)
(-0.12061066 0.16539966 -8.4282685e-18)
(-0.13492336 0.15327405 -7.6693262e-18)
(-0.14729583 0.13850345 2.4979696e-17)
(-0.15720934 0.12138309 4.7214911e-17)
(-0.16420206 0.10237449 4.1962583e-17)
(-0.1679288 0.082096054 5.6586692e-17)
(-0.16820836 0.061283302 1.1026126e-17)
(-0.16506205 0.04073238 4.2579123e-17)
(-0.15872814 0.021221216 8.8568578e-17)
(-0.14963997 0.0034219284 6.1243422e-17)
(-0.1383433 -0.012093461 3.480632e-17)
(-0.12551289 -0.025020779 3.8737236e-17)
(-0.11182277 -0.035205597 1.4480179e-17)
(-0.097890112 -0.042670958 1.6236251e-17)
(-0.084258511 -0.047581834 2.4002668e-18)
(-0.071368975 -0.050207299 -1.2289798e-17)
(-0.059550285 -0.05088316 3.980124e-18)
(-0.049020183 -0.049978542 1.5521533e-17)
(-0.039896384 -0.047868335 4.0529872e-18)
(-0.032209858 -0.04491327 -1.9840103e-17)
(-0.02591824 -0.041441553 -1.1769995e-17)
(-0.020919176 -0.037739609 -2.1001856e-18)
(-0.017067736 -0.034039436 5.47073e-18)
(-0.014194436 -0.030519475 3.8263419e-18)
(-0.012118657 -0.02730381 -2.4364274e-18)
(-0.010661414 -0.02446588 -2.3093834e-18)
(-0.0096560438 -0.022033064 1.5734177e-18)
(-0.008958067 -0.019995487 2.1157309e-18)
(-0.0084512977 -0.018316536 -3.1208689e-18)
(-0.008049418 -0.016944391 -1.2647488e-18)
(-0.0076935884 -0.015821584 4.1142513e-19)
(-0.007348032 -0.014891505 9.6760369e-19)
(-0.0069951991 -0.014103655 1.5184412e-18)
(-0.0066307271 -0.013416937 -1.9202537e-18)
(-0.006258306 -0.012800525 -8.6008276e-19)
(-0.0058854046 -0.012233147 -2.2845792e-19)
(-0.0055202369 -0.011701461 4.5188394e-19)
(-0.0051698948 -0.011198056 9.8212628e-19)
(-0.0048394476 -0.010719475 -7.5553107e-19)
(-0.004531749 -0.010264545 -2.656639e-19)
(-0.0042476964 -0.0098331223 1.9216043e-19)
(-0.0039867104 -0.0094252655 5.0145253e-19)
(-0.003747271 -0.0090407825 9.653717e-19)
(-0.003527397 -0.0086790719 -8.5167486e-19)
(-0.003325004 -0.0083391448 -4.2845034e-19)
(-0.0031381291 -0.0080197353 4.1492372e-19)
(-0.0029650429 -0.0077194333 1.4762847e-20)
(-0.0028042797 -0.0074368023 1.7136621e-19)
(-0.0026546182 -0.0071704632 -5.6029919e-19)
(-0.0025150399 -0.0069191425 -1.2409542e-19)
(-0.0023846824 -0.0066816914 1.4901805e-19)
(-0.0022627992 -0.006457084 3.1107187e-20)
(-0.0021487291 -0.0062444057 2.9257308e-19)
(0.0093428824 -0.087443454 -1.154515e-16)
(0.022193988 -0.087106679 -1.8471719e-16)
(0.034929524 -0.08230307 5.8781871e-16)
(0.048370083 -0.078299879 2.8689711e-16)
(0.061395903 -0.068489241 1.8242611e-16)
(0.072437335 -0.057973589 -3.2796561e-16)
(0.082747435 -0.044614245 -1.6840497e-16)
(0.091121236 -0.029242186 -1.5135075e-16)
(0.097562658 -0.012125471 -1.0097945e-16)
(0.10179283 0.0064165183 -4.9151575e-17)
(0.10369704 0.025940145 -3.4536626e-17)
(0.10314923 0.046037115 -1.0106601e-17)
(0.10016385 0.066261439 -2.1020861e-17)
(0.09480706 0.086204588 9.1261201e-18)
(0.087196419 0.10549268 -5.1637676e-19)
(0.077487876 0.1237938 1.6620989e-17)
(0.065863407 0.14082013 -1.3090602e-17)
(0.05251592 0.15632646 -1.8781947e-18)
(0.037641152 0.17010369 -6.1159583e-18)
(0.021427715 0.18196411 -4.3258931e-17)
(0.0040113143 0.19174703 -1.4529229e-16)
(-0.01438382 0.19928802 -1.0394683e-16)
(-0.033565578 0.20438191 -8.6718164e-17)
(-0.053331085 0.20684675 -1.3430249e-16)
(-0.073422322 0.20647331 -1.3093368e-16)
(-0.093517996 0.20305073 -1.6037938e-16)
(-0.11321318 0.19638745 -1.0652261e-16)
(-0.13200949 0.18634519 -9.2199755e-19)
(-0.14931497 0.17288037 1.7230824e-18)
(-0.16446054 0.15609316 -1.4730382e-17)
(-0.17674565 0.13628014 3.6611644e-17)
(-0.1855177 0.11397375 6.3251239e-17)
(-0.19026701 0.089942845 7.8847923e-17)
(-0.19070369 0.065141159 8.513539e-17)
(-0.18682048 0.04062558 8.1462744e-17)
(-0.17892988 0.017440252 1.2114992e-16)
(-0.1675856 -0.0035238376 1.2341194e-16)
(-0.15353149 -0.02154338 7.9232798e-17)
(-0.13771289 -0.036236585 8.9227737e-17)
(-0.1209783 -0.047452412 3.5289134e-17)
(-0.10412744 -0.055272342 3.5291709e-18)
(-0.087840078 -0.059956821 5.6268452e-18)
(-0.072649077 -0.061891149 -6.8595406e-18)
(-0.058934116 -0.061533159 2.5829133e-18)
(-0.046929771 -0.059369963 4.2478442e-18)
(-0.036744684 -0.055884468 -9.2149554e-18)
(-0.028379491 -0.051531445 -1.9625474e-17)
(-0.021747638 -0.04671453 -1.2640169e-17)
(-0.016690731 -0.041782891 -2.9049982e-18)
(-0.013001664 -0.037007743 1.3201886e-18)
(-0.010450084 -0.032592375 -1.0221981e-18)
(-0.0087961776 -0.028669198 4.3664147e-18)
(-0.0078069192 -0.02530667 -4.6604369e-19)
(-0.0072693907 -0.022514363 2.1448166e-18)
(-0.0070040478 -0.02025591 4.4079563e-19)
(-0.0068725238 -0.018463344 -4.9122877e-18)