/*--------------------------------*- C++ -*----------------------------------*\
| =========                 |                                                 |
| \\      /  F ield         | OpenFOAM: The Open Source CFD Toolbox           |
|  \\    /   O peration     | Version:  2106                                  |
|   \\  /    A nd           | Website:  www.openfoam.com                      |
|    \\/     M anipulation  |                                                 |
\*---------------------------------------------------------------------------*/
FoamFile
{
    version     2.0;
    format      ascii;
    arch        "LSB;label=32;scalar=64";
    class       surfaceScalarField;
    location    "0.01";
    object      phi;
}
// * * * * * * * * * * * * * * * * * * * * * * * * * * * * * * * * * * * * * //

dimensions      [0 3 -1 0 0 0 0];

oriented        oriented;

internalField   nonuniform List<scalar> 
8064
(
0.00028007617
-0.00028007253
0.00055744976
-0.00027737359
0.00082945168
-0.00027200192
0.0010934613
-0.00026400959
0.0013469353
-0.00025347402
0.0015874325
-0.00024049722
0.0018126373
-0.00022520476
0.0020203818
-0.00020774449
0.0022086668
-0.00018828508
0.0023756812
-0.00016701432
0.0025198184
-0.00014413728
0.0026396928
-0.00011987432
0.0027341517
-9.4458917e-05
0.0028022871
-6.8135436e-05
0.002843444
-4.1156837e-05
0.0028572265
-1.3782525e-05
0.0028435024
1.3724083e-05
0.0028024029
4.1099531e-05
0.0027343178
6.8085055e-05
0.0026399028
9.4414961e-05
0.0025200646
0.00011983825
0.002375954
0.00014411057
0.002208956
0.00016699805
0.002020676
0.00018827993
0.0018129253
0.00020775072
0.0015877032
0.00022522217
0.001347178
0.00024052519
0.0010936665
0.00025351151
0.00082961128
0.00026405518
0.00055755741
0.00027205387
0.00028012752
0.00027742989
-3.4827386e-09
0.00028013101
-0.00028013445
0.00028013097
-0.00055756423
0.00027742978
-0.00082961791
0.00027205368
-0.0010936728
0.00026405492
-0.001347184
0.00025351119
-0.0015877088
0.00024052481
-0.0018129306
0.00022522174
-0.0020206808
0.00020775025
-0.0022089602
0.00018827942
-0.0023759578
0.00016699751
-0.0025200678
0.00014411001
-0.0026399054
0.00011983767
-0.0027343198
9.4414368e-05
-0.0028024043
6.8084449e-05
-0.0028435032
4.1098916e-05
-0.0028572266
1.3723461e-05
-0.0028434435
-1.3783153e-05
-0.002802286
-4.1157469e-05
-0.0027341499
-6.8136069e-05
-0.0026396904
-9.4459549e-05
-0.0025198154
-0.00011987495
-0.0023756776
-0.0001441379
-0.0022086626
-0.00016701491
-0.002020377
-0.00018828565
-0.001812632
-0.00020774503
-0.0015874267
-0.00022520525
-0.0013469291
-0.00024049765
-0.0010934547
-0.00025347439
-0.00082944478
-0.00026400989
-0.00055744264
-0.00027200214
-0.00028006892
-0.00027737372
-0.00028007257
0.00028450594
-0.00056457475
0.00056626661
-0.00055913426
0.0008425708
-0.00054830611
0.0011107565
-0.00053219528
0.0013682404
-0.00051095787
0.0016125427
-0.00048479953
0.0018413113
-0.00045397342
0.0020523444
-0.00041877759
0.0022436114
-0.00037955205
0.0024132724
-0.00033667534
0.002559696
-0.00029056083
0.0026814743
-0.00024165265
0.0027774368
-0.00019042139
0.0028466609
-0.00013735959
0.0028884812
-8.2977092e-05
0.002902495
-2.7796331e-05
0.0028885664
2.7652641e-05
0.0028468272
8.2838742e-05
0.0027776786
0.00013723368
0.0026817819
0.00019031162
0.0025600574
0.00024156279
0.0024136737
0.00029049428
0.002244037
0.0003366347
0.002052778
0.00037953895
0.0018417361
0.00041879263
0.0016129421
0.00045401612
0.001368599
0.00048486833
0.0011110603
0.00051105019
0.00084280788
0.00053230761
0.0005664276
0.00054843415
0.00028458442
0.00055927307
-3.542975e-09
0.00056471897
-0.00028459147
0.00056471889
-0.00056643453
0.00055927283
-0.00084281461
0.00054843377
-0.0011110668
0.00053230709
-0.0013686051
0.00051104954
-0.0016129479
0.00048486757
-0.0018417414
0.00045401526
-0.0020527828
0.00041879168
-0.0022440413
0.00037953792
-0.0024136774
0.00033663361
-0.0025600606
0.00029049315
-0.0026817845
0.00024156163
-0.0027776806
0.00019031043
-0.0028468286
0.00013723247
-0.0028885672
8.2837507e-05
-0.0029024951
2.7651392e-05
-0.0028884807
-2.7797591e-05
-0.0028466598
-8.2978361e-05
-0.002777435
-0.00013736087
-0.0026814719
-0.00019042266
-0.0025596929
-0.00024165391
-0.0024132688
-0.00029056206
-0.0022436072
-0.00033667654
-0.0020523396
-0.0003795532
-0.001841306
-0.00041877867
-0.0016125368
-0.00045397441
-0.001368234
-0.00048480042
-0.0011107498
-0.00051095862
-0.00084256379
-0.00053219589
-0.00056625937
-0.00054830656
-0.00028449856
-0.00055913453
-0.00056457484
0.00029205287
-0.0008566238
0.00058128781
-0.00084836919
0.00086492187
-0.00083194017
0.0011402226
-0.00080749604
0.0014045384
-0.00077527369
0.0016553241
-0.00073558524
0.0018901655
-0.00068881482
0.0021068027
-0.00063541471
0.0023031514
-0.0005759008
0.0024773235
-0.00051084743
0.0026276444
-0.00044088171
0.0027526691
-0.00036667739
0.002851196
-0.00028894831
0.002922278
-0.00020844153
0.0029652312
-0.00012593033
0.0029796418
-4.2206858e-05
0.002965369
4.1925371e-05
0.0029225479
0.00012565986
0.0028515883
0.00020819324
0.0027531687
0.00028873125
0.0026282319
0.00036649959
0.0024779763
0.0004407499
0.0023038443
0.00051076669
0.0021075089
0.00057587434
0.0018908579
0.00063544368
0.0016559758
0.00068889824
0.0014051241
0.00073572003
0.0011407195
0.00077545477
0.0008653106
0.00080771649
0.00058155321
0.00083219154
0.00029218449
0.00084864179
-3.6397046e-09
0.0008569071
-0.00029219173
0.00085690698
-0.00058156032
0.00084864143
-0.00086531751
0.00083219096
-0.0011407261
0.00080771569
-0.0014051303
0.00077545377
-0.0016559816
0.00073571886
-0.0018908633
0.00068889692
-0.0021075139
0.00063544223
-0.0023038487
0.00057587279
-0.0024779801
0.00051076505
-0.0026282352
0.00044074819
-0.0027531714
0.00036649783
-0.0028515904
0.00028872945
-0.0029225493
0.0002081914
-0.0029653698
0.000125658
-0.0029796419
4.1923488e-05
-0.0029652308
-4.2208757e-05
-0.0029222769
-0.00012593224
-0.0028511943
-0.00020844346
-0.0027526667
-0.00028895022
-0.0026276413
-0.0003666793
-0.0024773198
-0.00044088359
-0.0023031471
-0.00051084925
-0.0021067977
-0.00057590255
-0.0018901601
-0.00063541636
-0.0016553181
-0.00068881633
-0.001404532
-0.00073558659
-0.0011402157
-0.00077527485
-0.00086491466
-0.00080749697
-0.00058128036
-0.00083194086
-0.00029204528
-0.00084836961
-0.00085662394
0.00030292309
-0.0011595429
0.00060292356
-0.0011483697
0.00089711512
-0.0011261317
0.0011826639
-0.0010930449
0.00145682
-0.0010494298
0.0017169439
-0.0009957091
0.001960532
-0.00093240287
0.0021852406
-0.0008601234
0.0023889089
-0.00077956901
0.0025695785
-0.00069151709
0.0027255132
-0.00059681637
0.0028552144
-0.0004963786
0.0029574357
-0.00039116967
0.0030311946
-0.00028220039
0.0030757811
-0.00017051688
0.003090765
-5.7190712e-05
0.0030759993
5.669112e-05
0.0030316224
0.0001700367
0.0029580572
0.00028175842
0.0028560058
0.0003907827
0.0027264441
0.0004960613
0.0025706131
0.00059658088
0.0023900073
0.00069137252
0.0021863605
0.00077952106
0.0019616301
0.00086017409
0.0017179779
0.00093255045
0.0014577499
0.00099594806
0.0011834536
0.0010497511
0.00089773388
0.0010934362
0.00060334733
0.0011265781
0.00030313531
0.0011488538
-3.7718075e-09
0.0011600462
-0.00030314281
0.001160046
-0.0006033547
0.0011488533
-0.00089774103
0.0011265773
-0.0011834604
0.0010934351
-0.0014577564
0.0010497497
-0.001717984
0.00099594647
-0.0019616357
0.00093254865
-0.0021863656
0.00086017212
-0.0023900118
0.00077951894
-0.002570617
0.0006913703
-0.0027264474
0.00059657857
-0.0028560085
0.00049605892
-0.0029580593
0.00039078027
-0.0030316239
0.00028175596
-0.0030760001
0.0001700342
-0.0030907652
5.6688598e-05
-0.0030757807
-5.7193258e-05
-0.0030311935
-0.00017051944
-0.002957434
-0.00028220297
-0.0028552119
-0.00039117225
-0.0027255101
-0.00049638117
-0.0025695747
-0.00059681891
-0.0023889044
-0.00069151957
-0.0021852356
-0.00077957139
-0.0019605263
-0.00086012565
-0.0017169377
-0.00093240495
-0.0014568133
-0.00099571095
-0.0011826568
-0.0010494314
-0.00089710765
-0.0010930461
-0.00060291582
-0.0011261327
-0.0003029152
-0.0011483702
-0.0011595431
0.00031748568
-0.0014770244
0.00063190844
-0.0014627924
0.00094024349
-0.0014344668
0.0012395211
-0.0013923224
0.0015268594
-0.0013367681
0.0017994927
-0.0012683423
0.0020547975
-0.0011877077
0.0022903185
-0.0010956444
0.0025037913
-0.00099304186
0.0026931646
-0.00088089038
0.0028566191
-0.00076027083
0.0029925847
-0.00063234418
0.0030997552
-0.00049834023
0.0031771006
-0.00035954578
0.0032238762
-0.00021729245
0.0032396297
-7.294424e-05
0.0032242057
7.2115175e-05
0.003177747
0.00021649536
0.003100694
0.00035881142
0.00299378
0.00049769674
0.0028580251
0.0006318162
0.0026947273
0.00075987866
0.0025054506
0.00088064923
0.0022920104
0.00099296121
0.0020564569
0.0010957276
0.0018010555
0.0011879519
0.0015282653
0.0012687383
0.0012407156
0.0013373008
0.00094118031
0.0013929714
0.00063255122
0.0014352072
0.00031780937
0.0014635957
-3.942056e-09
0.0014778595
-0.00031781721
0.0014778593
-0.00063255891
0.001463595
-0.00094118777
0.0014352061
-0.0012407227
0.00139297
-0.001528272
0.001337299
-0.0018010618
0.0012687362
-0.0020564627
0.0011879496
-0.0022920156
0.0010957251
-0.0025054552
0.00099295851
-0.0026947313
0.0008806464
-0.0028580285
0.00075987574
-0.0029937827
0.0006318132
-0.0031006961
0.00049769369
-0.0031777485
0.00035880832
-0.0032242065
0.00021649222
-0.0032396299
7.2112008e-05
-0.0032238758
-7.2947439e-05
-0.0031770995
-0.00021729568
-0.0030997535
-0.00035954903
-0.0029925822
-0.0004983435
-0.0028566159
-0.00063234744
-0.0026931608
-0.00076027406
-0.0025037868
-0.00088089354
-0.0022903133
-0.00099304491
-0.0020547917
-0.0010956473
-0.0017994862
-0.0011877104
-0.0015268524
-0.0012683447
-0.0012395136
-0.0013367702
-0.00094023566
-0.0013923241
-0.00063190033
-0.001434468
-0.0003174774
-0.0014627932
-0.0014770247
0.00033627314
-0.0018132931
0.00066930223
-0.0017958215
0.00099588374
-0.0017610483
0.0013128725
-0.0017093112
0.0016172166
-0.0016411122
0.0019059872
-0.0015571129
0.0021764065
-0.0014581271
0.0024258748
-0.0013451127
0.0026519949
-0.0012191619
0.002852595
-0.0010814905
0.0030257491
-0.00093342496
0.0031697951
-0.00077639017
0.0032833498
-0.00061189499
0.0033653221
-0.00044151805
0.0034149224
-0.0002668928
0.0034316705
-8.9692268e-05
0.0034153994
8.8386264e-05
0.0033662578
0.00026563695
0.0032847086
0.00044036061
0.003171525
0.00061088037
0.0030277839
0.00077555733
0.0028548565
0.00093280602
0.0026543963
0.0010811094
0.0024283237
0.0012190338
0.0021788086
0.0013452427
0.0019082498
0.0014585107
0.0016192524
0.0015577357
0.0013146027
0.0016419504
0.0009972415
0.0017103327
0.00067023485
0.0017622138
0.00033674436
0.0017970861
-4.1558982e-09
0.001814608
-0.00033675262
0.0018146077
-0.00067024295
0.0017970853
-0.00099724934
0.0017622125
-0.0013146102
0.0017103309
-0.0016192594
0.0016419482
-0.0019082563
0.0015577331
-0.0021788146
0.0014585078
-0.0024283291
0.0013452396
-0.0026544011
0.0012190305
-0.0028548606
0.001081106
-0.0030277873
0.00093280244
-0.0031715278
0.00077555368
-0.0032847108
0.00061087666
-0.0033662593
0.00044035687
-0.0034154003
0.00026563317
-0.0034316707
8.8382447e-05
-0.003414922
-8.9696123e-05
-0.003365321
-0.00026689669
-0.0032833481
-0.00044152199
-0.0031697926
-0.00061189895
-0.0030257459
-0.00077639414
-0.002852591
-0.00093342891
-0.0026519902
-0.0010814944
-0.0024258695
-0.0012191657
-0.0021764005
-0.0013451163
-0.0019059804
-0.0014581304
-0.0016172093
-0.0015571159
-0.0013128646
-0.0016411148
-0.00099587548
-0.0017093132
-0.00066929365
-0.0017610498
-0.00033626436
-0.0017958225
-0.0018132935
0.00035998702
-0.0021732754
0.00071650125
-0.0021523357
0.0010661133
-0.0021106604
0.0014054565
-0.0020486544
0.0017312643
-0.00196692
0.0020404018
-0.0018662505
0.0023298966
-0.0017476219
0.0025969667
-0.0016121827
0.0028390472
-0.0014612425
0.0030538148
-0.001296258
0.0032392091
-0.0011188192
0.0033934517
-0.0009306328
0.0035150628
-0.0007335061
0.0036028742
-0.00052932949
0.0036560402
-0.00032005872
0.0036740447
-0.00010769681
0.0036567068
0.00010572418
0.003604182
0.0003181617
0.0035169618
0.00052758082
0.0033958693
0.00073197287
0.0032420527
0.00092937395
0.0030569754
0.0011178833
0.0028424034
0.0012956814
0.0026003894
0.0014610478
0.0023332542
0.001612378
0.0020435647
0.0017482001
0.0017341105
0.00186719
0.0014078761
0.0019681848
0.0010680126
0.0020501961
0.00071780675
0.0021124197
0.00036064807
0.0021542448
-4.4204195e-09
0.0021752605
-0.00036065685
0.0021752602
-0.00071781535
0.0021542438
-0.0010680209
0.0021124181
-0.001407884
0.0020501939
-0.0017341179
0.0019681822
-0.0020435716
0.0018671868
-0.0023332604
0.0017481966
-0.002600395
0.0016123742
-0.0028424083
0.0014610438
-0.0030569797
0.0012956773
-0.0032420563
0.001117879
-0.0033958722
0.00092936963
-0.0035169641
0.0007319685
-0.0036041836
0.00052757642
-0.0036567077
0.00031815728
-0.003674045
0.00010571972
-0.0036560398
-0.00010770132
-0.0036028732
-0.00032006329
-0.0035150611
-0.00052933412
-0.0033934492
-0.00073351078
-0.0032392059
-0.00093063752
-0.0030538108
-0.0011188239
-0.0028390425
-0.0012962627
-0.0025969612
-0.001461247
-0.0023298903
-0.0016121871
-0.0020403948
-0.0017476259
-0.0017312565
-0.0018662542
-0.0014054482
-0.0019669232
-0.0010661045
-0.0020486569
-0.00071649208
-0.0021106623
-0.00035997762
-0.0021523369
-0.0021732758
0.00038950927
-0.0025627796
0.00077526075
-0.0025380872
0.0011535437
-0.0024889434
0.0015207155
-0.0024158261
0.001873242
-0.0023194465
0.0022077323
-0.0022007408
0.0025209711
-0.0020608606
0.0028099497
-0.0019011614
0.003071895
-0.0017231878
0.003304295
-0.001528658
0.0035049221
-0.0013194463
0.003671854
-0.0010975648
0.0038034907
-0.00086514278
0.0038985686
-0.00062440737
0.0039561719
-0.00037766202
0.0039757407
-0.00012726563
0.0039570762
0.00012438869
0.0039003427
0.00037489522
0.0038060668
0.0006218567
0.0036751336
0.00086290607
0.0035087796
0.001095728
0.0033085825
0.0013180804
0.003076448
0.0015278159
0.0028145932
0.0017229026
0.0025255263
0.0019014449
0.0022120238
0.0020617026
0.0018771042
0.0022021095
0.0015239992
0.0023212898
0.001156122
0.0024180733
0.00077703376
0.0024915079
0.00039040833
0.0025408703
-4.744076e-09
0.0025656736
-0.00039041774
0.0025656732
-0.00077704296
0.0025408691
-0.0011561308
0.002491506
-0.0015240076
0.0024180707
-0.001877112
0.0023212866
-0.002212031
0.0022021058
-0.0025255328
0.0020616985
-0.002814599
0.0019014404
-0.0030764531
0.0017228979
-0.0033085868
0.001527811
-0.0035087832
0.0013180754
-0.0036751366
0.001095723
-0.0038060691
0.00086290103
-0.0039003443
0.00062185165
-0.0039570772
0.00037489015
-0.0039757411
0.00012438358
-0.0039561716
-0.00012727079
-0.0038985676
-0.00037766726
-0.003803489
-0.0006244127
-0.0036718516
-0.0008651482
-0.0035049189
-0.0010975703
-0.0033042909
-0.0013194519
-0.0030718902
-0.0015286635
-0.002809944
-0.0017231932
-0.0025209644
-0.0019011666
-0.0022077249
-0.0020608655
-0.0018732338
-0.0022007452
-0.0015207066
-0.0023194504
-0.0011535343
-0.0024158293
-0.00077525085
-0.0024889457
-0.00038949911
-0.0025380887
-0.0025627801
0.00042591446
-0.0029886884
0.00084771933
-0.0029598921
0.0012613566
-0.0029025807
0.001662843
-0.0028173126
0.0020483145
-0.0027049179
0.0024140637
-0.00256649
0.0027565763
-0.0024033732
0.0030725642
-0.0022171494
0.0033589974
-0.0020096209
0.0036131315
-0.0017827921
0.0038325337
-0.0015388486
0.0040151044
-0.0012801355
0.0041590959
-0.0010091342
0.0042631274
-0.0007284389
0.0043261975
-0.00044073206
0.0043476921
-0.00014876032
0.0043273909
0.00014468993
0.0042654687
0.00043681738
0.0041624956
0.0007248298
0.0040194326
0.0010059691
0.0038376247
0.0012775359
0.0036187902
0.001536915
0.0033650066
0.0017815994
0.0030786931
0.0020092161
0.002762589
0.002217549
0.0024197287
0.002404563
0.0020534132
0.0025684251
0.0016671785
0.0027075245
0.0012647613
0.0028204906
0.0008500614
0.0029062078
0.00042710323
0.0029638284
-5.1370303e-09
0.0029927819
-0.00042711342
0.0029927815
-0.00085007134
0.002963827
-0.0012647708
0.0029062055
-0.0016671875
0.0028204874
-0.0020534215
0.0027075206
-0.0024197363
0.0025684206
-0.0027625959
0.002404558
-0.0030786992
0.0022175437
-0.0033650119
0.0020092105
-0.0036187946
0.0017815938
-0.0038376284
0.0015369092
-0.0040194356
0.0012775302
-0.0041624979
0.0010059633
-0.0042654704
0.0007248241
-0.0043273919
0.00043681168
-0.0043476925
0.0001446842
-0.0043261972
-0.00014876612
-0.0042631265
-0.00044073796
-0.0041590943
-0.00072844493
-0.0040151021
-0.0010091404
-0.0038325306
-0.0012801418
-0.0036131274
-0.001538855
-0.0033589924
-0.0017827985
-0.0030725583
-0.0020096273
-0.0027565693
-0.0022171556
-0.0024140558
-0.0024033791
-0.0020483057
-0.0025664953
-0.0016628334
-0.0027049226
-0.0012613464
-0.0028173164
-0.00084770855
-0.0029025835
-0.00042590338
-0.0029598938
-0.002988689
0.00047047626
-0.0034591585
0.00093641176
-0.0034258276
0.001393323
-0.0033594918
0.0018368091
-0.0032607987
0.0022626018
-0.0031307106
0.0026666065
-0.0029704947
0.0030449424
-0.0027817091
0.0033939796
-0.0025661866
0.0037103737
-0.002326015
0.0039910968
-0.0020635151
0.0042334649
-0.0017812167
0.0044351622
-0.0014818328
0.0045942611
-0.0011682331
0.0047092384
-0.0008434162
0.0047789882
-0.00051048187
0.0048028312
-0.00017260329
0.0047805205
0.0001670006
0.0047122445
0.00050509338
0.0045986262
0.00083844809
0.0044407195
0.0011638758
0.0042400018
0.0014782537
0.0039983629
0.0017785538
0.0037180904
0.002061872
0.0034018504
0.0023254561
0.0030526645
0.0025667349
0.0026738824
0.0027833451
0.0022691508
0.0029731566
0.0018423783
0.003134297
0.001397697
0.0032651719
0.00093942139
0.0033644834
0.00047200486
0.003431245
-5.6118836e-09
0.0034647924
-0.00047201599
0.0034647918
-0.00093943222
0.0034312432
-0.0013977074
0.0033644806
-0.0018423881
0.0032651681
-0.0022691598
0.0031342924
-0.0026738905
0.0029731513
-0.0030526717
0.0027833392
-0.0034018567
0.0025667287
-0.0037180958
0.0023254496
-0.0039983674
0.0020618654
-0.0042400055
0.0017785473
-0.0044407225
0.0014782472
-0.0045986285
0.0011638694
-0.0047122462
0.00083844175
-0.0047805216
0.00050508708
-0.0048028317
0.00016699428
-0.0047789881
-0.00017260968
-0.0047092376
-0.00051048841
-0.0045942596
-0.00084342293
-0.00443516
-0.0011682401
-0.0042334618
-0.00148184
-0.0039910927
-0.001781224
-0.0037103686
-0.0020635226
-0.0033939734
-0.0023260225
-0.0030449351
-0.0025661939
-0.0026665981
-0.002781716
-0.0022625923
-0.0029705011
-0.0018367987
-0.0031307162
-0.0013933117
-0.0032608034
-0.00093639992
-0.0033594953
-0.00047046404
-0.0034258297
-0.0034591593
0.00052465946
-0.0039838111
0.0010442531
-0.0039454212
0.0015537791
-0.0038690179
0.0020483287
-0.0037553483
0.002523141
-0.0036055229
0.0029736502
-0.0034210039
0.0033955298
-0.0032035887
0.0037847343
-0.0029553911
0.0041375374
-0.0026788181
0.0044505666
-0.0023765443
0.0047208336
-0.0020514837
0.0049457608
-0.00170676
0.0051232028
-0.0013456751
0.0052514642
-0.00097167764
0.0053293135
-0.00058833121
0.0053559928
-0.00019928255
0.0053312241
0.00019176929
0.0052552125
0.00058110502
0.0051286457
0.00096501483
0.0049526906
0.0013398309
0.0047289854
0.0017019589
0.0044596283
0.002047911
0.0041471616
0.0023743386
0.0037945514
0.0026780663
0.0034051622
0.0029561242
0.0029827266
0.0032057806
0.0025313113
0.003424572
0.0020552771
0.0036103311
0.001559237
0.003761212
0.0010480091
0.0038757114
0.00052656797
0.0039526861
-6.1846849e-09
0.0039913666
-0.00052658022
0.0039913659
-0.001048021
0.003952684
-0.0015592483
0.003875708
-0.0020552877
0.0037612075
-0.0025313209
0.0036103256
-0.0029827353
0.0034245656
-0.0034051697
0.0032057737
-0.003794558
0.0029561169
-0.0041471671
0.0026780588
-0.0044596328
0.0023743311
-0.0047289891
0.0020479035
-0.0049526935
0.0017019516
-0.005128648
0.0013398238
-0.0052552141
0.00096500789
-0.0053312252
0.00058109816
-0.0053559933
0.00019176245
-0.0053293135
-0.00019928948
-0.0052514636
-0.00058833833
-0.0051232015
-0.00097168504
-0.0049457588
-0.0013456828
-0.0047208307
-0.0017067681
-0.0044505626
-0.0020514921
-0.0041375323
-0.0023765529
-0.003784728
-0.0026788268
-0.0033955222
-0.0029553998
-0.0029736412
-0.003203597
-0.0025231307
-0.0034210116
-0.0020483173
-0.0036055297
-0.0015537667
-0.0037553539
-0.00104424
-0.0038690221
-0.00052464586
-0.0039454238
-0.003983812
0.00059008636
-0.0045738897
0.0011744717
-0.0045298066
0.0017475274
-0.0044420736
0.00230373
-0.0043115508
0.0028377233
-0.0041395163
0.0033443719
-0.0039276524
0.0038188105
-0.0036780273
0.0042564915
-0.0033930722
0.0046532279
-0.0030755545
0.0050052317
-0.0027285481
0.0053091481
-0.0023554002
0.0055620845
-0.0019596964
0.0057616343
-0.0015452248
0.0059058958
-0.0011159392
0.0059934875
-0.00067592291
0.006023558
-0.00022935304
0.0059957932
0.00021953408
0.0059104194
0.00066647884
0.0057682033
0.0011072309
0.0055704486
0.0015375856
0.0053189878
0.0019534197
0.0050161706
0.0023507281
0.004664847
0.0027256623
0.0042683447
0.0030745686
0.0038304417
0.0033940272
0.0033553329
0.0036808894
0.0028475909
0.0039323139
0.0023121226
0.0041457994
0.0017541203
0.0043192144
0.0011790093
0.0044508224
0.00059239263
0.0045393027
-6.8762247e-09
0.0045837661
-0.00059240623
0.0045837652
-0.0011790224
0.0045393002
-0.0017541327
0.0044508183
-0.0023121342
0.0043192089
-0.0028476014
0.0041457927
-0.0033553421
0.0039323064
-0.0038304497
0.0036808813
-0.0042683514
0.0033940187
-0.0046648525
0.00307456
-0.0050161751
0.0027256537
-0.0053189914
0.0023507198
-0.0055704514
0.0019534116
-0.0057682054
0.0015375779
-0.0059104209
0.0011072234
-0.0059957943
0.00066647151
-0.0060235586
0.0002195268
-0.0059934877
-0.00022936042
-0.0059058955
-0.00067593054
-0.0057616333
-0.0011159472
-0.0055620828
-0.0015452333
-0.0053091455
-0.0019597054
-0.0050052279
-0.0023554097
-0.0046532229
-0.002728558
-0.004256485
-0.0030755647
-0.0038188025
-0.0033930824
-0.0033443623
-0.0036780372
-0.0028377122
-0.0039276616
-0.0023037174
-0.0041395245
-0.0017475137
-0.0043115576
-0.001174457
-0.0044420787
-0.00059007108
-0.0045298097
-0.0045738908
0.00066846387
-0.0052423448
0.0013304642
-0.0051918069
0.0019796201
-0.0050912295
0.0026096702
-0.0049416009
0.0032145443
-0.0047443903
0.0037884231
-0.0045015312
0.0043257957
-0.0042153999
0.0048215126
-0.0038887891
0.005270835
-0.0035248769
0.0056694779
-0.003127191
0.0060136486
-0.0026995709
0.0063000789
-0.0022461266
0.0065260509
-0.0017711968
0.0066894185
-0.0012793068
0.0067886226
-0.00077512701
0.0068227022
-0.00026343266
0.006791302
0.00025093426
0.0066946756
0.00076310533
0.0065336856
0.0012682208
0.0063098006
0.0017614706
0.0060250868
0.0022381335
0.0056821956
0.0026936193
0.0052843453
0.0031235125
0.0048352971
0.0035236168
0.004339324
0.0038900003
0.0038011736
0.0042190398
0.0032260242
0.0045074632
0.0026194352
0.0047523884
0.0019872917
0.0049513579
0.0013357446
0.0051023694
0.00067114802
0.0052038993
-7.7137223e-09
0.0052549218
-0.00067116326
0.0052549208
-0.0013357593
0.0052038963
-0.0019873055
0.0051023644
-0.0026194479
0.0049513513
-0.0032260356
0.0047523804
-0.0038011834
0.0045074542
-0.0043393323
0.0042190302
-0.004835304
0.0038899903
-0.0052843509
0.0035236068
-0.0056821999
0.0031235028
-0.0060250901
0.00269361
-0.0063098031
0.0022381246
-0.0065336875
0.0017614622
-0.006694677
0.0012682129
-0.0067913031
0.00076309764
-0.006822703
0.00025092667
-0.006788623
-0.00026344035
-0.0066894185
-0.00077513502
-0.0065260504
-0.0012793154
-0.0063000777
-0.001771206
-0.0060136465
-0.0022461366
-0.0056694745
-0.0026995816
-0.0052708302
-0.0031272024
-0.0048215061
-0.0035248887
-0.0043257873
-0.0038888011
-0.0037884128
-0.0042154117
-0.0032145321
-0.0045015423
-0.0026096563
-0.0047444003
-0.0019796047
-0.0049416092
-0.0013304477
-0.0050912358
-0.00066844655
-0.0051918108
-0.0052423461
0.00076145556
-0.0060037903
0.001515541
-0.0059458923
0.0022549806
-0.0058306692
0.0029726363
-0.0056592566
0.0036615885
-0.0054333426
0.0043152058
-0.0051551485
0.0049272099
-0.004827404
0.005491737
-0.0044533162
0.0060033933
-0.0040365332
0.0064573051
-0.0035811028
0.0068491612
-0.003091427
0.0071752496
-0.002572215
0.007432486
-0.0020284333
0.0076184369
-0.0014652576
0.0077313355
-0.00088802567
0.0077700942
-0.00030219137
0.0077343117
0.00028671682
0.0076242764
0.00087314064
0.0074409675
0.0014515297
0.007186051
0.0020163871
0.0068618719
0.0025623126
0.0064714404
0.0030840508
0.006018413
0.00357654
0.0055070648
0.004034965
0.0049422561
0.004454809
0.0043293896
0.0048319063
0.0036743611
0.0051624917
0.0029835023
0.0054432472
0.002263518
0.0056713422
0.0015214176
0.0058444698
0.0007644427
0.0059608743
-8.7331163e-09
0.0060193732
-0.00076445993
0.006019372
-0.0015214342
0.0059608705
-0.0022635335
0.0058444637
-0.0029835163
0.0056713342
-0.0036743735
0.0054432375
-0.0043294002
0.0051624809
-0.0049422648
0.0048318948
-0.0055070718
0.0044547973
-0.0060184183
0.0040349534
-0.0064714444
0.0035765289
-0.0068618748
0.0030840403
-0.0071860531
0.0025623029
-0.007440969
0.0020163781
-0.0076242775
0.0014515214
-0.0077343126
0.00087313275
-0.0077700951
0.00028670912
-0.0077313363
-0.00030219917
-0.0076184374
-0.00088803389
-0.0074324862
-0.0014652666
-0.0071752491
-0.0020284431
-0.0068491598
-0.0025722259
-0.0064573023
-0.0030914391
-0.0060033889
-0.0035811158
-0.0054917306
-0.0040365471
-0.0049272013
-0.0044533304
-0.0043151948
-0.0048274181
-0.0036615752
-0.0051551619
-0.0029726208
-0.0054333547
-0.0022549632
-0.0056592668
-0.0015155221
-0.0058306769
-0.00076143573
-0.0059458972
-0.006003792
0.00087048177
-0.0068742604
0.001732528
-0.0068079385
0.002577812
-0.0066759532
0.0033981652
-0.0064796097
0.0041856706
-0.0062208481
0.0049327428
-0.0059022206
0.0056322025
-0.0055268637
0.0062773475
-0.0050984612
0.0068620163
-0.004621202
0.0073806447
-0.0040997312
0.0078283155
-0.0035390978
0.0082007981
-0.0029446976
0.0084945817
-0.0023222168
0.0087068988
-0.0016775748
0.0088357437
-0.0010168706
0.0088798839
-0.00034633149
0.0088388679
0.00032773273
0.0087130294
0.00099897918
0.0085034872
0.001661072
0.0082121421
0.0023077322
0.0078416683
0.0029327864
0.0073954991
0.00353022
0.0068778055
0.0040942336
0.0062934665
0.004619304
0.0056480307
0.0051002448
0.0049476684
0.0055322686
0.0041991147
0.0059110454
0.0034096047
0.0062327571
0.0025868011
0.0064941458
0.0017387157
0.0066925552
0.00087362633
0.0068259636
-9.9822957e-09
0.0068930096
-0.00087364599
0.006893008
-0.0017387345
0.006825959
-0.0025868185
0.0066925477
-0.0034096203
0.006494136
-0.0041991282
0.0062327454
-0.0049476796
0.0059110324
-0.0056480397
0.0055322549
-0.0062934734
0.005100231
-0.0068778105
0.0046192905
-0.0073955025
0.0040942209
-0.0078416705
0.0035302083
-0.0082121435
0.0029327759
-0.0085034881
0.0023077227
-0.0087130301
0.0016610635
-0.0088388687
0.00099897135
-0.0088798848
0.00032772521
-0.0088357449
-0.00034633911
-0.0087069
-0.0010168787
-0.0084945827
-0.0016775839
-0.0082007987
-0.0023222271
-0.0078283151
-0.0029447095
-0.0073806429
-0.0035391112
-0.0068620126
-0.0040997462
-0.0062773415
-0.0046212181
-0.0056321938
-0.0050984781
-0.0049327312
-0.0055268808
-0.004185656
-0.005902237
-0.0033981478
-0.006220863
-0.0025777922
-0.0064796224
-0.0017325062
-0.0066759628
-0.00087045884
-0.0068079446
-0.0068742625
0.00099643183
-0.0078706786
0.0019831946
-0.0077947013
0.0029507454
-0.007643504
0.0038897229
-0.0074185872
0.0047910556
-0.0071221808
0.0056460539
-0.0067572189
0.0064464963
-0.0063273061
0.0071847107
-0.0058366756
0.0078536477
-0.005290139
0.0084469463
-0.0046930298
0.0089589893
-0.0040511409
0.0093849497
-0.003370658
0.0097208261
-0.0026580932
0.0099634697
-0.0019202183
0.010110602
-0.0011640032
0.010160829
-0.00039655823
0.010113646
0.000374916
0.0099694427
0.0011431823
0.009729505
0.0019010097
0.0093960091
0.0026412281
0.0089720134
0.003356782
0.0084614432
0.0040407902
0.0078690664
0.0046866104
0.0072004611
0.0052879093
0.0064619716
0.0058387342
0.0056606544
0.0063335859
0.0048042125
0.0067674873
0.0039009217
0.0071360479
0.0029595471
0.0074355205
0.0019892533
0.007662849
0.00099950914
0.0078157078
-1.1525794e-08
0.0078925302
-0.00099953181
0.0078925283
-0.0019892748
0.007815702
-0.0029595669
0.0076628398
-0.0039009392
0.0074355083
-0.0048042273
0.0071360335
-0.0056606664
0.0067674714
-0.0064619808
0.0063335694
-0.0072004677
0.0058387178
-0.0078690707
0.0052878935
-0.0084614457
0.0046865959
-0.0089720146
0.0040407772
-0.0093960094
0.0033567707
-0.009729505
0.0026412183
-0.0099694428
0.0019010012
-0.010113646
0.0011431748
-0.01016083
0.00037490903
-0.010110604
-0.00039656528
-0.0099634717
-0.0011640109
-0.0097208283
-0.0019202273
-0.0093849517
-0.0026581038
-0.0089589904
-0.0033706707
-0.0084469458
-0.0040511558
-0.0078536451
-0.0046930469
-0.0071847053
-0.0052901579
-0.0064464877
-0.0058366958
-0.0056460416
-0.0063273268
-0.0047910396
-0.0067572391
-0.0038897032
-0.0071221993
-0.0029507227
-0.007418603
-0.0019831694
-0.0076435161
-0.00099640504
-0.0077947089
-0.0078706812
0.0011392772
-0.0090099396
0.002267484
-0.0089229081
0.003373696
-0.008749716
0.0044471971
-0.0084920883
0.0054776045
-0.0081525882
0.0064549742
-0.0077345886
0.0073699007
-0.0072422326
0.0082136101
-0.006680385
0.0089780452
-0.006054574
0.00965594
-0.0053709247
0.010240884
-0.004636085
0.010727375
-0.0038571486
0.011110857
-0.0030415751
0.011387751
-0.0021971132
0.011555477
-0.0013317287
0.011612459
-0.00045353989
0.011558138
0.00042923676
0.011392975
0.0013083451
0.01111845
0.0021755346
0.010737058
0.0030226203
0.010252298
0.0038415416
0.0096686589
0.0046244296
0.0089915889
0.0053636804
0.0082274617
0.0060520364
0.0073835256
0.0066826703
0.0064678417
0.0072492699
0.0054892092
0.0077461197
0.0044570807
0.0081681764
0.0033814666
0.0085111346
0.0022728325
0.0087714831
0.0011419907
0.0089465496
-1.3451685e-08
0.0090345343
-0.0011420171
0.0090345319
-0.0022728574
0.0089465424
-0.0033814892
0.0087714716
-0.0044571004
0.0085111195
-0.0054892256
0.0081681586
-0.0064678544
0.0077461003
-0.0073835349
0.0072492498
-0.0082274677
0.0066826506
-0.0089915921
0.0060520179
-0.00966866
0.0053636637
-0.010252298
0.0046244151
-0.010737057
0.0038415295
-0.011118449
0.0030226104
-0.011392974
0.0021755266
-0.011558138
0.0013083385
-0.01161246
0.00042923087
-0.011555479
-0.00045354581
-0.011387755
-0.0013317354
-0.01111086