/*--------------------------------*- C++ -*----------------------------------*\
| =========                 |                                                 |
| \\      /  F ield         | OpenFOAM: The Open Source CFD Toolbox           |
|  \\    /   O peration     | Version:  2306                                  |
|   \\  /    A nd           | Website:  www.openfoam.com                      |
|    \\/     M anipulation  |                                                 |
\*---------------------------------------------------------------------------*/
FoamFile
{
    version     2.0;
    format      ascii;
    arch        "LSB;label=32;scalar=64";
    class       surfaceScalarField;
    location    "0.02";
    object      phi_0;
}
// * * * * * * * * * * * * * * * * * * * * * * * * * * * * * * * * * * * * * //

dimensions      [0 3 -1 0 0 0 0];

oriented        oriented;

internalField   nonuniform List<scalar> 
12640
(
2.3384308e-08
2.0110247e-08
2.4049565e-08
1.9739652e-08
2.4702829e-08
1.933668e-08
2.534326e-08
1.8903772e-08
2.5970374e-08
1.8439984e-08
2.6582492e-08
1.7945271e-08
2.7178184e-08
1.7420521e-08
2.7756457e-08
1.6866473e-08
2.8317103e-08
1.6284059e-08
2.8858581e-08
1.5672712e-08
2.9379493e-08
1.5033187e-08
2.9880094e-08
1.4367011e-08
3.0359597e-08
1.3674418e-08
3.0816865e-08
1.2956546e-08
3.1250904e-08
1.2213323e-08
3.1660739e-08
1.1446041e-08
3.2045542e-08
1.0655916e-08
3.2404075e-08
9.8431907e-09
3.2736524e-08
9.0090416e-09
3.3042213e-08
8.1536134e-09
3.3321315e-08
7.2792048e-09
3.3572623e-08
6.3856345e-09
3.3795178e-08
5.4746123e-09
3.3990405e-08
4.5465612e-09
3.415696e-08
3.6030637e-09
3.4293723e-08
2.6445673e-09
3.4399768e-08
1.6726173e-09
3.4476368e-08
6.8731047e-10
3.452253e-08
-3.0938571e-10
3.4537849e-08
-1.3168757e-09
3.4521578e-08
-2.3332448e-09
3.4475011e-08
-3.3587649e-09
3.4397551e-08
-4.391661e-09
3.4288937e-08
-5.430781e-09
3.414897e-08
-6.4750266e-09
3.3977726e-08
-7.5233679e-09
3.3775535e-08
-8.5750362e-09
3.3542251e-08
-9.6287532e-09
3.3277091e-08
-1.0683376e-08
3.2980456e-08
-1.1738059e-08
3.265336e-08
-1.2791362e-08
3.2296307e-08
-1.384317e-08
3.1908293e-08
-1.4890865e-08
3.1489754e-08
-1.5934462e-08
3.1041116e-08
-1.6973085e-08
3.0563091e-08
-1.8004994e-08
3.0055575e-08
-1.9029516e-08
2.9518712e-08
-2.0046061e-08
2.8952013e-08
-2.1052486e-08
2.835705e-08
-2.2049146e-08
2.7734806e-08
-2.3034565e-08
2.7084535e-08
-2.4007604e-08
2.6407368e-08
-2.496729e-08
2.5703069e-08
-2.5912498e-08
2.49724e-08
-2.6842651e-08
2.4216305e-08
-2.7757423e-08
2.343488e-08
-2.865492e-08
2.2629105e-08
-2.9534777e-08
2.179886e-08
-3.0395971e-08
2.0945309e-08
-3.1237083e-08
2.006915e-08
-3.2058466e-08
1.9170706e-08
-3.2858971e-08
1.8250264e-08
-3.3637372e-08
1.7308227e-08
-3.4392397e-08
1.6346416e-08
-3.5124771e-08
1.5365458e-08
-3.5832526e-08
1.4366022e-08
-3.6515673e-08
1.3348266e-08
-3.7172785e-08
1.2312592e-08
-3.7803417e-08
1.1260289e-08
-3.840742e-08
1.0191536e-08
-3.8983989e-08
9.1081185e-09
-3.9531829e-08
8.0106407e-09
-4.0051003e-08
6.9001569e-09
-4.0540952e-08
5.7764367e-09
-4.1000148e-08
4.6410986e-09
-4.1429155e-08
3.49497e-09
-4.1826769e-08
2.3389382e-09
-4.2192961e-08
1.1732956e-09
-4.2527623e-08
-4.2831643e-08
2.2767789e-08
1.9458482e-08
2.3409285e-08
1.9097986e-08
2.4039754e-08
1.870644e-08
2.4657513e-08
1.8285888e-08
2.5262139e-08
1.7835541e-08
2.5852419e-08
1.7354997e-08
2.6427157e-08
1.6845528e-08
2.6985287e-08
1.6308225e-08
2.7526395e-08
1.5743049e-08
2.8048853e-08
1.5149909e-08
2.8552405e-08
1.4529837e-08
2.9035765e-08
1.3883519e-08
2.9498265e-08
1.3211936e-08
2.9939399e-08
1.2515256e-08
3.035836e-08
1.1794324e-08
3.0754513e-08
1.105008e-08
3.1126592e-08
1.0283809e-08
3.1473712e-08
9.4960777e-09
3.1795632e-08
8.6873891e-09
3.2091291e-08
7.8577803e-09
3.2360805e-08
7.0094746e-09
3.2604002e-08
6.1427e-09
3.2819591e-08
5.2588861e-09
3.3007646e-08
4.3583177e-09
3.3168546e-08
3.4423474e-09
3.3300479e-08
2.512271e-09
3.3404184e-08
1.5689809e-09
3.347837e-08
6.1321802e-10
3.3522705e-08
-3.5366894e-10
3.3537238e-08
-1.3315152e-09
3.3522412e-08
-2.3182199e-09
3.3477092e-08
-3.3135443e-09
3.3402046e-08
-4.3163493e-09
3.3296471e-08
-5.325597e-09
3.3161131e-08
-6.3394842e-09
3.2995297e-08
-7.3576706e-09
3.2799446e-08
-8.3788252e-09
3.2573296e-08
-9.4027576e-09
3.2317186e-08
-1.0426907e-08
3.2030045e-08
-1.1450991e-08
3.1713008e-08
-1.247423e-08
3.1365842e-08
-1.3495937e-08
3.0989648e-08
-1.4514536e-08
3.0584242e-08
-1.5529137e-08
3.0149328e-08
-1.6538071e-08
2.968542e-08
-1.7540898e-08
2.9192652e-08
-1.8536802e-08
2.8671542e-08
-1.9525022e-08
2.8122757e-08
-2.0503623e-08
2.7546097e-08
-2.1472624e-08
2.6941534e-08
-2.2430151e-08
2.63104e-08
-2.3376255e-08
2.5652597e-08
-2.4309211e-08
2.4969619e-08
-2.5229424e-08
2.4261066e-08
-2.6134069e-08
2.3526551e-08
-2.7023049e-08
2.2768041e-08
-2.7896099e-08
2.1984879e-08
-2.8751652e-08
2.1178928e-08
-2.9589578e-08
2.035015e-08
-3.0408592e-08
1.9499318e-08
-3.1207742e-08
1.8626695e-08
-3.1986324e-08
1.7732697e-08
-3.2743047e-08
1.6818036e-08
-3.347786e-08
1.5883451e-08
-3.4190306e-08
1.4930157e-08
-3.4879451e-08
1.3958808e-08
-3.5544273e-08
1.2969885e-08
-3.6183766e-08
1.1964323e-08
-3.6797887e-08
1.0942059e-08
-3.7385404e-08
9.9037475e-09
-3.7945373e-08
8.8505402e-09
-3.8478611e-08
7.7840772e-09
-3.8984572e-08
6.7050487e-09
-3.9461974e-08
5.6137242e-09
-3.9908987e-08
4.5101887e-09
-4.0325715e-08
3.3966616e-09
-4.0713062e-08
2.273311e-09
-4.1069536e-08
1.140711e-09
-4.1395226e-08
-4.1690937e-08
2.2169547e-08
1.8829942e-08
2.2788412e-08
1.8479127e-08
2.3396043e-08
1.80988e-08
2.3991894e-08
1.7690108e-08
2.4575185e-08
1.7252143e-08
2.5144581e-08
1.6785589e-08
2.5698664e-08
1.6291426e-08
2.6237112e-08
1.5769711e-08
2.6759476e-08
1.5220621e-08
2.7264509e-08
1.4644924e-08
2.7750852e-08
1.4043488e-08
2.8217586e-08
1.341688e-08
2.8664142e-08
1.276538e-08
2.9089815e-08
1.2089554e-08
2.9493602e-08
1.1390307e-08
2.9875195e-08
1.0668426e-08
3.0234053e-08
9.9249826e-09
3.0569555e-08
9.1604736e-09
3.0881633e-08
8.3751805e-09
3.1168742e-08
7.5708948e-09
3.1430465e-08
6.7478824e-09
3.1665849e-08
5.9075551e-09
3.1874778e-08
5.0498625e-09
3.2056985e-08
4.1760938e-09
3.2211638e-08
3.2878921e-09
3.2338489e-08
2.3854562e-09
3.2438001e-08
1.4695584e-09
3.2509029e-08
5.4198922e-10
3.2552262e-08
-3.9692072e-10
3.2566677e-08
-1.345842e-09
3.2552421e-08
-2.3041272e-09
3.2509209e-08
-3.2702684e-09
3.2436658e-08
-4.2437645e-09
3.2334372e-08
-5.2232681e-09
3.2202992e-08
-6.2081455e-09
3.2042304e-08
-7.1970657e-09
3.1852082e-08
-8.1888619e-09
3.1632186e-08
-9.1830994e-09
3.1383637e-08
-1.0178396e-08
3.1106088e-08
-1.1173421e-08
3.0799336e-08
-1.2167683e-08
3.046332e-08
-1.3160085e-08
3.0098423e-08
-1.4149514e-08
2.9704656e-08
-1.513528e-08
2.9282495e-08
-1.6115986e-08
2.8832301e-08
-1.7090731e-08
2.8354673e-08
-1.8058995e-08
2.7848948e-08
-1.9019538e-08
2.7316321e-08
-1.9970989e-08
2.6756757e-08
-2.0912854e-08
2.617076e-08
-2.1844222e-08
2.5558247e-08
-2.2763975e-08
2.4920476e-08
-2.3671411e-08
2.4256781e-08
-2.4565703e-08
2.3568256e-08
-2.5445688e-08
2.2856e-08
-2.631055e-08
2.2119618e-08
-2.7159558e-08
2.1359973e-08
-2.7991797e-08
2.0576912e-08
-2.8806832e-08
1.9771697e-08
-2.9603209e-08
1.8944735e-08
-3.0380481e-08
1.8096774e-08
-3.1138194e-08
1.7228126e-08
-3.1874623e-08
1.6340653e-08
-3.2590159e-08
1.5433529e-08
-3.3283195e-08
1.4507485e-08
-3.3953266e-08
1.356311e-08
-3.4599897e-08
1.2601828e-08
-3.5222071e-08
1.162362e-08
-3.5820196e-08
1.0630421e-08
-3.6392159e-08
9.6227177e-09
-3.6937663e-08
8.6009382e-09
-3.7456578e-08
7.5653172e-09
-3.794876e-08
6.5160193e-09
-3.8412595e-08
5.4548583e-09
-3.8847855e-08
4.3824343e-09
-3.9253534e-08
3.3008692e-09
-3.9631358e-08
2.2095483e-09
-3.9978305e-08
1.1103126e-09
-4.0295787e-08
-4.0580598e-08
2.1588443e-08
1.8223855e-08
2.2185215e-08
1.7882419e-08
2.2771006e-08
1.7512993e-08
2.334579e-08
1.7115464e-08
2.3908458e-08
1.6689477e-08
2.4457968e-08
1.6236216e-08
2.4992713e-08
1.5756678e-08
2.5512243e-08
1.5250172e-08
2.6016259e-08
1.4716685e-08
2.6503655e-08
1.4157639e-08
2.6972699e-08
1.3574362e-08
2.7423208e-08
1.2966331e-08
2.7854658e-08
1.2333931e-08
2.8266177e-08
1.1678124e-08
2.865662e-08
1.0999761e-08
2.9025058e-08
1.0300032e-08
2.9371701e-08
9.5783359e-09
2.9695824e-08
8.8361727e-09
2.9996497e-08
8.0746556e-09
3.0273551e-08
7.2939244e-09
3.0526103e-08
6.4952569e-09
3.0753591e-08
5.6799369e-09
3.0955789e-08
4.8477632e-09
3.1132084e-08
3.9998564e-09
3.1281952e-08
3.1377239e-09
3.1405224e-08
2.2621817e-09
3.1501009e-08
1.3737672e-09
3.1569792e-08
4.7318173e-10
3.1611218e-08
-4.3837453e-10
3.1625424e-08
-1.3597072e-09
3.1611168e-08
-2.2898421e-09
3.1568928e-08
-3.2280627e-09
3.1498718e-08
-4.1732668e-09
3.1399386e-08
-5.1241035e-09
3.1272442e-08
-6.0810921e-09
3.1116523e-08
-7.0412345e-09
3.0932267e-08
-8.004657e-09
3.0719585e-08
-8.9701939e-09
3.0478163e-08
-9.9370108e-09
3.020861e-08
-1.0903867e-08
2.9911069e-08
-1.1870102e-08
2.9585416e-08
-1.2834565e-08
2.9231733e-08
-1.3795737e-08
2.8849887e-08
-1.4753373e-08
2.8440561e-08
-1.5706628e-08
2.8004089e-08
-1.6654073e-08
2.7540483e-08
-1.7595418e-08
2.7049926e-08
-1.8528872e-08
2.6532871e-08
-1.9453929e-08
2.5989539e-08
-2.0369504e-08
2.5420728e-08
-2.1275334e-08
2.4826622e-08
-2.216983e-08
2.420722e-08
-2.3052099e-08
2.3563098e-08
-2.3921586e-08
2.2894837e-08
-2.4777334e-08
2.2202607e-08
-2.5618628e-08
2.14883e-08
-2.6444955e-08
2.0750608e-08
-2.7254226e-08
1.9990397e-08
-2.8046672e-08
1.9208316e-08
-2.8821334e-08
1.8405843e-08
-2.9577545e-08
1.7582126e-08
-3.0314836e-08
1.6739046e-08
-3.1031249e-08
1.5875933e-08
-3.1727281e-08
1.4994954e-08
-3.2402036e-08
1.4095674e-08
-3.3054243e-08
1.317872e-08
-3.3683006e-08
1.2244904e-08
-3.4288421e-08
1.1295063e-08
-3.4870205e-08
1.0329584e-08
-3.5426662e-08
9.3499715e-09
-3.5958105e-08
8.3570204e-09
-3.6463641e-08
7.3507711e-09
-3.6942442e-08
6.3311956e-09
-3.7393586e-08
5.3001615e-09
-3.781652e-08
4.2585258e-09
-3.8211643e-08
3.2067726e-09
-3.8579741e-08
2.146434e-09
-3.8918018e-08
1.0767137e-09
-3.9225864e-08
-3.9503819e-08
2.1024408e-08
1.7639229e-08
2.1599594e-08
1.7307168e-08
2.216468e-08
1.6947763e-08
2.2719278e-08
1.6560733e-08
2.3261669e-08
1.6146936e-08
2.3791431e-08
1.5706441e-08
2.4307807e-08
1.5240412e-08
2.4809661e-08
1.4748288e-08
2.5295748e-08
1.4230721e-08
2.5765224e-08
1.3688007e-08
2.6218123e-08
1.3121559e-08
2.6653275e-08
1.2531358e-08
2.7069657e-08
1.1917283e-08
2.7466991e-08
1.1280925e-08
2.7844382e-08
1.0622549e-08
2.8200757e-08
9.9434155e-09
2.853605e-08
9.2432332e-09
2.8848991e-08
8.5231223e-09
2.9139392e-08
7.7841876e-09
2.9406074e-08
7.0270049e-09
2.9649757e-08
6.2517903e-09
2.9869725e-08
5.459952e-09
3.0065002e-08
4.6524815e-09
3.0234875e-08
3.8301397e-09
3.0379478e-08
2.9933154e-09
3.0499003e-08
2.1425743e-09
3.0592444e-08
1.2802091e-09
3.0659291e-08
4.0649882e-10
3.0698848e-08
-4.780418e-10
3.0712038e-08
-1.3731485e-09
3.0698115e-08
-2.2761603e-09
3.0656955e-08
-3.187062e-09
3.0588456e-08
-4.1046817e-09
3.0492316e-08
-5.0280091e-09
3.0368846e-08
-5.9576325e-09
3.0217854e-08
-6.8902038e-09
3.0039493e-08
-7.8260174e-09
2.9833029e-08
-8.7637884e-09
2.9599446e-08
-9.703147e-09
2.933812e-08
-1.0642395e-08
2.9049117e-08
-1.1581301e-08
2.8732678e-08
-1.2517981e-08
2.8389406e-08
-1.345275e-08
2.8019675e-08
-1.4383601e-08
2.7622977e-08
-1.5309957e-08
2.7199153e-08
-1.6230442e-08
2.6749174e-08
-1.714555e-08
2.6273122e-08
-1.8053209e-08
2.5771898e-08
-1.8952784e-08
2.5244635e-08
-1.9842356e-08
2.469207e-08
-2.07229e-08
2.4114902e-08
-2.1592646e-08
2.3514084e-08
-2.2451018e-08
2.2889166e-08
-2.3296574e-08
2.2240684e-08
-2.4128822e-08
2.1568817e-08
-2.4946615e-08
2.0874131e-08
-2.5750303e-08
2.0157669e-08
-2.653809e-08
1.9420062e-08
-2.7308892e-08
1.8661403e-08
-2.806226e-08
1.7881513e-08
-2.8798097e-08
1.7081816e-08
-2.9515116e-08
1.6262583e-08
-3.0211804e-08
1.5424661e-08
-3.0889286e-08
1.4568406e-08
-3.1545895e-08
1.3694557e-08
-3.2180142e-08
1.280393e-08
-3.2792208e-08
1.1897672e-08
-3.3382142e-08
1.0975279e-08
-3.3947929e-08
1.0037584e-08
-3.4488886e-08
9.0854262e-09
-3.5005719e-08
8.119653e-09
-3.549789e-08
7.1413484e-09
-3.5964223e-08
6.1511941e-09
-3.6403441e-08
5.1505476e-09
-3.6815518e-08
4.1386553e-09
-3.7199807e-08
3.1163988e-09
-3.7557373e-08
2.0855724e-09
-3.7886707e-08
1.0458559e-09
-3.818651e-08
-3.845802e-08
2.0476591e-08
1.7075864e-08
2.1031321e-08
1.6752619e-08
2.1576232e-08
1.6402903e-08
2.2111052e-08
1.6026056e-08
2.2634449e-08
1.5623585e-08
2.3145118e-08
1.5195697e-08
2.3643173e-08
1.4742255e-08
2.4127239e-08
1.426432e-08
2.4596311e-08
1.3761427e-08
2.5049773e-08
1.323464e-08
2.5486922e-08
1.268428e-08
2.5906917e-08
1.2111303e-08
2.6309058e-08
1.1515215e-08
2.66923e-08
1.0897438e-08
2.7056292e-08
1.0258758e-08
2.7400149e-08
9.5993235e-09
2.7723885e-08
8.9195584e-09
2.8026286e-08
8.2207665e-09
2.830702e-08
7.5034655e-09
2.8565228e-08
6.7688417e-09
2.8800507e-08
6.0163081e-09
2.9013109e-08
5.2476203e-09
2.920143e-08
4.4639962e-09
2.936575e-08
3.665866e-09
2.9505562e-08
2.8534786e-09
2.9620274e-08
2.0278788e-09
2.971011e-08
1.1906453e-09
2.9774261e-08
3.4236403e-10
2.9812951e-08
-5.1676787e-10
2.9825415e-08
-1.3855138e-09
2.9811628e-08
-2.2624404e-09
2.977148e-08
-3.1470641e-09
2.9704965e-08
-4.0381082e-09
2.9611928e-08
-4.9350912e-09
2.9492275e-08
-5.8378483e-09
2.9345626e-08
-6.7435407e-09
2.9171849e-08
-7.652319e-09
2.8972282e-08
-8.5638716e-09
2.8745474e-08
-9.4762285e-09
2.8491691e-08
-1.0389132e-08
2.8211813e-08
-1.1300953e-08
2.7905074e-08
-1.2211456e-08
2.7571906e-08
-1.3119705e-08
2.7212827e-08
-1.4024566e-08
2.6827378e-08
-1.4924827e-08
2.641679e-08
-1.5819609e-08
2.5980028e-08
-1.6708804e-08
2.5518187e-08
-1.7591258e-08
2.5031516e-08
-1.8465962e-08
2.4520082e-08
-1.9330831e-08
2.398397e-08
-2.0186824e-08
2.3424076e-08
-2.1032768e-08
2.2840604e-08
-2.1867467e-08
2.2233733e-08
-2.2689905e-08
2.1603861e-08
-2.3498917e-08
2.0951791e-08
-2.4294736e-08
2.0277615e-08
-2.5076139e-08
1.9582012e-08
-2.5842354e-08
1.8865433e-08
-2.6592201e-08
1.8128505e-08
-2.7325394e-08
1.7370969e-08
-2.8041045e-08
1.6594155e-08
-2.8738283e-08
1.5798846e-08
-2.9416822e-08
1.4985363e-08
-3.0075951e-08
1.4153518e-08
-3.0713884e-08
1.3304758e-08
-3.1331319e-08
1.2439607e-08
-3.1927215e-08
1.1558469e-08
-3.2501059e-08
1.06623e-08
-3.3051799e-08
9.7517812e-09
-3.3578442e-08
8.8274783e-09
-3.4081434e-08
7.8895877e-09
-3.456037e-08
6.9394233e-09
-3.5013553e-08
5.9766798e-09
-3.544065e-08
5.0039585e-09
-3.5842318e-08
4.0204588e-09
-3.6216833e-08
3.0281138e-09
-3.6564845e-08
2.0262522e-09
-3.688527e-08
1.0166651e-09
-3.717664e-08
-3.7441365e-08
1.9943851e-08
1.6532895e-08
2.0478651e-08
1.6217886e-08
2.1004118e-08
1.5877278e-08
2.1519842e-08
1.5510368e-08
2.2024908e-08
1.511855e-08
2.2517817e-08
1.4702734e-08
2.2998207e-08
1.4262038e-08
2.3465347e-08
1.3797077e-08
2.3918179e-08
1.330865e-08
2.4355668e-08
1.279717e-08
2.4777529e-08
1.2262584e-08
2.5183076e-08
1.1705724e-08
2.5571052e-08
1.1127031e-08
2.5941131e-08
1.0527567e-08
2.6292282e-08
9.9073554e-09
2.6624478e-08
9.2671532e-09
2.6936731e-08
8.607062e-09
2.7228759e-08
7.9288057e-09
2.7499542e-08
7.2326179e-09
2.7749176e-08
6.5191101e-09
2.7976701e-08
5.7888778e-09
2.8181569e-08
5.0428111e-09
2.8363348e-08
4.28244e-09
2.8522013e-08
3.5071126e-09
2.8657121e-08
2.7181832e-09
2.8768061e-08
1.9168676e-09
2.8854305e-08
1.1043132e-09
2.8916141e-08
2.8050419e-10
2.8953232e-08
-5.5367077e-10
2.8965005e-08
-1.3973797e-09
2.895148e-08
-2.2488657e-09
2.8912088e-08
-3.1076721e-09
2.8847425e-08
-3.9734489e-09
2.8757207e-08
-4.8448882e-09
2.8640873e-08
-5.7215628e-09
2.8498617e-08
-6.6012171e-09
2.8330612e-08
-7.4843595e-09
2.8136212e-08
-8.369719e-09
2.7916172e-08
-9.2563134e-09
2.7670234e-08
-1.0143068e-08
2.7398519e-08
-1.1029202e-08
2.7101032e-08
-1.1914081e-08
2.6777912e-08
-1.279676e-08
2.64293e-08
-1.3675902e-08
2.6055351e-08
-1.4550949e-08
2.5656692e-08
-1.5420815e-08
2.5233136e-08
-1.6285405e-08
2.4784778e-08
-1.714297e-08
2.4312268e-08
-1.7993617e-08
2.3816094e-08
-1.8834625e-08
2.3296005e-08
-1.9667064e-08
2.2752388e-08
-2.0489188e-08
2.2185739e-08
-2.1300847e-08
2.1596552e-08
-2.2100783e-08
2.0985384e-08
-2.2887814e-08
2.035211e-08
-2.3661567e-08
1.9697505e-08
-2.4421319e-08
1.9022092e-08
-2.5166652e-08
1.8326174e-08
-2.589648e-08
1.7610139e-08
-2.6609455e-08
1.6875246e-08
-2.7305391e-08
1.6120529e-08
-2.798384e-08
1.5348056e-08
-2.8644249e-08
1.4557785e-08
-2.9285511e-08
1.3750051e-08
-2.9906077e-08
1.2925505e-08
-3.0506964e-08
1.2085494e-08
-3.1086739e-08
1.1229903e-08
-3.1645279e-08
1.0358744e-08
-3.2180758e-08
9.4738626e-09
-3.269355e-08
8.5757278e-09
-3.3183384e-08
7.6650547e-09
-3.3649237e-08
6.7415198e-09
-3.4090292e-08
5.8070006e-09
-3.4506302e-08
4.8615556e-09
-3.4896934e-08
3.9063846e-09
-3.5261726e-08
2.9420617e-09
-3.560025e-08
1.9684856e-09
-3.5911695e-08
9.8828629e-10
-3.6196392e-08
-3.645302e-08
1.9425397e-08
1.6009107e-08
1.9941194e-08
1.5702011e-08
2.0448686e-08
1.5369996e-08
2.0946151e-08
1.5012781e-08
2.1433087e-08
1.4631649e-08
2.1908931e-08
1.4226935e-08
2.2372424e-08
1.3798401e-08
2.2823065e-08
1.3346476e-08
2.3259965e-08
1.2871879e-08
2.3682134e-08
1.2374849e-08
2.4089022e-08
1.1855448e-08
2.4480417e-08
1.131446e-08
2.4854768e-08
1.0752726e-08
2.5211936e-08
1.017057e-08
2.5551088e-08
9.5682067e-09
2.5871935e-08
8.946271e-09
2.6173625e-08
8.3055246e-09
2.6455485e-08
7.6470953e-09
2.6716722e-08
6.9711796e-09
2.6957647e-08
6.2783657e-09
2.7177298e-08
5.5690251e-09
2.7374635e-08
4.8454729e-09
2.7550268e-08
4.1067015e-09
2.7703394e-08
3.3539417e-09
2.783381e-08
2.5878578e-09
2.7940618e-08
1.8099434e-09
2.8023857e-08
1.0210518e-09
2.8083445e-08
2.2079806e-10
2.8119292e-08
-5.8961118e-10
2.8130073e-08
-1.4084525e-09
2.811673e-08
-2.2353676e-09
2.8078362e-08
-3.0693649e-09
2.8015776e-08
-3.9105213e-09
2.7927968e-08
-4.7571721e-09
2.78146e-08
-5.6081656e-09
2.7676154e-08
-6.4629021e-09
2.7512908e-08
-7.3211466e-09
2.7324678e-08
-8.1813571e-09
2.7110804e-08
-9.0425282e-09
2.68717e-08
-9.9042065e-09
2.660842e-08
-1.0765514e-08
2.631997e-08
-1.1625645e-08
2.6006508e-08
-1.2483177e-08
2.5667973e-08
-1.3337303e-08
2.5305144e-08
-1.4188107e-08
2.4918541e-08
-1.5034245e-08
2.4507509e-08
-1.5874485e-08
2.4072778e-08
-1.670818e-08
2.3614011e-08
-1.753452e-08
2.3131931e-08
-1.835279e-08
2.262699e-08
-1.9162299e-08
2.2099375e-08
-1.9961501e-08
2.1549449e-08
-2.0750968e-08
2.0977305e-08
-2.1528678e-08
2.038354e-08
-2.2294114e-08
1.9769059e-08
-2.3046782e-08
1.9133583e-08
-2.3785637e-08
1.8477365e-08
-2.4510788e-08
1.7802026e-08
-2.522076e-08
1.7106775e-08
-2.5914312e-08
1.6392777e-08
-2.6591597e-08
1.5660113e-08
-2.7251009e-08
1.4909599e-08
-2.7893743e-08
1.4141967e-08
-2.8517748e-08
1.335761e-08
-2.9121932e-08
1.2557233e-08
-2.9706652e-08
1.1741065e-08
-3.0270809e-08
1.0909614e-08
-3.0813584e-08
1.0063498e-08
-3.1334754e-08
9.2038857e-09
-3.18342e-08
8.3317716e-09
-3.2311077e-08
7.4467225e-09
-3.2764205e-08
6.5495631e-09
-3.319322e-08
5.6415303e-09
-3.3598365e-08
4.7233289e-09
-3.3978428e-08
3.7952302e-09
-3.4333647e-08
2.85786e-09
-3.4663049e-08
1.912266e-09
-3.4966043e-08
9.5894622e-10
-3.5243263e-08
-3.5494012e-08
1.8921921e-08
1.5503691e-08
1.9419919e-08
1.520395e-08
1.9909381e-08
1.4880484e-08
2.0389465e-08
1.4532674e-08
2.0859077e-08
1.4161975e-08
2.1317806e-08
1.3768213e-08
2.1764845e-08
1.3351328e-08
2.219951e-08
1.2911846e-08
2.2620969e-08
1.2450493e-08
2.3028195e-08
1.1967529e-08
2.3421105e-08
1.1462632e-08
2.37986e-08
1.093693e-08
2.4160056e-08
1.0391274e-08
2.4504683e-08
9.8257539e-09
2.4831973e-08
9.2405415e-09
2.5141838e-08
8.6364696e-09
2.5432978e-08
8.0143815e-09
2.5704492e-08
7.3752413e-09
2.5957292e-08
6.7187143e-09
2.6189658e-08
6.0458761e-09
2.6401262e-08
5.3575794e-09
2.6592081e-08
4.654648e-09
2.6761663e-08
3.9370221e-09
2.6909784e-08
3.2057922e-09
2.7035164e-08
2.4622608e-09
2.7137995e-08
1.7072466e-09
2.7218184e-08
9.4087087e-10
2.7275455e-08
1.6349198e-10
2.7309411e-08
-6.2337624e-10
2.7319735e-08
-1.4186426e-09
2.7306325e-08
-2.2218286e-09
2.7268949e-08
-3.0320408e-09
2.720777e-08
-3.849308e-09
2.7121881e-08
-4.6715062e-09
2.7011982e-08
-5.4980443e-09
2.6877692e-08
-6.3285713e-09
2.6719251e-08
-7.162623e-09
2.6536165e-08
-7.9981244e-09
2.6328712e-08
-8.8350415e-09
2.6097066e-08
-9.6725831e-09
2.5841186e-08
-1.0509599e-08
2.5561164e-08
-1.134539e-08
2.5256607e-08
-1.2178886e-08
2.4928512e-08
-1.3009381e-08
2.4576287e-08
-1.3835993e-08
2.4201009e-08
-1.4658719e-08
2.3802073e-08
-1.5475408e-08
2.3379925e-08
-1.62858e-08
2.2934433e-08
-1.7089375e-08
2.2466793e-08
-1.7885269e-08
2.1976573e-08
-1.8672007e-08
2.1464584e-08
-1.9449429e-08
2.0930575e-08
-2.0217057e-08
2.0375452e-08
-2.097339e-08
1.9799455e-08
-2.1718113e-08
1.9202243e-08
-2.2449781e-08
1.8585361e-08
-2.3168855e-08
1.7948378e-08
-2.3873779e-08
1.7292318e-08
-2.456486e-08
1.6617386e-08
-2.52392e-08
1.5923719e-08
-2.5897907e-08
1.5212385e-08
-2.6539942e-08
1.4483608e-08
-2.7165143e-08
1.3738282e-08
-2.7772121e-08
1.2976147e-08
-2.8359787e-08
1.2198682e-08
-2.8928957e-08
1.140551e-08
-2.947776e-08
1.0598012e-08
-3.0006085e-08
9.7764835e-09
-3.0513248e-08
8.9414544e-09
-3.0999272e-08
8.0938173e-09
-3.1463424e-08
7.2338634e-09
-3.1904112e-08
6.3626206e-09
-3.2322003e-08
5.4807451e-09
-3.2716232e-08
4.5885996e-09
-3.3086489e-08
3.6867495e-09
-3.3431946e-08
2.7762972e-09
-3.3752245e-08
1.8576138e-09
-3.4047241e-08
9.314517e-10
-3.4317226e-08
-3.4562637e-08
1.843314e-08
1.5016476e-08
1.8913342e-08
1.4723796e-08
1.9385074e-08
1.4408809e-08
1.9847416e-08
1.4070285e-08
2.0300678e-08
1.3708904e-08
2.0743343e-08
1.3325462e-08
2.1174611e-08
1.2920032e-08
2.1593814e-08
1.2492694e-08
2.2000343e-08
1.2043902e-08
2.2393655e-08
1.1574349e-08
2.2772727e-08
1.1083571e-08
2.3136884e-08
1.0572912e-08
2.3485496e-08
1.0042748e-08
2.3818101e-08
9.4932457e-09
2.4134414e-08
8.9245345e-09
2.4433076e-08
8.3377895e-09
2.471378e-08
7.7337418e-09
2.4976156e-08
7.1129059e-09
2.5219673e-08
6.4750789e-09
2.544415e-08
5.8214638e-09
2.564845e-08
5.1532455e-09
2.5832693e-08
4.4704234e-09
2.5996193e-08
3.7736457e-09
2.613889e-08
3.0631947e-09
2.6259582e-08
2.3414095e-09
2.6358995e-08
1.6080525e-09
2.6436441e-08
8.6326661e-10
2.6491443e-08
1.0840217e-10
2.6523753e-08
-6.5585368e-10
2.6533106e-08
-1.4279608e-09
2.651944e-08
-2.2081743e-09
2.648304e-08
-2.9955964e-09
2.642287e-08
-3.7893505e-09
2.6339577e-08
-4.5880845e-09
2.6232874e-08
-5.3915192e-09
2.6102553e-08
-6.198271e-09
2.5948367e-08
-7.0084373e-09
2.5770905e-08
-7.8204696e-09
2.5569436e-08
-8.6336435e-09
2.5344334e-08
-9.4475923e-09
2.5095798e-08
-1.0261104e-08
2.4823752e-08
-1.1073257e-08
2.452827e-08
-1.1883417e-08
2.4209872e-08
-1.2690734e-08
2.3868343e-08
-1.3494691e-08
2.3503699e-08
-1.4293916e-08
2.3116339e-08
-1.5088315e-08
2.2706407e-08
-1.5875959e-08
2.2274505e-08
-1.6657101e-08
2.1820479e-08
-1.7431191e-08
2.1344692e-08
-1.8196133e-08
2.084751e-08
-1.8952379e-08
2.0328979e-08
-1.9698708e-08
1.9790025e-08
-2.0434487e-08
1.9230467e-08
-2.1158466e-08
1.8651084e-08
-2.1870378e-08
1.8052027e-08
-2.2569624e-08
1.7433491e-08
-2.3255647e-08
1.6796269e-08
-2.3927699e-08
1.614069e-08
-2.4583761e-08
1.5467215e-08
-2.5224148e-08
1.4776663e-08
-2.5849433e-08
1.406918e-08
-2.6457466e-08
1.3344738e-08
-2.7047552e-08
1.2604605e-08
-2.7619729e-08
1.1849292e-08
-2.8173567e-08
1.107923e-08
-2.8707672e-08
1.0294541e-08
-2.9221642e-08
9.496752e-09
-2.971525e-08
8.6862241e-09
-3.0188393e-08
7.8627045e-09
-3.0639886e-08
7.0276423e-09
-3.1069127e-08
6.1812544e-09
-3.1475501e-08
5.3243973e-09
-3.1859348e-08
4.4576618e-09
-3.221983e-08
3.581687e-09
-3.2556071e-08
2.6974393e-09
-3.2867907e-08
1.805412e-09
-3.3155258e-08
9.0618012e-10
-3.34177e-08
-3.3656357e-08
1.7956753e-08
1.4546761e-08
1.8419499e-08
1.4260924e-08
1.8874234e-08
1.3953906e-08
1.9320417e-08
1.3624159e-08
1.9757542e-08
1.3271748e-08
2.0184842e-08
1.2898293e-08
2.060114e-08
1.2503712e-08
2.1005597e-08
1.2088295e-08
2.1397809e-08
1.1651742e-08
2.1777172e-08
1.1194892e-08
2.214303e-08
1.0717724e-08
2.2494392e-08
1.0221501e-08
2.2831034e-08
9.7061339e-09
2.3152146e-08
9.1719794e-09
2.3456959e-08
8.6194857e-09
2.3745021e-08
8.0496568e-09
2.4015761e-08
7.4629537e-09
2.4269148e-08
6.8594867e-09
2.4504266e-08
6.2397444e-09
2.4720469e-08
5.6050114e-09
2.4917752e-08
4.955868e-09
2.5095583e-08
4.2925913e-09
2.5253355e-08
3.6157437e-09
2.5390584e-08
2.9260158e-09
2.5507082e-08
2.2248337e-09
2.5602671e-08
1.5124442e-09
2.5677382e-08
7.888548e-10
2.5729762e-08
5.5916788e-11
2.5760399e-08
-6.8631263e-10
2.5769206e-08
-1.4365984e-09
2.5755902e-08
-2.1948765e-09
2.5720018e-08
-2.9598211e-09
2.5661158e-08
-3.7305232e-09
2.5580245e-08
-4.5070415e-09
2.5476136e-08
-5.2875628e-09
2.5349401e-08
-6.0713983e-09
2.5199789e-08
-6.8589508e-09
2.5027107e-08
-7.6479111e-09
2.4831691e-08
-8.4381638e-09
2.4613286e-08
-9.2289465e-09
2.4371677e-08
-1.0019631e-08
2.4107665e-08
-1.0809306e-08
2.3821237e-08
-1.1596678e-08
2.3511617e-08
-1.2381679e-08
2.3180163e-08
-1.316297e-08
2.2826445e-08
-1.394023e-08
2.2450272e-08
-1.4711933e-08
2.2052455e-08
-1.5478158e-08
2.1633163e-08
-1.6237961e-08
2.1192302e-08
-1.6990283e-08
2.0730306e-08
-1.7734522e-08
2.024776e-08
-1.8469837e-08
1.9744631e-08
-1.9195417e-08
1.9220875e-08
-1.9911179e-08
1.8677673e-08
-2.0615098e-08
1.8114811e-08
-2.1307677e-08
1.7533287e-08
-2.1988085e-08
1.6933014e-08
-2.2655258e-08
1.6314473e-08
-2.3308794e-08
1.5677655e-08
-2.3947169e-08
1.50239e-08
-2.4570293e-08
1.4352893e-08
-2.5178456e-08
1.36656e-08
-2.5769896e-08
1.296231e-08
-2.6344064e-08
1.2243789e-08
-2.6901324e-08
1.1510058e-08
-2.7439687e-08
1.076216e-08
-2.7959944e-08
1.0000138e-08
-2.8459854e-08
9.2252526e-09
-2.8940393e-08
8.4379195e-09
-2.9400958e-08
7.6379088e-09
-2.9840166e-08
6.8267716e-09
-3.0257812e-08
6.0044149e-09
-3.0653412e-08
5.1721309e-09
-3.1026964e-08
4.3304563e-09
-3.1377835e-08
3.4794315e-09
-3.1705192e-08
2.6204623e-09
-3.2009278e-08
1.7538642e-09
-3.2288502e-08
8.8056426e-10
-3.2544686e-08
-3.2775859e-08
1.7492492e-08
1.4093665e-08
1.7938874e-08
1.3814676e-08
1.83781e-08
1.3514893e-08
1.8808992e-08
1.3193066e-08
1.9230559e-08
1.2850214e-08
1.9642396e-08
1.2486373e-08
2.0043818e-08
1.210232e-08
2.0434179e-08
1.1697893e-08
2.0812593e-08
1.1273171e-08
2.1178758e-08
1.0828645e-08
2.1531646e-08
1.0364858e-08
2.1870589e-08
9.8825526e-09
2.2195298e-08
9.3814985e-09
2.2505156e-08
8.862303e-09
2.2799063e-08
8.3253748e-09
2.3077213e-08
7.7715845e-09
2.3338616e-08
7.2016909e-09
2.358325e-08
6.6149831e-09
2.380989e-08
6.0131731e-09
2.4018644e-08
5.3964601e-09
2.4208887e-08
4.7655991e-09
2.4380161e-08
4.1214122e-09
2.4532367e-08
3.4638079e-09
2.466421e-08
2.7939367e-09
2.47765e-08
2.1127141e-09
2.4868726e-08
1.42032e-09
2.4939938e-08
7.1754978e-10
2.4990169e-08
5.6514518e-12
2.5019543e-08
-7.1578468e-10
2.5027609e-08
-1.4447041e-09
2.5014166e-08
-2.1815083e-09
2.4978973e-08
-2.924479e-09
2.4922126e-08
-3.6735527e-09
2.4842759e-08
-4.4276204e-09
2.4741391e-08
-5.1860796e-09
2.4618154e-08
-5.948297e-09
2.4472493e-08
-6.7132253e-09
2.43048e-08
-7.4801088e-09
2.4114713e-08
-8.2482373e-09
2.390264e-08
-9.016777e-09
2.366838e-08
-9.7854468e-09
2.3411969e-08
-1.0552858e-08
2.3133751e-08
-1.1318531e-08
2.2833656e-08
-1.2081492e-08
2.2511355e-08
-1.2840721e-08
2.2167371e-08
-1.3596433e-08
2.1802682e-08
-1.4347356e-08
2.1416935e-08
-1.5092368e-08
2.1009758e-08
-1.5830711e-08
2.0581852e-08
-1.6562149e-08
2.0133267e-08
-1.7286023e-08
1.9664429e-08
-1.8001226e-08
1.9175834e-08
-1.8706742e-08
1.8667918e-08
-1.9403094e-08
1.8140754e-08
-2.0087806e-08
1.7594142e-08
-2.0761299e-08
1.7029374e-08
-2.1423286e-08
1.6446349e-08
-2.2072268e-08
1.5845308e-08
-2.2707867e-08
1.5227313e-08
-2.3328988e-08
1.4592434e-08
-2.393565e-08
1.3940748e-08
-2.4526941e-08
1.327344e-08
-2.5102781e-08
1.2590327e-08
-2.5660994e-08
1.1892246e-08
-2.6203206e-08
1.1180193e-08
-2.6727499e-08
1.0453513e-08
-2.7233067e-08
9.7137579e-09
-2.771987e-08
8.9609244e-09
-2.8187559e-08
8.1957492e-09
-2.8635603e-08
7.4188047e-09
-2.90632e-08
6.6309566e-09
-2.9469572e-08
5.8323241e-09
-2.9854894e-08
5.0238681e-09
-3.0218585e-08
4.2056854e-09
-3.0560131e-08
3.3798336e-09
-3.0878894e-08
2.5454189e-09
-3.1174824e-08
1.7036814e-09
-3.1446825e-08
8.5480671e-10
-3.1696051e-08
-3.1920867e-08
1.7041622e-08
1.365669e-08
1.747249e-08
1.3383803e-08
1.789606e-08
1.3091209e-08
1.8311637e-08
1.2777517e-08
1.8718437e-08
1.2443507e-08
1.9115414e-08
1.2089386e-08
1.9502577e-08
1.171505e-08
1.9879206e-08
1.1321359e-08
2.0244264e-08
1.0908067e-08
2.0597471e-08
1.0475547e-08
2.0937909e-08
1.0024558e-08
2.1264873e-08
9.5553945e-09
2.157806e-08
9.0682246e-09
2.1877056e-08
8.5633953e-09
2.2160819e-08
8.0415856e-09
2.2429056e-08
7.5033278e-09
2.2681421e-08
6.9491253e-09
2.2917236e-08
6.3792523e-09
2.313616e-08
5.7945189e-09
2.3337245e-08
5.1952077e-09
2.352029e-08
4.5824494e-09
2.3685655e-08
3.956107e-09
2.3832051e-08
3.317159e-09
2.3959622e-08
2.6665053e-09
2.4067589e-08
2.0044959e-09
2.4155906e-08
1.3319097e-09
2.4224263e-08
6.4941528e-10
2.427267e-08
-4.2877232e-11
2.4300676e-08
-7.4356636e-10
2.4307716e-08
-1.4519081e-09
2.4294181e-08
-2.1680037e-09
2.4259568e-08
-2.8897932e-09
2.420358e-08
-3.6178341e-09
2.4126649e-08
-4.3503431e-09
2.4028081e-08
-5.0875937e-09
2.390814e-08
-5.8282677e-09
2.3766602e-08
-6.5717085e-09
2.360343e-08
-7.3171288e-09
2.3418814e-08
-8.0636983e-09
2.3212678e-08
-8.810645e-09
2.298515e-08
-9.5579181e-09
2.2736179e-08
-1.0303973e-08
2.2466027e-08
-1.1048328e-08
2.2174414e-08
-1.1790044e-08
2.1861835e-08
-1.2528326e-08
2.1528091e-08
-1.3262813e-08
2.1173963e-08
-1.3992948e-08
2.0798884e-08
-1.471726e-08
2.0403712e-08
-1.5435311e-08
1.9988013e-08
-1.6146728e-08
1.955278e-08
-1.6850796e-08
1.9097941e-08
-1.7546428e-08
1.8623606e-08
-1.823249e-08
1.8130324e-08
-1.8909631e-08
1.7618067e-08
-1.9575826e-08
1.7087836e-08
-2.0231038e-08
1.6539638e-08
-2.0874599e-08
1.5973298e-08
-2.1506357e-08
1.5389813e-08
-2.2124281e-08
1.4789451e-08
-2.2728864e-08
1.417289e-08
-2.3318953e-08
1.3540474e-08
-2.3894559e-08
1.2892107e-08
-2.4454413e-08
1.2229093e-08
-2.4997732e-08
1.1551147e-08
-2.5525098e-08
1.0859015e-08
-2.6035465e-08
1.0153428e-08
-2.6527496e-08
9.4346397e-09
-2.7001284e-08
8.7035514e-09