/*--------------------------------*- C++ -*----------------------------------*\
| =========                 |                                                 |
| \\      /  F ield         | OpenFOAM: The Open Source CFD Toolbox           |
|  \\    /   O peration     | Version:  2306                                  |
|   \\  /    A nd           | Website:  www.openfoam.com                      |
|    \\/     M anipulation  |                                                 |
\*---------------------------------------------------------------------------*/
FoamFile
{
    version     2.0;
    format      ascii;
    arch        "LSB;label=32;scalar=64";
    class       volVectorField;
    location    "0.16";
    object      U;
}
// * * * * * * * * * * * * * * * * * * * * * * * * * * * * * * * * * * * * * //

dimensions      [0 1 -1 0 0 0 0];

internalField   nonuniform List<vector> 
51200
(
(-2.2303816e-05 1.1745363e-05 5.5148805e-20)
(-5.4854289e-05 1.6552414e-05 -2.0612475e-21)
(-9.2347661e-05 1.6784171e-05 -1.7740344e-20)
(-0.00012915 1.7328418e-05 6.0650545e-21)
(-0.00016728858 1.7612741e-05 1.198087e-20)
(-0.00020528069 1.7636177e-05 -9.9432354e-21)
(-0.00024299038 1.7590242e-05 -3.3632579e-21)
(-0.00028036918 1.7498133e-05 1.4246157e-20)
(-0.00031736732 1.737315e-05 1.1164283e-20)
(-0.0003539399 1.7223829e-05 -2.4121859e-20)
(-0.00039004633 1.7054302e-05 -2.8586154e-20)
(-0.00042564777 1.6866646e-05 3.4547933e-20)
(-0.00046070585 1.6662153e-05 2.8848644e-21)
(-0.00049518263 1.6441748e-05 -3.2928837e-20)
(-0.00052904101 1.6206136e-05 -1.3640628e-20)
(-0.00056224486 1.5955921e-05 1.2657466e-20)
(-0.00059475915 1.5691639e-05 2.2502625e-20)
(-0.00062655013 1.5413768e-05 -1.1777273e-20)
(-0.00065758545 1.5122715e-05 -2.2197737e-20)
(-0.00068783422 1.4818802e-05 6.8239315e-21)
(-0.00071726719 1.4502223e-05 -1.3921775e-21)
(-0.00074585674 1.4172979e-05 -9.9687008e-21)
(-0.00077357691 1.3830784e-05 3.0685729e-20)
(-0.00080040347 1.3474893e-05 7.1330107e-20)
(-0.00082631382 1.3103861e-05 1.1040767e-19)
(-0.00085128718 1.2715282e-05 -4.8274174e-20)
(-0.00087530603 1.2305773e-05 -2.2992816e-19)
(-0.00089836465 1.1872915e-05 -4.3472449e-20)
(-0.00092046548 1.1430722e-05 1.0988083e-19)
(-0.00094158808 1.1008541e-05 9.8616682e-20)
(-0.00096170341 1.0608352e-05 7.1091536e-20)
(-0.00098080046 1.0224716e-05 -1.4618984e-20)
(-0.00099887568 9.8529622e-06 2.3439309e-20)
(-0.0010159277 9.4900891e-06 -1.1576713e-19)
(-0.0010319565 9.1342666e-06 -1.6116305e-19)
(-0.001046963 8.7844215e-06 1.6961079e-19)
(-0.0010609499 8.4399754e-06 3.8149447e-20)
(-0.0010739214 8.1006452e-06 -3.2565866e-19)
(-0.0010858832 7.7663276e-06 9.5607274e-20)
(-0.0010968429 7.4370364e-06 4.5790304e-19)
(-0.0011068094 7.1128561e-06 1.0199592e-19)
(-0.0011157934 6.7939189e-06 -2.2374368e-19)
(-0.0011238071 6.4803773e-06 -3.0943146e-19)
(-0.0011308639 6.172392e-06 -2.462363e-19)
(-0.0011369787 5.8701397e-06 1.6427817e-19)
(-0.0011421677 5.5737861e-06 6.6117424e-19)
(-0.0011464481 5.2834996e-06 3.1786553e-20)
(-0.0011498385 4.9994408e-06 -2.3839034e-19)
(-0.0011523582 4.7217581e-06 -2.1377388e-19)
(-0.0011540275 4.4505829e-06 -5.9755836e-19)
(-0.0011548677 4.1860497e-06 3.3183425e-19)
(-0.0011549006 3.9282558e-06 3.8740531e-19)
(-0.0011541489 3.6773063e-06 -6.3885989e-20)
(-0.0011526357 3.4332816e-06 2.1980911e-19)
(-0.0011503847 3.1962418e-06 -4.7013235e-19)
(-0.00114742 2.9662368e-06 -3.6731664e-19)
(-0.001143766 2.7433031e-06 4.4854942e-19)
(-0.0011394473 2.5274596e-06 1.259451e-19)
(-0.001134489 2.3187104e-06 -9.0971436e-20)
(-0.0011289159 2.1170504e-06 7.9644448e-20)
(-0.0011227531 1.9224672e-06 -2.4691836e-20)
(-0.0011160256 1.734941e-06 -2.195692e-20)
(-0.0011087583 1.5544733e-06 -3.380755e-20)
(-0.0011009761 1.3810803e-06 -1.1084225e-19)
(-0.0010927035 1.2148355e-06 -2.3903772e-19)
(-0.0010839649 1.0559034e-06 -4.1652239e-20)
(-0.0010747843 9.0457666e-07 4.838162e-19)
(-0.0010651855 7.6129103e-07 -2.7798477e-20)
(-0.0010551918 6.2650851e-07 -1.9962921e-19)
(-0.0010448264 5.0053052e-07 4.7517133e-19)
(-0.0010341121 3.8368381e-07 -7.0520533e-20)
(-0.0010230713 2.7642836e-07 -3.5571704e-19)
(-0.001011726 1.7937232e-07 7.3091368e-20)
(-0.0010000978 9.334054e-08 1.4205541e-19)
(-0.0009882073 1.9147751e-08 1.4403888e-19)
(-0.00097606873 -4.3815764e-08 -3.2414651e-19)
(-0.00096367757 -1.0914185e-07 -2.8695926e-19)
(-0.00095107256 -2.3896857e-07 2.9515347e-19)
(-0.00093830363 -3.8466887e-07 3.5984488e-19)
(-0.00092537377 -5.2320503e-07 -1.3563195e-19)
(-0.00091228994 -6.5161796e-07 -4.9811785e-19)
(-0.00089906689 -7.6990998e-07 1.7546075e-19)
(-0.00088572033 -8.7899577e-07 3.4831159e-19)
(-0.00087226552 -9.7992918e-07 4.9795233e-21)
(-0.00085871711 -1.0736101e-06 1.260816e-19)
(-0.00084508901 -1.1607428e-06 -1.5650697e-19)
(-0.00083139449 -1.2419011e-06 -6.7039546e-21)
(-0.00081764617 -1.3175292e-06 -1.0483478e-20)
(-0.00080385605 -1.3880112e-06 -2.4094712e-19)
(-0.00079003553 -1.4536784e-06 1.2707074e-19)
(-0.00077619544 -1.5148135e-06 -1.7903744e-19)
(-0.00076234603 -1.5716769e-06 -1.1793181e-19)
(-0.00074849702 -1.6245051e-06 2.6829539e-19)
(-0.00073465756 -1.6735163e-06 1.2475462e-19)
(-0.00072083632 -1.7189156e-06 -3.9712539e-20)
(-0.00070704141 -1.7608987e-06 -2.6324548e-19)
(-0.0006932805 -1.7996425e-06 1.9837001e-21)
(-0.00067956074 -1.8353198e-06 1.8245499e-19)
(-0.00066588884 -1.8680957e-06 1.6358057e-19)
(-0.00065227106 -1.8981274e-06 -3.0358476e-20)
(-0.0006387132 -1.9255631e-06 -3.1389269e-19)
(-0.00062522067 -1.9505434e-06 6.2405159e-20)
(-0.00061179847 -1.9732063e-06 1.1349981e-19)
(-0.00059845121 -1.9936825e-06 9.3578092e-20)
(-0.00058518312 -2.0120955e-06 8.4362902e-21)
(-0.00057199809 -2.0285668e-06 -2.9917656e-19)
(-0.00055889964 -2.0432111e-06 6.8101085e-20)
(-0.00054589099 -2.056131e-06 1.7666008e-19)
(-0.00053297501 -2.0674416e-06 2.8335689e-20)
(-0.0005201543 -2.0772395e-06 1.0246567e-20)
(-0.00050743116 -2.0856169e-06 -2.1759817e-19)
(-0.00049480762 -2.0926669e-06 -5.5146355e-20)
(-0.00048228544 -2.0984815e-06 1.3253244e-19)
(-0.00046986614 -2.1031374e-06 2.7249693e-20)
(-0.00045755099 -2.1067174e-06 3.1315619e-20)
(-0.00044534107 -2.1092987e-06 -4.477284e-20)
(-0.00043323721 -2.1109513e-06 6.3563316e-21)
(-0.00042124005 -2.1117475e-06 4.4567754e-20)
(-0.00040935006 -2.1117499e-06 -1.0577716e-21)
(-0.00039756749 -2.1110209e-06 3.9858829e-20)
(-0.00038589247 -2.1096223e-06 -5.6941315e-20)
(-0.00037432492 -2.107613e-06 -2.6398999e-20)
(-0.00036286465 -2.1050393e-06 5.1440848e-20)
(-0.00035151132 -2.1019578e-06 5.5423197e-20)
(-0.00034026443 -2.0984144e-06 5.916067e-21)
(-0.00032912339 -2.094455e-06 -1.2686191e-19)
(-0.00031808749 -2.0901221e-06 -4.2745693e-20)
(-0.00030715589 -2.0854604e-06 7.5983791e-20)
(-0.00029632768 -2.0805038e-06 4.4486813e-20)
(-0.00028560183 -2.0752891e-06 -2.3180481e-20)
(-0.00027497724 -2.0698538e-06 -5.2507545e-20)
(-0.00026445274 -2.0642267e-06 2.2666771e-21)
(-0.00025402706 -2.058441e-06 8.7001354e-21)
(-0.00024369887 -2.0525259e-06 -2.141138e-20)
(-0.0002334668 -2.0465056e-06 -3.8064389e-20)
(-0.0002233294 -2.0404036e-06 6.6763924e-21)
(-0.0002132852 -2.0342482e-06 5.6487821e-20)
(-0.00020333264 -2.0280592e-06 1.6232814e-20)
(-0.00019347015 -2.0218561e-06 2.523951e-22)
(-0.00018369612 -2.0156603e-06 -5.4275079e-21)
(-0.00017400891 -2.0094884e-06 -2.0191714e-20)
(-0.00016440686 -2.00335e-06 1.6315464e-20)
(-0.00015488827 -1.9972671e-06 3.9596274e-21)
(-0.00014545143 -1.9912495e-06 -4.6486726e-22)
(-0.00013609463 -1.9853099e-06 1.947049e-20)
(-0.00012681614 -1.9794586e-06 -3.3484756e-20)
(-0.00011761423 -1.9736989e-06 -1.8906788e-20)
(-0.00010848718 -1.9680372e-06 3.0746918e-20)
(-9.943329e-05 -1.9624689e-06 2.1058801e-20)
(-9.0450915e-05 -1.9569677e-06 -7.7388657e-21)
(-8.1538488e-05 -1.9514846e-06 -2.666997e-20)
(-7.2694632e-05 -1.9458827e-06 -8.5250168e-21)
(-6.3918371e-05 -1.9398225e-06 1.642028e-20)
(-5.5209621e-05 -1.9325019e-06 6.4571861e-21)
(-4.657029e-05 -1.9220078e-06 -5.3751711e-21)
(-3.8006644e-05 -1.9043802e-06 -7.0811135e-21)
(-2.9534072e-05 -1.8737439e-06 -1.623478e-21)
(-2.1180657e-05 -1.8348877e-06 3.094059e-21)
(-1.2920205e-05 -1.9103444e-06 5.1497463e-22)
(-4.3712517e-06 -2.5999619e-06 -3.4785845e-21)
(-5.0818301e-05 0.00012675475 3.314468e-20)
(-0.00011627509 0.00013224444 -1.0314724e-21)
(-0.00019099844 0.00013345798 9.6794095e-21)
(-0.00026402097 0.00013480549 4.9605716e-20)
(-0.00033911747 0.00013533321 3.1266678e-20)
(-0.00041394422 0.0001352059 -1.7293504e-20)
(-0.00048827522 0.00013475955 4.2665328e-20)
(-0.0005620319 0.00013410027 2.0505112e-20)
(-0.00063510202 0.00013327468 -2.4598265e-20)
(-0.00070737374 0.00013230926 -1.3107655e-20)
(-0.00077874601 0.00013121891 3.8994858e-21)
(-0.00084912517 0.00013001269 1.3262875e-20)
(-0.00091842225 0.0001286969 4.2976636e-20)
(-0.00098655224 0.00012727652 8.6163012e-20)
(-0.001053434 0.00012575579 8.8691957e-21)
(-0.0011189899 0.00012413869 2.0433858e-20)
(-0.0011831462 0.00012242905 1.1664804e-19)
(-0.0012458325 0.00012063069 8.498534e-21)
(-0.0013069823 0.0001187474 -1.1404647e-19)
(-0.0013665329 0.00011678301 -5.8641217e-20)
(-0.0014244255 0.00011474131 -3.4181383e-21)
(-0.0014806055 0.00011262602 -1.106661e-20)
(-0.0015350224 0.00011044076 3.6195381e-20)
(-0.0015876301 0.00010818883 1.4708271e-19)
(-0.0016383871 0.00010587317 1.4970922e-19)
(-0.0016872565 0.00010349614 -1.4709943e-19)
(-0.0017342054 0.00010105961 -2.5870999e-19)
(-0.0017791964 9.8566406e-05 -9.9772072e-20)
(-0.0018221887 9.603066e-05 -8.1549191e-20)
(-0.0018631659 9.3477958e-05 2.5392567e-19)
(-0.0019021259 9.0915559e-05 3.8557551e-19)
(-0.0019390592 8.8343782e-05 -1.2796496e-19)
(-0.0019739566 8.5762941e-05 -2.9734472e-19)
(-0.0020068127 8.3174512e-05 -1.5458568e-19)
(-0.0020376265 8.0580874e-05 1.3903203e-19)
(-0.0020664011 7.798496e-05 1.7481391e-19)
(-0.0020931435 7.5390053e-05 -2.9710559e-19)
(-0.0021178643 7.2799604e-05 -4.7206429e-19)
(-0.0021405781 7.0217116e-05 4.4583833e-19)
(-0.0021613022 6.764609e-05 6.0104523e-19)
(-0.0021800578 6.5089978e-05 -6.9224004e-19)
(-0.0021968688 6.2552146e-05 -2.9954724e-19)
(-0.002211762 6.0035827e-05 8.1347846e-19)
(-0.0022247672 5.7544137e-05 9.8620011e-19)
(-0.0022359164 5.5080041e-05 3.4777635e-20)
(-0.0022452444 5.2646354e-05 -1.6282251e-18)
(-0.002252788 5.0245721e-05 -9.8628149e-19)
(-0.0022585861 4.7880637e-05 8.7641197e-19)
(-0.0022626793 4.5553423e-05 8.3460469e-19)
(-0.0022651101 4.3266228e-05 -4.6858456e-19)
(-0.0022659224 4.1021039e-05 -7.8673673e-19)
(-0.0022651616 3.8819654e-05 7.1988882e-19)
(-0.0022628739 3.6663738e-05 1.0503256e-18)
(-0.0022591069 3.4554751e-05 -1.172105e-19)
(-0.0022539088 3.2494004e-05 -6.5976305e-19)
(-0.0022473284 3.0482643e-05 -7.6171398e-19)
(-0.0022394152 2.8521671e-05 -6.9233806e-20)
(-0.0022302191 2.661192e-05 9.2263269e-19)
(-0.00221979 2.4754077e-05 3.377321e-19)
(-0.0022081779 2.2948696e-05 -9.2684442e-19)
(-0.002195433 2.1196178e-05 -3.2817564e-19)
(-0.002181605 1.9496796e-05 9.4924766e-19)
(-0.0021667435 1.785068e-05 2.9402224e-19)
(-0.0021508975 1.6257809e-05 -1.0247653e-18)
(-0.0021341156 1.4717989e-05 -5.3399102e-19)
(-0.0021164456 1.3230858e-05 5.9312414e-19)
(-0.0020979347 1.1795837e-05 5.9723232e-19)
(-0.0020786295 1.0412157e-05 1.8674162e-19)
(-0.0020585759 9.079037e-06 -3.007845e-19)
(-0.0020378194 7.795904e-06 -7.4709813e-19)
(-0.002016404 6.5623158e-06 1.1044596e-19)
(-0.0019943727 5.3779176e-06 5.1983815e-19)
(-0.0019717677 4.2423792e-06 -8.9007633e-20)
(-0.0019486304 3.1554139e-06 8.9930098e-20)
(-0.0019250039 2.1166797e-06 3.4850761e-19)
(-0.0019009378 1.123961e-06 8.1408961e-20)
(-0.0018765041 1.6587188e-07 -5.212884e-19)
(-0.001851693 -7.8952443e-07 -4.2992621e-19)
(-0.0018264851 -1.7111965e-06 1.8572349e-19)
(-0.0018009445 -2.5882491e-06 1.8731589e-19)
(-0.0017751202 -3.4212081e-06 -3.6800251e-21)
(-0.0017490469 -4.2116842e-06 1.1435561e-19)
(-0.0017227554 -4.9615504e-06 1.8875194e-19)
(-0.0016962743 -5.6725933e-06 -2.7764936e-19)
(-0.001669631 -6.3464337e-06 -2.8785289e-20)
(-0.0016428516 -6.9845491e-06 2.9956133e-19)
(-0.0016159612 -7.5883424e-06 -3.0799059e-19)
(-0.0015889834 -8.1591193e-06 5.2053e-20)
(-0.0015619408 -8.6981646e-06 1.7428828e-19)
(-0.0015348551 -9.2067234e-06 -1.71007e-19)
(-0.0015077467 -9.6859952e-06 -1.482096e-19)
(-0.0014806349 -1.0137169e-05 -1.8911642e-19)
(-0.0014535381 -1.056139e-05 2.2339384e-19)
(-0.0014264734 -1.0959785e-05 1.5355531e-19)
(-0.0013994571 -1.1333458e-05 -9.7605028e-20)
(-0.0013725046 -1.1683484e-05 -4.4360047e-20)
(-0.0013456302 -1.2010907e-05 -1.1780116e-21)
(-0.0013188473 -1.231674e-05 1.8740831e-19)
(-0.0012921684 -1.2601983e-05 -2.3113424e-20)
(-0.0012656051 -1.2867601e-05 -2.6117816e-19)
(-0.0012391684 -1.3114529e-05 -5.5976598e-20)
(-0.0012128683 -1.3343676e-05 1.8062715e-19)
(-0.001186714 -1.3555926e-05 1.8457519e-19)
(-0.001160714 -1.375213e-05 7.7740505e-21)
(-0.0011348761 -1.3933112e-05 -1.9621868e-19)
(-0.0011092075 -1.4099678e-05 -1.8075241e-19)
(-0.0010837147 -1.4252595e-05 9.8672872e-20)
(-0.0010584034 -1.4392606e-05 2.9392121e-19)
(-0.001033279 -1.4520436e-05 2.8144842e-20)
(-0.0010083461 -1.4636773e-05 -2.4444308e-19)
(-0.00098360882 -1.4742281e-05 -8.2629323e-20)
(-0.00095907077 -1.4837597e-05 -1.8232956e-20)
(-0.00093473508 -1.4923346e-05 1.9179501e-19)
(-0.00091060438 -1.5000111e-05 2.1866925e-19)
(-0.00088668088 -1.5068463e-05 -1.5217347e-19)
(-0.00086296633 -1.5128944e-05 -1.9739274e-19)
(-0.00083946213 -1.5182076e-05 -3.4185117e-20)
(-0.00081616926 -1.5228362e-05 1.7833678e-19)
(-0.00079308835 -1.5268268e-05 7.8882205e-20)
(-0.00077021971 -1.5302263e-05 -2.1029268e-19)
(-0.00074756331 -1.5330774e-05 -6.7788855e-20)
(-0.00072511883 -1.5354221e-05 1.700979e-19)
(-0.00070288568 -1.5372998e-05 1.4510029e-19)
(-0.00068086299 -1.5387487e-05 -6.676814e-20)
(-0.00065904964 -1.5398045e-05 -2.1448382e-19)
(-0.00063744429 -1.5405011e-05 -2.9676856e-20)
(-0.00061604538 -1.5408717e-05 1.3901985e-19)
(-0.00059485115 -1.5409476e-05 8.5066725e-20)
(-0.00057385966 -1.5407572e-05 -2.607636e-20)
(-0.00055306878 -1.5403285e-05 -1.1784858e-19)
(-0.00053247624 -1.5396883e-05 -3.991738e-20)
(-0.00051207961 -1.538861e-05 1.2739765e-19)
(-0.00049187633 -1.537871e-05 1.0668744e-19)
(-0.00047186372 -1.5367403e-05 -5.7921494e-20)
(-0.00045203898 -1.5354895e-05 -1.6460471e-19)
(-0.00043239921 -1.5341386e-05 -1.475488e-20)
(-0.00041294141 -1.5327063e-05 1.2745663e-19)
(-0.00039366252 -1.5312104e-05 5.1597183e-20)
(-0.00037455939 -1.5296665e-05 -2.4668781e-20)
(-0.00035562879 -1.5280907e-05 -4.253582e-20)
(-0.00033686748 -1.5264968e-05 -7.8915658e-21)
(-0.00031827213 -1.5248973e-05 1.8941665e-20)
(-0.00029983939 -1.5233052e-05 2.2773743e-20)
(-0.00028156587 -1.5217317e-05 -1.6102288e-20)
(-0.00026344817 -1.5201861e-05 -4.1961907e-20)
(-0.00024548287 -1.5186779e-05 -6.0865546e-21)
(-0.00022766654 -1.5172139e-05 3.0297096e-20)
(-0.00020999577 -1.5157994e-05 3.7449658e-20)
(-0.00019246717 -1.5144364e-05 -1.0773589e-20)
(-0.0001750774 -1.5131213e-05 -4.393029e-20)
(-0.00015782318 -1.5118417e-05 -4.7223262e-21)
(-0.00014070135 -1.5105622e-05 2.3829149e-20)
(-0.00012370892 -1.5092032e-05 1.6548328e-20)
(-0.00010684311 -1.507591e-05 -7.2475431e-21)
(-9.0101242e-05 -1.5053556e-05 -1.6209395e-20)
(-7.3479952e-05 -1.5018241e-05 -1.262496e-21)
(-5.6971975e-05 -1.4962292e-05 6.8054425e-21)
(-4.0559256e-05 -1.4893391e-05 2.8283042e-21)
(-2.4212464e-05 -1.4892801e-05 -2.3879981e-21)
(-7.9922094e-06 -1.5248408e-05 -3.3708319e-21)
(-6.3597213e-05 0.0003065037 -7.6401259e-20)
(-0.00014331893 0.00031076848 -2.6256301e-20)
(-0.00023417116 0.00031222884 3.4891658e-21)
(-0.00032237369 0.0003132906 3.1274898e-20)
(-0.00041284295 0.00031338766 1.4445196e-20)
(-0.00050290441 0.00031268555 -4.3335591e-20)
(-0.00059235859 0.00031145908 5.7449872e-20)
(-0.00068113907 0.00030982851 5.8906756e-21)
(-0.00076911454 0.00030785573 2.9464924e-20)
(-0.00085614506 0.00030557836 9.9440367e-20)
(-0.00094210191 0.00030302048 3.8432117e-20)
(-0.0010268654 0.00030019874 6.3843812e-20)
(-0.0011103226 0.00029712598 -2.6812533e-20)
(-0.001192366 0.00029381315 5.3988627e-20)
(-0.0012728939 0.0002902702 1.1056418e-19)
(-0.0013518097 0.00028650672 1.7628804e-20)
(-0.0014290216 0.00028253221 7.9817565e-20)
(-0.0015044429 0.00027835625 -1.7077452e-20)
(-0.0015779918 0.00027398862 -7.7440473e-20)
(-0.0016495915 0.00026943929 3.9137325e-20)
(-0.0017191703 0.00026471847 3.1531334e-20)
(-0.0017866615 0.00025983666 5.4579033e-21)
(-0.0018520038 0.00025480459 5.3117346e-20)
(-0.001915141 0.00024963336 1.1468268e-19)
(-0.0019760224 0.00024433444 5.326068e-20)
(-0.0020346022 0.00023891985 -3.8271608e-20)
(-0.0020908398 0.00023340228 -6.9630023e-20)
(-0.0021446988 0.00022779465 -1.3485074e-19)
(-0.0021961488 0.00022210341 -1.4941285e-19)
(-0.0022451682 0.00021632839 3.0849837e-20)
(-0.0022917403 0.00021048111 1.2059936e-19)
(-0.0023358507 0.00020457532 2.3280813e-20)
(-0.0023774895 0.00019862369 -1.3155173e-19)
(-0.0024166522 0.0001926378 -1.8401571e-19)
(-0.0024533393 0.00018662858 6.1966844e-20)
(-0.0024875567 0.00018060649 1.272359e-19)
(-0.0025193145 0.00017458159 -3.467882e-20)
(-0.0025486276 0.00016856362 -7.1545146e-20)
(-0.002575515 0.000162562 2.749746e-20)
(-0.0025999997 0.00015658577 -7.7893104e-20)
(-0.0026221086 0.00015064365 -2.3993323e-19)
(-0.0026418722 0.00014474399 1.2531127e-19)
(-0.0026593246 0.00013889471 4.0309195e-19)
(-0.0026745031 0.00013310338 3.9209174e-19)
(-0.0026874481 0.00012737712 -2.001474e-21)
(-0.0026982025 0.00012172264 -7.859722e-19)
(-0.0027068123 0.00011614621 -3.5582664e-19)
(-0.0027133255 0.00011065368 2.7652027e-19)
(-0.0027177926 0.00010525048 3.0889302e-19)
(-0.0027202657 9.9941599e-05 2.3251114e-19)
(-0.002720799 9.4731588e-05 -4.0924788e-19)
(-0.0027194479 8.9624587e-05 -6.3849541e-21)
(-0.0027162694 8.4624319e-05 4.4140305e-19)
(-0.0027113215 7.9734073e-05 -4.3641898e-20)
(-0.0027046631 7.4956756e-05 -6.9734951e-20)
(-0.0026963538 7.0294867e-05 -1.7438419e-19)
(-0.0026864538 6.5750545e-05 -1.4229273e-19)
(-0.0026750236 6.1325532e-05 3.0525424e-19)
(-0.0026621241 5.7021212e-05 7.8125592e-20)
(-0.002647816 5.2838647e-05 -3.9450328e-19)
(-0.0026321599 4.8778542e-05 -1.0654201e-19)
(-0.0026152163 4.4841291e-05 3.0365986e-19)
(-0.0025970451 4.102696e-05 8.9001489e-20)
(-0.0025777059 3.7335292e-05 -1.9616137e-19)
(-0.0025572575 3.3765686e-05 3.6181664e-20)
(-0.0025357582 3.0317183e-05 1.2041904e-19)
(-0.0025132652 2.6988425e-05 -5.7753201e-20)
(-0.0024898348 2.3777669e-05 6.2483033e-20)
(-0.0024655219 2.0683003e-05 -3.0096234e-20)
(-0.0024403803 1.7702627e-05 -2.798453e-19)
(-0.0024144628 1.4834747e-05 1.3676211e-20)
(-0.0023878211 1.2077498e-05 1.6297864e-19)
(-0.0023605055 9.4288933e-06 -3.0530884e-20)
(-0.002332565 6.8865944e-06 7.6095073e-20)
(-0.0023040483 4.448007e-06 9.9024539e-20)
(-0.0022750037 2.1109615e-06 6.2368264e-20)
(-0.0022454755 -1.2019149e-07 -9.6028329e-20)
(-0.0022154949 -2.2055875e-06 -2.7297251e-19)
(-0.0021851023 -4.1839522e-06 -7.3063145e-20)
(-0.0021543464 -6.0702572e-06 2.0219345e-19)
(-0.0021232664 -7.8680794e-06 1.7601502e-19)
(-0.002091899 -9.5804005e-06 -1.5209347e-19)
(-0.0020602797 -1.1209765e-05 -1.1295908e-19)
(-0.0020284427 -1.2758495e-05 -1.0376981e-19)
(-0.0019964206 -1.4228922e-05 -6.8256559e-20)
(-0.0019642447 -1.5623438e-05 1.3867024e-19)
(-0.0019319448 -1.6944476e-05 -8.8640454e-20)
(-0.0018995491 -1.819449e-05 3.8893887e-20)
(-0.0018670846 -1.9375964e-05 1.8126532e-19)
(-0.001834577 -2.0491381e-05 -6.7747171e-20)
(-0.0018020503 -2.1543203e-05 -6.7301764e-20)
(-0.0017695274 -2.2533886e-05 -3.4135031e-20)
(-0.0017370302 -2.3465839e-05 5.0634939e-20)
(-0.0017045788 -2.4341455e-05 -2.3639441e-20)
(-0.0016721925 -2.516308e-05 -1.327722e-20)
(-0.0016398894 -2.5933022e-05 1.3889992e-19)
(-0.0016076863 -2.6653533e-05 -3.5476114e-20)
(-0.0015755989 -2.7326814e-05 -5.5449821e-20)
(-0.0015436421 -2.7955017e-05 -9.516585e-20)
(-0.0015118295 -2.8540246e-05 -5.4903381e-20)
(-0.0014801737 -2.9084537e-05 1.3075783e-19)
(-0.0014486867 -2.9589885e-05 4.6813681e-20)
(-0.0014173791 -3.0058207e-05 2.7307981e-20)
(-0.001386261 -3.0491373e-05 -7.5483219e-20)
(-0.0013553415 -3.0891188e-05 -5.0488023e-20)
(-0.0013246288 -3.1259411e-05 1.105674e-19)
(-0.0012941305 -3.1597725e-05 1.0944886e-20)
(-0.0012638533 -3.1907774e-05 1.8535032e-20)
(-0.0012338034 -3.2191129e-05 -3.969685e-20)
(-0.001203986 -3.2449302e-05 -1.2221317e-19)
(-0.001174406 -3.268377e-05 4.6400988e-20)
(-0.0011450675 -3.2895921e-05 4.8000764e-20)
(-0.0011159741 -3.3087123e-05 3.2002167e-20)
(-0.0010871286 -3.3258669e-05 6.1946904e-20)
(-0.0010585336 -3.3411809e-05 -5.6834689e-20)
(-0.0010301911 -3.3547734e-05 -7.6113445e-20)
(-0.0010021025 -3.3667593e-05 -3.0983408e-20)
(-0.00097426885 -3.3772487e-05 5.4997704e-20)
(-0.00094669082 -3.3863455e-05 3.1751311e-20)
(-0.0009193686 -3.3941515e-05 -5.8142236e-20)
(-0.00089230206 -3.4007609e-05 1.0050604e-20)
(-0.00086549068 -3.4062663e-05 5.2486035e-20)
(-0.00083893363 -3.4107544e-05 2.4321238e-20)
(-0.00081262976 -3.414309e-05 -4.8970938e-20)
(-0.00078657764 -3.4170089e-05 -6.7677984e-20)
(-0.00076077556 -3.4189293e-05 4.057734e-20)
(-0.00073522157 -3.4201427e-05 5.7100545e-20)
(-0.00070991346 -3.4207171e-05 1.4772897e-20)
(-0.00068484883 -3.4207163e-05 -3.4386847e-20)
(-0.00066002505 -3.4202021e-05 -3.4020809e-20)
(-0.00063543933 -3.4192326e-05 2.3273571e-20)
(-0.00061108869 -3.4178628e-05 3.1752005e-20)
(-0.00058697001 -3.4161451e-05 2.1260432e-20)
(-0.00056308 -3.4141283e-05 -1.3656861e-20)
(-0.00053941525 -3.4118586e-05 -3.5697894e-20)
(-0.00051597225 -3.4093797e-05 -7.1875591e-21)
(-0.00049274735 -3.4067326e-05 2.5513515e-20)
(-0.00046973683 -3.4039563e-05 1.8274425e-20)
(-0.00044693688 -3.4010865e-05 -1.678089e-20)
(-0.0004243436 -3.3981572e-05 -1.4622835e-20)
(-0.00040195304 -3.3952e-05 9.1272956e-21)
(-0.0003797612 -3.3922433e-05 -9.4268477e-21)
(-0.00035776402 -3.3893149e-05 4.1538247e-21)
(-0.00033595742 -3.38644e-05 -2.1965767e-21)
(-0.00031433727 -3.3836396e-05 -1.2940249e-20)
(-0.00029289946 -3.3809353e-05 1.6794964e-20)
(-0.00027163984 -3.3783431e-05 5.0986402e-21)
(-0.00025055427 -3.375877e-05 -1.815801e-21)
(-0.00022963862 -3.3735462e-05 -5.1353074e-21)
(-0.00020888881 -3.371352e-05 -6.3305375e-21)
(-0.00018830073 -3.369287e-05 1.6085074e-20)
(-0.00016787035 -3.3673228e-05 9.4895688e-21)
(-0.00014759355 -3.3654009e-05 4.6100545e-22)
(-0.00012746601 -3.3634099e-05 -1.4108228e-20)
(-0.00010748273 -3.3611644e-05 -6.4425225e-21)
(-8.7637098e-05 -3.3584574e-05 1.3613543e-20)
(-6.7918392e-05 -3.3554915e-05 4.3570185e-21)
(-4.8306501e-05 -3.3544406e-05 -4.2108569e-22)
(-2.8778974e-05 -3.3630986e-05 8.7458983e-22)
(-9.4909861e-06 -3.3956488e-05 7.1061827e-21)
(-6.7675279e-05 0.00050023326 -4.1683606e-19)
(-0.00015320854 0.0005024353 -1.1834068e-19)
(-0.00025043946 0.00050317882 3.2527521e-20)
(-0.00034445801 0.00050341021 -9.5513002e-20)
(-0.00044083036 0.00050272565 8.8175187e-21)
(-0.00053668114 0.00050120989 -5.7764257e-20)
(-0.00063184243 0.00049903331 -4.0695439e-20)
(-0.00072626836 0.00049629043 -2.3938403e-20)
(-0.00081983038 0.00049303898 2.2181446e-20)
(-0.00091238346 0.00048931796 8.2555891e-20)
(-0.0010037913 0.00048515536 4.0763686e-20)
(-0.0010939258 0.00048057283 5.8116752e-20)
(-0.0011826653 0.00047558855 -5.8465242e-20)
(-0.0012698942 0.00047021895 1.5112636e-20)
(-0.0013555028 0.00046447956 8.4151802e-20)
(-0.0014393868 0.00045838564 -4.4880092e-20)
(-0.0015214477 0.00045195248 5.3262838e-20)
(-0.0016015923 0.00044519558 1.7095015e-20)
(-0.0016797329 0.00043813072 -3.6963311e-20)
(-0.0017557871 0.00043077403 4.0508233e-20)
(-0.0018296782 0.00042314198 1.8698043e-20)
(-0.0019013351 0.00041525136 1.0418484e-20)
(-0.0019706924 0.00040711925 6.3898357e-20)
(-0.0020376903 0.000398763 1.852487e-20)
(-0.0021022746 0.00039020018 -4.4543e-20)
(-0.0021643972 0.00038144853 -5.5884443e-20)
(-0.0022240152 0.00037252585 -8.208629e-20)
(-0.0022810916 0.00036344991 -1.7130063e-20)
(-0.0023355952 0.00035423765 4.8184919e-21)
(-0.0023875017 0.00034490575 -3.201386e-20)
(-0.0024367926 0.00033547311 -4.3650643e-20)
(-0.0024834538 0.00032595863 3.0360121e-22)
(-0.0025274763 0.00031638028 7.3261265e-20)
(-0.0025688563 0.00030675514 -4.9250694e-20)
(-0.0026075955 0.00029709968 -1.350227e-19)
(-0.0026437008 0.00028742992 1.1644599e-20)
(-0.0026771838 0.00027776147 1.3110888e-19)
(-0.0027080612 0.0002681095 6.3350505e-20)
(-0.0027363541 0.00025848873 -1.458947e-20)
(-0.0027620878 0.00024891336 -4.7358546e-20)
(-0.002785292 0.00023939708 -2.6598239e-20)
(-0.0028060001 0.00022995296 5.7925909e-20)
(-0.0028242491 0.00022059351 7.1242496e-20)
(-0.0028400798 0.00021133057 -4.9835038e-20)
(-0.0028535358 0.00020217534 2.2130028e-20)
(-0.002864664 0.00019313835 -7.4161752e-20)
(-0.0028735138 0.00018422944 -1.1433625e-19)
(-0.0028801374 0.00017545778 2.3365726e-20)
(-0.002884589 0.00016683184 -3.3394682e-20)
(-0.0028869251 0.0001583594 1.0413223e-19)
(-0.0028872038 0.00015004755 4.4108572e-20)
(-0.0028854849 0.00014190273 -9.8812367e-20)
(-0.0028818295 0.00013393067 6.060719e-20)
(-0.0028762999 0.00012613645 2.2412682e-20)
(-0.0028689593 0.00011852451 -1.5792398e-20)
(-0.0028598717 0.00011109865 -1.7832634e-20)
(-0.0028491016 0.00010386207 -2.7627699e-20)
(-0.0028367137 9.681737e-05 7.2282659e-20)
(-0.002822773 8.9966552e-05 -5.7965205e-21)
(-0.0028073444 8.3311109e-05 -1.5479324e-19)
(-0.0027904928 7.6851985e-05 -1.8400819e-20)
(-0.0027722826 7.0589635e-05 1.1550078e-19)
(-0.0027527777 6.4524042e-05 3.1627999e-20)
(-0.0027320414 5.8654759e-05 -3.6591896e-20)
(-0.0027101365 5.2980967e-05 1.6550715e-20)
(-0.0026871246 4.7501494e-05 -3.351118e-22)
(-0.0026630666 4.2214883e-05 -7.4930702e-20)
(-0.0026380224 3.7119427e-05 7.9711432e-21)
(-0.0026120504 3.2213077e-05 1.060793e-21)
(-0.0025852079 2.7493308e-05 -1.5184078e-21)
(-0.0025575509 2.2957325e-05 8.8064595e-21)
(-0.0025291339 1.8602141e-05 -3.0905863e-21)
(-0.0025000103 1.4424607e-05 -4.2959397e-20)
(-0.0024702317 1.0421167e-05 -3.4615136e-20)
(-0.0024398489 6.5877525e-06 6.8068667e-20)
(-0.0024089123 2.9224049e-06 2.1527718e-20)
(-0.0023774645 -5.7132169e-07 -6.4482048e-20)
(-0.0023455541 -3.8871217e-06 -1.1614629e-19)
(-0.0023132287 -7.0488865e-06 -5.2245165e-20)
(-0.0022805255 -1.0063376e-05 5.2256935e-20)
(-0.0022474851 -1.2934135e-05 1.1545737e-20)
(-0.0022141471 -1.5665508e-05 -7.1423333e-20)
(-0.0021805496 -1.8261837e-05 -3.0673516e-21)
(-0.0021467287 -2.0727398e-05 1.2956583e-20)
(-0.0021127187 -2.3066433e-05 1.3812326e-21)
(-0.0020785527 -2.5283162e-05 1.8718601e-20)
(-0.0020442619 -2.7381794e-05 -6.91476e-20)
(-0.0020098762 -2.9366492e-05 -2.502365e-20)
(-0.0019754239 -3.1241391e-05 2.7003297e-20)
(-0.0019409319 -3.3010602e-05 3.2286525e-20)
(-0.0019064256 -3.467817e-05 1.3083168e-21)
(-0.0018719292 -3.624809e-05 -5.3468408e-20)
(-0.0018374654 -3.7724292e-05 2.9437627e-20)
(-0.0018030556 -3.9110639e-05 2.1104721e-20)
(-0.0017687199 -4.0410928e-05 1.9697122e-20)
(-0.0017344772 -4.1628875e-05 4.0504442e-20)
(-0.0017003452 -4.2768095e-05 -5.6371784e-20)
(-0.0016663405 -4.3832146e-05 -2.8313689e-20)
(-0.0016324783 -4.482447e-05 -1.3124044e-21)
(-0.0015987732 -4.5748433e-05 4.261792e-21)
(-0.0015652383 -4.6607304e-05 4.4770967e-20)
(-0.0015318859 -4.7404273e-05 -6.1542506e-21)
(-0.0014987273 -4.8142405e-05 4.3319909e-21)
(-0.0014657729 -4.8824694e-05 -1.3554859e-20)
(-0.0014330321 -4.945402e-05 1.5022065e-20)
(-0.0014005136 -5.0033191e-05 4.4290583e-20)
(-0.0013682252 -5.0564889e-05 -2.5194681e-20)
(-0.0013361739 -5.1051738e-05 -1.6089057e-20)
(-0.001304366 -5.1496244e-05 -3.8517688e-20)
(-0.001272807 -5.190082e-05 -5.1884623e-20)
(-0.0012415019 -5.2267809e-05 7.4423933e-21)
(-0.0012104548 -5.2599439e-05 3.9602038e-20)
(-0.0011796695 -5.2897872e-05 3.347875e-20)
(-0.0011491488 -5.3165174e-05 1.558613e-21)
(-0.0011188954 -5.3403331e-05 -3.1301841e-20)
(-0.0010889111 -5.3614237e-05 -1.7403499e-20)
(-0.0010591975 -5.3799726e-05 -2.0108515e-20)
(-0.0010297556 -5.3961535e-05 1.5186387e-20)
(-0.0010005858 -5.4101336e-05 2.0299629e-20)
(-0.00097168831 -5.4220722e-05 1.1811702e-20)
(-0.00094306293 -5.4321211e-05 9.5323204e-21)
(-0.000914709 -5.4404269e-05 -1.8714572e-20)
(-0.00088662554 -5.4471271e-05 -8.7167804e-21)
(-0.00085881126 -5.4523546e-05 8.502968e-21)
(-0.00083126456 -5.4562346e-05 2.4237675e-20)
(-0.00080398356 -5.4588874e-05 2.2127096e-20)
(-0.00077696611 -5.4604264e-05 -2.417544e-21)
(-0.00075020982 -5.4609604e-05 3.2502985e-21)
(-0.00072371207 -5.4605914e-05 -1.9791307e-20)
(-0.00069747002 -5.4594161e-05 -7.4519956e-22)
(-0.00067148066 -5.4575278e-05 2.7335154e-20)
(-0.00064574077 -5.4550134e-05 9.9968798e-21)
(-0.00062024699 -5.4519551e-05 1.1780661e-20)
(-0.00059499579 -5.4484315e-05 -1.0615023e-20)
(-0.00056998353 -5.4445156e-05 -2.0192034e-20)
(-0.00054520641 -5.4402766e-05 -1.6309601e-20)
(-0.00052066055 -5.4357796e-05 8.2365353e-21)
(-0.00049634197 -5.4310853e-05 4.8416004e-21)
(-0.00047224658 -5.4262519e-05 -1.1806233e-20)
(-0.00044837023 -5.4213328e-05 -3.7951015e-21)
(-0.00042470869 -5.4163775e-05 8.8320673e-21)
(-0.0004012577 -5.411432e-05 6.9080496e-22)
(-0.00037801292 -5.4065399e-05 9.4007113e-21)
(-0.00035497 -5.401741e-05 1.238114e-21)
(-0.00033212454 -5.3970705e-05 -5.9875741e-21)
(-0.00030947214 -5.3925613e-05 6.3554043e-21)
(-0.00028700836 -5.3882409e-05 -1.0183466e-20)
(-0.00026472879 -5.3841337e-05 7.1621573e-22)
(-0.00024262899 -5.3802587e-05 1.3445899e-20)
(-0.00022070454 -5.3766254e-05 1.2374674e-20)
(-0.00019895098 -5.3732372e-05 9.1875346e-21)
(-0.00017736382 -5.3700812e-05 1.9931536e-21)
(-0.00015593844 -5.3671262e-05 4.3465223e-21)
(-0.00013466986 -5.364316e-05 -1.4734068e-20)
(-0.0001135524 -5.3615775e-05 -3.5081391e-21)
(-9.2579295e-05 -5.3588918e-05 1.1377028e-20)
(-7.1741768e-05 -5.3565974e-05 2.0236541e-21)
(-5.102469e-05 -5.3562013e-05 6.2793948e-21)
(-3.0412866e-05 -5.3619558e-05 6.5147898e-21)
(-1.0036555e-05 -5.3790348e-05 1.1670591e-20)
(-6.8930106e-05 0.0007009794 -5.4042611e-19)
(-0.00015654558 0.00070187612 -2.693139e-19)
(-0.00025628493 0.00070183987 -8.5426101e-20)
(-0.00035260955 0.00070119077 1.1127098e-19)