/*--------------------------------*- C++ -*----------------------------------*\
| =========                 |                                                 |
| \\      /  F ield         | OpenFOAM: The Open Source CFD Toolbox           |
|  \\    /   O peration     | Version:  2306                                  |
|   \\  /    A nd           | Website:  www.openfoam.com                      |
|    \\/     M anipulation  |                                                 |
\*---------------------------------------------------------------------------*/
FoamFile
{
    version     2.0;
    format      ascii;
    arch        "LSB;label=32;scalar=64";
    class       surfaceScalarField;
    location    "0.19";
    object      phi_0;
}
// * * * * * * * * * * * * * * * * * * * * * * * * * * * * * * * * * * * * * //

dimensions      [0 3 -1 0 0 0 0];

oriented        oriented;

internalField   nonuniform List<scalar> 
12640
(
3.7277399e-06
2.4602477e-06
3.7732914e-06
2.3346638e-06
3.8128799e-06
2.2086742e-06
3.8467248e-06
2.0825239e-06
3.8750458e-06
1.9564394e-06
3.8980625e-06
1.8306288e-06
3.9159919e-06
1.7052828e-06
3.9290491e-06
1.5805759e-06
3.9374455e-06
1.4566667e-06
3.9413891e-06
1.3336996e-06
3.9410828e-06
1.2118039e-06
3.9367253e-06
1.0910968e-06
3.9285101e-06
9.7168269e-07
3.916625e-06
8.5365444e-07
3.9012522e-06
7.3709453e-07
3.8825678e-06
6.2207445e-07
3.8607426e-06
5.0865696e-07
3.8359403e-06
3.9689633e-07
3.8083183e-06
2.8683785e-07
3.7780279e-06
1.7851835e-07
3.7452081e-06
7.1966881e-08
3.7100309e-06
-3.2801912e-08
3.6725954e-06
-1.3570076e-07
3.633039e-06
-2.3678883e-07
3.5914846e-06
-3.3604115e-07
3.5480479e-06
-4.334489e-07
3.5028392e-06
-5.290119e-07
3.4559636e-06
-6.227324e-07
3.4075208e-06
-7.146161e-07
3.3576054e-06
-8.046729e-07
3.3063063e-06
-8.9291333e-07
3.2537082e-06
-9.7935245e-07
3.1998907e-06
-1.0640054e-06
3.1449287e-06
-1.1468911e-06
3.0888934e-06
-1.2280286e-06
3.0318507e-06
-1.3074387e-06
2.9738635e-06
-1.3851441e-06
2.9149898e-06
-1.4611658e-06
2.8552841e-06
-1.5355294e-06
2.7947975e-06
-1.6082587e-06
2.7335771e-06
-1.6793784e-06
2.6716674e-06
-1.7489136e-06
2.6091088e-06
-1.8168895e-06
2.5459393e-06
-1.8833306e-06
2.4821934e-06
-1.9482634e-06
2.417903e-06
-2.0117122e-06
2.3530969e-06
-2.0737022e-06
2.2878023e-06
-2.1342574e-06
2.2220429e-06
-2.1934024e-06
2.1558406e-06
-2.2511607e-06
2.089215e-06
-2.3075548e-06
2.0221833e-06
-2.362607e-06
1.9547606e-06
-2.4163402e-06
1.8869606e-06
-2.4687745e-06
1.8187936e-06
-2.51993e-06
1.7502706e-06
-2.5698255e-06
1.6813985e-06
-2.61848e-06
1.6121847e-06
-2.6659113e-06
1.5426332e-06
-2.7121351e-06
1.4727479e-06
-2.7571676e-06
1.4025299e-06
-2.8010221e-06
1.3319805e-06
-2.8437134e-06
1.2610994e-06
-2.8852526e-06
1.1898842e-06
-2.9256511e-06
1.1183322e-06
-2.9649189e-06
1.0464392e-06
-3.0030647e-06
9.7420094e-07
-3.0400956e-06
9.0161143e-07
-3.0760182e-06
8.28664e-07
-3.1108375e-06
7.5535087e-07
-3.1445559e-06
6.8166365e-07
-3.1771774e-06
6.075939e-07
-3.2087014e-06
5.3313182e-07
-3.2391282e-06
4.5826743e-07
-3.2684552e-06
3.8298949e-07
-3.2966793e-06
3.0728712e-07
-3.3237972e-06
2.3114885e-07
-3.3498072e-06
1.5456241e-07
-3.3747179e-06
7.7516336e-08
-3.3985663e-06
-3.4214046e-06
3.572445e-06
2.4072546e-06
3.6194818e-06
2.287627e-06
3.6607593e-06
2.1673967e-06
3.6964765e-06
2.0468067e-06
3.7268342e-06
1.9260817e-06
3.7520334e-06
1.8054296e-06
3.7722744e-06
1.6850418e-06
3.7877562e-06
1.5650944e-06
3.7986749e-06
1.4457481e-06
3.8052245e-06
1.3271499e-06
3.8075956e-06
1.2094326e-06
3.8059746e-06
1.0927178e-06
3.8005435e-06
9.7711366e-07
3.7914802e-06
8.6271795e-07
3.7789568e-06
7.4961765e-07
3.7631416e-06
6.3788962e-07
3.7441966e-06
5.2760219e-07
3.7222784e-06
4.1881438e-07
3.6975383e-06
3.1157799e-07
3.6701207e-06
2.0593626e-07
3.6401607e-06
1.0192713e-07
3.6078232e-06
-4.6470519e-10
3.5732015e-06
-1.010788e-07
3.5364339e-06
-2.0002133e-07
3.4976371e-06
-2.9724443e-07
3.456925e-06
-3.9273651e-07
3.4144041e-06
-4.8649129e-07
3.3701778e-06
-5.785059e-07
3.3243433e-06
-6.6878188e-07
3.276993e-06
-7.5732277e-07
3.2282159e-06
-8.4413585e-07
3.1780943e-06
-9.2923071e-07
3.1267075e-06
-1.0126186e-06
3.07413e-06
-1.0943138e-06
3.0204317e-06
-1.1743305e-06
2.9656795e-06
-1.2526864e-06
2.9099347e-06
-1.3293991e-06
2.8532562e-06
-1.4044872e-06
2.7956988e-06
-1.4779719e-06
2.7373135e-06
-1.5498735e-06
2.6781482e-06
-1.6202132e-06
2.6182475e-06
-1.6890131e-06
2.5576529e-06
-1.7562948e-06
2.4964025e-06
-1.8220804e-06
2.4345326e-06
-1.886393e-06
2.3720747e-06
-1.9492547e-06
2.3090603e-06
-2.0106873e-06
2.2455161e-06
-2.0707133e-06
2.1814675e-06
-2.1293539e-06
2.1169379e-06
-2.1866307e-06
2.051947e-06
-2.2425639e-06
1.986514e-06
-2.297174e-06
1.9206549e-06
-2.3504813e-06
1.8543842e-06
-2.4025039e-06
1.7877153e-06
-2.453261e-06
1.7206583e-06
-2.5027686e-06
1.6532233e-06
-2.5510452e-06
1.5854174e-06
-2.5981055e-06
1.5172479e-06
-2.6439654e-06
1.4487174e-06
-2.6886376e-06
1.3798315e-06
-2.732136e-06
1.3105909e-06
-2.7744728e-06
1.2409965e-06
-2.8156583e-06
1.1710491e-06
-2.8557035e-06
1.1007464e-06
-2.8946162e-06
1.0300865e-06
-2.9324046e-06
9.5906544e-07
-2.9690748e-06
8.8767977e-07
-3.0046322e-06
8.1592264e-07
-3.0390806e-06
7.4379025e-07
-3.0724236e-06
6.7127435e-07
-3.1046615e-06
5.9836797e-07
-3.1357952e-06
5.2506335e-07
-3.1658233e-06
4.5135131e-07
-3.1947431e-06
3.7722366e-07
-3.2225514e-06
3.0267021e-07
-3.2492438e-06
2.2768117e-07
-3.2748181e-06
1.5224654e-07
-3.2992835e-06
7.6356014e-08
-3.3226759e-06
-3.3450487e-06
3.4237344e-06
2.3532778e-06
3.4719808e-06
2.2393806e-06
3.5146732e-06
2.1247046e-06
3.5519914e-06
2.0094883e-06
3.5841179e-06
1.8939552e-06
3.6112365e-06
1.778311e-06
3.633531e-06
1.6627472e-06
3.6511847e-06
1.5474405e-06
3.66438e-06
1.4325528e-06
3.6732971e-06
1.3182329e-06
3.6781133e-06
1.2046165e-06
3.6790036e-06
1.0918273e-06
3.6761393e-06
9.7997803e-07
3.6696875e-06
8.6916955e-07
3.6598119e-06
7.5949346e-07
3.646671e-06
6.5103045e-07
3.6304194e-06
5.4385385e-07
3.6112067e-06
4.3802723e-07
3.5891773e-06
3.336071e-07
3.5644721e-06
2.3064132e-07
3.5372283e-06
1.2917061e-07
3.5075439e-06
2.921975e-08
3.4756091e-06
-6.9144048e-08
3.4414983e-06
-1.6591051e-07
3.4053322e-06
-2.6107862e-07
3.367222e-06
-3.5462631e-07
3.3272735e-06
-4.4654247e-07
3.2855863e-06
-5.3681889e-07
3.2422566e-06
-6.2545195e-07
3.1973747e-06
-7.12441e-07
3.1510269e-06
-7.9778813e-07
3.1032956e-06
-8.8149937e-07
3.0542584e-06
-9.6358128e-07
3.0039885e-06
-1.0440438e-06
2.952556e-06
-1.1228981e-06
2.9000264e-06
-1.2001568e-06
2.8464617e-06
-1.2758345e-06
2.7919198e-06
-1.3499454e-06
2.7364562e-06
-1.4225085e-06
2.6801219e-06
-1.4935392e-06
2.6229644e-06
-1.5630559e-06
2.5650292e-06
-1.6310779e-06
2.5063584e-06
-1.6976239e-06
2.4469906e-06
-1.7627126e-06
2.3869625e-06
-1.8263651e-06
2.3263073e-06
-1.8885995e-06
2.265056e-06
-1.949436e-06
2.2032372e-06
-2.0088942e-06
2.1408768e-06
-2.0669936e-06
2.0779984e-06
-2.1237524e-06
2.0146242e-06
-2.1791898e-06
1.9507737e-06
-2.2333235e-06
1.8864642e-06
-2.2861714e-06
1.8217118e-06
-2.3377514e-06
1.7565298e-06
-2.3880793e-06
1.6909312e-06
-2.4371701e-06
1.6249261e-06
-2.4850401e-06
1.5585233e-06
-2.5317029e-06
1.4917304e-06
-2.5771723e-06
1.4245537e-06
-2.6214609e-06
1.3569976e-06
-2.66458e-06
1.2890663e-06
-2.7065412e-06
1.2207614e-06
-2.7473533e-06
1.1520838e-06
-2.7870261e-06
1.0830339e-06
-2.8255663e-06
1.0136104e-06
-2.8629812e-06
9.4381138e-07
-2.8992759e-06
8.7363441e-07
-2.934455e-06
8.030756e-07
-2.9685218e-06
7.3213053e-07
-3.0014785e-06
6.6079356e-07
-3.0333245e-06
5.8905927e-07
-3.0640608e-06
5.1692111e-07
-3.0936849e-06
4.4437198e-07
-3.122194e-06
3.7140427e-07
-3.1495837e-06
2.9801027e-07
-3.1758496e-06
2.2418116e-07
-3.200989e-06
1.4990877e-07
-3.2250108e-06
7.5184496e-08
-3.2479514e-06
-3.2698644e-06
3.2813953e-06
2.2985688e-06
3.3305978e-06
2.1901778e-06
3.3744526e-06
2.0808498e-06
3.4131206e-06
1.9708203e-06
3.4467675e-06
1.8603084e-06
3.47556e-06
1.7495184e-06
3.4996668e-06
1.6386406e-06
3.5192559e-06
1.5278513e-06
3.5344962e-06
1.4173127e-06
3.5455544e-06
1.3071747e-06
3.552596e-06
1.1975747e-06
3.5557843e-06
1.0886392e-06
3.5552795e-06
9.8048268e-07
3.5512394e-06
8.7320987e-07
3.5438177e-06
7.6691486e-07
3.5331648e-06
6.616834e-07
3.5194269e-06
5.5759167e-07
3.5027465e-06
4.547078e-07
3.4832617e-06
3.5309204e-07
3.4611053e-06
2.5279793e-07
3.4364059e-06
1.5387009e-07
3.4092792e-06
5.6346524e-08
3.3798767e-06
-3.9741396e-08
3.3482845e-06
-1.3431826e-07
3.3146213e-06
-2.2741535e-07
3.2789938e-06
-3.1899888e-07
3.2415034e-06
-4.0905226e-07
3.2022482e-06
-4.9756367e-07
3.161321e-06
-5.8452447e-07
3.1188103e-06
-6.6993033e-07
3.0748013e-06
-7.5377903e-07
3.0293738e-06
-8.3607178e-07
2.9826047e-06
-9.1681241e-07
2.9345665e-06
-9.9600559e-07
2.8853277e-06
-1.0736594e-06
2.8349538e-06
-1.1497827e-06
2.7835058e-06
-1.2243865e-06
2.7310418e-06
-1.2974818e-06
2.6776165e-06
-1.3690833e-06
2.6232812e-06
-1.4392036e-06
2.5680843e-06
-1.5078591e-06
2.5120707e-06
-1.5750645e-06
2.4552826e-06
-1.6408358e-06
2.3977601e-06
-1.70519e-06
2.3395389e-06
-1.7681438e-06
2.280654e-06
-1.8297143e-06
2.2211364e-06
-1.8899184e-06
2.1610156e-06
-1.9487735e-06
2.100319e-06
-2.0062968e-06
2.0390705e-06
-2.0625041e-06
1.9772932e-06
-2.1174125e-06
1.9150078e-06
-2.1710381e-06
1.8522326e-06
-2.2233964e-06
1.7889845e-06
-2.2745032e-06
1.725278e-06
-2.3243727e-06
1.6611271e-06
-2.373019e-06
1.596543e-06
-2.4204562e-06
1.5315367e-06
-2.4666964e-06
1.4661157e-06
-2.5117515e-06
1.4002882e-06
-2.5556334e-06
1.3340604e-06
-2.5983521e-06
1.2674361e-06
-2.639917e-06
1.2004194e-06
-2.6803367e-06
1.1330125e-06
-2.7196189e-06
1.0652165e-06
-2.7577704e-06
9.9703234e-07
-2.7947971e-06
9.2845941e-07
-2.8307029e-06
8.5949593e-07
-2.8654915e-06
7.901399e-07
-2.899166e-06
7.2038799e-07
-2.9317263e-06
6.5023659e-07
-2.9631731e-06
5.7968115e-07
-2.9935055e-06
5.0871706e-07
-3.0227209e-06
4.3733803e-07
-3.0508152e-06
3.6553922e-07
-3.0777845e-06
2.9331289e-07
-3.1036234e-06
2.2065296e-07
-3.1283289e-06
1.475522e-07
-3.1519099e-06
7.4003008e-08
-3.1744026e-06
-3.1958609e-06
3.145212e-06
2.2433583e-06
3.1951397e-06
2.14025e-06
3.2399243e-06
2.0360652e-06
3.2797105e-06
1.931034e-06
3.3146473e-06
1.8253717e-06
3.3448856e-06
1.71928e-06
3.370579e-06
1.6129472e-06
3.3918822e-06
1.5065482e-06
3.4089499e-06
1.400245e-06
3.4219367e-06
1.2941879e-06
3.4309959e-06
1.1885154e-06
3.4362797e-06
1.0833553e-06
3.4379379e-06
9.7882442e-07
3.4361183e-06
8.7502933e-07
3.430966e-06
7.7206729e-07
3.4226222e-06
6.7002705e-07
3.4112259e-06
5.6898796e-07
3.396912e-06
4.6902167e-07
3.3798117e-06
3.7019245e-07
3.3600518e-06
2.7255767e-07
3.3377553e-06
1.7616646e-07
3.3130378e-06
8.106411e-08
3.2860307e-06
-1.2734356e-08
3.2568318e-06
-1.0511941e-07
3.2255492e-06
-1.9613296e-07
3.1922873e-06
-2.8573701e-07
3.1571443e-06
-3.7390905e-07
3.1202145e-06
-4.606339e-07
3.0815894e-06
-5.4589935e-07
3.041355e-06
-6.2969593e-07
2.9995941e-06
-7.1201819e-07
2.9563853e-06
-7.9286296e-07
2.9118038e-06
-8.7223081e-07
2.8659207e-06
-9.5012258e-07
2.8188042e-06
-1.0265429e-06
2.7705182e-06
-1.1014969e-06
2.7211238e-06
-1.1749919e-06
2.6706784e-06
-1.2470363e-06
2.6192359e-06
-1.3176407e-06
2.5668481e-06
-1.3868159e-06
2.5135631e-06
-1.4545739e-06
2.4594256e-06
-1.5209269e-06
2.4044785e-06
-1.5858888e-06
2.3487617e-06
-1.6494731e-06
2.2923118e-06
-1.7116939e-06
2.2351642e-06
-1.7725667e-06
2.1773502e-06
-1.8321045e-06
2.1189002e-06
-1.8903234e-06
2.0598415e-06
-1.9472381e-06
2.0001997e-06
-2.0028625e-06
1.9399983e-06
-2.0572113e-06
1.8792592e-06
-2.1102987e-06
1.818001e-06
-2.1621385e-06
1.756242e-06
-2.2127441e-06
1.693998e-06
-2.2621287e-06
1.6312835e-06
-2.3103043e-06
1.5681111e-06
-2.3572838e-06
1.504492e-06
-2.4030775e-06
1.4404368e-06
-2.4476963e-06
1.3759527e-06
-2.4911497e-06
1.3110477e-06
-2.5334471e-06
1.2457279e-06
-2.5745969e-06
1.1799975e-06
-2.6146063e-06
1.1138603e-06
-2.6534819e-06
1.0473193e-06
-2.6912293e-06
9.8037544e-07
-2.7278533e-06
9.1303011e-07
-2.7633577e-06
8.4528336e-07
-2.7977445e-06
7.7713339e-07
-2.831016e-06
7.0857907e-07
-2.8631721e-06
6.39618e-07
-2.8942121e-06
5.7024683e-07
-2.9241345e-06
5.0046251e-07
-2.9529365e-06
4.3026066e-07
-2.9806132e-06
3.5963635e-07
-3.0071604e-06
2.8858503e-07
-3.032572e-06
2.1710117e-07
-3.0568451e-06
1.451795e-07
-3.0799884e-06
7.2814308e-08
-3.1020372e-06
-3.1230469e-06
3.0149687e-06
2.1878541e-06
3.0654101e-06
2.0898085e-06
3.110912e-06
1.9905634e-06
3.151603e-06
1.8903431e-06
3.1876162e-06
1.7893585e-06
3.2190885e-06
1.6878078e-06
3.2461592e-06
1.5858766e-06
3.2689692e-06
1.4837381e-06
3.2876608e-06
1.3815534e-06
3.3023761e-06
1.2794728e-06
3.3132569e-06
1.1776344e-06
3.320445e-06
1.0761674e-06
3.3240797e-06
9.7518966e-07
3.3242996e-06
8.7480941e-07
3.3212403e-06
7.7512668e-07
3.3150355e-06
6.7623176e-07
3.3058158e-06
5.7820761e-07
3.2937092e-06
4.8112842e-07
3.2788399e-06
3.8506179e-07
3.2613295e-06
2.9006799e-07
3.2412953e-06
1.9620093e-07
3.2188525e-06
1.0350671e-07
3.1940994e-06
1.2018832e-08
3.1671726e-06
-7.8192515e-08
3.1381536e-06
-1.6711379e-07
3.1071431e-06
-2.5472655e-07
3.0742383e-06
-3.4100431e-07
3.039531e-06
-4.2592689e-07
3.0031089e-06
-5.0947726e-07
2.9650566e-06
-5.9164359e-07
2.9254545e-06
-6.7241607e-07
2.8843803e-06
-7.5178902e-07
2.8419067e-06
-8.2975682e-07
2.7981035e-06
-9.0631946e-07
2.7530377e-06
-9.8147724e-07
2.7067729e-06
-1.0552319e-06
2.6593683e-06
-1.1275874e-06
2.6108816e-06
-1.1985495e-06
2.5613666e-06
-1.2681255e-06
2.5108742e-06
-1.3363233e-06
2.4594517e-06
-1.4031515e-06
2.4071449e-06
-1.4686202e-06
2.3539965e-06
-1.5327402e-06
2.3000456e-06
-1.5955222e-06
2.2453304e-06
-1.6569783e-06
2.1898853e-06
-1.7171219e-06
2.1337435e-06
-1.7759624e-06
2.0769349e-06
-1.8335148e-06
2.0194877e-06
-1.8897908e-06
1.9614287e-06
-1.9448032e-06
1.9027813e-06
-1.998564e-06
1.8435676e-06
-2.0510851e-06
1.7838087e-06
-2.1023794e-06
1.7235227e-06
-2.1524583e-06
1.6627263e-06
-2.2013325e-06
1.6014355e-06
-2.2490135e-06
1.5396636e-06
-2.2955117e-06
1.4774229e-06
-2.3408368e-06
1.4147241e-06
-2.3849974e-06
1.3515768e-06
-2.4280026e-06
1.2879896e-06
-2.4698597e-06
1.2239693e-06
-2.5105765e-06
1.1595218e-06
-2.5501589e-06
1.0946521e-06
-2.5886125e-06
1.0293642e-06
-2.6259412e-06
9.6366035e-07
-2.6621497e-06
8.9754361e-07
-2.6972407e-06
8.3101402e-07
-2.7312154e-06
7.6407261e-07
-2.7640742e-06
6.9671862e-07
-2.7958178e-06
6.2895092e-07
-2.8264443e-06
5.6076846e-07
-2.8559519e-06
4.9216797e-07
-2.8843362e-06
4.231476e-07
-2.9115927e-06
3.5370391e-07
-2.9377167e-06
2.8383304e-07
-2.9627012e-06
2.1353161e-07
-2.9865438e-06
1.4279499e-07
-3.0092515e-06
7.1618982e-08
-3.0308615e-06
-3.0514274e-06
2.8904496e-06
2.1322449e-06
2.9412126e-06
2.0390456e-06
2.9872372e-06
1.944539e-06
3.0286369e-06
1.8489432e-06
3.0655307e-06
1.7524648e-06
3.0980411e-06
1.6552974e-06
3.1262939e-06
1.5576236e-06
3.1504179e-06
1.4596142e-06
3.1705424e-06
1.3614289e-06
3.1867984e-06
1.2632167e-06
3.1993168e-06
1.165116e-06
3.2082286e-06
1.0672557e-06
3.2136637e-06
9.6975452e-07
3.2157509e-06
8.727222e-07
3.2146175e-06
7.7626e-07
3.2103889e-06
6.8046047e-07
3.2031883e-06
5.854082e-07
3.1931362e-06
4.9118022e-07
3.1803508e-06
3.9784729e-07
3.164947e-06
3.0547195e-07
3.1470365e-06
2.1411113e-07
3.1267288e-06
1.2381461e-07
3.104123e-06
3.4624681e-08
3.0793412e-06
-5.3410928e-08
3.0524662e-06
-1.4023855e-07
3.0235959e-06
-2.2585609e-07
2.9928227e-06
-3.1023161e-07
2.9602355e-06
-3.9333955e-07
2.9259201e-06
-4.751617e-07
2.8899578e-06
-5.5568145e-07
2.8524277e-06
-6.3488614e-07
2.8134043e-06
-7.1276547e-07
2.7729596e-06
-7.8931225e-07
2.7311619e-06
-8.6452168e-07
2.6880761e-06
-9.3839137e-07
2.6437653e-06
-1.0109212e-06
2.5982882e-06
-1.0821102e-06
2.5517013e-06
-1.1519627e-06
2.5040574e-06
-1.2204817e-06
2.4554071e-06
-1.2876732e-06
2.4057983e-06
-1.3535426e-06
2.3552756e-06
-1.4180977e-06
2.3038819e-06
-1.4813464e-06
2.2516572e-06
-1.5432976e-06
2.1986391e-06
-1.6039605e-06
2.144862e-06
-1.6633447e-06
2.0903599e-06
-1.7214603e-06
2.0351632e-06
-1.778318e-06
1.9793002e-06
-1.8339278e-06
1.9227977e-06
-1.888301e-06
1.8656808e-06
-1.9414472e-06
1.8079725e-06
-1.9933768e-06
1.7496931e-06
-2.0441e-06
1.6908625e-06
-2.0936276e-06
1.6314984e-06
-2.1419684e-06
1.571617e-06
-2.1891321e-06
1.5112329e-06
-2.2351274e-06
1.4503588e-06
-2.2799626e-06
1.3890076e-06
-2.323646e-06
1.3271887e-06
-2.3661838e-06
1.2649122e-06
-2.4075833e-06
1.202186e-06
-2.4478503e-06
1.139017e-06
-2.48699e-06
1.0754111e-06
-2.5250066e-06
1.0113738e-06
-2.5619038e-06
9.4690875e-07
-2.5976845e-06
8.8201872e-07
-2.6323509e-06
8.1670706e-07
-2.6659034e-06
7.5097417e-07
-2.6983415e-06
6.8482163e-07
-2.7296653e-06
6.1824971e-07
-2.7598725e-06
5.5125731e-07
-2.7889595e-06
4.8384437e-07
-2.816923e-06
4.1600896e-07
-2.8437574e-06
3.4774937e-07
-2.8694571e-06
2.7906286e-07
-2.8940148e-06
2.0994777e-07
-2.9174287e-06
1.4040086e-07
-2.9397045e-06
7.0419303e-08
-2.9608798e-06
-2.9810086e-06
2.7714398e-06
2.0767004e-06
2.8223505e-06
1.9881349e-06
2.8687205e-06
1.8981689e-06
2.9106498e-06
1.807014e-06
2.9482433e-06
1.7148712e-06
2.9816108e-06
1.62193e-06
3.0108656e-06
1.5283689e-06
3.0361236e-06
1.4343561e-06
3.0575034e-06
1.340049e-06
3.0751247e-06
1.2455954e-06
3.0891075e-06
1.1511332e-06
3.0995731e-06
1.0567901e-06
3.1066418e-06
9.6268578e-07
3.1104334e-06
8.6893057e-07
3.1110671e-06
7.7562642e-07
3.1086601e-06
6.8286747e-07
3.1033281e-06
5.9074012e-07
3.0951851e-06
4.9932335e-07
3.0843422e-06
4.0868988e-07
3.0709086e-06
3.1890565e-07
3.0549907e-06
2.3002886e-07
3.0366913e-06
1.4211417e-07
3.0161083e-06
5.5207638e-08
2.9933563e-06
-3.0659001e-08
2.9685119e-06
-1.153942e-07
2.9416726e-06
-1.990168e-07
2.9129279e-06
-2.8148657e-07
2.8823625e-06
-3.627743e-07
2.850059e-06
-4.4285842e-07
2.816097e-06
-5.217194e-07
2.7805522e-06
-5.9934133e-07
2.743498e-06
-6.7571126e-07
2.7050043e-06
-7.5081828e-07
2.6651377e-06
-8.2465537e-07
2.6239626e-06
-8.97216e-07
2.5815394e-06
-9.6849795e-07
2.5379268e-06
-1.0384976e-06
2.4931801e-06
-1.1072158e-06
2.4473516e-06
-1.1746532e-06
2.4004911e-06
-1.2408125e-06
2.3526461e-06
-1.3056976e-06
2.3038616e-06
-1.3693129e-06
2.2541796e-06
-1.4316644e-06
2.20364e-06
-1.492758e-06
2.1522802e-06
-1.5526007e-06
2.1001361e-06
-1.6112007e-06
2.0472403e-06
-1.6685646e-06
1.9936246e-06
-1.7247022e-06
1.9393172e-06
-1.7796204e-06
1.8843457e-06
-1.8333291e-06
1.8287351e-06
-1.8858364e-06
1.772509e-06
-1.9371507e-06
1.7156894e-06
-1.9872804e-06
1.6582958e-06
-2.0362341e-06
1.6003469e-06
-2.0840197e-06
1.54186e-06
-2.1306452e-06
1.48285e-06
-2.1761173e-06
1.423331e-06
-2.2204438e-06
1.3633159e-06
-2.2636307e-06
1.3028155e-06
-2.3056837e-06
1.2418416e-06
-2.3466093e-06
1.1804023e-06
-2.3864109e-06
1.1185057e-06
-2.4250934e-06
1.0561592e-06
-2.4626601e-06
9.9336849e-07
-2.4991131e-06
9.301386e-07
-2.5344548e-06
8.6647386e-07
-2.568686e-06
8.0237783e-07
-2.6018073e-06
7.3785326e-07
-2.6338168e-06
6.7290207e-07
-2.6647144e-06
6.0752606e-07
-2.6944965e-06
5.4172605e-07
-2.7231593e-06
4.7550109e-07
-2.7506985e-06
4.0885292e-07
-2.777109e-06
3.417794e-07
-2.8023836e-06
2.7428085e-07
-2.8265164e-06
2.0635483e-07
-2.8495025e-06
1.3800037e-07
-2.8713502e-06
6.9215792e-08
-2.8920952e-06
-2.9117924e-06
2.6577271e-06
2.021373e-06
2.7086282e-06
1.9372339e-06
2.755183e-06
1.8516142e-06
2.7974779e-06
1.7647191e-06
2.8356056e-06
1.6767434e-06
2.8696637e-06
1.5878721e-06
2.8997531e-06
1.4982794e-06
2.925979e-06
1.4081303e-06
2.9484484e-06
1.3175796e-06
2.9672706e-06
1.2267733e-06
2.9825559e-06
1.1358478e-06
2.9944154e-06
1.0449305e-06
3.0029608e-06
9.5414045e-07
3.0083032e-06
8.6358812e-07
3.0105533e-06
7.7337622e-07
3.0098211e-06
6.8359979e-07
3.0062149e-06
5.9434625e-07
2.9998416e-06
5.056967e-07
2.9908065e-06
4.1772523e-07
2.9792127e-06
3.3049938e-07
2.9651604e-06
2.4408143e-07
2.9487485e-06
1.5852589e-07
2.930071e-06
7.3885383e-08
2.9092288e-06
-9.8169043e-09
2.8863077e-06
-9.2473129e-08
2.8613963e-06
-1.741056e-07
2.8345794e-06
-2.5466943e-07
2.8059395e-06
-3.3413457e-07
2.775556e-06
-4.1247494e-07
2.7435056e-06
-4.8966917e-07
2.7098625e-06
-5.6569804e-07
2.6746968e-06
-6.4054542e-07
2.6380775e-06
-7.1419913e-07
2.6000695e-06
-7.8664723e-07
2.5607354e-06
-8.5788204e-07
2.5201347e-06
-9.2789707e-07
2.4783242e-06
-9.9668738e-07
2.4353589e-06
-1.0642505e-06
2.3912899e-06
-1.1305843e-06
2.346167e-06
-1.1956896e-06
2.3000364e-06
-1.2595672e-06
2.2529431e-06
-1.3222196e-06
2.2049286e-06
-1.38365e-06
2.1560331e-06
-1.4438626e-06
2.1062938e-06
-1.5028612e-06
2.0557462e-06
-1.5606529e-06
2.0044236e-06
-1.6172422e-06
1.952357e-06
-1.6726356e-06
1.8995761e-06
-1.7268398e-06
1.8461082e-06
-1.7798613e-06
1.7919794e-06
-1.8317072e-06
1.7372123e-06
-1.8823838e-06
1.6818309e-06
-1.9318988e-06
1.6258549e-06
-1.9802579e-06
1.5693033e-06
-2.0274679e-06
1.5121938e-06
-2.0735359e-06
1.4545431e-06
-2.1184667e-06
1.3963657e-06
-2.1622663e-06
1.337675e-06
-2.2049404e-06
1.278484e-06
-2.2464925e-06
1.2188028e-06
-2.2869282e-06
1.1586423e-06
-2.3262503e-06
1.098011e-06
-2.3644625e-06
1.0369174e-06
-2.4015664e-06
9.7536796e-07
-2.4375637e-06
9.1336886e-07
-2.4724557e-06
8.5092587e-07
-2.5062428e-06
7.8804324e-07
-2.5389243e-06
7.2472497e-07
-2.5704988e-06
6.609741e-07
-2.6009633e-06
5.96793e-07
-2.6303151e-06
5.3218383e-07
-2.6585503e-06
4.6714831e-07
-2.6856631e-06
4.0168695e-07
-2.7116475e-06
3.3580109e-07
-2.7364977e-06
2.6949046e-07
-2.7602058e-06
2.0275576e-07
-2.7827676e-06
1.3559578e-07
-2.8041905e-06
6.8010937e-08
-2.8245104e-06
-2.8437816e-06
2.5491021e-06
1.9663988e-06
2.5998522e-06
1.8864838e-06
2.6464458e-06
1.8050205e-06
2.6889575e-06
1.7222074e-06
2.727468e-06
1.6382329e-06
2.7620634e-06
1.5532768e-06
2.7928339e-06
1.4675089e-06
2.8198731e-06
1.3810909e-06
2.8432782e-06
1.2941745e-06
2.8631482e-06
1.2069032e-06
2.8795841e-06
1.119412e-06
2.8926878e-06
1.0318269e-06
2.9025623e-06
9.4426609e-07
2.9093103e-06
8.5684005e-07
2.9130349e-06
7.6965158e-07
2.9138381e-06
6.8279629e-07
2.9118217e-06
5.9636266e-07
2.9070856e-06
5.1043271e-07
2.8997292e-06
4.250816e-07
2.8898499e-06
3.4037871e-07
2.8775428e-06
2.5638834e-07
2.8629013e-06
1.7316735e-07
2.8460179e-06
9.0768588e-08
2.8269698e-06
9.2313209e-09
2.8058706e-06
-7.1374192e-08
2.7827853e-06
-1.5102045e-07
2.7577986e-06
-2.2968247e-07
2.7309897e-06
-3.0732591e-07
2.7024363e-06
-3.839215e-07
2.6722115e-06
-4.5944466e-07
2.640387e-06
-5.3387343e-07
2.6070319e-06
-6.0719035e-07
2.572212e-06
-6.7937915e-07
2.5359909e-06
-7.5042605e-07
2.4984295e-06
-8.2032082e-07
2.4595864e-06
-8.8905385e-07
2.4195168e-06
-9.5661789e-07
2.378274e-06
-1.0230079e-06
2.3359098e-06
-1.0882199e-06
2.2924713e-06
-1.1522513e-06
2.248006e-06
-1.2151018e-06
2.2025571e-06
-1.2767709e-06
2.1561667e-06
-1.3372595e-06
2.1088735e-06
-1.3965694e-06
2.060716e-06
-1.4547036e-06
2.0117279e-06
-1.5116648e-06
1.9619439e-06
-1.5674583e-06
1.9113951e-06
-1.6220869e-06
1.8601111e-06
-1.6755556e-06
1.8081192e-06
-1.7278695e-06
1.7554451e-06
-1.7790334e-06
1.7021147e-06
-1.8290529e-06
1.6481491e-06
-1.8779332e-06
1.5935699e-06
-1.9256785e-06
1.5383973e-06
-1.9722953e-06
1.4826487e-06
-2.0177872e-06
1.4263417e-06
-2.0621597e-06
1.3694913e-06
-2.1054159e-06
1.3121126e-06
-2.1475614e-06
1.2542174e-06
-2.1885976e-06
1.1958194e-06
-2.2285299e-06
1.1369281e-06
-2.2673591e-06
1.0775534e-06
-2.3050877e-06
1.0177051e-06
-2.341718e-06
9.5739051e-07
-2.3772492e-06
8.9661721e-07
-2.4116824e-06
8.3539143e-07
-2.445017e-06
7.73718e-07
-2.4772509e-06
7.1160231e-07
-2.5083831e-06
6.4904867e-07
-2.5384098e-06
5.8606129e-07
-2.5673276e-06
5.2264202e-07
-2.5951311e-06
4.5879441e-07
-2.6218153e-06
3.9451993e-07
-2.6473734e-06
3.2982137e-07
-2.6717989e-06
2.6469972e-07
-2.6950839e-06
1.9915562e-07
-2.7172235e-06
1.3318999e-07
-2.738225e-06
6.6804829e-08
-2.7581255e-06
-2.7769767e-06
2.4453591e-06
1.9118986e-06
2.4958315e-06
1.8360114e-06
2.5423326e-06
1.7585194e-06
2.5849259e-06
1.6796141e-06
2.6236812e-06
1.5994777e-06
2.6586737e-06
1.5182843e-06
2.6899829e-06
1.4361996e-06
2.7176933e-06
1.3533807e-06
2.7418912e-06
1.2699765e-06
2.7626667e-06
1.1861278e-06
2.7801118e-06
1.1019671e-06
2.7943193e-06
1.0176192e-06
2.8053843e-06
9.3320112e-07
2.8134013e-06
8.4882304e-07
2.8184657e-06
7.6458715e-07
2.8206731e-06
6.8058919e-07
2.8201174e-06
5.9691831e-07
2.8168932e-06
5.1365702e-07
2.8110929e-06
4.3088189e-07
2.8028077e-06
3.486639e-07
2.7921288e-06
2.6706725e-07
2.7791439e-06
1.8615224e-07
2.7639398e-06
1.0597256e-07
2.7465961e-06
2.6575193e-08
2.727211e-06
-5.1988943e-08
2.7058526e-06
-1.2966212e-07
2.6826004e-06
-2.0643043e-07
2.6575321e-06
-2.8225744e-07
2.6307204e-06
-3.5710982e-07
2.6022373e-06
-4.3096133e-07
2.5721515e-06
-5.037876e-07
2.5405296e-06
-5.7556862e-07
2.5074357e-06
-6.4628512e-07
2.4729318e-06
-7.1592209e-07
2.4370763e-06
-7.8446533e-07
2.3999262e-06
-8.51904e-07
2.3615366e-06
-9.1822821e-07
2.3219591e-06
-9.834304e-07
2.2812439e-06
-1.0475047e-06
2.2394387e-06
-1.1104464e-06
2.1965893e-06
-1.1722525e-06
2.1527385e-06
-1.2329199e-06
2.1079276e-06
-1.2924486e-06
2.0621958e-06
-1.3508375e-06
2.0155798e-06
-1.4080878e-06
1.968116e-06
-1.4642011e-06
1.9198363e-06
-1.5191784e-06
1.8707728e-06
-1.5730233e-06
1.8209548e-06
-1.6257375e-06
1.7704106e-06
-1.6773252e-06
1.7191659e-06
-1.7277889e-06
1.667246e-06
-1.777133e-06
1.6146738e-06
-1.8253609e-06
1.5614706e-06
-1.8724755e-06
1.5076569e-06
-1.9184816e-06
1.4532512e-06
-1.9633816e-06
1.3982709e-06
-2.0071795e-06
1.3427328e-06
-2.049878e-06
1.2866512e-06
-2.0914798e-06
1.2300407e-06
-2.1319872e-06
1.1729131e-06
-2.1714022e-06
1.1152806e-06
-2.2097267e-06
1.057154e-06
-2.2469613e-06
9.9854253e-07
-2.2831064e-06
9.3945541e-07
-2.3181622e-06
8.7990104e-07
-2.3521277e-06
8.198858e-07
-2.3850018e-06
7.5941714e-07
-2.4167823e-06
6.9849989e-07
-2.4474661e-06
6.3714028e-07
-2.4770501e-06
5.7534241e-07
-2.5055295e-06
5.1311066e-07
-2.5328994e-06
4.5044824e-07
-2.559153e-06
3.8735915e-07
-2.5842841e-06
3.2384604e-07
-2.6082857e-06
2.5991101e-07
-2.631149e-06
1.9555706e-07
-2.6528697e-06
1.3078617e-07
-2.6734542e-06
6.559966e-08
-2.6929388e-06
-2.7113768e-06
2.3462964e-06
1.8579796e-06
2.3963781e-06
1.7859295e-06
2.4426687e-06
1.712229e-06
2.4852214e-06
1.6370613e-06
2.5240957e-06
1.5606032e-06
2.559357e-06
1.4830231e-06
2.5910755e-06
1.4044811e-06
2.6193251e-06
1.3251309e-06
2.6441842e-06
1.2451173e-06
2.6657333e-06
1.1645787e-06
2.6840555e-06
1.0836449e-06
2.6992362e-06
1.0024385e-06
2.7113614e-06
9.210758e-07
2.7205192e-06
8.396655e-07
2.7267972e-06
7.58309e-07
2.7302836e-06
6.7710296e-07
2.7310667e-06
5.9613526e-07
2.7292341e-06
5.1548969e-07
2.7248727e-06
4.352433e-07
2.7180691e-06
3.5546762e-07
2.7089074e-06
2.7622874e-07
2.6974713e-06
1.975884e-07
2.6838426e-06
1.1960134e-07
2.6680998e-06
4.2317856e-08
2.6503312e-06
-3.4220457e-08
2.6306045e-06
-1.0993545e-07
2.6089964e-06
-1.8482249e-07
2.5855795e-06
-2.5884072e-07
2.5604256e-06
-3.3195575e-07
2.5336024e-06
-4.0413828e-07
2.5051771e-06
-4.7536231e-07
2.4752136e-06
-5.456052e-07
2.4437735e-06
-6.1484504e-07
2.410917e-06
-6.8306532e-07
2.3767017e-06
-7.5025e-07
2.3411821e-06
-8.1638447e-07
2.3044127e-06
-8.8145862e-07
2.2664434e-06
-9.4546126e-07
2.2273238e-06
-1.0083852e-06
2.1871005e-06
-1.0702231e-06
2.1458177e-06
-1.1309696e-06
2.1035182e-06
-1.1906206e-06
2.0602432e-06
-1.2491734e-06
2.0160306e-06
-1.306625e-06
1.9709184e-06
-1.3629754e-06
1.9249404e-06
-1.4182229e-06
1.8781303e-06
-1.4723685e-06
1.8305191e-06
-1.525412e-06
1.7821367e-06
-1.5773553e-06
1.7330112e-06
-1.6281999e-06
1.6831691e-06
-1.6779467e-06
1.6326347e-06
-1.7265988e-06
1.581432e-06
-1.7741582e-06
1.529583e-06
-1.8206264e-06
1.4771081e-06
-1.8660066e-06
1.424026e-06
-1.9102997e-06
1.3703559e-06
-1.9535091e-06
1.3161135e-06
-1.9956357e-06
1.2613147e-06
-2.0366812e-06
1.2059743e-06
-2.0766468e-06
1.1501056e-06
-2.1155331e-06
1.0937206e-06
-2.1533417e-06
1.036831e-06
-2.1900717e-06
9.7944776e-07
-2.225723e-06
9.2157965e-07
-2.2602941e-06
8.6323607e-07
-2.2937843e-06
8.044252e-07
-2.3261912e-06
7.4515442e-07
-2.3575113e-06
6.8543042e-07
-2.3877421e-06
6.2525944e-07
-2.4168791e-06
5.6464746e-07
-2.4449173e-06
5.035992e-07
-2.4718505e-06
4.4211865e-07
-2.4976731e-06
3.8021169e-07
-2.5223769e-06
3.1788095e-07
-2.545955e-06
2.5513112e-07
-2.5683993e-06
1.9196499e-07
-2.5897033e-06
1.2838574e-07
-2.6098748e-06
6.4396444e-08
-2.6289497e-06
-2.6469802e-06
2.2517169e-06
1.804736e-06
2.3013077e-06
1.7363388e-06
2.3472822e-06
1.6662544e-06
2.3896841e-06
1.5946594e-06
2.4285638e-06
1.5217235e-06
2.4639774e-06
1.4476096e-06
2.4959857e-06
1.3724727e-06
2.5246543e-06
1.2964623e-06
2.5500524e-06
1.2197194e-06
2.5722523e-06
1.1423788e-06
2.5913295e-06
1.0645677e-06
2.6073607e-06
9.8640726e-07
2.6204251e-06
9.0801142e-07
2.6306031e-06
8.2948756e-07
2.6379754e-06
7.5093669e-07
2.642624e-06
6.7245426e-07
2.6446303e-06
5.9412886e-07
2.6440764e-06
5.1604352e-07
2.6410435e-06
4.3827629e-07
2.635612e-06
3.6089912e-07
2.6278617e-06
2.8397889e-07
2.6178718e-06
2.0757805e-07
2.605719e-06
1.3175396e-07
2.591478e-06
5.6558954e-08
2.5752315e-06
-1.7974124e-08
2.5570455e-06
-9.1749448e-08
2.5369926e-06
-1.6476961e-07
2.515143e-06
-2.3699108e-07
2.491564e-06
-3.0837683e-07
2.4663219e-06
-3.7889632e-07
2.4394806e-06
-4.4852087e-07
2.4111016e-06
-5.1722629e-07
2.3812452e-06
-5.8498874e-07
2.3499692e-06
-6.5178937e-07
2.3173291e-06
-7.1761e-07
2.283379e-06
-7.8243426e-07
2.2481704e-06
-8.4624993e-07
2.2117535e-06
-9.090443e-07
2.1741756e-06
-9.7080741e-07
2.1354826e-06
-1.03153e-06
2.0957184e-06
-1.0912052e-06
2.0549249e-06
-1.149827e-06
2.0131417e-06
-1.2073904e-06
1.9704079e-06
-1.2638909e-06
1.9267589e-06
-1.3193264e-06
1.8822299e-06
-1.373694e-06
1.8368544e-06
-1.4269928e-06
1.7906628e-06
-1.4792206e-06
1.7436853e-06
-1.5303773e-06
1.695949e-06
-1.5804636e-06
1.6474814e-06
-1.6294792e-06
1.5983074e-06
-1.6774249e-06
1.5484505e-06
-1.724301e-06
1.4979327e-06
-1.7701091e-06
1.4467752e-06
-1.8148494e-06
1.3949984e-06
-1.8585228e-06
1.3426196e-06
-1.9011306e-06
1.2896564e-06
-1.9426724e-06
1.2361249e-06
-1.9831496e-06
1.18204e-06
-2.0225622e-06
1.1274166e-06
-2.0609097e-06
1.072267e-06
-2.098192e-06
1.0166036e-06
-2.1344081e-06
9.60437e-07
-2.1695567e-06
9.0377861e-07
-2.2036357e-06
8.4663754e-07
-2.2366431e-06