/*--------------------------------*- C++ -*----------------------------------*\
| =========                 |                                                 |
| \\      /  F ield         | OpenFOAM: The Open Source CFD Toolbox           |
|  \\    /   O peration     | Version:  2106                                  |
|   \\  /    A nd           | Website:  www.openfoam.com                      |
|    \\/     M anipulation  |                                                 |
\*---------------------------------------------------------------------------*/
FoamFile
{
    version     2.0;
    format      ascii;
    arch        "LSB;label=32;scalar=64";
    class       surfaceScalarField;
    location    "0.013";
    object      phi_0;
}
// * * * * * * * * * * * * * * * * * * * * * * * * * * * * * * * * * * * * * //

dimensions      [0 3 -1 0 0 0 0];

oriented        oriented;

internalField   nonuniform List<scalar> 
8064
(
-0.00025962527
0.00025962527
-0.00051684546
0.00025722019
-0.00076927411
0.00025242865
-0.0010145621
0.00024528802
-0.0012504168
0.00023585467
-0.001474621
0.0002242042
-0.0016850527
0.00021043166
-0.0018797043
0.00019465166
-0.0020567025
0.00017699821
-0.0022143268
0.00015762428
-0.0023510278
0.00013670096
-0.0024654441
0.00011441632
-0.0025564179
9.0973773e-05
-0.0026230079
6.6590017e-05
-0.0026644995
4.1491668e-05
-0.0026804196
1.5920004e-05
-0.0026705353
-9.8842671e-06
-0.0026348619
-3.5673432e-05
-0.0025736642
-6.1197666e-05
-0.0024874566
-8.6207582e-05
-0.0023769999
-0.00011045667
-0.0022432968
-0.00013370318
-0.0020875844
-0.00015571231
-0.001911326
-0.00017625844
-0.0017161984
-0.00019512758
-0.0015040785
-0.00021211991
-0.0012770261
-0.0002270524
-0.0010372645
-0.0002397616
-0.00078715822
-0.00025010629
-0.00052918825
-0.00025796997
-0.00026592509
-0.00026326315
2.1803026e-14
-0.00026592509
0.00026592509
-0.00026592509
0.00052918825
-0.00026326315
0.00078715822
-0.00025796997
0.0010372645
-0.00025010629
0.0012770261
-0.0002397616
0.0015040785
-0.0002270524
0.0017161984
-0.00021211991
0.001911326
-0.00019512758
0.0020875844
-0.00017625844
0.0022432968
-0.00015571231
0.0023769999
-0.00013370318
0.0024874566
-0.00011045667
0.0025736642
-8.6207582e-05
0.0026348619
-6.1197666e-05
0.0026705353
-3.5673432e-05
0.0026804196
-9.8842671e-06
0.0026644995
1.5920004e-05
0.0026230079
4.1491668e-05
0.0025564179
6.6590017e-05
0.0024654441
9.0973773e-05
0.0023510278
0.00011441632
0.0022143268
0.00013670096
0.0020567025
0.00015762428
0.0018797043
0.00017699821
0.0016850527
0.00019465166
0.001474621
0.00021043166
0.0012504168
0.0002242042
0.0010145621
0.00023585467
0.00076927411
0.00024528802
0.00051684546
0.00025242865
0.00025962527
0.00025722019
0.00025962527
-0.0002611929
0.00052081817
-0.00051996989
0.00051599718
-0.00077393352
0.00050639227
-0.0010207234
0.00049207787
-0.0012580349
0.00047316624
-0.0014836389
0.00044980815
-0.0016954006
0.00042219334
-0.0018912997
0.0003905508
-0.0020694501
0.00035514856
-0.0022281186
0.00031629283
-0.0023657441
0.00027432644
-0.0024809542
0.0002296264
-0.0025725811
0.00018260069
-0.0026396753
0.00013368424
-0.0026815181
8.3334426e-05
-0.0026976269
3.2028877e-05
-0.0026877666
-1.9744563e-05
-0.0026519506
-7.1489437e-05
-0.0025904433
-0.00012270497
-0.0025037595
-0.00017289139
-0.0023926619
-0.00022155427
-0.0022581564
-0.0002682087
-0.0021014852
-0.00031238351
-0.0019241179
-0.00035362575
-0.00172774
-0.00039150551
-0.0015142389
-0.00042562099
-0.0012856874
-0.00045560392
-0.0010443239
-0.00048112507
-0.00079253039
-0.00050189978
-0.00053280725
-0.00051769312
-0.00026774598
-0.00052832442
2.2045099e-14
-0.00053367107
0.00026774598
-0.00053367107
0.00053280725
-0.00052832442
0.00079253039
-0.00051769312
0.0010443239
-0.00050189978
0.0012856874
-0.00048112507
0.0015142389
-0.00045560392
0.00172774
-0.00042562099
0.0019241179
-0.00039150551
0.0021014852
-0.00035362575
0.0022581564
-0.00031238351
0.0023926619
-0.0002682087
0.0025037595
-0.00022155427
0.0025904433
-0.00017289139
0.0026519506
-0.00012270497
0.0026877666
-7.1489437e-05
0.0026976269
-1.9744563e-05
0.0026815181
3.2028877e-05
0.0026396753
8.3334426e-05
0.0025725811
0.00013368424
0.0024809542
0.00018260069
0.0023657441
0.0002296264
0.0022281186
0.00027432644
0.0020694501
0.00031629283
0.0018912997
0.00035514856
0.0016954006
0.0003905508
0.0014836389
0.00042219334
0.0012580349
0.00044980815
0.0010207234
0.00047316624
0.00077393352
0.00049207787
0.00051996989
0.00050639227
0.0002611929
0.00051599718
0.00052081817
-0.00026325856
0.00078407673
-0.00052408803
0.00077682665
-0.00078007742
0.00076238167
-0.0010288522
0.00074085263
-0.0012680929
0.00071240692
-0.0014955543
0.00067726959
-0.0017090852
0.00063572425
-0.0019066481
0.0005881137
-0.0020863393
0.00053483976
-0.0022464086
0.00047636215
-0.0023852783
0.00041319614
-0.0025015609
0.00034590893
-0.0025940749
0.00027511475
-0.0026618596
0.00020146891
-0.0027041862
0.00012566098
-0.0027205656
4.8408354e-05
-0.0027107571
-2.9553096e-05
-0.002674771
-0.00010747553
-0.0026128704
-0.00018460557
-0.0025255704
-0.00026019137
-0.0024136356
-0.00033348907
-0.0022780755
-0.00040376886
-0.0021201377
-0.00047032127
-0.0019412997
-0.00053246375
-0.0017432575
-0.00058954776
-0.001527912
-0.0006409665
-0.0012973528
-0.00068616309
-0.0010538388
-0.0007246391
-0.00079977547
-0.00075596307
-0.00053769009
-0.0007797785
-0.00027020343
-0.00079581109
2.0648744e-14
-0.0008038745
0.00027020343
-0.0008038745
0.00053769009
-0.00079581109
0.00079977547
-0.0007797785
0.0010538388
-0.00075596307
0.0012973528
-0.0007246391
0.001527912
-0.00068616309
0.0017432575
-0.0006409665
0.0019412997
-0.00058954776
0.0021201377
-0.00053246375
0.0022780755
-0.00047032127
0.0024136356
-0.00040376886
0.0025255704
-0.00033348907
0.0026128704
-0.00026019137
0.002674771
-0.00018460557
0.0027107571
-0.00010747553
0.0027205656
-2.9553096e-05
0.0027041862
4.8408354e-05
0.0026618596
0.00012566098
0.0025940749
0.00020146891
0.0025015609
0.00027511475
0.0023852783
0.00034590893
0.0022464086
0.00041319614
0.0020863393
0.00047636215
0.0019066481
0.00053483976
0.0017090852
0.0005881137
0.0014955543
0.00063572425
0.0012680929
0.00067726959
0.0010288522
0.00071240692
0.00078007742
0.00074085263
0.00052408803
0.00076238167
0.00026325856
0.00077682665
0.00078407673
-0.00026583769
0.0010499144
-0.00052923093
0.0010402199
-0.00078775283
0.0010209036
-0.001039012
0.00099211177
-0.0012806708
0.00095406571
-0.0015104644
0.00090706327
-0.0017262208
0.00085148061
-0.0019258804
0.00078777331
-0.0021075171
0.00071647647
-0.0022693584
0.0006382034
-0.0024098049
0.00055364269
-0.0025274493
0.00046355331
-0.0026210926
0.00036875801
-0.0026897587
0.00027013508
-0.0027327068
0.00016860901
-0.002749439
6.5140593e-05
-0.0027397081
-3.9284017e-05
-0.0027035205
-0.00014366306
-0.0026411378
-0.00024698833
-0.0025530751
-0.00034825404
-0.0024400991
-0.00044646508
-0.0023032231
-0.00054064487
-0.002143701
-0.00062984339
-0.001963019
-0.0007131457
-0.0017628855
-0.00078968128
-0.0015452177
-0.00085863431
-0.0013121259
-0.00091925484
-0.0010658945
-0.00097087054
-0.00080895913
-0.0010128984
-0.00054388136
-0.0010448563
-0.00027331998
-0.0010663725
1.703428e-14
-0.0010771945
0.00027331998
-0.0010771945
0.00054388136
-0.0010663725
0.00080895913
-0.0010448563
0.0010658945
-0.0010128984
0.0013121259
-0.00097087054
0.0015452177
-0.00091925484
0.0017628855
-0.00085863431
0.001963019
-0.00078968128
0.002143701
-0.0007131457
0.0023032231
-0.00062984339
0.0024400991
-0.00054064487
0.0025530751
-0.00044646508
0.0026411378
-0.00034825404
0.0027035205
-0.00024698833
0.0027397081
-0.00014366306
0.002749439
-3.9284017e-05
0.0027327068
6.5140593e-05
0.0026897587
0.00016860901
0.0026210926
0.00027013508
0.0025274493
0.00036875801
0.0024098049
0.00046355331
0.0022693584
0.00055364269
0.0021075171
0.0006382034
0.0019258804
0.00071647647
0.0017262208
0.00078777331
0.0015104644
0.00085148061
0.0012806708
0.00090706327
0.001039012
0.00095406571
0.00078775283
0.00099211177
0.00052923093
0.0010209036
0.00026583769
0.0010402199
0.0010499144
-0.00026885257
0.001318767
-0.0005352443
0.0013066116
-0.00079673119
0.0012823905
-0.0010509032
0.0012462838
-0.0012954023
0.0011985648
-0.0015279409
0.0011396019
-0.0017463222
0.0010698619
-0.0019484603
0.00098991143
-0.0021324016
0.00090041779
-0.0022963461
0.00080214783
-0.0024386677
0.00069596433
-0.0025579344
0.00058282002
-0.0026529254
0.00046374897
-0.0027226463
0.00033985599
-0.0027663415
0.00021230421
-0.0027835029
8.2301999e-05
-0.0027738761
-4.8910821e-05
-0.0027374635
-0.00018007563
-0.0026745249
-0.00030992693
-0.002585576
-0.00043720299
-0.0024713854
-0.0005606557
-0.0023329703
-0.00067905989
-0.002171591
-0.00079122268
-0.0019887431
-0.00089599369
-0.0017861479
-0.00099227643
-0.001565741
-0.0010790412
-0.0013296563
-0.0011553395
-0.001080208
-0.0012203189
-0.00081986752
-0.0012732389
-0.00055123784
-0.0013134859
-0.00027702383
-0.0013405865
1.3330001e-14
-0.0013542183
0.00027702383
-0.0013542183
0.00055123784
-0.0013405865
0.00081986752
-0.0013134859
0.001080208
-0.0012732389
0.0013296563
-0.0012203189
0.001565741
-0.0011553395
0.0017861479
-0.0010790412
0.0019887431
-0.00099227643
0.002171591
-0.00089599369
0.0023329703
-0.00079122268
0.0024713854
-0.00067905989
0.002585576
-0.0005606557
0.0026745249
-0.00043720299
0.0027374635
-0.00030992693
0.0027738761
-0.00018007563
0.0027835029
-4.8910821e-05
0.0027663415
8.2301999e-05
0.0027226463
0.00021230421
0.0026529254
0.00033985599
0.0025579344
0.00046374897
0.0024386677
0.00058282002
0.0022963461
0.00069596433
0.0021324016
0.00080214783
0.0019484603
0.00090041779
0.0017463222
0.00098991143
0.0015279409
0.0010698619
0.0012954023
0.0011396019
0.0010509032
0.0011985648
0.00079673119
0.0012462838
0.0005352443
0.0012823905
0.00026885257
0.0013066116
0.001318767
-0.00027214818
0.0015909152
-0.00054182019
0.0015762836
-0.00080655559
0.0015471259
-0.0010639259
0.0015036541
-0.0013115517
0.0014461905
-0.0015471211
0.0013751714
-0.0017684099
0.0012911506
-0.0019733018
0.0011948034
-0.0021598114
0.0010869274
-0.0023261062
0.0009684426
-0.0024705286
0.00084038669
-0.0025916169
0.0007039084
-0.0026881247
0.00056025669
-0.002759036
0.00041076731
-0.0028035788
0.00025684705
-0.0028212336
9.9956801e-05
-0.0028117389
-5.840554e-05
-0.0027750935
-0.00021672103
-0.0027115562
-0.00037346423
-0.0026216435
-0.00052711568
-0.0025061262
-0.00067617298
-0.0023660252
-0.00081916092
-0.0022026061
-0.00095464182
-0.0020173729
-0.0010812269
-0.00181206
-0.0011975893
-0.0015886211
-0.0013024802
-0.0013492153
-0.0013947453
-0.001096189
-0.0014733451
-0.00083205385
-0.0015373741
-0.00055945975
-0.00158608
-0.00028116455
-0.0016188817
1.1641307e-14
-0.0016353829
0.00028116455
-0.0016353829
0.00055945975
-0.0016188817
0.00083205385
-0.00158608
0.001096189
-0.0015373741
0.0013492153
-0.0014733451
0.0015886211
-0.0013947453
0.00181206
-0.0013024802
0.0020173729
-0.0011975893
0.0022026061
-0.0010812269
0.0023660252
-0.00095464182
0.0025061262
-0.00081916092
0.0026216435
-0.00067617298
0.0027115562
-0.00052711568
0.0027750935
-0.00037346423
0.0028117389
-0.00021672103
0.0028212336
-5.840554e-05
0.0028035788
9.9956801e-05
0.002759036
0.00025684705
0.0026881247
0.00041076731
0.0025916169
0.00056025669
0.0024705286
0.0007039084
0.0023261062
0.00084038669
0.0021598114
0.0009684426
0.0019733018
0.0010869274
0.0017684099
0.0011948034
0.0015471211
0.0012911506
0.0013115517
0.0013751714
0.0010639259
0.0014461905
0.00080655559
0.0015036541
0.00054182019
0.0015471259
0.00027214818
0.0015762836
0.0015909152
-0.00027551964
0.0018664348
-0.00054855152
0.0018493155
-0.00081662211
0.0018151964
-0.0010772869
0.0017643189
-0.0013281467
0.0016970503
-0.0015668653
0.00161389
-0.0017911893
0.0015154746
-0.0019989698
0.0014025839
-0.0021881855
0.0012761432
-0.0023569668
0.0011372238
-0.0025036193
0.00098703925
-0.0026266476
0.00082693661
-0.0027247749
0.00065838404
-0.0027969615
0.00048295389
-0.0028424174
0.00030230292
-0.0028606114
0.00011815089
-0.0028512762
-6.7740781e-05
-0.0028144085
-0.00025358871
-0.0027502678
-0.00043760496
-0.0026593724
-0.00061801106
-0.0025424955
-0.00079304985
-0.0024006607
-0.00096099577
-0.0022351373
-0.0011201652
-0.0020474356
-0.0012689286
-0.0018393002
-0.0014057247
-0.0016127015
-0.0015290789
-0.0013698227
-0.0016376241
-0.0011130431
-0.0017301247
-0.00084491639
-0.0018055008
-0.00056814318
-0.0018628533
-0.00028553934
-0.0019014855
1.1628186e-14
-0.0019209222
0.00028553934
-0.0019209222
0.00056814318
-0.0019014855
0.00084491639
-0.0018628533
0.0011130431
-0.0018055008
0.0013698227
-0.0017301247
0.0016127015
-0.0016376241
0.0018393002
-0.0015290789
0.0020474356
-0.0014057247
0.0022351373
-0.0012689286
0.0024006607
-0.0011201652
0.0025424955
-0.00096099577
0.0026593724
-0.00079304985
0.0027502678
-0.00061801106
0.0028144085
-0.00043760496
0.0028512762
-0.00025358871
0.0028606114
-6.7740781e-05
0.0028424174
0.00011815089
0.0027969615
0.00030230292
0.0027247749
0.00048295389
0.0026266476
0.00065838404
0.0025036193
0.00082693661
0.0023569668
0.00098703925
0.0021881855
0.0011372238
0.0019989698
0.0012761432
0.0017911893
0.0014025839
0.0015668653
0.0015154746
0.0013281467
0.00161389
0.0010772869
0.0016970503
0.00081662211
0.0017643189
0.00054855152
0.0018151964
0.00027551964
0.0018493155
0.0018664348
-0.0002787506
0.0021451854
-0.00055500868
0.0021255736
-0.00082629382
0.0020864816
-0.0010901508
0.0020281759
-0.0013441642
0.0019510638
-0.0015859755
0.0018557013
-0.0018133025
0.0017428016
-0.0020239614
0.0016132428
-0.0022158916
0.0014680734
-0.0023871815
0.0013085137
-0.002536095
0.0011359527
-0.0026610971
0.00095193871
-0.0027608773
0.00075816418
-0.0028343686
0.00055644527
-0.0028807626
0.00034869693
-0.0028995177
0.00013690599
-0.0028903628
-7.6895696e-05
-0.0028532961
-0.0002906554
-0.0027885809
-0.00050232019
-0.0026967397
-0.00070985225
-0.0025785488
-0.00091124077
-0.0024350333
-0.0011045112
-0.0022674638
-0.0012877348
-0.0020773526
-0.0014590397
-0.0018664506
-0.0016166267
-0.00163674
-0.0017587894
-0.0013904249
-0.0018839392
-0.0011299156
-0.001990634
-0.00085780748
-0.002077609
-0.00057685325
-0.0021438075
-0.00028992987
-0.0021884089
1.1803144e-14
-0.0022108521
0.00028992987
-0.0022108521
0.00057685325
-0.0021884089
0.00085780748
-0.0021438075
0.0011299156
-0.002077609
0.0013904249
-0.001990634
0.00163674
-0.0018839392
0.0018664506
-0.0017587894
0.0020773526
-0.0016166267
0.0022674638
-0.0014590397
0.0024350333
-0.0012877348
0.0025785488
-0.0011045112
0.0026967397
-0.00091124077
0.0027885809
-0.00070985225
0.0028532961
-0.00050232018
0.0028903628
-0.0002906554
0.0028995177
-7.6895696e-05
0.0028807626
0.00013690599
0.0028343686
0.00034869693
0.0027608773
0.00055644527
0.0026610971
0.00075816418
0.002536095
0.00095193871
0.0023871815
0.0011359527
0.0022158916
0.0013085137
0.0020239614
0.0014680734
0.0018133025
0.0016132428
0.0015859755
0.0017428016
0.0013441642
0.0018557013
0.0010901508
0.0019510638
0.00082629382
0.0020281759
0.00055500868
0.0020864816
0.0002787506
0.0021255736
0.0021451854
-0.00028166497
0.0024268504
-0.00056084238
0.002404751
-0.0008350541
0.0023606933
-0.0011018419
0.0022949637
-0.0013587802
0.002208002
-0.0016034915
0.0021004126
-0.0018336659
0.0019729759
-0.0020470832
0.0018266602
-0.0022416397
0.0016626299
-0.0024153762
0.0014822502
-0.0025665079
0.0012870844
-0.002693454
0.0010788848
-0.0027948645
0.00085957473
-0.0028696426
0.00063122334
-0.0029169605
0.00039601484
-0.0029362686
0.00015621411
-0.002927297
-8.5867339e-05
-0.0028900511
-0.00032790129
-0.0028248039
-0.0005675674
-0.0027320865
-0.00080256959
-0.0026126805
-0.0010306468
-0.002467612
-0.0012495798
-0.0022981492
-0.0014571975
-0.0021058018
-0.0016513872
-0.0018923196
-0.0018301089
-0.0016596906
-0.0019914184
-0.0014101336
-0.0021334962
-0.0011460853
-0.0022546822
-0.00087018026
-0.0023535141
-0.00058522267
-0.0024287651
-0.00029415167
-0.0024794799
1.2088358e-14
-0.0025050037
0.00029415167
-0.0025050037
0.00058522267
-0.0024794799
0.00087018026
-0.0024287651
0.0011460853
-0.0023535141
0.0014101336
-0.0022546822
0.0016596906
-0.0021334962
0.0018923196
-0.0019914184
0.0021058018
-0.0018301089
0.0022981492
-0.0016513872
0.002467612
-0.0014571975
0.0026126805
-0.0012495798
0.0027320865
-0.0010306468
0.0028248039
-0.00080256959
0.0028900511
-0.0005675674
0.002927297
-0.00032790129
0.0029362686
-8.5867339e-05
0.0029169605
0.00015621411
0.0028696426
0.00039601484
0.0027948645
0.00063122334
0.002693454
0.00085957473
0.0025665079
0.0010788848
0.0024153762
0.0012870844
0.0022416397
0.0014822502
0.0020470832
0.0016626299
0.0018336659
0.0018266602
0.0016034915
0.0019729759
0.0013587802
0.0021004126
0.0011018419
0.002208002
0.0008350541
0.0022949637
0.00056084238
0.0023606933
0.00028166497
0.002404751
0.0024268504
-0.00028419411
0.0027110445
-0.00056591772
0.0026864746
-0.00084270616
0.0026374818
-0.0011121079
0.0025643654
-0.0013716944
0.0024675885
-0.0016190739
0.0023477921
-0.0018519096
0.0022058116
-0.0020679429
0.0020426935
-0.0022650212
0.0018597082
-0.0024411295
0.0016583585
-0.0025944251
0.00144038
-0.0027232718
0.0012077315
-0.0028262722
0.00096257511
-0.0029022946
0.00070724575
-0.0029504918
0.00044421204
-0.00297031
0.00017603234
-0.0029614882
-9.4689173e-05
-0.002924049
-0.00036534051
-0.002858285
-0.00063333137
-0.0027647443
-0.0008961103
-0.0026442184
-0.0011511727
-0.0024977353
-0.0013960628
-0.0023265581
-0.0016283748
-0.0021321869
-0.0018457584
-0.001916363
-0.0020459328
-0.0016810712
-0.0022267103
-0.0014285369
-0.0023860305
-0.0011612167
-0.0025220024
-0.00088177989
-0.0026329509
-0.0005930801
-0.0027174649
-0.00029811869
-0.0027744413
1.3148898e-14
-0.0028031224
0.00029811869
-0.0028031224
0.0005930801
-0.0027744413
0.00088177989
-0.0027174649
0.0011612167
-0.0026329509
0.0014285369
-0.0025220024
0.0016810712
-0.0023860305
0.001916363
-0.0022267103
0.0021321869
-0.0020459328
0.0023265581
-0.0018457584
0.0024977353
-0.0016283748
0.0026442184
-0.0013960628
0.0027647443
-0.0011511727
0.002858285
-0.0008961103
0.002924049
-0.00063333137
0.0029614882
-0.00036534051
0.00297031
-9.4689173e-05
0.0029504918
0.00017603234
0.0029022946
0.00044421204
0.0028262722
0.00070724575
0.0027232718
0.00096257511
0.0025944251
0.0012077315
0.0024411295
0.00144038
0.0022650212
0.0016583585
0.0020679429
0.0018597082
0.0018519096
0.0020426935
0.0016190739
0.0022058116
0.0013716944
0.0023477921
0.0011121079
0.0024675885
0.00084270616
0.0025643654
0.00056591772
0.0026374818
0.00028419411
0.0026864746
0.0027110445
-0.00028646174
0.0029975062
-0.00057048296
0.0029704958
-0.00084962449
0.0029166233
-0.0011214516
0.0028361925
-0.0013835402
0.0027296771
-0.001633488
0.0025977399
-0.0018689312
0.0024412549
-0.0020875677
0.00226133
-0.002287187
0.0020593274
-0.0024657056
0.0018368772
-0.0026212078
0.0015958821
-0.0027519867
0.0013385105
-0.0028565851
0.0010671735
-0.0029338287
0.00078448927
-0.0029828492
0.00049323257
-0.0030030947
0.00019627788
-0.0029943251
-0.00010345885
-0.0029565959
-0.00040306969
-0.0028902361
-0.00069969115
-0.0027958248
-0.0009905216
-0.0026741732
-0.0012728243
-0.0025263151
-0.0015439209
-0.0023535064
-0.0018011834
-0.002157232
-0.0020420328
-0.0019392155
-0.0022639493
-0.0017014283
-0.0024644975
-0.0014460932
-0.0026413656
-0.0011756792
-0.0027924163
-0.00089288543
-0.0029157447
-0.00060061269
-0.0030097376
-0.00030192485
-0.0030731291
1.4388475e-14
-0.0031050473
0.00030192485
-0.0031050473
0.00060061269
-0.0030731291
0.00089288543
-0.0030097376
0.0011756792
-0.0029157447
0.0014460932
-0.0027924163
0.0017014283
-0.0026413656
0.0019392155
-0.0024644975
0.002157232
-0.0022639493
0.0023535064
-0.0020420328
0.0025263151
-0.0018011834
0.0026741732
-0.0015439209
0.0027958248
-0.0012728243
0.0028902361
-0.0009905216
0.0029565959
-0.00069969115
0.0029943251
-0.00040306969
0.0030030947
-0.00010345885
0.0029828492
0.00019627788
0.0029338287
0.00049323257
0.0028565851
0.00078448927
0.0027519867
0.0010671735
0.0026212078
0.0013385105
0.0024657056
0.0015958821
0.002287187
0.0018368772
0.0020875677
0.0020593274
0.0018689312
0.00226133
0.001633488
0.0024412549
0.0013835402
0.0025977399
0.0011214516
0.0027296771
0.00084962449
0.0028361925
0.00057048296
0.0029166233
0.00028646174
0.0029704958
0.0029975062
-0.0002888866
0.0032863928
-0.00057537413
0.0032569834
-0.00085705937
0.0031983085
-0.0011315327
0.0031106659
-0.00139638
0.0029945244
-0.0016491893
0.0028505492
-0.0018875659
0.0026796314
-0.0021091542
0.0024829184
-0.0023116703
0.0022618435
-0.0024929415
0.0020181484
-0.002650955
0.0017538956
-0.0027839092
0.0014714647
-0.002890266
0.0011735303
-0.0029687946
0.00086301784
-0.0030186025
0.00054304055
-0.0030391477
0.00021682302
-0.0030302288
-0.00011237771
-0.0029919595
-0.000441339
-0.0029247315
-0.00076691916
-0.0028291785
-0.0010860746
-0.0027061485
-0.0013958543
-0.0025566901
-0.0016933793
-0.0023820536
-0.0019758199
-0.0021837035
-0.002240383
-0.0019633369
-0.0024843159
-0.0017229022
-0.0027049322
-0.0014646103
-0.0028996574
-0.0011909361
-0.0030660905
-0.00090460471
-0.0032020761
-0.00060856414
-0.0033057782
-0.00030594358
-0.0033757497
1.487609e-14
-0.0034109909
0.00030594358
-0.0034109909
0.00060856414
-0.0033757497
0.00090460471
-0.0033057782
0.0011909361
-0.0032020761
0.0014646103
-0.0030660905
0.0017229022
-0.0028996574
0.0019633369
-0.0027049322
0.0021837035
-0.0024843159
0.0023820536
-0.002240383
0.0025566901
-0.0019758199
0.0027061485
-0.0016933793
0.0028291785
-0.0013958543
0.0029247315
-0.0010860746
0.0029919595
-0.00076691916
0.0030302288
-0.000441339
0.0030391477
-0.00011237771
0.0030186025
0.00021682302
0.0029687946
0.00054304055
0.002890266
0.00086301784
0.0027839092
0.0011735303
0.002650955
0.0014714647
0.0024929415
0.0017538956
0.0023116703
0.0020181484
0.0021091542
0.0022618435
0.0018875659
0.0024829184
0.0016491893
0.0026796314
0.00139638
0.0028505492
0.0011315327
0.0029945244
0.00085705937
0.0031106659
0.00057537413
0.0031983085
0.0002888866
0.0032569834
0.0032863928
-0.00029230091
0.0035786937
-0.00058225077
0.0035469332
-0.00086748783
0.0034835456
-0.0011456312
0.0033888092
-0.0014142765
0.0032631696
-0.0016709978
0.0031072706
-0.0019133585
0.0029219921
-0.0021389319
0.0027084918
-0.0023453346
0.0024682462
-0.0025302719
0.0022030858
-0.0026915961
0.0019152197
-0.0028273719
0.0016072406
-0.0029359461
0.0012821045
-0.003016008
0.0009430797
-0.0030666332
0.00059366582
-0.0030873
0.00023748975
-0.0030778732
-0.0001218045
-0.0030385623
-0.00048064984
-0.0029698635
-0.00083561795
-0.0028725026
-0.0011834355
-0.0027473928
-0.0015209642
-0.0025956145
-0.0018451576
-0.0024184183
-0.0021530161
-0.0022172464
-0.0024415549
-0.0019937627
-0.0027077996
-0.0017498841
-0.0029488108
-0.0014878032
-0.0031617383
-0.001209997
-0.0033438968
-0.0009192176
-0.0034928555
-0.00061846539
-0.0036065304
-0.00031094372
-0.0036832714
1.6485905e-14
-0.0037219346
0.00031094372
-0.0037219346
0.00061846539
-0.0036832714
0.0009192176
-0.0036065304
0.001209997
-0.0034928555
0.0014878032
-0.0033438968
0.0017498841
-0.0031617383
0.0019937627
-0.0029488108
0.0022172464
-0.0027077996
0.0024184183
-0.0024415549
0.0025956145
-0.0021530161
0.0027473928
-0.0018451576
0.0028725026
-0.0015209642
0.0029698635
-0.0011834355
0.0030385623
-0.00083561795
0.0030778732
-0.00048064984
0.0030873
-0.0001218045
0.0030666332
0.00023748975
0.003016008
0.00059366582
0.0029359461
0.0009430797
0.0028273719
0.0012821045
0.0026915961
0.0016072406
0.0025302719
0.0019152197
0.0023453346
0.0022030858
0.0021389319
0.0024682462
0.0019133585
0.0027084918
0.0016709978
0.0029219921
0.0014142765
0.0031072706
0.0011456312
0.0032631696
0.00086748783
0.0033888092
0.00058225077
0.0034835456
0.00029230091
0.0035469332
0.0035786937
-0.00029807804
0.0038767718
-0.00059384999
0.0038427052
-0.00088499175
0.0037746873
-0.0011691453
0.0036729628
-0.0014439072
0.0035379315
-0.0017068237
0.003370187
-0.0019553952
0.0031705636
-0.002187094
0.0029401906
-0.002399397
0.0026805491
-0.0025898368
0.0023935257
-0.0027560724
0.0020814552
-0.0028959742
0.0017471425
-0.0030077189
0.0013938492
-0.0030898768
0.0010252375
-0.0031414765
0.00064526553
-0.00316203
0.00025804332
-0.0031515087
-0.00013232585
-0.0031102757
-0.00052188285
-0.0030389951
-0.00090689857
-0.0029385427
-0.0012838879
-0.0028099412
-0.0016495657
-0.0026543307
-0.0020007682
-0.0024729752
-0.0023343715
-0.0022672967
-0.0026472335
-0.0020389224
-0.0029361739
-0.0017897336
-0.0031979996
-0.0015219028
-0.003429569
-0.0012379127
-0.0036278869
-0.0009405518
-0.0037902164
-0.00063288735
-0.0039141948
-0.00031821651
-0.0039979422
1.9849149e-14
-0.0040401511
0.00031821651
-0.0040401511
0.00063288735
-0.0039979422
0.0009405518
-0.0039141948
0.0012379127
-0.0037902164
0.0015219028
-0.0036278869
0.0017897336
-0.003429569
0.0020389224
-0.0031979996
0.0022672967
-0.0029361739
0.0024729752
-0.0026472335
0.0026543307
-0.0023343715
0.0028099412
-0.0020007682
0.0029385427
-0.0016495657
0.0030389951
-0.0012838879
0.0031102757
-0.00090689857
0.0031515087
-0.00052188285
0.00316203
-0.00013232585
0.0031414765
0.00025804332
0.0030898768
0.00064526553
0.0030077189
0.0010252375
0.0028959742
0.0013938492
0.0027560724
0.0017471425
0.0025898368
0.0020814552
0.002399397
0.0023935257
0.002187094
0.0026805491
0.0019553952
0.0029401906
0.0017068237
0.0031705636
0.0014439072
0.003370187
0.0011691453
0.0035379315
0.00088499175
0.0036729628
0.00059384999
0.0037746873
0.00029807804
0.0038427052
0.0038767718
-0.00030825708
0.0041850289
-0.00061423441
0.0041486825
-0.00091562651
0.0040760794
-0.0012100781
0.0039674144
-0.0014951639
0.0038230174
-0.0017683749
0.0036433979
-0.0020271137
0.0034293024
-0.0022687055
0.0031817824
-0.0024904277
0.0029022714
-0.002689566
0.0025926639
-0.0028634986
0.0022553879
-0.0030098095
0.0018934534
-0.0031264193
0.0015104589
-0.0032117151
0.0011105334
-0.0032646515
0.00069820189
-0.0032847915
0.00027818339
-0.0032722719
-0.00014484554
-0.0032276967
-0.000566458
-0.0031519939
-0.00098260132
-0.003046276
-0.0013896058
-0.0029117408
-0.0017841009
-0.0027496299
-0.002162879
-0.002561242
-0.0025227594
-0.002347986
-0.0028604894
-0.0021114542
-0.0031727057
-0.001853494
-0.0034559597
-0.0015762654
-0.0037067977
-0.0012822712
-0.0039218811
-0.00097435918
-0.0040981284
-0.00065569404
-0.00423286
-0.00032970286
-0.0043239334
2.1947609e-14
-0.004369854
0.00032970286
-0.004369854
0.00065569404
-0.0043239334
0.00097435918
-0.00423286
0.0012822712
-0.0040981284
0.0015762654
-0.0039218811
0.001853494
-0.0037067977
0.0021114542
-0.0034559597
0.002347986
-0.0031727057
0.002561242
-0.0028604894
0.0027496299
-0.0025227594
0.0029117408
-0.002162879
0.003046276
-0.0017841009
0.0031519939
-0.0013896058
0.0032276967
-0.00098260132
0.0032722719
-0.000566458
0.0032847915
-0.00014484553
0.0032646515
0.00027818339
0.0032117151
0.00069820189
0.0031264193
0.0011105334
0.0030098095
0.0015104589
0.0028634986
0.0018934534
0.002689566
0.0022553879
0.0024904277
0.0025926639
0.0022687055
0.0029022714
0.0020271137
0.0031817824
0.0017683749
0.0034293024
0.0014951639
0.0036433979
0.0012100781
0.0038230174
0.00091562651
0.0039674144
0.00061423441
0.0040760794
0.00030825708
0.0041486825
0.0041850289
-0.00032564456
0.0045106734
-0.00064899428
0.0044720322
-0.00096772125
0.0043948064
-0.0012794322
0.0042791253
-0.0015816385
0.0041252236
-0.0018717304
0.0039334898
-0.0021469603
0.0037045324
-0.0024044408
0.0034392629
-0.0026411661
0.0031389967
-0.0028540695
0.0028055673
-0.0030401233
0.0024414417
-0.0031964877
0.0020498177
-0.0033206957
0.0016346669
-0.0034108499
0.0012006876
-0.0034657828
0.00075313477
-0.0034851303
0.0002975309
-0.0034692817
-0.00016069409
-0.0034192135
-0.00061652626
-0.00333626
-0.0010655548
-0.0032218966
-0.0015039693
-0.0030775897
-0.0019284078
-0.0029047402
-0.0023357285
-0.0027047102
-0.0027227894
-0.0024789081
-0.0030862916
-0.0022288976
-0.0034227163
-0.0019565035
-0.0037283538
-0.0016638931
-0.0039994081
-0.0013536215
-0.0042321527
-0.0010286389
-0.004423111
-0.00069226017
-0.0045692387
-0.00034810278
-0.0046680908
2.2899893e-14
-0.0047179568
0.00034810278
-0.0047179568
0.00069226017
-0.0046680908
0.0010286389
-0.0045692387
0.0013536215
-0.004423111
0.0016638931
-0.0042321527
0.0019565035
-0.0039994081
0.0022288976
-0.0037283538
0.0024789081
-0.0034227163
0.0027047102
-0.0030862916
0.0029047402
-0.0027227894
0.0030775897
-0.0023357285
0.0032218966
-0.0019284078
0.00333626
-0.0015039693
0.0034192135
-0.0010655548
0.0034692817
-0.00061652626
0.0034851303
-0.00016069409
0.0034657828
0.0002975309
0.0034108499
0.00075313477
0.0033206957
0.0012006876
0.0031964877
0.0016346669
0.0030401233
0.0020498177
0.0028540695
0.0024414417
0.0026411661
0.0028055673
0.0024044408
0.0031389967
0.0021469603
0.0034392629
0.0018717304
0.0037045324
0.0015816385
0.0039334898
0.0012794322
0.0041252236
0.00096772125
0.0042791253
0.00064899428
0.0043948064
0.00032564456
0.0044720322
0.0045106734
-0.00035386437
0.0048645378
-0.00070534639
0.0048235142
-0.001052025
0.004741485
-0.0013914009
0.0046185013
-0.0017208561
0.0044546788
-0.0020376139
0.0042502476
-0.0023387034
0.0040056219
-0.0026209373
0.0037214967
-0.0028809164
0.0033989758
-0.0031150797
0.0030397306
-0.0033198193
0.0026461814
-0.0034916735
0.0022216718
-0.0036275906
0.0017705841
-0.0037252289
0.0012983259
-0.0037832185
0.00081112437
-0.0038012947
0.00031560703
-0.0037802297
-0.00018175902
-0.003721569
-0.00067518695
-0.0036272642
-0.0011598596
-0.0034993325
-0.0016319009
-0.0033396355
-0.0020881048
-0.0031498057
-0.0025255584
-0.0029313023
-0.0029412928
-0.0026855469
-0.003332047
-0.0024140867
-0.0036941765
-0.0021187457
-0.0040236947
-0.0018017366
-0.0043164173
-0.0014657223
-0.004568167
-0.0011138267
-0.0047750065
-0.00074959891
-0.0049334665
-0.00037693972
-0.00504075
2.2449391e-14
-0.0050948965
0.00037693972
-0.0050948965
0.00074959891
-0.00504075
0.0011138267
-0.0049334665
0.0014657223
-0.0047750065
0.0018017366
-0.004568167
0.0021187457
-0.0043164173
0.0024140867
-0.0040236947
0.0026855469
-0.0036941765
0.0029313023
-0.003332047
0.0031498057
-0.0029412928
0.0033396355
-0.0025255584
0.0034993325
-0.0020881048