/*--------------------------------*- C++ -*----------------------------------*\
| =========                 |                                                 |
| \\      /  F ield         | OpenFOAM: The Open Source CFD Toolbox           |
|  \\    /   O peration     | Version:  2306                                  |
|   \\  /    A nd           | Website:  www.openfoam.com                      |
|    \\/     M anipulation  |                                                 |
\*---------------------------------------------------------------------------*/
FoamFile
{
    version     2.0;
    format      ascii;
    arch        "LSB;label=32;scalar=64";
    class       surfaceScalarField;
    location    "0.56";
    object      phi;
}
// * * * * * * * * * * * * * * * * * * * * * * * * * * * * * * * * * * * * * //

dimensions      [0 3 -1 0 0 0 0];

oriented        oriented;

internalField   nonuniform List<scalar> 
101920
(
1.8664169e-09
-1.8664169e-09
7.6837419e-09
-5.817325e-09
1.7314103e-08
-9.6303612e-09
3.0734894e-08
-1.3420791e-08
4.7858848e-08
-1.7123954e-08
6.8586121e-08
-2.0727273e-08
9.2835703e-08
-2.4249583e-08
1.2051834e-07
-2.768264e-08
1.5153221e-07
-3.1013867e-08
1.8576196e-07
-3.4229747e-08
2.2307868e-07
-3.7316723e-08
2.6334063e-07
-4.0261948e-08
3.0639423e-07
-4.3053602e-08
3.520751e-07
-4.5680868e-08
4.0020904e-07
-4.8133943e-08
4.50613e-07
-5.040396e-08
5.0309604e-07
-5.2483045e-08
5.5746036e-07
-5.436432e-08
6.1350225e-07
-5.6041887e-08
6.7101302e-07
-5.7510763e-08
7.2978008e-07
-5.8767061e-08
7.895878e-07
-5.9807718e-08
8.5021849e-07
-6.0630696e-08
9.1145337e-07
-6.1234878e-08
9.7307355e-07
-6.1620178e-08
1.0348608e-06
-6.1787274e-08
1.0965992e-06
-6.1738401e-08
1.1580797e-06
-6.1480435e-08
1.2191246e-06
-6.1044899e-08
1.2795386e-06
-6.0414027e-08
1.3390837e-06
-5.9545131e-08
1.3975622e-06
-5.8478502e-08
1.4547927e-06
-5.7230501e-08
1.5106014e-06
-5.5808638e-08
1.5648219e-06
-5.4220551e-08
1.617297e-06
-5.2475085e-08
1.6678777e-06
-5.0580702e-08
1.7164254e-06
-4.8547697e-08
1.762812e-06
-4.6386657e-08
1.8069196e-06
-4.4107581e-08
1.8486414e-06
-4.1721736e-08
1.8878819e-06
-3.9240516e-08
1.9245566e-06
-3.6674753e-08
1.9585956e-06
-3.4038961e-08
1.9899392e-06
-3.1343615e-08
2.0185402e-06
-2.8601023e-08
2.044364e-06
-2.5823789e-08
2.0673881e-06
-2.3024032e-08
2.087603e-06
-2.0214944e-08
2.1050097e-06
-1.7406669e-08
2.1196202e-06
-1.4610558e-08
2.1314129e-06
-1.1792707e-08
2.1404188e-06
-9.0059028e-09
2.1466798e-06
-6.2610065e-09
2.1502165e-06
-3.5366587e-09
2.1509651e-06
-7.486174e-10
2.1492153e-06
1.7498545e-09
2.1450292e-06
4.186016e-09
2.1384309e-06
6.5983545e-09
2.1294871e-06
8.943747e-09
2.1182824e-06
1.1204729e-08
2.104907e-06
1.3375387e-08
2.0894612e-06
1.5445792e-08
2.0720454e-06
1.7415872e-08
2.0527642e-06
1.9281175e-08
2.0317251e-06
2.1039125e-08
2.0090365e-06
2.2688551e-08
1.9848091e-06
2.4227457e-08
1.9591543e-06
2.5654806e-08
1.9321776e-06
2.6976627e-08
1.903991e-06
2.81866e-08
1.8747062e-06
2.9284796e-08
1.844431e-06
3.0275245e-08
1.8132712e-06
3.1159784e-08
1.7813289e-06
3.1942323e-08
1.7487092e-06
3.2619678e-08
1.7155052e-06
3.3203985e-08
1.6818159e-06
3.3689322e-08
1.6477337e-06
3.408219e-08
1.6133459e-06
3.4387791e-08
1.578737e-06
3.4608928e-08
1.5439871e-06
3.4749867e-08
1.5091727e-06
3.4814406e-08
1.474367e-06
3.4805731e-08
1.439637e-06
3.4729994e-08
1.4050453e-06
3.4591685e-08
1.3706512e-06
3.4394055e-08
1.3365091e-06
3.4142114e-08
1.3026692e-06
3.3839911e-08
1.2691775e-06
3.3491766e-08
1.2360755e-06
3.3101955e-08
1.2034011e-06
3.2674388e-08
1.1711864e-06
3.2214711e-08
1.1394624e-06
3.1724032e-08
1.1082548e-06
3.1207609e-08
1.0775857e-06
3.0669052e-08
1.0474744e-06
3.0111333e-08
1.0179363e-06
2.9538062e-08
9.8898398e-07
2.8952336e-08
9.6062694e-07
2.8357039e-08
9.3287205e-07
2.7754881e-08
9.0572356e-07
2.7148491e-08
8.7918332e-07
2.6540238e-08
8.5325097e-07
2.5932353e-08
8.2792409e-07
2.5326895e-08
8.0319834e-07
2.4725738e-08
7.7906776e-07
2.413059e-08
7.5552472e-07
2.3543028e-08
7.3256029e-07
2.296444e-08
7.1016422e-07
2.2396055e-08
6.8832527e-07
2.1838959e-08
6.670312e-07
2.1294066e-08
6.4626903e-07
2.0762165e-08
6.2602507e-07
2.0243956e-08
6.0628505e-07
1.9740019e-08
5.8703432e-07
1.9250724e-08
5.6825781e-07
1.8776509e-08
5.4993995e-07
1.8317872e-08
5.3206484e-07
1.7875112e-08
5.1461653e-07
1.7448299e-08
4.975788e-07
1.703773e-08
4.8093537e-07
1.6643434e-08
4.6466994e-07
1.6265431e-08
4.487663e-07
1.5903642e-08
4.332079e-07
1.555841e-08
4.1797772e-07
1.5230178e-08
4.0306022e-07
1.4917495e-08
3.8844027e-07
1.4619944e-08
3.741029e-07
1.4337361e-08
3.6003332e-07
1.4069582e-08
3.4621689e-07
1.3816427e-08
3.3263925e-07
1.3577634e-08
3.1928643e-07
1.3352825e-08
3.0614494e-07
1.3141493e-08
2.9320202e-07
1.2942917e-08
2.8044484e-07
1.2757165e-08
2.678603e-07
1.2584541e-08
2.5543292e-07
1.242739e-08
2.4314859e-07
1.2284328e-08
2.3099605e-07
1.2152541e-08
2.1896534e-07
1.20307e-08
2.0704488e-07
1.1920467e-08
1.9522394e-07
1.1820945e-08
1.8349127e-07
1.1732656e-08
1.7183606e-07
1.1655217e-08
1.6024732e-07
1.1588733e-08
1.4871398e-07
1.1533343e-08
1.3722451e-07
1.1489476e-08
1.2576655e-07
1.1457947e-08
1.1432617e-07
1.1440367e-08
1.0288649e-07
1.1439692e-08
9.1425756e-08
1.1460727e-08
7.9914198e-08
1.1511563e-08
6.8310484e-08
1.1603714e-08
5.6561408e-08
1.174907e-08
4.461475e-08
1.1946666e-08
3.2474298e-08
1.2140452e-08
2.0359851e-08
1.2114436e-08
9.0618904e-09
1.1297958e-08
9.061894e-09
3.5898091e-09
-5.456226e-09
1.4204162e-08
-1.6431677e-08
3.1715237e-08
-2.7141436e-08
5.5923158e-08
-3.7628712e-08
8.6662448e-08
-4.7863245e-08
1.237876e-07
-5.7852429e-08
1.6713884e-07
-6.7600822e-08
2.16539e-07
-7.7082794e-08
2.7178639e-07
-8.6261257e-08
3.3265213e-07
-9.5095491e-08
3.9888052e-07
-1.0354511e-07
4.7019057e-07
-1.11572e-07
5.4627814e-07
-1.1914117e-07
6.2681807e-07
-1.262208e-07
7.1146644e-07
-1.3278232e-07
7.998626e-07
-1.3880011e-07
8.9163127e-07
-1.4425171e-07
9.863847e-07
-1.4911776e-07
1.0837248e-06
-1.5338199e-07
1.1832451e-06
-1.5703108e-07
1.2845332e-06
-1.6005511e-07
1.3871724e-06
-1.6244691e-07
1.4907442e-06
-1.6420251e-07
1.5948304e-06
-1.653211e-07
1.6990155e-06
-1.658053e-07
1.8028887e-06
-1.6566046e-07
1.9060456e-06
-1.6489525e-07
2.0080875e-06
-1.6352241e-07
2.1086024e-06
-1.615598e-07
2.2072021e-06
-1.5901366e-07
2.3035545e-06
-1.5589752e-07
2.3973141e-06
-1.5223811e-07
2.4881471e-06
-1.480635e-07
2.5757363e-06
-1.4339784e-07
2.659784e-06
-1.3826831e-07
2.7400128e-06
-1.3270382e-07
2.8161653e-06
-1.267333e-07
2.8880074e-06
-1.2038974e-07
2.9553266e-06
-1.1370589e-07
3.0179325e-06
-1.0671344e-07
3.0756573e-06
-9.9446564e-08
3.1283571e-06
-9.194031e-08
3.1759122e-06
-8.4229877e-08
3.2182319e-06
-7.6358684e-08
3.2552467e-06
-6.8358363e-08
3.2869102e-06
-6.0264481e-08
3.3131973e-06
-5.211097e-08
3.3341052e-06
-4.3931939e-08
3.3496508e-06
-3.576048e-08
3.3598716e-06
-2.7627468e-08
3.3648527e-06
-1.9591646e-08
3.3646638e-06
-1.160387e-08
3.3594576e-06
-3.7996777e-09
3.3492743e-06
3.9223129e-09
3.3342158e-06
1.1521812e-08
3.314585e-06
1.8882252e-08
3.2903142e-06
2.6020572e-08
3.2616125e-06
3.2887757e-08
3.2287221e-06
3.9488729e-08
3.1918545e-06
4.5811357e-08
3.1512195e-06
5.1839715e-08
3.1070227e-06
5.7572236e-08
3.059488e-06
6.2980504e-08
3.0088349e-06
6.80689e-08
2.9552893e-06
7.2826769e-08
2.8990818e-06
7.72467e-08
2.8404419e-06
8.1328449e-08
2.7796003e-06
8.5069047e-08
2.7167893e-06
8.8465832e-08
2.652225e-06
9.1540855e-08
2.5861349e-06
9.42767e-08
2.5187446e-06
9.6675107e-08
2.4502697e-06
9.8750204e-08
2.3809215e-06
1.0050796e-07
2.310892e-06
1.0197176e-07
2.2403901e-06
1.0312164e-07
2.1696021e-06
1.0399194e-07
2.0987042e-06
1.0458729e-07
2.0278765e-06
1.0490989e-07
1.9572802e-06
1.0498401e-07
1.8870697e-06
1.0481951e-07
1.8173933e-06
1.0442621e-07
1.7483877e-06
1.0382007e-07
1.6801801e-06
1.0301328e-07
1.6128887e-06
1.020214e-07
1.5466218e-06
1.008586e-07
1.4814781e-06
9.9537697e-08
1.417548e-06
9.807223e-08
1.3549148e-06
9.6473128e-08
1.2936484e-06
9.475814e-08
1.2338125e-06
9.2937937e-08
1.175463e-06
9.1023882e-08
1.1186463e-06
8.9031389e-08
1.0634027e-06
8.6967616e-08
1.0097644e-06
8.4845857e-08
9.5775677e-07
8.267672e-08
9.0739889e-07
8.0469217e-08
8.587029e-07
7.8234049e-08
8.1167541e-07
7.5979823e-08
7.6631746e-07
7.3714997e-08
7.226251e-07
7.1447231e-08
6.8058973e-07
6.9183868e-08
6.4019837e-07
6.6931592e-08
6.0143412e-07
6.4696612e-08
5.6427644e-07
6.2484567e-08
5.2870162e-07
6.030055e-08
4.9468301e-07
5.8149202e-08
4.6219139e-07
5.6034659e-08
4.311953e-07
5.3960525e-08
4.0166137e-07
5.1929988e-08
3.7355452e-07
4.9945802e-08
3.4683837e-07
4.8010233e-08
3.2147541e-07
4.6125127e-08
2.9742714e-07
4.429223e-08
2.7465435e-07
4.2512798e-08
2.5311763e-07
4.078746e-08
2.3277725e-07
3.9116892e-08
2.1359269e-07
3.7502434e-08
1.9552356e-07
3.5944249e-08
1.7852992e-07
3.4441946e-08
1.6257153e-07
3.299611e-08
1.4760865e-07
3.1606323e-08
1.3360183e-07
3.0272253e-08
1.2051255e-07
2.8992902e-08
1.0830262e-07
2.7768353e-08
9.693236e-08
2.660043e-08
8.6365964e-08
2.5483894e-08
7.6568428e-08
2.4417477e-08
6.750525e-08
2.3400541e-08
5.9142461e-08
2.2432363e-08
5.1447071e-08
2.1511816e-08
4.4387044e-08
2.0637664e-08
3.7931237e-08
1.9808631e-08
3.2049578e-08
1.9023142e-08
2.6712771e-08
1.8279736e-08
2.1894234e-08
1.7575686e-08
1.7567736e-08
1.6911033e-08
1.3700487e-08
1.629463e-08
1.0261109e-08
1.5723697e-08
7.2284197e-09
1.5185227e-08
4.5781898e-09
1.4680935e-08
2.28882e-09
1.4209832e-08
3.3662476e-10
1.3773141e-08
-1.3007816e-09
1.3370077e-08
-2.6458596e-09
1.3000291e-08
-3.7208966e-09
1.2663767e-08
-4.5482953e-09
1.2360747e-08
-5.1510882e-09
1.209227e-08
-5.5536946e-09
1.1860551e-08
-5.7830386e-09
1.1669728e-08
-5.8703085e-09
1.1526955e-08
-5.8530045e-09
1.1443425e-08
-5.7767175e-09
1.1435276e-08
-5.6941871e-09
1.1521198e-08
-5.6557403e-09
1.171062e-08
-5.6780247e-09
1.1968939e-08
-5.6711471e-09
1.2133569e-08
-5.2920347e-09
1.173533e-08
-3.7657084e-09
9.7716286e-09
5.2961786e-09
3.964543e-09
-9.420769e-09
1.5613758e-08
-2.8080892e-08
3.4816791e-08
-4.634447e-08
6.1341081e-08
-6.4153002e-08
9.5001282e-08
-8.1523445e-08
1.3562649e-07
-9.847764e-08
1.8302081e-07
-1.1499514e-07
2.3696399e-07
-1.3102598e-07
2.9720737e-07
-1.4650463e-07
3.634715e-07
-1.6135963e-07
4.3544651e-07
-1.7552012e-07
5.1279351e-07
-1.88919e-07
5.9514688e-07
-2.0149454e-07
6.8211673e-07
-2.1319064e-07
7.7329145e-07
-2.2395704e-07
8.6824024e-07
-2.337489e-07
9.6651576e-07
-2.4252723e-07
1.0676568e-06
-2.5025878e-07
1.1711908e-06
-2.5691597e-07
1.2766365e-06
-2.624768e-07
1.3835068e-06
-2.6692544e-07
1.4913112e-06
-2.7025132e-07
1.5995583e-06
-2.7244963e-07
1.7077587e-06
-2.7352141e-07
1.8154271e-06
-2.7347374e-07
1.9220854e-06
-2.7231879e-07
2.0272639e-06
-2.7007372e-07
2.1305031e-06
-2.6676158e-07
2.231355e-06
-2.6241173e-07
2.3293936e-06
-2.570523e-07
2.4242139e-06
-2.5071784e-07
2.5154239e-06
-2.4344806e-07
2.602653e-06
-2.3529265e-07
2.685553e-06
-2.2629783e-07
2.7638015e-06
-2.165168e-07
2.8371002e-06
-2.060025e-07
2.9051782e-06
-1.9481127e-07
2.9677933e-06
-1.8300483e-07
3.0247303e-06
-1.7064296e-07
3.0758033e-06
-1.577864e-07
3.120855e-06
-1.4449824e-07
3.1597584e-06
-1.3084374e-07
3.1924156e-06
-1.1688702e-07
3.2187542e-06
-1.0269728e-07
3.2387336e-06
-8.8337797e-08
3.2523429e-06
-7.3873764e-08
3.2595969e-06
-5.9364954e-08
3.2605391e-06
-4.4874171e-08
3.2552595e-06
-3.0480895e-08
3.243856e-06
-1.6223984e-08
3.2265972e-06
-2.3328037e-09
3.2031867e-06
1.1806634e-08
3.1738859e-06
2.550111e-08
3.1390192e-06
3.8789022e-08
3.0988409e-06
5.170009e-08
3.0535268e-06
6.4196363e-08
3.0033158e-06
7.623153e-08
2.9484383e-06
8.7765256e-08
2.8891373e-06
9.8789789e-08
2.825673e-06
1.0927563e-07
2.758325e-06
1.1918767e-07
2.6873732e-06
1.2852406e-07
2.6131057e-06
1.3724804e-07
2.5358155e-06
1.4535913e-07
2.4557948e-06
1.528474e-07
2.3733391e-06
1.5970246e-07
2.2887428e-06
1.6592468e-07
2.2022948e-06
1.7151706e-07
2.1142892e-06
1.7647141e-07
2.0250087e-06
1.8082143e-07
1.9347149e-06
1.8457044e-07
1.8436943e-06
1.8769579e-07
1.7522104e-06
1.9023407e-07
1.6605201e-06
1.9219821e-07
1.5688539e-06
1.9363803e-07
1.4774601e-06
1.9451539e-07
1.3865735e-06
1.948786e-07
1.296385e-06
1.9477576e-07
1.2071088e-06
1.9418608e-07
1.1189326e-06
1.9316015e-07
1.0320291e-06
1.9172303e-07
9.4657739e-07
1.8987795e-07
8.6272772e-07
1.8766975e-07
7.806167e-07
1.851243e-07
7.0037377e-07
1.8226433e-07
6.2211742e-07
1.7911494e-07
5.459517e-07
1.7570343e-07
4.7197053e-07
1.720534e-07
4.0025446e-07
1.681892e-07
3.3087444e-07
1.6413817e-07
2.638902e-07
1.5992218e-07
1.9935018e-07
1.5556391e-07
1.3730077e-07
1.5108078e-07
7.7766441e-08
1.4650196e-07
2.0769102e-08
1.4184319e-07
-3.3677083e-08
1.3712291e-07
-8.5569055e-08
1.3236118e-07
-1.3490826e-07
1.2757325e-07
-1.8170367e-07
1.2277523e-07
-2.2597083e-07
1.1798214e-07
-2.677313e-07
1.1320771e-07
-3.07012e-07
1.0846456e-07
-3.4384477e-07
1.0376436e-07
-3.7826597e-07
9.9117802e-08
-4.1031583e-07
9.453444e-08
-4.4003819e-07
9.0022897e-08
-4.6747997e-07
8.5590986e-08
-4.9269079e-07
8.1245475e-08
-5.1572251e-07
7.6992253e-08
-5.3662898e-07
7.2836458e-08
-5.5546558e-07
6.8782384e-08
-5.7228888e-07
6.4833538e-08
-5.871561e-07
6.099235e-08
-6.0012535e-07
5.7261486e-08
-6.1125546e-07
5.3642909e-08
-6.206048e-07
5.01368e-08
-6.2823085e-07
4.6742956e-08
-6.3419254e-07
4.3464126e-08
-6.3854895e-07
4.030067e-08
-6.4135608e-07
3.724906e-08
-6.4267129e-07
3.4311329e-08
-6.4255124e-07
3.1486281e-08
-6.4105028e-07
2.8771295e-08
-6.3822138e-07
2.6163992e-08
-6.3411536e-07
2.3662334e-08
-6.2879261e-07
2.1277683e-08
-6.2230005e-07
1.8991332e-08
-6.1468435e-07
1.6801768e-08
-6.0599241e-07
1.4708606e-08
-5.9627015e-07
1.2710115e-08
-5.8556232e-07
1.080399e-08
-5.7391207e-07
8.9874167e-09
-5.6136103e-07
7.2575995e-09
-5.4794949e-07
5.6115957e-09
-5.3371483e-07
4.0450847e-09
-5.1869288e-07
2.553737e-09
-5.0291139e-07
1.1295448e-09
-4.8642566e-07
-1.9109103e-10
-4.6927913e-07
-1.4228355e-09
-4.5148558e-07
-2.608321e-09
-4.3307471e-07
-3.7299288e-09
-4.1407788e-07
-4.786984e-09
-3.9452448e-07
-5.7802739e-09
-3.7444321e-07
-6.7111846e-09
-3.5386201e-07
-7.5809071e-09
-3.3280822e-07
-8.3900239e-09
-3.1130905e-07
-9.1384381e-09
-2.893919e-07
-9.8248651e-09
-2.6708503e-07
-1.0446336e-08
-2.4441817e-07
-1.0997136e-08
-2.2142327e-07
-1.1467937e-08
-1.9813486e-07
-1.1844987e-08
-1.7458864e-07
-1.2110948e-08
-1.5081601e-07
-1.2251424e-08
-1.2683115e-07
-1.2274243e-08
-1.0260605e-07
-1.2256145e-08
-7.8033927e-08
-1.2438546e-08
-5.2902252e-08
-1.3396343e-08
-2.6947679e-08
-1.6182954e-08
-2.16515e-08
3.7319116e-09
-1.3152681e-08
1.4813132e-08
-3.9162113e-08
3.3131571e-08
-6.4662908e-08
5.8512182e-08
-8.9533613e-08
9.0782025e-08
-1.1379329e-07
1.2975446e-07
-1.3745008e-07
1.7521372e-07
-1.604544e-07
2.269169e-07
-1.8272916e-07
2.8459262e-07
-2.0418034e-07
3.4793993e-07
-2.2470694e-07
4.1662857e-07
-2.4420876e-07
4.9029999e-07
-2.6259042e-07
5.685692e-07
-2.7976375e-07
6.51027e-07
-2.9564844e-07
7.3724245e-07
-3.1017249e-07
8.267655e-07
-3.2327196e-07
9.1912974e-07
-3.3489147e-07
1.0138551e-06
-3.449841e-07
1.1104507e-06
-3.535116e-07
1.208418e-06
-3.6044407e-07
1.307253e-06
-3.6576052e-07
1.4064498e-06
-3.6944813e-07
1.5055029e-06
-3.7150272e-07
1.6039101e-06
-3.7192858e-07
1.7011751e-06
-3.7073877e-07
1.7968107e-06
-3.6795437e-07
1.8903404e-06
-3.6360336e-07
1.9813012e-06
-3.5772241e-07
2.0692449e-06
-3.503554e-07
2.1537434e-06
-3.4155079e-07
2.2343915e-06
-3.3136595e-07
2.3108038e-06
-3.1986044e-07
2.3826185e-06
-3.0710733e-07
2.4494983e-06
-2.9317761e-07
2.511135e-06
-2.7815347e-07
2.5672455e-06
-2.62113e-07
2.6175784e-06
-2.4514423e-07
2.6619134e-06
-2.2733979e-07
2.7000571e-06
-2.0878664e-07
2.7318497e-06
-1.8957908e-07
2.7571622e-06
-1.6981069e-07
2.7758971e-06
-1.4957865e-07
2.7879904e-06
-1.2898029e-07
2.7934051e-06
-1.0811202e-07
2.7921403e-06
-8.7073001e-08
2.7842203e-06
-6.5953715e-08
2.7697172e-06
-4.4861929e-08
2.7487112e-06
-2.3868162e-08
2.7214018e-06
-3.1714375e-09
2.6876135e-06
1.7564277e-08
2.647532e-06
3.77487e-08
2.6017632e-06
5.7575398e-08
2.5503302e-06
7.6934165e-08
2.4933937e-06
9.572548e-08
2.431201e-06
1.1389279e-07
2.3640175e-06
1.3137985e-07
2.2921006e-06
1.4814851e-07
2.2157462e-06
1.6411957e-07
2.1352535e-06
1.7928252e-07
2.05093e-06
1.9359916e-07
1.9630925e-06
2.0702512e-07
1.872076e-06
2.1954059e-07
1.7781916e-06
2.3113246e-07
1.6817767e-06
2.4177404e-07
1.5831601e-06
2.5146396e-07
1.4826624e-06
2.6020017e-07
1.3806097e-06
2.6797734e-07
1.277315e-06
2.7481182e-07
1.1731042e-06
2.8068216e-07
1.0683321e-06
2.855936e-07
9.6320868e-07
2.8969382e-07
8.5807827e-07
2.928262e-07
7.5320698e-07
2.9510536e-07
6.4886462e-07
2.9654057e-07
5.4537163e-07
2.9713101e-07
4.4290301e-07
2.9698401e-07
3.417026e-07
2.96079e-07
2.4203542e-07
2.9444293e-07
1.4406972e-07
2.9215178e-07
4.8013231e-08
2.8921664e-07
-4.5940284e-08
2.8567653e-07
-1.3765104e-07
2.815887e-07
-2.2695855e-07
2.7697727e-07
-3.1372018e-07
2.7188592e-07
-3.9781007e-07
2.6635421e-07
-4.7911693e-07
2.6042179e-07
-5.5754201e-07
2.5412851e-07
-6.3300058e-07
2.4751197e-07
-7.0542071e-07
2.4060933e-07
-7.7474112e-07
2.3345857e-07
-8.4091309e-07
2.2609415e-07
-9.0389876e-07
2.1854958e-07
-9.6367449e-07
2.1085651e-07
-1.0202208e-06
2.0304831e-07
-1.0735312e-06
1.9515354e-07
-1.1236082e-06
1.871999e-07
-1.1704613e-06
1.7921428e-07
-1.214109e-06
1.7122099e-07
-1.2545769e-06
1.632431e-07
-1.2918968e-06
1.5530204e-07
-1.3261068e-06
1.4741769e-07
-1.3572504e-06
1.3960818e-07
-1.3853761e-06
1.318901e-07
-1.4105368e-06
1.242785e-07
-1.4327893e-06
1.1678689e-07
-1.4521937e-06
1.0942735e-07
-1.4688135e-06
1.0221075e-07
-1.4827142e-06
9.5146207e-08
-1.4939636e-06
8.8241709e-08
-1.5026311e-06
8.15039e-08
-1.5087871e-06
7.4938414e-08
-1.5125035e-06
6.8549884e-08
-1.5138515e-06
6.2340409e-08
-1.512904e-06
5.6313958e-08
-1.5097342e-06
5.0473118e-08
-1.5044142e-06
4.4816752e-08
-1.4970097e-06
3.9338508e-08
-1.4875964e-06
3.4050875e-08
-1.4762467e-06
2.895089e-08
-1.4630242e-06
2.4026568e-08
-1.4479989e-06
1.9286083e-08
-1.4312364e-06
1.4723775e-08
-1.4128055e-06
1.0340394e-08
-1.392767e-06
6.1254615e-09
-1.3711701e-06
2.0653934e-09
-1.348118e-06
-1.7744224e-09
-1.3236399e-06
-5.4867608e-09
-1.2977906e-06
-9.047476e-09
-1.2706269e-06
-1.2455099e-08
-1.2422029e-06
-1.5713897e-08
-1.2125703e-06
-1.8828644e-08
-1.1817788e-06
-2.1804055e-08
-1.1498764e-06
-2.4644832e-08
-1.116909e-06
-2.7355759e-08
-1.0829222e-06
-2.9941777e-08
-1.047961e-06
-3.240739e-08
-1.012076e-06
-3.4755474e-08
-9.7528675e-07
-3.6980359e-08
-9.3761979e-07
-3.9089792e-08
-8.9912933e-07
-4.1098784e-08
-8.5985076e-07
-4.3008512e-08
-8.1981701e-07
-4.4820739e-08
-7.7905957e-07
-4.6537721e-08
-7.3760903e-07
-4.816172e-08
-6.9549511e-07
-4.9694823e-08
-6.5274673e-07
-5.1138398e-08
-6.0939218e-07
-5.2492974e-08
-5.654593e-07
-5.3757752e-08
-5.2097561e-07
-5.4930028e-08
-4.7596832e-07
-5.6004434e-08
-4.3046385e-07
-5.6972424e-08
-3.8448651e-07
-5.7822324e-08
-3.3805537e-07
-5.8542092e-08
-2.9117834e-07
-5.9128447e-08
-2.4384364e-07
-5.9608945e-08
-1.9601225e-07
-6.0087532e-08
-1.4762486e-07
-6.0825952e-08
-9.8661835e-08
-6.235936e-08
-4.9290939e-08
-6.5553843e-08
-7.0942443e-08
3.3867559e-09
-1.6539437e-08
1.3537442e-08
-4.9312799e-08
3.0402991e-08
-8.1528457e-08
5.3879109e-08
-1.1300973e-07
8.3815993e-08
-1.4373017e-07
1.2002203e-07
-1.7365611e-07
1.6227187e-07
-2.0270424e-07
2.1031077e-07
-2.3076807e-07
2.6385572e-07
-2.5772529e-07
3.2259606e-07
-2.8344728e-07
3.8619397e-07
-3.0780667e-07
4.5428506e-07
-3.3068151e-07
5.2648007e-07
-3.5195876e-07
6.0236705e-07
-3.7153542e-07
6.8151261e-07
-3.8931804e-07
7.6346546e-07
-4.0522481e-07
8.4775872e-07
-4.1918472e-07
9.3391304e-07
-4.3113841e-07
1.0214381e-06
-4.4103665e-07
1.1098376e-06
-4.4884359e-07
1.1986105e-06
-4.545334e-07
1.2872551e-06
-4.5809271e-07
1.3752704e-06
-4.5951804e-07
1.4621617e-06
-4.5881986e-07
1.547439e-06
-4.5601608e-07
1.6306242e-06
-4.5113962e-07
1.7112504e-06
-4.4422957e-07
1.7888679e-06
-4.3533987e-07
1.8630408e-06
-4.2452828e-07
1.9333561e-06
-4.1186613e-07
1.9994222e-06
-3.9743203e-07
2.0608705e-06
-3.8130871e-07
2.1173588e-06
-3.6359563e-07
2.1685712e-06
-3.4439004e-07
2.2142201e-06
-3.2380241e-07
2.2540449e-06
-3.0193773e-07
2.2878196e-06
-2.7891897e-07
2.3153464e-06
-2.5486658e-07
2.3364596e-06
-2.2989987e-07
2.3510279e-06
-2.0414734e-07
2.3589503e-06
-1.7773311e-07
2.3601579e-06
-1.5078627e-07
2.3546144e-06
-1.2343675e-07
2.342314e-06
-9.581161e-08
2.3232933e-06
-6.8052316e-08
2.2976018e-06
-4.0262233e-08
2.2653885e-06
-1.2648587e-08
2.2266375e-06
1.4882793e-08
2.1814581e-06
4.2007956e-08
2.1302621e-06
6.8760323e-08
2.0730553e-06
9.4955494e-08
2.0101125e-06
1.2051821e-07
1.941671e-06
1.4537561e-07
1.8679825e-06
1.6941404e-07
1.7893129e-06
1.9256241e-07
1.7059472e-06
2.1474554e-07
1.6182142e-06
2.358815e-07
1.5263861e-06
2.5594767e-07
1.4307962e-06
2.7487241e-07
1.3318133e-06
2.9258203e-07
1.2297376e-06
3.0910083e-07
1.1249194e-06
3.2435883e-07
1.0177165e-06
3.3833537e-07
9.084717e-07
3.5101879e-07
7.9754251e-07
3.6239315e-07
6.8527818e-07
3.7246449e-07
5.7197749e-07
3.8127804e-07
4.5804723e-07
3.8874209e-07
3.4375945e-07
3.9496994e-07
2.293993e-07
3.9995375e-07
1.1546012e-07
4.0363298e-07
2.0744593e-09
4.0621187e-07
-1.104361e-07
4.0761591e-07
-2.2180122e-07
4.0790569e-07
-3.317752e-07
4.0710499e-07
-4.4007128e-07
4.0528009e-07
-5.4645957e-07
4.0246729e-07
-6.5073279e-07
3.9871615e-07
-7.5266695e-07
3.9408594e-07
-8.5207528e-07
3.8862497e-07
-9.4878564e-07
3.8238689e-07
-1.0426269e-06
3.7542996e-07
-1.1334559e-06
3.6780627e-07
-1.2211411e-06
3.5957109e-07
-1.3055654e-06
3.5077856e-07
-1.3866263e-06
3.4148269e-07
-1.4642347e-06
3.3173693e-07
-1.5383158e-06
3.21593e-07
-1.6088079e-06
3.1110146e-07
-1.6756614e-06
3.0031202e-07
-1.738839e-06
2.8927178e-07
-1.7983154e-06
2.7802604e-07
-1.8540771e-06
2.6661816e-07
-1.9061191e-06
2.5509034e-07
-1.9544473e-06
2.4348168e-07
-1.9990765e-06
2.3182911e-07
-2.0400299e-06
2.2016769e-07
-2.0773387e-06
2.0852983e-07
-2.1110414e-06
1.9694581e-07
-2.1411831e-06
1.8544366e-07
-2.1678145e-06
1.7404916e-07
-2.1909923e-06
1.6278589e-07
-2.2107774e-06
1.5167522e-07
-2.2272355e-06
1.4073664e-07
-2.2404357e-06
1.2998705e-07
-2.2504501e-06
1.1944183e-07
-2.2573537e-06
1.0911428e-07
-2.2612237e-06
9.901624e-08
-2.2621391e-06
8.9157147e-08
-2.2601812e-06
7.9545952e-08
-2.2554312e-06
7.0188394e-08
-2.247971e-06
6.1089709e-08
-2.2378805e-06
5.2249881e-08
-2.2252408e-06
4.3674279e-08
-2.2101373e-06
3.5369632e-08
-2.192659e-06
2.7338438e-08
-2.1728611e-06
1.954064e-08
-2.1508333e-06
1.2022999e-08
-2.1266725e-06
4.7900828e-09
-2.1004212e-06
-2.2246941e-09
-2.0721742e-06
-8.9608694e-09
-2.04201e-06
-1.5440456e-08
-2.0099957e-06
-2.1673905e-08
-1.9762034e-06
-2.7666808e-08
-1.9407143e-06
-3.3423762e-08
-1.9035518e-06
-3.8936878e-08
-1.8648076e-06
-4.4230987e-08
-1.8245449e-06
-4.9310173e-08
-1.7828216e-06
-5.4178417e-08
-1.7396942e-06
-5.884131e-08
-1.6952176e-06
-6.3305218e-08
-1.649445e-06
-6.7576688e-08
-1.6024274e-06
-7.1662389e-08
-1.5542143e-06
-7.5568893e-08
-1.5048534e-06
-7.9302689e-08
-1.454391e-06
-8.2869765e-08
-1.4028715e-06
-8.6274999e-08
-1.3503301e-06
-8.9521704e-08
-1.2968029e-06
-9.2616954e-08
-1.242332e-06
-9.5569742e-08
-1.1869549e-06
-9.8385638e-08
-1.1307065e-06
-1.0106913e-07
-1.0736198e-06
-1.0362437e-07
-1.0157264e-06
-1.060551e-07
-9.5705661e-07
-1.0836466e-07
-8.9763929e-07
-1.1055572e-07
-8.3750235e-07
-1.1262991e-07
-7.7667243e-07
-1.1458768e-07
-7.1517477e-07
-1.1642769e-07
-6.530326e-07
-1.181466e-07
-5.9026609e-07
-1.1973893e-07
-5.2689045e-07
-1.2119796e-07
-4.6291272e-07
-1.2251982e-07
-3.9832839e-07
-1.2371279e-07
-3.3311971e-07
-1.2481763e-07
-2.6726377e-07
-1.2594347e-07
-2.0076577e-07
-1.2732395e-07
-1.3374711e-07
-1.2937802e-07
-6.6591587e-08
-1.3270937e-07
-1.3753403e-07
3.1250447e-09
-1.9664481e-08
1.254656e-08
-5.8734314e-08
2.8260763e-08
-9.724266e-08
5.021522e-08
-1.3496419e-07
7.8283046e-08
-1.71798e-07
1.1227688e-07
-2.0764995e-07
1.5196943e-07
-2.4239679e-07
1.9710044e-07
-2.7589907e-07
2.4738065e-07
-3.080055e-07
3.024937e-07
-3.3856033e-07
3.6209724e-07
-3.6741021e-07
4.2582413e-07
-3.944084e-07
4.9328323e-07
-4.1941786e-07
5.6406125e-07
-4.4231344e-07
6.3772551e-07
-4.629823e-07
7.1382559e-07
-4.813249e-07
7.9189625e-07
-4.9725538e-07
8.7145991e-07
-5.1070207e-07
9.5203131e-07
-5.2160805e-07
1.0331162e-06
-5.2992852e-07
1.1142193e-06
-5.3563648e-07
1.1948435e-06
-5.3871685e-07
1.2744949e-06
-5.3916943e-07
1.3526842e-06
-5.3700924e-07
1.4289317e-06
-5.3226354e-07
1.5027655e-06
-5.2497342e-07
1.5737321e-06
-5.151962e-07
1.6413908e-06
-5.0299851e-07
1.7053162e-06
-4.8845367e-07
1.7651081e-06
-4.716581e-07
1.820389e-06
-4.5271288e-07
1.8708077e-06
-4.3172745e-07
1.9160341e-06
-4.0882203e-07
1.9557649e-06
-3.8412081e-07
1.9897348e-06
-3.5777232e-07
2.0177022e-06
-3.2990519e-07
2.0394555e-06
-3.0067228e-07
2.054821e-06
-2.7023199e-07
2.0636512e-06
-2.3873015e-07
2.0658342e-06
-2.0633033e-07
2.0612885e-06
-1.7318743e-07
2.0499779e-06
-1.3947563e-07
2.0318729e-06
-1.0533175e-07
2.0069891e-06
-7.0927848e-08
1.9753993e-06
-3.6462478e-08
1.937117e-06
-1.9799381e-09
1.8923582e-06
3.2110192e-08
1.8412383e-06
6.6002716e-08
1.7838589e-06
9.9387367e-08
1.7204605e-06
1.3215869e-07
1.651238e-06
1.64178e-07
1.5764266e-06
1.9532965e-07
1.4963156e-06
2.2548664e-07
1.4111497e-06
2.5457993e-07
1.3212411e-06
2.8247102e-07
1.2268951e-06
3.0909151e-07
1.1284249e-06
3.3435167e-07
1.0261838e-06
3.5818882e-07
9.2046707e-07
3.8058911e-07
8.1165727e-07
4.0139183e-07
7.001237e-07
4.206344e-07
5.8619829e-07
4.3828424e-07
4.7025551e-07
4.5427814e-07
3.5264912e-07
4.6862518e-07
2.3374212e-07
4.8130016e-07
1.1390682e-07
4.9229978e-07
-6.4544393e-09
5.0163929e-07
-1.271009e-07
5.0938855e-07
-2.476696e-07
5.1553864e-07
-3.6781862e-07
5.2010277e-07
-4.8729544e-07
5.231098e-07
-6.0572462e-07
5.2464104e-07
-7.2283252e-07
5.2472382e-07
-8.383366e-07
5.2340976e-07
-9.5198121e-07
5.207496e-07
-1.0635115e-06
5.1681042e-07
-1.1726946e-06
5.1165036e-07
-1.2793131e-06
5.0533463e-07
-1.3831602e-06
4.9793311e-07
-1.4840487e-06
4.8951345e-07
-1.5818073e-06
4.8014544e-07
-1.6762776e-06
4.6990033e-07
-1.7673196e-06
4.5884824e-07
-1.8548081e-06
4.4705958e-07
-1.9386334e-06
4.3460393e-07
-2.0187009e-06
4.2155014e-07
-2.0949299e-06
4.0796593e-07
-2.1672541e-06
3.939172e-07
-2.2356208e-06
3.7946813e-07
-2.2999897e-06
3.6468099e-07
-2.3603335e-06
3.496155e-07
-2.4166363e-06
3.3432883e-07
-2.4688938e-06
3.1887568e-07
-2.5171117e-06
3.0330824e-07
-2.5613056e-06
2.876756e-07
-2.6015004e-06
2.7202395e-07
-2.6377294e-06
2.5639668e-07
-2.6700337e-06
2.4083413e-07
-2.6984616e-06
2.253737e-07
-2.7230677e-06
2.1004979e-07
-2.7439127e-06
1.9489417e-07
-2.7610623e-06
1.799355e-07
-2.7745868e-06
1.651997e-07
-2.7845605e-06
1.507103e-07
-2.7910616e-06
1.3648817e-07
-2.7941707e-06
1.2255099e-07
-2.7939716e-06
1.0891515e-07
-2.7905495e-06
9.5594165e-08
-2.7839919e-06
8.2599494e-08
-2.7743843e-06
6.9938371e-08
-2.7618159e-06
5.7619994e-08
-2.7463815e-06
4.5655266e-08
-2.7281612e-06
3.4029639e-08
-2.7072398e-06
2.2752858e-08
-2.6837184e-06
1.1848265e-08
-2.6577077e-06
1.3277072e-09
-2.6291899e-06
-8.977163e-09
-2.5983389e-06
-1.8827989e-08
-2.5652132e-06
-2.8335685e-08
-2.5299232e-06
-3.7514638e-08
-2.4925274e-06
-4.6356665e-08
-2.4531006e-06
-5.4867295e-08
-2.4117197e-06
-6.3054801e-08
-2.3684597e-06
-7.0926826e-08
-2.3233933e-06
-7.8490164e-08
-2.27658e-06
-8.5750189e-08
-2.2280912e-06
-9.2719707e-08
-2.1779936e-06
-9.9407826e-08
-2.1263493e-06
-1.0582267e-07
-2.0732181e-06
-1.1197256e-07
-2.0186571e-06
-1.1786619e-07
-1.9627215e-06
-1.2351231e-07
-1.9054642e-06
-1.2891971e-07
-1.846936e-06
-1.340971e-07
-1.7871857e-06
-1.3905298e-07
-1.72626e-06
-1.4379544e-07
-1.664203e-06
-1.4833201e-07
-1.6010548e-06
-1.5266994e-07
-1.5368542e-06
-1.5681748e-07
-1.4716407e-06
-1.6078327e-07
-1.4054515e-06
-1.645748e-07
-1.3383219e-06
-1.6819875e-07
-1.2702852e-06
-1.7166113e-07
-1.2013728e-06
-1.7496749e-07
-1.1316148e-06
-1.7812271e-07
-1.0610395e-06
-1.81131e-07
-9.8967374e-07
-1.8399565e-07
-9.1754259e-07
-1.8671883e-07
-8.4466889e-07
-1.893014e-07
-7.7107263e-07
-1.9174287e-07
-6.9676974e-07
-1.9404181e-07
-6.2177043e-07
-1.9619727e-07
-5.4607735e-07
-1.982129e-07
-4.6968497e-07
-2.0010517e-07
-3.9258378e-07
-2.019188e-07
-3.1477602e-07
-2.0375122e-07
-2.3631551e-07
-2.0578446e-07
-1.5738631e-07
-2.0830721e-07
-7.8407762e-08
-2.1168791e-07
-2.1594179e-07
2.9914497e-09
-2.2655931e-08
1.2023952e-08
-6.7766816e-08
2.7112198e-08
-1.1233091e-07
4.8227188e-08
-1.5607918e-07
7.5256814e-08
-1.9882763e-07
1.080212e-07
-2.4041434e-07
1.4629506e-07
-2.8067065e-07
1.8981623e-07
-3.1942024e-07
2.3829167e-07
-3.5648093e-07
2.9140029e-07
-3.9166895e-07
3.4879485e-07
-4.2480477e-07
4.1010331e-07
-4.5571687e-07
4.7493053e-07
-4.8424508e-07
5.4285989e-07
-5.102428e-07
6.1345517e-07
-5.3357758e-07
6.8626357e-07
-5.541333e-07
7.6081809e-07
-5.718099e-07
8.3663879e-07
-5.8652277e-07
9.1323827e-07
-5.9820753e-07
9.9012405e-07
-6.0681431e-07
1.0667981e-06
-6.1231051e-07
1.1427651e-06
-6.1468391e-07
1.2175318e-06
-6.1393612e-07
1.2906103e-06
-6.1008774e-07
1.3615234e-06
-6.0317665e-07
1.4298026e-06
-5.9325261e-07
1.4949963e-06
-5.8038986e-07
1.5566662e-06
-5.6466843e-07
1.6144009e-06
-5.4618838e-07
1.6677999e-06
-5.2505708e-07
1.7164934e-06
-5.014064e-07
1.7601369e-06
-4.7537091e-07
1.7984075e-06
-4.4709263e-07
1.8310198e-06
-4.1673317e-07
1.8577068e-06
-3.8445933e-07
1.8782407e-06
-3.5043903e-07
1.8924308e-06
-3.1486236e-07
1.900101e-06
-2.7790218e-07
1.9011254e-06
-2.3975463e-07
1.8954082e-06
-2.0061305e-07
1.8828832e-06
-1.6066244e-07
1.863504e-06
-1.2009648e-07
1.8372909e-06
-7.9118651e-08
1.8042492e-06
-3.7886156e-08
1.764496e-06
3.2907264e-09
1.7181691e-06
4.4346935e-08
1.6652233e-06
8.5056078e-08
1.6059341e-06
1.2529183e-07
1.540466e-06
1.6485554e-07
1.469028e-06
2.0359666e-07
1.391846e-06
2.4135997e-07
1.3091785e-06
2.7799716e-07
1.2212934e-06
3.133718e-07
1.1285235e-06
3.4734984e-07
1.0311324e-06
3.7986206e-07
9.294691e-07
4.1075482e-07
8.2382684e-07
4.3999393e-07
7.145812e-07
4.6743446e-07
6.021243e-07
4.9304601e-07
4.8676556e-07
5.1675057e-07
3.6888272e-07
5.3851724e-07