/*--------------------------------*- C++ -*----------------------------------*\
| =========                 |                                                 |
| \\      /  F ield         | OpenFOAM: The Open Source CFD Toolbox           |
|  \\    /   O peration     | Version:  2306                                  |
|   \\  /    A nd           | Website:  www.openfoam.com                      |
|    \\/     M anipulation  |                                                 |
\*---------------------------------------------------------------------------*/
FoamFile
{
    version     2.0;
    format      ascii;
    arch        "LSB;label=32;scalar=64";
    class       volVectorField;
    location    "0.56";
    object      U_0;
}
// * * * * * * * * * * * * * * * * * * * * * * * * * * * * * * * * * * * * * //

dimensions      [0 1 -1 0 0 0 0];

internalField   nonuniform List<vector> 
51200
(
(4.013688e-05 -2.7358824e-05 -1.0468449e-19)
(9.5239128e-05 -3.3636285e-05 -4.4973956e-21)
(0.0001572429 -3.3271634e-05 2.0636141e-20)
(0.00021691473 -3.3397549e-05 -1.4981885e-20)
(0.00027752097 -3.3352858e-05 -3.3458949e-20)
(0.00033723343 -3.3096737e-05 1.0837862e-20)
(0.00039605974 -3.2815523e-05 8.7812351e-21)
(0.00045402378 -3.2500282e-05 -2.4537098e-20)
(0.00051107882 -3.2148307e-05 -2.1253475e-20)
(0.00056714785 -3.1759675e-05 4.2220626e-20)
(0.00062214172 -3.1334237e-05 5.9153907e-20)
(0.0006759651 -3.0872331e-05 -1.2799596e-20)
(0.00072852056 -3.0374881e-05 2.8544953e-20)
(0.0007797125 -2.9843101e-05 4.7935267e-20)
(0.00082944908 -2.9278363e-05 2.9724196e-20)
(0.00087764298 -2.8682139e-05 1.1573572e-20)
(0.00092421182 -2.8055987e-05 -9.5173831e-21)
(0.00096907855 -2.7401522e-05 1.9208344e-20)
(0.0010121718 -2.6720341e-05 1.2964499e-20)
(0.0010534258 -2.6013957e-05 -1.8312486e-20)
(0.0010927809 -2.528387e-05 1.6232808e-20)
(0.0011301832 -2.4531333e-05 2.7169497e-20)
(0.0011655849 -2.3757408e-05 -6.8294574e-21)
(0.001198944 -2.2962731e-05 -6.6592522e-20)
(0.0012302248 -2.2147386e-05 -1.5402714e-19)
(0.0012593974 -2.1310336e-05 -3.7820547e-21)
(0.001286438 -2.0449139e-05 1.9558728e-19)
(0.0013113315 -1.9559954e-05 2.2289606e-20)
(0.0013340877 -1.8641923e-05 -1.1577061e-19)
(0.0013547216 -1.772518e-05 -5.500088e-20)
(0.0013732146 -1.6846117e-05 -3.6142618e-20)
(0.0013895497 -1.6002291e-05 -3.9315525e-20)
(0.0014037384 -1.5185931e-05 -1.0339499e-19)
(0.0014158033 -1.4391074e-05 1.0057302e-19)
(0.0014257714 -1.3614207e-05 2.1766708e-19)
(0.0014336744 -1.285365e-05 -1.2687775e-19)
(0.0014395477 -1.2108234e-05 -1.064887e-19)
(0.0014434309 -1.1377813e-05 1.8565131e-19)
(0.0014453684 -1.0662612e-05 -8.9344608e-20)
(0.0014454085 -9.9628659e-06 -3.4592327e-19)
(0.0014436027 -9.2795554e-06 -6.1865723e-20)
(0.0014400069 -8.614043e-06 2.30717e-19)
(0.0014346793 -7.9678875e-06 4.1488058e-19)
(0.0014276828 -7.3437339e-06 3.5662851e-19)
(0.0014190836 -6.7422604e-06 -1.9140683e-19)
(0.0014089497 -6.1643296e-06 -7.3015468e-19)
(0.0013973521 -5.6111615e-06 -1.7039589e-19)
(0.0013843641 -5.0840055e-06 2.4927172e-19)
(0.0013700612 -4.5853279e-06 2.3565624e-19)
(0.0013545204 -4.119734e-06 3.3768006e-19)
(0.0013378197 -3.6922259e-06 -2.3303678e-19)
(0.0013200236 -3.3024252e-06 -1.2803764e-19)
(0.0013011988 -2.9427407e-06 1.4779035e-19)
(0.0012814226 -2.5890206e-06 -1.8457789e-19)
(0.0012607636 -2.2342903e-06 1.4587771e-19)
(0.0012392619 -1.8764288e-06 1.2179882e-19)
(0.0012170246 -1.4431802e-06 -2.9521218e-19)
(0.0011941879 -9.8535038e-07 -6.1302597e-20)
(0.0011708085 -5.4830774e-07 8.1626514e-20)
(0.0011469353 -1.4059158e-07 -4.0207068e-20)
(0.0011226334 2.3718568e-07 8.1221692e-21)
(0.0010979693 5.8708368e-07 8.0922857e-20)
(0.0010730094 9.1013484e-07 -7.5642137e-21)
(0.0010478187 1.2086485e-06 -1.6529257e-19)
(0.0010224581 1.4838611e-06 -8.0478648e-20)
(0.00099698747 1.736814e-06 1.3360454e-19)
(0.00097146422 1.9688017e-06 3.5038741e-20)
(0.00094594212 2.1806334e-06 -6.6227534e-21)
(0.00092047334 2.3731446e-06 -5.2457457e-20)
(0.0008951053 2.5483567e-06 -2.8130065e-19)
(0.00086988288 2.7057352e-06 5.6290712e-20)
(0.00084485047 2.8459731e-06 2.7708305e-19)
(0.00082004846 2.9703466e-06 3.1348322e-20)
(0.00079551429 3.079839e-06 -4.2935883e-20)
(0.0007712813 3.175627e-06 -3.1772974e-20)
(0.00074738148 3.2568865e-06 1.5096407e-19)
(0.00072384358 3.3259407e-06 9.2674678e-20)
(0.00070069314 3.3828564e-06 -1.7434646e-19)
(0.00067795403 3.4288448e-06 -1.6584379e-19)
(0.00065564692 3.4642863e-06 -1.6439583e-21)
(0.00063379031 3.4898917e-06 4.8357602e-20)
(0.00061239959 3.5063048e-06 1.8111954e-20)
(0.00059148813 3.5142177e-06 -5.5773164e-21)
(0.00057106741 3.5143659e-06 -2.8292386e-20)
(0.00055114657 3.5075438e-06 -1.870992e-20)
(0.00053173226 3.4942785e-06 2.6329313e-20)
(0.00051282946 3.4749698e-06 8.1569996e-20)
(0.00049444164 3.4503435e-06 5.4073165e-20)
(0.00047656974 3.4213287e-06 -8.4042961e-20)
(0.00045921371 3.3876452e-06 -1.3435711e-19)
(0.00044237232 3.3501747e-06 -5.7484993e-20)
(0.00042604235 3.3094607e-06 3.0674044e-21)
(0.00041021915 3.2660279e-06 5.2721951e-20)
(0.00039489727 3.2199581e-06 4.7422329e-20)
(0.00038007052 3.1718431e-06 -2.3235224e-21)
(0.00036573123 3.122114e-06 -4.1737329e-20)
(0.00035187108 3.070908e-06 8.6060892e-20)
(0.00033848105 3.0186525e-06 1.1219529e-19)
(0.00032555131 2.9656556e-06 -6.781304e-20)
(0.00031307151 2.9121445e-06 -1.0349371e-19)
(0.00030103083 2.8583729e-06 -4.7783081e-20)
(0.00028941801 2.8045723e-06 6.5802746e-20)
(0.00027822146 2.7509335e-06 8.8146153e-20)
(0.00026742934 2.6976446e-06 -1.3550759e-20)
(0.00025702959 2.6448686e-06 -5.3640536e-20)
(0.00024701003 2.5927553e-06 -8.4830254e-20)
(0.00023735837 2.5414303e-06 4.7375194e-20)
(0.00022806232 2.4910141e-06 1.1628524e-19)
(0.00021910959 2.4415998e-06 2.7882468e-20)
(0.00021048797 2.3932724e-06 2.6520498e-20)
(0.00020218534 2.3461004e-06 -8.7529483e-20)
(0.00019418976 2.3001394e-06 -1.0545627e-19)
(0.00018648943 2.2554243e-06 6.8095994e-20)
(0.0001790728 2.2119788e-06 5.4543831e-20)
(0.00017192851 2.169826e-06 -7.5309369e-21)
(0.00016504548 2.1289676e-06 -2.6165093e-20)
(0.00015841289 2.089416e-06 -7.0232532e-21)
(0.00015202019 2.0511795e-06 5.9413556e-20)
(0.00014585704 2.0142989e-06 -1.6053363e-20)
(0.00013991341 1.9787508e-06 -5.4493247e-20)
(0.00013417957 1.9445408e-06 -9.7918823e-21)
(0.00012864605 1.9116439e-06 4.1088666e-20)
(0.0001233037 1.880048e-06 4.1401714e-20)
(0.00011814365 1.8497009e-06 -4.4261856e-20)
(0.0001131573 1.8205864e-06 -5.0836262e-20)
(0.00010833621 1.792714e-06 -8.7786588e-21)
(0.00010367235 1.7659408e-06 4.9471102e-20)
(9.915818e-05 1.7401948e-06 5.4336821e-20)
(9.4786458e-05 1.7154361e-06 -3.9939442e-21)
(9.0550206e-05 1.6916173e-06 -1.5597446e-20)
(8.6442705e-05 1.6687171e-06 -2.360475e-20)
(8.2457493e-05 1.6467164e-06 2.3173828e-20)
(7.8588376e-05 1.6255846e-06 6.6629717e-20)
(7.4829466e-05 1.6052905e-06 1.1719572e-20)
(7.1175193e-05 1.5857896e-06 -3.3873742e-20)
(6.7620218e-05 1.5671983e-06 -3.4562998e-20)
(6.4159284e-05 1.5495973e-06 -2.4342038e-21)
(6.078698e-05 1.5333801e-06 1.2544028e-20)
(5.7497986e-05 1.5184076e-06 7.46575e-21)
(5.4287672e-05 1.5043385e-06 4.258568e-21)
(5.1151958e-05 1.4909448e-06 -1.2653778e-20)
(4.8086783e-05 1.4784488e-06 3.6724495e-21)
(4.5088149e-05 1.4667144e-06 1.4259993e-20)
(4.2152258e-05 1.4557919e-06 -1.1268265e-20)
(3.927536e-05 1.4456041e-06 -1.6554698e-20)
(3.6453826e-05 1.4361556e-06 -1.4225599e-20)
(3.3684136e-05 1.4274274e-06 1.0478891e-20)
(3.0962791e-05 1.4194191e-06 2.7810505e-20)
(2.8286271e-05 1.4121457e-06 -3.7764763e-21)
(2.5650897e-05 1.4056635e-06 -1.2273731e-20)
(2.3052667e-05 1.4001215e-06 -4.3302258e-21)
(2.0486851e-05 1.3957772e-06 6.8842881e-21)
(1.7947453e-05 1.3932155e-06 1.0635129e-20)
(1.5426529e-05 1.3934947e-06 1.9726953e-21)
(1.291352e-05 1.3982043e-06 1.8162708e-21)
(1.0395881e-05 1.4089311e-06 -1.2120482e-21)
(7.8650554e-06 1.4239347e-06 -1.4793725e-21)
(5.3373207e-06 1.4281968e-06 3.343112e-21)
(2.883127e-06 1.3646108e-06 3.620902e-21)
(8.0276852e-07 1.1874564e-06 3.5397527e-21)
(7.9074855e-05 -0.00021624084 -3.5953539e-20)
(0.00017786854 -0.00021958211 -1.4815975e-20)
(0.00028882378 -0.00021788317 -3.601648e-20)
(0.00039547574 -0.00021636958 -7.9111825e-20)
(0.00050322612 -0.0002144198 -6.5847581e-20)
(0.00060927774 -0.00021223525 4.2465872e-21)
(0.00071362394 -0.00021000435 -3.5153951e-20)
(0.00081630199 -0.00020768704 -2.1724446e-20)
(0.00091720777 -0.00020522913 1.3904794e-20)
(0.0010161777 -0.00020259173 6.6915623e-20)
(0.0011130278 -0.00019975109 1.0237876e-19)
(0.0012075651 -0.00019669555 7.3802188e-20)
(0.0012995948 -0.00019342195 2.7713031e-20)
(0.0013889276 -0.0001899325 -6.6099571e-20)
(0.0014753824 -0.0001862329 2.7422768e-20)
(0.0015587886 -0.00018233094 3.8543867e-20)
(0.0016389864 -0.00017823597 -6.7623194e-20)
(0.0017158278 -0.00017395848 1.5646286e-20)
(0.0017891772 -0.00016950971 9.2377893e-20)
(0.0018589112 -0.00016490128 7.5475141e-20)
(0.0019249198 -0.0001601455 4.2128967e-20)
(0.0019871053 -0.00015525452 2.3677668e-20)
(0.0020453836 -0.00015024076 5.5281047e-21)
(0.0020996835 -0.00014511651 -7.1194434e-20)
(0.0021499475 -0.000139894 -2.1262948e-19)
(0.0021961321 -0.00013458437 -7.0263589e-20)
(0.0022382068 -0.00012919787 1.3020179e-19)
(0.0022761525 -0.00012374403 3.0832086e-20)
(0.0023099483 -0.000118236 3.6000478e-20)
(0.0023395829 -0.0001127074 -5.4926891e-20)
(0.0023650875 -0.00010719872 -2.3563525e-19)
(0.0023865103 -0.00010172103 -8.7758961e-20)
(0.0024038945 -9.6281053e-05 8.5461451e-21)
(0.0024172914 -9.088432e-05 1.3460978e-19)
(0.0024267619 -8.5538801e-05 1.4359966e-19)
(0.002432379 -8.025414e-05 -4.1200378e-20)
(0.0024342252 -7.5038837e-05 6.2218301e-20)
(0.0024323919 -6.9903172e-05 1.0645855e-19)
(0.0024269807 -6.4856814e-05 -4.704886e-19)
(0.0024181005 -5.9907643e-05 -4.9491122e-19)
(0.0024058666 -5.5064112e-05 5.5327268e-19)
(0.0023904021 -5.0333569e-05 4.0004371e-19)
(0.0023718348 -4.5721247e-05 -1.422601e-19)
(0.002350302 -4.1235441e-05 -5.1869675e-20)
(0.0023259471 -3.6880137e-05 -1.4675913e-19)
(0.0022989143 -3.2661922e-05 2.5541663e-19)
(0.0022693524 -2.8587147e-05 2.9389614e-19)
(0.0022374125 -2.4660885e-05 -3.5728487e-19)
(0.0022032459 -2.0888148e-05 -2.101453e-19)
(0.0021670062 -1.7268427e-05 2.0160778e-19)
(0.0021288561 -1.3798329e-05 2.2057961e-19)
(0.0020889529 -1.0424252e-05 -3.6192404e-20)
(0.0020474644 -7.2142569e-06 -2.3556301e-19)
(0.0020045391 -4.2036202e-06 -1.0410142e-19)
(0.0019602991 -1.3888803e-06 8.9427246e-20)
(0.0019149286 1.2651501e-06 1.7093797e-19)
(0.0018685569 3.8073878e-06 -8.5829705e-20)
(0.0018212766 6.2116244e-06 -4.5017798e-19)
(0.0017732556 8.4580402e-06 -1.3418264e-19)
(0.0017246546 1.0544614e-05 3.9006087e-19)
(0.0016756138 1.247232e-05 1.3083996e-19)
(0.0016262628 1.4246796e-05 -2.7313584e-19)
(0.001576727 1.5867881e-05 -1.964864e-19)
(0.0015271276 1.7343395e-05 6.1409177e-20)
(0.0014775756 1.8676568e-05 -5.8368353e-20)
(0.0014281813 1.9872178e-05 -3.3973149e-21)
(0.00137905 2.0935579e-05 2.3206191e-19)
(0.0013302776 2.187128e-05 -1.0866974e-19)
(0.0012819576 2.2684268e-05 -2.455243e-19)
(0.0012341729 2.3384598e-05 -2.1355406e-19)
(0.0011870008 2.3972694e-05 -5.0223629e-20)
(0.0011405183 2.4453693e-05 2.8561075e-19)
(0.0010947939 2.4835235e-05 2.331946e-19)
(0.00104989 2.5122798e-05 8.0052799e-20)
(0.0010058587 2.532307e-05 -1.4044371e-19)
(0.00096275156 2.5438543e-05 7.958408e-20)
(0.00092061484 2.5481178e-05 2.3388519e-19)
(0.00087948592 2.5449021e-05 -2.5652052e-19)
(0.00083939795 2.5349938e-05 -2.2839137e-19)
(0.00080037933 2.5190784e-05 9.6342501e-20)
(0.00076245557 2.4976009e-05 1.663602e-20)
(0.00072564482 2.4710532e-05 -3.0123976e-20)
(0.00068996118 2.439905e-05 -1.2465439e-19)
(0.00065541514 2.4045314e-05 -2.5624192e-19)
(0.00062201272 2.3655128e-05 -2.6948088e-20)
(0.0005897557 2.3232974e-05 1.7548603e-19)
(0.00055864328 2.2782266e-05 1.9268161e-19)
(0.00052867173 2.2307228e-05 2.9431911e-19)
(0.0004998307 2.1810923e-05 -4.904398e-21)
(0.00047210984 2.1297707e-05 -5.1041998e-19)
(0.00044549844 2.0770508e-05 -3.380747e-19)
(0.00041998019 2.0232156e-05 1.7344681e-19)
(0.00039553603 1.9686722e-05 1.6234319e-19)
(0.00037214645 1.913503e-05 -1.3714981e-19)
(0.00034979119 1.858048e-05 -1.2052798e-20)
(0.00032844666 1.8025343e-05 1.2266338e-19)
(0.00030808867 1.7471426e-05 1.9964669e-19)
(0.00028869229 1.6920873e-05 1.2993511e-19)
(0.00027023105 1.6375322e-05 -2.7390571e-19)
(0.00025267794 1.5836299e-05 -2.4519183e-19)
(0.00023600542 1.5305137e-05 5.2323005e-20)
(0.0002201854 1.4783066e-05 2.1744574e-19)
(0.00020518951 1.4271135e-05 1.3051034e-19)
(0.00019098923 1.377027e-05 -1.415737e-19)
(0.00017755594 1.328126e-05 -1.1232173e-19)
(0.0001648611 1.2804759e-05 -9.1941303e-23)
(0.00015287631 1.2341312e-05 1.3752967e-19)
(0.00014157341 1.1891372e-05 2.4468907e-19)
(0.00013092457 1.1455268e-05 2.2888243e-20)
(0.00012090239 1.1033238e-05 -1.1118057e-19)
(0.00011147992 1.0625436e-05 -1.00981e-19)
(0.00010263075 1.0231924e-05 -1.3287367e-19)
(9.4329067e-05 9.8526954e-06 1.0768468e-19)
(8.6549694e-05 9.4877276e-06 2.2405264e-19)
(7.9268076e-05 9.1369151e-06 -3.6531428e-20)
(7.2460359e-05 8.8000573e-06 -2.2459907e-19)
(6.6103432e-05 8.476948e-06 -7.4341012e-20)
(6.0174929e-05 8.1675045e-06 1.8970098e-19)
(5.4653089e-05 7.8714777e-06 3.0952271e-20)
(4.9516876e-05 7.5885387e-06 -2.460587e-19)
(4.4746048e-05 7.3184653e-06 -6.4824176e-20)
(4.0321051e-05 7.0609286e-06 2.6549749e-19)
(3.6223079e-05 6.8155706e-06 2.0135821e-19)
(3.2434085e-05 6.5820374e-06 -1.7637561e-19)
(2.8936749e-05 6.3601628e-06 -3.1684836e-19)
(2.5714173e-05 6.1500585e-06 -6.5220441e-21)
(2.2750329e-05 5.9507328e-06 2.5833319e-19)
(2.0030232e-05 5.7616879e-06 1.3302447e-19)
(1.753951e-05 5.582616e-06 -5.154728e-20)
(1.526442e-05 5.4132156e-06 -1.0547356e-19)
(1.3191833e-05 5.25318e-06 -5.596215e-20)
(1.1309187e-05 5.10217e-06 1.2233621e-19)
(9.6045153e-06 4.9598545e-06 1.717961e-19)
(8.0664722e-06 4.8258769e-06 2.2161655e-20)
(6.6844992e-06 4.6998751e-06 -1.0812327e-19)
(5.448505e-06 4.5815595e-06 -5.5644226e-20)
(4.3488911e-06 4.4708957e-06 2.6984478e-20)
(3.3757405e-06 4.3690532e-06 1.4703844e-20)
(2.5189448e-06 4.2742726e-06 1.6344134e-20)
(1.7699993e-06 4.1849839e-06 1.5463671e-21)
(1.1218203e-06 4.1011766e-06 -2.9339954e-20)
(5.6699694e-07 4.0229193e-06 -2.1510314e-20)
(9.8159093e-08 3.9501768e-06 2.1278896e-20)
(-2.9142612e-07 3.8828555e-06 -5.7934619e-21)
(-6.0845357e-07 3.8207756e-06 -5.1364304e-20)
(-8.5929153e-07 3.7638822e-06 -1.7407664e-20)
(-1.0501383e-06 3.7121204e-06 5.109978e-20)
(-1.1871107e-06 3.6655627e-06 5.5302639e-20)
(-1.2763643e-06 3.6244391e-06 -1.8083889e-20)
(-1.3242911e-06 3.5892677e-06 -4.7679751e-20)
(-1.3377969e-06 3.5610505e-06 1.2365165e-22)
(-1.3247361e-06 3.5414425e-06 3.9143217e-20)
(-1.2943556e-06 3.5331203e-06 2.1691573e-20)
(-1.2575206e-06 3.5396532e-06 -3.8717667e-21)
(-1.2259707e-06 3.5640992e-06 -6.6132057e-21)
(-1.2087598e-06 3.6039386e-06 5.0216617e-23)
(-1.2020943e-06 3.6370547e-06 8.7370084e-21)
(-1.166787e-06 3.588982e-06 1.3230843e-20)
(-1.0288028e-06 3.2833618e-06 1.189435e-20)
(-4.7125501e-07 2.5255366e-06 1.2252061e-20)
(8.7788863e-05 -0.0004793249 1.2246666e-19)
(0.00019551418 -0.00047771696 -7.4991726e-22)
(0.00031714676 -0.00047335786 -6.5617628e-20)
(0.00043380292 -0.00046827289 -9.8568118e-20)
(0.00055166633 -0.00046295414 -3.8145294e-20)
(0.00066758543 -0.00045766496 8.0827154e-21)
(0.00078151287 -0.00045236557 -6.2125468e-20)
(0.00089343615 -0.00044690416 1.4070548e-20)
(0.0010032014 -0.00044114574 1.1719745e-20)
(0.0011106025 -0.00043499475 -4.6535794e-20)
(0.0012154188 -0.00042839349 7.1102455e-20)
(0.0013174227 -0.00042131299 5.1996862e-20)
(0.0014163867 -0.00041374446 1.2357165e-19)
(0.0015120899 -0.00040569228 7.2123721e-21)
(0.0016043219 -0.00039716962 -4.42488e-20)
(0.0016928844 -0.00038819479 6.0166913e-20)
(0.0017775927 -0.00037879024 6.7537861e-21)
(0.0018582766 -0.00036898131 6.472379e-20)
(0.0019347804 -0.00035879536 7.2496734e-20)
(0.0020069643 -0.00034826088 -2.915084e-20)
(0.0020747047 -0.00033740841 2.4777857e-20)
(0.0021378937 -0.00032626861 4.7459995e-20)
(0.0021964396 -0.00031487296 2.601459e-21)
(0.0022502673 -0.0003032538 -7.7608453e-20)
(0.0022993179 -0.00029144445 -1.5833474e-19)
(0.002343549 -0.00027947794 -9.2445005e-20)
(0.0023829338 -0.00026738779 -3.5996774e-21)
(0.0024174599 -0.00025520845 4.0113407e-20)
(0.0024471301 -0.00024297614 2.4171452e-20)
(0.0024719634 -0.00023071128 3.4637217e-20)
(0.0024919995 -0.00021843384 -4.7791207e-21)
(0.0025072905 -0.0002061755 -2.0183624e-19)
(0.0025178995 -0.00019397296 -1.0313382e-19)
(0.0025239034 -0.00018185518 9.3146193e-20)
(0.00252539 -0.00016985208 8.4862836e-20)
(0.0025224626 -0.00015799137 1.0508423e-19)
(0.0025152351 -0.00014629796 -7.7751765e-21)
(0.0025038311 -0.00013479856 -1.2348932e-19)
(0.0024883871 -0.00012351689 -2.2406275e-19)
(0.002469048 -0.00011247296 -2.5277195e-19)
(0.0024459665 -0.00010168676 6.4331272e-20)
(0.0024193052 -9.1176656e-05 2.872329e-19)
(0.0023892294 -8.0957184e-05 2.3836262e-19)
(0.0023559134 -7.1046283e-05 1.3916119e-19)
(0.0023195375 -6.1454778e-05 -3.6497696e-20)
(0.0022802824 -5.219695e-05 -2.7914152e-19)
(0.0022383367 -4.3282206e-05 -9.8096508e-20)
(0.0021938923 -3.4717552e-05 3.5676652e-20)
(0.0021471466 -2.6507555e-05 2.1664383e-19)
(0.0020982991 -1.862416e-05 3.9500078e-19)
(0.0020475905 -1.1137935e-05 -1.792154e-19)
(0.0019951207 -4.1184385e-06 -2.59098e-19)
(0.0019409825 2.5075585e-06 1.1138016e-19)
(0.0018854411 8.7420212e-06 -8.9051354e-21)
(0.001828746 1.4579168e-05 -8.4327065e-20)
(0.0017710887 2.0033773e-05 -6.4570614e-20)
(0.0017126317 2.5078574e-05 -1.0069454e-19)
(0.0016535466 2.9734905e-05 -7.3364487e-20)
(0.001593999 3.4032244e-05 -5.4893958e-20)
(0.0015341459 3.7977746e-05 -1.1116714e-19)
(0.0014741467 4.1576374e-05 -8.7794922e-22)
(0.0014141518 4.4844486e-05 4.8183844e-20)
(0.0013543082 4.7775652e-05 -2.1458785e-19)
(0.0012947572 5.0389565e-05 -5.0592689e-20)
(0.001235626 5.2693792e-05 2.9833724e-19)
(0.0011770413 5.4696954e-05 1.7356122e-19)
(0.0011191212 5.6413475e-05 -2.0403169e-19)
(0.0010619737 5.785409e-05 -3.7120635e-19)
(0.0010057046 5.9029597e-05 -6.9745816e-20)
(0.00095040284 5.9967351e-05 -1.4146486e-19)
(0.00089614923 6.0664858e-05 -1.4869041e-19)
(0.00084302942 6.1133234e-05 8.1970298e-20)
(0.00079111587 6.1390983e-05 6.4679021e-20)
(0.00074047183 6.1451124e-05 2.147106e-19)
(0.00069115043 6.1340878e-05 1.0939059e-19)
(0.00064320575 6.1046416e-05 2.9699487e-19)
(0.00059667493 6.059697e-05 1.3455375e-19)
(0.00055159055 6.000946e-05 -5.3233846e-19)
(0.00050799023 5.9282143e-05 -1.429774e-19)
(0.0004658944 5.8437288e-05 3.8784357e-19)
(0.00042531992 5.7485471e-05 2.2631256e-20)
(0.00038627754 5.6432968e-05 -4.2337687e-19)
(0.00034877228 5.529511e-05 -2.8998208e-19)
(0.00031280718 5.4081804e-05 -1.1918515e-19)
(0.00027838012 5.2802867e-05 -8.5832279e-20)
(0.00024548097 5.146782e-05 7.6093074e-20)
(0.00021409773 5.0085837e-05 5.6456225e-20)
(0.00018421501 4.8665066e-05 2.4022082e-19)
(0.00015581279 4.7212624e-05 4.0508513e-19)
(0.00012886911 4.5738331e-05 -2.0289287e-19)
(0.0001033588 4.424815e-05 -4.6617265e-19)
(7.9255011e-05 4.2748283e-05 -3.9813311e-21)
(5.6525281e-05 4.1244803e-05 1.051429e-19)
(3.5137269e-05 3.9743818e-05 -1.6348488e-19)
(1.5059445e-05 3.8250132e-05 3.3079518e-20)
(-3.74509e-06 3.6768229e-05 3.3689754e-19)
(-2.1312754e-05 3.5302607e-05 4.1845726e-20)
(-3.7680929e-05 3.3856917e-05 -2.0159685e-19)
(-5.2888456e-05 3.2434486e-05 -2.7009846e-19)
(-6.6974339e-05 3.1038376e-05 -7.9483347e-20)
(-7.9978024e-05 2.9671142e-05 2.7732575e-19)
(-9.1939209e-05 2.8335049e-05 2.1942371e-19)
(-0.00010289762 2.7032028e-05 -6.7467329e-21)
(-0.0001128929 2.5763714e-05 -2.2983208e-19)
(-0.00012196448 2.4531427e-05 -1.9908864e-20)
(-0.00013015142 2.3336214e-05 2.7076241e-19)
(-0.0001374923 2.21789e-05 8.3090111e-20)
(-0.00014402513 2.1060053e-05 1.1344203e-21)
(-0.00014978724 1.9980016e-05 -4.4464647e-20)
(-0.00015481523 1.8938959e-05 -1.6505031e-19)
(-0.00015914486 1.7936866e-05 -1.7685385e-20)
(-0.000162811 1.6973543e-05 5.0644705e-20)
(-0.00016584755 1.6048639e-05 6.5025118e-20)
(-0.0001682874 1.5161744e-05 1.9440896e-19)
(-0.00017016257 1.4312325e-05 -3.5652052e-20)
(-0.00017150397 1.3499561e-05 -3.1546019e-19)
(-0.00017234123 1.2722582e-05 -1.6136622e-19)
(-0.00017270312 1.19811e-05 9.294707e-20)
(-0.00017261761 1.1274217e-05 8.48659e-20)
(-0.00017211132 1.060063e-05 -4.1265676e-20)
(-0.0001712098 9.9598025e-06 3.0014266e-20)
(-0.00016993782 9.3508187e-06 1.2957117e-19)
(-0.00016831894 8.7728651e-06 4.8581613e-20)
(-0.00016637552 8.2248015e-06 -1.4793978e-19)
(-0.00016412867 7.7058057e-06 -1.5882077e-19)
(-0.00016159992 7.2167653e-06 6.7059612e-20)
(-0.00015880948 6.75318e-06 1.6076526e-19)
(-0.00015577519 6.314469e-06 9.3224351e-20)
(-0.00015251441 5.900119e-06 -5.5078097e-20)
(-0.00014904386 5.5093875e-06 -6.0395475e-20)
(-0.00014537948 5.1414054e-06 1.8774424e-20)
(-0.00014153637 4.795235e-06 3.7428842e-20)
(-0.00013752883 4.4699838e-06 1.0551959e-19)
(-0.00013337035 4.1647325e-06 1.0284875e-19)
(-0.00012907351 3.8785496e-06 -1.2051822e-20)
(-0.00012464999 3.6101422e-06 -8.0636987e-20)
(-0.00012010984 3.3579211e-06 -3.5385196e-20)
(-0.00011546595 3.1188004e-06 1.0904077e-20)
(-0.00011073175 2.8937434e-06 1.9038977e-21)
(-0.00010591509 2.6843896e-06 -5.7918832e-21)
(-0.00010102304 2.4903281e-06 -1.7296168e-20)
(-9.6064138e-05 2.3105775e-06 -4.5231917e-20)
(-9.1046598e-05 2.1446361e-06 6.086325e-21)
(-8.5978113e-05 1.9918517e-06 2.2846884e-20)
(-8.0865991e-05 1.8517256e-06 -1.5310857e-20)
(-7.5717194e-05 1.7238944e-06 8.2613738e-21)
(-7.0538412e-05 1.6081357e-06 1.238698e-20)
(-6.5336149e-05 1.5044676e-06 3.4575669e-21)
(-6.0116844e-05 1.4132512e-06 7.0930214e-21)
(-5.488701e-05 1.3353704e-06 5.3304991e-21)
(-4.9653387e-05 1.2724737e-06 2.6036617e-20)
(-4.4423093e-05 1.2271694e-06 2.5752352e-20)
(-3.9203583e-05 1.2030333e-06 6.2658458e-21)
(-3.4002042e-05 1.2035988e-06 -6.606032e-21)
(-2.8823714e-05 1.228903e-06 1.3895761e-21)
(-2.3668254e-05 1.2664316e-06 1.3428405e-20)
(-1.8522835e-05 1.2713561e-06 9.2681083e-21)
(-1.3351183e-05 1.1286931e-06 1.5122443e-20)
(-8.1054383e-06 6.1674639e-07 2.38791e-20)
(-2.72012e-06 -4.5246278e-07 2.7560016e-20)
(8.2242206e-05 -0.00072768375 4.4043027e-19)
(0.00018487869 -0.00072210091 1.0652562e-19)
(0.00030136524 -0.00071514387 -5.5375964e-20)
(0.00041327699 -0.00070703317 -1.2702899e-20)
(0.00052669697 -0.0006987373 -1.9279082e-19)
(0.00063828292 -0.0006905027 -8.4625678e-20)
(0.00074787925 -0.00068214148 -6.7926696e-20)
(0.0008553716 -0.00067343744 1.8498164e-20)
(0.00096055227 -0.00066421158 1.4434482e-20)
(0.0010631897 -0.00065433699 2.197934e-20)
(0.0011630512 -0.00064373697 7.1236598e-20)
(0.001259904 -0.00063237357 2.6305456e-20)
(0.0013535181 -0.0006202372 1.4000579e-19)
(0.0014436708 -0.00060733731 9.1863909e-20)
(0.0015301507 -0.0005936963 1.3815402e-20)
(0.0016127591 -0.00057934468 1.0025394e-19)
(0.0016913106 -0.00056431946 2.6264717e-20)
(0.0017656349 -0.00054866215 6.0716331e-20)
(0.0018355777 -0.00053241748 1.0080482e-19)
(0.0019010003 -0.00051563244 -2.2077782e-21)
(0.0019617816 -0.00049835656 4.4788357e-20)
(0.002017818 -0.00048064001 6.3101155e-20)
(0.0020690225 -0.00046253419 -8.664859e-20)
(0.0021153254 -0.00044409151 -7.2075977e-20)
(0.0021566751 -0.00042536551 1.2225768e-19)
(0.0021930374 -0.0004064094 7.3122227e-20)
(0.0022243946 -0.00038727521 -1.4152128e-19)
(0.0022507449 -0.000368016 -7.8968164e-20)
(0.0022721054 -0.0003486853 9.231166e-20)
(0.0022885081 -0.00032933078 7.6648173e-20)
(0.0023000041 -0.0003100035 -1.4032539e-19)
(0.0023066575 -0.00029075109 -2.2354484e-19)
(0.0023085479 -0.00027162687 4.0804156e-20)
(0.0023057702 -0.00025267443 2.1791924e-19)
(0.0022984286 -0.00023394069 -3.0102502e-20)
(0.0022866451 -0.00021546542 -3.527309e-19)
(0.0022705495 -0.00019728975 -1.0117563e-19)
(0.0022502826 -0.0001794551 1.2451372e-19)
(0.0022260002 -0.00016199537 -2.4173673e-19)
(0.0021978666 -0.00014494384 -2.1971194e-19)
(0.0021660518 -0.00012833217 4.8742688e-21)
(0.0021307362 -0.00011219145 6.43001e-20)
(0.002092102 -9.6549286e-05 1.5380455e-19)
(0.0020503425 -8.1431978e-05 2.4057182e-19)
(0.0020056585 -6.6860987e-05 1.0577479e-19)
(0.0019582502 -5.2854054e-05 -1.3828289e-19)
(0.0019083274 -3.9424765e-05 -5.2638526e-20)
(0.0018560979 -2.6578095e-05 1.2177586e-19)
(0.0018017951 -1.4344298e-05 2.7917333e-19)
(0.001745556 -2.7777545e-06 3.6599474e-19)
(0.0016874997 8.1512245e-06 -3.7079083e-20)
(0.0016279768 1.8361359e-05 -4.3940204e-19)
(0.0015672701 2.7937131e-05 -8.5793507e-20)
(0.0015054931 3.6923095e-05 2.4527149e-19)
(0.0014428199 4.532612e-05 -4.3883007e-20)
(0.0013794554 5.313528e-05 -2.5015227e-19)
(0.0013155817 6.0363077e-05 -1.9669121e-19)
(0.0012513816 6.6989292e-05 -6.1539261e-20)
(0.001187036 7.3037326e-05 4.739458e-21)
(0.0011227112 7.8518375e-05 -6.9794783e-20)
(0.0010585816 8.3434415e-05 3.1828889e-20)
(0.00099479154 8.7810895e-05 1.3064766e-19)
(0.00093149348 9.1658582e-05 -3.9682646e-20)
(0.00086884016 9.4996505e-05 -1.0625417e-19)
(0.00080695098 9.7845371e-05 -1.6097051e-20)
(0.0007459571 0.00010022337 1.5375264e-19)
(0.00068597835 0.00010215081 -7.3145826e-20)
(0.00062711846 0.00010365269 -3.3607146e-19)
(0.00056949199 0.00010473856 -1.6299174e-19)
(0.00051317369 0.00010543886 -1.2008524e-19)
(0.00045822898 0.00010580082 6.1698281e-20)
(0.00040475484 0.00010579805 8.2605265e-20)
(0.00035282113 0.00010547745 -9.0952374e-20)
(0.00030249463 0.00010486007 -9.6392799e-20)
(0.00025379523 0.00010397085 1.2471077e-19)
(0.0002067694 0.00010282677 4.0893979e-19)
(0.00016148361 0.00010144624 -1.4917893e-19)
(0.00011793544 9.9858836e-05 -4.7544595e-19)
(7.6150197e-05 9.8078169e-05 8.8364914e-20)
(3.6154601e-05 9.6125501e-05 9.3766769e-20)
(-2.0551463e-06 9.401952e-05 -2.8215138e-19)
(-3.8472609e-05 9.1777056e-05 -2.3893643e-19)
(-7.3097262e-05 8.9416954e-05 -1.6349091e-20)
(-0.00010594164 8.6957162e-05 1.5612331e-19)
(-0.0001370185 8.4412178e-05 5.970911e-20)
(-0.00016634594 8.1796826e-05 -1.2515107e-19)
(-0.00019394589 7.9126154e-05 -2.4226983e-19)
(-0.00021984402 7.6412996e-05 -1.1262504e-19)
(-0.00024407002 7.3670113e-05 3.4580457e-19)
(-0.00026665616 7.0909713e-05 3.4448421e-19)
(-0.00028763734 6.814237e-05 -1.2061101e-19)
(-0.00030705117 6.5378171e-05 -3.5931742e-19)
(-0.00032493803 6.2625114e-05 -1.9656757e-19)
(-0.00034133962 5.9893974e-05 1.6266253e-19)
(-0.00035629866 5.7191265e-05 2.2572705e-19)
(-0.00036985996 5.4523811e-05 3.571625e-20)
(-0.00038206903 5.189823e-05 -1.7430421e-19)
(-0.00039297216 4.931972e-05 -1.4845819e-19)
(-0.00040261633 4.6793206e-05 -1.7323166e-20)
(-0.00041104878 4.4322981e-05 -8.5826833e-21)
(-0.0004183169 4.1912706e-05 1.649852e-19)
(-0.00042446802 3.9565461e-05 1.0505082e-19)
(-0.00042954923 3.7283815e-05 -1.3857411e-19)
(-0.00043360726 3.5069859e-05 3.5925033e-20)
(-0.00043668834 3.2925194e-05 2.5119486e-19)
(-0.00043883801 3.0850991e-05 1.1019567e-19)
(-0.00044010112 2.884809e-05 -6.8138381e-20)
(-0.00044052163 2.6916904e-05 -9.7923944e-20)
(-0.00044014255 2.5057527e-05 -4.6828528e-20)
(-0.00043900582 2.3269755e-05 -8.8472426e-20)
(-0.00043715232 2.1553078e-05 -3.7126893e-20)
(-0.00043462175 1.99067e-05 5.6572829e-20)
(-0.00043145253 1.8329443e-05 3.7178701e-20)
(-0.00042768185 1.6820394e-05 1.124483e-19)
(-0.00042334592 1.5378487e-05 4.3563683e-20)
(-0.00041847955 1.4001927e-05 -1.3970226e-19)
(-0.00041311539 1.2687946e-05 -1.7925279e-19)
(-0.00040728536 1.1436767e-05 -7.7940833e-20)
(-0.00040102123 1.0246941e-05 4.5586984e-20)
(-0.00039435215 9.1147469e-06 1.0909259e-19)
(-0.00038730588 8.040798e-06 5.0807541e-20)
(-0.00037990971 7.0230146e-06 -5.3510691e-20)
(-0.0003721897 6.0588055e-06 -1.8460826e-20)
(-0.00036417047 5.1460219e-06 6.9988168e-20)
(-0.00035587338 4.28217e-06 8.0000356e-20)
(-0.00034732462 3.4627245e-06 1.7274485e-20)
(-0.00033854685 2.6900508e-06 -3.618047e-20)
(-0.00032955584 1.9622286e-06 -1.1425084e-20)
(-0.00032037055 1.2769417e-06 1.009491e-20)
(-0.00031100918 6.3215621e-07 4.9360008e-20)
(-0.00030148874 2.5954494e-08 4.537203e-20)
(-0.00029182523 -5.4346847e-07 -4.0719988e-21)
(-0.00028203363 -1.0778401e-06 3.2248957e-20)
(-0.0002721281 -1.5788437e-06 6.7194725e-20)
(-0.00026212205 -2.0481566e-06 1.760896e-20)
(-0.00025202845 -2.4876561e-06 -4.8922855e-20)
(-0.00024186063 -2.8995569e-06 -4.4414198e-20)
(-0.00023162762 -3.287259e-06 -2.3222443e-20)
(-0.00022133636 -3.6499655e-06 -9.1881541e-21)
(-0.00021099802 -3.9866088e-06 7.2529252e-22)
(-0.0002006234 -4.2982952e-06 7.2668857e-21)
(-0.00019022098 -4.5863634e-06 -5.5478827e-21)
(-0.00017979856 -4.8519654e-06 -2.6147476e-21)
(-0.00016936347 -5.0961353e-06 6.3764491e-21)
(-0.00015892263 -5.319762e-06 1.6263114e-20)
(-0.00014848261 -5.5235403e-06 2.5364963e-20)
(-0.00013804963 -5.7079416e-06 -7.5464999e-21)
(-0.00012762961 -5.8731342e-06 -5.9584035e-21)
(-0.00011722825 -6.018862e-06 2.601478e-20)
(-0.00010685105 -6.1442538e-06 3.6973831e-20)
(-9.6503249e-05 -6.2476833e-06 2.3558977e-20)
(-8.6189736e-05 -6.3267113e-06 7.6853854e-21)
(-7.5914587e-05 -6.3785134e-06 8.2861542e-21)
(-6.5680166e-05 -6.4016302e-06 -5.6632198e-21)
(-5.5485641e-05 -6.400505e-06 8.2486812e-21)
(-4.5325355e-05 -6.3953654e-06 2.107124e-20)
(-3.5187537e-05 -6.4407104e-06 1.1823759e-20)
(-2.5054654e-05 -6.6538096e-06 1.8971842e-20)
(-1.4923121e-05 -7.2322228e-06 2.7453481e-20)
(-4.9111157e-06 -8.3095521e-06 3.5538168e-20)
(7.4406452e-05 -0.00095452936 5.6121127e-19)
(0.0001683597 -0.00094779543 6.1702716e-20)
(0.00027599157 -0.00093951925 -1.7625569e-19)
(0.00037991003 -0.00092960692 -3.5246506e-19)
(0.00048567922 -0.00091916557 -1.924772e-19)
(0.00058987092 -0.00090845015 -6.1411131e-21)
(0.00069220597 -0.00089727251 7.8488841e-20)
(0.00079245778 -0.0008854307 6.7014172e-20)
(0.00089036308 -0.00087275316 8.2733386e-20)
(0.00098566546 -0.00085911663 7.7370056e-20)
(0.0010781238 -0.00084444725 1.6485147e-19)
(0.0011675051 -0.00082871129 1.0600251e-19)
(0.001253583 -0.00081190629 1.4362776e-19)
(0.0013361409 -0.00079405164 1.5887783e-19)