/*--------------------------------*- C++ -*----------------------------------*\
| =========                 |                                                 |
| \\      /  F ield         | OpenFOAM: The Open Source CFD Toolbox           |
|  \\    /   O peration     | Version:  2106                                  |
|   \\  /    A nd           | Website:  www.openfoam.com                      |
|    \\/     M anipulation  |                                                 |
\*---------------------------------------------------------------------------*/
FoamFile
{
    version     2.0;
    format      ascii;
    arch        "LSB;label=32;scalar=64";
    class       volVectorField;
    location    "0.018";
    object      U_0;
}
// * * * * * * * * * * * * * * * * * * * * * * * * * * * * * * * * * * * * * //

dimensions      [0 1 -1 0 0 0 0];

internalField   nonuniform List<vector> 
256
(
(-0.011248465 0.014572283 0)
(-0.032003928 0.012331951 0)
(-0.047742836 0.0081933367 0)
(-0.05616137 0.0028404597 0)
(-0.056061945 -0.0029415158 0)
(-0.047488477 -0.0082236572 0)
(-0.031779232 -0.012260679 0)
(-0.011161718 -0.014439249 0)
(0.011143262 -0.014439198 0)
(0.031763909 -0.012261548 0)
(0.047479412 -0.0082241778 0)
(0.056057717 -0.0029425437 0)
(0.056164575 0.0028396457 0)
(0.047751943 0.0081926337 0)
(0.032019848 0.012331439 0)
(0.011267298 0.014572229 0)
(-0.012325936 0.026889753 0)
(-0.035061051 0.022644963 0)
(-0.052246078 0.014925279 0)
(-0.061416526 0.0051473191 0)
(-0.061218886 -0.0054001708 0)
(-0.051794156 -0.015017405 0)
(-0.034643436 -0.022557806 0)
(-0.012163418 -0.026678158 0)
(0.012143933 -0.02668006 0)
(0.034627341 -0.022567403 0)
(0.051784771 -0.01502698 0)
(0.061214315 -0.0054115526 0)
(0.061420169 0.0051354287 0)
(0.052255632 0.014913311 0)
(0.03507779 0.0226359 0)
(0.012345506 0.026887104 0)
(-0.011121629 0.066246798 0)
(-0.031502233 0.055884695 0)
(-0.046541557 0.036948342 0)
(-0.054453348 0.012681436 0)
(-0.054193083 -0.013450432 0)
(-0.045980829 -0.037196148 0)
(-0.030974397 -0.055510496 0)
(-0.010907349 -0.065463867 0)
(0.010876986 -0.065466011 0)
(0.030951054 -0.055522611 0)
(0.04596971 -0.037207608 0)
(0.054186446 -0.013465276 0)
(0.054456123 0.012666459 0)
(0.046553738 0.036934352 0)
(0.031527803 0.055874275 0)
(0.01115252 0.06624418 0)
(-0.015634687 0.060873276 0)
(-0.044296669 0.050743112 0)
(-0.065511087 0.032972833 0)
(-0.076690171 0.011144808 0)
(-0.076098991 -0.012179791 0)
(-0.064191919 -0.03331382 0)
(-0.043029334 -0.050353576 0)
(-0.015114235 -0.05989995 0)
(0.015080398 -0.05990697 0)
(0.043003861 -0.050383493 0)
(0.064179785 -0.033339252 0)
(0.076090913 -0.012204052 0)
(0.076694649 0.011115349 0)
(0.065525196 0.032938616 0)
(0.044324815 0.050715757 0)
(0.015667339 0.060865967 0)
(-0.011468258 0.13862234 0)
(-0.031708052 0.11628283 0)
(-0.045138169 0.076317023 0)
(-0.051837871 0.025703675 0)
(-0.050982815 -0.028532454 0)
(-0.043263031 -0.07729416 0)
(-0.029678965 -0.11510782 0)
(-0.01050971 -0.13591589 0)
(0.010442614 -0.13592406 0)
(0.029637502 -0.11514199 0)
(0.043258086 -0.077322529 0)
(0.050972285 -0.028564984 0)
(0.051830117 0.025664324 0)
(0.045151979 0.076277722 0)
(0.031760269 0.11625526 0)
(0.011533599 0.13861608 0)
(-0.0094193667 0.084637101 0)
(-0.02560228 0.067941335 0)
(-0.035760451 0.042388494 0)
(-0.040619871 0.013493658 0)
(-0.037591146 -0.016819346 0)
(-0.028784998 -0.043540338 0)
(-0.018256619 -0.066683617 0)
(-0.0061177926 -0.080513028 0)
(0.0060438907 -0.080539339 0)
(0.018213209 -0.066768515 0)
(0.028778861 -0.043592966 0)
(0.037573359 -0.016836963 0)
(0.040613018 0.013443351 0)
(0.035782432 0.042298243 0)
(0.025661461 0.067870099 0)
(0.0094843309 0.084616679 0)
(0.062039009 0.19915871 0)
(0.18213596 0.16398859 0)
(0.28218817 0.10489951 0)
(0.33793257 0.031778589 0)
(0.34063489 -0.045807591 0)
(0.28859984 -0.11080625 0)
(0.19024093 -0.15874211 0)
(0.066504624 -0.18501755 0)
(-0.066660479 -0.18506797 0)
(-0.19029357 -0.15887617 0)
(-0.28851202 -0.11088536 0)
(-0.34062962 -0.045850047 0)
(-0.33803671 0.031686772 0)
(-0.28222095 0.10476041 0)
(-0.18202954 0.16386796 0)
(-0.061893411 0.19913101 0)
(0.10429549 -0.1811056 0)
(0.29854502 -0.16857864 0)
(0.4495062 -0.12439811 0)
(0.52764036 -0.048960718 0)
(0.51892956 0.036914494 0)
(0.42895024 0.11781339 0)
(0.27895234 0.17119974 0)
(0.096515726 0.19496397 0)
(-0.096609854 0.19483535 0)
(-0.27896277 0.17084764 0)
(-0.42883744 0.11767511 0)
(-0.51890236 0.037103396 0)
(-0.52776344 -0.0489565 0)
(-0.44959005 -0.12472757 0)
(-0.29847356 -0.16886968 0)
(-0.1041717 -0.18116925 0)
(-0.095158298 -0.17673402 0)
(-0.27681359 -0.15968973 0)
(-0.42695378 -0.10884083 0)
(-0.51583529 -0.031768058 0)
(-0.52360192 0.047506678 0)
(-0.44530513 0.11445553 0)
(-0.2965327 0.15175446 0)
(-0.10420342 0.16559842 0)
(0.10431711 0.16547872 0)
(0.29654808 0.15140519 0)
(0.44517689 0.11432463 0)
(0.52357626 0.047702187 0)
(0.51596338 -0.031755784 0)
(0.42703197 -0.10916935 0)
(0.2767565 -0.15997119 0)
(0.095063248 -0.17679822 0)
(-0.067508681 0.1656479 0)
(-0.19522072 0.14105436 0)
(-0.29742975 0.099460474 0)
(-0.35011039 0.042345096 0)
(-0.34653947 -0.027329317 0)
(-0.2887666 -0.093682067 0)
(-0.18744809 -0.14801672 0)
(-0.064667668 -0.17906564 0)
(0.064824765 -0.1791105 0)
(0.18750084 -0.1481509 0)
(0.28868668 -0.093759301 0)
(0.34653355 -0.027374088 0)
(0.35021149 0.042254612 0)
(0.29746705 0.099317498 0)
(0.19511189 0.14093884 0)
(0.067357442 0.16562054 0)
(0.010191915 0.10635798 0)
(0.029194266 0.08792502 0)
(0.044692368 0.058177887 0)
(0.05646963 0.022286065 0)
(0.059415934 -0.01829694 0)
(0.051790878 -0.056947348 0)
(0.036012985 -0.090144812 0)
(0.012853528 -0.10995606 0)
(-0.012789813 -0.10998499 0)
(-0.035972211 -0.090224862 0)
(-0.051778854 -0.057002814 0)
(-0.059397954 -0.01831931 0)
(-0.05646203 0.022235548 0)
(-0.044707743 0.058087689 0)
(-0.029252743 0.087848727 0)
(-0.010261624 0.10633851 0)
(0.0049155575 0.097505894 0)
(0.013280903 0.082476494 0)
(0.018350264 0.055825362 0)
(0.021666885 0.021312866 0)
(0.022400181 -0.017716862 0)
(0.020200268 -0.054472435 0)
(0.014857252 -0.084099086 0)
(0.005380822 -0.10056677 0)
(-0.0053155754 -0.100574 0)
(-0.014815 -0.084129007 0)
(-0.020192644 -0.054501209 0)
(-0.022387381 -0.017752052 0)
(-0.021657255 0.021272406 0)
(-0.018362367 0.055782934 0)
(-0.013336479 0.082442717 0)
(-0.0049857764 0.097498294 0)
(0.025052195 0.11464291 0)
(0.071192583 0.096795686 0)
(0.10624667 0.064800627 0)
(0.12559559 0.023679117 0)
(0.12595449 -0.021551515 0)
(0.10711991 -0.063982651 0)
(0.071940812 -0.097741609 0)
(0.025290649 -0.11640309 0)
(-0.025262004 -0.11640996 0)
(-0.071918885 -0.097770247 0)
(-0.10710785 -0.06400918 0)
(-0.12594625 -0.021576954 0)
(-0.12559905 0.0236471 0)
(-0.10625861 0.064763283 0)
(-0.071218171 0.096765885 0)
(-0.025082191 0.1146345 0)
(-0.0005136507 -0.020247795 0)
(-0.0015368507 -0.016962956 0)
(-0.0027533072 -0.010832579 0)
(-0.0032033081 -0.0029221157 0)
(-0.0029113152 0.004852017 0)
(-0.0020247128 0.011568271 0)
(-0.00090766588 0.016049992 0)
(-0.00030817291 0.018333302 0)
(0.00033837305 0.01833158 0)
(0.00093080285 0.016037729 0)
(0.0020363774 0.011556623 0)
(0.0029189823 0.0048354416 0)
(0.0032006391 -0.0029388186 0)
(0.0027428666 -0.010848914 0)
(0.0015097025 -0.016975235 0)
(0.00048110282 -0.020251032 0)
(0.042880326 0.13685551 0)
(0.12214344 0.11616379 0)
(0.18290354 0.077993708 0)
(0.21606868 0.028010759 0)
(0.21648998 -0.026570074 0)
(0.18392394 -0.07737279 0)
(0.12312636 -0.11670313 0)
(0.043277878 -0.13810904 0)
(-0.043260463 -0.13811264 0)
(-0.12311204 -0.11671439 0)
(-0.18391457 -0.077386497 0)
(-0.21648599 -0.026586374 0)
(-0.21607228 0.027993568 0)
(-0.1829127 0.077977175 0)
(-0.12215844 0.11615091 0)
(-0.042897761 0.13685225 0)
(-0.014827678 -0.20555464 0)
(-0.042008672 -0.17415847 0)
(-0.062780108 -0.11625377 0)
(-0.073567175 -0.04052389 0)
(-0.073057256 0.041002092 0)
(-0.061518633 0.11641705 0)
(-0.040779886 0.17386677 0)
(-0.014321996 0.2049845 0)
(0.014350108 0.20498678 0)
(0.040803712 0.17386346 0)
(0.061532406 0.11641917 0)
(0.073064946 0.041000987 0)
(0.073562183 -0.040523973 0)
(0.062766709 -0.11625659 0)
(0.04198351 -0.17416067 0)
(0.014798019 -0.20555524 0)
)
;

boundaryField
{
    leftWall
    {
        type            cyclic;
    }
    rightWall
    {
        type            cyclic;
    }
    lowerWall
    {
        type            slip;
    }
    atmosphere
    {
        type            slip;
    }
    defaultFaces
    {
        type            empty;
    }
}


// ************************************************************************* //
