/*--------------------------------*- C++ -*----------------------------------*\
| =========                 |                                                 |
| \\      /  F ield         | OpenFOAM: The Open Source CFD Toolbox           |
|  \\    /   O peration     | Version:  2106                                  |
|   \\  /    A nd           | Website:  www.openfoam.com                      |
|    \\/     M anipulation  |                                                 |
\*---------------------------------------------------------------------------*/
FoamFile
{
    version     2.0;
    format      ascii;
    arch        "LSB;label=32;scalar=64";
    class       surfaceScalarField;
    location    "0.3";
    object      phi;
}
// * * * * * * * * * * * * * * * * * * * * * * * * * * * * * * * * * * * * * //

dimensions      [0 3 -1 0 0 0 0];

oriented        oriented;

internalField   nonuniform List<scalar> 
179250
(
-2.15351e-10
2.20309e-10
-4.33636e-10
2.18291e-10
-6.50545e-10
2.16915e-10
-8.66096e-10
2.15551e-10
-1.08001e-09
2.13911e-10
-1.29197e-09
2.11949e-10
-1.50161e-09
2.09647e-10
-1.7086e-09
2.0699e-10
-1.91257e-09
2.03975e-10
-2.11318e-09
2.00608e-10
-2.31007e-09
1.96893e-10
-2.50291e-09
1.92835e-10
-2.69135e-09
1.88441e-10
-2.87507e-09
1.83716e-10
-3.05374e-09
1.78669e-10
-3.22705e-09
1.7331e-10
-3.39469e-09
1.67647e-10
-3.55639e-09
1.61691e-10
-3.71184e-09
1.55451e-10
-3.86077e-09
1.48939e-10
-4.00294e-09
1.42165e-10
-4.13808e-09
1.35142e-10
-4.26596e-09
1.27883e-10
-4.38636e-09
1.20399e-10
-4.49906e-09
1.12704e-10
-4.60387e-09
1.04811e-10
-4.70061e-09
9.67346e-11
-4.78909e-09
8.84884e-11
-4.86918e-09
8.00868e-11
-4.94072e-09
7.15448e-11
-5.0036e-09
6.28774e-11
-5.0577e-09
5.40995e-11
-5.10293e-09
4.52268e-11
-5.1392e-09
3.62747e-11
-5.16646e-09
2.72591e-11
-5.18466e-09
1.81956e-11
-5.19376e-09
9.1003e-12
-5.19375e-09
-1.09116e-14
-5.18463e-09
-9.12207e-12
-5.16641e-09
-1.82172e-11
-5.13913e-09
-2.72802e-11
-5.10283e-09
-3.62954e-11
-5.05759e-09
-4.5247e-11
-5.00347e-09
-5.41191e-11
-4.94057e-09
-6.28963e-11
-4.86901e-09
-7.15631e-11
-4.7889e-09
-8.01044e-11
-4.7004e-09
-8.85053e-11
-4.60365e-09
-9.67508e-11
-4.49882e-09
-1.04827e-10
-4.3861e-09
-1.12719e-10
-4.26569e-09
-1.20413e-10
-4.13779e-09
-1.27896e-10
-4.00263e-09
-1.35155e-10
-3.86046e-09
-1.42176e-10
-3.71151e-09
-1.48949e-10
-3.55605e-09
-1.5546e-10
-3.39435e-09
-1.61698e-10
-3.2267e-09
-1.67653e-10
-3.05339e-09
-1.73313e-10
-2.87472e-09
-1.7867e-10
-2.691e-09
-1.83713e-10
-2.50257e-09
-1.88434e-10
-2.30975e-09
-1.92824e-10
-2.11287e-09
-1.96876e-10
-1.91229e-09
-2.00583e-10
-1.70835e-09
-2.03938e-10
-1.50142e-09
-2.06935e-10
-1.29185e-09
-2.09569e-10
-1.08002e-09
-2.11835e-10
-8.66293e-10
-2.1373e-10
-6.51045e-10
-2.1525e-10
-4.34655e-10
-2.16392e-10
-2.17501e-10
-2.17154e-10
3.34742e-14
-2.17535e-10
2.17569e-10
-2.17535e-10
4.34722e-10
-2.17153e-10
6.51113e-10
-2.16391e-10
8.66362e-10
-2.15248e-10
1.08009e-09
-2.13729e-10
1.29193e-09
-2.11834e-10
1.50149e-09
-2.09568e-10
1.70843e-09
-2.06934e-10
1.91236e-09
-2.03937e-10
2.11295e-09
-2.00582e-10
2.30982e-09
-1.96876e-10
2.50265e-09
-1.92824e-10
2.69108e-09
-1.88433e-10
2.87479e-09
-1.83713e-10
3.05346e-09
-1.7867e-10
3.22677e-09
-1.73313e-10
3.39443e-09
-1.67653e-10
3.55613e-09
-1.61698e-10
3.71159e-09
-1.5546e-10
3.86054e-09
-1.48949e-10
4.00271e-09
-1.42177e-10
4.13787e-09
-1.35156e-10
4.26577e-09
-1.27897e-10
4.38618e-09
-1.20414e-10
4.4989e-09
-1.1272e-10
4.60373e-09
-1.04828e-10
4.70048e-09
-9.67521e-11
4.78899e-09
-8.85064e-11
4.86909e-09
-8.01055e-11
4.94066e-09
-7.15641e-11
5.00356e-09
-6.28971e-11
5.05768e-09
-5.41199e-11
5.10293e-09
-4.52478e-11
5.13922e-09
-3.62964e-11
5.1665e-09
-2.72813e-11
5.18472e-09
-1.82185e-11
5.19385e-09
-9.12378e-12
5.19386e-09
-1.2999e-14
5.18476e-09
9.09777e-12
5.16656e-09
1.81927e-11
5.13931e-09
2.72557e-11
5.10304e-09
3.6271e-11
5.05781e-09
4.52228e-11
5.00371e-09
5.40952e-11
4.94084e-09
6.28728e-11
4.8693e-09
7.15401e-11
4.78922e-09
8.00819e-11
4.70074e-09
8.84831e-11
4.60401e-09
9.67291e-11
4.4992e-09
1.04805e-10
4.3865e-09
1.12698e-10
4.26611e-09
1.20392e-10
4.13823e-09
1.27876e-10
4.0031e-09
1.35135e-10
3.86094e-09
1.42157e-10
3.71201e-09
1.4893e-10
3.55657e-09
1.55441e-10
3.39489e-09
1.6168e-10
3.22725e-09
1.67636e-10
3.05395e-09
1.73297e-10
2.8753e-09
1.78654e-10
2.6916e-09
1.83698e-10
2.50318e-09
1.8842e-10
2.31037e-09
1.92811e-10
2.11351e-09
1.96863e-10
1.91294e-09
2.00571e-10
1.70901e-09
2.03927e-10
1.50208e-09
2.06927e-10
1.29252e-09
2.09565e-10
1.08068e-09
2.1184e-10
8.66927e-10
2.13749e-10
6.51633e-10
2.15295e-10
4.35151e-10
2.16482e-10
2.1783e-10
2.17322e-10
2.17831e-10
-2.17368e-10
4.37684e-10
-4.35199e-10
4.36118e-10
-6.52331e-10
4.34049e-10
-8.68246e-10
4.31478e-10
-1.08259e-09
4.28261e-10
-1.295e-09
4.24359e-10
-1.50511e-09
4.19757e-10
-1.71257e-09
4.14443e-10
-1.91701e-09
4.08416e-10
-2.11808e-09
4.01678e-10
-2.31542e-09
3.9424e-10
-2.5087e-09
3.86115e-10
-2.69758e-09
3.77315e-10
-2.88172e-09
3.67855e-10
-3.0608e-09
3.57751e-10
-3.23451e-09
3.4702e-10
-3.40255e-09
3.35682e-10
-3.56461e-09
3.23755e-10
-3.72042e-09
3.11261e-10
-3.8697e-09
2.98222e-10
-4.0122e-09
2.84659e-10
-4.14765e-09
2.70598e-10
-4.27583e-09
2.56062e-10
-4.39651e-09
2.41077e-10
-4.50947e-09
2.25669e-10
-4.61452e-09
2.09865e-10
-4.71148e-09
1.93693e-10
-4.80017e-09
1.77182e-10
-4.88044e-09
1.60359e-10
-4.95215e-09
1.43255e-10
-5.01517e-09
1.259e-10
-5.0694e-09
1.08324e-10
-5.11473e-09
9.05576e-11
-5.15109e-09
7.26328e-11
-5.17841e-09
5.45806e-11
-5.19665e-09
3.64327e-11
-5.20577e-09
1.82212e-11
-5.20576e-09
-2.22325e-14
-5.19662e-09
-1.82654e-11
-5.17836e-09
-3.64765e-11
-5.15101e-09
-5.46235e-11
-5.11463e-09
-7.26746e-11
-5.06928e-09
-9.05982e-11
-5.01504e-09
-1.08363e-10
-4.952e-09
-1.25937e-10
-4.88027e-09
-1.43291e-10
-4.79998e-09
-1.60394e-10
-4.71127e-09
-1.77215e-10
-4.61429e-09
-1.93725e-10
-4.50922e-09
-2.09895e-10
-4.39624e-09
-2.25698e-10
-4.27555e-09
-2.41104e-10
-4.14736e-09
-2.56088e-10
-4.01189e-09
-2.70622e-10
-3.86938e-09
-2.84682e-10
-3.72009e-09
-2.98242e-10
-3.56427e-09
-3.11279e-10
-3.4022e-09
-3.2377e-10
-3.23416e-09
-3.35693e-10
-3.06045e-09
-3.47027e-10
-2.88136e-09
-3.57753e-10
-2.69723e-09
-3.67851e-10
-2.50836e-09
-3.77304e-10
-2.31509e-09
-3.86095e-10
-2.11776e-09
-3.94209e-10
-1.91671e-09
-4.01631e-10
-1.71231e-09
-4.08349e-10
-1.50489e-09
-4.1435e-10
-1.29484e-09
-4.19623e-10
-1.08252e-09
-4.24161e-10
-8.68296e-10
-4.27955e-10
-6.5255e-10
-4.30997e-10
-4.3566e-10
-4.33284e-10
-2.18004e-10
-4.3481e-10
3.36169e-14
-4.35573e-10
2.18072e-10
-4.35573e-10
4.35727e-10
-4.34808e-10
6.52619e-10
-4.33281e-10
8.68366e-10
-4.30994e-10
1.08259e-09
-4.27951e-10
1.29491e-09
-4.24158e-10
1.50497e-09
-4.1962e-10
1.71238e-09
-4.14346e-10
1.91679e-09
-4.08345e-10
2.11783e-09
-4.01628e-10
2.31516e-09
-3.94206e-10
2.50843e-09
-3.86093e-10
2.6973e-09
-3.77302e-10
2.88144e-09
-3.6785e-10
3.06052e-09
-3.57752e-10
3.23424e-09
-3.47027e-10
3.40228e-09
-3.35693e-10
3.56435e-09
-3.23771e-10
3.72017e-09
-3.1128e-10
3.86946e-09
-2.98243e-10
4.01197e-09
-2.84683e-10
4.14744e-09
-2.70624e-10
4.27563e-09
-2.5609e-10
4.39632e-09
-2.41107e-10
4.5093e-09
-2.257e-10
4.61437e-09
-2.09898e-10
4.71135e-09
-1.93727e-10
4.80006e-09
-1.77217e-10
4.88035e-09
-1.60396e-10
4.95208e-09
-1.43293e-10
5.01513e-09
-1.25939e-10
5.06937e-09
-1.08365e-10
5.11473e-09
-9.06002e-11
5.15111e-09
-7.26769e-11
5.17845e-09
-5.46263e-11
5.19671e-09
-3.648e-11
5.20586e-09
-1.82696e-11
5.20587e-09
-2.70152e-14
5.19675e-09
1.82157e-11
5.17851e-09
3.64267e-11
5.15119e-09
5.4574e-11
5.11484e-09
7.26257e-11
5.06951e-09
9.05501e-11
5.01529e-09
1.08316e-10
4.95227e-09
1.25891e-10
4.88056e-09
1.43246e-10
4.80029e-09
1.60349e-10
4.71161e-09
1.77171e-10
4.61465e-09
1.93682e-10
4.5096e-09
2.09853e-10
4.39665e-09
2.25655e-10
4.27597e-09
2.41062e-10
4.1478e-09
2.56047e-10
4.01235e-09
2.70582e-10
3.86987e-09
2.84642e-10
3.72059e-09
2.98204e-10
3.56479e-09
3.11242e-10
3.40274e-09
3.23735e-10
3.23471e-09
3.35659e-10
3.06102e-09
3.46995e-10
2.88195e-09
3.57722e-10
2.69783e-09
3.67821e-10
2.50897e-09
3.77275e-10
2.31571e-09
3.86066e-10
2.1184e-09
3.94181e-10
1.91736e-09
4.01605e-10
1.71296e-09
4.08326e-10
1.50556e-09
4.14332e-10
1.29551e-09
4.19615e-10
1.08318e-09
4.24169e-10
8.68937e-10
4.27992e-10
6.53147e-10
4.31087e-10
4.36166e-10
4.33466e-10
2.18338e-10
4.35152e-10
4.36169e-10
-2.18744e-10
6.56433e-10
-4.37265e-10
6.54636e-10
-6.55091e-10
6.51865e-10
-8.71754e-10
6.4814e-10
-1.08687e-09
6.43381e-10
-1.30006e-09
6.37559e-10
-1.51097e-09
6.30662e-10
-1.71921e-09
6.22687e-10
-1.92443e-09
6.13635e-10
-2.12627e-09
6.03516e-10
-2.32438e-09
5.92345e-10
-2.5184e-09
5.80138e-10
-2.708e-09
5.66917e-10
-2.89285e-09
5.52704e-10
-3.07262e-09
5.37523e-10
-3.247e-09
5.214e-10
-3.41569e-09
5.04365e-10
-3.57838e-09
4.86445e-10
-3.73479e-09
4.67672e-10
-3.88465e-09
4.4808e-10
-4.02769e-09
4.27703e-10
-4.16367e-09
4.06575e-10
-4.29234e-09
3.84735e-10
-4.41348e-09
3.62219e-10
-4.52688e-09
3.39069e-10
-4.63234e-09
3.15324e-10
-4.72967e-09
2.91025e-10
-4.81871e-09
2.66216e-10
-4.89929e-09
2.4094e-10
-4.97127e-09
2.15241e-10
-5.03454e-09
1.89165e-10
-5.08897e-09
1.62757e-10
-5.13448e-09
1.36063e-10
-5.17098e-09
1.09131e-10
-5.1984e-09
8.20076e-11
-5.21671e-09
5.47405e-11
-5.22587e-09
2.73776e-11
-5.22586e-09
-3.32245e-14
-5.21668e-09
-2.74438e-11
-5.19835e-09
-5.4806e-11
-5.1709e-09
-8.20721e-11
-5.13438e-09
-1.09194e-10
-5.08886e-09
-1.36125e-10
-5.0344e-09
-1.62816e-10
-4.97112e-09
-1.89222e-10
-4.89911e-09
-2.15297e-10
-4.81851e-09
-2.40993e-10
-4.72946e-09
-2.66267e-10
-4.63211e-09
-2.91074e-10
-4.52663e-09
-3.15371e-10
-4.41322e-09
-3.39114e-10
-4.29206e-09
-3.62262e-10
-4.16337e-09
-3.84775e-10
-4.02738e-09
-4.06613e-10
-3.88433e-09
-4.27737e-10
-3.73446e-09
-4.48112e-10
-3.57804e-09
-4.677e-10
-3.41534e-09
-4.86468e-10
-3.24665e-09
-5.04383e-10
-3.07226e-09
-5.21413e-10
-2.89249e-09
-5.37528e-10
-2.70764e-09
-5.527e-10
-2.51804e-09
-5.66903e-10
-2.32403e-09
-5.80112e-10
-2.12594e-09
-5.92303e-10
-1.92411e-09
-6.03454e-10
-1.71892e-09
-6.13547e-10
-1.5107e-09
-6.22564e-10
-1.29984e-09
-6.30488e-10
-1.0867e-09
-6.37305e-10
-8.71649e-10
-6.43005e-10
-6.5507e-10
-6.47576e-10
-4.37341e-10
-6.51012e-10
-2.18846e-10
-6.53305e-10
3.40708e-14
-6.54453e-10
2.18914e-10
-6.54452e-10
4.3741e-10
-6.53304e-10
6.55139e-10
-6.51009e-10
8.71719e-10
-6.47573e-10
1.08677e-09
-6.43001e-10
1.29991e-09
-6.37301e-10
1.51078e-09
-6.30483e-10
1.71899e-09
-6.22559e-10
1.92419e-09
-6.13543e-10
2.12601e-09
-6.0345e-10
2.3241e-09
-5.92299e-10
2.51812e-09
-5.80109e-10
2.70772e-09
-5.66901e-10
2.89257e-09
-5.52699e-10
3.07234e-09
-5.37527e-10
3.24672e-09
-5.21413e-10
3.41541e-09
-5.04383e-10
3.57811e-09
-4.86469e-10
3.73453e-09
-4.67702e-10
3.8844e-09
-4.48114e-10
4.02746e-09
-4.27741e-10
4.16345e-09
-4.06616e-10
4.29214e-09
-3.84779e-10
4.4133e-09
-3.62266e-10
4.52672e-09
-3.39117e-10
4.63219e-09
-3.15374e-10
4.72954e-09
-2.91077e-10
4.8186e-09
-2.6627e-10
4.8992e-09
-2.40996e-10
4.9712e-09
-2.15299e-10
5.03449e-09
-1.89225e-10
5.08895e-09
-1.62819e-10
5.13447e-09
-1.36128e-10
5.171e-09
-1.09198e-10
5.19845e-09
-8.20764e-11
5.21678e-09
-5.4811e-11
5.22596e-09
-2.74495e-11
5.22597e-09
-3.96415e-14
5.21681e-09
2.73705e-11
5.19851e-09
5.47328e-11
5.17108e-09
8.19994e-11
5.13459e-09
1.09122e-10
5.08908e-09
1.36054e-10
5.03465e-09
1.62747e-10
4.97139e-09
1.89154e-10
4.89941e-09
2.15229e-10
4.81883e-09
2.40927e-10
4.7298e-09
2.66202e-10
4.63247e-09
2.91009e-10
4.52702e-09
3.15306e-10
4.41362e-09
3.3905e-10
4.29248e-09
3.62199e-10
4.16382e-09
3.84713e-10
4.02785e-09
4.06553e-10
3.88481e-09
4.27679e-10
3.73496e-09
4.48055e-10
3.57856e-09
4.67645e-10
3.41588e-09
4.86415e-10
3.2472e-09
5.04332e-10
3.07283e-09
5.21363e-10
2.89308e-09
5.3748e-10
2.70824e-09
5.52654e-10
2.51866e-09
5.66859e-10
2.32466e-09
5.80069e-10
2.12658e-09
5.92261e-10
1.92476e-09
6.03416e-10
1.71958e-09
6.13513e-10
1.51137e-09
6.22538e-10
1.30051e-09
6.30475e-10
1.08736e-09
6.37317e-10
8.72294e-10
6.43061e-10
6.5567e-10
6.47712e-10
4.37849e-10
6.51288e-10
2.19179e-10
6.53823e-10
6.55348e-10
-2.20112e-10
8.76548e-10
-4.39839e-10
8.74373e-10
-6.58812e-10
8.70835e-10
-8.7662e-10
8.65942e-10
-1.09288e-09
8.59639e-10
-1.30721e-09
8.51896e-10
-1.51925e-09
8.427e-10
-1.72861e-09
8.32054e-10
-1.93494e-09
8.19965e-10
-2.13788e-09
8.06448e-10
-2.33706e-09
7.91523e-10
-2.53213e-09
7.75214e-10
-2.72277e-09
7.57549e-10
-2.90862e-09
7.38557e-10
-3.08937e-09
7.18272e-10
-3.2647e-09
6.96729e-10
-3.4343e-09
6.73965e-10
-3.59788e-09
6.50019e-10
-3.75514e-09
6.24935e-10
-3.90581e-09
5.98754e-10
-4.04963e-09
5.71524e-10
-4.18635e-09
5.43292e-10
-4.31573e-09
5.14107e-10
-4.43753e-09
4.84021e-10
-4.55155e-09
4.53085e-10
-4.65758e-09
4.21355e-10
-4.75544e-09
3.88886e-10
-4.84496e-09
3.55735e-10
-4.92598e-09
3.21959e-10
-4.99836e-09
2.87619e-10
-5.06197e-09
2.52774e-10
-5.1167e-09
2.17486e-10
-5.16245e-09
1.81817e-10
-5.19915e-09
1.45828e-10
-5.22673e-09
1.09584e-10
-5.24513e-09
7.31483e-11
-5.25434e-09
3.65842e-11
-5.25433e-09
-4.38932e-14
-5.2451e-09
-3.66717e-11
-5.22667e-09
-7.32351e-11
-5.19907e-09
-1.0967e-10
-5.16236e-09
-1.45912e-10
-5.11658e-09
-1.81899e-10
-5.06183e-09
-2.17566e-10
-4.9982e-09
-2.52852e-10
-4.9258e-09
-2.87695e-10
-4.84476e-09
-3.22033e-10
-4.75522e-09
-3.55805e-10
-4.65734e-09
-3.88954e-10
-4.55129e-09
-4.21421e-10
-4.43726e-09
-4.53148e-10
-4.31544e-09
-4.84081e-10
-4.18605e-09
-5.14164e-10
-4.04932e-09
-5.43345e-10
-3.90549e-09
-5.71573e-10
-3.7548e-09
-5.98799e-10
-3.59753e-09
-6.24974e-10
-3.43395e-09
-6.50053e-10
-3.26434e-09
-6.73991e-10
-3.089e-09
-6.96748e-10
-2.90825e-09
-7.18282e-10
-2.72239e-09
-7.38556e-10
-2.53176e-09
-7.57535e-10
-2.33669e-09
-7.75185e-10
-2.13752e-09
-7.91475e-10
-1.9346e-09
-8.06376e-10
-1.72828e-09
-8.19862e-10
-1.51893e-09
-8.31911e-10
-1.30692e-09
-8.42499e-10
-1.09262e-09
-8.5161e-10
-8.76397e-10
-8.59226e-10
-6.58638e-10
-8.65335e-10
-4.39724e-10
-8.69926e-10
-2.20038e-10
-8.72991e-10
3.4611e-14
-8.74524e-10
2.20107e-10
-8.74524e-10
4.39793e-10
-8.72989e-10
6.58708e-10
-8.69924e-10
8.76467e-10
-8.65332e-10
1.09269e-09
-8.59223e-10
1.30699e-09
-8.51606e-10
1.51901e-09
-8.42495e-10
1.72836e-09
-8.31907e-10
1.93467e-09
-8.19859e-10
2.13759e-09
-8.06373e-10
2.33676e-09
-7.91472e-10
2.53184e-09
-7.75183e-10
2.72247e-09
-7.57534e-10
2.90832e-09
-7.38556e-10
3.08908e-09
-7.18282e-10
3.26441e-09
-6.96749e-10
3.43402e-09
-6.73993e-10
3.59761e-09
-6.50055e-10
3.75488e-09
-6.24977e-10
3.90557e-09
-5.98802e-10
4.0494e-09
-5.71577e-10
4.18613e-09
-5.43349e-10
4.31552e-09
-5.14168e-10
4.43734e-09
-4.84085e-10
4.55138e-09
-4.53152e-10
4.65743e-09
-4.21425e-10
4.75531e-09
-3.88958e-10
4.84485e-09
-3.55809e-10
4.92589e-09
-3.22036e-10
4.99829e-09
-2.87698e-10
5.06192e-09
-2.52856e-10
5.11667e-09
-2.1757e-10
5.16245e-09
-1.81903e-10
5.19917e-09
-1.45917e-10
5.22677e-09
-1.09675e-10
5.2452e-09
-7.32411e-11
5.25443e-09
-3.66783e-11
5.25444e-09
-5.10583e-14
5.24523e-09
3.65765e-11
5.22683e-09
7.314e-11
5.19925e-09
1.09575e-10
5.16256e-09
1.45819e-10
5.11681e-09
1.81806e-10
5.06208e-09
2.17475e-10
4.99847e-09
2.52762e-10
4.9261e-09
2.87605e-10
4.84508e-09
3.21944e-10
4.75556e-09
3.55718e-10
4.65771e-09
3.88868e-10
4.55168e-09
4.21335e-10
4.43767e-09
4.53064e-10
4.31587e-09
4.83997e-10
4.1865e-09
5.14082e-10
4.04979e-09
5.43265e-10
3.90597e-09
5.71495e-10
3.75531e-09
5.98723e-10
3.59805e-09
6.24901e-10
3.43449e-09
6.49982e-10
3.26489e-09
6.73923e-10
3.08957e-09
6.96682e-10
2.90884e-09
7.18218e-10
2.723e-09
7.38494e-10
2.53238e-09
7.57475e-10
2.33732e-09
7.75128e-10
2.13816e-09
7.91421e-10
1.93525e-09
8.06327e-10
1.72894e-09
8.1982e-10
1.51961e-09
8.31878e-10
1.3076e-09
8.42485e-10
1.09329e-09
8.51627e-10
8.77047e-10
8.59302e-10
6.59241e-10
8.65518e-10
4.40232e-10
8.70297e-10
2.2037e-10
8.73684e-10
8.75718e-10
-2.21767e-10
1.09831e-09
-4.43076e-10
1.09569e-09
-6.63585e-10
1.09135e-09
-8.82916e-10
1.08527e-09
-1.10069e-09
1.07741e-09
-1.31653e-09
1.06773e-09
-1.53005e-09
1.05623e-09
-1.74089e-09
1.04289e-09
-1.94867e-09
1.02775e-09
-2.15303e-09
1.01081e-09
-2.35362e-09
9.92108e-10
-2.55007e-09
9.71668e-10
-2.74205e-09
9.49528e-10
-2.92922e-09
9.25725e-10
-3.11125e-09
9.003e-10
-3.28782e-09
8.73297e-10
-3.45862e-09
8.44764e-10
-3.62335e-09
8.14751e-10
-3.78173e-09
7.83309e-10
-3.93347e-09
7.50494e-10
-4.07831e-09
7.16363e-10
-4.21599e-09
6.80976e-10
-4.34628e-09
6.44395e-10
-4.46894e-09
6.06683e-10
-4.58377e-09
5.67908e-10
-4.69055e-09
5.28137e-10
-4.78911e-09
4.87439e-10
-4.87926e-09
4.45886e-10
-4.96085e-09
4.03551e-10
-5.03374e-09
3.60508e-10
-5.0978e-09
3.16833e-10
-5.15292e-09
2.72603e-10
-5.199e-09
2.27894e-10
-5.23596e-09
1.82785e-10
-5.26373e-09
1.37356e-10
-5.28227e-09
9.16867e-11
-5.29154e-09
4.58564e-11
-5.29153e-09
-5.42361e-14
-5.28223e-09
-4.59647e-11
-5.26367e-09
-9.17944e-11
-5.23588e-09
-1.37463e-10
-5.1989e-09
-1.82891e-10
-5.1528e-09
-2.27997e-10
-5.09766e-09
-2.72704e-10
-5.03358e-09
-3.16933e-10
-4.96067e-09
-3.60606e-10
-4.87906e-09
-4.03646e-10
-4.78889e-09
-4.45978e-10
-4.69032e-09
-4.87528e-10
-4.58352e-09
-5.28222e-10
-4.46867e-09
-5.6799e-10
-4.34599e-09
-6.06762e-10
-4.21569e-09
-6.44469e-10
-4.07799e-09
-6.81046e-10
-3.93314e-09
-7.16428e-10
-3.78138e-09
-7.50553e-10
-3.623e-09
-7.83361e-10
-3.45826e-09
-8.14796e-10
-3.28745e-09
-8.44801e-10
-3.11087e-09
-8.73324e-10
-2.92884e-09
-9.00316e-10
-2.74167e-09
-9.25727e-10
-2.54969e-09
-9.49516e-10
-2.35323e-09
-9.71638e-10
-2.15265e-09
-9.92056e-10
-1.94829e-09
-1.01073e-09
-1.74052e-09
-1.02764e-09
-1.52969e-09
-1.04274e-09
-1.31618e-09
-1.05601e-09
-1.10035e-09
-1.06743e-09
-8.82601e-10
-1.07698e-09
-6.633e-10
-1.08463e-09
-4.42836e-10
-1.09039e-09
-2.21595e-10
-1.09423e-09
3.5063e-14
-1.09615e-09
2.21665e-10
-1.09615e-09
4.42906e-10
-1.09423e-09
6.63371e-10
-1.09039e-09
8.82672e-10
-1.08463e-09
1.10042e-09
-1.07698e-09
1.31625e-09
-1.06743e-09
1.52976e-09
-1.05601e-09
1.74059e-09
-1.04274e-09
1.94837e-09
-1.02764e-09
2.15273e-09
-1.01073e-09
2.35331e-09
-9.92055e-10
2.54976e-09
-9.71638e-10
2.74174e-09
-9.49516e-10
2.92891e-09
-9.25729e-10
3.11095e-09
-9.00318e-10
3.28752e-09
-8.73327e-10
3.45833e-09
-8.44804e-10
3.62307e-09
-8.148e-10
3.78146e-09
-7.83366e-10
3.93321e-09
-7.50557e-10
4.07807e-09
-7.16432e-10
4.21577e-09
-6.8105e-10
4.34607e-09
-6.44473e-10
4.46876e-09
-6.06766e-10
4.5836e-09
-5.67994e-10
4.6904e-09
-5.28226e-10
4.78897e-09
-4.87531e-10
4.87915e-09
-4.45981e-10
4.96076e-09
-4.03649e-10
5.03367e-09
-3.60609e-10
5.09775e-09
-3.16937e-10
5.15289e-09
-2.72709e-10
5.19899e-09
-2.28003e-10
5.23597e-09
-1.82896e-10
5.26377e-09
-1.37469e-10
5.28233e-09
-9.18011e-11
5.29162e-09
-4.59718e-11
5.29164e-09
-6.18368e-14
5.28237e-09
4.58483e-11
5.26383e-09
9.16782e-11
5.23606e-09
1.37347e-10
5.19911e-09
1.82775e-10
5.15303e-09
2.27883e-10
5.09791e-09
2.72591e-10
5.03386e-09
3.1682e-10
4.96097e-09
3.60494e-10
4.87938e-09
4.03535e-10
4.78923e-09
4.45868e-10
4.69068e-09
4.87419e-10
4.5839e-09
5.28115e-10
4.46908e-09
5.67884e-10
4.34642e-09
6.06658e-10
4.21614e-09
6.44367e-10
4.07846e-09
6.80946e-10
3.93363e-09
7.1633e-10
3.78189e-09
7.50458e-10
3.62352e-09
7.83269e-10
3.4588e-09
8.14706e-10
3.28801e-09
8.44714e-10
3.11145e-09
8.7324e-10
2.92943e-09
9.00235e-10
2.74227e-09
9.2565e-10
2.55031e-09
9.49442e-10
2.35387e-09
9.71568e-10
2.1533e-09
9.91991e-10
1.94895e-09
1.01067e-09
1.74118e-09
1.02759e-09
1.53036e-09
1.0427e-09
1.31685e-09
1.056e-09
1.10103e-09
1.06745e-09
8.83255e-10
1.07707e-09
6.63907e-10
1.08487e-09
4.43347e-10
1.09086e-09
2.2193e-10
1.0951e-09
1.09765e-09
-2.23758e-10
1.32206e-09
-4.47025e-10
1.31896e-09
-6.69457e-10
1.31379e-09
-8.90693e-10
1.30651e-09
-1.11036e-09
1.29707e-09
-1.32807e-09
1.28544e-09
-1.54345e-09
1.2716e-09
-1.75612e-09
1.25557e-09
-1.96571e-09
1.23734e-09
-2.17185e-09
1.21695e-09
-2.37418e-09
1.19444e-09
-2.57235e-09
1.16983e-09
-2.766e-09
1.14318e-09
-2.9548e-09
1.11452e-09
-3.13842e-09
1.08392e-09
-3.31653e-09
1.05141e-09
-3.48882e-09
1.01705e-09
-3.65498e-09
9.8092e-10
-3.81474e-09
9.43065e-10
-3.96781e-09
9.03558e-10
-4.11391e-09
8.62466e-10
-4.2528e-09
8.19861e-10
-4.38422e-09
7.75819e-10
-4.50796e-09
7.30416e-10
-4.62378e-09
6.83733e-10
-4.7315e-09
6.3585e-10
-4.83091e-09
5.86852e-10
-4.92185e-09
5.36824e-10
-5.00416e-09
4.85855e-10
-5.07769e-09
4.34034e-10
-5.1423e-09
3.81452e-10
-5.1979e-09
3.282e-10
-5.24438e-09
2.74373e-10
-5.28166e-09
2.20065e-10
-5.30968e-09
1.65371e-10
-5.32838e-09
1.10387e-10
-5.33773e-09
5.52099e-11
-5.33772e-09
-6.43647e-14
-5.32834e-09
-5.53385e-11
-5.30962e-09
-1.10516e-10
-5.28158e-09
-1.65499e-10
-5.24428e-09
-2.20192e-10
-5.19778e-09
-2.74498e-10
-5.14216e-09
-3.28324e-10
-5.07752e-09
-3.81573e-10
-5.00398e-09
-4.34153e-10
-4.92165e-09
-4.85972e-10
-4.83069e-09
-5.36938e-10
-4.73126e-09
-5.86962e-10
-4.62353e-09
-6.35956e-10
-4.50768e-09
-6.83835e-10
-4.38393e-09
-7.30514e-10
-4.25249e-09
-7.75912e-10
-4.11359e-09
-8.19948e-10
-3.96747e-09
-8.62546e-10
-3.81439e-09
-9.03632e-10
-3.65462e-09
-9.43131e-10
-3.48844e-09
-9.80977e-10
-3.31614e-09
-1.0171e-09
-3.13803e-09
-1.05144e-09
-2.95441e-09
-1.08394e-09
-2.7656e-09
-1.11453e-09
-2.57194e-09
-1.14317e-09
-2.37378e-09
-1.16981e-09
-2.17144e-09
-1.19439e-09
-1.9653e-09
-1.21687e-09
-1.75571e-09
-1.23723e-09
-1.54304e-09
-1.25541e-09
-1.32766e-09
-1.27139e-09
-1.10996e-09
-1.28513e-09
-8.90305e-10
-1.29663e-09
-6.6909e-10
-1.30585e-09
-4.46702e-10
-1.31278e-09
-2.23529e-10
-1.3174e-09
3.53115e-14
-1.31972e-09
2.236e-10
-1.31972e-09
4.46772e-10
-1.3174e-09
6.69161e-10
-1.31278e-09
8.90376e-10
-1.30585e-09
1.11003e-09
-1.29663e-09
1.32774e-09
-1.28513e-09
1.54311e-09
-1.27139e-09
1.75578e-09
-1.25541e-09
1.96537e-09
-1.23723e-09
2.17152e-09
-1.21687e-09
2.37385e-09
-1.19439e-09
2.57202e-09
-1.16981e-09
2.76567e-09
-1.14317e-09
2.95448e-09
-1.11454e-09
3.1381e-09
-1.08394e-09
3.31622e-09
-1.05145e-09
3.48852e-09
-1.01711e-09
3.6547e-09
-9.80982e-10
3.81447e-09
-9.43136e-10
3.96755e-09
-9.03636e-10
4.11367e-09
-8.62551e-10
4.25257e-09
-8.19953e-10
4.38401e-09
-7.75916e-10
4.50776e-09
-7.30518e-10
4.62361e-09
-6.83839e-10
4.73134e-09
-6.3596e-10
4.83078e-09
-5.86965e-10
4.92174e-09
-5.36942e-10
5.00406e-09
-4.85976e-10
5.07761e-09
-4.34158e-10
5.14225e-09
-3.81578e-10
5.19787e-09
-3.28329e-10
5.24437e-09
-2.74505e-10
5.28167e-09
-2.20198e-10
5.30971e-09
-1.65506e-10
5.32844e-09
-1.10523e-10
5.33781e-09
-5.53466e-11
5.33783e-09
-7.29101e-14
5.32848e-09
5.52008e-11
5.30978e-09
1.10378e-10
5.28177e-09
1.65361e-10
5.24449e-09
2.20054e-10
5.19801e-09
2.74361e-10
5.14241e-09
3.28187e-10
5.0778e-09
3.81437e-10
5.00427e-09
4.34017e-10
4.92197e-09
4.85837e-10
4.83103e-09
5.36804e-10
4.73162e-09
5.8683e-10
4.62391e-09
6.35826e-10
4.50809e-09
6.83707e-10
4.38436e-09
7.30388e-10
4.25294e-09
7.75789e-10
4.11406e-09
8.19828e-10
3.96796e-09
8.62428e-10
3.8149e-09
9.03516e-10
3.65515e-09
9.43019e-10
3.48899e-09
9.80868e-10
3.31671e-09
1.017e-09
3.13861e-09
1.05134e-09
2.955e-09
1.08384e-09
2.76621e-09
1.11444e-09
2.57257e-09
1.14308e-09
2.37441e-09
1.16972e-09
2.17209e-09
1.19431e-09
1.96596e-09
1.21681e-09
1.75638e-09
1.23717e-09
1.54372e-09
1.25536e-09
1.32835e-09
1.27137e-09
1.11064e-09
1.28517e-09
8.90964e-10
1.29675e-09
6.69701e-10
1.30613e-09
4.47216e-10
1.31334e-09
2.23867e-10
1.31845e-09
1.32151e-09
-2.26109e-10
1.54817e-09
-4.51715e-10
1.54456e-09
-6.76462e-10
1.53853e-09
-8.99991e-10
1.53004e-09
-1.12193e-09
1.51901e-09
-1.34189e-09
1.50541e-09
-1.5595e-09
1.48921e-09
-1.77437e-09
1.47044e-09
-1.98613e-09
1.4491e-09
-2.19441e-09
1.42523e-09
-2.39884e-09
1.39887e-09
-2.59906e-09
1.37005e-09
-2.79472e-09
1.33884e-09
-2.98547e-09
1.30528e-09
-3.17099e-09
1.26943e-09
-3.35095e-09
1.23136e-09
-3.52503e-09
1.19113e-09
-3.69292e-09
1.14881e-09
-3.85433e-09
1.10448e-09
-4.00898e-09
1.05821e-09
-4.1566e-09
1.01008e-09
-4.29693e-09
9.60188e-10
-4.42972e-09
9.08607e-10
-4.55474e-09
8.55433e-10
-4.67177e-09
8.00759e-10
-4.7806e-09
7.44681e-10
-4.88104e-09
6.87296e-10
-4.97293e-09
6.28706e-10
-5.05609e-09
5.69014e-10
-5.13038e-09
5.08323e-10
-5.19567e-09
4.46741e-10
-5.25184e-09
3.84376e-10
-5.2988e-09
3.21336e-10
-5.33647e-09
2.57733e-10
-5.36478e-09
1.93677e-10
-5.38367e-09
1.29282e-10
-5.39312e-09
6.46607e-11
-5.39311e-09
-7.44821e-14
-5.38363e-09
-6.48095e-11
-5.36472e-09
-1.29431e-10
-5.33639e-09
-1.93825e-10
-5.2987e-09
-2.5788e-10
-5.25172e-09
-3.21482e-10
-5.19552e-09
-3.8452e-10
-5.13021e-09
-4.46884e-10
-5.0559e-09
-5.08463e-10
-4.97272e-09
-5.69151e-10
-4.88082e-09
-6.28841e-10
-4.78036e-09
-6.87427e-10
-4.6715e-09
-7.44807e-10
-4.55446e-09
-8.00881e-10
-4.42942e-09
-8.5555e-10
-4.29662e-09
-9.08718e-10
-4.15627e-09
-9.60292e-10
-4.00864e-09
-1.01018e-09
-3.85398e-09
-1.0583e-09
-3.69255e-09
-1.10456e-09
-3.52464e-09
-1.14888e-09
-3.35056e-09
-1.19119e-09
-3.17059e-09
-1.23141e-09
-2.98506e-09
-1.26947e-09
-2.7943e-09
-1.3053e-09
-2.59863e-09
-1.33884e-09
-2.39841e-09
-1.37003e-09
-2.19398e-09
-1.39882e-09
-1.9857e-09
-1.42515e-09
-1.77393e-09
-1.44899e-09
-1.55905e-09
-1.47028e-09
-1.34144e-09
-1.489e-09
-1.12148e-09
-1.5051e-09
-8.99544e-10
-1.51856e-09
-6.76034e-10
-1.52936e-09
-4.51337e-10
-1.53747e-09
-2.25849e-10
-1.54289e-09
3.5329e-14
-1.5456e-09
2.2592e-10
-1.5456e-09
4.51408e-10
-1.54289e-09
6.76104e-10
-1.53747e-09
8.99615e-10
-1.52936e-09
1.12155e-09
-1.51856e-09
1.34151e-09
-1.5051e-09
1.55913e-09
-1.489e-09
1.774e-09
-1.47028e-09
1.98577e-09
-1.44899e-09
2.19405e-09
-1.42516e-09
2.39848e-09
-1.39882e-09
2.59871e-09
-1.37003e-09
2.79437e-09
-1.33884e-09
2.98514e-09
-1.3053e-09
3.17066e-09
-1.26947e-09
3.35063e-09
-1.23141e-09
3.52472e-09
-1.1912e-09
3.69262e-09
-1.14889e-09
3.85405e-09
-1.10456e-09
4.00872e-09
-1.0583e-09
4.15635e-09
-1.01019e-09
4.2967e-09
-9.60296e-10
4.4295e-09
-9.08722e-10
4.55454e-09
-8.55554e-10
4.67159e-09
-8.00885e-10
4.78044e-09
-7.44812e-10
4.8809e-09
-6.87432e-10
4.97281e-09
-6.28846e-10
5.05599e-09
-5.69157e-10
5.1303e-09
-5.0847e-10
5.19561e-09
-4.46891e-10
5.25181e-09
-3.84527e-10
5.29879e-09
-3.2149e-10
5.33648e-09
-2.57888e-10
5.36481e-09
-1.93834e-10
5.38373e-09
-1.2944e-10
5.3932e-09
-6.48195e-11
5.39321e-09
-8.51051e-14
5.38377e-09
6.46492e-11
5.36488e-09
1.2927e-10
5.33657e-09
1.93664e-10
5.29891e-09
2.57718e-10
5.25195e-09
3.2132e-10
5.19578e-09
3.84358e-10
5.13049e-09
4.46723e-10
5.0562e-09
5.08303e-10
4.97304e-09
5.68992e-10
4.88116e-09
6.28684e-10
4.78072e-09
6.87272e-10
4.67189e-09
7.44655e-10
4.55487e-09
8.00731e-10
4.42986e-09
8.55402e-10
4.29707e-09
9.08573e-10
4.15675e-09
9.6015e-10
4.00913e-09
1.01004e-09
3.85449e-09
1.05816e-09
3.69308e-09
1.10443e-09
3.52519e-09
1.14875e-09
3.35112e-09
1.19107e-09
3.17117e-09
1.23129e-09
2.98566e-09
1.26935e-09
2.79491e-09
1.30519e-09
2.59926e-09
1.33874e-09
2.39905e-09
1.36994e-09
2.19463e-09
1.39873e-09
1.98636e-09
1.42508e-09
1.77461e-09
1.44892e-09
1.55974e-09
1.47023e-09
1.34213e-09
1.48898e-09
1.12216e-09
1.50514e-09
9.00208e-10
1.5187e-09
6.7665e-10
1.52969e-09
4.51857e-10
1.53813e-09
2.2619e-10
1.54412e-09
1.5477e-09
-2.28843e-10
1.77702e-09
-4.57172e-10
1.77288e-09
-6.84625e-10
1.76599e-09
-9.1084e-10
1.75626e-09
-1.13544e-09
1.74361e-09
-1.35804e-09
1.72801e-09
-1.57826e-09
1.70943e-09
-1.79571e-09
1.68789e-09
-2.01001e-09
1.6634e-09
-2.22078e-09
1.636e-09
-2.42766e-09
1.60575e-09
-2.63028e-09
1.57268e-09
-2.82829e-09
1.53685e-09
-3.02133e-09
1.49833e-09
-3.20908e-09
1.45718e-09
-3.39119e-09
1.41348e-09
-3.56736e-09
1.3673e-09
-3.73727e-09
1.31872e-09
-3.90062e-09
1.26783e-09
-4.05713e-09
1.21472e-09
-4.20652e-09
1.15948e-09
-4.34853e-09
1.1022e-09
-4.48291e-09
1.04299e-09
-4.60943e-09
9.81952e-10
-4.72786e-09
9.19191e-10
-4.838e-09
8.54819e-10
-4.93966e-09
7.88947e-10
-5.03264e-09
7.21692e-10
-5.1168e-09
6.53171e-10
-5.19198e-09
5.83505e-10
-5.25806e-09
5.12815e-10
-5.31491e-09
4.41225e-10
-5.36243e-09
3.68862e-10
-5.40055e-09
2.95852e-10
-5.42919e-09
2.22323e-10
-5.44831e-09
1.48404e-10
-5.45788e-09
7.42248e-11
-5.45787e-09
-8.48275e-14
-5.44828e-09
-7.43944e-11
-5.42914e-09
-1.48573e-10
-5.40047e-09
-2.22492e-10
-5.36233e-09
-2.9602e-10
-5.31478e-09
-3.69029e-10
-5.25791e-09
-4.41391e-10
-5.19182e-09
-5.12978e-10
-5.11661e-09
-5.83666e-10
-5.03243e-09
-6.53329e-10
-4.93943e-09
-7.21847e-10
-4.83776e-09
-7.89098e-10
-4.7276e-09
-8.54965e-10
-4.60915e-09
-9.19332e-10
-4.48261e-09
-9.82087e-10
-4.34821e-09
-1.04312e-09
-4.20618e-09
-1.10232e-09
-4.05678e-09
-1.15959e-09
-3.90025e-09
-1.21482e-09
-3.73689e-09
-1.26793e-09
-3.56697e-09
-1.3188e-09
-3.39079e-09
-1.36737e-09
-3.20866e-09
-1.41353e-09
-3.02091e-09
-1.45722e-09
-2.82785e-09
-1.49835e-09
-2.62984e-09
-1.53685e-09
-2.42721e-09
-1.57266e-09
-2.22032e-09
-1.60571e-09
-2.00954e-09
-1.63594e-09
-1.79523e-09
-1.6633e-09
-1.57777e-09
-1.68774e-09
-1.35755e-09
-1.70922e-09
-1.13494e-09
-1.7277e-09
-9.10346e-10
-1.74316e-09
-6.84152e-10
-1.75555e-09
-4.56757e-10
-1.76487e-09
-2.28562e-10
-1.77109e-09
3.51751e-14
-1.7742e-09
2.28632e-10
-1.7742e-09
4.56828e-10
-1.77109e-09
6.84222e-10
-1.76487e-09
9.10417e-10
-1.75555e-09
1.13501e-09
-1.74316e-09
1.35762e-09
-1.72771e-09
1.57785e-09
-1.70922e-09
1.7953e-09
-1.68774e-09
2.00961e-09
-1.6633e-09
2.22039e-09
-1.63594e-09
2.42728e-09
-1.60571e-09
2.62991e-09
-1.57266e-09
2.82793e-09
-1.53686e-09
3.02098e-09
-1.49836e-09
3.20874e-09
-1.45723e-09
3.39086e-09
-1.41354e-09
3.56704e-09
-1.36737e-09
3.73696e-09
-1.31881e-09
3.90033e-09
-1.26793e-09
4.05685e-09
-1.21483e-09
4.20626e-09
-1.15959e-09
4.34829e-09
-1.10232e-09
4.48269e-09
-1.04312e-09
4.60923e-09
-9.82091e-10
4.72768e-09
-9.19337e-10
4.83784e-09
-8.54971e-10
4.93951e-09
-7.89104e-10
5.03252e-09
-7.21854e-10
5.1167e-09
-6.53337e-10
5.1919e-09
-5.83674e-10
5.258e-09
-5.12987e-10
5.31487e-09
-4.41401e-10
5.36242e-09
-3.69039e-10
5.40056e-09
-2.96031e-10
5.42923e-09
-2.22503e-10
5.44837e-09
-1.48586e-10
5.45796e-09
-7.44073e-11
5.45797e-09
-9.87113e-14
5.44841e-09
7.42098e-11
5.42929e-09
1.48388e-10
5.40065e-09
2.22306e-10
5.36253e-09
2.95833e-10
5.31501e-09
3.68842e-10
5.25816e-09
4.41204e-10
5.19209e-09
5.12792e-10
5.11691e-09
5.83481e-10
5.03276e-09
6.53146e-10
4.93977e-09
7.21665e-10
4.83813e-09
7.88919e-10
4.72799e-09
8.54789e-10
4.60956e-09