/*--------------------------------*- C++ -*----------------------------------*\
| =========                 |                                                 |
| \\      /  F ield         | OpenFOAM: The Open Source CFD Toolbox           |
|  \\    /   O peration     | Version:  2106                                  |
|   \\  /    A nd           | Website:  www.openfoam.com                      |
|    \\/     M anipulation  |                                                 |
\*---------------------------------------------------------------------------*/
FoamFile
{
    version     2.0;
    format      ascii;
    arch        "LSB;label=32;scalar=64";
    class       volVectorField;
    location    "0.3";
    object      U_0;
}
// * * * * * * * * * * * * * * * * * * * * * * * * * * * * * * * * * * * * * //

dimensions      [0 1 -1 0 0 0 0];

internalField   nonuniform List<vector> 
90000
(
(-1.61364e-08 1.65254e-08 0)
(-4.86423e-08 1.63729e-08 0)
(-8.13087e-08 1.626e-08 0)
(-1.1376e-07 1.61536e-08 0)
(-1.45968e-07 1.60293e-08 0)
(-1.77907e-07 1.58817e-08 0)
(-2.09527e-07 1.57089e-08 0)
(-2.40775e-07 1.55097e-08 0)
(-2.71598e-07 1.52838e-08 0)
(-3.01942e-07 1.50314e-08 0)
(-3.31756e-07 1.4753e-08 0)
(-3.60987e-07 1.44489e-08 0)
(-3.89584e-07 1.41197e-08 0)
(-4.17496e-07 1.37656e-08 0)
(-4.44676e-07 1.33875e-08 0)
(-4.71075e-07 1.29859e-08 0)
(-4.96648e-07 1.25616e-08 0)
(-5.21349e-07 1.21153e-08 0)
(-5.45136e-07 1.16478e-08 0)
(-5.67966e-07 1.11598e-08 0)
(-5.89799e-07 1.06523e-08 0)
(-6.10598e-07 1.01261e-08 0)
(-6.30326e-07 9.58212e-09 0)
(-6.48947e-07 9.02136e-09 0)
(-6.66431e-07 8.44478e-09 0)
(-6.82745e-07 7.85339e-09 0)
(-6.97861e-07 7.24822e-09 0)
(-7.11753e-07 6.63034e-09 0)
(-7.24396e-07 6.00082e-09 0)
(-7.35769e-07 5.36078e-09 0)
(-7.45851e-07 4.71133e-09 0)
(-7.54624e-07 4.05362e-09 0)
(-7.62074e-07 3.38879e-09 0)
(-7.68187e-07 2.71803e-09 0)
(-7.72952e-07 2.0425e-09 0)
(-7.76361e-07 1.36338e-09 0)
(-7.78409e-07 6.81877e-10 0)
(-7.79091e-07 -8.16197e-13 0)
(-7.78406e-07 -6.83504e-10 0)
(-7.76355e-07 -1.36499e-09 0)
(-7.72943e-07 -2.04408e-09 0)
(-7.68175e-07 -2.71958e-09 0)
(-7.62059e-07 -3.3903e-09 0)
(-7.54606e-07 -4.05508e-09 0)
(-7.45829e-07 -4.71275e-09 0)
(-7.35745e-07 -5.36214e-09 0)
(-7.24369e-07 -6.00213e-09 0)
(-7.11723e-07 -6.6316e-09 0)
(-6.97828e-07 -7.24943e-09 0)
(-6.82709e-07 -7.85454e-09 0)
(-6.66392e-07 -8.44588e-09 0)
(-6.48907e-07 -9.0224e-09 0)
(-6.30283e-07 -9.5831e-09 0)
(-6.10553e-07 -1.0127e-08 0)
(-5.89753e-07 -1.06531e-08 0)
(-5.67918e-07 -1.11605e-08 0)
(-5.45086e-07 -1.16484e-08 0)
(-5.21299e-07 -1.21158e-08 0)
(-4.96596e-07 -1.2562e-08 0)
(-4.71023e-07 -1.29862e-08 0)
(-4.44623e-07 -1.33875e-08 0)
(-4.17444e-07 -1.37654e-08 0)
(-3.89532e-07 -1.41191e-08 0)
(-3.60937e-07 -1.44481e-08 0)
(-3.31708e-07 -1.47517e-08 0)
(-3.01898e-07 -1.50295e-08 0)
(-2.71558e-07 -1.52808e-08 0)
(-2.40742e-07 -1.55054e-08 0)
(-2.09503e-07 -1.57028e-08 0)
(-1.77897e-07 -1.58726e-08 0)
(-1.45979e-07 -1.60145e-08 0)
(-1.13804e-07 -1.61284e-08 0)
(-8.14303e-08 -1.6214e-08 0)
(-4.89134e-08 -1.62711e-08 0)
(-1.63107e-08 -1.62997e-08 0)
(1.63207e-08 -1.62997e-08 0)
(4.89235e-08 -1.62711e-08 0)
(8.14405e-08 -1.62139e-08 0)
(1.13815e-07 -1.61283e-08 0)
(1.45989e-07 -1.60145e-08 0)
(1.77908e-07 -1.58725e-08 0)
(2.09514e-07 -1.57027e-08 0)
(2.40753e-07 -1.55053e-08 0)
(2.71569e-07 -1.52808e-08 0)
(3.01909e-07 -1.50294e-08 0)
(3.31719e-07 -1.47517e-08 0)
(3.60948e-07 -1.44481e-08 0)
(3.89543e-07 -1.41191e-08 0)
(4.17455e-07 -1.37654e-08 0)
(4.44635e-07 -1.33875e-08 0)
(4.71034e-07 -1.29862e-08 0)
(4.96608e-07 -1.2562e-08 0)
(5.2131e-07 -1.21159e-08 0)
(5.45098e-07 -1.16485e-08 0)
(5.67929e-07 -1.11606e-08 0)
(5.89765e-07 -1.06532e-08 0)
(6.10565e-07 -1.01271e-08 0)
(6.30295e-07 -9.58319e-09 0)
(6.48919e-07 -9.0225e-09 0)
(6.66405e-07 -8.44598e-09 0)
(6.82721e-07 -7.85464e-09 0)
(6.9784e-07 -7.24953e-09 0)
(7.11735e-07 -6.63169e-09 0)
(7.24382e-07 -6.00221e-09 0)
(7.35757e-07 -5.36221e-09 0)
(7.45843e-07 -4.71281e-09 0)
(7.54619e-07 -4.05514e-09 0)
(7.62072e-07 -3.39037e-09 0)
(7.68188e-07 -2.71965e-09 0)
(7.72957e-07 -2.04416e-09 0)
(7.7637e-07 -1.36509e-09 0)
(7.7842e-07 -6.83635e-10 0)
(7.79105e-07 -9.78325e-13 0)
(7.78424e-07 6.81684e-10 0)
(7.76377e-07 1.36315e-09 0)
(7.72968e-07 2.04224e-09 0)
(7.68203e-07 2.71775e-09 0)
(7.6209e-07 3.38849e-09 0)
(7.54641e-07 4.0533e-09 0)
(7.45868e-07 4.71099e-09 0)
(7.35787e-07 5.36042e-09 0)
(7.24415e-07 6.00045e-09 0)
(7.11772e-07 6.62995e-09 0)
(6.9788e-07 7.24781e-09 0)
(6.82765e-07 7.85295e-09 0)
(6.66451e-07 8.44432e-09 0)
(6.48969e-07 9.02086e-09 0)
(6.30348e-07 9.58159e-09 0)
(6.10621e-07 1.01255e-08 0)
(5.89824e-07 1.06517e-08 0)
(5.67991e-07 1.11591e-08 0)
(5.45163e-07 1.1647e-08 0)
(5.21377e-07 1.21145e-08 0)
(4.96678e-07 1.25608e-08 0)
(4.71107e-07 1.29849e-08 0)
(4.4471e-07 1.33864e-08 0)
(4.17532e-07 1.37643e-08 0)
(3.89623e-07 1.41181e-08 0)
(3.61029e-07 1.44471e-08 0)
(3.31803e-07 1.47508e-08 0)
(3.01994e-07 1.50286e-08 0)
(2.71656e-07 1.52801e-08 0)
(2.4084e-07 1.55048e-08 0)
(2.09602e-07 1.57025e-08 0)
(1.77996e-07 1.58729e-08 0)
(1.46076e-07 1.6016e-08 0)
(1.13897e-07 1.61319e-08 0)
(8.15139e-08 1.62208e-08 0)
(4.89782e-08 1.62841e-08 0)
(1.63391e-08 1.63228e-08 0)
(-1.62889e-08 4.93433e-08 0)
(-4.89237e-08 4.90616e-08 0)
(-8.15669e-08 4.87899e-08 0)
(-1.14052e-07 4.84895e-08 0)
(-1.4632e-07 4.81233e-08 0)
(-1.78327e-07 4.76827e-08 0)
(-2.10017e-07 4.71647e-08 0)
(-2.41336e-07 4.65672e-08 0)
(-2.72229e-07 4.58895e-08 0)
(-3.02643e-07 4.51322e-08 0)
(-3.32525e-07 4.42963e-08 0)
(-3.61823e-07 4.33834e-08 0)
(-3.90486e-07 4.23946e-08 0)
(-4.18463e-07 4.13317e-08 0)
(-4.45706e-07 4.01964e-08 0)
(-4.72166e-07 3.89907e-08 0)
(-4.97798e-07 3.77167e-08 0)
(-5.22556e-07 3.63767e-08 0)
(-5.46398e-07 3.49729e-08 0)
(-5.6928e-07 3.35077e-08 0)
(-5.91164e-07 3.19839e-08 0)
(-6.12011e-07 3.0404e-08 0)
(-6.31784e-07 2.87707e-08 0)
(-6.50449e-07 2.7087e-08 0)
(-6.67973e-07 2.53558e-08 0)
(-6.84325e-07 2.35801e-08 0)
(-6.99476e-07 2.17631e-08 0)
(-7.134e-07 1.99078e-08 0)
(-7.26073e-07 1.80177e-08 0)
(-7.37472e-07 1.60959e-08 0)
(-7.47577e-07 1.41459e-08 0)
(-7.56371e-07 1.21711e-08 0)
(-7.63838e-07 1.01749e-08 0)
(-7.69965e-07 8.16093e-09 0)
(-7.74741e-07 6.13262e-09 0)
(-7.78158e-07 4.09355e-09 0)
(-7.8021e-07 2.04732e-09 0)
(-7.80893e-07 -2.48043e-12 0)
(-7.80207e-07 -2.05227e-09 0)
(-7.78152e-07 -4.09844e-09 0)
(-7.74731e-07 -6.13741e-09 0)
(-7.69952e-07 -8.16561e-09 0)
(-7.63822e-07 -1.01795e-08 0)
(-7.56352e-07 -1.21755e-08 0)
(-7.47555e-07 -1.41502e-08 0)
(-7.37447e-07 -1.61e-08 0)
(-7.26045e-07 -1.80216e-08 0)
(-7.1337e-07 -1.99116e-08 0)
(-6.99443e-07 -2.17667e-08 0)
(-6.84289e-07 -2.35835e-08 0)
(-6.67934e-07 -2.53591e-08 0)
(-6.50408e-07 -2.70901e-08 0)
(-6.31741e-07 -2.87736e-08 0)
(-6.11966e-07 -3.04067e-08 0)
(-5.91118e-07 -3.19864e-08 0)
(-5.69232e-07 -3.351e-08 0)
(-5.46348e-07 -3.49748e-08 0)
(-5.22505e-07 -3.63783e-08 0)
(-4.97746e-07 -3.77179e-08 0)
(-4.72113e-07 -3.89914e-08 0)
(-4.45652e-07 -4.01966e-08 0)
(-4.1841e-07 -4.13312e-08 0)
(-3.90433e-07 -4.23933e-08 0)
(-3.61772e-07 -4.3381e-08 0)
(-3.32476e-07 -4.42927e-08 0)
(-3.02597e-07 -4.51266e-08 0)
(-2.72186e-07 -4.58814e-08 0)
(-2.41299e-07 -4.65556e-08 0)
(-2.09988e-07 -4.71482e-08 0)
(-1.78309e-07 -4.76581e-08 0)
(-1.46317e-07 -4.80843e-08 0)
(-1.14068e-07 -4.84262e-08 0)
(-8.16188e-08 -4.86831e-08 0)
(-4.90266e-08 -4.88546e-08 0)
(-1.63484e-08 -4.89404e-08 0)
(1.63585e-08 -4.89403e-08 0)
(4.90368e-08 -4.88544e-08 0)
(8.1629e-08 -4.86828e-08 0)
(1.14078e-07 -4.84259e-08 0)
(1.46327e-07 -4.8084e-08 0)
(1.78319e-07 -4.76577e-08 0)
(2.09999e-07 -4.71478e-08 0)
(2.4131e-07 -4.65553e-08 0)
(2.72197e-07 -4.5881e-08 0)
(3.02608e-07 -4.51263e-08 0)
(3.32487e-07 -4.42924e-08 0)
(3.61783e-07 -4.33808e-08 0)
(3.90445e-07 -4.23931e-08 0)
(4.18421e-07 -4.13311e-08 0)
(4.45664e-07 -4.01965e-08 0)
(4.72124e-07 -3.89914e-08 0)
(4.97757e-07 -3.7718e-08 0)
(5.22516e-07 -3.63783e-08 0)
(5.46359e-07 -3.49749e-08 0)
(5.69244e-07 -3.35101e-08 0)
(5.91129e-07 -3.19866e-08 0)
(6.11978e-07 -3.04069e-08 0)
(6.31753e-07 -2.87739e-08 0)
(6.50421e-07 -2.70904e-08 0)
(6.67947e-07 -2.53594e-08 0)
(6.84301e-07 -2.35838e-08 0)
(6.99455e-07 -2.17669e-08 0)
(7.13382e-07 -1.99118e-08 0)
(7.26058e-07 -1.80218e-08 0)
(7.3746e-07 -1.61002e-08 0)
(7.47568e-07 -1.41503e-08 0)
(7.56365e-07 -1.21757e-08 0)
(7.63836e-07 -1.01797e-08 0)
(7.69966e-07 -8.16586e-09 0)
(7.74746e-07 -6.13771e-09 0)
(7.78166e-07 -4.0988e-09 0)
(7.80221e-07 -2.0527e-09 0)
(7.80908e-07 -2.99793e-12 0)
(7.80225e-07 2.04673e-09 0)
(7.78173e-07 4.09288e-09 0)
(7.74756e-07 6.13187e-09 0)
(7.69981e-07 8.16013e-09 0)
(7.63854e-07 1.01741e-08 0)
(7.56387e-07 1.21702e-08 0)
(7.47594e-07 1.41449e-08 0)
(7.37489e-07 1.60949e-08 0)
(7.26091e-07 1.80166e-08 0)
(7.13419e-07 1.99067e-08 0)
(6.99495e-07 2.17618e-08 0)
(6.84345e-07 2.35787e-08 0)
(6.67994e-07 2.53543e-08 0)
(6.50471e-07 2.70854e-08 0)
(6.31807e-07 2.8769e-08 0)
(6.12034e-07 3.04022e-08 0)
(5.91189e-07 3.1982e-08 0)
(5.69306e-07 3.35057e-08 0)
(5.46424e-07 3.49707e-08 0)
(5.22584e-07 3.63743e-08 0)
(4.97827e-07 3.77141e-08 0)
(4.72197e-07 3.89878e-08 0)
(4.45739e-07 4.01931e-08 0)
(4.18499e-07 4.13278e-08 0)
(3.90524e-07 4.239e-08 0)
(3.61865e-07 4.33779e-08 0)
(3.32571e-07 4.42896e-08 0)
(3.02693e-07 4.51238e-08 0)
(2.72284e-07 4.58789e-08 0)
(2.41398e-07 4.65537e-08 0)
(2.10088e-07 4.71473e-08 0)
(1.78408e-07 4.7659e-08 0)
(1.46415e-07 4.80885e-08 0)
(1.14162e-07 4.84363e-08 0)
(8.17037e-08 4.87035e-08 0)
(4.90929e-08 4.88927e-08 0)
(1.63778e-08 4.90077e-08 0)
(-1.6402e-08 8.2001e-08 0)
(-4.91956e-08 8.17418e-08 0)
(-8.19289e-08 8.13789e-08 0)
(-1.14519e-07 8.09065e-08 0)
(-1.46903e-07 8.03082e-08 0)
(-1.79027e-07 7.95789e-08 0)
(-2.10836e-07 7.87168e-08 0)
(-2.42273e-07 7.77207e-08 0)
(-2.73284e-07 7.65905e-08 0)
(-3.03814e-07 7.53273e-08 0)
(-3.33811e-07 7.39327e-08 0)
(-3.63222e-07 7.2409e-08 0)
(-3.91995e-07 7.07587e-08 0)
(-4.2008e-07 6.89847e-08 0)
(-4.47427e-07 6.70899e-08 0)
(-4.7399e-07 6.50776e-08 0)
(-4.9972e-07 6.29513e-08 0)
(-5.24574e-07 6.07146e-08 0)
(-5.48508e-07 5.83716e-08 0)
(-5.71479e-07 5.59263e-08 0)
(-5.93447e-07 5.33829e-08 0)
(-6.14375e-07 5.07459e-08 0)
(-6.34224e-07 4.80199e-08 0)
(-6.52961e-07 4.52097e-08 0)
(-6.70552e-07 4.23202e-08 0)
(-6.86967e-07 3.93565e-08 0)
(-7.02177e-07 3.63238e-08 0)
(-7.16155e-07 3.32273e-08 0)
(-7.28876e-07 3.00725e-08 0)
(-7.40319e-07 2.6865e-08 0)
(-7.50464e-07 2.36103e-08 0)
(-7.59291e-07 2.03142e-08 0)
(-7.66787e-07 1.69825e-08 0)
(-7.72938e-07 1.3621e-08 0)
(-7.77732e-07 1.02356e-08 0)
(-7.81163e-07 6.83233e-09 0)
(-7.83223e-07 3.41708e-09 0)
(-7.83909e-07 -4.15035e-12 0)
(-7.8322e-07 -3.42534e-09 0)
(-7.81156e-07 -6.84051e-09 0)
(-7.77723e-07 -1.02437e-08 0)
(-7.72925e-07 -1.36288e-08 0)
(-7.66771e-07 -1.69901e-08 0)
(-7.59273e-07 -2.03216e-08 0)
(-7.50442e-07 -2.36174e-08 0)
(-7.40295e-07 -2.68718e-08 0)
(-7.28849e-07 -3.00791e-08 0)
(-7.16124e-07 -3.32336e-08 0)
(-7.02143e-07 -3.63298e-08 0)
(-6.86931e-07 -3.93623e-08 0)
(-6.70514e-07 -4.23257e-08 0)
(-6.5292e-07 -4.52149e-08 0)
(-6.34181e-07 -4.80248e-08 0)
(-6.14329e-07 -5.07505e-08 0)
(-5.934e-07 -5.33871e-08 0)
(-5.7143e-07 -5.59301e-08 0)
(-5.48457e-07 -5.8375e-08 0)
(-5.24522e-07 -6.07174e-08 0)
(-4.99668e-07 -6.29534e-08 0)
(-4.73936e-07 -6.5079e-08 0)
(-4.47373e-07 -6.70904e-08 0)
(-4.20025e-07 -6.89841e-08 0)
(-3.91941e-07 -7.07569e-08 0)
(-3.63169e-07 -7.24054e-08 0)
(-3.3376e-07 -7.3927e-08 0)
(-3.03765e-07 -7.53189e-08 0)
(-2.73237e-07 -7.65786e-08 0)
(-2.42231e-07 -7.7704e-08 0)
(-2.10799e-07 -7.8693e-08 0)
(-1.78997e-07 -7.9544e-08 0)
(-1.46881e-07 -8.02554e-08 0)
(-1.14508e-07 -8.08259e-08 0)
(-8.19339e-08 -8.12547e-08 0)
(-4.92159e-08 -8.1541e-08 0)
(-1.64115e-08 -8.16842e-08 0)
(1.64217e-08 -8.16841e-08 0)
(4.92261e-08 -8.15407e-08 0)
(8.19442e-08 -8.12544e-08 0)
(1.14519e-07 -8.08255e-08 0)
(1.46892e-07 -8.02548e-08 0)
(1.79008e-07 -7.95434e-08 0)
(2.1081e-07 -7.86924e-08 0)
(2.42241e-07 -7.77034e-08 0)
(2.73248e-07 -7.65781e-08 0)
(3.03776e-07 -7.53184e-08 0)
(3.33771e-07 -7.39266e-08 0)
(3.6318e-07 -7.24051e-08 0)
(3.91952e-07 -7.07566e-08 0)
(4.20037e-07 -6.89839e-08 0)
(4.47384e-07 -6.70903e-08 0)
(4.73947e-07 -6.5079e-08 0)
(4.99679e-07 -6.29535e-08 0)
(5.24534e-07 -6.07176e-08 0)
(5.48469e-07 -5.83752e-08 0)
(5.71441e-07 -5.59304e-08 0)
(5.93412e-07 -5.33875e-08 0)
(6.14341e-07 -5.07509e-08 0)
(6.34193e-07 -4.80253e-08 0)
(6.52932e-07 -4.52154e-08 0)
(6.70526e-07 -4.23262e-08 0)
(6.86943e-07 -3.93627e-08 0)
(7.02156e-07 -3.63302e-08 0)
(7.16137e-07 -3.32339e-08 0)
(7.28861e-07 -3.00794e-08 0)
(7.40308e-07 -2.68721e-08 0)
(7.50455e-07 -2.36177e-08 0)
(7.59286e-07 -2.03219e-08 0)
(7.66785e-07 -1.69905e-08 0)
(7.72939e-07 -1.36293e-08 0)
(7.77737e-07 -1.02442e-08 0)
(7.81171e-07 -6.84114e-09 0)
(7.83234e-07 -3.42608e-09 0)
(7.83923e-07 -4.98431e-12 0)
(7.83238e-07 3.41614e-09 0)
(7.81178e-07 6.83131e-09 0)
(7.77748e-07 1.02345e-08 0)
(7.72954e-07 1.36198e-08 0)
(7.66803e-07 1.69812e-08 0)
(7.59308e-07 2.03128e-08 0)
(7.50481e-07 2.36088e-08 0)
(7.40337e-07 2.68634e-08 0)
(7.28894e-07 3.00708e-08 0)
(7.16173e-07 3.32254e-08 0)
(7.02196e-07 3.63217e-08 0)
(6.86987e-07 3.93543e-08 0)
(6.70573e-07 4.23178e-08 0)
(6.52982e-07 4.52071e-08 0)
(6.34246e-07 4.80172e-08 0)
(6.14398e-07 5.0743e-08 0)
(5.93471e-07 5.33798e-08 0)
(5.71504e-07 5.5923e-08 0)
(5.48534e-07 5.83681e-08 0)
(5.24602e-07 6.07109e-08 0)
(4.99749e-07 6.29471e-08 0)
(4.7402e-07 6.50729e-08 0)
(4.4746e-07 6.70845e-08 0)
(4.20114e-07 6.89784e-08 0)
(3.92032e-07 7.07513e-08 0)
(3.63262e-07 7.24e-08 0)
(3.33855e-07 7.39219e-08 0)
(3.03862e-07 7.53141e-08 0)
(2.73336e-07 7.65744e-08 0)
(2.4233e-07 7.77007e-08 0)
(2.10899e-07 7.86915e-08 0)
(1.79097e-07 7.95454e-08 0)
(1.4698e-07 8.02623e-08 0)
(1.14603e-07 8.08428e-08 0)
(8.20192e-08 8.1289e-08 0)
(4.92822e-08 8.16053e-08 0)
(1.64411e-08 8.1796e-08 0)
(-1.65089e-08 1.14873e-07 0)
(-4.9497e-08 1.1458e-07 0)
(-8.24017e-08 1.1411e-07 0)
(-1.15162e-07 1.13465e-07 0)
(-1.47718e-07 1.12636e-07 0)
(-1.80014e-07 1.11619e-07 0)
(-2.11992e-07 1.10413e-07 0)
(-2.43599e-07 1.09017e-07 0)
(-2.74777e-07 1.07433e-07 0)
(-3.05473e-07 1.05662e-07 0)
(-3.35633e-07 1.03706e-07 0)
(-3.65203e-07 1.01569e-07 0)
(-3.94132e-07 9.92542e-08 0)
(-4.2237e-07 9.67659e-08 0)
(-4.49866e-07 9.41081e-08 0)
(-4.76573e-07 9.12854e-08 0)
(-5.02444e-07 8.83028e-08 0)
(-5.27433e-07 8.51655e-08 0)
(-5.51496e-07 8.18789e-08 0)
(-5.74593e-07 7.84487e-08 0)
(-5.96681e-07 7.48811e-08 0)
(-6.17722e-07 7.11821e-08 0)
(-6.37679e-07 6.73583e-08 0)
(-6.56518e-07 6.34164e-08 0)
(-6.74205e-07 5.93633e-08 0)
(-6.9071e-07 5.5206e-08 0)
(-7.06002e-07 5.09519e-08 0)
(-7.20057e-07 4.66084e-08 0)
(-7.32847e-07 4.21831e-08 0)
(-7.44353e-07 3.76838e-08 0)
(-7.54552e-07 3.31185e-08 0)
(-7.63428e-07 2.8495e-08 0)
(-7.70965e-07 2.38216e-08 0)
(-7.77149e-07 1.91064e-08 0)
(-7.8197e-07 1.43577e-08 0)
(-7.85419e-07 9.58386e-09 0)
(-7.8749e-07 4.79323e-09 0)
(-7.88179e-07 -5.77477e-12 0)
(-7.87486e-07 -4.80475e-09 0)
(-7.85412e-07 -9.59527e-09 0)
(-7.8196e-07 -1.4369e-08 0)
(-7.77136e-07 -1.91174e-08 0)
(-7.70949e-07 -2.38324e-08 0)
(-7.63409e-07 -2.85055e-08 0)
(-7.5453e-07 -3.31286e-08 0)
(-7.44328e-07 -3.76937e-08 0)
(-7.32819e-07 -4.21926e-08 0)
(-7.20026e-07 -4.66175e-08 0)
(-7.05969e-07 -5.09607e-08 0)
(-6.90673e-07 -5.52144e-08 0)
(-6.74167e-07 -5.93713e-08 0)
(-6.56477e-07 -6.34241e-08 0)
(-6.37636e-07 -6.73656e-08 0)
(-6.17676e-07 -7.11889e-08 0)
(-5.96633e-07 -7.48873e-08 0)
(-5.74543e-07 -7.84544e-08 0)
(-5.51445e-07 -8.18839e-08 0)
(-5.2738e-07 -8.51697e-08 0)
(-5.0239e-07 -8.83062e-08 0)
(-4.76518e-07 -9.12877e-08 0)
(-4.49811e-07 -9.41091e-08 0)
(-4.22314e-07 -9.67655e-08 0)
(-3.94076e-07 -9.92521e-08 0)
(-3.65148e-07 -1.01565e-07 0)
(-3.35578e-07 -1.03699e-07 0)
(-3.0542e-07 -1.05651e-07 0)
(-2.74726e-07 -1.07418e-07 0)
(-2.4355e-07 -1.08997e-07 0)
(-2.11947e-07 -1.10384e-07 0)
(-1.79972e-07 -1.11578e-07 0)
(-1.47682e-07 -1.12576e-07 0)
(-1.15132e-07 -1.13376e-07 0)
(-8.23802e-08 -1.13978e-07 0)
(-4.94839e-08 -1.14379e-07 0)
(-1.65008e-08 -1.1458e-07 0)
(1.65112e-08 -1.1458e-07 0)
(4.94943e-08 -1.14379e-07 0)
(8.23906e-08 -1.13977e-07 0)
(1.15142e-07 -1.13376e-07 0)
(1.47692e-07 -1.12575e-07 0)
(1.79983e-07 -1.11577e-07 0)
(2.11958e-07 -1.10384e-07 0)
(2.43561e-07 -1.08996e-07 0)
(2.74737e-07 -1.07418e-07 0)
(3.05431e-07 -1.05651e-07 0)
(3.35589e-07 -1.03698e-07 0)
(3.65159e-07 -1.01564e-07 0)
(3.94088e-07 -9.92518e-08 0)
(4.22325e-07 -9.67653e-08 0)
(4.49822e-07 -9.41091e-08 0)
(4.76529e-07 -9.12878e-08 0)
(5.02401e-07 -8.83063e-08 0)
(5.27391e-07 -8.517e-08 0)
(5.51457e-07 -8.18843e-08 0)
(5.74555e-07 -7.84549e-08 0)
(5.96645e-07 -7.48879e-08 0)
(6.17688e-07 -7.11894e-08 0)
(6.37648e-07 -6.73661e-08 0)
(6.56489e-07 -6.34246e-08 0)
(6.74179e-07 -5.93719e-08 0)
(6.90686e-07 -5.52149e-08 0)
(7.05981e-07 -5.09611e-08 0)
(7.20038e-07 -4.6618e-08 0)
(7.32832e-07 -4.2193e-08 0)
(7.44341e-07 -3.76941e-08 0)
(7.54543e-07 -3.31291e-08 0)
(7.63422e-07 -2.8506e-08 0)
(7.70962e-07 -2.38329e-08 0)
(7.7715e-07 -1.9118e-08 0)
(7.81974e-07 -1.43697e-08 0)
(7.85426e-07 -9.59609e-09 0)
(7.87501e-07 -4.80566e-09 0)
(7.88194e-07 -6.786e-12 0)
(7.87505e-07 4.79213e-09 0)
(7.85434e-07 9.58267e-09 0)
(7.81985e-07 1.43564e-08 0)
(7.77165e-07 1.9105e-08 0)
(7.70981e-07 2.38201e-08 0)
(7.63445e-07 2.84934e-08 0)
(7.54569e-07 3.31167e-08 0)
(7.4437e-07 3.76819e-08 0)
(7.32865e-07 4.2181e-08 0)
(7.20075e-07 4.6606e-08 0)
(7.06021e-07 5.09493e-08 0)
(6.90729e-07 5.52032e-08 0)
(6.74226e-07 5.93602e-08 0)
(6.56539e-07 6.34131e-08 0)
(6.37701e-07 6.73548e-08 0)
(6.17745e-07 7.11784e-08 0)
(5.96704e-07 7.48771e-08 0)
(5.74617e-07 7.84445e-08 0)
(5.51522e-07 8.18743e-08 0)
(5.2746e-07 8.51604e-08 0)
(5.02472e-07 8.82972e-08 0)
(4.76603e-07 9.12791e-08 0)
(4.49897e-07 9.41008e-08 0)
(4.22403e-07 9.67574e-08 0)
(3.94168e-07 9.92442e-08 0)
(3.65241e-07 1.01557e-07 0)
(3.35673e-07 1.03692e-07 0)
(3.05517e-07 1.05645e-07 0)
(2.74825e-07 1.07413e-07 0)
(2.4365e-07 1.08992e-07 0)
(2.12048e-07 1.10382e-07 0)
(1.80073e-07 1.1158e-07 0)
(1.47781e-07 1.12586e-07 0)
(1.15227e-07 1.134e-07 0)
(8.24658e-08 1.14026e-07 0)
(4.95503e-08 1.1447e-07 0)
(1.65306e-08 1.14737e-07 0)
(-1.66342e-08 1.47991e-07 0)
(-4.98661e-08 1.47634e-07 0)
(-8.30033e-08 1.47045e-07 0)
(-1.15992e-07 1.46223e-07 0)
(-1.48776e-07 1.45162e-07 0)
(-1.81298e-07 1.43856e-07 0)
(-2.13501e-07 1.42305e-07 0)
(-2.45329e-07 1.40508e-07 0)
(-2.76727e-07 1.38467e-07 0)
(-3.07639e-07 1.36185e-07 0)
(-3.38012e-07 1.33664e-07 0)
(-3.67791e-07 1.30911e-07 0)
(-3.96924e-07 1.27928e-07 0)
(-4.25361e-07 1.24721e-07 0)
(-4.53052e-07 1.21295e-07 0)
(-4.79948e-07 1.17657e-07 0)
(-5.06001e-07 1.13813e-07 0)
(-5.31167e-07 1.09769e-07 0)
(-5.55401e-07 1.05533e-07 0)
(-5.78661e-07 1.01112e-07 0)
(-6.00905e-07 9.65136e-08 0)
(-6.22095e-07 9.1746e-08 0)
(-6.42194e-07 8.68175e-08 0)
(-6.61166e-07 8.17368e-08 0)
(-6.78979e-07 7.65127e-08 0)
(-6.956e-07 7.11544e-08 0)
(-7.11001e-07 6.56713e-08 0)
(-7.25154e-07 6.0073e-08 0)
(-7.38036e-07 5.43694e-08 0)
(-7.49622e-07 4.85703e-08 0)
(-7.59894e-07 4.26861e-08 0)
(-7.68833e-07 3.6727e-08 0)
(-7.76423e-07 3.07035e-08 0)
(-7.82651e-07 2.46261e-08 0)
(-7.87505e-07 1.85056e-08 0)
(-7.90979e-07 1.23527e-08 0)
(-7.93065e-07 6.17806e-09 0)
(-7.93759e-07 -7.35165e-12 0)
(-7.93061e-07 -6.19273e-09 0)
(-7.90972e-07 -1.23672e-08 0)
(-7.87496e-07 -1.852e-08 0)
(-7.82638e-07 -2.46403e-08 0)
(-7.76406e-07 -3.07174e-08 0)
(-7.68813e-07 -3.67406e-08 0)
(-7.59872e-07 -4.26994e-08 0)
(-7.49597e-07 -4.85833e-08 0)
(-7.38007e-07 -5.43819e-08 0)
(-7.25123e-07 -6.00852e-08 0)
(-7.10967e-07 -6.56831e-08 0)
(-6.95563e-07 -7.11658e-08 0)
(-6.78939e-07 -7.65236e-08 0)
(-6.61124e-07 -8.17472e-08 0)
(-6.4215e-07 -8.68273e-08 0)
(-6.22049e-07 -9.17552e-08 0)
(-6.00857e-07 -9.65221e-08 0)
(-5.7861e-07 -1.0112e-07 0)
(-5.55349e-07 -1.0554e-07 0)
(-5.31114e-07 -1.09775e-07 0)
(-5.05946e-07 -1.13817e-07 0)
(-4.79892e-07 -1.1766e-07 0)
(-4.52995e-07 -1.21297e-07 0)
(-4.25304e-07 -1.24721e-07 0)
(-3.96866e-07 -1.27925e-07 0)
(-3.67733e-07 -1.30906e-07 0)
(-3.37954e-07 -1.33657e-07 0)
(-3.07582e-07 -1.36173e-07 0)
(-2.76671e-07 -1.38451e-07 0)
(-2.45274e-07 -1.40485e-07 0)
(-2.13448e-07 -1.42273e-07 0)
(-1.81246e-07 -1.43812e-07 0)
(-1.48727e-07 -1.45098e-07 0)
(-1.15947e-07 -1.4613e-07 0)
(-8.29633e-08 -1.46905e-07 0)
(-4.98342e-08 -1.47423e-07 0)
(-1.66176e-08 -1.47682e-07 0)
(1.66281e-08 -1.47681e-07 0)
(4.98447e-08 -1.47422e-07 0)
(8.29739e-08 -1.46905e-07 0)
(1.15957e-07 -1.46129e-07 0)
(1.48738e-07 -1.45098e-07 0)
(1.81257e-07 -1.43811e-07 0)
(2.13458e-07 -1.42273e-07 0)
(2.45285e-07 -1.40485e-07 0)
(2.76682e-07 -1.3845e-07 0)
(3.07593e-07 -1.36173e-07 0)
(3.37965e-07 -1.33657e-07 0)
(3.67744e-07 -1.30906e-07 0)
(3.96877e-07 -1.27925e-07 0)
(4.25315e-07 -1.24721e-07 0)
(4.53006e-07 -1.21297e-07 0)
(4.79903e-07 -1.17661e-07 0)
(5.05958e-07 -1.13818e-07 0)
(5.31125e-07 -1.09775e-07 0)
(5.55361e-07 -1.0554e-07 0)
(5.78622e-07 -1.0112e-07 0)
(6.00868e-07 -9.65227e-08 0)
(6.22061e-07 -9.17558e-08 0)
(6.42162e-07 -8.6828e-08 0)
(6.61137e-07 -8.17478e-08 0)
(6.78952e-07 -7.65242e-08 0)
(6.95575e-07 -7.11663e-08 0)
(7.10979e-07 -6.56836e-08 0)
(7.25136e-07 -6.00857e-08 0)
(7.3802e-07 -5.43824e-08 0)
(7.4961e-07 -4.85838e-08 0)
(7.59885e-07 -4.27e-08 0)
(7.68827e-07 -3.67412e-08 0)
(7.7642e-07 -3.07181e-08 0)
(7.82651e-07 -2.46411e-08 0)
(7.87509e-07 -1.85209e-08 0)
(7.90986e-07 -1.23682e-08 0)
(7.93076e-07 -6.19375e-09 0)
(7.93774e-07 -8.45397e-12 0)
(7.93079e-07 6.17688e-09 0)
(7.90994e-07 1.23514e-08 0)
(7.87521e-07 1.85043e-08 0)
(7.82666e-07 2.46247e-08 0)
(7.76439e-07 3.07019e-08 0)
(7.68849e-07 3.67253e-08 0)
(7.59911e-07 4.26842e-08 0)
(7.4964e-07 4.85682e-08 0)
(7.38053e-07 5.4367e-08 0)
(7.25172e-07 6.00704e-08 0)
(7.11019e-07 6.56685e-08 0)
(6.95619e-07 7.11513e-08 0)
(6.78999e-07 7.65093e-08 0)
(6.61187e-07 8.17331e-08 0)
(6.42216e-07 8.68135e-08 0)
(6.22118e-07 9.17417e-08 0)
(6.00928e-07 9.65089e-08 0)
(5.78685e-07 1.01107e-07 0)
(5.55427e-07 1.05527e-07 0)
(5.31194e-07 1.09763e-07 0)
(5.06029e-07 1.13806e-07 0)
(4.79977e-07 1.17649e-07 0)
(4.53082e-07 1.21286e-07 0)
(4.25393e-07 1.2471e-07 0)
(3.96958e-07 1.27915e-07 0)
(3.67826e-07 1.30896e-07 0)
(3.3805e-07 1.33648e-07 0)
(3.0768e-07 1.36165e-07 0)
(2.7677e-07 1.38444e-07 0)
(2.45375e-07 1.4048e-07 0)
(2.13549e-07 1.42271e-07 0)
(1.81348e-07 1.43815e-07 0)
(1.48827e-07 1.45111e-07 0)
(1.16043e-07 1.46161e-07 0)
(8.30493e-08 1.46968e-07 0)
(4.99009e-08 1.4754e-07 0)
(1.66475e-08 1.47883e-07 0)
(-1.67841e-08 1.81381e-07 0)
(-5.03127e-08 1.80952e-07 0)
(-8.37406e-08 1.8024e-07 0)
(-1.17016e-07 1.79239e-07 0)
(-1.50085e-07 1.77943e-07 0)
(-1.82889e-07 1.76346e-07 0)
(-2.15372e-07 1.74447e-07 0)
(-2.47477e-07 1.72246e-07 0)
(-2.79147e-07 1.69745e-07 0)
(-3.10329e-07 1.66948e-07 0)
(-3.40965e-07 1.63859e-07 0)
(-3.71004e-07 1.60484e-07 0)
(-4.00391e-07 1.56827e-07 0)
(-4.29076e-07 1.52896e-07 0)
(-4.57008e-07 1.48696e-07 0)
(-4.84138e-07 1.44237e-07 0)
(-5.10419e-07 1.39524e-07 0)
(-5.35805e-07 1.34567e-07 0)
(-5.6025e-07 1.29374e-07 0)
(-5.83713e-07 1.23954e-07 0)
(-6.06151e-07 1.18317e-07 0)
(-6.27526e-07 1.12472e-07 0)
(-6.478e-07 1.0643e-07 0)
(-6.66938e-07 1.00202e-07 0)
(-6.84906e-07 9.37975e-08 0)
(-7.01672e-07 8.72287e-08 0)
(-7.17207e-07 8.0507e-08 0)
(-7.31484e-07 7.3644e-08 0)
(-7.44478e-07 6.66518e-08 0)
(-7.56166e-07 5.95428e-08 0)
(-7.66528e-07 5.23293e-08 0)
(-7.75544e-07 4.5024e-08 0)
(-7.832e-07 3.76397e-08 0)
(-7.89483e-07 3.01895e-08 0)
(-7.9438e-07 2.26863e-08 0)
(-7.97883e-07 1.51434e-08 0)
(-7.99987e-07 7.57387e-09 0)
(-8.00688e-07 -8.88781e-12 0)
(-7.99984e-07 -7.59163e-09 0)
(-7.97877e-07 -1.5161e-08 0)
(-7.9437e-07 -2.27039e-08 0)
(-7.89469e-07 -3.02069e-08 0)
(-7.83184e-07 -3.76569e-08 0)
(-7.75525e-07 -4.50408e-08 0)
(-7.66505e-07 -5.23458e-08 0)
(-7.5614e-07 -5.95589e-08 0)
(-7.44449e-07 -6.66676e-08 0)
(-7.31453e-07 -7.36593e-08 0)
(-7.17173e-07 -8.05219e-08 0)
(-7.01635e-07 -8.72431e-08 0)
(-6.84866e-07 -9.38113e-08 0)
(-6.66896e-07 -1.00215e-07 0)
(-6.47755e-07 -1.06443e-07 0)
(-6.27479e-07 -1.12484e-07 0)
(-6.06102e-07 -1.18328e-07 0)
(-5.83661e-07 -1.23964e-07 0)
(-5.60197e-07 -1.29383e-07 0)
(-5.3575e-07 -1.34575e-07 0)
(-5.10363e-07 -1.3953e-07 0)
(-4.84081e-07 -1.44241e-07 0)
(-4.56949e-07 -1.48699e-07 0)
(-4.29016e-07 -1.52896e-07 0)
(-4.00331e-07 -1.56825e-07 0)
(-3.70943e-07 -1.60479e-07 0)
(-3.40904e-07 -1.63851e-07 0)
(-3.10267e-07 -1.66936e-07 0)
(-2.79086e-07 -1.69728e-07 0)
(-2.47416e-07 -1.72222e-07 0)
(-2.15311e-07 -1.74414e-07 0)
(-1.82828e-07 -1.763e-07 0)
(-1.50025e-07 -1.77877e-07 0)
(-1.16959e-07 -1.79142e-07 0)
(-8.36875e-08 -1.80092e-07 0)
(-5.02692e-08 -1.80727e-07 0)
(-1.67627e-08 -1.81045e-07 0)
(1.67733e-08 -1.81045e-07 0)
(5.02798e-08 -1.80727e-07 0)
(8.36981e-08 -1.80092e-07 0)
(1.1697e-07 -1.79142e-07 0)
(1.50036e-07 -1.77877e-07 0)
(1.82839e-07 -1.763e-07 0)
(2.15322e-07 -1.74414e-07 0)
(2.47426e-07 -1.72222e-07 0)
(2.79097e-07 -1.69728e-07 0)
(3.10278e-07 -1.66936e-07 0)
(3.40915e-07 -1.63851e-07 0)
(3.70954e-07 -1.60479e-07 0)
(4.00342e-07 -1.56826e-07 0)
(4.29027e-07 -1.52897e-07 0)
(4.5696e-07 -1.487e-07 0)
(4.84092e-07 -1.44242e-07 0)
(5.10374e-07 -1.39531e-07 0)
(5.35761e-07 -1.34575e-07 0)
(5.60208e-07 -1.29383e-07 0)
(5.83673e-07 -1.23965e-07 0)
(6.06113e-07 -1.18328e-07 0)
(6.27491e-07 -1.12485e-07 0)
(6.47767e-07 -1.06443e-07 0)
(6.66908e-07 -1.00216e-07 0)
(6.84878e-07 -9.38119e-08 0)
(7.01647e-07 -8.72437e-08 0)
(7.17185e-07 -8.05224e-08 0)
(7.31465e-07 -7.36599e-08 0)
(7.44462e-07 -6.66682e-08 0)
(7.56153e-07 -5.95596e-08 0)
(7.66518e-07 -5.23465e-08 0)
(7.75538e-07 -4.50416e-08 0)
(7.83197e-07 -3.76577e-08 0)
(7.89483e-07 -3.02078e-08 0)
(7.94383e-07 -2.27049e-08 0)
(7.97891e-07 -1.51621e-08 0)
(7.99998e-07 -7.59276e-09 0)
(8.00702e-07 -1.00975e-11 0)
(8.00002e-07 7.57259e-09 0)
(7.97898e-07 1.5142e-08 0)
(7.94395e-07 2.26848e-08 0)
(7.89498e-07 3.01879e-08 0)
(7.83216e-07 3.7638e-08 0)
(7.7556e-07 4.5022e-08 0)
(7.66544e-07 5.23271e-08 0)
(7.56183e-07 5.95404e-08 0)
(7.44496e-07 6.66492e-08 0)
(7.31502e-07 7.36411e-08 0)
(7.17226e-07 8.05039e-08 0)
(7.01691e-07 8.72254e-08 0)
(6.84925e-07 9.37938e-08 0)
(6.66958e-07 1.00198e-07 0)
(6.47821e-07 1.06426e-07 0)
(6.27548e-07 1.12467e-07 0)
(6.06174e-07 1.18312e-07 0)
(5.83736e-07 1.23948e-07 0)
(5.60275e-07 1.29367e-07 0)
(5.3583e-07 1.3456e-07 0)
(5.10446e-07 1.39516e-07 0)
(4.84166e-07 1.44227e-07 0)
(4.57037e-07 1.48686e-07 0)
(4.29106e-07 1.52884e-07 0)
(4.00423e-07 1.56813e-07 0)
(3.71037e-07 1.60468e-07 0)
(3.41e-07 1.63841e-07 0)
(3.10366e-07 1.66927e-07 0)
(2.79186e-07 1.6972e-07 0)
(2.47517e-07 1.72216e-07 0)
(2.15413e-07 1.74412e-07 0)
(1.82931e-07 1.76305e-07 0)
(1.50126e-07 1.77893e-07 0)
(1.17055e-07 1.7918e-07 0)
(8.37741e-08 1.8017e-07 0)
(5.03364e-08 1.80871e-07 0)
(1.67928e-08 1.81291e-07 0)
(-1.69607e-08 2.15094e-07 0)
(-5.08413e-08 2.14591e-07 0)
(-8.4618e-08 2.13752e-07 0)
(-1.18239e-07 2.1257e-07 0)
(-1.5165e-07 2.11037e-07 0)
(-1.84793e-07 2.09146e-07 0)
(-2.17613e-07 2.06895e-07 0)
(-2.5005e-07 2.04286e-07 0)
(-2.82049e-07 2.01321e-07 0)
(-3.13553e-07 1.98005e-07 0)
(-3.44506e-07 1.94342e-07 0)
(-3.74856e-07 1.90339e-07 0)
(-4.04548e-07 1.86002e-07 0)
(-4.3353e-07 1.8134e-07 0)
(-4.61752e-07 1.76359e-07 0)
(-4.89164e-07 1.7107e-07 0)
(-5.15717e-07 1.65481e-07 0)
(-5.41366e-07 1.59602e-07 0)
(-5.66065e-07 1.53443e-07 0)
(-5.8977e-07 1.47014e-07 0)
(-6.12442e-07 1.40328e-07 0)
(-6.34038e-07 1.33396e-07 0)
(-6.54523e-07 1.2623e-07 0)
(-6.73859e-07 1.18843e-07 0)
(-6.92013e-07 1.11247e-07 0)
(-7.08953e-07 1.03457e-07 0)
(-7.2465e-07 9.54843e-08 0)
(-7.39075e-07 8.73446e-08 0)
(-7.52204e-07 7.90516e-08 0)
(-7.64013e-07 7.062e-08 0)
(-7.74482e-07 6.20646e-08 0)
(-7.83592e-07 5.34003e-08 0)
(-7.91328e-07 4.46423e-08 0)
(-7.97675e-07 3.58061e-08 0)
(-8.02623e-07 2.6907e-08 0)
(-8.06163e-07 1.79608e-08 0)
(-8.08289e-07 8.98307e-09 0)
(-8.08997e-07 -1.04053e-11 0)
(-8.08285e-07 -9.00386e-09 0)
(-8.06156e-07 -1.79815e-08 0)
(-8.02613e-07 -2.69276e-08 0)
(-7.97662e-07 -3.58265e-08 0)
(-7.91311e-07 -4.46626e-08 0)
(-7.83572e-07 -5.34203e-08 0)
(-7.74459e-07 -6.20843e-08 0)
(-7.63987e-07 -7.06394e-08 0)
(-7.52175e-07 -7.90706e-08 0)
(-7.39043e-07 -8.73631e-08 0)
(-7.24615e-07 -9.55023e-08 0)
(-7.08916e-07 -1.03474e-07 0)
(-6.91973e-07 -1.11264e-07 0)
(-6.73816e-07 -1.18859e-07 0)
(-6.54477e-07 -1.26246e-07 0)
(-6.3399e-07 -1.33411e-07 0)
(-6.12391e-07 -1.40342e-07 0)
(-5.89718e-07 -1.47027e-07 0)
(-5.6601e-07 -1.53453e-07 0)
(-5.41309e-07 -1.59611e-07 0)
(-5.15659e-07 -1.65489e-07 0)
(-4.89104e-07 -1.71076e-07 0)
(-4.61691e-07 -1.76363e-07 0)
(-4.33468e-07 -1.81341e-07 0)
(-4.04485e-07 -1.86001e-07 0)
(-3.74792e-07 -1.90335e-07 0)
(-3.44442e-07 -1.94334e-07 0)
(-3.13487e-07 -1.97993e-07 0)
(-2.81982e-07 -2.01304e-07 0)
(-2.49983e-07 -2.04262e-07 0)
(-2.17545e-07 -2.06862e-07 0)
(-1.84726e-07 -2.09099e-07 0)
(-1.51582e-07 -2.1097e-07 0)
(-1.18173e-07 -2.1247e-07 0)
(-8.45559e-08 -2.13597e-07 0)
(-5.07908e-08 -2.1435e-07 0)
(-1.69367e-08 -2.14726e-07 0)
(1.69473e-08 -2.14726e-07 0)
(5.08014e-08 -2.1435e-07 0)
(8.45665e-08 -2.13597e-07 0)
(1.18183e-07 -2.1247e-07 0)
(1.51593e-07 -2.1097e-07 0)
(1.84736e-07 -2.09099e-07 0)
(2.17556e-07 -2.06862e-07 0)
(2.49994e-07 -2.04263e-07 0)
(2.81993e-07 -2.01304e-07 0)
(3.13498e-07 -1.97993e-07 0)
(3.44452e-07 -1.94335e-07 0)
(3.74803e-07 -1.90335e-07 0)
(4.04496e-07 -1.86002e-07 0)
(4.33479e-07 -1.81342e-07 0)
(4.61702e-07 -1.76364e-07 0)
(4.89115e-07 -1.71077e-07 0)
(5.1567e-07 -1.6549e-07 0)
(5.41321e-07 -1.59612e-07 0)
(5.66021e-07 -1.53454e-07 0)
(5.89729e-07 -1.47027e-07 0)
(6.12403e-07 -1.40342e-07 0)
(6.34002e-07 -1.33411e-07 0)
(6.54489e-07 -1.26246e-07 0)
(6.73828e-07 -1.1886e-07 0)
(6.91985e-07 -1.11265e-07 0)
(7.08928e-07 -1.03475e-07 0)
(7.24627e-07 -9.5503e-08 0)
(7.39056e-07 -8.73638e-08 0)
(7.52187e-07 -7.90714e-08 0)
(7.64e-07 -7.06403e-08 0)
(7.74472e-07 -6.20852e-08 0)
(7.83585e-07 -5.34213e-08 0)
(7.91324e-07 -4.46637e-08 0)
(7.97675e-07 -3.58277e-08 0)