/*--------------------------------*- C++ -*----------------------------------*\
| =========                 |                                                 |
| \\      /  F ield         | OpenFOAM: The Open Source CFD Toolbox           |
|  \\    /   O peration     | Version:  2306                                  |
|   \\  /    A nd           | Website:  www.openfoam.com                      |
|    \\/     M anipulation  |                                                 |
\*---------------------------------------------------------------------------*/
FoamFile
{
    version     2.0;
    format      ascii;
    arch        "LSB;label=32;scalar=64";
    class       volVectorField;
    location    "0.58";
    object      U_0;
}
// * * * * * * * * * * * * * * * * * * * * * * * * * * * * * * * * * * * * * //

dimensions      [0 1 -1 0 0 0 0];

internalField   nonuniform List<vector> 
51200
(
(4.2122964e-05 -2.624871e-05 -1.0917497e-19)
(0.00010096496 -3.3594128e-05 -4.778491e-21)
(0.0001675191 -3.3398164e-05 2.5528089e-20)
(0.00023176019 -3.3741511e-05 -1.3495746e-20)
(0.00029727384 -3.3822348e-05 -3.7707702e-20)
(0.00036191257 -3.3609026e-05 1.4467524e-20)
(0.0004256277 -3.3347917e-05 1.2890679e-20)
(0.00048843218 -3.304228e-05 -2.2193988e-20)
(0.00055027364 -3.269428e-05 -1.539843e-20)
(0.00061107192 -3.2306912e-05 5.7566847e-20)
(0.00067073569 -3.1881274e-05 5.8631711e-20)
(0.00072916742 -3.1418168e-05 -3.3472101e-20)
(0.00078626708 -3.091868e-05 2.3337576e-20)
(0.00084193597 -3.038408e-05 6.4285107e-20)
(0.00089607873 -2.9815739e-05 2.8968014e-20)
(0.0009486042 -2.9215091e-05 1.2172201e-20)
(0.00099942602 -2.8583622e-05 -2.2204382e-20)
(0.0010484631 -2.7922831e-05 1.3882062e-20)
(0.0010956398 -2.7234143e-05 2.6134175e-20)
(0.0011408862 -2.6518861e-05 -1.3741568e-20)
(0.0011841385 -2.5778128e-05 1.6486548e-20)
(0.0012253383 -2.5012741e-05 2.6005552e-20)
(0.0012644337 -2.4223001e-05 -2.0956994e-20)
(0.0013013783 -2.3408393e-05 -9.2203583e-20)
(0.0013361319 -2.2567159e-05 -1.8328663e-19)
(0.0013686603 -2.1695799e-05 1.4946484e-20)
(0.0013989397 -2.0789083e-05 2.6896358e-19)
(0.0014269771 -1.9846238e-05 4.5315368e-20)
(0.0014527765 -1.8909318e-05 -1.4340969e-19)
(0.0014763024 -1.8014734e-05 -8.9895292e-20)
(0.0014975289 -1.7157052e-05 -6.8344182e-20)
(0.0015164611 -1.6326911e-05 -3.5160348e-20)
(0.0015331142 -1.5518115e-05 -9.5037533e-20)
(0.0015475083 -1.4726886e-05 1.3783932e-19)
(0.0015596677 -1.3951203e-05 2.4699897e-19)
(0.0015696213 -1.3190149e-05 -1.7099859e-19)
(0.0015774026 -1.2443262e-05 -1.020245e-19)
(0.0015830497 -1.1710629e-05 2.7212227e-19)
(0.0015866058 -1.0992497e-05 -1.2027029e-19)
(0.0015881183 -1.0289111e-05 -4.7760077e-19)
(0.0015876383 -9.6009722e-06 -8.3307985e-20)
(0.0015852215 -8.9286174e-06 3.0031987e-19)
(0.0015809265 -8.2726011e-06 4.763505e-19)
(0.0015748159 -7.6340818e-06 3.8485426e-19)
(0.0015669553 -7.0142296e-06 -2.4045462e-19)
(0.0015574128 -6.4151012e-06 -8.5742061e-19)
(0.0015462597 -5.8392921e-06 -1.4375362e-19)
(0.0015335702 -5.2883813e-06 3.0768821e-19)
(0.0015194209 -4.7633802e-06 2.7718762e-19)
(0.0015038899 -4.265692e-06 4.9244475e-19)
(0.0014870578 -3.7979338e-06 -3.1100743e-19)
(0.0014690062 -3.3648695e-06 -2.4663803e-19)
(0.0014498194 -2.9725048e-06 1.478318e-19)
(0.0014295631 -2.6194914e-06 -2.3093907e-19)
(0.0014083029 -2.3026881e-06 2.6500356e-19)
(0.0013861114 -1.9661296e-06 2.2181397e-19)
(0.001363036 -1.6239241e-06 -3.9366353e-19)
(0.0013391779 -1.2125138e-06 -1.0326021e-19)
(0.0013146799 -7.5766436e-07 9.2938428e-20)
(0.0012896153 -3.1884047e-07 -5.5733192e-20)
(0.001264031 9.1114995e-08 1.8388013e-20)
(0.0012379923 4.7082137e-07 7.2940157e-20)
(0.0012115687 8.2123899e-07 -5.5830411e-21)
(0.0011848293 1.144664e-06 -1.0820814e-19)
(0.0011578402 1.4428594e-06 9.5959678e-22)
(0.0011306662 1.7173287e-06 1.2767188e-19)
(0.0011033692 1.9694855e-06 -1.0403957e-19)
(0.0010760081 2.2003313e-06 -1.4720117e-20)
(0.00104864 2.4106991e-06 1.5679758e-21)
(0.0010213184 2.6020127e-06 -3.6418041e-19)
(0.00099409359 2.7746585e-06 6.8365842e-20)
(0.00096701449 2.9293986e-06 3.3698786e-19)
(0.00094012636 3.0673989e-06 1.2949662e-20)
(0.00091347109 3.1895082e-06 -7.0039774e-20)
(0.00088708749 3.2963623e-06 -6.2266958e-20)
(0.0008610124 3.3884168e-06 2.1029745e-19)
(0.00083527918 3.4671795e-06 1.5310539e-19)
(0.00080991791 3.5327925e-06 -2.2031882e-19)
(0.00078495678 3.5862625e-06 -2.2449061e-19)
(0.00076042073 3.6284267e-06 2.8255373e-20)
(0.00073633185 3.6599955e-06 1.4559017e-19)
(0.00071270932 3.6817335e-06 -2.6551552e-20)
(0.00068957006 3.6941936e-06 -8.7268374e-20)
(0.00066692882 3.698121e-06 -2.8321422e-20)
(0.00064479778 3.6943115e-06 -3.8143569e-20)
(0.00062318662 3.6833869e-06 5.9135754e-20)
(0.0006021031 3.6658568e-06 8.3107917e-20)
(0.00058155296 3.6424697e-06 5.6669621e-20)
(0.00056153977 3.61372e-06 -2.8401462e-20)
(0.00054206562 3.5801273e-06 -1.5163572e-19)
(0.00052313089 3.5422805e-06 -2.5983829e-20)
(0.00050473413 3.5006993e-06 2.6320787e-20)
(0.00048687245 3.4557994e-06 -2.7306475e-21)
(0.00046954188 3.4079868e-06 1.7479207e-20)
(0.0004527372 3.3577792e-06 7.3881567e-21)
(0.00043645188 3.3055604e-06 1.2144262e-20)
(0.00042067831 3.2516987e-06 8.0141955e-20)
(0.00040540813 3.1964945e-06 6.7701335e-20)
(0.0003906322 3.1403162e-06 -9.1076065e-20)
(0.00037634056 3.0834367e-06 -8.7720389e-20)
(0.0003625226 3.0261244e-06 1.0326447e-20)
(0.00034916729 2.9686247e-06 5.1461406e-20)
(0.00033626314 2.9111768e-06 5.9647977e-20)
(0.00032379823 2.8539772e-06 -2.8391e-20)
(0.00031176036 2.7972044e-06 -4.7976114e-20)
(0.00030013712 2.7410246e-06 -2.6992096e-20)
(0.00028891594 2.6855945e-06 3.4743626e-20)
(0.00027808413 2.6310358e-06 7.827035e-20)
(0.00026762895 2.5774635e-06 2.1409723e-20)
(0.00025753768 2.5249817e-06 2.2827921e-20)
(0.00024779765 2.4736684e-06 -4.7931461e-20)
(0.00023839626 2.423602e-06 -8.8385022e-20)
(0.00022932107 2.3748439e-06 4.1177907e-20)
(0.00022055976 2.3274357e-06 4.6326902e-20)
(0.00021210023 2.2814082e-06 -1.0274982e-20)
(0.00020393061 2.2367923e-06 -1.927803e-20)
(0.00019603925 2.1935977e-06 -8.6244813e-21)
(0.00018841481 2.1518291e-06 4.7331902e-20)
(0.0001810462 2.1114852e-06 -1.4359398e-20)
(0.00017392263 2.0725684e-06 -5.5493187e-20)
(0.00016703359 2.0350612e-06 -1.275909e-21)
(0.00016036893 1.9989454e-06 4.2954431e-20)
(0.00015391878 1.9642093e-06 3.1637831e-20)
(0.00014767356 1.9308496e-06 -4.9326262e-20)
(0.00014162397 1.8988547e-06 -4.9232965e-20)
(0.00013576103 1.8681959e-06 9.2828423e-21)
(0.00013007608 1.8388493e-06 5.3369103e-20)
(0.0001245608 1.8107711e-06 4.0866511e-20)
(0.00011920715 1.7839481e-06 -9.1697385e-21)
(0.00011400741 1.7583285e-06 -1.1302736e-20)
(0.00010895414 1.7338902e-06 -1.4599848e-20)
(0.00010404018 1.7105903e-06 2.1774708e-20)
(9.9258715e-05 1.6883731e-06 6.1058747e-20)
(9.4603185e-05 1.6671806e-06 1.5251124e-20)
(9.0067325e-05 1.6469748e-06 -2.5274333e-20)
(8.5645059e-05 1.627773e-06 -3.2839104e-20)
(8.1330457e-05 1.6095786e-06 -1.0761644e-20)
(7.7117767e-05 1.5924265e-06 8.4040973e-21)
(7.3001587e-05 1.5761374e-06 7.0647868e-21)
(6.8976895e-05 1.5606584e-06 4.8749209e-21)
(6.5038902e-05 1.545944e-06 -9.4562502e-21)
(6.1182949e-05 1.5320462e-06 6.2916973e-22)
(5.7404523e-05 1.5189341e-06 1.2240435e-20)
(5.3699288e-05 1.5065968e-06 -1.0074039e-20)
(5.0063041e-05 1.4949932e-06 -1.7431049e-20)
(4.6491714e-05 1.4841264e-06 -8.7538917e-21)
(4.2981308e-05 1.4740074e-06 1.2323519e-20)
(3.9527969e-05 1.4645017e-06 2.1867319e-20)
(3.6127764e-05 1.4558811e-06 -6.0005509e-21)
(3.2776558e-05 1.448072e-06 -1.0221627e-20)
(2.9469978e-05 1.4411987e-06 -3.651902e-22)
(2.6202958e-05 1.4355259e-06 7.7947377e-21)
(2.2969249e-05 1.4316039e-06 7.938029e-21)
(1.9760853e-05 1.4302928e-06 1.1417862e-21)
(1.6567667e-05 1.4327942e-06 2.4725519e-21)
(1.3378606e-05 1.4400572e-06 -6.1519836e-24)
(1.0188001e-05 1.4493812e-06 -8.6303229e-22)
(7.0167258e-06 1.4478394e-06 3.0552685e-21)
(3.9349297e-06 1.3996095e-06 3.7085421e-21)
(1.175187e-06 1.3053207e-06 4.143178e-21)
(8.7457698e-05 -0.00023101577 -1.101077e-19)
(0.00019760525 -0.00023625461 -2.0442335e-20)
(0.00032163737 -0.00023521899 -3.9505543e-20)
(0.0004411437 -0.00023436418 -1.0652759e-19)
(0.0005622829 -0.00023277868 -7.9417293e-20)
(0.00068173137 -0.00023072004 1.7753937e-20)
(0.00079938968 -0.00022850689 -3.8920434e-20)
(0.00091527851 -0.00022614902 1.0468363e-20)
(0.0010292735 -0.00022361392 4.5819589e-20)
(0.0011411919 -0.000220874 3.2258116e-20)
(0.001250833 -0.00021791096 5.118939e-20)
(0.0013579886 -0.00021471575 4.8475487e-20)
(0.0014624497 -0.00021128654 5.4165329e-20)
(0.0015640124 -0.00020762631 -7.5146272e-20)
(0.0016624816 -0.00020374122 5.8999065e-21)
(0.0017576726 -0.00019963946 2.0315877e-20)
(0.001849412 -0.00019533071 -8.7236425e-20)
(0.0019375385 -0.0001908257 9.1980163e-21)
(0.0020219034 -0.00018613587 1.0693498e-19)
(0.0021023709 -0.00018127305 8.2243306e-20)
(0.0021788186 -0.00017624955 4.5313646e-20)
(0.0022511377 -0.00017107761 5.2957152e-20)
(0.002319233 -0.00016576943 2.6389801e-21)
(0.0023830235 -0.0001603369 -1.1952455e-19)
(0.0024424425 -0.00015479131 -2.6019297e-19)
(0.0024974381 -0.00014914279 -8.9718063e-21)
(0.0025479694 -0.00014340048 2.2129285e-19)
(0.0025939872 -0.00013757734 6.7701593e-20)
(0.0026354595 -0.00013171639 5.8700672e-20)
(0.0026724054 -0.00012585888 -1.5598561e-19)
(0.0027048564 -0.0001200153 -3.6323729e-19)
(0.0027328378 -0.00011419022 -2.8694509e-20)
(0.0027563843 -0.00010839093 1.1845967e-19)
(0.0027755435 -0.00010262559 1.7480056e-19)
(0.0027903742 -9.6903965e-05 7.227693e-20)
(0.0028009474 -9.1236514e-05 -1.0348656e-19)
(0.0028073446 -8.5633403e-05 1.6332459e-19)
(0.002809657 -8.010548e-05 2.5856122e-19)
(0.0028079863 -7.4663016e-05 -5.9249481e-19)
(0.0028024425 -6.9315407e-05 -6.6807267e-19)
(0.0027931434 -6.4072137e-05 7.4241289e-19)
(0.0027802147 -5.894208e-05 4.7360601e-19)
(0.0027637881 -5.3933097e-05 -4.1001457e-19)
(0.0027440019 -4.905354e-05 -4.0392059e-19)
(0.0027210002 -4.430899e-05 -1.4663566e-19)
(0.0026949312 -3.9704812e-05 8.1375136e-19)
(0.0026659503 -3.5245792e-05 6.234064e-19)
(0.0026342182 -3.093709e-05 -6.0566407e-19)
(0.0025998968 -2.6783479e-05 -4.5250702e-19)
(0.0025631487 -2.2789284e-05 3.361064e-19)
(0.0025241368 -1.8958876e-05 4.3770105e-19)
(0.0024830252 -1.5295812e-05 -2.8122235e-19)
(0.0024399896 -1.1796293e-05 -5.5117141e-19)
(0.0023951904 -8.3851705e-06 -4.9585705e-20)
(0.0023488294 -5.1540248e-06 2.8353302e-19)
(0.0023010388 -2.1521167e-06 3.8864767e-19)
(0.002251954 6.7749962e-07 -6.1055745e-20)
(0.0022017485 3.3839502e-06 -6.990037e-19)
(0.002150524 5.9533993e-06 -2.3670055e-19)
(0.0020984402 8.3579479e-06 6.1805689e-19)
(0.0020456764 1.0594262e-05 2.2212897e-19)
(0.0019923826 1.2665473e-05 -5.1395263e-19)
(0.0019386983 1.4573066e-05 -2.663003e-19)
(0.0018847568 1.632289e-05 3.4224494e-19)
(0.0018306843 1.7919058e-05 9.3375315e-20)
(0.001776603 1.9366098e-05 -1.7211686e-19)
(0.0017226301 2.0669404e-05 2.8392659e-20)
(0.0016688751 2.1833703e-05 -1.6678785e-19)
(0.0016154432 2.2863489e-05 -1.4184242e-19)
(0.0015624323 2.3766638e-05 -8.2893901e-21)
(0.0015099332 2.4546543e-05 -7.0116376e-20)
(0.0014580338 2.5208436e-05 1.3739616e-19)
(0.0014068145 2.575965e-05 2.3694443e-19)
(0.0013563477 2.6205808e-05 5.7043728e-20)
(0.0013066996 2.6552311e-05 -2.1527534e-19)
(0.001257933 2.680413e-05 6.334345e-20)
(0.0012101028 2.6970164e-05 3.4690158e-19)
(0.0011632574 2.7052734e-05 -1.3553753e-19)
(0.0011174409 2.7058193e-05 -2.4892339e-19)
(0.0010726913 2.6993504e-05 4.3044258e-20)
(0.0010290412 2.6863916e-05 5.5055145e-21)
(0.00098651744 2.6674965e-05 -6.5028433e-20)
(0.0009451418 2.6431151e-05 -1.6769736e-19)
(0.00090493226 2.6137515e-05 -1.7955812e-19)
(0.00086590164 2.5799477e-05 -1.5343472e-20)
(0.00082805817 2.5421815e-05 1.0496571e-19)
(0.00079140666 2.5008724e-05 2.5340757e-19)
(0.00075594784 2.456486e-05 2.7583776e-19)
(0.00072167789 2.4093611e-05 -3.41682e-20)
(0.00068859096 2.3599545e-05 -4.4834923e-19)
(0.00065667853 2.3086197e-05 -2.9687269e-19)
(0.00062592817 2.255716e-05 1.9647866e-19)
(0.00059632471 2.2015386e-05 1.0550578e-19)
(0.00056785146 2.146373e-05 -1.619074e-19)
(0.00054048968 2.0905268e-05 9.3466297e-21)
(0.00051421816 2.0342651e-05 1.2675381e-19)
(0.0004890141 1.9778618e-05 1.8934159e-19)
(0.00046485353 1.9214634e-05 8.4436883e-20)
(0.0004417112 1.8653084e-05 -2.5552119e-19)
(0.00041956065 1.8095948e-05 -1.8009325e-19)
(0.00039837458 1.7544762e-05 6.2419995e-20)
(0.00037812505 1.700074e-05 1.7307624e-19)
(0.00035878359 1.6465421e-05 8.6664074e-20)
(0.00034032127 1.593995e-05 -1.3581279e-19)
(0.00032270891 1.5425292e-05 -6.6069501e-20)
(0.00030591722 1.4922308e-05 3.6045446e-20)
(0.0002899169 1.4431757e-05 1.1392299e-19)
(0.00027467873 1.3954232e-05 1.7946356e-19)
(0.00026017371 1.3490228e-05 1.7497593e-20)
(0.00024637312 1.3040159e-05 -6.2265985e-20)
(0.0002332486 1.2604276e-05 -8.1864386e-20)
(0.00022077226 1.2182849e-05 -1.2551593e-19)
(0.00020891665 1.1775993e-05 6.6716893e-20)
(0.00019765492 1.1383751e-05 1.7666555e-19)
(0.00018696082 1.1006105e-05 -7.8973769e-21)
(0.00017680872 1.0642982e-05 -1.8264701e-19)
(0.00016717372 1.0294229e-05 -6.7791778e-20)
(0.00015803163 9.9596734e-06 1.4962352e-19)
(0.00014935899 9.6391066e-06 1.7151894e-20)
(0.00014113302 9.3323022e-06 -1.9846562e-19)
(0.00013333174 9.038944e-06 -5.0136436e-20)
(0.00012593396 8.7587228e-06 2.2514206e-19)
(0.00011891924 8.4913462e-06 1.6783842e-19)
(0.00011226783 8.2365558e-06 -1.5766528e-19)
(0.00010596067 7.9940577e-06 -2.6733839e-19)
(9.9979471e-05 7.7634441e-06 -1.6649515e-22)
(9.4306726e-05 7.5443447e-06 2.252622e-19)
(8.8925625e-05 7.3363355e-06 1.1420206e-19)
(8.3820081e-05 7.1391107e-06 -4.4152559e-20)
(7.8974679e-05 6.9523007e-06 -8.1237753e-20)
(7.4374683e-05 6.7755188e-06 -4.6842249e-20)
(7.0005994e-05 6.6083842e-06 9.6606394e-20)
(6.5855163e-05 6.4505255e-06 1.4889993e-19)
(6.1909418e-05 6.3015781e-06 3.3752376e-20)
(5.8156661e-05 6.1612215e-06 -7.5283538e-20)
(5.4585233e-05 6.0292179e-06 -5.1163962e-20)
(5.1183885e-05 5.9054278e-06 3.4724824e-21)
(4.7941676e-05 5.7899652e-06 4.0952994e-21)
(4.4848344e-05 5.6816611e-06 1.9229587e-20)
(4.189449e-05 5.580254e-06 8.3435443e-21)
(3.90712e-05 5.4855569e-06 -2.7151715e-20)
(3.6369747e-05 5.3973675e-06 -2.4487111e-20)
(3.3781687e-05 5.3155159e-06 1.6458908e-20)
(3.1299059e-05 5.2398121e-06 -2.6029436e-21)
(2.8914161e-05 5.1700715e-06 -4.1986383e-20)
(2.6619599e-05 5.1061708e-06 -1.5270322e-20)
(2.4407957e-05 5.0480346e-06 4.4301428e-20)
(2.2272507e-05 4.9957259e-06 4.7167179e-20)
(2.0206128e-05 4.9494178e-06 -1.532592e-20)
(1.8201047e-05 4.9096215e-06 -3.8262066e-20)
(1.6249603e-05 4.8772905e-06 1.522529e-21)
(1.434312e-05 4.8540391e-06 3.4281776e-20)
(1.2471484e-05 4.8422806e-06 1.8644507e-20)
(1.0623079e-05 4.8450066e-06 -2.3076665e-21)
(8.7858555e-06 4.8642827e-06 -3.4139489e-21)
(6.9506988e-06 4.8959225e-06 8.2746421e-22)
(5.1212569e-06 4.9162659e-06 7.7717264e-21)
(3.3377213e-06 4.8552229e-06 1.2817808e-20)
(1.6635757e-06 4.5580922e-06 1.2529609e-20)
(4.1916885e-07 3.8709201e-06 1.3080323e-20)
(0.00010090794 -0.00052830946 1.1235471e-19)
(0.00022535156 -0.00052857497 1.0127622e-20)
(0.00036594046 -0.00052510907 -5.0760821e-20)
(0.0005009718 -0.0005207832 -1.1617527e-19)
(0.00063777033 -0.00051585282 -4.6274602e-20)
(0.00077257279 -0.00051064665 2.8139115e-20)
(0.00090525247 -0.00050525772 -7.8403602e-20)
(0.0010357895 -0.00049959701 1.2156956e-20)
(0.0011640035 -0.00049356143 -3.9727927e-22)
(0.0012896582 -0.00048707242 -8.9191081e-20)
(0.0014125047 -0.00048008098 4.8161021e-20)
(0.0015322894 -0.00047256285 4.2306715e-20)
(0.0016487606 -0.00046451198 1.4509358e-19)
(0.0017616739 -0.00045593459 -1.6384162e-20)
(0.001870796 -0.00044684514 -7.8153516e-20)
(0.0019759068 -0.00043726334 6.0874907e-20)
(0.0020768004 -0.00042721288 -1.712322e-20)
(0.0021732861 -0.00041672029 6.8470467e-20)
(0.002265189 -0.0004058141 1.0914048e-19)
(0.0023523507 -0.00039452429 -4.4606584e-20)
(0.0024346296 -0.00038288241 1.3054791e-20)
(0.0025119012 -0.00037092073 3.8860639e-20)
(0.0025840578 -0.00035867239 -1.2657084e-20)
(0.0026510095 -0.00034617153 -1.1180836e-19)
(0.0027126833 -0.00033345334 -1.6693759e-19)
(0.0027690237 -0.00032055359 -6.9810909e-20)
(0.0028199911 -0.00030750915 9.8335446e-21)
(0.0028655604 -0.00029435648 8.121931e-20)
(0.0029057274 -0.0002811151 7.6513207e-20)
(0.0029405092 -0.00026780587 6.0480768e-21)
(0.0029699358 -0.00025446668 -6.8367977e-20)
(0.0029940491 -0.00024113349 -1.8537139e-19)
(0.0030129062 -0.00022784148 -3.0227492e-20)
(0.0030265799 -0.00021462179 1.4067032e-19)
(0.003035157 -0.00020150529 2.9299007e-20)
(0.0030387387 -0.00018852107 4.1672266e-20)
(0.0030374385 -0.00017569678 1.4664198e-20)
(0.0030313818 -0.00016306003 -9.5723594e-20)
(0.003020706 -0.00015063612 -2.3217206e-19)
(0.0030055588 -0.00013844827 -2.0851932e-19)
(0.0029860968 -0.00012651891 1.5169956e-19)
(0.0029624867 -0.00011486909 2.1797228e-19)
(0.0029349014 -0.0001035176 6.6144053e-20)
(0.0029035232 -9.2482979e-05 -1.0522062e-20)
(0.0028685412 -8.1779497e-05 -4.0978031e-21)
(0.0028301478 -7.1420404e-05 6.424757e-20)
(0.0027885399 -6.1416804e-05 5.8523757e-20)
(0.0027439187 -5.1780493e-05 -6.0242027e-20)
(0.0026964881 -4.2520007e-05 9.7796516e-20)
(0.0026464548 -3.3641032e-05 2.8139663e-19)
(0.0025940282 -2.5142523e-05 -4.4702086e-20)
(0.002539423 -1.6997947e-05 -2.5589558e-19)
(0.0024829175 -9.2617965e-06 -5.0838392e-20)
(0.0024245949 -2.0346029e-06 1.4875184e-20)
(0.0023645218 4.7872719e-06 -5.6232595e-20)
(0.0023030436 1.1168178e-05 -7.2785872e-21)
(0.0022404233 1.7146289e-05 -5.1333404e-20)
(0.0021768233 2.2695716e-05 -1.7521097e-19)
(0.002112429 2.7831748e-05 -8.227829e-20)
(0.0020474148 3.2584073e-05 1.7489891e-20)
(0.0019819541 3.6962622e-05 3.625751e-20)
(0.0019162147 4.0978469e-05 -4.6752715e-20)
(0.0018503608 4.4634493e-05 -2.3829231e-19)
(0.0017845509 4.7942598e-05 9.2521405e-21)
(0.0017189329 5.0911764e-05 2.6871477e-19)
(0.0016536506 5.3551364e-05 1.1966317e-19)
(0.0015888401 5.5874012e-05 -1.8657615e-19)
(0.0015246268 5.7891651e-05 -3.8595328e-19)
(0.0014611322 5.9614502e-05 -5.4488555e-20)
(0.0013984666 6.1060886e-05 -4.7214963e-20)
(0.0013367306 6.2239478e-05 -1.5028488e-19)
(0.001276023 6.3161736e-05 2.5209712e-20)
(0.0012164318 6.3845299e-05 6.6880252e-20)
(0.0011580342 6.4304125e-05 1.8807556e-19)
(0.0011009018 6.4552673e-05 7.6724117e-20)
(0.0010451014 6.4599158e-05 2.7639322e-19)
(0.00099068566 6.4464075e-05 1.6384868e-19)
(0.00093770217 6.4157733e-05 -4.3138867e-19)
(0.0008861977 6.3690942e-05 -1.0767673e-19)
(0.00083620635 6.3080451e-05 3.1620208e-19)
(0.00078775619 6.2338929e-05 -3.8588318e-20)
(0.00074086805 6.1478524e-05 -3.737909e-19)
(0.0006955575 6.0509185e-05 -2.4845387e-19)
(0.00065183644 5.9443779e-05 -8.8726778e-20)
(0.00060971023 5.8293589e-05 -6.7804715e-20)
(0.00056917787 5.7069161e-05 3.7271547e-20)
(0.00053023469 5.578e-05 7.9014085e-20)
(0.00049287114 5.4437627e-05 2.2873518e-19)
(0.00045707351 5.3047559e-05 3.56365e-19)
(0.00042282535 5.1621149e-05 -1.7727072e-19)
(0.00039010626 5.016569e-05 -4.449664e-19)
(0.00035889198 4.8690071e-05 -3.7602993e-21)
(0.0003291552 4.7197961e-05 9.1467398e-20)
(0.00030086751 4.5698374e-05 -1.5207288e-19)
(0.00027399814 4.4196932e-05 3.453577e-20)
(0.00024851366 4.2698967e-05 2.9302524e-19)
(0.00022437811 4.1209595e-05 4.7775494e-20)
(0.00020155512 3.9733291e-05 -1.8118812e-19)
(0.00018000799 3.8274163e-05 -2.3982447e-19)
(0.00015969762 3.6835948e-05 -6.4282437e-20)
(0.00014058414 3.5421889e-05 2.4090492e-19)
(0.00012262803 3.4034861e-05 2.0252673e-19)
(0.00010578935 3.2677386e-05 -1.5402141e-20)
(9.0027397e-05 3.1351649e-05 -2.0687279e-19)
(7.5301752e-05 3.0059475e-05 -1.3589424e-21)
(6.1572161e-05 2.8802383e-05 2.420855e-19)
(4.8798616e-05 2.7581641e-05 7.7336105e-20)
(3.6941511e-05 2.639821e-05 -2.6296872e-21)
(2.5961762e-05 2.5252816e-05 -3.3264979e-20)
(1.582086e-05 2.4145987e-05 -1.3330806e-19)
(6.4811024e-06 2.3078017e-05 -2.8904915e-20)
(-2.0944709e-06 2.204903e-05 3.4565014e-20)
(-9.942092e-06 2.1058942e-05 5.4374194e-20)
(-1.7097001e-05 2.010755e-05 1.7859869e-19)
(-2.3593464e-05 1.9194488e-05 -2.0445569e-20)
(-2.9464784e-05 1.8319284e-05 -2.9353569e-19)
(-3.4743219e-05 1.7481324e-05 -1.5469497e-19)
(-3.9459949e-05 1.6679911e-05 7.7524416e-20)
(-4.3645095e-05 1.5914316e-05 7.6374069e-20)
(-4.7327759e-05 1.518372e-05 -2.666719e-20)
(-5.0535944e-05 1.4487213e-05 2.7674932e-20)
(-5.3296509e-05 1.3823865e-05 1.1375022e-19)
(-5.5635232e-05 1.3192676e-05 4.1966119e-20)
(-5.7576917e-05 1.2592858e-05 -1.3333943e-19)
(-5.9145499e-05 1.2023548e-05 -1.3914013e-19)
(-6.0363812e-05 1.148361e-05 5.8918574e-20)
(-6.1253619e-05 1.0972036e-05 1.449765e-19)
(-6.1835607e-05 1.0487593e-05 8.8730896e-20)
(-6.2129501e-05 1.0029494e-05 -4.6161045e-20)
(-6.2154261e-05 9.5967868e-06 -5.111195e-20)
(-6.192789e-05 9.1884956e-06 1.4233681e-20)
(-6.1467454e-05 8.8036908e-06 2.9429492e-20)
(-6.0789153e-05 8.4413134e-06 1.0023235e-19)
(-5.9908332e-05 8.100354e-06 1.0631204e-19)
(-5.8839462e-05 7.7799608e-06 -2.3615141e-21)
(-5.7596286e-05 7.4795907e-06 -7.7746532e-20)
(-5.6191754e-05 7.1982937e-06 -4.1968245e-20)
(-5.4639542e-05 6.9371366e-06 5.4236026e-21)
(-5.2951949e-05 6.6917338e-06 4.2730214e-21)
(-5.1139109e-05 6.4622924e-06 -2.8587365e-21)
(-4.9211441e-05 6.248544e-06 -1.8779006e-20)
(-4.7179025e-05 6.0498902e-06 -4.3226834e-20)
(-4.5051449e-05 5.8658775e-06 5.1937939e-21)
(-4.2837795e-05 5.6959846e-06 2.3004057e-20)
(-4.0546752e-05 5.539774e-06 -1.1541964e-20)
(-3.8186652e-05 5.3968928e-06 5.9229659e-21)
(-3.5765552e-05 5.267133e-06 1.0937769e-20)
(-3.3291173e-05 5.1507427e-06 3.8058903e-21)
(-3.0771252e-05 5.0476938e-06 8.1402001e-21)
(-2.8213647e-05 4.9591068e-06 7.1722381e-21)
(-2.5626277e-05 4.8866171e-06 2.3588323e-20)
(-2.3017515e-05 4.8327312e-06 2.3716251e-20)
(-2.0396076e-05 4.8007271e-06 6.4563058e-21)
(-1.7770238e-05 4.7936191e-06 -3.7451473e-21)
(-1.514636e-05 4.8103762e-06 3.1319443e-21)
(-1.2525439e-05 4.8370973e-06 1.1753582e-20)
(-9.8961563e-06 4.8289866e-06 8.715378e-21)
(-7.2239741e-06 4.6766057e-06 1.5316017e-20)
(-4.4652529e-06 4.1747735e-06 2.3871276e-20)
(-1.5242301e-06 3.1738858e-06 2.6713404e-20)
(9.7806695e-05 -0.00082008454 4.7863071e-19)
(0.00022019626 -0.000815707 1.6541443e-19)
(0.00035891937 -0.00080942117 -1.2189355e-19)
(0.00049222569 -0.00080182632 -4.5826891e-21)
(0.00062760293 -0.00079371371 -1.6846526e-19)
(0.00076103599 -0.00078537099 -2.3279865e-20)
(0.00089230522 -0.00077670745 -2.2165995e-20)
(0.0010213022 -0.00076755747 8.7802495e-21)
(0.0011477922 -0.00075777155 -8.9056712e-21)
(0.0012715085 -0.00074723905 -2.1238779e-20)
(0.0013921843 -0.00073589211 5.0171196e-20)
(0.0015095548 -0.00072369822 1.1182867e-20)
(0.0016233597 -0.00071065126 1.5204988e-19)
(0.0017333479 -0.00069676337 7.7480782e-20)
(0.0018392799 -0.00068205916 5.5624502e-23)
(0.0019409302 -0.0006665716 1.1136487e-19)
(0.0020380881 -0.00065033996 -5.952192e-21)
(0.0021305589 -0.00063340799 5.2772642e-20)
(0.0022181651 -0.00061582273 1.1402323e-19)
(0.0023007462 -0.0005976337 -1.3969176e-20)
(0.0023781602 -0.0005788927 4.0436874e-20)
(0.0024502835 -0.00055965267 4.9475689e-20)
(0.0025170109 -0.00053996777 -1.0788535e-19)
(0.0025782556 -0.00051989323 -7.105804e-20)
(0.0026339502 -0.00049948509 1.3991149e-19)
(0.0026840453 -0.00047879942 8.2987909e-20)
(0.0027285101 -0.00045789188 -1.1639618e-19)
(0.002767331 -0.00043681822 -7.0536051e-20)
(0.0028005147 -0.00041563181 9.3822227e-20)
(0.0028280867 -0.00039438622 9.192035e-20)
(0.0028500899 -0.00037313827 -1.2833999e-19)
(0.0028665815 -0.00035194105 -2.2567961e-19)
(0.0028776355 -0.00033084774 1.6209072e-20)
(0.0028833418 -0.00030990676 2.1686884e-19)
(0.0028838046 -0.00028916671 1.0628233e-20)
(0.002879144 -0.00026867224 -3.5294037e-19)
(0.0028694916 -0.00024846767 -1.5478939e-19)
(0.0028549921 -0.00022859626 9.5078261e-20)
(0.0028358036 -0.00020909662 -2.3077968e-19)
(0.0028120944 -0.00019000575 -1.9350859e-19)
(0.0027840418 -0.00017135842 1.0537157e-20)
(0.0027518328 -0.0001531876 3.1378665e-20)
(0.0027156609 -0.00013552321 1.1220227e-19)
(0.0026757283 -0.00011839315 2.5355174e-19)
(0.0026322446 -0.00010182271 1.2007898e-19)
(0.002585422 -8.5834626e-05 -7.9069461e-20)
(0.0025354784 -7.0450705e-05 2.1768274e-20)
(0.0024826364 -5.5690666e-05 1.226258e-19)
(0.0024271218 -4.1564344e-05 2.7329664e-19)
(0.0023691656 -2.807191e-05 3.0573723e-19)
(0.0023090184 -1.5233e-05 -4.7396396e-20)
(0.0022468416 -3.1058468e-06 -3.8376718e-19)
(0.0021827403 8.3290494e-06 -1.0936333e-19)
(0.0021170893 1.8982301e-05 2.251241e-19)
(0.0020502034 2.896644e-05 -4.2100254e-20)
(0.0019821976 3.8349636e-05 -2.3594328e-19)
(0.0019132673 4.7106442e-05 -1.8451812e-19)
(0.0018436144 5.5229728e-05 -9.541342e-20)
(0.0017734363 6.2729406e-05 1.9241617e-22)
(0.0017029245 6.9610944e-05 -1.3137529e-20)
(0.0016322709 7.5881115e-05 4.3112518e-20)
(0.0015616507 8.1557003e-05 9.132173e-20)
(0.0014912363 8.6652471e-05 -5.3809874e-20)
(0.0014211943 9.1185446e-05 -1.0253587e-19)
(0.0013516746 9.5174704e-05 -4.3049025e-20)
(0.0012828256 9.8638746e-05 1.4796528e-19)
(0.0012147872 0.00010159881 -3.5149154e-20)
(0.0011476848 0.00010407903 -3.3610669e-19)
(0.0010816424 0.00010609258 -1.7020768e-19)
(0.0010167674 0.00010766709 -1.2260788e-19)
(0.00095315518 0.00010883194 6.4196208e-20)
(0.0008909087 0.00010959446 8.8042706e-20)
(0.00083011367 0.00010999018 -8.3844971e-20)
(0.00077084305 0.00011004177 -9.7731882e-20)
(0.00071315757 0.00010976039 9.0973827e-20)
(0.00065712153 0.00010917972 4.0228622e-19)
(0.00060278777 0.000108329 -1.092359e-19)
(0.00055019057 0.00010721107 -4.2155972e-19)
(0.00049937103 0.00010585924 1.0915462e-19)
(0.00045035883 0.00010429484 7.4277726e-20)
(0.00040317221 0.00010253864 -2.8835802e-19)
(0.00035782188 0.00010061016 -2.1483767e-19)
(0.00031431625 9.8525362e-05 -1.5076527e-20)
(0.00027265957 9.6306368e-05 1.4803597e-19)
(0.00023284644 9.397037e-05 5.8860441e-20)
(0.00019486619 9.1533948e-05 -1.2887275e-19)
(0.00015870665 8.9013333e-05 -2.2131107e-19)
(0.00012434614 8.6423632e-05 -1.0409824e-19)
(9.1761243e-05 8.3778938e-05 3.3711383e-19)
(6.0928134e-05 8.1093188e-05 3.343809e-19)
(3.1816244e-05 7.8378835e-05 -1.2235259e-19)
(4.3889029e-06 7.5647493e-05 -3.43723e-19)
(-2.1389542e-05 7.2909623e-05 -2.0557316e-19)
(-4.5554478e-05 7.0176148e-05 1.5267163e-19)
(-6.8148897e-05 6.7455915e-05 2.1924502e-19)
(-8.9215288e-05 6.4757143e-05 2.281622e-20)
(-0.00010879788 6.2087151e-05 -1.56894e-19)
(-0.000126942 5.9453528e-05 -1.3554852e-19)
(-0.00014369383 5.6861991e-05 -1.7056898e-20)
(-0.00015910058 5.4317801e-05 -1.1393162e-20)
(-0.00017320991 5.1825815e-05 1.5179501e-19)
(-0.00018606966 4.9390449e-05 1.0390654e-19)
(-0.00019772776 4.7014981e-05 -1.4353442e-19)
(-0.00020823213 4.4702397e-05 3.9168749e-20)
(-0.00021763042 4.2455172e-05 2.5274369e-19)
(-0.00022596981 4.0275259e-05 9.9259298e-20)
(-0.00023329696 3.8164192e-05 -6.2318769e-20)
(-0.00023965785 3.612305e-05 -9.1298873e-20)
(-0.00024509765 3.4152542e-05 -3.5752451e-20)
(-0.00024966065 3.2253027e-05 -7.3475262e-20)
(-0.00025339011 3.0424575e-05 -4.0131409e-20)
(-0.00025632828 2.8666876e-05 4.0968731e-20)
(-0.00025851631 2.6979372e-05 2.6007238e-20)
(-0.00025999417 2.5361377e-05 1.1194647e-19)
(-0.00026080059 2.3811919e-05 5.1939066e-20)
(-0.00026097305 2.2329836e-05 -1.3357186e-19)
(-0.00026054779 2.0913677e-05 -1.7487401e-19)
(-0.00025955966 1.956196e-05 -8.2166758e-20)
(-0.00025804224 1.82732e-05 3.8854727e-20)
(-0.00025602785 1.704582e-05 1.0408219e-19)
(-0.00025354748 1.587786e-05 4.8049768e-20)
(-0.00025063089 1.4767514e-05 -4.896233e-20)
(-0.0002473063 1.3712781e-05 -1.4893347e-20)
(-0.00024360074 1.2712493e-05 6.968948e-20)
(-0.00023954052 1.1765241e-05 7.5434325e-20)
(-0.00023515055 1.086821e-05 1.2457243e-20)
(-0.00023045456 1.0020131e-05 -3.5183723e-20)
(-0.00022547476 9.2181056e-06 -1.2412673e-20)
(-0.00022023218 8.4615706e-06 1.35272e-20)
(-0.00021474726 7.7485703e-06 5.0922549e-20)
(-0.00020903919 7.077041e-06 3.8648532e-20)
(-0.00020312632 6.4450981e-06 -6.929764e-21)
(-0.00019702594 5.8510885e-06 3.1624921e-20)
(-0.00019075409 5.2933678e-06 7.1200191e-20)
(-0.00018432554 4.7701894e-06 2.3013195e-20)
(-0.00017775497 4.279345e-06 -4.6226848e-20)
(-0.00017105461 3.819156e-06 -4.7634344e-20)
(-0.00016424119 3.3857829e-06 -2.5967063e-20)
(-0.00015732791 2.9827493e-06 -6.9687464e-21)
(-0.00015032192 2.6080944e-06 2.602892e-21)
(-0.00014323463 2.2602199e-06 5.4957953e-21)
(-0.00013607647 1.9377633e-06 -6.1989506e-21)
(-0.00012885714 1.6395882e-06 -4.2309689e-21)
(-0.00012158572 1.3646733e-06 6.0428926e-21)
(-0.0001142708 1.1121522e-06 1.7455111e-20)
(-0.00010692048 8.8133083e-07 2.469913e-20)
(-9.9542531e-05 6.7176339e-07 -4.9388622e-21)
(-9.2144341e-05 4.8334904e-07 -5.1510754e-21)
(-8.4733048e-05 3.1627667e-07 2.3752499e-20)
(-7.7315605e-05 1.7149914e-07 3.4670632e-20)
(-6.9898672e-05 5.0634138e-08 2.1911937e-20)
(-6.2488485e-05 -4.3980549e-08 7.5089934e-21)
(-5.5090451e-05 -1.0974737e-07 8.0106737e-21)
(-4.7708388e-05 -1.4569881e-07 -2.7297516e-21)
(-4.0342938e-05 -1.5729586e-07 9.5142337e-21)
(-3.2989821e-05 -1.6594902e-07 1.9578724e-20)
(-2.5638999e-05 -2.2635168e-07 1.1707543e-20)
(-1.8274933e-05 -4.5283368e-07 1.8377113e-20)
(-1.0895225e-05 -1.0330884e-06 2.6742812e-20)
(-3.5875472e-06 -2.0830229e-06 3.3981979e-20)
(9.0910878e-05 -0.0010948388 7.4771963e-19)
(0.00020590883 -0.0010886783 1.7516682e-19)
(0.00033725559 -0.0010807239 -1.6229921e-19)
(0.00046394128 -0.0010709767 -3.8108654e-19)
(0.00059306129 -0.0010604226 -1.5939703e-19)
(0.00072045958 -0.0010493374 7.740988e-20)
(0.00084579757 -0.0010375867 1.3221537e-19)
(0.00096886179 -0.0010250003 8.2172361e-20)
(0.0010893621 -0.0010114288 8.4223107e-20)
(0.0012070058 -0.0009967615 2.9471745e-20)
(0.0013215153 -0.00098093229 1.7034538e-19)
(0.0014326234 -0.00096391293 1.0548861e-19)
(0.0015400713 -0.00094570489 1.5301542e-19)
(0.0016436111 -0.000926331 1.6187942e-19)
(0.0017430079 -0.00090582912 2.2415818e-20)
(0.0018380406 -0.00088424802 1.3578083e-19)