/*--------------------------------*- C++ -*----------------------------------*\
| =========                 |                                                 |
| \\      /  F ield         | OpenFOAM: The Open Source CFD Toolbox           |
|  \\    /   O peration     | Version:  2106                                  |
|   \\  /    A nd           | Website:  www.openfoam.com                      |
|    \\/     M anipulation  |                                                 |
\*---------------------------------------------------------------------------*/
FoamFile
{
    version     2.0;
    format      ascii;
    arch        "LSB;label=32;scalar=64";
    class       surfaceScalarField;
    location    "0.01";
    object      phi;
}
// * * * * * * * * * * * * * * * * * * * * * * * * * * * * * * * * * * * * * //

dimensions      [0 3 -1 0 0 0 0];

oriented        oriented;

internalField   nonuniform List<scalar> 
1984
(
0.0011735626
-0.0011735626
0.0023018746
-0.001128312
0.0033414661
-0.0010395915
0.004252349
-0.00091088293
0.0049995639
-0.00074721489
0.0055545091
-0.0005549452
0.0058960038
-0.00034149471
0.0060110595
-0.00011505564
0.0058953514
0.00011570814
0.0055533212
0.00034203018
0.0049979685
0.00055535268
0.0042505899
0.00074737863
0.0033398194
0.00091077048
0.0023006024
0.001039217
0.0011728701
0.0011277323
1.7985968e-14
0.0011728701
-0.0011728701
0.0011728701
-0.0023006024
0.0011277323
-0.0033398194
0.001039217
-0.0042505899
0.00091077048
-0.0049979685
0.00074737863
-0.0055533212
0.00055535268
-0.0058953514
0.00034203018
-0.0060110595
0.00011570814
-0.0058960038
-0.00011505564
-0.0055545091
-0.00034149471
-0.0049995639
-0.0005549452
-0.004252349
-0.00074721489
-0.0033414661
-0.00091088293
-0.0023018746
-0.0010395915
-0.0011735626
-0.001128312
-0.0011735626
0.0012422458
-0.0024158085
0.002436571
-0.0023226372
0.0035369513
-0.0021399718
0.0045010667
-0.0018749983
0.0052919403
-0.0015380885
0.0058793388
-0.0011423437
0.0062408831
-0.00070303898
0.00636284
-0.00023701256
0.0062405977
0.00023795047
0.0058787875
0.00070384032
0.0052912116
0.0011429286
0.0045002576
0.0015383326
0.003536184
0.0018748441
0.0024359711
0.0021394299
0.0012419166
0.0023217867
2.482143e-14
0.0024147867
-0.0012419166
0.0024147867
-0.0024359711
0.0023217867
-0.003536184
0.0021394299
-0.0045002576
0.0018748441
-0.0052912116
0.0015383326
-0.0058787875
0.0011429286
-0.0062405977
0.00070384032
-0.00636284
0.00023795047
-0.0062408831
-0.00023701256
-0.0058793388
-0.00070303898
-0.0052919403
-0.0011423437
-0.0045010667
-0.0015380885
-0.0035369513
-0.0018749983
-0.002436571
-0.0021399718
-0.0012422458
-0.0023226372
-0.0024158085
0.0013643423
-0.0037801507
0.0026760017
-0.0036342966
0.0038844031
-0.0033483732
0.0049430812
-0.0029336764
0.0058114839
-0.0024064912
0.0064564971
-0.0017873569
0.0068536326
-0.0011001744
0.0069878552
-0.00037123514
0.0068540752
0.00037173042
0.0064572926
0.0011006229
0.0058125057
0.0017877156
0.0049441596
0.0024066787
0.0038853724
0.0029336313
0.0026767256
0.0033480766
0.0013647275
0.0036337849
7.6149009e-15
0.0037795142
-0.0013647275
0.0037795142
-0.0026767256
0.0036337849
-0.0038853724
0.0033480766
-0.0049441596
0.0029336313
-0.0058125057
0.0024066787
-0.0064572926
0.0017877156
-0.0068540752
0.0011006229
-0.0069878552
0.00037173042
-0.0068536326
-0.00037123514
-0.0064564971
-0.0011001744
-0.0058114839
-0.0017873569
-0.0049430812
-0.0024064912
-0.0038844031
-0.0029336764
-0.0026760017
-0.0033483732
-0.0013643423
-0.0036342966
-0.0037801507
0.0015579005
-0.0053380513
0.003055538
-0.0051319341
0.0044351017
-0.0047279368
0.0056435502
-0.0041421249
0.0066346801
-0.0033976211
0.007370845
-0.0025235219
0.007824258
-0.0015535874
0.0079778611
-0.00052483825
0.0078258417
0.00052374977
0.0073737431
0.0015527215
0.0066384261
0.0025230326
0.0056475537
0.0033975511
0.0044387539
0.0041424311
0.0030583033
0.0047285273
0.0015593859
0.0051327022
-9.5052688e-15
0.0053389001
-0.0015593859
0.0053389001
-0.0030583033
0.0051327022
-0.0044387539
0.0047285273
-0.0056475537
0.0041424311
-0.0066384261
0.0033975511
-0.0073737431
0.0025230326
-0.0078258417
0.0015527215
-0.0079778611
0.00052374977
-0.007824258
-0.00052483825
-0.007370845
-0.0015535874
-0.0066346801
-0.0025235219
-0.0056435502
-0.0033976211
-0.0044351017
-0.0041421249
-0.003055538
-0.0047279368
-0.0015579005
-0.0051319341
-0.0053380513
0.0018515106
-0.0071895619
0.0036312113
-0.0069116348
0.0052702814
-0.006367007
0.0067056952
-0.0055775386
0.0078826971
-0.0045746231
0.0087568185
-0.0033976433
0.0092953401
-0.002092109
0.0094782013
-0.00070769943
0.0092985274
0.00070342364
0.0087626587
0.0020885902
0.0078902471
0.0033954442
0.0067137721
0.0045740261
0.0052776607
0.0055785425
0.0036368063
0.0063693817
0.0018545191
0.0069149895
-1.3414842e-14
0.0071934192
-0.0018545191
0.0071934192
-0.0036368063
0.0069149895
-0.0052776607
0.0063693817
-0.0067137721
0.0055785425
-0.0078902471
0.0045740261
-0.0087626587
0.0033954442
-0.0092985274
0.0020885902
-0.0094782013
0.00070342364
-0.0092953401
-0.00070769943
-0.0087568185
-0.002092109
-0.0078826971
-0.0033976433
-0.0067056952
-0.0045746231
-0.0052702814
-0.0055775386
-0.0036312113
-0.006367007
-0.0018515106
-0.0069116348
-0.0071895619
0.0022847193
-0.0094742811
0.0044805184
-0.0091074339
0.0065022793
-0.0083887679
0.0082722211
-0.0073474804
0.0097229893
-0.0060253913
0.010800116
-0.0044747702
0.011463712
-0.0027557044
0.011689389
-0.00093337696
0.011468777
0.00092403555
0.010809387
0.0027479802
0.0097349533
0.0044698781
0.0082850013
0.0060239781
0.0065139432
0.0073496006
0.0044893548
0.0083939701
0.0022894673
0.009114877
-1.1030769e-14
0.0094828865
-0.0022894673
0.0094828865
-0.0044893548
0.009114877
-0.0065139432
0.0083939701
-0.0082850013
0.0073496006
-0.0097349533
0.0060239781
-0.010809387
0.0044698781
-0.011468777
0.0027479802
-0.011689389
0.00092403555
-0.011463712
-0.00093337696
-0.010800116
-0.0027557044
-0.0097229893
-0.0044747702
-0.0082722211
-0.0060253913
-0.0065022793
-0.0073474804
-0.0044805184
-0.0083887679
-0.0022847193
-0.0091074339
-0.0094742811
0.0029063794
-0.012380661
0.0056991879
-0.011900242
0.0082698459
-0.010959426
0.010519351
-0.0095969857
0.012362264
-0.0078683042
0.013729829
-0.0058423347
0.014571999
-0.0035978743
0.014858343
-0.0012197211
0.014578463
0.001203915
0.013741624
0.0035848191
0.012377417
0.0058340859
0.010535469
0.0078659258
0.0082845042
0.0096005652
0.0057102594
0.010968215
0.0029123138
0.011912823
-2.0284875e-15
0.0123952
-0.0029123138
0.0123952
-0.0057102594
0.011912823
-0.0082845042
0.010968215
-0.010535469
0.0096005652
-0.012377417
0.0078659258
-0.013741624
0.0058340859
-0.014578463
0.0035848191
-0.014858343
0.001203915
-0.014571999
-0.0012197211
-0.013729829
-0.0035978743
-0.012362264
-0.0058423347
-0.010519351
-0.0078683042
-0.0082698459
-0.0095969857
-0.0056991879
-0.010959426
-0.0029063794
-0.011900242
-0.012380661
0.0037655908
-0.016146251
0.0073834533
-0.015518105
0.010712514
-0.014288486
0.013624359
-0.012508831
0.016008478
-0.010252423
0.017776349
-0.0076102056
0.018863993
-0.0046855186
0.019232836
-0.0015885642
0.018869843
0.001566908
0.017786939
0.0046677227
0.016021905
0.0075991202
0.01363847
0.010249361
0.010725219
0.012513817
0.0073929625
0.014300471
0.0037706467
0.015535139
1.4232588e-14
0.016165847
-0.0037706467
0.016165847
-0.0073929625
0.015535139
-0.010725219
0.014300471
-0.01363847
0.012513817
-0.016021905
0.010249361
-0.017786939
0.0075991202
-0.018869843
0.0046677227
-0.019232836
0.001566908
-0.018863993
-0.0015885642
-0.017776349
-0.0046855186
-0.016008478
-0.0076102056
-0.013624359
-0.010252423
-0.010712514
-0.012508831
-0.0073834533
-0.014288486
-0.0037655908
-0.015518105
-0.016146251
0.0048880585
-0.02103431
0.0095838064
-0.020213853
0.013903759
-0.018608439
0.017680986
-0.016286058
0.020771999
-0.013343436
0.023062186
-0.0099003925
0.024469264
-0.0060925962
0.024944163
-0.0020634639
0.024470584
0.0020404873
0.023064373
0.0060739338
0.020774316
0.0098891767
0.017683003
0.013340674
0.013905263
0.016291556
0.0095847056
0.018621029
0.0048884167
0.020231427
3.1081802e-14
0.021054264
-0.0048884167
0.021054264
-0.0095847056
0.020231427
-0.013905263
0.018621029
-0.017683003
0.016291556
-0.020774316
0.013340674
-0.023064373
0.0098891767
-0.024470584
0.0060739338
-0.024944163
0.0020404873
-0.024469264
-0.0020634639
-0.023062186
-0.0060925962
-0.020771999
-0.0099003925
-0.017680986
-0.013343436
-0.013903759
-0.016286058
-0.0095838064
-0.018608439
-0.0048880585
-0.020213853
-0.02103431
0.0062311822
-0.027265492
0.012217141
-0.026199812
0.017724037
-0.024115334
0.022538815
-0.021100836
0.026478035
-0.017282657
0.029394984
-0.012817341
0.031184774
-0.0078823868
0.031785522
-0.0026642116
0.0311771
0.0026489099
0.029380777
0.0078702567
0.026459054
0.012810899
0.022518088
0.01728164
0.017704811
0.021104833
0.012202274
0.024123566
0.0062229784
0.026210723
3.2305846e-14
0.027277242
-0.0062229784
0.027277242
-0.012202274
0.026210723
-0.017704811
0.024123566
-0.022518088
0.021104833
-0.026459054
0.01728164
-0.029380777
0.012810899
-0.0311771
0.0078702567
-0.031785522
0.0026489099
-0.031184774
-0.0026642116
-0.029394984
-0.0078823868
-0.026478035
-0.012817341
-0.022538815
-0.017282657
-0.017724037
-0.021100836
-0.012217141
-0.024115334
-0.0062311822
-0.026199812
-0.027265492
0.0076182044
-0.034883696
0.014937851
-0.033519458
0.021674333
-0.030851816
0.02756714
-0.026993642
0.032390703
-0.022106221
0.035963215
-0.016389853
0.038153557
-0.010072729
0.038886041
-0.0033966955
0.038136322
0.0033986287
0.035932567
0.010074012
0.032351608
0.016391858
0.027526112
0.022107136
0.021637414
0.026993531
0.014909863
0.030851118
0.0076028911
0.033517695
4.2813608e-14
0.034880133
-0.0076028911
0.034880133
-0.014909863
0.033517695
-0.021637414
0.030851118
-0.027526112
0.026993531
-0.032351608
0.022107136
-0.035932567
0.016391858
-0.038136322
0.010074012
-0.038886041
0.0033986287
-0.038153557
-0.0033966955
-0.035963215
-0.010072729
-0.032390703
-0.016389853
-0.02756714
-0.022106221
-0.021674333
-0.026993642
-0.014937851
-0.030851816
-0.0076182044
-0.033519458
-0.034883696
0.0086716326
-0.043555329
0.017007089
-0.041854915
0.024686253
-0.038530981
0.031413004
-0.033720393
0.036928139
-0.027621355
0.041018222
-0.020479936
0.043525979
-0.012580486
0.044368894
-0.0042396103
0.04351459
0.0042529324
0.04099669
0.012591912
0.036902863
0.020485684
0.031390168
0.027619831
0.024668299
0.0337154
0.016994406
0.038525011
0.0086645162
0.041847584
3.4102563e-14
0.043544649
-0.0086645162
0.043544649
-0.016994406
0.041847584
-0.024668299
0.038525011
-0.031390168
0.0337154
-0.036902863
0.027619831
-0.04099669
0.020485684
-0.04351459
0.012591912
-0.044368894
0.0042529324
-0.043525979
-0.0042396103
-0.041018222
-0.012580486
-0.036928139
-0.020479936
-0.031413004
-0.027621355
-0.024686253
-0.033720393
-0.017007089
-0.038530981
-0.0086716326
-0.041854915
-0.043555329
0.0088044521
-0.052359781
0.017274376
-0.050324839
0.025092581
-0.046349185
0.031958573
-0.040586386
0.037605812
-0.033268594
0.041808235
-0.024682359
0.044393424
-0.015165675
0.045280374
-0.0051265604
0.044418832
0.0051144749
0.04185652
0.015154224
0.037677173
0.024665031
0.0320437
0.033253304
0.025175824
0.040583276
0.017339481
0.046361354
0.0088389058
0.050348159
4.4095679e-14
0.052383555
-0.0088389058
0.052383555
-0.017339481
0.050348159
-0.025175824
0.046361354
-0.0320437
0.040583276
-0.037677173
0.033253304
-0.04185652
0.024665031
-0.044418832
0.015154224
-0.045280374
0.0051144749
-0.044393424
-0.0051265604
-0.041808235
-0.015165675
-0.037605812
-0.024682359
-0.031958573
-0.033268594
-0.025092581
-0.040586386
-0.017274376
-0.046349185
-0.0088044521
-0.050324839
-0.052359781
0.0073817376
-0.059741519
0.014496179
-0.05743928
0.021084315
-0.052937321
0.026892852
-0.046394923
0.031697935
-0.038073677
0.035300131
-0.028284555
0.037525997
-0.017391541
0.038328967
-0.0059295301
0.037631311
0.0058121304
0.035492714
0.017292822
0.031951658
0.028206086
0.027170421
0.038034542
0.021343139
0.046410558
0.014695269
0.053009225
0.0074896598
0.057553768
4.1565616e-14
0.059873215
-0.0074896598
0.059873215
-0.014695269
0.057553768
-0.021343139
0.053009225
-0.027170421
0.046410558
-0.031951658
0.038034542
-0.035492714
0.028206086
-0.037631311
0.017292822
-0.038328967
0.0058121304
-0.037525997
-0.0059295301
-0.035300131
-0.017391541
-0.031697935
-0.028284555
-0.026892852
-0.038073677
-0.021084315
-0.046394923
-0.014496179
-0.052937321
-0.0073817376
-0.05743928
-0.059741519
0.0042289081
-0.063970427
0.0083170546
-0.061527426
0.012116407
-0.056736674
0.015468833
-0.049747349
0.018253986
-0.040858831
0.020365199
-0.030395768
0.021648257
-0.018674599
0.022156455
-0.006437728
0.021779661
0.0061889244
0.020601589
0.018470894
0.018556295
0.03025138
0.015787853
0.040802984
0.012406213
0.049792198
0.0085389329
0.056876505
0.0043520146
0.061740687
2.3554512e-14
0.06422523
-0.0043520146
0.06422523
-0.0085389329
0.061740687
-0.012406213
0.056876505
-0.015787853
0.049792198
-0.018556295
0.040802984
-0.020601589
0.03025138
-0.021779661
0.018470894
-0.022156455
0.0061889244
-0.021648257
-0.006437728
-0.020365199
-0.018674599
-0.018253986
-0.030395768
-0.015468833
-0.040858831
-0.012116407
-0.049747349
-0.0083170546
-0.056736674
-0.0042289081
-0.061527426
-0.063970427
0.00068806092
-0.064658488
0.0013121042
-0.06215147
0.0018362761
-0.057260845
0.0022002417
-0.050111315
0.0024036897
-0.041062279
0.0024775444
-0.030469622
0.0023662542
-0.018563308
0.0022653484
-0.0063368221
0.0021211599
0.0063331129
0.002025085
0.018566968
0.0018049913
0.030471473
0.0015420762
0.041065899
0.0012218932
0.050112381
0.0008383462
0.057260052
0.00042825571
0.062150777
1.7760203e-15
0.064653485
-0.00042825571
0.064653485
-0.0008383462
0.062150777
-0.0012218932
0.057260052
-0.0015420762
0.050112381
-0.0018049913
0.041065899
-0.002025085
0.030471473
-0.0021211599
0.018566968
-0.0022653484
0.0063331129
-0.0023662542
-0.0063368221
-0.0024775444
-0.018563308
-0.0024036897
-0.030469622
-0.0022002417
-0.041062279
-0.0018362761
-0.050111315
-0.0013121042
-0.057260845
-0.00068806092
-0.06215147
-0.064658488
-0.00039975709
-0.064258731
-0.00078083183
-0.061770395
-0.0011379037
-0.056903774
-0.0014342215
-0.049814997
-0.0016765675
-0.040819933
-0.001882464
-0.030263726
-0.0019693356
-0.018476437
-0.002110027
-0.0061961307
-0.0022134824
0.0064365682
-0.0023333031
0.018686789
-0.0022741757
0.030412346
-0.0020887708
0.040880494
-0.0017480548
0.049771665
-0.0012511999
0.056763197
-0.00065631816
0.061555895
1.9075116e-14
0.063997167
0.00065631816
0.063997167
0.0012511999
0.061555895
0.0017480548
0.056763197
0.0020887708
0.049771665
0.0022741757
0.040880494
0.0023333031
0.030412346
0.0022134824
0.018686789
0.002110027
0.0064365682
0.0019693356
-0.0061961307
0.001882464
-0.018476437
0.0016765675
-0.030263726
0.0014342215
-0.040819933
0.0011379037
-0.049814997
0.00078083183
-0.056903774
0.00039975709
-0.061770395
-0.064258731
-0.004321776
-0.059936955
-0.0084782233
-0.057613948
-0.012317502
-0.053064495
-0.015673944
-0.046458555
-0.018420531
-0.038073346
-0.020449376
-0.028234881
-0.021615569
-0.017310244
-0.021990445
-0.0058212548
-0.021486879
0.0059330017
-0.020210979
0.01741089
-0.018114001
0.028315368
-0.015348354
0.038114847
-0.012020974
0.046444285
-0.0082508545
0.052993077
-0.0041943968
0.057499438
5.7460632e-15
0.05980277
0.0041943968
0.05980277
0.0082508545
0.057499438
0.012020974
0.052993077
0.015348354
0.046444285
0.018114001
0.038114847
0.020210979
0.028315368
0.021486879
0.01741089
0.021990445
0.0059330017
0.021615569
-0.0058212548
0.020449376
-0.017310244
0.018420531
-0.028234881
0.015673944
-0.038073346
0.012317502
-0.046458555
0.0084782233
-0.053064495
0.004321776
-0.057613948
-0.059936955
-0.007454153
-0.052482802
-0.014624916
-0.050443184
-0.021240518
-0.046448893
-0.0270391
-0.040659973
-0.031796178
-0.033316267
-0.035318997
-0.024712062
-0.037445705
-0.015183536
-0.038140738
-0.0051262221
-0.037342279
0.0051345436
-0.03512592
0.01519453
-0.031540273
0.024729721
-0.026757953
0.033332528
-0.020977813
0.040664145
-0.014422462
0.046437726
-0.0073437494
0.050420725
-8.5279835e-15
0.052459021
0.0073437494
0.052459021
0.014422462
0.050420725
0.020977813
0.046437726
0.026757953
0.040664145
0.031540273
0.033332528
0.03512592
0.024729721
0.037342279
0.01519453
0.038140738
0.0051345436
0.037445705
-0.0051262221
0.035318997
-0.015183536
0.031796178
-0.024712062
0.0270391
-0.033316267
0.021240518
-0.040659973
0.014624916
-0.046448893
0.007454153
-0.050443184
-0.052482802
-0.0087947639
-0.043688038
-0.017252642
-0.041985307
-0.025049621
-0.038651914
-0.03188295
-0.033826644
-0.037488031
-0.027711186
-0.04164642
-0.020553673
-0.044195971
-0.012633985
-0.045054232
-0.0042679617
-0.044172579
0.0042528906
-0.041600263
0.012622215
-0.037418676
0.020548134
-0.031799342
0.027713193
-0.024967376
0.033832179
-0.017188027
0.038658377
-0.0087603032
0.041993001
-2.4102764e-14
0.043698718
0.0087603032
0.043698718
0.017188027
0.041993001
0.024967376
0.038658377
0.031799342
0.033832179
0.037418676
0.027713193
0.041600263
0.020548134
0.044172579
0.012622215
0.045054232
0.0042528906
0.044195971
-0.0042679617
0.04164642
-0.012633985
0.037488031
-0.020553673
0.03188295
-0.027711186
0.025049621
-0.033826644
0.017252642
-0.038651914
0.0087947639
-0.041985307
-0.043688038
-0.0086075887
-0.035080449
-0.016882766
-0.03371013
-0.024506461
-0.031028218
-0.031184664
-0.027148442
-0.036661959
-0.02223389
-0.040730014
-0.016485619
-0.043232701
-0.010131298
-0.044083158
-0.0034175049
-0.043247352
0.0034170854
-0.040756881
0.010131744
-0.036693755
0.016485007
-0.031214177
0.022233615
-0.024530328
0.02714833
-0.016899808
0.031027857
-0.0086169444
0.033710138
-3.7974727e-14
0.035081773
0.0086169444
0.035081773
0.016899808
0.033710138
0.024530328
0.031027857
0.031214177
0.02714833
0.036693755
0.022233615
0.040756881
0.016485007
0.043247352
0.010131744
0.044083158
0.0034170854
0.043232701
-0.0034175049
0.040730014
-0.010131298
0.036661959
-0.016485619
0.031184664
-0.02223389
0.024506461
-0.027148442
0.016882766
-0.031028218
0.0086075887
-0.03371013
-0.035080449
-0.0075278065
-0.027552643
-0.01476278
-0.026475156
-0.02142442
-0.024366579
-0.02725597
-0.021316891
-0.032035335
-0.017454526
-0.035582904
-0.012938049
-0.037767178
-0.007947024
-0.03851198
-0.002672703
-0.037788941
0.0026940466
-0.035621635
0.0079644373
-0.032084747
0.01294812
-0.027308
0.017456868
-0.021471386
0.021311717
-0.014798379
0.024354849
-0.0075471894
0.026458948
-2.8172874e-14
0.027534584
0.0075471894
0.027534584
0.014798379
0.026458948
0.021471386
0.024354849
0.027308
0.021311717
0.032084747
0.017456868
0.035621635
0.01294812
0.037788941
0.0079644373
0.03851198
0.0026940466
0.037767178
-0.002672703
0.035582904
-0.007947024
0.032035335
-0.012938049
0.02725597
-0.017454526
0.02142442
-0.021316891
0.01476278
-0.024366579
0.0075278065
-0.026475156
-0.027552643
-0.0061234788
-0.021429164
-0.012007412
-0.020591223
-0.017422674
-0.018951316
-0.022160301
-0.016579265
-0.026040203
-0.013574624
-0.028917719
-0.010060533
-0.030688212
-0.006176531
-0.031289935
-0.0020709797
-0.030701508
0.0021056193
-0.028942209
0.0062051382
-0.026072522
0.010078433
-0.022195406
0.013579752
-0.017455145
0.016571456
-0.012032388
0.018932092
-0.0061371358
0.020563696
-5.3243674e-14
0.021397448
0.0061371358
0.021397448
0.012032388
0.020563696
0.017455145
0.018932092
0.022195406
0.016571456
0.026072522
0.013579752
0.028942209
0.010078433
0.030701508
0.0062051382
0.031289935
0.0021056193
0.030688212
-0.0020709797
0.028917719
-0.006176531
0.026040203
-0.010060533
0.022160301
-0.013574624
0.017422674
-0.016579265
0.012007412
-0.018951316
0.0061234788
-0.020591223
-0.021429164
-0.004759088
-0.016670076
-0.0093314016
-0.016018909
-0.013538428
-0.01474429
-0.017217651
-0.012900042
-0.020229304
-0.010562971
-0.022461517
-0.0078283196
-0.023833697
-0.0048043511
-0.024298046
-0.0016066309
-0.023838731
0.0016463051
-0.022471044
0.0048374512
-0.02024227
0.0078496589
-0.017232172
0.010569654
-0.013552202
0.012891486
-0.009342194
0.014722084
-0.0047650539
0.015986556
-6.8230107e-14
0.016632394
0.0047650539
0.016632394
0.009342194
0.015986556
0.013552202
0.014722084
0.017232172
0.012891486
0.02024227
0.010569654
0.022471044
0.0078496589
0.023838731
0.0048374512
0.024298046
0.0016463051
0.023833697
-0.0016066309
0.022461517
-0.0048043511
0.020229304
-0.0078283196
0.017217651
-0.010562971
0.013538428
-0.012900042
0.0093314016
-0.01474429
0.004759088
-0.016018909
-0.016670076
-0.003610897
-0.013059179
-0.007080009
-0.012549797
-0.010271834
-0.011552465
-0.013063035
-0.010108841
-0.01534754
-0.0082784658
-0.017040458
-0.0061354023
-0.018080583
-0.0037642257
-0.018431381
-0.0012558329
-0.018081194
0.0012961185
-0.017041825
0.0037980819
-0.015349746
0.0061575802
-0.013065861
0.0082857688
-0.010274793
0.010100419
-0.0070824983
0.011529789
-0.003612337
0.012516394
-8.9479906e-14
0.013020057
0.003612337
0.013020057
0.0070824983
0.012516394
0.010274793
0.011529789
0.013065861
0.010100419
0.015349746
0.0082857688
0.017041825
0.0061575802
0.018081194
0.0037980819
0.018431381
0.0012961185
0.018080583
-0.0012558329
0.017040458
-0.0037642257
0.01534754
-0.0061354023
0.013063035
-0.0082784658
0.010271834
-0.010108841
0.007080009
-0.011552465
0.003610897
-0.012549797
-0.013059179
-0.0027329749
-0.010326204
-0.0053588353
-0.0099239367
-0.0077751613
-0.0091361388
-0.0098886282
-0.0079953743
-0.011618825
-0.0065482692
-0.012901219
-0.0048530082
-0.013689108
-0.0029763367
-0.013954502
-0.0009904389
-0.013688311
0.0010299272
-0.012899885
0.0030096564
-0.011617339
0.0048750336
-0.0098873114
0.0065557417
-0.007774189
0.0079872961
-0.0053582466
0.0091138467
-0.0027327166
0.0098908644
-1.2073574e-13
0.010287341
0.0027327166
0.010287341
0.0053582466
0.0098908644
0.007774189
0.0091138467
0.0098873114
0.0079872961
0.011617339
0.0065557417
0.012899885
0.0048750336
0.013688311
0.0030096564
0.013954502
0.0010299272
0.013689108
-0.0009904389
0.012901219
-0.0029763367
0.011618825
-0.0048530082
0.0098886282
-0.0065482692
0.0077751613
-0.0079953743
0.0053588353
-0.0091361388
0.0027329749
-0.0099239367
-0.010326204
-0.0021297705
-0.0081964334
-0.0041764081
-0.0078772991
-0.0060603388
-0.0072522082
-0.0077088909
-0.0063468222
-0.0090592176
-0.0051979425
-0.010060614
-0.0038516122
-0.010676121
-0.0023608289
-0.010883427
-0.00078313277
-0.010675195
0.00082169438
-0.010058996
0.0023934579
-0.0090572666
0.0038733041
-0.0077069606
0.0052054356
-0.0060587052
0.0063390407
-0.004175251
0.0072303925
-0.0021291789
0.0078447923
-1.2668176e-13
0.0081581617
0.0021291789
0.0081581617
0.004175251
0.0078447923
0.0060587052
0.0072303925
0.0077069606
0.0063390407
0.0090572666
0.0052054356
0.010058996
0.0038733041
0.010675195
0.0023934579
0.010883427
0.00082169438
0.010676121
-0.00078313277
0.010060614
-0.0023608289
0.0090592176
-0.0038516122
0.0077088909
-0.0051979425
0.0060603388
-0.0063468222
0.0041764081
-0.0072522082
0.0021297705
-0.0078772991
-0.0081964334
-0.0017308913
-0.006465542
-0.0033942985
-0.0062138919
-0.0049255907
-0.0057209159
-0.0062656758
-0.0050067371
-0.0073633585
-0.0041002598
-0.008177242
-0.0030377287
-0.008677087
-0.001860984
-0.0088446376
-0.00061558208
-0.0086740267
0.0006510834
-0.0081716036
0.0018910348
-0.0073560253
0.0030577257
-0.0062577813
0.0041071916
-0.0049183394
0.0049995989
-0.0033887782
0.0057008313
-0.0017279157
0.0061839298
-1.959537e-13
0.006430246
0.0017279157
0.006430246
0.0033887782
0.0061839298
0.0049183394
0.0057008313
0.0062577813
0.0049995989
0.0073560253
0.0041071916
0.0081716036
0.0030577257
0.0086740267
0.0018910348
0.0088446376
0.0006510834
0.008677087
-0.00061558208
0.008177242
-0.001860984
0.0073633585
-0.0030377287
0.0062656758
-0.0041002598
0.0049255907
-0.0050067371
0.0033942985
-0.0057209159
0.0017308913
-0.0062138919
-0.006465542
-0.0016861602
-0.0047793818
-0.003306722
-0.0045933302
-0.0047987912
-0.0042288467
-0.0061047366
-0.0037007917
-0.0071744693
-0.0030305271
-0.0079673483
-0.0022448497
-0.0084536675
-0.0013746648
-0.0086156366
-0.00045361291
-0.0084477839
0.00048323068
-0.0079564626
0.0013997135
-0.0071602491
0.0022615123
-0.0060893598
0.0030363023
-0.0047846033
0.0036948424
-0.0032958766
0.0042121047
-0.0016802962
0.0045683494
-1.4429901e-14
0.0047499498
0.0016802962
0.0047499498
0.0032958766
0.0045683494
0.0047846033
0.0042121047
0.0060893598
0.0036948424
0.0071602491
0.0030363023
0.0079564626
0.0022615123
0.0084477839
0.0013997135
0.0086156366
0.00048323068
0.0084536675
-0.00045361291
0.0079673483
-0.0013746648
0.0071744693
-0.0022448497
0.0061047366
-0.0030305271
0.0047987913
-0.0037007917
0.003306722
-0.0042288467
0.0016861602
-0.0045933302
-0.0047793818
-0.0015223472
-0.0032570346
-0.0029853866
-0.0031302908
-0.0043322596
-0.0028819737
-0.0055108752
-0.0025221761
-0.006475978
-0.0020654243
-0.0071908745
-0.0015299532
-0.0076287503
-0.00093678903
-0.0077734438
-0.00030891935
-0.0076200923
0.00032987916
-0.0071749017
0.00095452284
-0.0064551399
0.0015417504
-0.0054883617
0.0020695241
-0.0043114955
0.0025179762
-0.0029695159
0.002870125
-0.0015137654
0.0031125989
-3.2184732e-14
0.0032361844
0.0015137654
0.0032361844
0.0029695159
0.0031125989
0.0043114955
0.002870125
0.0054883617
0.0025179762
0.0064551399
0.0020695241
0.0071749017
0.0015417504
0.0076200923
0.00095452284
0.0077734438
0.00032987916
0.0076287503
-0.00030891935
0.0071908745
-0.00093678903
0.006475978
-0.0015299532
0.0055108752
-0.0020654243
0.0043322596
-0.0025221761
0.0029853866
-0.0028819737
0.0015223472
-0.0031302908
-0.0032570346
-0.0019928459
-0.0012641887
-0.0039080778
-0.0012150589
-0.0056712376
-0.0011188138
-0.0072140247
-0.00097938902
-0.0084769971
-0.0008024519
-0.0094118477
-0.00059510266
-0.009983239
-0.00036539771
-0.010170614
-0.00012154467
-0.0099704484
0.00012971393
-0.0093882104
0.00037228479
-0.0084461278
0.00059966789
-0.0071806276
0.00080402388
-0.005640395
0.00097774359
-0.0038844793
0.0011142093
-0.0019800771
0.0012081968
4.6970703e-13
0.0012561073
0.0019800771
0.0012561073
0.0038844793
0.0012081968
0.005640395
0.0011142093
0.0071806276
0.00097774359
0.0084461278
0.00080402388
0.0093882104
0.00059966789
0.0099704484
0.00037228479
0.010170614
0.00012971393
0.009983239
-0.00012154468
0.0094118477
-0.00036539771
0.0084769971
-0.00059510266
0.0072140247
-0.0008024519
0.0056712376
-0.00097938902
0.0039080778
-0.0011188138
0.0019928459
-0.0012150589
-0.0012641887
-0.0013469692
-0.0026416204
-0.0038337739
-0.0048774274
-0.0057325972
-0.0063668464
-0.0067563188
-0.0068859537
-0.0067480865
-0.0063516733
-0.0057128229
-0.0048560684
-0.0038140727
-0.0026265596
-0.0013388242
1.7544093e-13
0.0013388242
0.0026265596
0.0038140727
0.0048560684
0.0057128229
0.0063516733
0.0067480865
0.0068859537
0.0067563188
0.0063668464
0.0057325972
0.0048774274
0.0038337739
0.0026416204
0.0013469692
)
;

boundaryField
{
    leftWall
    {
        type            cyclic;
        value           nonuniform List<scalar> 
32
(
-2.2189036e-13
-2.026354e-13
-1.4484506e-13
-8.5572197e-14
-4.074361e-14
-2.3290636e-14
-3.2118877e-14
-3.9787073e-14
-2.0456516e-14
-3.0150429e-15
-8.704748e-15
-4.4989428e-15
3.8095426e-14
2.6231135e-14
5.823521e-14
5.8973039e-14
-1.0114574e-14
1.0948277e-14
1.0898292e-14
4.9307038e-14
5.361373e-14
2.0624018e-14
-6.1586658e-14
-9.926773e-14
-8.2704336e-14
-1.1241836e-13
-2.6903773e-13
-2.8395392e-13
-3.6428744e-14
2.4151133e-14
4.022847e-13
5.7326382e-13
)
;
    }
    rightWall
    {
        type            cyclic;
        value           nonuniform List<scalar> 
32
(
2.2189036e-13
2.026354e-13
1.4484506e-13
8.5572197e-14
4.074361e-14
2.3290636e-14
3.2118877e-14
3.9787073e-14
2.0456516e-14
3.0150429e-15
8.704748e-15
4.4989428e-15
-3.8095426e-14
-2.6231135e-14
-5.823521e-14
-5.8973039e-14
1.0114574e-14
-1.0948277e-14
-1.0898292e-14
-4.9307038e-14
-5.361373e-14
-2.0624018e-14
6.1586658e-14
9.926773e-14
8.2704336e-14
1.1241836e-13
2.6903773e-13
2.8395392e-13
3.6428744e-14
-2.4151133e-14
-4.022847e-13
-5.7326382e-13
)
;
    }
    lowerWall
    {
        type            calculated;
        value           uniform 0;
    }
    atmosphere
    {
        type            calculated;
        value           nonuniform List<scalar> 
32
(
8.2780422e-05
7.9592357e-05
7.3339687e-05
6.4264479e-05
5.2717934e-05
3.9146549e-05
2.4074645e-05
8.090196e-06
-8.1532668e-06
-2.4128355e-05
-3.9182503e-05
-5.2730714e-05
-6.4252033e-05
-7.3303859e-05
-7.9538596e-05
-8.2716942e-05
-8.2716942e-05
-7.9538596e-05
-7.3303859e-05
-6.4252033e-05
-5.2730714e-05
-3.9182503e-05
-2.4128355e-05
-8.1532668e-06
8.090196e-06
2.4074645e-05
3.9146549e-05
5.2717934e-05
6.4264479e-05
7.3339687e-05
7.9592357e-05
8.2780422e-05
)
;
    }
    defaultFaces
    {
        type            empty;
        value           nonuniform List<scalar> 0();
    }
}


// ************************************************************************* //
