/*--------------------------------*- C++ -*----------------------------------*\
| =========                 |                                                 |
| \\      /  F ield         | OpenFOAM: The Open Source CFD Toolbox           |
|  \\    /   O peration     | Version:  2306                                  |
|   \\  /    A nd           | Website:  www.openfoam.com                      |
|    \\/     M anipulation  |                                                 |
\*---------------------------------------------------------------------------*/
FoamFile
{
    version     2.0;
    format      ascii;
    arch        "LSB;label=32;scalar=64";
    class       surfaceScalarField;
    location    "0.51";
    object      phi;
}
// * * * * * * * * * * * * * * * * * * * * * * * * * * * * * * * * * * * * * //

dimensions      [0 3 -1 0 0 0 0];

oriented        oriented;

internalField   nonuniform List<scalar> 
12640
(
-6.8397808e-06
-5.0929073e-05
-3.2367558e-06
-4.6641227e-05
-4.3706025e-07
-4.2213732e-05
1.6188285e-06
-3.7787576e-05
2.9799468e-06
-3.3474088e-05
3.7249832e-06
-2.9387888e-05
3.9369066e-06
-2.561658e-05
3.7114753e-06
-2.2225887e-05
3.1442273e-06
-1.9263357e-05
2.3293014e-06
-1.6755614e-05
1.3554305e-06
-1.4708149e-05
3.0848655e-07
-1.3106598e-05
-7.3379872e-07
-1.1924282e-05
-1.7218554e-06
-1.1110549e-05
-2.6048423e-06
-1.0621993e-05
-3.3499604e-06
-1.0395739e-05
-3.9382537e-06
-1.0370741e-05
-4.3633968e-06
-1.048709e-05
-4.6299455e-06
-1.0689477e-05
-4.7511345e-06
-1.0929637e-05
-4.7464746e-06
-1.1167949e-05
-4.6393731e-06
-1.1374183e-05
-4.4550001e-06
-1.1527444e-05
-4.2183472e-06
-1.1615651e-05
-3.9524833e-06
-1.1634805e-05
-3.6773083e-06
-1.1587592e-05
-3.4087944e-06
-1.1481682e-05
-3.1586857e-06
-1.1327986e-05
-2.9345426e-06
-1.113908e-05
-2.7400553e-06
-1.0927917e-05
-2.5756704e-06
-1.0706587e-05
-2.4393422e-06
-1.0485448e-05
-2.3273334e-06
-1.0272617e-05
-2.2349847e-06
-1.0073769e-05
-2.1573834e-06
-9.8922267e-06
-2.0898969e-06
-9.7292531e-06
-2.0285327e-06
-9.5844797e-06
-1.9701342e-06
-9.4563934e-06
-1.9124408e-06
-9.3427983e-06
-1.8540484e-06
-9.2412123e-06
-1.794287e-06
-9.1491958e-06
-1.7330509e-06
-9.0645918e-06
-1.6706177e-06
-8.9856586e-06
-1.6074799e-06
-8.9111156e-06
-1.5442058e-06
-8.8401208e-06
-1.4813373e-06
-8.7722048e-06
-1.4193246e-06
-8.7071825e-06
-1.3584957e-06
-8.6450592e-06
-1.2990521e-06
-8.5859461e-06
-1.2410836e-06
-8.5299914e-06
-1.1845938e-06
-8.477332e-06
-1.1295286e-06
-8.4280655e-06
-1.0758033e-06
-8.382239e-06
-1.023325e-06
-8.3398507e-06
-9.7200702e-07
-8.30086e-06
-9.2177924e-07
-8.2652002e-06
-8.7259092e-07
-8.2327928e-06
-8.2441064e-07
-8.2035589e-06
-7.7722337e-07
-8.1774289e-06
-7.310262e-07
-8.1543476e-06
-6.8582403e-07
-8.1342778e-06
-6.4162557e-07
-8.117201e-06
-5.9844009e-07
-8.1031169e-06
-5.5627491e-07
-8.0920416e-06
-5.1513374e-07
-8.0840067e-06
-4.7501524e-07
-8.0790572e-06
-4.3591219e-07
-8.0772506e-06
-3.9781037e-07
-8.0786557e-06
-3.6068776e-07
-8.0833517e-06
-3.2451344e-07
-8.0914276e-06
-2.8924643e-07
-8.1029803e-06
-2.5483462e-07
-8.1181126e-06
-2.2121376e-07
-8.1369299e-06
-1.8830658e-07
-8.1595336e-06
-1.5602268e-07
-8.1860132e-06
-1.2425883e-07
-8.2164337e-06
-9.2900527e-08
-8.250822e-06
-6.1824673e-08
-8.2891573e-06
-3.0903059e-08
-8.3313807e-06
-8.3776179e-06
-2.018182e-06
-5.5591767e-05
1.6806857e-06
-5.0340095e-05
4.4453562e-06
-4.4978402e-05
6.3313225e-06
-3.9673542e-05
7.4215543e-06
-3.456432e-05
7.810705e-06
-2.9777039e-05
7.6052569e-06
-2.5411132e-05
6.9200093e-06
-2.154064e-05
5.8719224e-06
-1.821527e-05
4.5756658e-06
-1.5459358e-05
3.1396818e-06
-1.3272165e-05
1.663134e-06
-1.163005e-05
2.2989136e-07
-1.049104e-05
-1.0859916e-06
-9.794666e-06
-2.2373048e-06
-9.4706798e-06
-3.1886908e-06
-9.4443535e-06
-3.9228361e-06
-9.6365952e-06
-4.4381555e-06
-9.9717703e-06
-4.7462829e-06
-1.0381349e-05
-4.8690623e-06
-1.0806857e-05
-4.8353572e-06
-1.1201654e-05
-4.6780191e-06
-1.1531521e-05
-4.4312797e-06
-1.1774183e-05
-4.1281567e-06
-1.1918774e-05
-3.7983343e-06
-1.1964627e-05
-3.4667038e-06
-1.1919222e-05
-3.1525664e-06
-1.1795819e-05
-2.869417e-06
-1.1611135e-05
-2.6250974e-06
-1.1383399e-05
-2.4224293e-06
-1.1130585e-05
-2.2601574e-06
-1.0868859e-05
-2.1340284e-06
-1.0611577e-05
-2.0378984e-06
-1.0368747e-05
-1.9647622e-06
-1.0146905e-05
-1.9076399e-06
-9.949349e-06
-1.8602558e-06
-9.7766373e-06
-1.8174464e-06
-9.627289e-06
-1.7753427e-06
-9.4984972e-06
-1.7313841e-06
-9.3867569e-06
-1.6842063e-06
-9.28839e-06
-1.6334144e-06
-9.1999877e-06
-1.5793145e-06
-9.1186917e-06
-1.5226454e-06
-9.0423278e-06
-1.464343e-06
-8.969418e-06
-1.4053561e-06
-8.8991077e-06
-1.3465192e-06
-8.8310418e-06
-1.2884818e-06
-8.7652198e-06
-1.2316854e-06
-8.7018556e-06
-1.1763749e-06
-8.6412565e-06
-1.122634e-06
-8.5837323e-06
-1.0704301e-06
-8.5295359e-06
-1.0196612e-06
-8.4788344e-06
-9.7019575e-07
-8.4317045e-06
-9.2190227e-07
-8.3881442e-06
-8.7466919e-07
-8.3480931e-06
-8.2841455e-07
-8.3114548e-06
-7.8308792e-07
-8.2781194e-06
-7.3866734e-07
-8.2479795e-06
-6.9515311e-07
-8.2209431e-06
-6.5256086e-07
-8.1969398e-06
-6.1091483e-07
-8.1759238e-06
-5.7024251e-07
-8.1578734e-06
-5.3057047e-07
-8.1427889e-06
-4.9192175e-07
-8.1306904e-06
-4.5431405e-07
-8.1216144e-06
-4.1775877e-07
-8.1156125e-06
-3.8226023e-07
-8.1127491e-06
-3.4781486e-07
-8.113101e-06
-3.1441045e-07
-8.1167561e-06
-2.8202493e-07
-8.1238131e-06
-2.5062513e-07
-8.1343801e-06
-2.2016519e-07
-8.1485726e-06
-1.9058529e-07
-8.1665098e-06
-1.6181038e-07
-8.1883085e-06
-1.337496e-07
-8.214074e-06
-1.0629658e-07
-8.2438867e-06
-7.9330724e-08
-8.2777879e-06
-5.2720208e-08
-8.3157678e-06
-2.6326083e-08
-8.3577748e-06
-8.403944e-06
3.8313125e-06
-6.0482901e-05
7.5733152e-06
-5.4082097e-05
1.0221616e-05
-4.7626703e-05
1.1853171e-05
-4.1305098e-05
1.2570302e-05
-3.528145e-05
1.2491832e-05
-2.9698569e-05
1.174992e-05
-2.4669219e-05
1.0484809e-05
-2.0275529e-05
8.8391185e-06
-1.656958e-05
6.9521754e-06
-1.3572414e-05
4.9545054e-06
-1.1274495e-05
2.9635841e-06
-9.6391288e-06
1.0789318e-06
-8.6063875e-06
-6.1917699e-07
-8.0965572e-06
-2.072699e-06
-8.0171578e-06
-3.2467353e-06
-8.2703172e-06
-4.1276279e-06
-8.7557027e-06
-4.7210204e-06
-9.3783778e-06
-5.0485238e-06
-1.0053846e-05
-5.1436515e-06
-1.071173e-05
-5.0476135e-06
-1.1297692e-05
-4.8055977e-06
-1.1773537e-05
-4.4634104e-06
-1.2116371e-05
-4.0640904e-06
-1.2318094e-05
-3.6453554e-06
-1.2383362e-05
-3.2379123e-06
-1.2326665e-05
-2.8646828e-06
-1.2169049e-05
-2.5406501e-06
-1.1935168e-05
-2.2732791e-06
-1.165077e-05
-2.0636036e-06
-1.1340261e-05
-1.9076056e-06
-1.1024856e-05
-1.797745e-06
-1.0721438e-05
-1.7244581e-06
-1.0442034e-05
-1.6775117e-06
-1.0193851e-05
-1.6471932e-06
-9.9796675e-06
-1.6251582e-06
-9.7986723e-06
-1.6048625e-06
-9.6475846e-06
-1.5816917e-06
-9.5216679e-06
-1.5529121e-06
-9.4155366e-06
-1.5174166e-06
-9.3238855e-06
-1.4753478e-06
-9.2420565e-06
-1.4276884e-06
-9.1663511e-06
-1.3758748e-06
-9.0941413e-06
-1.3214742e-06
-9.0238186e-06
-1.2659457e-06
-8.9546362e-06
-1.2104913e-06
-8.8864963e-06
-1.1559867e-06
-8.8197244e-06
-1.1029773e-06
-8.754865e-06
-1.0517178e-06
-8.692516e-06
-1.0022402e-06
-8.6332099e-06
-9.5443032e-07
-8.5773458e-06
-9.0809805e-07
-8.5251666e-06
-8.6303387e-07
-8.4767687e-06
-8.1904811e-07
-8.43213e-06
-7.7599368e-07
-8.3911475e-06
-7.3377435e-07
-8.3536742e-06
-6.9234296e-07
-8.3195508e-06
-6.5169287e-07
-8.2886296e-06
-6.1184676e-07
-8.2607892e-06
-5.7284538e-07
-8.2359412e-06
-5.3473799e-07
-8.2140312e-06
-4.9757491e-07
-8.1950365e-06
-4.6140293e-07
-8.1789609e-06
-4.2626249e-07
-8.1658308e-06
-3.9218647e-07
-8.1556904e-06
-3.5919968e-07
-8.1485993e-06
-3.2731868e-07
-8.1446302e-06
-2.9655141e-07
-8.1438683e-06
-2.6689651e-07
-8.146411e-06
-2.3834208e-07
-8.1523676e-06
-2.1086398e-07
-8.1618582e-06
-1.8442405e-07
-8.1750125e-06
-1.589681e-07
-8.1919657e-06
-1.3442411e-07
-8.2128525e-06
-1.1070123e-07
-8.2377969e-06
-8.7689418e-08
-8.2668985e-06
-6.5260976e-08
-8.3002163e-06
-4.3273486e-08
-8.3377553e-06
-2.1574627e-08
-8.3794737e-06
-8.4255186e-06
1.0869372e-05
-6.5547315e-05
1.4589243e-05
-5.7801968e-05
1.7032993e-05
-5.0070453e-05
1.8299744e-05
-4.2571849e-05
1.8516868e-05
-3.5498574e-05
1.7832275e-05
-2.9013976e-05
1.6408871e-05
-2.3245815e-05
1.4418244e-05
-1.8284902e-05
1.2034116e-05
-1.4185453e-05
9.4256051e-06
-1.0963903e-05
6.7495731e-06
-8.5984625e-06
4.145782e-06
-7.0353377e-06
1.7311465e-06
-6.191752e-06
-4.0261099e-07
-5.9627998e-06
-2.1914652e-06
-6.2283036e-06
-3.6004586e-06
-6.8613237e-06
-4.621586e-06
-7.7345753e-06
-5.2709255e-06
-8.7290383e-06
-5.5838799e-06
-9.7408914e-06
-5.6096056e-06
-1.0686004e-05
-5.4055252e-06
-1.1501772e-05
-5.0329054e-06
-1.2146157e-05
-4.552236e-06
-1.259704e-05
-4.0190106e-06
-1.2851319e-05
-3.4806305e-06
-1.2921742e-05
-2.9744763e-06
-1.2832819e-05
-2.5272605e-06
-1.2616264e-05
-2.1548698e-06
-1.2307559e-05
-1.8633271e-06
-1.1942313e-05
-1.6505292e-06
-1.1553058e-05
-1.5081877e-06
-1.1167198e-05
-1.4240145e-06
-1.0805611e-05
-1.3836836e-06
-1.0482365e-05
-1.3725953e-06
-1.020494e-05
-1.3774767e-06
-9.9747861e-06
-1.3874387e-06
-9.7887103e-06
-1.3943653e-06
-9.640658e-06
-1.3929588e-06
-9.5230744e-06
-1.3805693e-06
-9.4279261e-06
-1.3567075e-06
-9.3477474e-06
-1.3224524e-06
-9.2763116e-06
-1.2798452e-06
-9.2089582e-06
-1.231345e-06
-9.1426416e-06
-1.1793938e-06
-9.0757698e-06
-1.1261168e-06
-9.0079132e-06
-1.0731588e-06
-8.9394543e-06
-1.0216323e-06
-8.8712509e-06
-9.7214743e-07
-8.8043499e-06
-9.2490198e-07
-8.7397615e-06
-8.7980154e-07
-8.6783104e-06
-8.3657966e-07
-8.6205677e-06
-7.9490105e-07
-8.5668452e-06
-7.5443787e-07
-8.5172318e-06
-7.1491857e-07
-8.4716493e-06
-6.7615107e-07
-8.429915e-06
-6.3802633e-07
-8.3917989e-06
-6.0050837e-07
-8.3570687e-06
-5.6361697e-07
-8.325521e-06
-5.2740847e-07
-8.2969977e-06
-4.9195855e-07
-8.2713911e-06
-4.5734878e-07
-8.248641e-06
-4.2365741e-07
-8.2287278e-06
-3.9095428e-07
-8.211664e-06
-3.5929865e-07
-8.1974864e-06
-3.28739e-07
-8.1862501e-06
-2.9931378e-07
-8.1780245e-06
-2.7105216e-07
-8.1728918e-06
-2.4397422e-07
-8.1709462e-06
-2.1809056e-07
-8.1722947e-06
-1.934009e-07
-8.1770572e-06
-1.6989203e-07
-8.185367e-06
-1.4753535e-07
-8.1973692e-06
-1.2628409e-07
-8.213217e-06
-1.0607059e-07
-8.233066e-06
-8.680463e-08
-8.2570628e-06
-6.8372534e-08
-8.2853306e-06
-5.0638324e-08
-8.3179505e-06
-3.3446787e-08
-8.3549468e-06
-1.6628883e-08
-8.3962916e-06
-8.4421474e-06
1.9293767e-05
-7.0741202e-05
2.2909019e-05
-6.141722e-05
2.5035874e-05
-5.2197309e-05
2.5800535e-05
-4.3336509e-05
2.5361109e-05
-3.5059148e-05
2.3900455e-05
-2.7553321e-05
2.1618863e-05
-2.0964223e-05
1.8726336e-05
-1.5392375e-05
1.5434091e-05
-1.0893208e-05
1.1947444e-05
-7.4772568e-06
8.4549847e-06
-5.1060031e-06
5.1240184e-06
-3.7043713e-06
2.0917133e-06
-3.1594469e-06
-5.3816227e-07
-3.3329242e-06
-2.6945166e-06
-4.0719493e-06
-4.3446076e-06
-5.2112327e-06
-5.488939e-06
-6.5902438e-06
-6.1583765e-06
-8.0596008e-06
-6.4071837e-06
-9.4920843e-06
-6.3053122e-06
-1.0787875e-05
-5.931486e-06
-1.1875599e-05
-5.3677824e-06
-1.2709861e-05
-4.6932668e-06
-1.3271556e-05
-3.9788418e-06
-1.3565744e-05
-3.283499e-06
-1.3617085e-05
-2.6521359e-06
-1.3464182e-05
-2.1151435e-06
-1.3153257e-05
-1.6883631e-06
-1.2734339e-05
-1.3746348e-06
-1.2256041e-05
-1.1668249e-06
-1.1760868e-05
-1.0501895e-06
-1.1283833e-05
-1.0057473e-06
-1.0850053e-05
-1.0126911e-06
-1.0475421e-05
-1.0506e-06
-1.0167031e-05
-1.1016256e-06
-9.9237605e-06
-1.1518217e-06
-9.7385142e-06
-1.1913648e-06
-9.6011149e-06
-1.214513e-06
-9.4999262e-06
-1.219151e-06
-9.4232881e-06
-1.2059737e-06
-9.3609247e-06
-1.1775859e-06
-9.3046994e-06
-1.1376277e-06
-9.2489165e-06
-1.0900202e-06
-9.190249e-06
-1.0383874e-06
-9.1274026e-06
-9.8569676e-07
-9.0606038e-06
-9.3410032e-07
-8.9910507e-06
-8.8492092e-07
-8.9204304e-06
-8.3874419e-07
-8.8505266e-06
-7.9559483e-07
-8.7829109e-06
-7.5513295e-07
-8.7187722e-06
-7.1683656e-07
-8.658864e-06
-6.8014686e-07
-8.603535e-06
-6.445674e-07
-8.5528113e-06
-6.0971943e-07
-8.5064972e-06
-5.7536099e-07
-8.4642734e-06
-5.4137947e-07
-8.4257804e-06
-5.0776697e-07
-8.3906812e-06
-4.7458863e-07
-8.3586994e-06
-4.4195183e-07
-8.3296345e-06
-4.0998085e-07
-8.3033621e-06
-3.7879913e-07
-8.2798227e-06
-3.485183e-07
-8.2590087e-06
-3.1923356e-07
-8.2409488e-06
-2.9102327e-07
-8.2256967e-06
-2.6395093e-07
-8.2133224e-06
-2.3806801e-07
-8.2039074e-06
-2.1341579e-07
-8.197544e-06
-1.9002691e-07
-8.1943351e-06
-1.679252e-07
-8.1943964e-06
-1.4712386e-07
-8.1978586e-06
-1.2762314e-07
-8.2048678e-06
-1.0940651e-07
-8.2155858e-06
-9.2437272e-08
-8.2301862e-06
-7.6654118e-08
-8.2488492e-06
-6.196897e-08
-8.2717479e-06
-4.8264703e-08
-8.2990349e-06
-3.5395973e-08
-8.3308193e-06
-2.3192245e-08
-8.3671506e-06
-1.1463709e-08
-8.4080201e-06
-8.4536112e-06
2.9336523e-05
-7.5996403e-05
3.2740707e-05
-6.4821404e-05
3.4409889e-05
-5.3866491e-05
3.4502611e-05
-4.3429232e-05
3.3214415e-05
-3.3770951e-05
3.077006e-05
-2.5108967e-05
2.7414916e-05
-1.7609078e-05
2.3406167e-05
-1.1383626e-05
1.9001082e-05
-6.4881224e-06
1.4450512e-05
-2.9266872e-06
9.9777378e-06
-6.3322851e-07
5.7844573e-06
4.8890922e-07
2.0333488e-06
5.916615e-07
-1.1571532e-06
-1.4242226e-07
-3.7079915e-06
-1.5211109e-06
-5.5962369e-06
-3.3229873e-06
-6.8321475e-06
-5.3543332e-06
-7.4672721e-06
-7.4244762e-06
-7.5815204e-06
-9.377836e-06
-7.2723452e-06
-1.1097051e-05
-6.6465137e-06
-1.250143e-05
-5.8128838e-06
-1.354349e-05
-4.8739617e-06
-1.4210478e-05
-3.9196215e-06
-1.4520084e-05
-3.0226441e-06
-1.4514063e-05
-2.2362283e-06
-1.4250598e-05
-1.5937054e-06
-1.379578e-05
-1.1096869e-06
-1.3218358e-05
-7.8081592e-07
-1.2584912e-05
-5.925774e-07
-1.1949107e-05
-5.2032589e-07
-1.1356085e-05
-5.3584631e-07
-1.0834533e-05
-6.0987503e-07
-1.0401392e-05
-7.1423881e-07
-1.0062667e-05
-8.2539512e-07
-9.8126042e-06
-9.2575891e-07
-9.6381504e-06
-1.0038044e-06
-9.5230694e-06
-1.053841e-06
-9.4498897e-06
-1.0750319e-06
-9.4020972e-06
-1.0701179e-06
-9.3658387e-06
-1.0440838e-06
-9.3307335e-06
-1.0029224e-06
-9.2900778e-06
-9.5259778e-07
-9.2405737e-06
-8.9828993e-07
-9.1817104e-06
-8.4399329e-07
-9.1149005e-06
-7.9240001e-07
-9.042644e-06
-7.4494298e-07
-8.9678874e-06
-7.0201593e-07
-8.8934537e-06
-6.6327928e-07
-8.8216475e-06
-6.2796752e-07
-8.754084e-06
-5.9515632e-07
-8.6916752e-06
-5.6396104e-07
-8.6347302e-06
-5.3365765e-07
-8.5831147e-06
-5.0373806e-07
-8.5364168e-06
-4.7391627e-07
-8.4940952e-06
-4.440998e-07
-8.4555969e-06
-4.1433991e-07
-8.4204411e-06
-3.847778e-07
-8.3882615e-06
-3.555974e-07
-8.3588149e-06
-3.2699012e-07
-8.3319694e-06
-2.9913249e-07
-8.3076803e-06
-2.7217475e-07
-8.2859664e-06
-2.4623824e-07
-8.2668852e-06
-2.2141852e-07
-8.2505165e-06
-1.9779141e-07
-8.2369495e-06
-1.7541953e-07
-8.2262793e-06
-1.5435464e-07
-8.2186089e-06
-1.3464201e-07
-8.2140477e-06
-1.1632017e-07
-8.2127183e-06
-9.9418421e-08
-8.2147603e-06
-8.3953678e-08
-8.2203325e-06
-6.9925079e-08
-8.2296144e-06
-5.7310209e-08
-8.2428011e-06
-4.6056613e-08
-8.2601028e-06
-3.6081088e-08
-8.2817235e-06
-2.7263779e-08
-8.3078522e-06
-1.9449234e-08
-8.3386338e-06
-1.2448909e-08
-8.3741509e-06
-6.0468727e-09
-8.4144222e-06
-8.459658e-06
4.1267298e-05
-8.1222945e-05
4.4325334e-05
-6.787944e-05
4.5361764e-05
-5.4902922e-05
4.4573488e-05
-4.2640956e-05
4.2200944e-05
-3.1398407e-05
3.8519309e-05
-2.1427332e-05
3.3828367e-05
-1.2918137e-05
2.8441532e-05
-5.9967913e-06
2.2663859e-05
-7.1044873e-07
1.6820202e-05
2.9169692e-06
1.1181886e-05
5.0050881e-06
5.9824705e-06
5.6883245e-06
1.4105622e-06
5.1635697e-06
-2.3991925e-06
3.6673325e-06
-5.3842783e-06
1.4639749e-06
-7.4991676e-06
-1.208098e-06
-8.7755416e-06
-4.0779593e-06
-9.297015e-06
-6.9030028e-06
-9.1787279e-06
-9.4961231e-06
-8.5545053e-06
-1.1721273e-05
-7.5680283e-06
-1.3487907e-05
-6.3625205e-06
-1.4748998e-05
-5.0700057e-06
-1.5502992e-05
-3.8035696e-06
-1.578652e-05
-2.6522259e-06
-1.5665406e-05
-1.6782009e-06
-1.5224623e-05
-9.1600325e-07
-1.4557977e-05
-3.7851902e-07
-1.3755842e-05
-5.1036741e-08
-1.2912394e-05
9.4851325e-08
-1.2094995e-05
9.4288087e-08
-1.1355522e-05
-1.0284849e-08
-1.072996e-05
-1.7653705e-07
-1.023514e-05
-3.6959555e-07
-9.8696083e-06
-5.584416e-07
-9.6237581e-06
-7.2059023e-07
-9.4760018e-06
-8.431049e-07
-9.4005547e-06
-9.2121525e-07
-9.3717793e-06
-9.5654298e-07
-9.3667695e-06
-9.5516117e-07
-9.3672205e-06
-9.2565785e-07
-9.3602368e-06
-8.7741694e-07
-9.3383187e-06
-8.1919291e-07
-9.2987977e-06
-7.5816036e-07
-9.242743e-06
-6.9951224e-07
-9.1735486e-06
-6.4642835e-07
-9.0957279e-06
-6.0023193e-07
-9.0140838e-06
-5.6083524e-07
-8.9328504e-06
-5.2723661e-07
-8.8552461e-06
-4.9798125e-07
-8.7833394e-06
-4.7154067e-07
-8.7181158e-06
-4.4657696e-07
-8.659694e-06
-4.2207605e-07
-8.6076156e-06
-3.9738948e-07
-8.5611034e-06
-3.7221513e-07
-8.5192696e-06
-3.4652878e-07
-8.4812832e-06
-3.204935e-07
-8.4464764e-06
-2.943739e-07
-8.4143811e-06
-2.6846651e-07
-8.3847223e-06
-2.4305305e-07
-8.3573828e-06
-2.183757e-07
-8.3323577e-06
-1.9462634e-07
-8.3097158e-06
-1.7194985e-07
-8.2895617e-06
-1.5045313e-07
-8.2720132e-06
-1.302182e-07
-8.2571845e-06
-1.1131571e-07
-8.2451818e-06
-9.3804101e-08
-8.2361205e-06
-7.774111e-08
-8.2301107e-06
-6.3182157e-08
-8.2272772e-06
-5.0175654e-08
-8.2277668e-06
-3.8760609e-08
-8.2317475e-06
-2.8955434e-08
-8.2394195e-06
-2.0760192e-08
-8.2509963e-06
-1.4132358e-08
-8.2667306e-06
-9.0003953e-09
-8.2868554e-06
-5.2418122e-09
-8.3116108e-06
-2.6913358e-09
-8.3411843e-06
-1.1387339e-09
-8.3757035e-06
-3.3703233e-10
-8.4152239e-06
-8.4599951e-06
5.5398883e-05
-8.6303716e-05
5.7941208e-05
-7.0421766e-05
5.8128435e-05
-5.5090148e-05
5.6202297e-05
-4.0714818e-05
5.2455827e-05
-2.7651937e-05
4.7224435e-05
-1.619594e-05
4.0874899e-05
-6.5686002e-06
3.3793083e-05
1.0850247e-06
2.6379425e-05
6.7032093e-06
1.8976658e-05
1.0319736e-05
1.1929381e-05
1.2052366e-05
5.5245042e-06
1.2093201e-05
-1.1072718e-08
1.0699147e-05
-4.5210626e-06
8.1773225e-06
-7.9214093e-06
4.8643215e-06
-1.0231098e-05
1.101591e-06
-1.1469646e-05
-2.8394115e-06
-1.1764847e-05
-6.6078021e-06
-1.1279636e-05
-9.9813334e-06
-1.0196172e-05
-1.2804738e-05
-8.7065819e-06
-1.4977497e-05
-6.9981832e-06
-1.6457397e-05
-5.240106e-06
-1.726107e-05
-3.5736809e-06
-1.7452946e-05
-2.1065794e-06
-1.7132508e-05
-9.1170362e-07
-1.6419499e-05
-2.3477271e-08
-1.5446204e-05
5.6535882e-07
-1.4344678e-05
8.7133402e-07
-1.321837e-05
9.3892614e-07
-1.2162587e-05
8.243171e-07
-1.1240913e-05
5.8731081e-07
-1.0492954e-05
2.8573001e-07
-9.9335592e-06
-2.78189e-08
-9.5560594e-06
-3.1607372e-07
-9.3355033e-06
-5.5314377e-07
-9.2389318e-06
-7.2542445e-07
-9.228274e-06
-8.3053117e-07
-9.2666726e-06
-8.7437935e-07
-9.3229213e-06
-8.6827152e-07
-9.3733284e-06
-8.261469e-07
-9.4023614e-06
-7.6217647e-07
-9.4022891e-06
-6.8884778e-07
-9.3721264e-06
-6.1581427e-07
-9.3157765e-06
-5.4957149e-07
-9.2397914e-06
-4.9356745e-07
-9.1517319e-06
-4.4860164e-07
-9.0590496e-06
-4.1363544e-07
-8.9678166e-06
-3.8655985e-07
-8.8823217e-06
-3.6485749e-07
-8.8050417e-06
-3.4612802e-07
-8.7368453e-06
-3.2843096e-07
-8.677391e-06
-3.1040462e-07
-8.6256419e-06
-2.912783e-07
-8.5802297e-06
-2.7080022e-07
-8.5397476e-06
-2.4910134e-07
-8.5029821e-06
-2.2654138e-07
-8.4690364e-06
-2.0357786e-07
-8.4373446e-06
-1.8066793e-07
-8.4076323e-06
-1.5821073e-07
-8.37984e-06
-1.3652616e-07
-8.3540423e-06
-1.1584569e-07
-8.3303962e-06
-9.6328561e-08
-8.3090789e-06
-7.8080655e-08
-8.2902611e-06
-6.1176498e-08
-8.2740886e-06
-4.5696021e-08
-8.2606623e-06
-3.1691915e-08
-8.2501246e-06
-1.9236244e-08
-8.2425664e-06
-8.4058474e-09
-8.2381076e-06
7.2553467e-10
-8.2368982e-06
8.0949081e-09
-8.2391169e-06
1.3650677e-08
-8.2449753e-06
1.7380701e-08
-8.2547263e-06
1.9288392e-08
-8.2686383e-06
1.944561e-08
-8.2870126e-06
1.796163e-08
-8.3101268e-06
1.5013858e-08
-8.3382365e-06
1.0837809e-08
-8.3715275e-06
5.7193241e-09
-8.4101054e-06
-8.4542757e-06
7.2092868e-05
-9.1088955e-05
7.3908513e-05
-7.223741e-05
7.2980541e-05
-5.4162176e-05
6.960422e-05
-3.7338497e-05
6.4136354e-05
-2.2184071e-05
5.6983557e-05
-9.0431439e-06
4.8600654e-05
1.8143032e-06
3.9454147e-05
1.0231532e-05
3.000988e-05
1.6147476e-05
2.071762e-05
1.9611996e-05
1.1986657e-05
2.0783329e-05
4.1649858e-06
1.9914872e-05
-2.4768943e-06
1.7341027e-05
-7.7598992e-06
1.3460327e-05
-1.1600928e-05
8.7053508e-06
-1.4012911e-05
3.5135741e-06
-1.5098455e-05
-1.7538682e-06
-1.500922e-05
-6.6970372e-06
-1.3974076e-05
-1.1016477e-05
-1.2239541e-05
-1.4539274e-05
-1.006102e-05
-1.7156018e-05
-7.6822578e-06
-1.8836159e-05
-5.3189328e-06
-1.9624395e-05
-3.1468552e-06
-1.9625023e-05
-1.294965e-06
-1.8984398e-05
1.5823533e-07
-1.78727e-05
1.185616e-06
-1.6473584e-05
1.793572e-06
-1.4952634e-05
2.0305265e-06
-1.3455324e-05
1.9641938e-06
-1.2096254e-05
1.6758708e-06
-1.095259e-05
1.2504937e-06
-1.0067577e-05
7.6755285e-07
-9.4506183e-06
2.9349234e-07
-9.0819989e-06
-1.2166617e-07
-8.9203448e-06
-4.4793082e-07
-8.9126671e-06
-6.7331233e-07
-9.0028925e-06
-8.0031295e-07
-9.139672e-06
-8.4197986e-07
-9.2812544e-06
-8.176246e-07
-9.3976836e-06
-7.4901285e-07
-9.4709731e-06
-6.5694401e-07
-9.494358e-06
-5.587865e-07
-9.4702839e-06
-4.6717109e-07
-9.4073919e-06
-3.8978396e-07
-9.3171785e-06
-3.298819e-07
-9.211634e-06
-2.8699123e-07
-9.1019403e-06
-2.5839466e-07
-8.9964131e-06
-2.4023064e-07
-8.9004858e-06
-2.2841712e-07
-8.8168552e-06
-2.193437e-07
-8.7459187e-06
-2.1030422e-07
-8.6864305e-06
-1.9955219e-07
-8.6363939e-06
-1.8627486e-07
-8.5935071e-06
-1.7039889e-07
-8.5556236e-06
-1.5235776e-07
-8.5210232e-06
-1.3283639e-07
-8.4885577e-06
-1.1258258e-07
-8.4575984e-06
-9.2274769e-08
-8.4279401e-06
-7.2455554e-08
-8.3996592e-06
-5.3534751e-08
-8.3729631e-06
-3.5768214e-08
-8.3481627e-06
-1.9311036e-08
-8.3255361e-06
-4.2466651e-09
-8.3053255e-06
9.3614332e-09
-8.2876967e-06
2.1494389e-08
-8.2727952e-06
3.2054854e-08
-8.2606851e-06
4.0962583e-08
-8.2514742e-06
4.8126333e-08
-8.2452714e-06
5.3438974e-08
-8.2422109e-06
5.6798045e-08
-8.242476e-06
5.8117809e-08
-8.2462951e-06
5.7340908e-08
-8.2539494e-06
5.4453726e-08
-8.2657512e-06
4.9491675e-08
-8.2820506e-06
4.2563367e-08
-8.3031985e-06
3.385054e-08
-8.3295237e-06
2.361516e-08
-8.3612921e-06
1.2193161e-08
-8.3986834e-06
-8.4420826e-06
9.1769924e-05
-9.5391953e-05
9.2602195e-05
-7.306968e-05
9.0238466e-05
-5.1798448e-05
8.5035473e-05
-3.2135504e-05
7.7425345e-05
-1.4573943e-05
6.7899572e-05
4.8262821e-07
5.7006201e-05
1.2707675e-05
4.5318429e-05
2.1919304e-05
3.3410432e-05
2.8055473e-05
2.1832014e-05
3.1190414e-05
1.1083151e-05
3.1532192e-05
1.5861485e-06
2.9411874e-05
-6.3233463e-06
2.5250521e-05
-1.2448892e-05
1.9585873e-05
-1.6706693e-05
1.2963152e-05
-1.9132805e-05
5.9396855e-06
-1.9887683e-05
-9.9898944e-07
-1.9192552e-05
-7.392168e-06
-1.7359729e-05
-1.28493e-05
-1.4720212e-05
-1.7178791e-05
-1.161148e-05
-2.026475e-05
-8.3493655e-06
-2.2098274e-05
-5.2076558e-06
-2.2766104e-05
-2.403634e-06
-2.2429045e-05
-8.8966734e-08
-2.1299065e-05
1.6559533e-06
-1.961762e-05
2.804623e-06
-1.7622254e-05
3.3911517e-06
-1.5539163e-05
3.4924027e-06
-1.3556575e-05
3.2116699e-06
-1.1815522e-05
2.6660647e-06
-1.0406984e-05
1.974162e-06
-9.3756739e-06
1.2434754e-06
-8.7199317e-06
5.6111147e-07
-8.399635e-06
-1.135976e-08
-8.3478736e-06
-4.4046105e-07
-8.4835658e-06
-7.1786568e-07
-8.7254879e-06
-8.5484865e-07
-9.002689e-06
-8.7576158e-07
-9.2603415e-06
-8.1195206e-07
-9.4614931e-06
-6.9642719e-07
-9.586498e-06
-5.5901582e-07
-9.6317693e-06
-4.232935e-07
-9.6060062e-06
-3.053063e-07
-9.5253791e-06
-2.1336285e-07
-9.4091219e-06
-1.4978098e-07
-9.2752158e-06
-1.1142856e-07
-9.1402927e-06
-9.2805382e-08
-9.0150363e-06
-8.7364626e-08
-8.9059265e-06
-8.8864094e-08
-8.8153558e-06
-9.2130641e-08
-8.7426522e-06
-9.351145e-08
-8.6850497e-06
-9.0883119e-08
-8.6390222e-06
-8.3586856e-08
-8.6008033e-06
-7.1941453e-08
-8.567269e-06
-5.6924486e-08
-8.5360402e-06
-3.9730653e-08
-8.5057516e-06
-2.1527535e-08
-8.4758015e-06
-3.2872691e-09
-8.4461803e-06
1.4261077e-08
-8.4172076e-06
3.0672374e-08
-8.3893744e-06
4.568788e-08
-8.3631783e-06
5.9196555e-08
-8.3390447e-06
7.1151295e-08
-8.3172802e-06
8.1546599e-08
-8.298092e-06
9.035051e-08
-8.2815991e-06
9.7520564e-08
-8.2678551e-06
1.029618e-07
-8.2569154e-06
1.0654201e-07
-8.2488516e-06
1.0811483e-07
-8.2437837e-06
1.0752828e-07
-8.2418894e-06
1.0464569e-07
-8.2434125e-06
9.93578e-08
-8.2486615e-06
9.1607316e-08
-8.2580007e-06
8.1397376e-08
-8.2718407e-06
6.881337e-08
-8.2906145e-06
5.4037131e-08
-8.3147474e-06
3.7358532e-08
-8.3446135e-06
1.9174982e-08
-8.3804998e-06
-8.4229076e-06
0.00011491959
-9.8983004e-05
0.00011445726
-7.2607352e-05
0.00011027088
-4.7612067e-05
0.00010278687
-2.4651496e-05
9.2524707e-05
-4.3117791e-06
8.0064553e-05
1.2942782e-05
6.6089315e-05
2.6682913e-05
5.129463e-05
3.6713989e-05
3.6384462e-05
4.2965641e-05
2.2035415e-05
4.5539461e-05
8.8638805e-06
4.4703727e-05
-2.6034137e-06
4.0879168e-05
-1.1976639e-05
3.4623747e-05
-1.9013252e-05
2.6622485e-05
-2.3635367e-05
1.7585268e-05
-2.5924916e-05
8.2292345e-06
-2.610388e-05
-8.2002579e-07
-2.4501839e-05
-8.9942091e-06
-2.153947e-05
-1.5811669e-05
-1.7660771e-05
-2.105749e-05
-1.3309898e-05
-2.4615622e-05
-8.8946832e-06
-2.6513488e-05
-4.7608678e-06
-2.689992e-05
-1.1735328e-06
-2.601638e-05
1.6903863e-06
-2.4162984e-05
3.7424686e-06
-2.1669702e-05
4.9806454e-06
-1.8860431e-05
5.4715221e-06
-1.6030039e-05
5.3353607e-06
-1.3420414e-05
4.7242678e-06
-1.1204429e-05
3.8049641e-06
-9.4876806e-06
2.7410866e-06
-8.3117964e-06
1.6768107e-06
-7.6556559e-06
7.25391e-07
-7.4482152e-06
-3.8681428e-08
-7.5838011e-06
-5.8096626e-07
-7.941281e-06
-9.0116449e-07
-8.4052896e-06
-1.0252773e-06
-8.8785762e-06
-9.9501397e-07
-9.2906048e-06
-8.5954352e-07
-9.5969636e-06
-6.677069e-07
-9.7783346e-06
-4.6144723e-07
-9.838029e-06
-2.7199097e-07
-9.7954625e-06
-1.1917865e-07
-9.6781914e-06
-1.094003e-08
-9.5173606e-06
5.4777147e-08
-9.340933e-06
8.3888611e-08
-9.1694042e-06
8.6322808e-08
-9.0174705e-06
7.2810842e-08
-8.8924145e-06
5.2900657e-08
-8.7954456e-06
3.3785272e-08
-8.7235368e-06
2.0072358e-08
-8.6713368e-06
1.3882886e-08
-8.6328328e-06
1.5443158e-08
-8.6023636e-06
2.3565003e-08
-8.5753909e-06
3.6525271e-08
-8.5490005e-06
5.2401718e-08
-8.521628e-06
6.9481986e-08
-8.4928818e-06
8.6403736e-08
-8.4631021e-06
1.0222788e-07
-8.4330317e-06
1.1643389e-07
-8.4035804e-06
1.2881385e-07
-8.3755582e-06
1.3936678e-07
-8.3495977e-06
1.4818076e-07
-8.3260942e-06
1.5533986e-07
-8.3052511e-06
1.6087124e-07
-8.2871305e-06
1.6473559e-07
-8.2717195e-06
1.6681659e-07
-8.2589964e-06
1.6694261e-07
-8.2489776e-06
1.6490473e-07
-8.2417458e-06
1.6048521e-07
-8.2374699e-06
1.5347872e-07
-8.236406e-06
1.4371223e-07
-8.238895e-06
1.3106503e-07
-8.2453535e-06
1.154883e-07
-8.2562639e-06
9.7029222e-08
-8.2721554e-06
7.5856259e-08
-8.2935745e-06
5.2283679e-08
-8.3210409e-06
2.6782733e-08
-8.3549989e-06
-8.3961249e-06
0.00014210722
-0.00010158329
0.00013997774
-7.0477867e-05
0.00013350747
-4.11418e-05
0.00012321533
-1.4359356e-05
0.00010964402
9.2595281e-06
9.3594513e-05
2.8992289e-05
7.5843873e-05
4.4433553e-05
5.7248178e-05
5.5309684e-05
3.8674614e-05
6.1539205e-05
2.095846e-05
6.3255614e-05
4.8541724e-06
6.0808015e-05
-8.9403448e-06
5.4673685e-05
-1.9985895e-05
4.5669298e-05
-2.7993028e-05
3.4629617e-05
-3.2889013e-05
2.2481254e-05
-3.4809983e-05
1.0150204e-05
-3.4070386e-05
-1.559623e-06
-3.1152538e-05
-1.1912057e-05
-2.6617532e-05
-2.0346676e-05
-2.1060916e-05
-2.6614107e-05
-1.5065926e-05
-3.0610612e-05
-9.157704e-06
-3.242171e-05
-3.770937e-06
-3.2286687e-05
7.7182473e-07
-3.0559142e-05
4.2669642e-06
-2.7658124e-05
6.6324528e-06
-2.403519e-05
7.8955664e-06
-2.0123544e-05
8.1739984e-06
-1.6308471e-05
7.6508053e-06
-1.289722e-05
6.5455928e-06
-1.0099216e-05
5.0926559e-06
-8.0347437e-06
3.5159029e-06
-6.7350434e-06
2.0072794e-06
-6.1470324e-06
7.1216183e-07
-6.1530977e-06
-2.8035207e-07
-6.5912872e-06
-9.388277e-07
-7.2828054e-06
-1.2789657e-06
-8.0651517e-06
-1.3504467e-06
-8.8070952e-06
-1.2211856e-06
-9.4198659e-06
-9.6635406e-07
-9.8517951e-06
-6.5676736e-07
-1.0087921e-05
-3.50392e-07
-1.0144404e-05
-8.7792359e-08
-1.0058062e-05
1.0986787e-07
-9.8758516e-06
2.3646944e-07
-9.6439621e-06
2.9779879e-07
-9.4022624e-06
3.0778749e-07
-9.1793929e-06
2.8339028e-07
-8.9930733e-06
2.4128084e-07
-8.8503051e-06
1.9524187e-07
-8.7494066e-06
1.5490316e-07
-8.6831981e-06
1.2599049e-07
-8.6424241e-06
1.1034826e-07
-8.6171905e-06
1.0703555e-07
-8.5990509e-06
1.1351643e-07
-8.5818718e-06
1.2657441e-07
-8.5620585e-06
1.4312658e-07
-8.5381802e-06
1.6061868e-07
-8.5103739e-06
1.7720873e-07
-8.4796921e-06
1.91818e-07
-8.447641e-06
2.0399915e-07
-8.4157615e-06
2.1374498e-07
-8.3853041e-06
2.2127195e-07
-8.3571246e-06
2.2686208e-07
-8.3316843e-06
2.3074175e-07
-8.3091308e-06
2.3301931e-07
-8.289408e-06
2.3366793e-07
-8.2723681e-06
2.3253771e-07
-8.2578662e-06
2.2938833e-07
-8.2458282e-06
2.2392854e-07
-8.2362861e-06
2.1585085e-07
-8.2293922e-06
2.0486085e-07
-8.225416e-06
1.906995e-07
-8.2247337e-06
1.7316437e-07
-8.2278183e-06
1.5213074e-07
-8.2352303e-06
1.2758199e-07
-8.2476067e-06
9.9649283e-08
-8.2656418e-06
6.8658619e-08
-8.2900502e-06
3.5165975e-08
-8.3215062e-06
-8.3609589e-06
0.0001739916
-0.00010285774
0.00016975217
-6.623844e-05
0.00016044883
-3.1838459e-05
0.00014667495
-5.8546924e-07
0.0001290897
2.6844772e-05
0.00010862903
4.9452963e-05
8.6250381e-05
6.68122e-05
6.3000175e-05
7.855989e-05
3.9949207e-05
8.4590172e-05
1.8134613e-05
8.5070209e-05
-1.482223e-06
8.042485e-05
-1.8070282e-05
7.1261745e-05
-3.1047118e-05
5.8646134e-05
-4.0072863e-05
4.3655362e-05
-4.508648e-05
2.749487e-05
-4.6312153e-05
1.1375878e-05
-4.418324e-05
-3.688536e-06
-3.9391912e-05
-1.6703385e-05
-3.2692534e-05
-2.7046053e-05
-2.4882714e-05
-3.4423927e-05
-1.672671e-05
-3.8766616e-05
-8.8979407e-06
-4.0250479e-05
-1.9369286e-06
-3.9247699e-05
3.7546908e-06
-3.6250761e-05
7.9618063e-06
-3.1865239e-05
1.0614664e-05
-2.6688049e-05
1.178808e-05
-2.129696e-05
1.1672452e-05
-1.6192843e-05
1.0538618e-05
-1.1763386e-05
8.7072948e-06
-8.2678933e-06
6.503968e-06
-5.8314169e-06
4.2304449e-06
-4.4615202e-06
2.1375517e-06
-4.0541392e-06
4.1251067e-07
-4.4280566e-06
-8.4541776e-07
-5.3333588e-06
-1.6092659e-06