/*--------------------------------*- C++ -*----------------------------------*\
| =========                 |                                                 |
| \\      /  F ield         | OpenFOAM: The Open Source CFD Toolbox           |
|  \\    /   O peration     | Version:  2106                                  |
|   \\  /    A nd           | Website:  www.openfoam.com                      |
|    \\/     M anipulation  |                                                 |
\*---------------------------------------------------------------------------*/
FoamFile
{
    version     2.0;
    format      ascii;
    arch        "LSB;label=32;scalar=64";
    class       surfaceScalarField;
    location    "2.6";
    object      phi;
}
// * * * * * * * * * * * * * * * * * * * * * * * * * * * * * * * * * * * * * //

dimensions      [0 3 -1 0 0 0 0];

oriented        oriented;

internalField   nonuniform List<scalar> 
179250
(
-8.77793e-08
8.77291e-08
-1.75307e-07
8.75295e-08
-2.6249e-07
8.71823e-08
-3.49182e-07
8.66909e-08
-4.35238e-07
8.60558e-08
-5.20513e-07
8.5276e-08
-6.04864e-07
8.43511e-08
-6.88145e-07
8.32816e-08
-7.70214e-07
8.20686e-08
-8.50927e-07
8.07135e-08
-9.30146e-07
7.92182e-08
-1.00773e-06
7.7585e-08
-1.08355e-06
7.58165e-08
-1.15746e-06
7.39157e-08
-1.22935e-06
7.18856e-08
-1.29908e-06
6.97297e-08
-1.36653e-06
6.74518e-08
-1.43159e-06
6.50557e-08
-1.49413e-06
6.25456e-08
-1.55406e-06
5.99259e-08
-1.61126e-06
5.72012e-08
-1.66563e-06
5.43761e-08
-1.71709e-06
5.14557e-08
-1.76554e-06
4.8445e-08
-1.81088e-06
4.53493e-08
-1.85306e-06
4.21741e-08
-1.89198e-06
3.89249e-08
-1.92759e-06
3.56073e-08
-1.95982e-06
3.22272e-08
-1.98861e-06
2.87906e-08
-2.01391e-06
2.53034e-08
-2.03568e-06
2.17717e-08
-2.05389e-06
1.82018e-08
-2.06849e-06
1.45998e-08
-2.07946e-06
1.09722e-08
-2.08678e-06
7.32529e-09
-2.09045e-06
3.66542e-09
-2.09045e-06
-9.6956e-13
-2.08678e-06
-3.66745e-09
-2.07945e-06
-7.32757e-09
-2.06848e-06
-1.09749e-08
-2.05387e-06
-1.46031e-08
-2.03567e-06
-1.82058e-08
-2.01389e-06
-2.17766e-08
-1.98858e-06
-2.53093e-08
-1.95979e-06
-2.87977e-08
-1.92755e-06
-3.22356e-08
-1.89193e-06
-3.56171e-08
-1.853e-06
-3.89361e-08
-1.81081e-06
-4.21869e-08
-1.76545e-06
-4.53638e-08
-1.71698e-06
-4.84611e-08
-1.66551e-06
-5.14735e-08
-1.61112e-06
-5.43956e-08
-1.55389e-06
-5.72224e-08
-1.49394e-06
-5.99488e-08
-1.43137e-06
-6.257e-08
-1.36629e-06
-6.50815e-08
-1.29881e-06
-6.74789e-08
-1.22906e-06
-6.97579e-08
-1.15714e-06
-7.19145e-08
-1.0832e-06
-7.39449e-08
-1.00735e-06
-7.58457e-08
-9.29738e-07
-7.76133e-08
-8.50493e-07
-7.92448e-08
-7.69756e-07
-8.07372e-08
-6.87668e-07
-8.2088e-08
-6.04373e-07
-8.32947e-08
-5.20018e-07
-8.43553e-08
-4.3475e-07
-8.52679e-08
-3.48719e-07
-8.60308e-08
-2.62076e-07
-8.66427e-08
-1.74973e-07
-8.71027e-08
-8.75638e-08
-8.74097e-08
-4.10638e-13
-8.75634e-08
8.7563e-08
-8.75634e-08
1.74973e-07
-8.74097e-08
2.62075e-07
-8.71027e-08
3.48718e-07
-8.66427e-08
4.34749e-07
-8.60308e-08
5.20017e-07
-8.52679e-08
6.04372e-07
-8.43553e-08
6.87667e-07
-8.32947e-08
7.69755e-07
-8.2088e-08
8.50492e-07
-8.07372e-08
9.29737e-07
-7.92448e-08
1.00735e-06
-7.76133e-08
1.0832e-06
-7.58457e-08
1.15714e-06
-7.39449e-08
1.22906e-06
-7.19145e-08
1.29881e-06
-6.97579e-08
1.36629e-06
-6.74789e-08
1.43137e-06
-6.50815e-08
1.49394e-06
-6.257e-08
1.55389e-06
-5.99488e-08
1.61111e-06
-5.72224e-08
1.66551e-06
-5.43956e-08
1.71698e-06
-5.14735e-08
1.76544e-06
-4.84611e-08
1.81081e-06
-4.53638e-08
1.853e-06
-4.21869e-08
1.89193e-06
-3.89361e-08
1.92755e-06
-3.5617e-08
1.95978e-06
-3.22356e-08
1.98858e-06
-2.87977e-08
2.01389e-06
-2.53093e-08
2.03567e-06
-2.17766e-08
2.05387e-06
-1.82058e-08
2.06848e-06
-1.46031e-08
2.07945e-06
-1.09749e-08
2.08678e-06
-7.32755e-09
2.09045e-06
-3.66742e-09
2.09045e-06
-9.45865e-13
2.08678e-06
3.66544e-09
2.07946e-06
7.32532e-09
2.06848e-06
1.09723e-08
2.05388e-06
1.45999e-08
2.03568e-06
1.82018e-08
2.01391e-06
2.17717e-08
1.98861e-06
2.53034e-08
1.95982e-06
2.87906e-08
1.92759e-06
3.22273e-08
1.89198e-06
3.56073e-08
1.85306e-06
3.89249e-08
1.81088e-06
4.21741e-08
1.76553e-06
4.53494e-08
1.71709e-06
4.84451e-08
1.66563e-06
5.14557e-08
1.61126e-06
5.43762e-08
1.55406e-06
5.72012e-08
1.49413e-06
5.9926e-08
1.43158e-06
6.25457e-08
1.36653e-06
6.50558e-08
1.29908e-06
6.74519e-08
1.22935e-06
6.97298e-08
1.15746e-06
7.18857e-08
1.08355e-06
7.39158e-08
1.00773e-06
7.58167e-08
9.30143e-07
7.75852e-08
8.50925e-07
7.92184e-08
7.70211e-07
8.07137e-08
6.88142e-07
8.20689e-08
6.0486e-07
8.32821e-08
5.20508e-07
8.43519e-08
4.35231e-07
8.52772e-08
3.49173e-07
8.60578e-08
2.62479e-07
8.66938e-08
1.75293e-07
8.71865e-08
8.77542e-08
8.75387e-08
8.77542e-08
-8.79784e-08
1.75709e-07
-1.75731e-07
1.75283e-07
-2.63129e-07
1.74578e-07
-3.5003e-07
1.73592e-07
-4.36294e-07
1.7232e-07
-5.21775e-07
1.70758e-07
-6.06329e-07
1.68905e-07
-6.89811e-07
1.66764e-07
-7.72077e-07
1.64335e-07
-8.52985e-07
1.61621e-07
-9.32394e-07
1.58627e-07
-1.01017e-06
1.55357e-07
-1.08617e-06
1.51816e-07
-1.16026e-06
1.4801e-07
-1.23232e-06
1.43945e-07
-1.30222e-06
1.39628e-07
-1.36983e-06
1.35066e-07
-1.43505e-06
1.30269e-07
-1.49774e-06
1.25242e-07
-1.55781e-06
1.19997e-07
-1.61515e-06
1.14541e-07
-1.66966e-06
1.08884e-07
-1.72124e-06
1.03036e-07
-1.7698e-06
9.70071e-08
-1.81526e-06
9.08083e-08
-1.85754e-06
8.44502e-08
-1.89656e-06
7.79439e-08
-1.93225e-06
7.13007e-08
-1.96455e-06
6.45324e-08
-1.99342e-06
5.76508e-08
-2.01878e-06
5.0668e-08
-2.0406e-06
4.35961e-08
-2.05885e-06
3.64476e-08
-2.07349e-06
2.92351e-08
-2.08448e-06
2.19711e-08
-2.09183e-06
1.46684e-08
-2.0955e-06
7.3398e-09
-2.0955e-06
-1.84002e-12
-2.09182e-06
-7.34365e-09
-2.08448e-06
-1.46728e-08
-2.07348e-06
-2.19763e-08
-2.05884e-06
-2.92415e-08
-2.04059e-06
-3.64555e-08
-2.01876e-06
-4.36057e-08
-1.99339e-06
-5.06797e-08
-1.96452e-06
-5.76649e-08
-1.93221e-06
-6.4549e-08
-1.89651e-06
-7.13201e-08
-1.85748e-06
-7.79663e-08
-1.81519e-06
-8.44758e-08
-1.76971e-06
-9.08372e-08
-1.72114e-06
-9.70394e-08
-1.66954e-06
-1.03071e-07
-1.61501e-06
-1.08923e-07
-1.55765e-06
-1.14583e-07
-1.49756e-06
-1.20042e-07
-1.43484e-06
-1.25291e-07
-1.3696e-06
-1.3032e-07
-1.30195e-06
-1.35121e-07
-1.23203e-06
-1.39684e-07
-1.15994e-06
-1.44003e-07
-1.08582e-06
-1.48069e-07
-1.00979e-06
-1.51875e-07
-9.31986e-07
-1.55414e-07
-8.5255e-07
-1.58681e-07
-7.71617e-07
-1.6167e-07
-6.89331e-07
-1.64375e-07
-6.05834e-07
-1.66791e-07
-5.21275e-07
-1.68915e-07
-4.35801e-07
-1.70742e-07
-3.49562e-07
-1.7227e-07
-2.6271e-07
-1.73495e-07
-1.75397e-07
-1.74416e-07
-8.77756e-08
-1.75031e-07
-4.19761e-13
-1.75338e-07
8.77747e-08
-1.75338e-07
1.75396e-07
-1.75031e-07
2.62709e-07
-1.74416e-07
3.49561e-07
-1.73495e-07
4.358e-07
-1.7227e-07
5.21274e-07
-1.70742e-07
6.05834e-07
-1.68915e-07
6.8933e-07
-1.66791e-07
7.71616e-07
-1.64375e-07
8.52549e-07
-1.6167e-07
9.31985e-07
-1.58681e-07
1.00979e-06
-1.55414e-07
1.08582e-06
-1.51875e-07
1.15994e-06
-1.48069e-07
1.23203e-06
-1.44003e-07
1.30195e-06
-1.39684e-07
1.3696e-06
-1.35121e-07
1.43483e-06
-1.3032e-07
1.49756e-06
-1.25291e-07
1.55765e-06
-1.20042e-07
1.61501e-06
-1.14583e-07
1.66954e-06
-1.08923e-07
1.72114e-06
-1.03071e-07
1.76971e-06
-9.70393e-08
1.81519e-06
-9.08371e-08
1.85748e-06
-8.44757e-08
1.89651e-06
-7.79662e-08
1.93221e-06
-7.13201e-08
1.96452e-06
-6.4549e-08
1.99339e-06
-5.76648e-08
2.01876e-06
-5.06796e-08
2.04059e-06
-4.36057e-08
2.05884e-06
-3.64555e-08
2.07348e-06
-2.92414e-08
2.08448e-06
-2.19763e-08
2.09182e-06
-1.46727e-08
2.0955e-06
-7.34361e-09
2.0955e-06
-1.79498e-12
2.09183e-06
7.33984e-09
2.08448e-06
1.46684e-08
2.07348e-06
2.19711e-08
2.05885e-06
2.92351e-08
2.0406e-06
3.64477e-08
2.01878e-06
4.35962e-08
1.99341e-06
5.0668e-08
1.96455e-06
5.76509e-08
1.93225e-06
6.45325e-08
1.89655e-06
7.13008e-08
1.85754e-06
7.79439e-08
1.81526e-06
8.44503e-08
1.7698e-06
9.08084e-08
1.72124e-06
9.70073e-08
1.66966e-06
1.03036e-07
1.61515e-06
1.08884e-07
1.55781e-06
1.14541e-07
1.49774e-06
1.19997e-07
1.43504e-06
1.25243e-07
1.36983e-06
1.30269e-07
1.30222e-06
1.35067e-07
1.23232e-06
1.39628e-07
1.16026e-06
1.43945e-07
1.08616e-06
1.4801e-07
1.01016e-06
1.51816e-07
9.32392e-07
1.55358e-07
8.52982e-07
1.58628e-07
7.72074e-07
1.61622e-07
6.89807e-07
1.64335e-07
6.06325e-07
1.66765e-07
5.2177e-07
1.68907e-07
4.36288e-07
1.7076e-07
3.50023e-07
1.72323e-07
2.6312e-07
1.73597e-07
1.75722e-07
1.74584e-07
8.79692e-08
1.75292e-07
1.75723e-07
-8.83255e-08
2.64034e-07
-1.76434e-07
2.6339e-07
-2.64184e-07
2.62328e-07
-3.51436e-07
2.60844e-07
-4.38047e-07
2.58931e-07
-5.23871e-07
2.56582e-07
-6.08764e-07
2.53799e-07
-6.92581e-07
2.50581e-07
-7.75178e-07
2.46931e-07
-8.5641e-07
2.42854e-07
-9.36138e-07
2.38355e-07
-1.01422e-06
2.33441e-07
-1.09053e-06
2.2812e-07
-1.16492e-06
2.22401e-07
-1.23727e-06
2.16293e-07
-1.30745e-06
2.09807e-07
-1.37533e-06
2.02953e-07
-1.44081e-06
1.95743e-07
-1.50376e-06
1.88191e-07
-1.56407e-06
1.80309e-07
-1.62164e-06
1.7211e-07
-1.67636e-06
1.6361e-07
-1.72815e-06
1.54823e-07
-1.77691e-06
1.45764e-07
-1.82255e-06
1.3645e-07
-1.865e-06
1.26896e-07
-1.90417e-06
1.1712e-07
-1.94001e-06
1.07138e-07
-1.97244e-06
9.69675e-08
-2.00142e-06
8.66271e-08
-2.02689e-06
7.61346e-08
-2.0488e-06
6.55083e-08
-2.06712e-06
5.47669e-08
-2.08181e-06
4.39293e-08
-2.09286e-06
3.30143e-08
-2.10023e-06
2.20412e-08
-2.10392e-06
1.10291e-08
-2.10392e-06
-2.53866e-12
-2.10023e-06
-1.10344e-08
-2.09285e-06
-2.20473e-08
-2.08181e-06
-3.30217e-08
-2.06711e-06
-4.39384e-08
-2.04879e-06
-5.47783e-08
-2.02687e-06
-6.55224e-08
-2.0014e-06
-7.61518e-08
-1.97241e-06
-8.66479e-08
-1.93997e-06
-9.69921e-08
-1.90412e-06
-1.07167e-07
-1.86494e-06
-1.17153e-07
-1.82248e-06
-1.26934e-07
-1.77682e-06
-1.36493e-07
-1.72805e-06
-1.45813e-07
-1.67625e-06
-1.54876e-07
-1.6215e-06
-1.63669e-07
-1.56391e-06
-1.72174e-07
-1.50357e-06
-1.80377e-07
-1.4406e-06
-1.88264e-07
-1.3751e-06
-1.95821e-07
-1.30719e-06
-2.03035e-07
-1.23698e-06
-2.09892e-07
-1.1646e-06
-2.16381e-07
-1.09018e-06
-2.2249e-07
-1.01384e-06
-2.28209e-07
-9.35731e-07
-2.33528e-07
-8.55975e-07
-2.38437e-07
-7.74717e-07
-2.42927e-07
-6.921e-07
-2.46992e-07
-6.08269e-07
-2.50623e-07
-5.2337e-07
-2.53814e-07
-4.37552e-07
-2.56559e-07
-3.50967e-07
-2.58855e-07
-2.63766e-07
-2.60696e-07
-1.76101e-07
-2.6208e-07
-8.81282e-08
-2.63004e-07
-4.28014e-13
-2.63466e-07
8.81274e-08
-2.63466e-07
1.76101e-07
-2.63004e-07
2.63765e-07
-2.6208e-07
3.50966e-07
-2.60696e-07
4.37551e-07
-2.58855e-07
5.23369e-07
-2.56559e-07
6.08268e-07
-2.53814e-07
6.92099e-07
-2.50623e-07
7.74717e-07
-2.46992e-07
8.55974e-07
-2.42927e-07
9.3573e-07
-2.38437e-07
1.01384e-06
-2.33528e-07
1.09018e-06
-2.28209e-07
1.1646e-06
-2.2249e-07
1.23698e-06
-2.16381e-07
1.30718e-06
-2.09892e-07
1.3751e-06
-2.03035e-07
1.4406e-06
-1.95821e-07
1.50357e-06
-1.88264e-07
1.56391e-06
-1.80377e-07
1.6215e-06
-1.72174e-07
1.67624e-06
-1.63669e-07
1.72805e-06
-1.54876e-07
1.77682e-06
-1.45813e-07
1.82248e-06
-1.36493e-07
1.86494e-06
-1.26934e-07
1.90412e-06
-1.17153e-07
1.93997e-06
-1.07166e-07
1.97241e-06
-9.69921e-08
2.0014e-06
-8.66478e-08
2.02687e-06
-7.61518e-08
2.04878e-06
-6.55224e-08
2.06711e-06
-5.47783e-08
2.0818e-06
-4.39383e-08
2.09285e-06
-3.30216e-08
2.10022e-06
-2.20472e-08
2.10392e-06
-1.10344e-08
2.10392e-06
-2.47231e-12
2.10023e-06
1.10292e-08
2.09285e-06
2.20412e-08
2.08181e-06
3.30144e-08
2.06712e-06
4.39293e-08
2.0488e-06
5.4767e-08
2.02688e-06
6.55084e-08
2.00142e-06
7.61347e-08
1.97244e-06
8.66272e-08
1.94001e-06
9.69676e-08
1.90417e-06
1.07138e-07
1.86499e-06
1.1712e-07
1.82255e-06
1.26896e-07
1.77691e-06
1.3645e-07
1.72815e-06
1.45765e-07
1.67636e-06
1.54823e-07
1.62164e-06
1.6361e-07
1.56407e-06
1.72111e-07
1.50375e-06
1.80309e-07
1.4408e-06
1.88191e-07
1.37533e-06
1.95744e-07
1.30744e-06
2.02953e-07
1.23726e-06
2.09807e-07
1.16492e-06
2.16294e-07
1.09052e-06
2.22402e-07
1.01422e-06
2.28121e-07
9.36135e-07
2.33442e-07
8.56407e-07
2.38356e-07
7.75175e-07
2.42855e-07
6.92578e-07
2.46932e-07
6.08761e-07
2.50582e-07
5.23867e-07
2.53801e-07
4.38042e-07
2.56585e-07
3.51431e-07
2.58934e-07
2.64178e-07
2.60849e-07
1.76428e-07
2.62335e-07
8.83214e-08
2.63399e-07
2.64045e-07
-8.88187e-08
3.52852e-07
-1.77421e-07
3.51993e-07
-2.65665e-07
3.50572e-07
-3.53407e-07
3.48587e-07
-4.40505e-07
3.46028e-07
-5.26812e-07
3.4289e-07
-6.12182e-07
3.39169e-07
-6.96469e-07
3.34868e-07
-7.79529e-07
3.29991e-07
-8.61217e-07
3.24542e-07
-9.41393e-07
3.1853e-07
-1.01992e-06
3.11964e-07
-1.09665e-06
3.04853e-07
-1.17146e-06
2.9721e-07
-1.24421e-06
2.89048e-07
-1.31478e-06
2.80379e-07
-1.38305e-06
2.7122e-07
-1.44889e-06
2.61586e-07
-1.5122e-06
2.51493e-07
-1.57285e-06
2.40959e-07
-1.63074e-06
2.30003e-07
-1.68577e-06
2.18644e-07
-1.73785e-06
2.06901e-07
-1.78688e-06
1.94795e-07
-1.83278e-06
1.82348e-07
-1.87546e-06
1.69581e-07
-1.91486e-06
1.56516e-07
-1.9509e-06
1.43176e-07
-1.98352e-06
1.29585e-07
-2.01266e-06
1.15766e-07
-2.03827e-06
1.01744e-07
-2.0603e-06
8.75438e-08
-2.07872e-06
7.31893e-08
-2.0935e-06
5.87062e-08
-2.10461e-06
4.41197e-08
-2.11202e-06
2.94556e-08
-2.11573e-06
1.47394e-08
-2.11573e-06
-2.98824e-12
-2.11202e-06
-1.47457e-08
-2.1046e-06
-2.94629e-08
-2.0935e-06
-4.41288e-08
-2.07872e-06
-5.87176e-08
-2.06029e-06
-7.32038e-08
-2.03825e-06
-8.75619e-08
-2.01264e-06
-1.01767e-07
-1.98349e-06
-1.15793e-07
-1.95087e-06
-1.29617e-07
-1.91482e-06
-1.43214e-07
-1.87541e-06
-1.5656e-07
-1.83272e-06
-1.69631e-07
-1.7868e-06
-1.82405e-07
-1.73776e-06
-1.9486e-07
-1.68566e-06
-2.06972e-07
-1.63061e-06
-2.18722e-07
-1.57269e-06
-2.30088e-07
-1.51202e-06
-2.41051e-07
-1.44869e-06
-2.51591e-07
-1.38282e-06
-2.6169e-07
-1.31453e-06
-2.7133e-07
-1.24393e-06
-2.80493e-07
-1.17114e-06
-2.89165e-07
-1.0963e-06
-2.9733e-07
-1.01954e-06
-3.04972e-07
-9.40987e-07
-3.1208e-07
-8.60784e-07
-3.1864e-07
-7.7907e-07
-3.24641e-07
-6.95988e-07
-3.30073e-07
-6.11686e-07
-3.34925e-07
-5.2631e-07
-3.3919e-07
-4.4001e-07
-3.42859e-07
-3.52938e-07
-3.45927e-07
-2.65247e-07
-3.48387e-07
-1.77091e-07
-3.50237e-07
-8.86233e-08
-3.51471e-07
-4.35096e-13
-3.52089e-07
8.86225e-08
-3.52089e-07
1.7709e-07
-3.51471e-07
2.65246e-07
-3.50237e-07
3.52938e-07
-3.48387e-07
4.40009e-07
-3.45927e-07
5.26309e-07
-3.42859e-07
6.11685e-07
-3.3919e-07
6.95987e-07
-3.34925e-07
7.79069e-07
-3.30073e-07
8.60783e-07
-3.24641e-07
9.40986e-07
-3.1864e-07
1.01954e-06
-3.1208e-07
1.0963e-06
-3.04972e-07
1.17114e-06
-2.9733e-07
1.24393e-06
-2.89165e-07
1.31453e-06
-2.80493e-07
1.38282e-06
-2.7133e-07
1.44869e-06
-2.6169e-07
1.51202e-06
-2.51591e-07
1.57269e-06
-2.41051e-07
1.63061e-06
-2.30088e-07
1.68566e-06
-2.18722e-07
1.73775e-06
-2.06972e-07
1.7868e-06
-1.9486e-07
1.83271e-06
-1.82405e-07
1.87541e-06
-1.69631e-07
1.91482e-06
-1.5656e-07
1.95087e-06
-1.43214e-07
1.98349e-06
-1.29617e-07
2.01264e-06
-1.15793e-07
2.03825e-06
-1.01767e-07
2.06029e-06
-8.75618e-08
2.07872e-06
-7.32037e-08
2.09349e-06
-5.87176e-08
2.1046e-06
-4.41287e-08
2.11202e-06
-2.94629e-08
2.11573e-06
-1.47456e-08
2.11573e-06
-2.90092e-12
2.11202e-06
1.47395e-08
2.1046e-06
2.94557e-08
2.0935e-06
4.41198e-08
2.07872e-06
5.87063e-08
2.0603e-06
7.31894e-08
2.03826e-06
8.75439e-08
2.01265e-06
1.01745e-07
1.98352e-06
1.15766e-07
1.9509e-06
1.29585e-07
1.91486e-06
1.43176e-07
1.87546e-06
1.56516e-07
1.83278e-06
1.69581e-07
1.78688e-06
1.82348e-07
1.73785e-06
1.94796e-07
1.68577e-06
2.06901e-07
1.63074e-06
2.18644e-07
1.57284e-06
2.30004e-07
1.51219e-06
2.4096e-07
1.44889e-06
2.51493e-07
1.38305e-06
2.61586e-07
1.31478e-06
2.7122e-07
1.24421e-06
2.8038e-07
1.17145e-06
2.89048e-07
1.09665e-06
2.97211e-07
1.01991e-06
3.04854e-07
9.4139e-07
3.11965e-07
8.61215e-07
3.18531e-07
7.79526e-07
3.24543e-07
6.96466e-07
3.29992e-07
6.12179e-07
3.3487e-07
5.26808e-07
3.39171e-07
4.40501e-07
3.42892e-07
3.53403e-07
3.46032e-07
2.6566e-07
3.48592e-07
1.77417e-07
3.50578e-07
8.88158e-08
3.52e-07
3.52861e-07
-8.94593e-08
4.42311e-07
-1.78702e-07
4.41236e-07
-2.67584e-07
4.39454e-07
-3.55961e-07
4.36965e-07
-4.43689e-07
4.33757e-07
-5.30621e-07
4.29821e-07
-6.16609e-07
4.25157e-07
-7.01506e-07
4.19765e-07
-7.85166e-07
4.13651e-07
-8.67446e-07
4.06821e-07
-9.48201e-07
3.99285e-07
-1.02729e-06
3.91054e-07
-1.10458e-06
3.82141e-07
-1.17993e-06
3.7256e-07
-1.25321e-06
3.62328e-07
-1.32429e-06
3.51462e-07
-1.39305e-06
3.39981e-07
-1.45937e-06
3.27904e-07
-1.52313e-06
3.15253e-07
-1.58422e-06
3.02049e-07
-1.64253e-06
2.88315e-07
-1.69797e-06
2.74076e-07
-1.75042e-06
2.59356e-07
-1.79981e-06
2.44181e-07
-1.84604e-06
2.28578e-07
-1.88903e-06
2.12574e-07
-1.92871e-06
1.96197e-07
-1.96501e-06
1.79475e-07
-1.99786e-06
1.62438e-07
-2.02722e-06
1.45117e-07
-2.05301e-06
1.2754e-07
-2.07521e-06
1.09739e-07
-2.09376e-06
9.17453e-08
-2.10865e-06
7.35903e-08
-2.11983e-06
5.53059e-08
-2.1273e-06
3.69239e-08
-2.13104e-06
1.84768e-08
-2.13104e-06
-3.10446e-12
-2.1273e-06
-1.84835e-08
-2.11983e-06
-3.69319e-08
-2.10864e-06
-5.5316e-08
-2.09376e-06
-7.36035e-08
-2.0752e-06
-9.17623e-08
-2.053e-06
-1.09761e-07
-2.0272e-06
-1.27567e-07
-1.99784e-06
-1.4515e-07
-1.96498e-06
-1.62478e-07
-1.92868e-06
-1.79522e-07
-1.88898e-06
-1.96251e-07
-1.84598e-06
-2.12637e-07
-1.79973e-06
-2.28649e-07
-1.75033e-06
-2.44261e-07
-1.69786e-06
-2.59445e-07
-1.64241e-06
-2.74174e-07
-1.58407e-06
-2.88422e-07
-1.52296e-06
-3.02164e-07
-1.45918e-06
-3.15376e-07
-1.39283e-06
-3.28035e-07
-1.32404e-06
-3.40119e-07
-1.25293e-06
-3.51606e-07
-1.17962e-06
-3.62476e-07
-1.10424e-06
-3.72711e-07
-1.02692e-06
-3.82291e-07
-9.47798e-07
-3.91201e-07
-8.67014e-07
-3.99424e-07
-7.84709e-07
-4.06947e-07
-7.01026e-07
-4.13755e-07
-6.16114e-07
-4.19838e-07
-5.3012e-07
-4.25184e-07
-4.43195e-07
-4.29783e-07
-3.55493e-07
-4.33629e-07
-2.67167e-07
-4.36713e-07
-1.78373e-07
-4.39031e-07
-8.92649e-08
-4.40579e-07
-4.40977e-13
-4.41354e-07
8.9264e-08
-4.41354e-07
1.78372e-07
-4.40579e-07
2.67167e-07
-4.39031e-07
3.55492e-07
-4.36713e-07
4.43194e-07
-4.33629e-07
5.30119e-07
-4.29783e-07
6.16113e-07
-4.25184e-07
7.01025e-07
-4.19838e-07
7.84708e-07
-4.13755e-07
8.67013e-07
-4.06947e-07
9.47797e-07
-3.99424e-07
1.02692e-06
-3.91201e-07
1.10424e-06
-3.82291e-07
1.17962e-06
-3.72711e-07
1.25293e-06
-3.62476e-07
1.32404e-06
-3.51606e-07
1.39283e-06
-3.40119e-07
1.45918e-06
-3.28035e-07
1.52296e-06
-3.15376e-07
1.58407e-06
-3.02164e-07
1.64241e-06
-2.88422e-07
1.69786e-06
-2.74174e-07
1.75033e-06
-2.59445e-07
1.79973e-06
-2.44261e-07
1.84598e-06
-2.28649e-07
1.88898e-06
-2.12637e-07
1.92867e-06
-1.96251e-07
1.96498e-06
-1.79522e-07
1.99784e-06
-1.62478e-07
2.0272e-06
-1.45149e-07
2.053e-06
-1.27567e-07
2.0752e-06
-1.09761e-07
2.09376e-06
-9.17622e-08
2.10864e-06
-7.36034e-08
2.11983e-06
-5.53159e-08
2.1273e-06
-3.69318e-08
2.13104e-06
-1.84834e-08
2.13104e-06
-2.99626e-12
2.1273e-06
1.8477e-08
2.11983e-06
3.69241e-08
2.10864e-06
5.5306e-08
2.09376e-06
7.35905e-08
2.0752e-06
9.17455e-08
2.05301e-06
1.09739e-07
2.02721e-06
1.2754e-07
1.99786e-06
1.45117e-07
1.96501e-06
1.62439e-07
1.92871e-06
1.79475e-07
1.88903e-06
1.96197e-07
1.84604e-06
2.12574e-07
1.79981e-06
2.28579e-07
1.75042e-06
2.44182e-07
1.69796e-06
2.59357e-07
1.64253e-06
2.74076e-07
1.58422e-06
2.88316e-07
1.52313e-06
3.02049e-07
1.45937e-06
3.15253e-07
1.39305e-06
3.27905e-07
1.32429e-06
3.39982e-07
1.25321e-06
3.51463e-07
1.17993e-06
3.62329e-07
1.10458e-06
3.72561e-07
1.02729e-06
3.82142e-07
9.48198e-07
3.91055e-07
8.67443e-07
3.99286e-07
7.85164e-07
4.06823e-07
7.01503e-07
4.13653e-07
6.16606e-07
4.19767e-07
5.30618e-07
4.25159e-07
4.43686e-07
4.29824e-07
3.55958e-07
4.3376e-07
2.6758e-07
4.36969e-07
1.78699e-07
4.39459e-07
8.94573e-08
4.41242e-07
4.42318e-07
-9.02504e-08
5.32562e-07
-1.80283e-07
5.31269e-07
-2.69952e-07
5.29124e-07
-3.59112e-07
5.26126e-07
-4.47618e-07
5.22262e-07
-5.3532e-07
5.17523e-07
-6.22069e-07
5.11907e-07
-7.07719e-07
5.05415e-07
-7.92121e-07
4.98053e-07
-8.75129e-07
4.89829e-07
-9.56599e-07
4.80755e-07
-1.03639e-06
4.70845e-07
-1.11436e-06
4.60113e-07
-1.19038e-06
4.48578e-07
-1.26431e-06
4.36258e-07
-1.33602e-06
4.23175e-07
-1.40539e-06
4.09351e-07
-1.4723e-06
3.9481e-07
-1.53663e-06
3.79578e-07
-1.59826e-06
3.6368e-07
-1.65708e-06
3.47144e-07
-1.71301e-06
3.29999e-07
-1.76593e-06
3.12276e-07
-1.81575e-06
2.94005e-07
-1.86239e-06
2.75218e-07
-1.90577e-06
2.55949e-07
-1.9458e-06
2.3623e-07
-1.98242e-06
2.16096e-07
-2.01557e-06
1.95584e-07
-2.04518e-06
1.74727e-07
-2.0712e-06
1.53564e-07
-2.09359e-06
1.32131e-07
-2.11231e-06
1.10466e-07
-2.12733e-06
8.86068e-08
-2.13862e-06
6.65915e-08
-2.14615e-06
4.44589e-08
-2.14992e-06
2.22478e-08
-2.14992e-06
-2.79721e-12
-2.14615e-06
-2.2254e-08
-2.13862e-06
-4.44667e-08
-2.12733e-06
-6.66019e-08
-2.11231e-06
-8.86209e-08
-2.09359e-06
-1.10485e-07
-2.0712e-06
-1.32156e-07
-2.04517e-06
-1.53595e-07
-2.01555e-06
-1.74765e-07
-1.9824e-06
-1.9563e-07
-1.94577e-06
-2.16152e-07
-1.90573e-06
-2.36294e-07
-1.86234e-06
-2.56023e-07
-1.81569e-06
-2.75303e-07
-1.76585e-06
-2.94101e-07
-1.71291e-06
-3.12383e-07
-1.65697e-06
-3.30117e-07
-1.59812e-06
-3.47272e-07
-1.53646e-06
-3.63818e-07
-1.47211e-06
-3.79726e-07
-1.40518e-06
-3.94968e-07
-1.33578e-06
-4.09518e-07
-1.26404e-06
-4.23349e-07
-1.19008e-06
-4.36437e-07
-1.11403e-06
-4.4876e-07
-1.03602e-06
-4.60295e-07
-9.56201e-07
-4.71023e-07
-8.74701e-07
-4.80924e-07
-7.91666e-07
-4.89982e-07
-7.07242e-07
-4.9818e-07
-6.21576e-07
-5.05503e-07
-5.3482e-07
-5.1194e-07
-4.47125e-07
-5.17478e-07
-3.58645e-07
-5.22108e-07
-2.69536e-07
-5.25822e-07
-1.79954e-07
-5.28613e-07
-9.00563e-08
-5.30477e-07
-4.45042e-13
-5.3141e-07
9.00554e-08
-5.3141e-07
1.79953e-07
-5.30477e-07
2.69535e-07
-5.28613e-07
3.58644e-07
-5.25822e-07
4.47124e-07
-5.22108e-07
5.34819e-07
-5.17478e-07
6.21575e-07
-5.1194e-07
7.07241e-07
-5.05503e-07
7.91665e-07
-4.9818e-07
8.747e-07
-4.89982e-07
9.56201e-07
-4.80924e-07
1.03602e-06
-4.71023e-07
1.11403e-06
-4.60295e-07
1.19008e-06
-4.4876e-07
1.26404e-06
-4.36437e-07
1.33578e-06
-4.23349e-07
1.40518e-06
-4.09518e-07
1.47211e-06
-3.94968e-07
1.53646e-06
-3.79726e-07
1.59812e-06
-3.63818e-07
1.65697e-06
-3.47272e-07
1.71291e-06
-3.30117e-07
1.76585e-06
-3.12382e-07
1.81569e-06
-2.94101e-07
1.86234e-06
-2.75303e-07
1.90573e-06
-2.56023e-07
1.94577e-06
-2.36294e-07
1.9824e-06
-2.16151e-07
2.01555e-06
-1.9563e-07
2.04517e-06
-1.74765e-07
2.0712e-06
-1.53595e-07
2.09359e-06
-1.32156e-07
2.11231e-06
-1.10485e-07
2.12733e-06
-8.86207e-08
2.13862e-06
-6.66018e-08
2.14615e-06
-4.44666e-08
2.14992e-06
-2.22539e-08
2.14992e-06
-2.66785e-12
2.14615e-06
2.2248e-08
2.13861e-06
4.44591e-08
2.12733e-06
6.65917e-08
2.11231e-06
8.8607e-08
2.09359e-06
1.10466e-07
2.0712e-06
1.32131e-07
2.04518e-06
1.53564e-07
2.01556e-06
1.74727e-07
1.98242e-06
1.95584e-07
1.9458e-06
2.16097e-07
1.90576e-06
2.3623e-07
1.86239e-06
2.55949e-07
1.81575e-06
2.75219e-07
1.76593e-06
2.94006e-07
1.71301e-06
3.12277e-07
1.65708e-06
3.3e-07
1.59825e-06
3.47144e-07
1.53662e-06
3.6368e-07
1.4723e-06
3.79578e-07
1.40539e-06
3.94811e-07
1.33602e-06
4.09352e-07
1.26431e-06
4.23176e-07
1.19038e-06
4.36259e-07
1.11436e-06
4.48579e-07
1.03639e-06
4.60114e-07
9.56597e-07
4.70846e-07
8.75126e-07
4.80757e-07
7.92118e-07
4.89831e-07
7.07716e-07
4.98054e-07
6.22067e-07
5.05417e-07
5.35317e-07
5.11909e-07
4.47615e-07
5.17526e-07
3.5911e-07
5.22265e-07
2.69949e-07
5.2613e-07
1.80281e-07
5.29128e-07
9.02491e-08
5.31273e-07
5.32567e-07
-9.11952e-08
6.23757e-07
-1.8217e-07
6.22244e-07
-2.72778e-07
6.19732e-07
-3.62873e-07
6.16222e-07
-4.52306e-07
6.11695e-07
-5.40927e-07
6.06144e-07
-6.28586e-07
5.99565e-07
-7.15133e-07
5.91962e-07
-8.0042e-07
5.83339e-07
-8.84298e-07
5.73707e-07
-9.66622e-07
5.6308e-07
-1.04725e-06
5.51472e-07
-1.12604e-06
5.38903e-07
-1.20285e-06
5.25392e-07
-1.27756e-06
5.10963e-07
-1.35002e-06
4.9564e-07
-1.42012e-06
4.79449e-07
-1.48773e-06
4.62418e-07
-1.55273e-06
4.44577e-07
-1.615e-06
4.25956e-07
-1.67445e-06
4.06589e-07
-1.73096e-06
3.86509e-07
-1.78443e-06
3.65751e-07
-1.83478e-06
3.44351e-07
-1.88191e-06
3.22348e-07
-1.92574e-06
2.99778e-07
-1.96619e-06
2.76683e-07
-2.0032e-06
2.53102e-07
-2.03669e-06
2.29076e-07
-2.06661e-06
2.04649e-07
-2.09291e-06
1.79862e-07
-2.11554e-06
1.54759e-07
-2.13445e-06
1.29384e-07
-2.14963e-06
1.03781e-07
-2.16103e-06
7.7996e-08
-2.16865e-06
5.20734e-08
-2.17246e-06
2.60589e-08
-2.17246e-06
-1.97062e-12
-2.16865e-06
-2.60635e-08
-2.16104e-06
-5.20799e-08
-2.14963e-06
-7.80056e-08
-2.13446e-06
-1.03795e-07
-2.11554e-06
-1.29403e-07
-2.09291e-06
-1.54785e-07
-2.06661e-06
-1.79896e-07
-2.03668e-06
-2.04691e-07
-2.00319e-06
-2.29129e-07
-1.96617e-06
-2.53165e-07
-1.92571e-06
-2.76757e-07
-1.88187e-06
-2.99864e-07
-1.83473e-06
-3.22446e-07
-1.78436e-06
-3.44462e-07
-1.73087e-06
-3.65875e-07
-1.67434e-06
-3.86646e-07
-1.61488e-06
-4.06739e-07
-1.55258e-06
-4.26119e-07
-1.48755e-06
-4.44751e-07
-1.41992e-06
-4.62603e-07
-1.34979e-06
-4.79644e-07
-1.27729e-06
-4.95844e-07
-1.20256e-06
-5.11174e-07
-1.12571e-06
-5.25607e-07
-1.04689e-06
-5.39117e-07
-9.6623e-07
-5.51682e-07
-8.83875e-07
-5.63279e-07
-7.99969e-07
-5.73888e-07
-7.14659e-07
-5.8349e-07
-6.28095e-07
-5.92067e-07
-5.40429e-07
-5.99606e-07
-4.51814e-07
-6.06093e-07
-3.62407e-07
-6.11516e-07
-2.72363e-07
-6.15866e-07
-1.81842e-07
-6.19135e-07
-9.10009e-08
-6.21318e-07
-4.49533e-13
-6.2241e-07
9.1e-08
-6.2241e-07
1.81841e-07
-6.21318e-07
2.72362e-07
-6.19135e-07
3.62406e-07
-6.15866e-07
4.51813e-07
-6.11516e-07
5.40428e-07
-6.06093e-07
6.28094e-07
-5.99606e-07
7.14658e-07
-5.92067e-07
7.99968e-07
-5.8349e-07
8.83874e-07
-5.73888e-07
9.66229e-07
-5.63279e-07
1.04689e-06
-5.51682e-07
1.12571e-06
-5.39117e-07
1.20256e-06
-5.25607e-07
1.27729e-06
-5.11174e-07
1.34979e-06
-4.95844e-07
1.41991e-06
-4.79644e-07
1.48755e-06
-4.62603e-07
1.55257e-06
-4.44751e-07
1.61487e-06
-4.26119e-07
1.67434e-06
-4.06739e-07
1.73087e-06
-3.86646e-07
1.78436e-06
-3.65875e-07
1.83472e-06
-3.44462e-07
1.88187e-06
-3.22446e-07
1.92571e-06
-2.99864e-07
1.96617e-06
-2.76757e-07
2.00318e-06
-2.53165e-07
2.03668e-06
-2.29129e-07
2.06661e-06
-2.04691e-07
2.09291e-06
-1.79896e-07
2.11554e-06
-1.54785e-07
2.13446e-06
-1.29403e-07
2.14963e-06
-1.03795e-07
2.16104e-06
-7.80055e-08
2.16865e-06
-5.20798e-08
2.17246e-06
-2.60634e-08
2.17246e-06
-1.81971e-12
2.16865e-06
2.6059e-08
2.16103e-06
5.20736e-08
2.14963e-06
7.79962e-08
2.13445e-06
1.03781e-07
2.11554e-06
1.29384e-07
2.09291e-06
1.54759e-07
2.06661e-06
1.79862e-07
2.03669e-06
2.04649e-07
2.0032e-06
2.29077e-07
1.96619e-06
2.53102e-07
1.92574e-06
2.76683e-07
1.88191e-06
2.99779e-07
1.83478e-06
3.22348e-07
1.78443e-06
3.44352e-07
1.73096e-06
3.65751e-07
1.67445e-06
3.8651e-07
1.615e-06
4.0659e-07
1.55272e-06
4.25957e-07
1.48773e-06
4.44578e-07
1.42012e-06
4.62419e-07
1.35002e-06
4.7945e-07
1.27756e-06
4.95641e-07
1.20285e-06
5.10964e-07
1.12604e-06
5.25393e-07
1.04725e-06
5.38904e-07
9.6662e-07
5.51473e-07
8.84295e-07
5.63081e-07
8.00417e-07
5.73709e-07
7.15131e-07
5.83341e-07
6.28584e-07
5.91964e-07
5.40925e-07
5.99568e-07
4.52304e-07
6.06146e-07
3.62871e-07
6.11698e-07
2.72777e-07
6.16225e-07
1.82169e-07
6.19736e-07
9.11944e-08
6.22248e-07
6.23761e-07
-9.22964e-08
7.16054e-07
-1.8437e-07
7.14318e-07
-2.76073e-07
7.11435e-07
-3.67256e-07
7.07405e-07
-4.57769e-07
7.02208e-07
-5.47461e-07
6.95836e-07
-6.36179e-07
6.88283e-07
-7.23772e-07
6.79554e-07
-8.10089e-07
6.69656e-07
-8.94981e-07
6.58599e-07
-9.783e-07
6.46399e-07
-1.0599e-06
6.33073e-07
-1.13964e-06
6.18644e-07
-1.21739e-06
6.03135e-07
-1.29299e-06
5.86571e-07
-1.36633e-06
5.6898e-07
-1.43728e-06
5.50393e-07
-1.5057e-06
5.30843e-07
-1.57149e-06
5.10362e-07
-1.63452e-06
4.88986e-07
-1.69468e-06
4.66753e-07
-1.75187e-06
4.43702e-07
-1.806e-06
4.19872e-07
-1.85695e-06
3.95306e-07
-1.90465e-06
3.70047e-07
-1.94901e-06
3.44138e-07
-1.98995e-06
3.17625e-07
-2.0274e-06
2.90555e-07
-2.0613e-06
2.62975e-07
-2.09159e-06
2.34932e-07
-2.1182e-06
2.06478e-07
-2.1411e-06
1.7766e-07
-2.16025e-06
1.4853e-07
-2.17561e-06
1.19139e-07
-2.18715e-06
8.95389e-08
-2.19486e-06
5.97805e-08
-2.19872e-06
2.99166e-08
-2.19872e-06
-5.22985e-13
-2.19486e-06
-2.99184e-08
-2.18716e-06
-5.97846e-08
-2.17562e-06
-8.95466e-08
-2.16026e-06
-1.19152e-07
-2.14111e-06
-1.4855e-07
-2.11821e-06
-1.77687e-07
-2.09159e-06
-2.06514e-07
-2.06131e-06
-2.34979e-07
-2.0274e-06
-2.63032e-07
-1.98994e-06
-2.90625e-07
-1.94899e-06
-3.17708e-07
-1.90462e-06
-3.44235e-07
-1.85691e-06
-3.70158e-07
-1.80594e-06
-3.95432e-07
-1.7518e-06
-4.20014e-07
-1.69459e-06
-4.43858e-07
-1.6344e-06
-4.66925e-07
-1.57135e-06
-4.89172e-07
-1.50554e-06
-5.10562e-07
-1.43709e-06
-5.31056e-07
-1.36611e-06
-5.50619e-07
-1.29274e-06
-5.69215e-07
-1.2171e-06
-5.86814e-07
-1.13932e-06
-6.03382e-07
-1.05955e-06
-6.18892e-07
-9.77914e-07
-6.33317e-07
-8.94564e-07
-6.4663e-07
-8.09643e-07
-6.58808e-07
-7.23302e-07
-6.69831e-07
-6.35691e-07
-6.79678e-07
-5.46965e-07
-6.88333e-07
-4.57278e-07
-6.95779e-07
-3.6679e-07
-7.02005e-07
-2.75657e-07
-7.06998e-07
-1.84041e-07
-7.10751e-07
-9.21014e-08
-7.13257e-07
-4.52784e-13
-7.14511e-07
9.21005e-08
-7.14511e-07
1.8404e-07
-7.13257e-07
2.75656e-07
-7.10751e-07
3.66789e-07
-7.06998e-07
4.57278e-07
-7.02005e-07
5.46964e-07
-6.95779e-07
6.3569e-07
-6.88333e-07
7.23301e-07
-6.79678e-07
8.09642e-07
-6.69831e-07
8.94563e-07
-6.58808e-07
9.77914e-07
-6.4663e-07
1.05955e-06
-6.33317e-07
1.13932e-06
-6.18892e-07
1.2171e-06
-6.03382e-07
1.29274e-06
-5.86814e-07
1.36611e-06
-5.69215e-07
1.43708e-06
-5.50618e-07
1.50554e-06
-5.31056e-07
1.57135e-06
-5.10562e-07
1.6344e-06
-4.89172e-07
1.69459e-06
-4.66925e-07
1.7518e-06
-4.43858e-07
1.80594e-06
-4.20013e-07
1.85691e-06
-3.95432e-07
1.90462e-06
-3.70158e-07
1.94899e-06
-3.44235e-07
1.98994e-06
-3.17708e-07
2.0274e-06
-2.90625e-07
2.06131e-06
-2.63032e-07
2.09159e-06
-2.34979e-07
2.11821e-06
-2.06514e-07
2.14111e-06
-1.77687e-07
2.16026e-06
-1.4855e-07
2.17562e-06
-1.19152e-07
2.18716e-06
-8.95465e-08
2.19486e-06
-5.97844e-08
2.19872e-06
-2.99183e-08
2.19872e-06
-3.50083e-13
2.19486e-06
2.99168e-08
2.18715e-06
5.97807e-08
2.17561e-06
8.95391e-08
2.16025e-06
1.1914e-07
2.1411e-06
1.48531e-07
2.1182e-06
1.7766e-07
2.09159e-06
2.06478e-07
2.0613e-06
2.34933e-07
2.0274e-06
2.62975e-07
1.98995e-06
2.90555e-07
1.94901e-06
3.17626e-07
1.90465e-06
3.44138e-07