/*--------------------------------*- C++ -*----------------------------------*\
| =========                 |                                                 |
| \\      /  F ield         | OpenFOAM: The Open Source CFD Toolbox           |
|  \\    /   O peration     | Version:  2106                                  |
|   \\  /    A nd           | Website:  www.openfoam.com                      |
|    \\/     M anipulation  |                                                 |
\*---------------------------------------------------------------------------*/
FoamFile
{
    version     2.0;
    format      ascii;
    arch        "LSB;label=32;scalar=64";
    class       volVectorField;
    location    "2.6";
    object      U;
}
// * * * * * * * * * * * * * * * * * * * * * * * * * * * * * * * * * * * * * //

dimensions      [0 1 -1 0 0 0 0];

internalField   nonuniform List<vector> 
90000
(
(-6.58721e-06 6.57602e-06 0)
(-1.9742e-05 6.56076e-06 0)
(-3.28504e-05 6.53475e-06 0)
(-4.5896e-05 6.49797e-06 0)
(-5.88573e-05 6.45038e-06 0)
(-7.17125e-05 6.39194e-06 0)
(-8.44398e-05 6.32262e-06 0)
(-9.70175e-05 6.24245e-06 0)
(-0.000109424 6.15153e-06 0)
(-0.000121638 6.04995e-06 0)
(-0.000133638 5.93787e-06 0)
(-0.000145403 5.81545e-06 0)
(-0.000156913 5.68289e-06 0)
(-0.000168148 5.5404e-06 0)
(-0.000179088 5.38823e-06 0)
(-0.000189713 5.22664e-06 0)
(-0.000200006 5.05589e-06 0)
(-0.000209949 4.87629e-06 0)
(-0.000219523 4.68814e-06 0)
(-0.000228712 4.49178e-06 0)
(-0.0002375 4.28754e-06 0)
(-0.000245872 4.07579e-06 0)
(-0.000253813 3.85688e-06 0)
(-0.000261309 3.63122e-06 0)
(-0.000268346 3.39918e-06 0)
(-0.000274913 3.16117e-06 0)
(-0.000280998 2.91762e-06 0)
(-0.000286591 2.66895e-06 0)
(-0.000291681 2.4156e-06 0)
(-0.000296259 2.158e-06 0)
(-0.000300318 1.89662e-06 0)
(-0.00030385 1.6319e-06 0)
(-0.000306849 1.36432e-06 0)
(-0.00030931 1.09433e-06 0)
(-0.000311229 8.22423e-07 0)
(-0.000312602 5.49066e-07 0)
(-0.000313426 2.7474e-07 0)
(-0.000313701 -7.44624e-11 0)
(-0.000313426 -2.74895e-07 0)
(-0.000312601 -5.4924e-07 0)
(-0.000311228 -8.22628e-07 0)
(-0.000309309 -1.09458e-06 0)
(-0.000306847 -1.36462e-06 0)
(-0.000303847 -1.63227e-06 0)
(-0.000300314 -1.89706e-06 0)
(-0.000296254 -2.15854e-06 0)
(-0.000291675 -2.41623e-06 0)
(-0.000286584 -2.66969e-06 0)
(-0.00028099 -2.91847e-06 0)
(-0.000274903 -3.16214e-06 0)
(-0.000268334 -3.40026e-06 0)
(-0.000261294 -3.63242e-06 0)
(-0.000253796 -3.85822e-06 0)
(-0.000245852 -4.07725e-06 0)
(-0.000237477 -4.28913e-06 0)
(-0.000228686 -4.49349e-06 0)
(-0.000219493 -4.68997e-06 0)
(-0.000209915 -4.87822e-06 0)
(-0.000199969 -5.05792e-06 0)
(-0.000189671 -5.22874e-06 0)
(-0.000179041 -5.39039e-06 0)
(-0.000168097 -5.54259e-06 0)
(-0.000156858 -5.68506e-06 0)
(-0.000145344 -5.81756e-06 0)
(-0.000133574 -5.93985e-06 0)
(-0.000121571 -6.05172e-06 0)
(-0.000109354 -6.15297e-06 0)
(-9.69445e-05 -6.24342e-06 0)
(-8.43654e-05 -6.32291e-06 0)
(-7.16382e-05 -6.39132e-06 0)
(-5.87853e-05 -6.4485e-06 0)
(-4.58292e-05 -6.49437e-06 0)
(-3.27928e-05 -6.52885e-06 0)
(-1.96987e-05 -6.55186e-06 0)
(-6.57021e-06 -6.56338e-06 0)
(6.57008e-06 -6.56338e-06 0)
(1.96986e-05 -6.55186e-06 0)
(3.27926e-05 -6.52885e-06 0)
(4.58291e-05 -6.49437e-06 0)
(5.87852e-05 -6.4485e-06 0)
(7.16381e-05 -6.39132e-06 0)
(8.43653e-05 -6.32291e-06 0)
(9.69444e-05 -6.24342e-06 0)
(0.000109353 -6.15297e-06 0)
(0.000121571 -6.05172e-06 0)
(0.000133574 -5.93985e-06 0)
(0.000145344 -5.81756e-06 0)
(0.000156858 -5.68506e-06 0)
(0.000168097 -5.54259e-06 0)
(0.000179041 -5.39039e-06 0)
(0.000189671 -5.22874e-06 0)
(0.000199968 -5.05792e-06 0)
(0.000209915 -4.87822e-06 0)
(0.000219493 -4.68997e-06 0)
(0.000228686 -4.49349e-06 0)
(0.000237477 -4.28913e-06 0)
(0.000245852 -4.07725e-06 0)
(0.000253796 -3.85822e-06 0)
(0.000261294 -3.63242e-06 0)
(0.000268334 -3.40026e-06 0)
(0.000274903 -3.16214e-06 0)
(0.00028099 -2.91847e-06 0)
(0.000286584 -2.66969e-06 0)
(0.000291675 -2.41623e-06 0)
(0.000296254 -2.15854e-06 0)
(0.000300314 -1.89706e-06 0)
(0.000303847 -1.63227e-06 0)
(0.000306847 -1.36462e-06 0)
(0.000309309 -1.09458e-06 0)
(0.000311228 -8.22627e-07 0)
(0.000312601 -5.49238e-07 0)
(0.000313426 -2.74893e-07 0)
(0.000313701 -7.26641e-11 0)
(0.000313426 2.74742e-07 0)
(0.000312602 5.49068e-07 0)
(0.000311229 8.22425e-07 0)
(0.00030931 1.09433e-06 0)
(0.000306849 1.36432e-06 0)
(0.00030385 1.6319e-06 0)
(0.000300317 1.89662e-06 0)
(0.000296259 2.15801e-06 0)
(0.00029168 2.4156e-06 0)
(0.000286591 2.66896e-06 0)
(0.000280998 2.91763e-06 0)
(0.000274913 3.16118e-06 0)
(0.000268346 3.39918e-06 0)
(0.000261309 3.63122e-06 0)
(0.000253813 3.85689e-06 0)
(0.000245872 4.07579e-06 0)
(0.0002375 4.28755e-06 0)
(0.000228712 4.49179e-06 0)
(0.000219522 4.68815e-06 0)
(0.000209948 4.8763e-06 0)
(0.000200006 5.0559e-06 0)
(0.000189713 5.22665e-06 0)
(0.000179087 5.38824e-06 0)
(0.000168147 5.54041e-06 0)
(0.000156913 5.6829e-06 0)
(0.000145403 5.81546e-06 0)
(0.000133637 5.93788e-06 0)
(0.000121637 6.04997e-06 0)
(0.000109424 6.15155e-06 0)
(9.7017e-05 6.24249e-06 0)
(8.44391e-05 6.32268e-06 0)
(7.17117e-05 6.39204e-06 0)
(5.88563e-05 6.45055e-06 0)
(4.58947e-05 6.49822e-06 0)
(3.28484e-05 6.53515e-06 0)
(1.97386e-05 6.56166e-06 0)
(6.58516e-06 6.57807e-06 0)
(-6.60245e-06 1.97473e-05 0)
(-1.97889e-05 1.97003e-05 0)
(-3.29302e-05 1.96216e-05 0)
(-4.60077e-05 1.9511e-05 0)
(-5.90003e-05 1.9368e-05 0)
(-7.18865e-05 1.91925e-05 0)
(-8.46444e-05 1.89843e-05 0)
(-9.72524e-05 1.87436e-05 0)
(-0.000109689 1.84706e-05 0)
(-0.000121932 1.81657e-05 0)
(-0.000133961 1.78291e-05 0)
(-0.000145755 1.74616e-05 0)
(-0.000157292 1.70635e-05 0)
(-0.000168554 1.66357e-05 0)
(-0.00017952 1.61788e-05 0)
(-0.000190172 1.56936e-05 0)
(-0.00020049 1.51809e-05 0)
(-0.000210456 1.46417e-05 0)
(-0.000220053 1.40768e-05 0)
(-0.000229265 1.34872e-05 0)
(-0.000238074 1.28739e-05 0)
(-0.000246467 1.22381e-05 0)
(-0.000254427 1.15808e-05 0)
(-0.00026194 1.09032e-05 0)
(-0.000268995 1.02065e-05 0)
(-0.000275578 9.49186e-06 0)
(-0.000281678 8.76058e-06 0)
(-0.000287284 8.01391e-06 0)
(-0.000292386 7.25318e-06 0)
(-0.000296975 6.47972e-06 0)
(-0.000301044 5.69487e-06 0)
(-0.000304584 4.90002e-06 0)
(-0.000307591 4.09656e-06 0)
(-0.000310058 3.2859e-06 0)
(-0.000311981 2.46945e-06 0)
(-0.000313358 1.64866e-06 0)
(-0.000314184 8.24956e-07 0)
(-0.00031446 -2.15133e-10 0)
(-0.000314184 -8.25405e-07 0)
(-0.000313357 -1.64917e-06 0)
(-0.000311981 -2.47006e-06 0)
(-0.000310057 -3.28663e-06 0)
(-0.000307589 -4.09746e-06 0)
(-0.000304582 -4.90112e-06 0)
(-0.00030104 -5.6962e-06 0)
(-0.000296971 -6.48131e-06 0)
(-0.00029238 -7.25506e-06 0)
(-0.000287277 -8.01611e-06 0)
(-0.00028167 -8.7631e-06 0)
(-0.000275568 -9.49474e-06 0)
(-0.000268983 -1.02097e-05 0)
(-0.000261926 -1.09068e-05 0)
(-0.00025441 -1.15848e-05 0)
(-0.000246447 -1.22425e-05 0)
(-0.000238052 -1.28787e-05 0)
(-0.000229239 -1.34923e-05 0)
(-0.000220024 -1.40822e-05 0)
(-0.000210423 -1.46475e-05 0)
(-0.000200452 -1.51871e-05 0)
(-0.00019013 -1.57e-05 0)
(-0.000179475 -1.61853e-05 0)
(-0.000168504 -1.66423e-05 0)
(-0.000157238 -1.70701e-05 0)
(-0.000145695 -1.74679e-05 0)
(-0.000133898 -1.78351e-05 0)
(-0.000121865 -1.8171e-05 0)
(-0.000109618 -1.8475e-05 0)
(-9.71791e-05 -1.87466e-05 0)
(-8.45695e-05 -1.89853e-05 0)
(-7.18115e-05 -1.91907e-05 0)
(-5.89275e-05 -1.93624e-05 0)
(-4.59401e-05 -1.95001e-05 0)
(-3.28721e-05 -1.96037e-05 0)
(-1.97464e-05 -1.96728e-05 0)
(-6.5861e-06 -1.97073e-05 0)
(6.58597e-06 -1.97073e-05 0)
(1.97463e-05 -1.96728e-05 0)
(3.2872e-05 -1.96037e-05 0)
(4.594e-05 -1.95001e-05 0)
(5.89274e-05 -1.93624e-05 0)
(7.18114e-05 -1.91907e-05 0)
(8.45694e-05 -1.89853e-05 0)
(9.71789e-05 -1.87466e-05 0)
(0.000109618 -1.8475e-05 0)
(0.000121865 -1.8171e-05 0)
(0.000133897 -1.78351e-05 0)
(0.000145695 -1.74679e-05 0)
(0.000157238 -1.70701e-05 0)
(0.000168504 -1.66423e-05 0)
(0.000179474 -1.61853e-05 0)
(0.00019013 -1.57e-05 0)
(0.000200452 -1.51871e-05 0)
(0.000210423 -1.46475e-05 0)
(0.000220024 -1.40822e-05 0)
(0.000229239 -1.34923e-05 0)
(0.000238052 -1.28787e-05 0)
(0.000246447 -1.22425e-05 0)
(0.00025441 -1.15848e-05 0)
(0.000261926 -1.09068e-05 0)
(0.000268983 -1.02097e-05 0)
(0.000275568 -9.49474e-06 0)
(0.000281669 -8.7631e-06 0)
(0.000287277 -8.0161e-06 0)
(0.00029238 -7.25506e-06 0)
(0.000296971 -6.4813e-06 0)
(0.00030104 -5.6962e-06 0)
(0.000304582 -4.90112e-06 0)
(0.000307589 -4.09746e-06 0)
(0.000310057 -3.28663e-06 0)
(0.00031198 -2.47005e-06 0)
(0.000313357 -1.64916e-06 0)
(0.000314184 -8.254e-07 0)
(0.00031446 -2.0994e-10 0)
(0.000314184 8.24961e-07 0)
(0.000313358 1.64867e-06 0)
(0.000311981 2.46946e-06 0)
(0.000310058 3.28591e-06 0)
(0.000307591 4.09657e-06 0)
(0.000304584 4.90003e-06 0)
(0.000301043 5.69488e-06 0)
(0.000296975 6.47973e-06 0)
(0.000292385 7.25319e-06 0)
(0.000287283 8.01392e-06 0)
(0.000281678 8.76059e-06 0)
(0.000275578 9.49188e-06 0)
(0.000268995 1.02065e-05 0)
(0.00026194 1.09032e-05 0)
(0.000254426 1.15808e-05 0)
(0.000246466 1.22381e-05 0)
(0.000238074 1.28739e-05 0)
(0.000229265 1.34872e-05 0)
(0.000220053 1.40768e-05 0)
(0.000210456 1.46417e-05 0)
(0.000200489 1.5181e-05 0)
(0.000190171 1.56937e-05 0)
(0.00017952 1.61789e-05 0)
(0.000168554 1.66358e-05 0)
(0.000157292 1.70636e-05 0)
(0.000145754 1.74616e-05 0)
(0.000133961 1.78292e-05 0)
(0.000121932 1.81657e-05 0)
(0.000109688 1.84707e-05 0)
(9.72519e-05 1.87437e-05 0)
(8.46438e-05 1.89845e-05 0)
(7.18857e-05 1.91928e-05 0)
(5.89994e-05 1.93684e-05 0)
(4.60066e-05 1.95116e-05 0)
(3.29288e-05 1.96225e-05 0)
(1.97872e-05 1.9702e-05 0)
(6.60156e-06 1.97507e-05 0)
(-6.6285e-06 3.29651e-05 0)
(-1.98675e-05 3.28849e-05 0)
(-3.30621e-05 3.27525e-05 0)
(-4.61924e-05 3.25673e-05 0)
(-5.92374e-05 3.23285e-05 0)
(-7.21753e-05 3.20354e-05 0)
(-8.49845e-05 3.16879e-05 0)
(-9.76431e-05 3.12861e-05 0)
(-0.000110129 3.08304e-05 0)
(-0.000122422 3.03213e-05 0)
(-0.000134499 2.97596e-05 0)
(-0.00014634 2.91461e-05 0)
(-0.000157924 2.84818e-05 0)
(-0.000169231 2.77677e-05 0)
(-0.000180241 2.70051e-05 0)
(-0.000190935 2.61952e-05 0)
(-0.000201295 2.53395e-05 0)
(-0.000211301 2.44394e-05 0)
(-0.000220937 2.34964e-05 0)
(-0.000230185 2.25123e-05 0)
(-0.00023903 2.14887e-05 0)
(-0.000247456 2.04274e-05 0)
(-0.000255448 1.93303e-05 0)
(-0.000262992 1.81993e-05 0)
(-0.000270075 1.70363e-05 0)
(-0.000276684 1.58435e-05 0)
(-0.000282809 1.46229e-05 0)
(-0.000288437 1.33766e-05 0)
(-0.00029356 1.21068e-05 0)
(-0.000298168 1.08157e-05 0)
(-0.000302253 9.5057e-06 0)
(-0.000305807 8.17897e-06 0)
(-0.000308826 6.83786e-06 0)
(-0.000311303 5.48473e-06 0)
(-0.000313234 4.12195e-06 0)
(-0.000314616 2.75191e-06 0)
(-0.000315446 1.37701e-06 0)
(-0.000315723 -3.35047e-10 0)
(-0.000315446 -1.37771e-06 0)
(-0.000314616 -2.75271e-06 0)
(-0.000313234 -4.12291e-06 0)
(-0.000311302 -5.4859e-06 0)
(-0.000308825 -6.83931e-06 0)
(-0.000305805 -8.18075e-06 0)
(-0.00030225 -9.50788e-06 0)
(-0.000298164 -1.08184e-05 0)
(-0.000293555 -1.21099e-05 0)
(-0.000288431 -1.33802e-05 0)
(-0.000282801 -1.4627e-05 0)
(-0.000276675 -1.58483e-05 0)
(-0.000270064 -1.70417e-05 0)
(-0.000262978 -1.82053e-05 0)
(-0.000255432 -1.9337e-05 0)
(-0.000247437 -2.04347e-05 0)
(-0.000239008 -2.14966e-05 0)
(-0.00023016 -2.25209e-05 0)
(-0.000220908 -2.35056e-05 0)
(-0.000211268 -2.44491e-05 0)
(-0.000201258 -2.53497e-05 0)
(-0.000190894 -2.62058e-05 0)
(-0.000180196 -2.7016e-05 0)
(-0.000169181 -2.77788e-05 0)
(-0.000157869 -2.84928e-05 0)
(-0.000146281 -2.91569e-05 0)
(-0.000134436 -2.97698e-05 0)
(-0.000122354 -3.03304e-05 0)
(-0.000110059 -3.08379e-05 0)
(-9.75695e-05 -3.12912e-05 0)
(-8.49093e-05 -3.16897e-05 0)
(-7.21001e-05 -3.20325e-05 0)
(-5.91643e-05 -3.23191e-05 0)
(-4.61247e-05 -3.2549e-05 0)
(-3.30042e-05 -3.27217e-05 0)
(-1.98257e-05 -3.28371e-05 0)
(-6.61256e-06 -3.28948e-05 0)
(6.61244e-06 -3.28948e-05 0)
(1.98256e-05 -3.28371e-05 0)
(3.3004e-05 -3.27217e-05 0)
(4.61246e-05 -3.2549e-05 0)
(5.91642e-05 -3.23191e-05 0)
(7.20999e-05 -3.20325e-05 0)
(8.49092e-05 -3.16897e-05 0)
(9.75694e-05 -3.12912e-05 0)
(0.000110058 -3.08379e-05 0)
(0.000122354 -3.03304e-05 0)
(0.000134435 -2.97698e-05 0)
(0.000146281 -2.91569e-05 0)
(0.000157869 -2.84928e-05 0)
(0.000169181 -2.77788e-05 0)
(0.000180196 -2.7016e-05 0)
(0.000190894 -2.62058e-05 0)
(0.000201258 -2.53497e-05 0)
(0.000211268 -2.44491e-05 0)
(0.000220908 -2.35056e-05 0)
(0.00023016 -2.25208e-05 0)
(0.000239008 -2.14966e-05 0)
(0.000247437 -2.04347e-05 0)
(0.000255432 -1.9337e-05 0)
(0.000262978 -1.82053e-05 0)
(0.000270063 -1.70417e-05 0)
(0.000276675 -1.58483e-05 0)
(0.000282801 -1.4627e-05 0)
(0.000288431 -1.33802e-05 0)
(0.000293555 -1.21099e-05 0)
(0.000298164 -1.08183e-05 0)
(0.000302249 -9.50787e-06 0)
(0.000305805 -8.18075e-06 0)
(0.000308824 -6.83931e-06 0)
(0.000311302 -5.4859e-06 0)
(0.000313233 -4.1229e-06 0)
(0.000314615 -2.7527e-06 0)
(0.000315446 -1.37771e-06 0)
(0.000315723 -3.26675e-10 0)
(0.000315446 1.37702e-06 0)
(0.000314616 2.75192e-06 0)
(0.000313234 4.12196e-06 0)
(0.000311303 5.48474e-06 0)
(0.000308826 6.83787e-06 0)
(0.000305807 8.17898e-06 0)
(0.000302252 9.50571e-06 0)
(0.000298167 1.08157e-05 0)
(0.000293559 1.21068e-05 0)
(0.000288437 1.33766e-05 0)
(0.000282809 1.46229e-05 0)
(0.000276684 1.58435e-05 0)
(0.000270075 1.70363e-05 0)
(0.000262992 1.81993e-05 0)
(0.000255448 1.93303e-05 0)
(0.000247456 2.04274e-05 0)
(0.00023903 2.14887e-05 0)
(0.000230185 2.25123e-05 0)
(0.000220937 2.34964e-05 0)
(0.000211301 2.44394e-05 0)
(0.000201294 2.53395e-05 0)
(0.000190935 2.61953e-05 0)
(0.000180241 2.70052e-05 0)
(0.000169231 2.77678e-05 0)
(0.000157924 2.84819e-05 0)
(0.000146339 2.91462e-05 0)
(0.000134498 2.97597e-05 0)
(0.000122421 3.03214e-05 0)
(0.000110129 3.08305e-05 0)
(9.76426e-05 3.12862e-05 0)
(8.49839e-05 3.16881e-05 0)
(7.21747e-05 3.20357e-05 0)
(5.92366e-05 3.2329e-05 0)
(4.61916e-05 3.2568e-05 0)
(3.30611e-05 3.27534e-05 0)
(1.98666e-05 3.28862e-05 0)
(6.62811e-06 3.29671e-05 0)
(-6.66546e-06 4.62457e-05 0)
(-1.99785e-05 4.6133e-05 0)
(-3.32473e-05 4.59468e-05 0)
(-4.64515e-05 4.56867e-05 0)
(-5.95698e-05 4.53514e-05 0)
(-7.25804e-05 4.49401e-05 0)
(-8.54615e-05 4.44525e-05 0)
(-9.81912e-05 4.38889e-05 0)
(-0.000110748 4.32496e-05 0)
(-0.000123109 4.25355e-05 0)
(-0.000135254 4.17476e-05 0)
(-0.000147161 4.08869e-05 0)
(-0.00015881 3.9955e-05 0)
(-0.000170181 3.89533e-05 0)
(-0.000181253 3.78835e-05 0)
(-0.000192007 3.67473e-05 0)
(-0.000202424 3.55469e-05 0)
(-0.000212487 3.42842e-05 0)
(-0.000222177 3.29614e-05 0)
(-0.000231477 3.15808e-05 0)
(-0.000240372 3.01449e-05 0)
(-0.000248845 2.86561e-05 0)
(-0.000256882 2.71171e-05 0)
(-0.000264468 2.55305e-05 0)
(-0.000271591 2.38991e-05 0)
(-0.000278238 2.22257e-05 0)
(-0.000284396 2.05134e-05 0)
(-0.000290056 1.8765e-05 0)
(-0.000295208 1.69838e-05 0)
(-0.000299841 1.51726e-05 0)
(-0.000303949 1.33349e-05 0)
(-0.000307524 1.14737e-05 0)
(-0.00031056 9.59238e-06 0)
(-0.000313051 7.69418e-06 0)
(-0.000314993 5.78243e-06 0)
(-0.000316383 3.8605e-06 0)
(-0.000317217 1.93176e-06 0)
(-0.000317496 -4.23807e-10 0)
(-0.000317217 -1.93265e-06 0)
(-0.000316382 -3.86153e-06 0)
(-0.000314992 -5.78368e-06 0)
(-0.00031305 -7.69574e-06 0)
(-0.000310559 -9.59434e-06 0)
(-0.000307523 -1.14762e-05 0)
(-0.000303947 -1.33379e-05 0)
(-0.000299838 -1.51762e-05 0)
(-0.000295203 -1.6988e-05 0)
(-0.000290051 -1.87701e-05 0)
(-0.000284389 -2.05192e-05 0)
(-0.000278229 -2.22324e-05 0)
(-0.00027158 -2.39066e-05 0)
(-0.000264455 -2.55389e-05 0)
(-0.000256866 -2.71264e-05 0)
(-0.000248827 -2.86664e-05 0)
(-0.000240351 -3.01561e-05 0)
(-0.000231453 -3.15929e-05 0)
(-0.000222149 -3.29743e-05 0)
(-0.000212455 -3.42979e-05 0)
(-0.000202388 -3.55613e-05 0)
(-0.000191966 -3.67623e-05 0)
(-0.000181208 -3.78988e-05 0)
(-0.000170131 -3.89689e-05 0)
(-0.000158756 -3.99706e-05 0)
(-0.000147103 -4.09021e-05 0)
(-0.000135191 -4.17619e-05 0)
(-0.000123042 -4.25484e-05 0)
(-0.000110677 -4.32603e-05 0)
(-9.81176e-05 -4.38962e-05 0)
(-8.53863e-05 -4.44552e-05 0)
(-7.25051e-05 -4.49361e-05 0)
(-5.94967e-05 -4.53382e-05 0)
(-4.63838e-05 -4.56607e-05 0)
(-3.31896e-05 -4.5903e-05 0)
(-1.99371e-05 -4.60648e-05 0)
(-6.64971e-06 -4.61458e-05 0)
(6.64958e-06 -4.61458e-05 0)
(1.9937e-05 -4.60648e-05 0)
(3.31895e-05 -4.5903e-05 0)
(4.63837e-05 -4.56607e-05 0)
(5.94965e-05 -4.53382e-05 0)
(7.2505e-05 -4.49361e-05 0)
(8.53862e-05 -4.44552e-05 0)
(9.81175e-05 -4.38962e-05 0)
(0.000110677 -4.32603e-05 0)
(0.000123042 -4.25484e-05 0)
(0.000135191 -4.17619e-05 0)
(0.000147102 -4.09021e-05 0)
(0.000158756 -3.99706e-05 0)
(0.000170131 -3.89689e-05 0)
(0.000181208 -3.78988e-05 0)
(0.000191966 -3.67623e-05 0)
(0.000202388 -3.55613e-05 0)
(0.000212455 -3.42978e-05 0)
(0.000222148 -3.29743e-05 0)
(0.000231452 -3.15929e-05 0)
(0.00024035 -3.01561e-05 0)
(0.000248827 -2.86664e-05 0)
(0.000256866 -2.71264e-05 0)
(0.000264455 -2.55389e-05 0)
(0.00027158 -2.39066e-05 0)
(0.000278229 -2.22324e-05 0)
(0.000284389 -2.05192e-05 0)
(0.000290051 -1.87701e-05 0)
(0.000295203 -1.6988e-05 0)
(0.000299838 -1.51762e-05 0)
(0.000303947 -1.33379e-05 0)
(0.000307522 -1.14761e-05 0)
(0.000310559 -9.59433e-06 0)
(0.00031305 -7.69573e-06 0)
(0.000314992 -5.78367e-06 0)
(0.000316382 -3.86152e-06 0)
(0.000317217 -1.93264e-06 0)
(0.000317495 -4.1227e-10 0)
(0.000317217 1.93177e-06 0)
(0.000316382 3.86052e-06 0)
(0.000314993 5.78245e-06 0)
(0.000313051 7.69419e-06 0)
(0.00031056 9.5924e-06 0)
(0.000307524 1.14737e-05 0)
(0.000303949 1.33349e-05 0)
(0.000299841 1.51727e-05 0)
(0.000295208 1.69838e-05 0)
(0.000290056 1.87651e-05 0)
(0.000284396 2.05134e-05 0)
(0.000278237 2.22257e-05 0)
(0.000271591 2.38991e-05 0)
(0.000264468 2.55305e-05 0)
(0.000256882 2.71171e-05 0)
(0.000248845 2.86562e-05 0)
(0.000240372 3.0145e-05 0)
(0.000231477 3.15809e-05 0)
(0.000222177 3.29615e-05 0)
(0.000212487 3.42843e-05 0)
(0.000202424 3.5547e-05 0)
(0.000192007 3.67474e-05 0)
(0.000181253 3.78835e-05 0)
(0.00017018 3.89534e-05 0)
(0.00015881 3.99551e-05 0)
(0.000147161 4.0887e-05 0)
(0.000135253 4.17477e-05 0)
(0.000123108 4.25357e-05 0)
(0.000110747 4.32498e-05 0)
(9.81907e-05 4.38891e-05 0)
(8.5461e-05 4.44528e-05 0)
(7.25799e-05 4.49405e-05 0)
(5.95691e-05 4.53519e-05 0)
(4.64508e-05 4.56874e-05 0)
(3.32466e-05 4.59477e-05 0)
(1.99779e-05 4.61341e-05 0)
(6.66521e-06 4.62471e-05 0)
(-6.71351e-06 5.96111e-05 0)
(-2.01226e-05 5.9466e-05 0)
(-3.34873e-05 5.92259e-05 0)
(-4.67871e-05 5.88905e-05 0)
(-6.00003e-05 5.84581e-05 0)
(-7.31052e-05 5.79277e-05 0)
(-8.60795e-05 5.72992e-05 0)
(-9.89013e-05 5.65726e-05 0)
(-0.000111548 5.57485e-05 0)
(-0.000123999 5.48281e-05 0)
(-0.000136232 5.38124e-05 0)
(-0.000148226 5.27031e-05 0)
(-0.000159959 5.15018e-05 0)
(-0.000171412 5.02106e-05 0)
(-0.000182564 4.88316e-05 0)
(-0.000193396 4.73672e-05 0)
(-0.000203888 4.58199e-05 0)
(-0.000214024 4.41922e-05 0)
(-0.000223784 4.24872e-05 0)
(-0.000233152 4.07076e-05 0)
(-0.00024211 3.88567e-05 0)
(-0.000250645 3.69377e-05 0)
(-0.00025874 3.49539e-05 0)
(-0.000266381 3.29087e-05 0)
(-0.000273556 3.08059e-05 0)
(-0.00028025 2.86489e-05 0)
(-0.000286453 2.64418e-05 0)
(-0.000292154 2.41881e-05 0)
(-0.000297343 2.18921e-05 0)
(-0.00030201 1.95576e-05 0)
(-0.000306148 1.71887e-05 0)
(-0.000309749 1.47897e-05 0)
(-0.000312807 1.23646e-05 0)
(-0.000315316 9.91785e-06 0)
(-0.000317272 7.45362e-06 0)
(-0.000318672 4.97626e-06 0)
(-0.000319512 2.49011e-06 0)
(-0.000319793 -4.69138e-10 0)
(-0.000319512 -2.4911e-06 0)
(-0.000318671 -4.97743e-06 0)
(-0.000317272 -7.45508e-06 0)
(-0.000315315 -9.91972e-06 0)
(-0.000312806 -1.2367e-05 0)
(-0.000309748 -1.47927e-05 0)
(-0.000306146 -1.71924e-05 0)
(-0.000302008 -1.95621e-05 0)
(-0.00029734 -2.18975e-05 0)
(-0.00029215 -2.41945e-05 0)
(-0.000286447 -2.64492e-05 0)
(-0.000280242 -2.86575e-05 0)
(-0.000273546 -3.08155e-05 0)
(-0.000266369 -3.29196e-05 0)
(-0.000258725 -3.49659e-05 0)
(-0.000250628 -3.69509e-05 0)
(-0.00024209 -3.88711e-05 0)
(-0.000233128 -4.07232e-05 0)
(-0.000223756 -4.25038e-05 0)
(-0.000213992 -4.42099e-05 0)
(-0.000203853 -4.58384e-05 0)
(-0.000193356 -4.73865e-05 0)
(-0.000182519 -4.88515e-05 0)
(-0.000171363 -5.02308e-05 0)
(-0.000159905 -5.1522e-05 0)
(-0.000148167 -5.27228e-05 0)
(-0.000136169 -5.38311e-05 0)
(-0.000123932 -5.48449e-05 0)
(-0.000111478 -5.57625e-05 0)
(-9.88279e-05 -5.65822e-05 0)
(-8.60044e-05 -5.73027e-05 0)
(-7.30299e-05 -5.79226e-05 0)
(-5.99274e-05 -5.84409e-05 0)
(-4.67196e-05 -5.88566e-05 0)
(-3.34298e-05 -5.9169e-05 0)
(-2.00814e-05 -5.93776e-05 0)
(-6.69785e-06 -5.94819e-05 0)
(6.69772e-06 -5.9482e-05 0)
(2.00813e-05 -5.93776e-05 0)
(3.34297e-05 -5.9169e-05 0)
(4.67195e-05 -5.88566e-05 0)
(5.99272e-05 -5.84409e-05 0)
(7.30298e-05 -5.79226e-05 0)
(8.60042e-05 -5.73027e-05 0)
(9.88278e-05 -5.65822e-05 0)
(0.000111478 -5.57625e-05 0)
(0.000123932 -5.48449e-05 0)
(0.000136169 -5.38311e-05 0)
(0.000148167 -5.27228e-05 0)
(0.000159905 -5.1522e-05 0)
(0.000171363 -5.02308e-05 0)
(0.000182519 -4.88515e-05 0)
(0.000193356 -4.73865e-05 0)
(0.000203853 -4.58384e-05 0)
(0.000213992 -4.42099e-05 0)
(0.000223756 -4.25038e-05 0)
(0.000233128 -4.07232e-05 0)
(0.00024209 -3.88711e-05 0)
(0.000250627 -3.69509e-05 0)
(0.000258725 -3.49659e-05 0)
(0.000266369 -3.29195e-05 0)
(0.000273546 -3.08155e-05 0)
(0.000280242 -2.86574e-05 0)
(0.000286447 -2.64492e-05 0)
(0.00029215 -2.41945e-05 0)
(0.000297339 -2.18975e-05 0)
(0.000302008 -1.95621e-05 0)
(0.000306146 -1.71924e-05 0)
(0.000309748 -1.47927e-05 0)
(0.000312806 -1.2367e-05 0)
(0.000315315 -9.91971e-06 0)
(0.000317271 -7.45507e-06 0)
(0.000318671 -4.97742e-06 0)
(0.000319512 -2.49109e-06 0)
(0.000319793 -4.54473e-10 0)
(0.000319512 2.49012e-06 0)
(0.000318671 4.97627e-06 0)
(0.000317272 7.45364e-06 0)
(0.000315316 9.91787e-06 0)
(0.000312806 1.23647e-05 0)
(0.000309749 1.47897e-05 0)
(0.000306148 1.71887e-05 0)
(0.00030201 1.95576e-05 0)
(0.000297343 2.18921e-05 0)
(0.000292154 2.41882e-05 0)
(0.000286453 2.64418e-05 0)
(0.00028025 2.8649e-05 0)
(0.000273555 3.08059e-05 0)
(0.000266381 3.29088e-05 0)
(0.00025874 3.49539e-05 0)
(0.000250645 3.69377e-05 0)
(0.00024211 3.88568e-05 0)
(0.000233151 4.07077e-05 0)
(0.000223784 4.24872e-05 0)
(0.000214023 4.41923e-05 0)
(0.000203888 4.58199e-05 0)
(0.000193395 4.73673e-05 0)
(0.000182563 4.88318e-05 0)
(0.000171411 5.02108e-05 0)
(0.000159959 5.1502e-05 0)
(0.000148225 5.27032e-05 0)
(0.000136232 5.38126e-05 0)
(0.000123999 5.48283e-05 0)
(0.000111548 5.57487e-05 0)
(9.89009e-05 5.65728e-05 0)
(8.60791e-05 5.72995e-05 0)
(7.31047e-05 5.79281e-05 0)
(5.99998e-05 5.84586e-05 0)
(4.67866e-05 5.88911e-05 0)
(3.34868e-05 5.92267e-05 0)
(2.01222e-05 5.94669e-05 0)
(6.71335e-06 5.96122e-05 0)
(-6.77287e-06 7.30837e-05 0)
(-2.03006e-05 7.29061e-05 0)
(-3.37836e-05 7.26117e-05 0)
(-4.72012e-05 7.22004e-05 0)
(-6.05315e-05 7.16702e-05 0)
(-7.37525e-05 7.10199e-05 0)
(-8.68418e-05 7.02491e-05 0)
(-9.97772e-05 6.93583e-05 0)
(-0.000112536 6.8348e-05 0)
(-0.000125098 6.72195e-05 0)
(-0.000137439 6.59743e-05 0)
(-0.000149538 6.46142e-05 0)
(-0.000161376 6.31415e-05 0)
(-0.00017293 6.15585e-05 0)
(-0.000184181 5.98679e-05 0)
(-0.000195109 5.80725e-05 0)
(-0.000205694 5.61754e-05 0)
(-0.00021592 5.418e-05 0)
(-0.000225766 5.20896e-05 0)
(-0.000235217 4.99079e-05 0)
(-0.000244255 4.76386e-05 0)
(-0.000252865 4.52859e-05 0)
(-0.000261032 4.28537e-05 0)
(-0.000268741 4.03464e-05 0)
(-0.000275979 3.77683e-05 0)
(-0.000282733 3.51239e-05 0)
(-0.000288991 3.24179e-05 0)
(-0.000294743 2.96549e-05 0)
(-0.000299978 2.68399e-05 0)
(-0.000304686 2.39778e-05 0)
(-0.000308861 2.10736e-05 0)
(-0.000312494 1.81323e-05 0)
(-0.000315578 1.51592e-05 0)
(-0.00031811 1.21595e-05 0)
(-0.000320083 9.1383e-06 0)
(-0.000321495 6.10104e-06 0)
(-0.000322344 3.05301e-06 0)
(-0.000322627 -4.5797e-10 0)
(-0.000322344 -3.054e-06 0)
(-0.000321496 -6.10225e-06 0)
(-0.000320083 -9.13987e-06 0)
(-0.00031811 -1.21615e-05 0)
(-0.000315578 -1.51619e-05 0)
(-0.000312493 -1.81358e-05 0)
(-0.00030886 -2.1078e-05 0)
(-0.000304685 -2.39832e-05 0)
(-0.000299975 -2.68464e-05 0)
(-0.000294739 -2.96626e-05 0)
(-0.000288986 -3.24268e-05 0)
(-0.000282726 -3.51342e-05 0)
(-0.000275971 -3.778e-05 0)
(-0.00026873 -4.03596e-05 0)
(-0.000261019 -4.28684e-05 0)
(-0.000252849 -4.5302e-05 0)
(-0.000244236 -4.76562e-05 0)
(-0.000235194 -4.99269e-05 0)
(-0.00022574 -5.211e-05 0)
(-0.00021589 -5.42016e-05 0)
(-0.00020566 -5.61982e-05 0)
(-0.00019507 -5.80963e-05 0)
(-0.000184138 -5.98924e-05 0)
(-0.000172882 -6.15834e-05 0)
(-0.000161323 -6.31664e-05 0)
(-0.000149481 -6.46386e-05 0)
(-0.000137377 -6.59974e-05 0)
(-0.000125031 -6.72403e-05 0)
(-0.000112466 -6.83653e-05 0)
(-9.97041e-05 -6.93703e-05 0)
(-8.67669e-05 -7.02536e-05 0)
(-7.36775e-05 -7.10136e-05 0)
(-6.04587e-05 -7.1649e-05 0)
(-4.71338e-05 -7.21587e-05 0)
(-3.37262e-05 -7.25417e-05 0)
(-2.02595e-05 -7.27974e-05 0)
(-6.75724e-06 -7.29254e-05 0)
(6.7571e-06 -7.29254e-05 0)
(2.02594e-05 -7.27974e-05 0)
(3.37261e-05 -7.25417e-05 0)
(4.71337e-05 -7.21587e-05 0)
(6.04586e-05 -7.1649e-05 0)
(7.36773e-05 -7.10136e-05 0)
(8.67668e-05 -7.02536e-05 0)
(9.9704e-05 -6.93703e-05 0)
(0.000112466 -6.83653e-05 0)
(0.000125031 -6.72403e-05 0)
(0.000137377 -6.59974e-05 0)
(0.000149481 -6.46386e-05 0)
(0.000161323 -6.31664e-05 0)
(0.000172882 -6.15834e-05 0)
(0.000184137 -5.98924e-05 0)
(0.00019507 -5.80963e-05 0)
(0.00020566 -5.61982e-05 0)
(0.000215889 -5.42016e-05 0)
(0.00022574 -5.211e-05 0)
(0.000235194 -4.99269e-05 0)
(0.000244236 -4.76562e-05 0)
(0.000252849 -4.5302e-05 0)
(0.000261019 -4.28684e-05 0)
(0.00026873 -4.03596e-05 0)
(0.00027597 -3.778e-05 0)
(0.000282726 -3.51342e-05 0)
(0.000288986 -3.24268e-05 0)
(0.000294739 -2.96626e-05 0)
(0.000299975 -2.68464e-05 0)
(0.000304684 -2.39832e-05 0)
(0.00030886 -2.10779e-05 0)
(0.000312493 -1.81358e-05 0)
(0.000315578 -1.51619e-05 0)
(0.00031811 -1.21615e-05 0)
(0.000320083 -9.13986e-06 0)
(0.000321495 -6.10223e-06 0)
(0.000322344 -3.05398e-06 0)
(0.000322626 -4.40167e-10 0)
(0.000322344 3.05303e-06 0)
(0.000321495 6.10106e-06 0)
(0.000320083 9.13833e-06 0)
(0.00031811 1.21595e-05 0)
(0.000315578 1.51593e-05 0)
(0.000312493 1.81324e-05 0)
(0.000308861 2.10736e-05 0)
(0.000304686 2.39779e-05 0)
(0.000299977 2.684e-05 0)
(0.000294743 2.9655e-05 0)
(0.000288991 3.24179e-05 0)
(0.000282733 3.51239e-05 0)
(0.000275979 3.77683e-05 0)
(0.000268741 4.03464e-05 0)
(0.000261032 4.28538e-05 0)
(0.000252865 4.5286e-05 0)
(0.000244255 4.76387e-05 0)
(0.000235217 4.99079e-05 0)
(0.000225766 5.20897e-05 0)
(0.000215919 5.41801e-05 0)
(0.000205694 5.61755e-05 0)
(0.000195108 5.80726e-05 0)
(0.00018418 5.9868e-05 0)
(0.00017293 6.15587e-05 0)
(0.000161375 6.31417e-05 0)
(0.000149538 6.46144e-05 0)
(0.000137438 6.59745e-05 0)
(0.000125097 6.72197e-05 0)
(0.000112536 6.83482e-05 0)
(9.97768e-05 6.93585e-05 0)
(8.68415e-05 7.02495e-05 0)
(7.37521e-05 7.10202e-05 0)
(6.05311e-05 7.16706e-05 0)
(4.72008e-05 7.2201e-05 0)
(3.37832e-05 7.26124e-05 0)
(2.03003e-05 7.29069e-05 0)
(6.77277e-06 7.30846e-05 0)
(-6.84377e-06 8.66865e-05 0)
(-2.05131e-05 8.6476e-05 0)
(-3.41373e-05 8.6127e-05 0)
(-4.76955e-05 8.5639e-05 0)
(-6.11655e-05 8.501e-05 0)
(-7.4525e-05 8.42386e-05 0)
(-8.77515e-05 8.33243e-05 0)
(-0.000100822 8.22676e-05 0)
(-0.000113715 8.10693e-05 0)
(-0.000126408 7.97307e-05 0)
(-0.000138879 7.82538e-05 0)
(-0.000151105 7.66406e-05 0)
(-0.000163067 7.48938e-05 0)
(-0.000174742 7.30161e-05 0)
(-0.000186111 7.10108e-05 0)
(-0.000197153 6.88813e-05 0)
(-0.00020785 6.66312e-05 0)
(-0.000218182 6.42643e-05 0)
(-0.000228132 6.17848e-05 0)
(-0.000237682 5.91971e-05 0)
(-0.000246815 5.65055e-05 0)
(-0.000255515 5.37149e-05 0)
(-0.000263767 5.083e-05 0)
(-0.000271557 4.7856e-05 0)
(-0.000278871 4.4798e-05 0)
(-0.000285696 4.16615e-05 0)
(-0.00029202 3.84518e-05 0)
(-0.000297832 3.51746e-05 0)
(-0.000303121 3.18357e-05 0)
(-0.00030788 2.84409e-05 0)
(-0.000312098 2.49961e-05 0)
(-0.000315769 2.15074e-05 0)
(-0.000318886 1.79809e-05 0)
(-0.000321444 1.44228e-05 0)
(-0.000323438 1.08394e-05 0)
(-0.000324865 7.23678e-06 0)
(-0.000325723 3.62142e-06 0)
(-0.000326009 -3.76426e-10 0)
(-0.000325723 -3.62226e-06 0)
(-0.000324866 -7.23788e-06 0)
(-0.000323439 -1.08409e-05 0)
(-0.000321445 -1.4425e-05 0)
(-0.000318887 -1.79838e-05 0)
(-0.000315769 -2.15112e-05 0)
(-0.000312098 -2.5001e-05 0)
(-0.000307879 -2.8447e-05 0)
(-0.00030312 -3.18431e-05 0)
(-0.000297829 -3.51835e-05 0)
(-0.000292016 -3.84622e-05 0)
(-0.000285691 -4.16735e-05 0)
(-0.000278864 -4.48118e-05 0)
(-0.000271548 -4.78715e-05 0)
(-0.000263756 -5.08473e-05 0)
(-0.000255501 -5.37339e-05 0)
(-0.000246797 -5.65263e-05 0)
(-0.000237661 -5.92196e-05 0)
(-0.000228107 -6.1809e-05 0)
(-0.000218154 -6.429e-05 0)
(-0.000207817 -6.66583e-05 0)
(-0.000197116 -6.89096e-05 0)
(-0.000186069 -7.104e-05 0)
(-0.000174695 -7.30458e-05 0)
(-0.000163015 -7.49235e-05 0)
(-0.000151049 -7.66697e-05 0)
(-0.000138817 -7.82814e-05 0)
(-0.000126342 -7.97557e-05 0)
(-0.000113646 -8.10901e-05 0)
(-0.00010075 -8.22822e-05 0)
(-8.76769e-05 -8.33299e-05 0)
(-7.44502e-05 -8.42313e-05 0)
(-6.10928e-05 -8.4985e-05 0)
(-4.76282e-05 -8.55895e-05 0)
(-3.408e-05 -8.60439e-05 0)
(-2.0472e-05 -8.63472e-05 0)
(-6.82811e-06 -8.6499e-05 0)
(6.82798e-06 -8.6499e-05 0)
(2.04718e-05 -8.63472e-05 0)
(3.40798e-05 -8.60439e-05 0)
(4.7628e-05 -8.55895e-05 0)
(6.10927e-05 -8.4985e-05 0)
(7.445e-05 -8.42313e-05 0)
(8.76768e-05 -8.33299e-05 0)
(0.00010075 -8.22822e-05 0)
(0.000113646 -8.10901e-05 0)
(0.000126342 -7.97557e-05 0)
(0.000138817 -7.82814e-05 0)
(0.000151049 -7.66697e-05 0)
(0.000163015 -7.49235e-05 0)
(0.000174695 -7.30458e-05 0)
(0.000186069 -7.104e-05 0)
(0.000197116 -6.89096e-05 0)
(0.000207817 -6.66583e-05 0)
(0.000218153 -6.429e-05 0)
(0.000228107 -6.1809e-05 0)
(0.000237661 -5.92196e-05 0)
(0.000246797 -5.65263e-05 0)
(0.000255501 -5.37339e-05 0)
(0.000263756 -5.08473e-05 0)
(0.000271548 -4.78715e-05 0)
(0.000278864 -4.48118e-05 0)
(0.000285691 -4.16735e-05 0)
(0.000292016 -3.84622e-05 0)
(0.000297829 -3.51835e-05 0)
(0.00030312 -3.18431e-05 0)
(0.000307879 -2.8447e-05 0)
(0.000312098 -2.5001e-05 0)
(0.000315769 -2.15112e-05 0)
(0.000318886 -1.79838e-05 0)
(0.000321444 -1.4425e-05 0)
(0.000323439 -1.08409e-05 0)