/*--------------------------------*- C++ -*----------------------------------*\
| =========                 |                                                 |
| \\      /  F ield         | OpenFOAM: The Open Source CFD Toolbox           |
|  \\    /   O peration     | Version:  2306                                  |
|   \\  /    A nd           | Website:  www.openfoam.com                      |
|    \\/     M anipulation  |                                                 |
\*---------------------------------------------------------------------------*/
FoamFile
{
    version     2.0;
    format      ascii;
    arch        "LSB;label=32;scalar=64";
    class       surfaceScalarField;
    location    "0.46";
    object      phi;
}
// * * * * * * * * * * * * * * * * * * * * * * * * * * * * * * * * * * * * * //

dimensions      [0 3 -1 0 0 0 0];

oriented        oriented;

internalField   nonuniform List<scalar> 
101920
(
9.8376412e-10
-9.8376412e-10
3.8376999e-09
-2.8539358e-09
8.406524e-09
-4.5688244e-09
1.455888e-08
-6.1523562e-09
2.2232257e-08
-7.6733763e-09
3.1389692e-08
-9.1574362e-09
4.1996103e-08
-1.0606411e-08
5.4005605e-08
-1.2009503e-08
6.7361047e-08
-1.3355441e-08
8.1993941e-08
-1.4632895e-08
9.7826141e-08
-1.5832199e-08
1.1477054e-07
-1.6944397e-08
1.3273289e-07
-1.7962359e-08
1.5161303e-07
-1.8880132e-08
1.7130168e-07
-1.9688649e-08
1.9169139e-07
-2.0389716e-08
2.1266654e-07
-2.0975149e-08
2.341103e-07
-2.1443756e-08
2.5589681e-07
-2.1786515e-08
2.7791105e-07
-2.2014237e-08
3.0002956e-07
-2.2118509e-08
3.2212073e-07
-2.2091168e-08
3.4407332e-07
-2.1952588e-08
3.6576333e-07
-2.1690014e-08
3.8707189e-07
-2.130856e-08
4.0788506e-07
-2.0813165e-08
4.2808447e-07
-2.0199407e-08
4.4756731e-07
-1.9482844e-08
4.6622573e-07
-1.8658423e-08
4.8395268e-07
-1.7726948e-08
5.0065244e-07
-1.6699768e-08
5.1624186e-07
-1.5589416e-08
5.3063996e-07
-1.4398097e-08
5.4378007e-07
-1.3140117e-08
5.5561074e-07
-1.1830666e-08
5.6605354e-07
-1.0442796e-08
5.7504578e-07
-8.9922428e-09
5.8253835e-07
-7.492569e-09
5.885127e-07
-5.9743484e-09
5.9293968e-07
-4.426984e-09
5.9578792e-07
-2.8482346e-09
5.9703342e-07
-1.2455021e-09
5.9667465e-07
3.5877272e-10
5.9473968e-07
1.9349727e-09
5.9122338e-07
3.516293e-09
5.8614546e-07
5.0779343e-09
5.7952616e-07
6.6192954e-09
5.7136131e-07
8.1648427e-09
5.6174437e-07
9.6169431e-09
5.5070321e-07
1.1041163e-08
5.3828108e-07
1.242213e-08
5.2453007e-07
1.3751006e-08
5.0950852e-07
1.5021545e-08
4.9328193e-07
1.6226588e-08
4.7591495e-07
1.736698e-08
4.5747582e-07
1.8439134e-08
4.3803796e-07
1.9437846e-08
4.1767642e-07
2.0361544e-08
3.9646878e-07
2.1207639e-08
3.7449252e-07
2.197626e-08
3.5182661e-07
2.2665913e-08
3.2855861e-07
2.3267994e-08
3.0476049e-07
2.3798128e-08
2.8051294e-07
2.4247554e-08
2.5590751e-07
2.460542e-08
2.3101285e-07
2.489467e-08
2.0590156e-07
2.5111289e-08
1.8065413e-07
2.5247426e-08
1.5535767e-07
2.5296463e-08
1.3006532e-07
2.529235e-08
1.0484894e-07
2.5216376e-08
7.9791806e-08
2.505714e-08
5.4942802e-08
2.4849002e-08
3.0359348e-08
2.4583454e-08
6.1045333e-09
2.4254811e-08
-1.7766067e-08
2.3870589e-08
-4.12121e-08
2.3446043e-08
-6.4183399e-08
2.2971301e-08
-8.663501e-08
2.2451617e-08
-1.0852622e-07
2.1891211e-08
-1.2982011e-07
2.1293885e-08
-1.5048332e-07
2.0663219e-08
-1.7048603e-07
2.0002702e-08
-1.8980179e-07
1.9315758e-08
-2.084075e-07
1.8605701e-08
-2.2628328e-07
1.7875797e-08
-2.4341245e-07
1.7129158e-08
-2.5978128e-07
1.6368819e-08
-2.7537899e-07
1.5597704e-08
-2.9019755e-07
1.4818576e-08
-3.0423167e-07
1.4034103e-08
-3.1747837e-07
1.3246698e-08
-3.2993659e-07
1.2458221e-08
-3.4160687e-07
1.1670293e-08
-3.5249106e-07
1.0884169e-08
-3.6259235e-07
1.0101296e-08
-3.7191403e-07
9.3216726e-09
-3.8046385e-07
8.5498288e-09
-3.882537e-07
7.7898435e-09
-3.9529237e-07
7.0386883e-09
-4.0158958e-07
6.2972033e-09
-4.0715416e-07
5.5645703e-09
-4.1200947e-07
4.8553148e-09
-4.1617679e-07
4.1673255e-09
-4.1966942e-07
3.4926273e-09
-4.2250113e-07
2.8317092e-09
-4.2468663e-07
2.1854974e-09
-4.2624029e-07
1.5536495e-09
-4.2717291e-07
9.3262745e-10
-4.274784e-07
3.0547213e-10
-4.2720863e-07
-2.6976785e-10
-4.2640437e-07
-8.0424857e-10
-4.2506316e-07
-1.3412065e-09
-4.2319682e-07
-1.8663588e-09
-4.2082102e-07
-2.375814e-09
-4.1795245e-07
-2.8685537e-09
-4.1460805e-07
-3.3444151e-09
-4.1080449e-07
-3.8035615e-09
-4.0655821e-07
-4.2462777e-09
-4.0188531e-07
-4.6728972e-09
-3.9680152e-07
-5.0838003e-09
-3.9132218e-07
-5.4793298e-09
-3.8546227e-07
-5.8599002e-09
-3.7923633e-07
-6.2259432e-09
-3.7265847e-07
-6.5778698e-09
-3.6574238e-07
-6.9160914e-09
-3.5850133e-07
-7.2410502e-09
-3.5094811e-07
-7.5531939e-09
-3.4309514e-07
-7.8529839e-09
-3.3495431e-07
-8.1408186e-09
-3.2653714e-07
-8.4171748e-09
-3.1785465e-07
-8.6824951e-09
-3.0891748e-07
-8.9371705e-09
-2.9973582e-07
-9.1816602e-09
-2.9031945e-07
-9.4163686e-09
-2.8067776e-07
-9.6416964e-09
-2.7081974e-07
-9.8580309e-09
-2.6075398e-07
-1.0065767e-08
-2.5048871e-07
-1.0265265e-08
-2.4003186e-07
-1.0456853e-08
-2.2939097e-07
-1.0640883e-08
-2.1857335e-07
-1.0817634e-08
-2.0758594e-07
-1.098738e-08
-1.9643557e-07
-1.115038e-08
-1.8512877e-07
-1.1306792e-08
-1.7367206e-07
-1.1456732e-08
-1.620719e-07
-1.1600158e-08
-1.5033503e-07
-1.173687e-08
-1.3846877e-07
-1.1866258e-08
-1.2648185e-07
-1.1986939e-08
-1.1438573e-07
-1.2096124e-08
-1.0219736e-07
-1.2188367e-08
-8.9943578e-08
-1.2253786e-08
-7.7668317e-08
-1.2275262e-08
-6.5442008e-08
-1.2226291e-08
-5.3363504e-08
-1.2078504e-08
-4.1514088e-08
-1.18494e-08
-2.9735667e-08
-1.1778426e-08
-1.6898213e-08
-1.2837452e-08
-1.6898201e-08
1.1654406e-09
-2.1492047e-09
4.4503426e-09
-6.138838e-09
9.6701792e-09
-9.7886611e-09
1.6612813e-08
-1.309499e-08
2.5159449e-08
-1.6220013e-08
3.5230329e-08
-1.9228318e-08
4.6751197e-08
-2.2127277e-08
5.9638975e-08
-2.4897281e-08
7.379593e-08
-2.7512396e-08
8.9107811e-08
-2.9944776e-08
1.0544521e-07
-3.2169604e-08
1.2266488e-07
-3.4164061e-08
1.4061146e-07
-3.590894e-08
1.5912093e-07
-3.7389599e-08
1.7801568e-07
-3.8583399e-08
1.9712012e-07
-3.9494161e-08
2.162474e-07
-4.0102424e-08
2.3521111e-07
-4.0407469e-08
2.5380742e-07
-4.0382828e-08
2.7185868e-07
-4.0065498e-08
2.8916996e-07
-3.9429788e-08
3.0553286e-07
-3.8454064e-08
3.2078298e-07
-3.7202713e-08
3.3473178e-07
-3.5638811e-08
3.4719993e-07
-3.3776712e-08
3.5802285e-07
-3.1636085e-08
3.6702459e-07
-2.9201154e-08
3.7406821e-07
-2.652646e-08
3.790078e-07
-2.3598018e-08
3.8168973e-07
-2.0408867e-08
3.8200736e-07
-1.7017408e-08
3.7984711e-07
-1.3429155e-08
3.7512628e-07
-9.6772784e-09
3.6776765e-07
-5.7814763e-09
3.5774274e-07
-1.8057614e-09
3.4489405e-07
2.4059021e-09
3.2919987e-07
6.7019287e-09
3.106836e-07
1.1023698e-08
2.8930601e-07
1.5403232e-08
2.6507917e-07
1.9799858e-08
2.3803155e-07
2.41994e-08
2.0820582e-07
2.8580213e-08
1.7563924e-07
3.2925349e-08
1.4038538e-07
3.718884e-08
1.0252738e-07
4.1374285e-08
6.2140206e-08
4.5465113e-08
1.9329854e-08
4.9429642e-08
-2.5725398e-08
5.3220099e-08
-7.3024091e-08
5.6915643e-08
-1.2241244e-07
6.0429517e-08
-1.7374536e-07
6.3755043e-08
-2.2687599e-07
6.6881649e-08
-2.8165296e-07
6.9798505e-08
-3.3792032e-07
7.2493944e-08
-3.9551678e-07
7.4963454e-08
-4.5427734e-07
7.7199696e-08
-5.1403464e-07
7.9195133e-08
-5.7461917e-07
8.0946092e-08
-6.3586062e-07
8.2449083e-08
-6.9758799e-07
8.3703627e-08
-7.5963116e-07
8.4709072e-08
-8.2182394e-07
8.5460775e-08
-8.8399747e-07
8.5971661e-08
-9.459886e-07
8.6238667e-08
-1.0076419e-06
8.6258768e-08
-1.0687986e-06
8.6051311e-08
-1.1293061e-06
8.5618766e-08
-1.1890211e-06
8.4962465e-08
-1.2478106e-06
8.4085949e-08
-1.3055331e-06
8.3014868e-08
-1.3620635e-06
8.1746721e-08
-1.4172917e-06
8.0285338e-08
-1.4710979e-06
7.8655237e-08
-1.5233757e-06
7.6861308e-08
-1.5740321e-06
7.4911122e-08
-1.6229794e-06
7.2817942e-08
-1.6701283e-06
7.0594907e-08
-1.7154073e-06
6.825031e-08
-1.7587506e-06
6.5794979e-08
-1.8000995e-06
6.3240063e-08
-1.8394022e-06
6.0596553e-08
-1.8766142e-06
5.7875299e-08
-1.9116984e-06
5.5086877e-08
-1.9446243e-06
5.2241609e-08
-1.975368e-06
4.9349465e-08
-2.0039123e-06
4.6420096e-08
-2.0302459e-06
4.3462759e-08
-2.0543634e-06
4.0486272e-08
-2.0762647e-06
3.7499059e-08
-2.0959552e-06
3.4509026e-08
-2.1134446e-06
3.1523539e-08
-2.1287472e-06
2.8549309e-08
-2.1418815e-06
2.5592531e-08
-2.1528695e-06
2.2658324e-08
-2.1617354e-06
1.9750068e-08
-2.1685065e-06
1.6872374e-08
-2.1732088e-06
1.4023963e-08
-2.1758788e-06
1.1219849e-08
-2.1765542e-06
8.4652329e-09
-2.1752706e-06
5.7551065e-09
-2.1720559e-06
3.0824779e-09
-2.1668788e-06
3.8743124e-10
-2.1599791e-06
-2.0442893e-09
-2.151329e-06
-4.4828502e-09
-2.1409499e-06
-6.8864759e-09
-2.1288823e-06
-9.2359029e-09
-2.1151719e-06
-1.1524838e-08
-2.099867e-06
-1.3751247e-08
-2.0830185e-06
-1.5915893e-08
-2.0646898e-06
-1.8023246e-08
-2.044891e-06
-2.006854e-08
-2.0236569e-06
-2.2038377e-08
-2.001053e-06
-2.3945087e-08
-1.9771285e-06
-2.5790839e-08
-1.9519281e-06
-2.7576236e-08
-1.9254947e-06
-2.9301887e-08
-1.8978704e-06
-3.0968713e-08
-1.8690962e-06
-3.2577777e-08
-1.8392122e-06
-3.4130338e-08
-1.8082573e-06
-3.5627729e-08
-1.7762697e-06
-3.7071445e-08
-1.7432861e-06
-3.8462976e-08
-1.7093421e-06
-3.9803868e-08
-1.6744722e-06
-4.10958e-08
-1.6387098e-06
-4.2340345e-08
-1.6020867e-06
-4.3539189e-08
-1.5646337e-06
-4.469397e-08
-1.5263806e-06
-4.5806384e-08
-1.4873555e-06
-4.6878094e-08
-1.4475856e-06
-4.7910715e-08
-1.4070969e-06
-4.8905914e-08
-1.365914e-06
-4.9865326e-08
-1.3240607e-06
-5.0790506e-08
-1.2815593e-06
-5.1683035e-08
-1.2384312e-06
-5.2544425e-08
-1.1946968e-06
-5.3376143e-08
-1.1503752e-06
-5.4179636e-08
-1.1054847e-06
-5.4956263e-08
-1.0600425e-06
-5.5707396e-08
-1.0140651e-06
-5.6434284e-08
-9.6756789e-07
-5.7138114e-08
-9.2056558e-07
-5.7819962e-08
-8.7307208e-07
-5.8480892e-08
-8.2510067e-07
-5.9121791e-08
-7.7666405e-07
-5.9743406e-08
-7.2777452e-07
-6.0346257e-08
-6.7844417e-07
-6.0930505e-08
-6.2868533e-07
-6.1495751e-08
-5.7851104e-07
-6.2040557e-08
-5.279364e-07
-6.2561572e-08
-4.7698063e-07
-6.3051877e-08
-4.2566936e-07
-6.3499625e-08
-3.740362e-07
-6.3886953e-08
-3.221241e-07
-6.4187354e-08
-2.6997902e-07
-6.4371417e-08
-2.1762119e-07
-6.4436346e-08
-1.64965e-07
-6.4505615e-08
-1.1165249e-07
-6.509094e-08
-5.693822e-08
-6.7551733e-08
-7.3836423e-08
6.3357597e-10
-2.7827807e-09
2.4239486e-09
-7.9292104e-09
5.2437983e-09
-1.2608511e-08
8.9365203e-09
-1.6787711e-08
1.3379988e-08
-2.066348e-08
1.8470487e-08
-2.4318816e-08
2.4108134e-08
-2.7764925e-08
3.0193894e-08
-3.0983042e-08
3.6616275e-08
-3.3934775e-08
4.3251e-08
-3.6579502e-08
4.9959353e-08
-3.8877955e-08
5.6590764e-08
-4.0795471e-08
6.2982899e-08
-4.2301078e-08
6.8963534e-08
-4.3370234e-08
7.4365888e-08
-4.3985752e-08
7.8992168e-08
-4.4120438e-08
8.2656729e-08
-4.3766986e-08
8.5164063e-08
-4.2914804e-08
8.6350706e-08
-4.156947e-08
8.5991801e-08
-3.9706597e-08
8.3902195e-08
-3.7340179e-08
7.9939937e-08
-3.4491808e-08
7.387375e-08
-3.1136525e-08
6.5549466e-08
-2.7314527e-08
5.4805302e-08
-2.3032547e-08
4.1476739e-08
-1.8307524e-08
2.5460241e-08
-1.3184643e-08
6.6036672e-09
-7.6698913e-09
-1.5132174e-08
-1.8621767e-09
-4.0055744e-08
4.5147016e-09
-6.8174799e-08
1.1101646e-08
-9.9546158e-08
1.7942202e-08
-1.3422785e-07
2.5004418e-08
-1.7226888e-07
3.2259551e-08
-2.1373711e-07
3.966247e-08
-2.5854718e-07
4.7215962e-08
-3.0671141e-07
5.4866161e-08
-3.5823287e-07
6.2545165e-08
-4.1306999e-07
7.0240359e-08
-4.7116454e-07
7.7894404e-08
-5.324413e-07
8.5476154e-08
-5.9680818e-07
9.2947101e-08
-6.6415322e-07
1.0027038e-07
-7.3436662e-07
1.0740224e-07
-8.0730977e-07
1.1431743e-07
-8.8282851e-07
1.2098386e-07
-9.6076448e-07
1.273656e-07
-1.0409756e-06
1.3343118e-07
-1.1232343e-06
1.3917439e-07
-1.2073621e-06
1.4455733e-07
-1.293163e-06
1.4955595e-07
-1.3804318e-06
1.5415041e-07
-1.4689568e-06
1.5832354e-07
-1.5585231e-06
1.6206019e-07
-1.6489097e-06
1.6535007e-07
-1.7398937e-06
1.6818374e-07
-1.8312521e-06
1.7055353e-07
-1.9227612e-06
1.724552e-07
-2.0141987e-06
1.7388659e-07
-2.1053436e-06
1.7484852e-07
-2.1959778e-06
1.7534329e-07
-2.2858912e-06
1.7537414e-07
-2.3748711e-06
1.7495157e-07
-2.4627147e-06
1.7408224e-07
-2.5492305e-06
1.7277458e-07
-2.6342248e-06
1.7104562e-07
-2.7175143e-06
1.689083e-07
-2.7989274e-06
1.6637553e-07
-2.8783045e-06
1.6346309e-07
-2.9554834e-06
1.6019369e-07
-3.0303193e-06
1.565827e-07
-3.102682e-06
1.5264802e-07
-3.1724406e-06
1.4841381e-07
-3.2394788e-06
1.438995e-07
-3.3036927e-06
1.39125e-07
-3.3649868e-06
1.3411207e-07
-3.4232742e-06
1.2888237e-07
-3.4784803e-06
1.2345638e-07
-3.5305402e-06
1.1785484e-07
-3.5793986e-06
1.1209848e-07
-3.6250098e-06
1.0620776e-07
-3.6673372e-06
1.0020271e-07
-3.7063532e-06
9.410286e-08
-3.7420387e-06
8.7927151e-08
-3.7743831e-06
8.1693805e-08
-3.8033833e-06
7.5420372e-08
-3.8290441e-06
6.9123537e-08
-3.8513771e-06
6.2819247e-08
-3.8704006e-06
5.6522606e-08
-3.8861395e-06
5.0247842e-08
-3.8986245e-06
4.4008523e-08
-3.9078929e-06
3.7817777e-08
-3.9139838e-06
3.1683366e-08
-3.9169401e-06
2.5614648e-08
-3.9168084e-06
1.9618421e-08
-3.9136461e-06
1.371001e-08
-3.9074895e-06
7.8674469e-09
-3.8983909e-06
2.1211718e-09
-3.8864526e-06
-3.4730369e-09
-3.8717109e-06
-8.9866052e-09
-3.8542424e-06
-1.4385968e-08
-3.8341836e-06
-1.9671409e-08
-3.8114499e-06
-2.4777911e-08
-3.78617e-06
-2.9762827e-08
-3.7584269e-06
-3.4629521e-08
-3.7282921e-06
-3.9370783e-08
-3.6958339e-06
-4.3982958e-08
-3.6611206e-06
-4.8464607e-08
-3.6242206e-06
-5.2815862e-08
-3.5852061e-06
-5.7037781e-08
-3.5441453e-06
-6.1129368e-08
-3.5010949e-06
-6.5088774e-08
-3.4561203e-06
-6.8919694e-08
-3.4092861e-06
-7.2625086e-08
-3.360655e-06
-7.6207292e-08
-3.3102882e-06
-7.9668729e-08
-3.2582449e-06
-8.3011971e-08
-3.2045831e-06
-8.623968e-08
-3.1493585e-06
-8.9354837e-08
-3.0926258e-06
-9.2360492e-08
-3.0344374e-06
-9.525986e-08
-2.9748441e-06
-9.8056225e-08
-2.913895e-06
-1.0075297e-07
-2.8516373e-06
-1.033535e-07
-2.7881163e-06
-1.058613e-07
-2.7233757e-06
-1.0827987e-07
-2.6574569e-06
-1.1061268e-07
-2.5904001e-06
-1.1286325e-07
-2.5222432e-06
-1.1503498e-07
-2.4530225e-06
-1.1713138e-07
-2.3827726e-06
-1.1915581e-07
-2.3115263e-06
-1.2111157e-07
-2.2393148e-06
-1.2300201e-07
-2.1661676e-06
-1.2483026e-07
-2.0921125e-06
-1.2659952e-07
-2.0171759e-06
-1.2831278e-07
-1.9413825e-06
-1.2997297e-07
-1.8647559e-06
-1.3158297e-07
-1.7873178e-06
-1.3314547e-07
-1.709089e-06
-1.3466309e-07
-1.6300888e-06
-1.3613828e-07
-1.5503355e-06
-1.3757332e-07
-1.469846e-06
-1.3897037e-07
-1.3886365e-06
-1.4033127e-07
-1.3067223e-06
-1.4165758e-07
-1.2241181e-06
-1.4295054e-07
-1.1408379e-06
-1.4421068e-07
-1.0568959e-06
-1.454377e-07
-9.7230676e-07
-1.4662974e-07
-8.870857e-07
-1.4778261e-07
-8.0124928e-07
-1.488883e-07
-7.1481526e-07
-1.4993366e-07
-6.2780248e-07
-1.5089973e-07
-5.4022577e-07
-1.5176404e-07
-4.5208301e-07
-1.5251418e-07
-3.6332892e-07
-1.5319043e-07
-2.7383985e-07
-1.5399466e-07
-1.8341926e-07
-1.5551151e-07
-9.1975387e-08
-1.5899562e-07
-1.658118e-07
2.3883864e-11
-2.8066646e-09
9.8401947e-11
-8.0037286e-09
2.0085406e-10
-1.2710963e-08
2.381991e-10
-1.6825056e-08
1.1592707e-10
-2.0541208e-08
-2.6982516e-10
-2.3933064e-08
-1.0241463e-09
-2.7010604e-08
-2.2550017e-09
-2.9752186e-08
-4.0817975e-09
-3.2107981e-08
-6.6271757e-09
-3.4034123e-08
-1.0029013e-08
-3.547612e-08
-1.4428297e-08
-3.6396188e-08
-1.9981813e-08
-3.6747559e-08
-2.6840915e-08
-3.651113e-08
-3.5179879e-08
-3.564679e-08
-4.5157979e-08
-3.4142337e-08
-5.6951304e-08
-3.197366e-08
-7.0730596e-08
-2.9135514e-08
-8.6668553e-08
-2.5631512e-08
-1.0493545e-07
-2.1439695e-08
-1.2569799e-07
-1.6577648e-08
-1.4911389e-07
-1.10759e-08
-1.7533671e-07
-4.913702e-09
-2.0450499e-07
1.8537513e-09
-2.367612e-07
9.2236617e-09
-2.7222643e-07
1.7157703e-08
-3.110251e-07
2.561403e-08
-3.5325474e-07
3.4559748e-08
-3.9906876e-07
4.3951835e-08
-4.4836446e-07
5.3810406e-08
-5.0127975e-07
6.4016939e-08
-5.5786007e-07
7.4522519e-08
-6.1812948e-07
8.5273825e-08
-6.820913e-07
9.6221373e-08
-7.4973994e-07
1.0731111e-07
-8.2102226e-07
1.1849829e-07
-8.9587887e-07
1.2972277e-07
-9.7425205e-07
1.4091835e-07
-1.0560474e-06
1.520357e-07
-1.1411651e-06
1.6301214e-07
-1.229483e-06
1.73794e-07
-1.320863e-06
1.8432716e-07
-1.4151514e-06
1.9455874e-07
-1.5121853e-06
2.044362e-07
-1.6117823e-06
2.1391443e-07
-1.7137471e-06
2.229486e-07
-1.8178764e-06
2.314949e-07
-1.9239597e-06
2.3951452e-07
-2.0317616e-06
2.4697629e-07
-2.1410493e-06
2.5384505e-07
-2.2515838e-06
2.6009038e-07
-2.3631197e-06
2.6568635e-07
-2.4754074e-06
2.7061119e-07
-2.5881941e-06
2.7484699e-07
-2.7012245e-06
2.7838042e-07
-2.8142423e-06
2.812015e-07
-2.9269923e-06
2.8330356e-07
-3.039221e-06
2.8468394e-07
-3.150678e-06
2.8534351e-07
-3.2611161e-06
2.852867e-07
-3.3702939e-06
2.8452104e-07
-3.4779766e-06
2.830569e-07
-3.5839342e-06
2.8090912e-07
-3.6879456e-06
2.7809359e-07
-3.7897999e-06
2.7462892e-07
-3.8892923e-06
2.7053797e-07
-3.9862282e-06
2.6584424e-07
-4.0804251e-06
2.6057247e-07
-4.1717119e-06
2.547499e-07
-4.2599249e-06
2.4840668e-07
-4.3449143e-06
2.4157207e-07
-4.426543e-06
2.3427681e-07
-4.5046831e-06
2.2655382e-07
-4.5792189e-06
2.1843538e-07
-4.6500479e-06
2.0995393e-07
-4.7170783e-06
2.0114246e-07
-4.7802298e-06
1.920339e-07
-4.8394341e-06
1.8266064e-07
-4.894634e-06
1.7305477e-07
-4.9457835e-06
1.6324796e-07
-4.992847e-06
1.5327126e-07
-5.0357993e-06
1.4315495e-07
-5.0746249e-06
1.3292849e-07
-5.1093179e-06
1.226202e-07
-5.1398815e-06
1.1225736e-07
-5.1663272e-06
1.018661e-07
-5.1886749e-06
9.1471249e-08
-5.2069521e-06
8.1096421e-08
-5.2211934e-06
7.076396e-08
-5.2314404e-06
6.0494766e-08
-5.23774e-06
5.030814e-08
-5.2401438e-06
4.0221654e-08
-5.2387111e-06
3.0250672e-08
-5.2335096e-06
2.0413078e-08
-5.2245993e-06
1.0708124e-08
-5.2120753e-06
1.1860715e-09
-5.1959207e-06
-8.2871486e-09
-5.1762905e-06
-1.7509086e-08
-5.1532293e-06
-2.6534271e-08
-5.1268443e-06
-3.5371615e-08
-5.0972174e-06
-4.4012824e-08
-5.0644406e-06
-5.2448208e-08
-5.0285592e-06
-6.0659287e-08
-4.9896653e-06
-6.8656708e-08
-4.9478513e-06
-7.6443499e-08
-4.9032039e-06
-8.4018218e-08
-4.8558073e-06
-9.1379572e-08
-4.8057446e-06
-9.8527235e-08
-4.7530986e-06
-1.0546184e-07
-4.6979518e-06
-1.1218459e-07
-4.6403845e-06
-1.1869674e-07
-4.5804731e-06
-1.2500014e-07
-4.5182945e-06
-1.3109826e-07
-4.4539245e-06
-1.3699511e-07
-4.387437e-06
-1.426948e-07
-4.3189041e-06
-1.482016e-07
-4.2483959e-06
-1.5352019e-07
-4.1759802e-06
-1.5865531e-07
-4.1017231e-06
-1.6361203e-07
-4.025688e-06
-1.6839558e-07
-3.9479365e-06
-1.7301136e-07
-3.8685278e-06
-1.7746489e-07
-3.7875191e-06
-1.8176175e-07
-3.7049649e-06
-1.8590764e-07
-3.620918e-06
-1.8990828e-07
-3.5354284e-06
-1.9376941e-07
-3.4485444e-06
-1.9749669e-07
-3.3603118e-06
-2.0109589e-07
-3.2707741e-06
-2.0457264e-07
-3.179973e-06
-2.0793254e-07
-3.0879477e-06
-2.1118106e-07
-2.9947356e-06
-2.1432361e-07
-2.9003721e-06
-2.1736559e-07
-2.8048903e-06
-2.2031207e-07
-2.7083216e-06
-2.2316819e-07
-2.6106956e-06
-2.2593882e-07
-2.5120398e-06
-2.2862872e-07
-2.4123803e-06
-2.3124247e-07
-2.3117413e-06
-2.3378453e-07
-2.2101453e-06
-2.3625903e-07
-2.1076137e-06
-2.3866996e-07
-2.0041659e-06
-2.4102113e-07
-1.8998202e-06
-2.4331598e-07
-1.7945938e-06
-2.4555765e-07
-1.6885026e-06
-2.4774879e-07
-1.5815615e-06
-2.4989169e-07
-1.4737844e-06
-2.519877e-07
-1.3651849e-06
-2.5403725e-07
-1.2557755e-06
-2.5603914e-07
-1.1455682e-06
-2.5798992e-07
-1.0345736e-06
-2.5988295e-07
-9.227994e-07
-2.6170783e-07
-8.1024775e-07
-2.6345137e-07
-6.9690884e-07
-2.6510293e-07
-5.8275166e-07
-2.6667136e-07
-4.677155e-07
-2.6822658e-07
-3.5172293e-07
-2.6998725e-07
-2.3477231e-07
-2.7246216e-07
-1.1719567e-07
-2.7657226e-07
-2.8300749e-07
-4.3216019e-10
-2.3745045e-09
-1.6378662e-09
-6.7980223e-09
-3.598653e-09
-1.0750176e-08
-6.3083047e-09
-1.4115404e-08
-9.8408043e-09
-1.7008708e-08
-1.4293854e-08
-1.9480014e-08
-1.9779274e-08
-2.1525184e-08
-2.6412432e-08
-2.3119028e-08
-3.4306152e-08
-2.4214262e-08
-4.3592552e-08
-2.4747718e-08
-5.4393824e-08
-2.4674848e-08
-6.6851526e-08
-2.3938485e-08
-8.1105749e-08
-2.2493336e-08
-9.73038e-08
-2.0313082e-08
-1.155941e-07
-1.7356487e-08
-1.3613758e-07
-1.3598858e-08
-1.5909039e-07
-9.0208577e-09
-1.8461135e-07
-3.6145521e-09
-2.12834e-07
2.5911323e-09
-2.439195e-07
9.6458154e-09
-2.780112e-07
1.7514052e-08
-3.1526062e-07
2.6173517e-08
-3.5578268e-07
3.5608351e-08
-3.9971066e-07
4.578173e-08
-4.4714861e-07
5.6661613e-08
-4.9819565e-07
6.820474e-08
-5.5294333e-07
8.0361712e-08
-6.114665e-07
9.3082916e-08
-6.7383045e-07
1.0631579e-07
-7.4003369e-07
1.2001365e-07
-8.1011227e-07
1.3409551e-07
-8.8407912e-07
1.4848937e-07
-9.6192846e-07
1.6312316e-07
-1.0436332e-06
1.7792607e-07
-1.1291481e-06
1.9282608e-07
-1.2184019e-06
2.077521e-07
-1.3113072e-06
2.2262806e-07
-1.4077653e-06
2.3737638e-07
-1.5076535e-06
2.5192398e-07
-1.610837e-06
2.6619556e-07
-1.7171622e-06
2.8011923e-07
-1.82646e-06
2.93625e-07
-1.9385465e-06
3.0664517e-07
-2.053225e-06
3.1911473e-07
-2.170284e-06
3.3097344e-07
-2.2894997e-06
3.4216429e-07
-2.4106386e-06
3.5263378e-07
-2.5334574e-06
3.6233338e-07
-2.657701e-06
3.7121989e-07
-2.783109e-06
3.7925307e-07
-2.9094161e-06
3.8639738e-07
-3.0363522e-06
3.9262249e-07
-3.1636443e-06
3.9790335e-07
-3.2910176e-06
4.022202e-07
-3.4181958e-06
4.0555871e-07
-3.5449038e-06
4.0790946e-07
-3.6708681e-06
4.0926787e-07
-3.7958185e-06
4.0963436e-07
-3.9194891e-06
4.0901405e-07
-4.041619e-06
4.0741667e-07
-4.1619542e-06
4.0485624e-07
-4.2802481e-06
4.0135079e-07
-4.3962618e-06
3.9692273e-07
-4.5097657e-06
3.9159752e-07
-4.6205408e-06
3.8540399e-07
-4.7283774e-06
3.7837463e-07
-4.8330773e-06
3.7054413e-07
-4.9344543e-06
3.6194942e-07
-5.0323341e-06
3.5262977e-07
-5.1265542e-06
3.4262673e-07
-5.2169649e-06
3.3198273e-07
-5.3034295e-06
3.2074148e-07
-5.3858237e-06
3.0894798e-07
-5.4640358e-06
2.9664745e-07
-5.5379672e-06
2.8388532e-07
-5.6075318e-06
2.707071e-07
-5.672656e-06
2.5715807e-07
-5.7332784e-06
2.4328302e-07
-5.7893496e-06
2.29126e-07
-5.840832e-06
2.1473036e-07
-5.887699e-06
2.0013831e-07
-5.929935e-06
1.8539096e-07
-5.9675346e-06
1.7052806e-07
-6.0005023e-06
1.5558787e-07
-6.0288519e-06
1.4060703e-07
-6.0526064e-06
1.2562055e-07
-6.0717968e-06
1.1066164e-07
-6.0864622e-06
9.5761837e-08
-6.0966492e-06
8.0950914e-08
-6.1024113e-06
6.6256876e-08
-6.1038093e-06
5.1706139e-08
-6.1009112e-06
3.7323531e-08
-6.0937935e-06
2.3132993e-08
-6.0825486e-06
9.1682312e-09
-6.0671783e-06
-4.6621749e-09
-6.0477335e-06
-1.825877e-08
-6.0244337e-06
-3.1586979e-08
-5.9973065e-06
-4.463625e-08
-5.9664373e-06
-5.7403453e-08
-5.9319229e-06
-6.9886106e-08
-5.8938588e-06
-8.2076894e-08
-5.8523395e-06
-9.3967539e-08
-5.8074486e-06
-1.0555019e-07
-5.7592798e-06
-1.1682553e-07
-5.7079293e-06
-1.2779395e-07
-5.6534924e-06
-1.3845511e-07
-5.5960628e-06
-1.488092e-07
-5.535733e-06
-1.5885707e-07
-5.4725942e-06
-1.6860058e-07
-5.4067366e-06
-1.7804225e-07
-5.338248e-06
-1.8718526e-07
-5.2672145e-06
-1.9603367e-07
-5.1937204e-06
-2.0459241e-07
-5.1178483e-06
-2.1286722e-07
-5.0396789e-06
-2.208642e-07
-4.9592907e-06
-2.2858981e-07
-4.8767598e-06
-2.3605103e-07
-4.7921602e-06
-2.4325495e-07
-4.7055631e-06
-2.5020906e-07
-4.6170377e-06
-2.56921e-07
-4.5266503e-06
-2.6339869e-07
-4.4344651e-06
-2.6965015e-07
-4.3405434e-06
-2.7568345e-07
-4.2449442e-06
-2.8150683e-07
-4.147724e-06
-2.8712851e-07
-4.0489367e-06
-2.9255667e-07
-3.9486338e-06
-2.9779957e-07
-3.8468644e-06
-3.0286533e-07
-3.743675e-06
-3.0776206e-07
-3.6391098e-06
-3.124977e-07
-3.5332108e-06
-3.1708011e-07
-3.4260174e-06
-3.2151696e-07
-3.3175671e-06
-3.2581586e-07
-3.2078951e-06
-3.2998416e-07
-3.0970342e-06
-3.34029e-07
-2.9850156e-06
-3.3795744e-07
-2.8718681e-06
-3.4177618e-07
-2.757619e-06
-3.4549167e-07
-2.6422931e-06
-3.4911031e-07
-2.5259142e-06
-3.52638e-07
-2.4085037e-06
-3.5608041e-07
-2.2900819e-06
-3.5944298e-07
-2.1706672e-06
-3.6273068e-07
-2.0502767e-06
-3.6594809e-07
-1.9289262e-06
-3.6909931e-07
-1.8066301e-06
-3.7218784e-07
-1.6834014e-06
-3.7521635e-07
-1.5592521e-06
-3.7818659e-07
-1.4341924e-06
-3.8109883e-07
-1.3082307e-06
-3.8395168e-07
-1.181372e-06
-3.8674161e-07
-1.0536166e-06
-3.8946325e-07
-9.2495626e-07
-3.9211171e-07
-7.9537064e-07
-3.9468856e-07
-6.648243e-07
-3.9721772e-07
-5.3327373e-07
-3.9977714e-07
-4.0070523e-07
-4.0255575e-07
-2.6724528e-07
-4.0592208e-07
-1.3336932e-07
-4.1044819e-07
-4.163768e-07
-6.8353728e-10
-1.6909673e-09
-2.6373234e-09
-4.844236e-09
-5.8136241e-09
-7.573876e-09
-1.0177858e-08
-9.7511697e-09
-1.5777446e-08
-1.1409121e-08
-2.2700879e-08
-1.2556581e-08
-3.1049436e-08
-1.3176625e-08
-4.0940092e-08
-1.3228374e-08
-5.2490048e-08
-1.2664305e-08
-6.5827348e-08
-1.1410419e-08
-8.1070908e-08
-9.4312887e-09
-9.8358737e-08
-6.6506558e-09
-1.178338e-07
-3.0182746e-09
-1.396249e-07
1.4780185e-09
-1.6388719e-07
6.9058071e-09
-1.9076499e-07
1.3278936e-08
-2.2040118e-07
2.0615338e-08
-2.5293789e-07
2.8922158e-08
-2.8854039e-07
3.8193636e-08
-3.2732802e-07
4.8433445e-08
-3.6943536e-07
5.962139e-08
-4.149925e-07
7.1730665e-08
-4.641143e-07
8.4730144e-08
-5.1691072e-07
9.8578155e-08
-5.7347696e-07
1.1322785e-07
-6.338968e-07
1.2862458e-07
-6.9824227e-07
1.4470718e-07
-7.6656959e-07
1.6141024e-07
-8.389177e-07
1.786639e-07
-9.1529804e-07
1.9639398e-07
-9.9571676e-07
2.1451424e-07
-1.0801641e-06
2.329367e-07
-1.1686125e-06
2.515716e-07
-1.261015e-06
2.7032854e-07
-1.357305e-06
2.8911604e-07
-1.4573949e-06
3.0784207e-07
-1.5611797e-06
3.2641285e-07
-1.6685377e-06
3.4473436e-07
-1.7793283e-06
3.6271457e-07
-1.8933949e-06
3.8026213e-07
-2.0105641e-06
3.9728846e-07
-2.1306469e-06
4.1370781e-07
-2.2534396e-06
4.2943782e-07
-2.3787249e-06
4.4440003e-07
-2.5062723e-06
4.5852089e-07
-2.6358396e-06
4.7173156e-07
-2.7671742e-06
4.8396835e-07
-2.9000141e-06
4.9517333e-07
-3.0340887e-06
5.0529446e-07
-3.1691209e-06
5.1428535e-07
-3.3048292e-06
5.2210562e-07
-3.4409279e-06
5.2872124e-07
-3.5771294e-06
5.341048e-07
-3.7131446e-06
5.3823539e-07
-3.8486846e-06
5.4109873e-07
-3.9834621e-06
5.4268692e-07
-4.1171924e-06
5.4299821e-07
-4.2495951e-06
5.4203703e-07
-4.3803947e-06
5.3981374e-07
-4.5093224e-06
5.3634431e-07
-4.6361163e-06
5.3165013e-07
-4.7605232e-06
5.2575772e-07
-4.8822989e-06
5.1869842e-07
-5.0012092e-06
5.1050788e-07
-5.1170311e-06
5.0122583e-07
-5.2295523e-06
4.9089585e-07
-5.3385728e-06
4.7956467e-07
-5.4439052e-06
4.6728181e-07
-5.5453749e-06
4.5409942e-07
-5.64282e-06
4.4007183e-07
-5.7360922e-06
4.2525496e-07
-5.8250567e-06
4.0970603e-07
-5.9095921e-06
3.934833e-07
-5.9895901e-06
3.7664545e-07
-6.0649561e-06
3.5925136e-07
-6.1356088e-06
3.4135973e-07
-6.2014795e-06
3.2302885e-07
-6.2625127e-06
3.0431618e-07
-6.318665e-06
2.8527828e-07
-6.369905e-06
2.6597044e-07
-6.4162132e-06
2.464465e-07
-6.457581e-06
2.2675866e-07
-6.4940102e-06
2.0695733e-07
-6.5255132e-06
1.870908e-07
-6.5521114e-06
1.6720531e-07
-6.5738358e-06
1.4734488e-07
-6.5907254e-06
1.2755129e-07
-6.6028275e-06
1.0786396e-07
-6.6101968e-06
8.8320162e-08
-6.6128953e-06
6.8955396e-08
-6.6109927e-06
4.9803517e-08
-6.6045676e-06
3.0898474e-08
-6.5937267e-06
1.229203e-08
-6.5784162e-06
-6.1422582e-09
-6.5588208e-06
-2.4257548e-08
-6.53505e-06
-4.2029623e-08
-6.5071844e-06
-5.9452603e-08
-6.4753103e-06
-7.651033e-08
-6.4395213e-06
-9.3192445e-08
-6.3999165e-06
-1.0949087e-07
-6.3565962e-06
-1.2539722e-07
-6.3096596e-06
-1.4090409e-07
-6.259204e-06
-1.5600582e-07
-6.205329e-06
-1.707005e-07
-6.1481355e-06
-1.8498751e-07
-6.0877235e-06
-1.9886707e-07
-6.0241923e-06
-2.1234042e-07
-5.9576396e-06
-2.2540977e-07
-5.8881618e-06
-2.3807836e-07
-5.8158537e-06
-2.5035041e-07
-5.7408078e-06
-2.6223109e-07
-5.6631151e-06
-2.7372644e-07
-5.582864e-06
-2.8484345e-07
-5.5001414e-06
-2.9558986e-07
-5.4150316e-06
-3.0597403e-07
-5.3276165e-06
-3.1600485e-07
-5.2379759e-06
-3.2569166e-07
-5.1461866e-06
-3.3504418e-07
-5.0523232e-06
-3.4407248e-07
-4.9564574e-06
-3.527868e-07
-4.8586584e-06
-3.6119773e-07
-4.7589925e-06
-3.6931597e-07
-4.6575237e-06
-3.7715229e-07
-4.554313e-06
-3.8471756e-07
-4.4494187e-06
-3.9202273e-07
-4.3428967e-06
-3.9907866e-07
-4.2348002e-06
-4.0589614e-07
-4.1251796e-06
-4.1248597e-07
-4.0140829e-06
-4.1885879e-07
-3.9015555e-06
-4.2502501e-07
-3.7876406e-06
-4.3099505e-07
-3.6723786e-06
-4.3677897e-07
-3.5558078e-06
-4.4238672e-07
-3.437964e-06
-4.4782795e-07
-3.3188809e-06
-4.5311209e-07
-3.1985901e-06
-4.5824828e-07
-3.0771208e-06
-4.6324537e-07
-2.9545006e-06
-4.6811193e-07
-2.8307547e-06
-4.7285616e-07
-2.7059068e-06
-4.7748597e-07
-2.5799784e-06
-4.8200879e-07
-2.4529896e-06
-4.8643179e-07
-2.3249587e-06
-4.9076156e-07
-2.1959025e-06
-4.9500436e-07
-2.0658359e-06
-4.9916582e-07
-1.9347728e-06
-5.0325091e-07
-1.8027253e-06
-5.0726392e-07
-1.6697036e-06
-5.1120827e-07
-1.5357161e-06
-5.1508626e-07
-1.4007687e-06
-5.1889915e-07
-1.2648632e-06
-5.2264712e-07
-1.1279963e-06
-5.2633016e-07
-9.9015745e-07
-5.2995052e-07
-8.5132766e-07
-5.3351835e-07
-7.1148181e-07
-5.3706355e-07
-5.7060291e-07
-5.4065604e-07
-4.2872239e-07
-5.4443628e-07
-2.8600617e-07
-5.4863833e-07
-1.4288044e-07
-5.5357389e-07
-5.5925726e-07
-7.8832541e-10
-9.0264188e-10
-3.0797594e-09
-2.5528022e-09
-6.8267898e-09
-3.8268456e-09
-1.199283e-08
-4.5851293e-09
-1.8613889e-08
-4.7880634e-09
-2.6765797e-08
-4.4046712e-09
-3.6545483e-08
-3.3969403e-09
-4.8061595e-08
-1.7122627e-09
-6.1436932e-08
7.1103209e-10
-7.6786446e-08
3.9390954e-09
-9.4250261e-08
8.0325245e-09
-1.139563e-07
1.3055387e-08
-1.3603567e-07
1.9061093e-08
-1.606464e-07
2.6088751e-08
-1.8792232e-07
3.4181723e-08
-2.18009e-07
4.3365616e-08
-2.5105086e-07
5.3657201e-08
-2.8719152e-07
6.5062809e-08
-3.2657635e-07
7.7578469e-08
-3.6933709e-07
9.1194183e-08
-4.1560254e-07
1.0588684e-07
-4.6549529e-07
1.2162342e-07
-5.1912756e-07
1.3836241e-07
-5.7660207e-07
1.5605266e-07
-6.3800904e-07
1.7463482e-07
-7.0342579e-07
1.9404133e-07
-7.7291582e-07
2.141972e-07
-8.4652662e-07
2.3502104e-07
-9.2428806e-07
2.5642535e-07
-1.0062106e-06
2.7831652e-07
-1.0922901e-06
3.0059372e-07
-1.1825054e-06
3.2315204e-07
-1.2768175e-06
3.4588367e-07
-1.3751679e-06
3.6867894e-07
-1.4774788e-06
3.914269e-07
-1.5836524e-06
4.1401571e-07
-1.6935726e-06
4.3633302e-07
-1.8071051e-06
4.5826689e-07
-1.9240976e-06
4.7970704e-07
-2.0443806e-06
5.0054515e-07