/*--------------------------------*- C++ -*----------------------------------*\
| =========                 |                                                 |
| \\      /  F ield         | OpenFOAM: The Open Source CFD Toolbox           |
|  \\    /   O peration     | Version:  2306                                  |
|   \\  /    A nd           | Website:  www.openfoam.com                      |
|    \\/     M anipulation  |                                                 |
\*---------------------------------------------------------------------------*/
FoamFile
{
    version     2.0;
    format      ascii;
    arch        "LSB;label=32;scalar=64";
    class       volVectorField;
    location    "0.46";
    object      U_0;
}
// * * * * * * * * * * * * * * * * * * * * * * * * * * * * * * * * * * * * * //

dimensions      [0 1 -1 0 0 0 0];

internalField   nonuniform List<vector> 
51200
(
(2.2161576e-05 -2.4350195e-05 -5.4026184e-20)
(4.8754673e-05 -2.497594e-05 -3.4666997e-21)
(7.7352594e-05 -2.4009342e-05 8.1251077e-21)
(0.00010402444 -2.3242713e-05 5.9445573e-21)
(0.00013005269 -2.2730285e-05 -5.6233555e-21)
(0.00015532818 -2.2356171e-05 -1.3291798e-21)
(0.00018001886 -2.2051957e-05 1.8816945e-21)
(0.00020420165 -2.1765618e-05 -3.9270443e-21)
(0.00022786265 -2.1472606e-05 2.4809525e-21)
(0.00025095568 -2.1161641e-05 1.9193902e-20)
(0.00027342146 -2.0827924e-05 2.5499959e-20)
(0.00029519438 -2.0469223e-05 2.2689663e-20)
(0.00031620783 -2.0086154e-05 3.0569454e-20)
(0.00033640002 -1.9679283e-05 8.3519731e-21)
(0.00035570903 -1.9247728e-05 1.2773602e-21)
(0.00037408204 -1.8796179e-05 2.113359e-20)
(0.00039147329 -1.8323655e-05 2.9800445e-20)
(0.00040783845 -1.7832833e-05 1.0411565e-20)
(0.00042313391 -1.7322513e-05 -1.597387e-20)
(0.00043732598 -1.6800253e-05 -6.5247295e-21)
(0.00045039093 -1.6265724e-05 1.2755841e-20)
(0.00046229555 -1.5717365e-05 2.3219986e-20)
(0.00047302251 -1.516636e-05 4.4254094e-20)
(0.00048256175 -1.4607382e-05 4.5234237e-20)
(0.00049089967 -1.4045526e-05 -7.4595891e-22)
(0.0004980328 -1.3482195e-05 -9.3077772e-20)
(0.00050395583 -1.2916469e-05 -1.2933999e-19)
(0.00050867274 -1.235509e-05 -6.2721606e-20)
(0.00051219244 -1.179576e-05 1.6437747e-20)
(0.00051452183 -1.1236655e-05 1.1434726e-19)
(0.00051566727 -1.0673111e-05 9.1695949e-20)
(0.0005156534 -1.0121851e-05 -6.6347688e-20)
(0.00051450824 -9.5684449e-06 -1.0084842e-19)
(0.00051226063 -9.0193208e-06 -5.7503811e-20)
(0.00050895347 -8.4678421e-06 3.930874e-20)
(0.00050461454 -7.9041178e-06 8.6782708e-20)
(0.00049927055 -7.3485019e-06 -1.0201426e-19)
(0.00049294987 -6.7923113e-06 -2.3774919e-19)
(0.00048570268 -6.2704373e-06 6.2612103e-20)
(0.00047758355 -5.7593414e-06 2.6309626e-19)
(0.0004686291 -5.2749558e-06 4.3164143e-20)
(0.00045887932 -4.812321e-06 -6.3670505e-20)
(0.00044838242 -4.3620561e-06 8.4565649e-20)
(0.00043719884 -3.9056891e-06 1.2919843e-19)
(0.00042538125 -3.4693589e-06 2.3767755e-20)
(0.00041297879 -3.0546539e-06 -2.3363961e-20)
(0.0004000432 -2.6552642e-06 -2.2541559e-19)
(0.00038661343 -2.2647094e-06 -4.1444766e-20)
(0.00037274866 -1.9129688e-06 4.2596884e-21)
(0.00035851435 -1.5724213e-06 -3.8585633e-19)
(0.00034395618 -1.2477293e-06 1.4350231e-19)
(0.00032912295 -9.4065948e-07 3.8974669e-19)
(0.00031406494 -6.5196793e-07 1.3711638e-19)
(0.00029882912 -3.828044e-07 6.1881647e-20)
(0.00028346242 -1.3070956e-07 -4.2862885e-19)
(0.00026801361 1.0455203e-07 -3.3218143e-19)
(0.00025252703 3.2229419e-07 2.1020259e-19)
(0.00023704528 5.2332924e-07 1.1690081e-19)
(0.00022160948 7.0805611e-07 8.3596161e-21)
(0.00020625911 8.7789336e-07 4.0314973e-20)
(0.00019103529 1.0334173e-06 -3.2627167e-20)
(0.00017596762 1.1722403e-06 8.9858149e-20)
(0.00016109069 1.3017257e-06 -3.0653247e-20)
(0.00014644626 1.4184055e-06 -3.714908e-19)
(0.00013205129 1.5180148e-06 -4.0483712e-19)
(0.00011793084 1.6103928e-06 1.3701486e-19)
(0.00010412219 1.6938129e-06 6.360062e-19)
(9.0649096e-05 1.7647329e-06 7.2123297e-21)
(7.7515505e-05 1.8204105e-06 -2.7860687e-19)
(6.4745111e-05 1.8740023e-06 1.671467e-19)
(5.2371601e-05 1.9177245e-06 -1.9299426e-20)
(4.0388452e-05 1.9471627e-06 -6.1028337e-20)
(2.8807152e-05 1.9741675e-06 1.0304101e-19)
(1.7652913e-05 1.9949742e-06 8.6869512e-20)
(6.9275051e-06 2.0074282e-06 1.2026873e-19)
(-3.3679073e-06 2.0138873e-06 -1.5081674e-19)
(-1.3222951e-05 2.0164594e-06 -1.9778227e-19)
(-2.2632528e-05 2.0130674e-06 8.2225323e-20)
(-3.1598588e-05 2.0046276e-06 1.5443627e-19)
(-4.0120902e-05 1.9917628e-06 -1.3558981e-19)
(-4.8200694e-05 1.9749734e-06 -4.2376831e-19)
(-5.5840527e-05 1.9546912e-06 2.1443145e-19)
(-6.30442e-05 1.9313163e-06 3.6917352e-19)
(-6.981664e-05 1.9052224e-06 -2.0902493e-20)
(-7.6163816e-05 1.8767586e-06 8.0781465e-20)
(-8.2092642e-05 1.8462589e-06 -1.3488152e-19)
(-8.7610895e-05 1.8140305e-06 6.4670266e-20)
(-9.2727122e-05 1.7803599e-06 4.1271568e-20)
(-9.7450554e-05 1.7455164e-06 -3.2377444e-19)
(-0.00010179103 1.709741e-06 -2.4815499e-20)
(-0.00010575891 1.6732754e-06 -2.0779042e-19)
(-0.00010936499 1.6363463e-06 -1.1334197e-19)
(-0.00011262032 1.5991198e-06 3.0507337e-19)
(-0.00011553609 1.5616966e-06 1.7976907e-19)
(-0.00011812348 1.5240093e-06 -4.3930352e-20)
(-0.00012039362 1.4859796e-06 -2.918699e-19)
(-0.00012235749 1.4475598e-06 9.4895891e-20)
(-0.00012402635 1.4092018e-06 2.9930554e-19)
(-0.0001254124 1.3709951e-06 6.7868906e-20)
(-0.00012652751 1.3333001e-06 -1.4959211e-19)
(-0.00012738262 1.2968539e-06 -3.3047095e-19)
(-0.00012798816 1.2639646e-06 1.2005397e-19)
(-0.000128357 1.2491799e-06 2.0476448e-19)
(-0.0001285031 1.2368518e-06 6.3605275e-20)
(-0.00012843766 1.2239069e-06 -6.2917036e-20)
(-0.00012817082 1.2103347e-06 -3.5341145e-19)
(-0.00012771255 1.1965178e-06 1.0141751e-19)
(-0.00012707254 1.1826373e-06 2.8075795e-19)
(-0.00012625945 1.1682792e-06 5.6248266e-20)
(-0.00012527858 1.1513505e-06 4.022134e-20)
(-0.00012414167 1.1238208e-06 -2.7133695e-19)
(-0.00012286629 1.0892839e-06 -1.6683725e-19)
(-0.00012146107 1.0550615e-06 1.8530888e-19)
(-0.00011993082 1.0226845e-06 8.3296143e-20)
(-0.0001182827 9.9230153e-07 1.512788e-20)
(-0.00011652431 9.6373219e-07 -5.7919786e-20)
(-0.0001146631 9.3678333e-07 -2.7535426e-22)
(-0.00011270628 9.1128549e-07 1.0585777e-19)
(-0.00011066074 8.8711619e-07 -1.7722705e-20)
(-0.00010853306 8.6417626e-07 -3.3412703e-20)
(-0.00010632952 8.423835e-07 -5.7220713e-20)
(-0.00010405609 8.2167829e-07 1.9684802e-20)
(-0.00010171843 8.0200264e-07 8.5158804e-20)
(-9.9321921e-05 7.8330504e-07 -2.9779597e-21)
(-9.6871671e-05 7.6554171e-07 -4.8180673e-20)
(-9.4372507e-05 7.4867019e-07 -1.0691471e-19)
(-9.1828997e-05 7.3265462e-07 1.7282772e-20)
(-8.9245456e-05 7.1745318e-07 1.157449e-19)
(-8.6625952e-05 7.0303238e-07 2.8388216e-20)
(-8.3974322e-05 6.8936184e-07 -3.447787e-20)
(-8.1294173e-05 6.7640462e-07 -6.6834072e-20)
(-7.8588898e-05 6.6412541e-07 2.5179712e-20)
(-7.5861679e-05 6.5250095e-07 7.9620442e-20)
(-7.3115503e-05 6.4149619e-07 -7.9310433e-21)
(-7.0353169e-05 6.3108335e-07 -7.0126228e-20)
(-6.7577296e-05 6.2123525e-07 -3.4361034e-20)
(-6.4790332e-05 6.1192578e-07 4.2511399e-20)
(-6.1994566e-05 6.0312264e-07 3.0064058e-20)
(-5.9192129e-05 5.9480189e-07 8.4005031e-21)
(-5.6385017e-05 5.8694112e-07 6.8328521e-23)
(-5.3575087e-05 5.7951011e-07 -2.8213864e-20)
(-5.0764074e-05 5.7248612e-07 1.8221797e-20)
(-4.7953602e-05 5.6584427e-07 2.076619e-20)
(-4.5145192e-05 5.5956267e-07 -1.4014116e-20)
(-4.2340276e-05 5.53621e-07 -6.1121358e-21)
(-3.954021e-05 5.4800625e-07 -4.0865897e-20)
(-3.6746302e-05 5.4271473e-07 -2.3465276e-21)
(-3.3959847e-05 5.3776487e-07 5.3547617e-20)
(-3.1182182e-05 5.3321714e-07 1.0301949e-20)
(-2.8414807e-05 5.2920327e-07 -1.9916163e-20)
(-2.5659591e-05 5.2598445e-07 -2.4873074e-20)
(-2.2919176e-05 5.2400492e-07 4.8910775e-22)
(-2.0197695e-05 5.2408209e-07 2.2956427e-20)
(-1.7502007e-05 5.2788968e-07 6.2244825e-21)
(-1.4843612e-05 5.3869533e-07 -2.1896304e-21)
(-1.2240364e-05 5.6165968e-07 -7.2062438e-21)
(-9.7140956e-06 5.9996404e-07 -3.8632839e-21)
(-7.2724474e-06 6.3232229e-07 4.7386639e-21)
(-4.8457344e-06 5.0689387e-07 2.8870375e-21)
(-1.8442766e-06 -1.3131699e-07 -7.1312982e-23)
(2.6647892e-05 -0.00010412227 1.7134118e-20)
(5.6771725e-05 -9.935747e-05 -5.6730955e-21)
(8.925654e-05 -9.5342618e-05 -9.6795492e-21)
(0.00011909271 -9.1511407e-05 -6.8941532e-21)
(0.00014764629 -8.857434e-05 -1.3038214e-20)
(0.00017487241 -8.6315048e-05 -1.3187653e-20)
(0.0002009961 -8.4442505e-05 -8.4962745e-21)
(0.00022614952 -8.2730529e-05 7.0364264e-22)
(0.0002503337 -8.1053524e-05 1.9003259e-20)
(0.00027349883 -7.9335594e-05 5.9080799e-20)
(0.00029556838 -7.7538263e-05 6.9668715e-20)
(0.00031644917 -7.5639479e-05 8.8484564e-20)
(0.00033604273 -7.3631859e-05 9.2099385e-20)
(0.00035425798 -7.1515732e-05 3.6432004e-20)
(0.00037099907 -6.9278205e-05 4.0920784e-20)
(0.00038618739 -6.6952e-05 6.7860461e-20)
(0.00039975595 -6.4525275e-05 7.3550085e-20)
(0.00041164119 -6.2012086e-05 2.9475593e-20)
(0.00042177777 -5.9398791e-05 -5.9628318e-20)
(0.00043011788 -5.6733963e-05 -2.8869645e-20)
(0.00043663842 -5.3999763e-05 2.4088051e-20)
(0.00044129152 -5.118329e-05 4.6831844e-20)
(0.00044406421 -4.8347146e-05 1.1222917e-19)
(0.00044495332 -4.5463223e-05 1.6551305e-19)
(0.00044394636 -4.2546946e-05 -3.3669967e-20)
(0.00044105788 -3.9615072e-05 -3.5813065e-19)
(0.00043628925 -3.6654561e-05 -2.7459448e-19)
(0.00042966479 -3.3705393e-05 -1.1471913e-19)
(0.00042122491 -3.0753436e-05 -6.4971037e-20)
(0.0004110038 -2.7789793e-05 3.559736e-19)
(0.00039900964 -2.4855989e-05 3.3482901e-19)
(0.00038531177 -2.195777e-05 -2.9379712e-19)
(0.00036998492 -1.9104954e-05 -4.6844201e-19)
(0.00035308314 -1.6303513e-05 -7.651396e-20)
(0.00033470221 -1.3569625e-05 4.2818723e-19)
(0.0003148807 -1.0942345e-05 2.2579961e-19)
(0.00029368908 -8.4029354e-06 -3.763999e-19)
(0.00027117599 -5.9430798e-06 -5.239671e-19)
(0.00024745503 -3.5615982e-06 1.3654224e-19)
(0.00022265049 -1.2690031e-06 3.0221989e-19)
(0.00019682315 9.2550465e-07 -3.5343334e-19)
(0.00017008338 3.0205708e-06 1.8982873e-20)
(0.0001425412 5.0198844e-06 1.0054909e-18)
(0.0001142657 6.9231706e-06 1.3834379e-18)
(8.5334565e-05 8.7216175e-06 -1.4839995e-19)
(5.5878018e-05 1.0412953e-05 -2.0848801e-18)
(2.6001898e-05 1.1994456e-05 -1.1059631e-18)
(-4.2473828e-06 1.3465136e-05 7.6065266e-19)
(-3.4746125e-05 1.4825732e-05 8.7090034e-19)
(-6.5362741e-05 1.6077317e-05 -4.0083878e-19)
(-9.6038825e-05 1.7219302e-05 -7.5288714e-19)
(-0.00012668244 1.8251947e-05 9.9275108e-19)
(-0.00015720484 1.9176188e-05 1.1630841e-18)
(-0.00018752173 1.9991904e-05 -2.7959581e-19)
(-0.00021755168 2.0704762e-05 -7.8192545e-19)
(-0.00024721532 2.1316991e-05 -8.0710821e-19)
(-0.0002764383 2.1829807e-05 -1.6369205e-19)
(-0.00030514997 2.2246978e-05 6.9716426e-19)
(-0.00033328356 2.2571557e-05 3.0055223e-19)
(-0.00036077663 2.2808343e-05 -6.8781652e-19)
(-0.0003875698 2.2961137e-05 -2.6699706e-19)
(-0.0004136109 2.3029443e-05 8.3416183e-19)
(-0.00043885033 2.3026661e-05 1.4878918e-19)
(-0.00046324031 2.295154e-05 -1.171312e-18)
(-0.00048674341 2.2802088e-05 -7.1628162e-19)
(-0.00050932358 2.2594443e-05 7.2233234e-19)
(-0.00053094605 2.2329679e-05 1.0366599e-18)
(-0.00055158353 2.2007292e-05 1.6165653e-19)
(-0.00057121592 2.1627739e-05 -6.2807045e-19)
(-0.00058982297 2.1210095e-05 -1.0848365e-18)
(-0.00060738663 2.0748481e-05 6.1566557e-20)
(-0.00062389949 2.0241506e-05 8.8724027e-19)
(-0.00063935415 1.9706257e-05 1.6534457e-19)
(-0.00065374404 1.9141592e-05 1.7040564e-19)
(-0.00066706967 1.8548247e-05 2.1665594e-19)
(-0.00067933495 1.7932107e-05 1.4768113e-19)
(-0.00069054444 1.7298749e-05 -3.1792404e-19)
(-0.00070070603 1.6648373e-05 -7.450072e-19)
(-0.00070983184 1.5984569e-05 -7.1860027e-20)
(-0.0007179359 1.5310583e-05 3.1159025e-19)
(-0.00072503438 1.4629399e-05 5.7348159e-20)
(-0.0007311455 1.3943787e-05 1.2817347e-19)
(-0.00073628937 1.3256328e-05 8.7413035e-20)
(-0.00074048782 1.2569437e-05 -5.4729869e-19)
(-0.00074376423 1.1885344e-05 -7.236678e-20)
(-0.00074614331 1.1206122e-05 4.6659996e-19)
(-0.00074765095 1.0533673e-05 -1.2531628e-19)
(-0.00074831404 9.869724e-06 3.3044891e-19)
(-0.00074816028 9.215862e-06 1.502198e-19)
(-0.00074721804 8.5735013e-06 -6.9195036e-19)
(-0.00074551618 7.9439205e-06 -4.7712785e-19)
(-0.00074308389 7.3281298e-06 1.1686183e-20)
(-0.00073995059 6.7268111e-06 3.9125446e-19)
(-0.00073614566 6.1405176e-06 1.2129085e-20)
(-0.00073169823 5.569747e-06 -1.0994554e-19)
(-0.00072663711 5.0150967e-06 7.6278977e-20)
(-0.00072099029 4.476006e-06 2.1016469e-19)
(-0.00071478609 3.9545579e-06 3.2281601e-19)
(-0.00070805362 3.453677e-06 -3.0276436e-19)
(-0.00070082054 2.9700167e-06 -5.0480139e-19)
(-0.00069311212 2.5041739e-06 -8.6566811e-21)
(-0.00068494134 2.0545798e-06 3.8590747e-19)
(-0.00067635509 1.6069155e-06 3.1290145e-19)
(-0.0006673987 1.1747086e-06 -1.3840561e-19)
(-0.00065808068 7.6115276e-07 -3.0941898e-19)
(-0.00064842081 3.6674043e-07 -1.7716724e-19)
(-0.00063844187 -8.6350186e-09 2.2284792e-19)
(-0.00062816681 -3.6534832e-07 5.1629697e-19)
(-0.00061761848 -7.040726e-07 4.8868689e-20)
(-0.00060682119 -1.0265829e-06 -3.2844084e-19)
(-0.00059579196 -1.3386783e-06 -1.7471118e-19)
(-0.0005845435 -1.6401774e-06 -1.4693185e-19)
(-0.00057309633 -1.9273182e-06 2.8527808e-19)
(-0.00056147178 -2.1993866e-06 4.1689226e-19)
(-0.00054968757 -2.4566075e-06 -1.7178059e-19)
(-0.00053775996 -2.6995059e-06 -3.9429511e-19)
(-0.00052570432 -2.9286785e-06 -9.6219629e-20)
(-0.00051353523 -3.144722e-06 3.5387395e-19)
(-0.0005012665 -3.3482092e-06 9.9766946e-20)
(-0.00048891125 -3.5396985e-06 -4.3524871e-19)
(-0.00047648184 -3.7197331e-06 -1.3083306e-19)
(-0.00046398996 -3.8888264e-06 4.1309067e-19)
(-0.00045144659 -4.0474826e-06 3.3137654e-19)
(-0.00043886209 -4.1962025e-06 -2.3359839e-19)
(-0.00042624612 -4.3354529e-06 -5.0395085e-19)
(-0.00041360777 -4.4656963e-06 -3.6561438e-20)
(-0.0004009555 -4.5873734e-06 3.7549342e-19)
(-0.00038829722 -4.7009222e-06 2.044087e-19)
(-0.00037564027 -4.8067586e-06 -7.5562193e-20)
(-0.00036299147 -4.9052766e-06 -2.0812728e-19)
(-0.00035035713 -4.9968683e-06 -9.1456778e-20)
(-0.00033774309 -5.0819088e-06 2.3012063e-19)
(-0.00032515473 -5.1607443e-06 2.5768626e-19)
(-0.00031259698 -5.2337212e-06 -3.7210102e-20)
(-0.00030007437 -5.3011622e-06 -2.5436005e-19)
(-0.00028759103 -5.3633731e-06 -6.8617308e-20)
(-0.00027515073 -5.4206479e-06 1.4031193e-19)
(-0.00026275688 -5.473267e-06 6.5131961e-20)
(-0.00025041259 -5.5214888e-06 -2.1075386e-21)
(-0.00023812064 -5.5655525e-06 -3.4234892e-20)
(-0.00022588353 -5.6056902e-06 -3.5698183e-20)
(-0.0002137035 -5.6421012e-06 -3.3644658e-21)
(-0.00020158255 -5.6749781e-06 4.1888789e-20)
(-0.00018952249 -5.7044825e-06 -2.0491457e-20)
(-0.00017752491 -5.7307544e-06 -8.8285242e-20)
(-0.00016559126 -5.7538919e-06 -2.4246506e-20)
(-0.00015372287 -5.7739473e-06 7.6387082e-20)
(-0.00014192104 -5.7909021e-06 8.6787193e-20)
(-0.00013018713 -5.8046022e-06 -2.8769723e-20)
(-0.00011852272 -5.8146554e-06 -8.6349426e-20)
(-0.00010693 -5.8202112e-06 -6.0099924e-21)
(-9.5412174e-05 -5.8195434e-06 5.7421445e-20)
(-8.3973923e-05 -5.8094215e-06 3.3867751e-20)
(-7.2621806e-05 -5.784517e-06 -1.0922863e-20)
(-6.1364176e-05 -5.7374256e-06 -2.136166e-20)
(-5.0208253e-05 -5.662304e-06 -2.9648994e-21)
(-3.9149158e-05 -5.5712507e-06 1.2973875e-20)
(-2.814301e-05 -5.5445579e-06 1.3661304e-20)
(-1.7087185e-05 -5.8328946e-06 7.2456406e-21)
(-5.7555763e-06 -6.8498277e-06 6.6369457e-21)
(1.4694364e-05 -0.00016906199 2.6824723e-20)
(3.0810897e-05 -0.00016053629 -2.8928438e-20)
(4.8510114e-05 -0.00015347508 -5.9174218e-20)
(6.4298898e-05 -0.00014636945 -4.8681164e-20)
(7.8853275e-05 -0.00014064358 -8.2153258e-21)
(9.2145154e-05 -0.0001360216 -3.8617387e-20)
(0.00010423783 -0.00013206105 -3.1089875e-20)
(0.00011521753 -0.00012841063 3.438149e-21)
(0.00012506711 -0.00012483353 4.8248922e-20)
(0.00013375019 -0.00012118846 1.0396535e-19)
(0.00014120563 -0.00011739232 1.0661377e-19)
(0.00014735533 -0.00011340296 1.1386744e-19)
(0.00015210945 -0.00010919948 8.4028622e-20)
(0.00015539998 -0.00010478324 9.4787873e-20)
(0.0001571152 -0.00010015463 1.3054479e-19)
(0.0001571898 -9.532661e-05 8.9406523e-20)
(0.00015558243 -9.0309991e-05 7.4992351e-20)
(0.00015224218 -8.512262e-05 1.7667477e-20)
(0.00014708129 -7.9783231e-05 -4.1773126e-20)
(0.0001400723 -7.4304988e-05 1.4618075e-20)
(0.00013125284 -6.8708704e-05 6.5161967e-20)
(0.00012051645 -6.3020584e-05 6.9424118e-20)
(0.00010787699 -5.7249087e-05 1.1240671e-19)
(9.3384236e-05 -5.1424402e-05 7.5340151e-20)
(7.7003812e-05 -4.5557957e-05 -1.418755e-19)
(5.8787337e-05 -3.9674571e-05 -1.6785346e-19)
(3.8733464e-05 -3.3797735e-05 -7.9861448e-20)
(1.688532e-05 -2.7946189e-05 -1.4391249e-19)
(-6.6608819e-06 -2.2152541e-05 -1.8422122e-19)
(-3.1912627e-05 -1.6483624e-05 1.1806134e-19)
(-5.8833561e-05 -1.0907293e-05 2.2444062e-19)
(-8.7313619e-05 -5.4065405e-06 -1.9603417e-19)
(-0.00011726964 -2.4913656e-08 -3.4682377e-19)
(-0.00014862485 5.2296693e-06 -1.3458095e-19)
(-0.0001813109 1.0323119e-05 2.5456776e-19)
(-0.0002152062 1.5215399e-05 3.3610144e-19)
(-0.00025017459 1.991534e-05 -8.3945774e-20)
(-0.00028614564 2.4403625e-05 -1.9966909e-19)
(-0.0003230224 2.8721195e-05 -1.4546725e-19)
(-0.00036069143 3.2822227e-05 -3.8989211e-19)
(-0.00039904505 3.6712052e-05 -3.0875153e-19)
(-0.00043796728 4.0380016e-05 5.0526246e-19)
(-0.00047734068 4.3817015e-05 9.1619922e-19)
(-0.00051705306 4.6999445e-05 7.1743585e-19)
(-0.00055699265 4.9946109e-05 -1.7461303e-19)
(-0.00059704002 5.2655444e-05 -1.6139082e-18)
(-0.00063708087 5.511639e-05 -7.0202508e-19)
(-0.00067701441 5.7320945e-05 4.494168e-19)
(-0.00071672489 5.9307971e-05 6.9053082e-19)
(-0.00075609443 6.1047295e-05 7.4713836e-19)
(-0.00079502451 6.2544681e-05 -7.3046973e-19)
(-0.00083341599 6.3804897e-05 -2.0537212e-19)
(-0.0008711723 6.4832893e-05 7.5828886e-19)
(-0.00090820157 6.5633642e-05 -9.1114801e-20)
(-0.00094441581 6.6214567e-05 -1.8607412e-19)
(-0.00097973071 6.6582382e-05 -2.9728096e-19)
(-0.0010140678 6.6743949e-05 -2.9626719e-19)
(-0.0010473536 6.670739e-05 3.553421e-19)
(-0.0010795201 6.6481001e-05 7.3441177e-20)
(-0.0011105046 6.6073888e-05 -6.3338044e-19)
(-0.0011402492 6.549511e-05 -1.5269933e-19)
(-0.0011687033 6.4753035e-05 4.4865305e-19)
(-0.0011958206 6.3859649e-05 -9.3701345e-20)
(-0.0012215591 6.2823541e-05 -2.9999647e-19)
(-0.0012458856 6.1653497e-05 3.8472544e-19)
(-0.0012687708 6.0362129e-05 3.6067724e-19)
(-0.0012901886 5.8958793e-05 -2.6133588e-19)
(-0.0013101202 5.7452417e-05 -2.4650387e-19)
(-0.0013285537 5.5852502e-05 -1.0481142e-19)
(-0.0013454796 5.4171223e-05 -5.1433571e-19)
(-0.0013608921 5.2416441e-05 -1.2744837e-19)
(-0.0013747937 5.0596723e-05 3.0071004e-19)
(-0.0013871892 4.8723224e-05 4.0143914e-20)
(-0.0013980862 4.6804109e-05 2.9775983e-19)
(-0.001407498 4.4847196e-05 2.286877e-19)
(-0.0014154414 4.2860987e-05 3.4424231e-19)
(-0.0014219358 4.0853778e-05 -7.2228769e-21)
(-0.0014270041 3.8832148e-05 -8.7220439e-19)
(-0.0014306724 3.6802906e-05 -2.6366141e-19)
(-0.0014329696 3.477261e-05 6.2746802e-19)
(-0.0014339266 3.2747424e-05 2.9206463e-19)
(-0.0014335768 3.0733109e-05 -5.5937487e-19)
(-0.0014319553 2.8735008e-05 -4.2689739e-19)
(-0.0014290989 2.6758058e-05 -2.3443641e-19)
(-0.0014250459 2.4806773e-05 -1.5648295e-19)
(-0.0014198357 2.2885277e-05 2.3504355e-19)
(-0.0014135091 2.0997286e-05 -5.4292413e-20)
(-0.0014061072 1.9146129e-05 2.5479654e-19)
(-0.001397672 1.7334777e-05 5.7223366e-19)
(-0.0013882459 1.5565809e-05 -2.7768937e-19)
(-0.0013778718 1.3841412e-05 -4.9718715e-19)
(-0.0013665926 1.2163471e-05 -2.0665495e-20)
(-0.0013544509 1.0533678e-05 1.4635704e-19)
(-0.0013414885 8.9531338e-06 -1.8074352e-19)
(-0.0013277466 7.4218899e-06 2.2933678e-20)
(-0.0013132671 5.9409606e-06 4.7457094e-19)
(-0.0012980884 4.5055143e-06 5.7710308e-21)
(-0.0012822467 3.1250958e-06 -2.5811712e-19)
(-0.0012657876 1.7961606e-06 -3.5869738e-19)
(-0.0012487519 5.2063143e-07 -1.3362624e-19)
(-0.0012311747 -7.0468901e-07 4.0187632e-19)
(-0.0012131062 -1.8851988e-06 2.5870677e-19)
(-0.0011945683 -3.0402463e-06 2.443516e-20)
(-0.0011755808 -4.1501306e-06 -2.9639157e-19)
(-0.0011561901 -5.209806e-06 -9.2104361e-20)
(-0.0011364309 -6.2192368e-06 3.6035842e-19)
(-0.0011163346 -7.1795e-06 9.0470678e-20)
(-0.0010959308 -8.0918749e-06 1.6393325e-20)
(-0.0010752483 -8.9574683e-06 -8.6406651e-20)
(-0.0010543153 -9.7768173e-06 -2.8516981e-19)
(-0.0010331588 -1.0548093e-05 3.6211958e-20)
(-0.0010118027 -1.1275232e-05 1.1522836e-19)
(-0.00099026986 -1.1962994e-05 1.0495676e-19)
(-0.0009685832 -1.2613269e-05 2.3931966e-19)
(-0.00094676457 -1.3227388e-05 -1.0273045e-19)
(-0.00092483457 -1.3806614e-05 -3.6972704e-19)
(-0.0009028126 -1.4352254e-05 -1.6916514e-19)
(-0.00088071694 -1.4865619e-05 1.4840403e-19)
(-0.00085856483 -1.5348059e-05 1.1455969e-19)
(-0.00083637247 -1.5800901e-05 -1.0186247e-19)
(-0.00081415505 -1.6225474e-05 3.2933752e-20)
(-0.00079192682 -1.6623082e-05 1.7840239e-19)
(-0.00076970107 -1.6995e-05 7.1279817e-20)
(-0.00074749021 -1.7342484e-05 -1.8982272e-19)
(-0.00072530577 -1.7666754e-05 -2.2314494e-19)
(-0.00070315845 -1.7968991e-05 9.5328266e-20)
(-0.00068105813 -1.8250348e-05 2.0786789e-19)
(-0.00065901396 -1.8511939e-05 1.0166812e-19)
(-0.00063703432 -1.8754837e-05 -8.597738e-20)
(-0.00061512689 -1.8980082e-05 -9.3329633e-20)
(-0.00059329871 -1.9188668e-05 3.7964643e-20)
(-0.00057155616 -1.9381555e-05 6.8350995e-20)
(-0.00054990501 -1.9559663e-05 1.1536324e-19)
(-0.00052835047 -1.9723862e-05 7.2305506e-20)
(-0.00050689722 -1.9874999e-05 -5.5128093e-20)
(-0.0004855494 -2.0013862e-05 -8.2030642e-20)
(-0.00046431067 -2.0141208e-05 2.2576933e-22)
(-0.00044318428 -2.0257751e-05 3.4635908e-20)
(-0.000422173 -2.0364165e-05 -1.1278525e-20)
(-0.00040127925 -2.0461082e-05 -1.9552028e-20)
(-0.00038050506 -2.0549086e-05 -7.1594006e-21)
(-0.00035985214 -2.0628707e-05 -4.8785294e-20)
(-0.00033932189 -2.0700448e-05 9.186512e-21)
(-0.00031891543 -2.076474e-05 1.822989e-20)
(-0.00029863367 -2.0821948e-05 -3.0015552e-20)
(-0.0002784773 -2.0872366e-05 2.0513177e-20)
(-0.00025844688 -2.0916171e-05 1.7541921e-20)
(-0.00023854292 -2.0953396e-05 1.48813e-21)
(-0.00021876591 -2.098382e-05 9.7572286e-22)
(-0.00019911649 -2.1006818e-05 -3.7353604e-21)
(-0.00017959547 -2.1021066e-05 3.5506701e-20)
(-0.00016020395 -2.1024085e-05 3.1607172e-20)
(-0.00014094336 -2.101183e-05 4.4639646e-21)
(-0.00012181499 -2.0978974e-05 -1.9612462e-20)
(-0.00010281843 -2.0921255e-05 -6.6987992e-21)
(-8.3947917e-05 -2.0843832e-05 2.1287292e-20)
(-6.5184639e-05 -2.0784517e-05 1.1461536e-20)
(-4.6483853e-05 -2.0865616e-05 1.2463284e-20)
(-2.7786809e-05 -2.13679e-05 2.0792394e-20)
(-9.1880986e-06 -2.2627639e-05 2.8516348e-20)
(5.9122112e-07 -0.00018706927 -1.7037561e-20)
(1.015977e-06 -0.00017772827 -1.2436945e-19)
(1.8086253e-06 -0.00016950942 -1.2219224e-19)
(1.8943451e-06 -0.00016080079 -1.386833e-19)
(1.0827086e-06 -0.00015340874 -1.3934566e-19)
(-6.2542886e-07 -0.00014711427 -1.4728927e-19)
(-3.4380893e-06 -0.0001414712 -9.9115574e-20)
(-7.3396779e-06 -0.00013613467 -7.9691925e-21)
(-1.2380762e-05 -0.00013083847 5.9790255e-20)
(-1.8603423e-05 -0.00012540813 1.224087e-19)
(-2.6056323e-05 -0.00011974912 1.383193e-19)
(-3.4801298e-05 -0.0001138082 1.062363e-19)
(-4.4912364e-05 -0.00010756404 5.9170406e-20)
(-5.6449537e-05 -0.00010101303 1.2546798e-19)
(-6.9480528e-05 -9.4178377e-05 1.1439412e-19)
(-8.4059879e-05 -8.7042314e-05 4.4705684e-20)
(-0.00010022964 -7.9648778e-05 8.6422481e-20)
(-0.0001180337 -7.2021561e-05 6.3443799e-20)
(-0.00013750668 -6.421736e-05 4.5374408e-20)
(-0.00015867342 -5.620973e-05 4.6348862e-20)
(-0.00018154416 -4.8056921e-05 6.7295934e-20)
(-0.00020612779 -3.9812899e-05 7.3674017e-20)
(-0.00023241523 -3.1457792e-05 -2.3003663e-20)
(-0.00026038537 -2.3062448e-05 -7.7210649e-20)
(-0.00029001838 -1.4655882e-05 5.7916129e-20)
(-0.00032128223 -6.2647187e-06 2.6919067e-20)
(-0.0003541416 2.054957e-06 -2.4033537e-19)
(-0.00038855142 1.0302672e-05 -1.154022e-19)
(-0.00042448914 1.8415804e-05 8.4957281e-20)
(-0.00046182253 2.6337652e-05 3.1421541e-20)
(-0.00050043423 3.4089641e-05 -1.7693479e-19)
(-0.00054029852 4.1662004e-05 -2.078653e-19)
(-0.000581332 4.90248e-05 1.3304929e-19)
(-0.00062344328 5.6156667e-05 1.6798902e-19)
(-0.00066653677 6.3034782e-05 -1.7399459e-19)
(-0.00071050214 6.966023e-05 -2.9096715e-19)
(-0.0007552169 7.5988918e-05 7.7753957e-20)
(-0.00080057321 8.199036e-05 2.3431449e-19)
(-0.00084645709 8.7657913e-05 -2.1408832e-19)
(-0.0008927485 9.2973649e-05 -2.7111448e-19)
(-0.00093933016 9.7929019e-05 -2.9521907e-20)
(-0.00098608012 0.00010251509 1.5475977e-19)
(-0.0010328762 0.00010672455 2.8516841e-19)
(-0.0010795988 0.00011054886 1.3638798e-19)
(-0.0011261285 0.00011398731 3.8829706e-20)
(-0.0011723447 0.0001170382 -3.3858607e-19)
(-0.0012181302 0.00011969925 -3.0312589e-19)
(-0.0012633728 0.00012197113 1.1537915e-19)
(-0.0013079586 0.00012386563 2.6698309e-19)
(-0.0013517761 0.00012538155 5.111224e-19)
(-0.0013947209 0.00012652388 2.6859222e-21)
(-0.0014366935 0.00012729995 -5.3788429e-19)
(-0.0014775983 0.00012771857 2.5141867e-20)
(-0.0015173449 0.00012778974 2.7911543e-19)
(-0.0015558478 0.00012752528 -6.7316071e-20)
(-0.0015930265 0.00012693748 -2.7641942e-19)
(-0.0016288064 0.00012603925 -2.0330656e-19)
(-0.0016631189 0.00012484457 9.1659701e-20)
(-0.0016959013 0.00012336806 1.1935816e-20)
(-0.0017270971 0.00012162501 -2.9246043e-19)
(-0.0017566554 0.00011963098 -1.6134482e-20)
(-0.0017845325 0.00011740169 2.7568091e-19)
(-0.0018106901 0.00011495432 2.4436396e-20)
(-0.0018350953 0.0001123048 -1.1567333e-19)
(-0.001857723 0.00010946921 7.459072e-20)
(-0.0018785531 0.00010646521 1.4389536e-19)
(-0.0018975703 0.00010330903 -2.1049993e-19)
(-0.0019147659 0.00010001629 -2.7438686e-19)
(-0.0019301374 9.6602884e-05 -9.8905073e-20)
(-0.0019436863 9.3085655e-05 -9.8500104e-20)
(-0.0019554191 8.9479201e-05 3.8633756e-20)
(-0.001965348 8.5798037e-05 4.9030963e-20)
(-0.0019734892 8.2057496e-05 -1.1683115e-19)
(-0.0019798626 7.8271191e-05 -8.6227819e-20)
(-0.0019844927 7.4452096e-05 2.3440002e-19)
(-0.0019874077 7.061297e-05 3.8052296e-19)
(-0.001988639 6.6765869e-05 -2.6960227e-19)
(-0.0019882211 6.2921905e-05 -6.1191468e-19)
(-0.0019861915 5.9091628e-05 -1.5325159e-20)
(-0.0019825905 5.5284971e-05 1.6201213e-19)
(-0.0019774604 5.1511205e-05 -1.9375559e-19)
(-0.0019708457 4.7778922e-05 -3.0057875e-19)
(-0.0019627926 4.4096044e-05 -2.7934489e-20)
(-0.0019533488 4.0469789e-05 1.6564348e-19)
(-0.0019425631 3.6906709e-05 4.9774349e-20)
(-0.0019304855 3.3412713e-05 -9.8080765e-20)
(-0.0019171668 2.9993037e-05 -2.9644525e-19)
(-0.0019026581 2.6652328e-05 -1.2890846e-19)
(-0.0018870112 2.3394631e-05 3.3955051e-19)
(-0.0018702779 2.0223373e-05 3.3585021e-19)
(-0.00185251 1.7141323e-05 -1.0346432e-19)
(-0.0018337586 1.415063e-05 -3.7815867e-19)
(-0.0018140751 1.1252503e-05 -1.2928752e-19)
(-0.0017935109 8.4466122e-06 1.8340524e-19)
(-0.0017721153 5.7292885e-06 2.1965547e-19)
(-0.0017499408 3.1076832e-06 8.5665346e-20)
(-0.0017270248 5.9532247e-07 -2.2667954e-19)
(-0.0017034124 -1.8209441e-06 -1.8361963e-19)
(-0.0016791578 -4.1450132e-06 -1.2557731e-20)
(-0.0016543047 -6.3736923e-06 8.7869137e-21)
(-0.001628901 -8.5093965e-06 2.0521941e-19)
(-0.0016029906 -1.0553543e-05 9.1589837e-20)
(-0.0015766093 -1.2495702e-05 -1.1495286e-19)
(-0.001549792 -1.4349528e-05 1.3717926e-20)
(-0.0015225798 -1.6118383e-05 2.2177976e-19)
(-0.0014950112 -1.7803947e-05 1.4359183e-19)
(-0.0014671219 -1.9408023e-05 -8.8211871e-20)
(-0.0014389456 -2.0932665e-05 -1.1060132e-19)
(-0.0014105149 -2.2380157e-05 -8.8552478e-20)
(-0.0013818607 -2.3752789e-05 -1.4729231e-19)
(-0.0013530129 -2.5052314e-05 -2.1794627e-20)
(-0.0013239989 -2.6280515e-05 1.1906435e-19)
(-0.0012948452 -2.7440228e-05 8.3694061e-20)
(-0.0012655769 -2.8534212e-05 9.1871324e-20)
(-0.0012362179 -2.9565061e-05 -6.9363707e-21)
(-0.0012067908 -3.0535319e-05 -1.4024232e-19)
(-0.001177317 -3.1447509e-05 -1.7179522e-19)
(-0.0011478164 -3.2304096e-05 -4.9139195e-20)
(-0.0011183077 -3.310755e-05 6.937636e-20)
(-0.0010888084 -3.3860281e-05 1.1146419e-19)
(-0.001059335 -3.4564668e-05 5.6667121e-20)
(-0.0010299027 -3.522304e-05 -6.4567707e-20)
(-0.0010005257 -3.5837664e-05 -3.233298e-20)
(-0.00097121712 -3.6410761e-05 6.2730008e-20)
(-0.00094198908 -3.694449e-05 9.3678313e-20)
(-0.00091285277 -3.7440942e-05 3.4945296e-20)
(-0.00088381844 -3.7902143e-05 -3.7801092e-20)
(-0.00085489548 -3.8330058e-05 -4.7187653e-21)
(-0.00082609242 -3.8726572e-05 -9.0421099e-21)
(-0.00079741699 -3.9093515e-05 3.7958985e-20)
(-0.00076887617 -3.9432633e-05 7.097039e-20)
(-0.00074047623 -3.9745605e-05 1.0029442e-20)
(-0.00071222272 -4.0034061e-05 3.1647236e-20)
(-0.00068412056 -4.0299519e-05 4.0648213e-20)
(-0.00065617407 -4.0543469e-05 -9.2622409e-21)
(-0.00062838697 -4.07673e-05 -5.6531634e-20)
(-0.00060076246 -4.0972344e-05 -2.380293e-20)
(-0.00057330322 -4.1159863e-05 -7.8568554e-21)
(-0.00054601145 -4.1331056e-05 -1.888973e-20)
(-0.00051888893 -4.1487038e-05 -6.7015536e-21)
(-0.00049193702 -4.1628853e-05 1.4638829e-20)
(-0.0004651567 -4.1757479e-05 -2.8575206e-21)
(-0.00043854862 -4.1873814e-05 6.1523999e-21)
(-0.00041211309 -4.1978657e-05 6.3369464e-21)
(-0.00038585019 -4.2072695e-05 7.1166302e-21)
(-0.00035975974 -4.2156516e-05 2.6980664e-20)
(-0.00033384136 -4.2230507e-05 -1.7304942e-20)
(-0.00030809452 -4.2294832e-05 -8.7622893e-21)
(-0.00028251854 -4.234929e-05 3.3567942e-20)
(-0.00025711265 -4.2393161e-05 4.390022e-20)
(-0.00023187589 -4.2424965e-05 2.881511e-20)
(-0.00020680695 -4.2442279e-05 7.6431594e-21)
(-0.00018190376 -4.244182e-05 9.0150692e-21)
(-0.00015716256 -4.2420353e-05 -1.9227663e-20)
(-0.00013257636 -4.2378117e-05 1.7557437e-21)
(-0.00010813324 -4.2327925e-05 2.6742095e-20)
(-8.3814726e-05 -4.2315532e-05 1.1412604e-20)
(-5.9594657e-05 -4.2455279e-05 2.0430413e-20)
(-3.5464082e-05 -4.2966433e-05 2.8091699e-20)
(-1.1671303e-05 -4.4036952e-05 3.9259785e-20)
(-9.0249138e-06 -0.00017039983 -1.7358841e-19)
(-2.0762955e-05 -0.00016236312 -3.4390935e-19)
(-3.289937e-05 -0.00015446673 -3.0860258e-19)