/*--------------------------------*- C++ -*----------------------------------*\
| =========                 |                                                 |
| \\      /  F ield         | OpenFOAM: The Open Source CFD Toolbox           |
|  \\    /   O peration     | Version:  2306                                  |
|   \\  /    A nd           | Website:  www.openfoam.com                      |
|    \\/     M anipulation  |                                                 |
\*---------------------------------------------------------------------------*/
FoamFile
{
    version     2.0;
    format      ascii;
    arch        "LSB;label=32;scalar=64";
    class       surfaceScalarField;
    location    "0.22";
    object      phi_0;
}
// * * * * * * * * * * * * * * * * * * * * * * * * * * * * * * * * * * * * * //

dimensions      [0 3 -1 0 0 0 0];

oriented        oriented;

internalField   nonuniform List<scalar> 
12640
(
-8.0637193e-06
-1.353902e-05
-7.7690019e-06
-1.3325408e-05
-7.4887704e-06
-1.3119235e-05
-7.222088e-06
-1.2920234e-05
-6.9680893e-06
-1.2728149e-05
-6.7259741e-06
-1.2542735e-05
-6.4950011e-06
-1.2363757e-05
-6.2744831e-06
-1.2190993e-05
-6.0637823e-06
-1.2024229e-05
-5.8623057e-06
-1.1863261e-05
-5.6695021e-06
-1.1707896e-05
-5.484858e-06
-1.1557948e-05
-5.3078948e-06
-1.1413242e-05
-5.1381663e-06
-1.1273609e-05
-4.9752555e-06
-1.1138889e-05
-4.8187729e-06
-1.100893e-05
-4.6683542e-06
-1.0883588e-05
-4.5236582e-06
-1.0762724e-05
-4.3843654e-06
-1.0646209e-05
-4.250176e-06
-1.0533916e-05
-4.1208087e-06
-1.0425729e-05
-3.9959995e-06
-1.0321534e-05
-3.8754999e-06
-1.0221226e-05
-3.7590764e-06
-1.0124703e-05
-3.6465091e-06
-1.003187e-05
-3.5375909e-06
-9.9426347e-06
-3.4321263e-06
-9.8569118e-06
-3.3299311e-06
-9.7746196e-06
-3.2308313e-06
-9.6956811e-06
-3.1346624e-06
-9.6200231e-06
-3.0412689e-06
-9.5475768e-06
-2.9505035e-06
-9.478277e-06
-2.8622269e-06
-9.4120623e-06
-2.7763068e-06
-9.3488747e-06
-2.6926179e-06
-9.2886597e-06
-2.611041e-06
-9.231366e-06
-2.531463e-06
-9.1769452e-06
-2.4537763e-06
-9.1253519e-06
-2.3778785e-06
-9.0765437e-06
-2.3036719e-06
-9.0304804e-06
-2.2310637e-06
-8.9871249e-06
-2.1599651e-06
-8.9464418e-06
-2.0902915e-06
-8.9083987e-06
-2.0219622e-06
-8.8729648e-06
-1.9548998e-06
-8.8401117e-06
-1.8890308e-06
-8.8098127e-06
-1.8242847e-06
-8.7820432e-06
-1.7605943e-06
-8.7567802e-06
-1.6978952e-06
-8.7340025e-06
-1.6361264e-06
-8.7136907e-06
-1.5752291e-06
-8.6958268e-06
-1.5151478e-06
-8.6803946e-06
-1.4558293e-06
-8.6673795e-06
-1.3972231e-06
-8.6567684e-06
-1.3392812e-06
-8.64855e-06
-1.281958e-06
-8.6427148e-06
-1.2252103e-06
-8.6392551e-06
-1.1689971e-06
-8.6381649e-06
-1.1132795e-06
-8.6394405e-06
-1.0580209e-06
-8.6430804e-06
-1.0031861e-06
-8.6490852e-06
-9.4874203e-07
-8.6574583e-06
-8.9465681e-07
-8.6682054e-06
-8.4089993e-07
-8.6813356e-06
-7.8744185e-07
-8.6968604e-06
-7.3425366e-07
-8.714795e-06
-6.8130675e-07
-8.7351576e-06
-6.2857243e-07
-8.75797e-06
-5.760215e-07
-8.7832573e-06
-5.2362375e-07
-8.8110481e-06
-4.7134764e-07
-8.8413743e-06
-4.1915975e-07
-8.874271e-06
-3.6702442e-07
-8.9097757e-06
-3.1490337e-07
-8.9479282e-06
-2.6275548e-07
-8.9887679e-06
-2.1053676e-07
-9.0323302e-06
-1.5820048e-07
-9.0786358e-06
-1.0569808e-07
-9.1276695e-06
-5.2980684e-08
-9.1793446e-06
-9.2335751e-06
-7.6833428e-06
-1.3836683e-05
-7.4006906e-06
-1.360806e-05
-7.1320562e-06
-1.338787e-05
-6.8765245e-06
-1.3175766e-05
-6.633251e-06
-1.2971423e-05
-6.4014554e-06
-1.2774531e-05
-6.1804157e-06
-1.2584797e-05
-5.969463e-06
-1.2401946e-05
-5.7679766e-06
-1.2225715e-05
-5.5753803e-06
-1.2055858e-05
-5.3911386e-06
-1.1892138e-05
-5.214753e-06
-1.1734334e-05
-5.0457595e-06
-1.1582235e-05
-4.8837252e-06
-1.1435643e-05
-4.7282464e-06
-1.1294368e-05
-4.5789458e-06
-1.1158231e-05
-4.4354711e-06
-1.1027063e-05
-4.2974923e-06
-1.0900703e-05
-4.1647004e-06
-1.0779e-05
-4.0368061e-06
-1.0661811e-05
-3.9135377e-06
-1.0548997e-05
-3.7946404e-06
-1.0440432e-05
-3.6798746e-06
-1.0335992e-05
-3.5690152e-06
-1.0235563e-05
-3.4618503e-06
-1.0139035e-05
-3.3581803e-06
-1.0046305e-05
-3.2578172e-06
-9.9572749e-06
-3.1605837e-06
-9.8718532e-06
-3.0663123e-06
-9.7899524e-06
-2.9748449e-06
-9.7114905e-06
-2.886032e-06
-9.6363897e-06
-2.7997321e-06
-9.5645769e-06
-2.7158112e-06
-9.4959831e-06
-2.6341425e-06
-9.4305434e-06
-2.5546054e-06
-9.3681968e-06
-2.4770857e-06
-9.3088857e-06
-2.4014747e-06
-9.2525562e-06
-2.3276691e-06
-9.1991576e-06
-2.2555705e-06
-9.1486422e-06
-2.1850854e-06
-9.1009656e-06
-2.1161244e-06
-9.0560859e-06
-2.0486023e-06
-9.0139639e-06
-1.982438e-06
-8.9745631e-06
-1.9175537e-06
-8.9378491e-06
-1.8538753e-06
-8.90379e-06
-1.7913321e-06
-8.8723559e-06
-1.7298564e-06
-8.8435189e-06
-1.6693836e-06
-8.817253e-06
-1.6098521e-06
-8.793534e-06
-1.551203e-06
-8.7723398e-06
-1.4933804e-06
-8.7536495e-06
-1.4363309e-06
-8.7374442e-06
-1.3800037e-06
-8.7237066e-06
-1.3243508e-06
-8.7124213e-06
-1.2693266e-06
-8.7035742e-06
-1.2148881e-06
-8.6971534e-06
-1.1609944e-06
-8.6931487e-06
-1.1076072e-06
-8.691552e-06
-1.0546906e-06
-8.6923572e-06
-1.0022104e-06
-8.6955606e-06
-9.5013474e-07
-8.7011609e-06
-8.9843349e-07
-8.7091595e-06
-8.4707816e-07
-8.7195608e-06
-7.9604162e-07
-8.7323721e-06
-7.4529782e-07
-8.7476042e-06
-6.9482151e-07
-8.7652713e-06
-6.4458773e-07
-8.7853914e-06
-5.9457145e-07
-8.8079862e-06
-5.4474711e-07
-8.8330816e-06
-4.9508803e-07
-8.8607072e-06
-4.4556591e-07
-8.8908964e-06
-3.9615029e-07
-8.9236866e-06
-3.4680797e-07
-8.959118e-06
-2.9750271e-07
-8.9972334e-06
-2.4819474e-07
-9.0380758e-06
-1.988407e-07
-9.0816842e-06
-1.4939381e-07
-9.1280827e-06
-9.9804816e-08
-9.1772585e-06
-5.0023547e-08
-9.2291259e-06
-9.2835986e-06
-7.2842893e-06
-1.4120463e-05
-7.0149238e-06
-1.3877426e-05
-6.759012e-06
-1.3643781e-05
-6.5156698e-06
-1.3419108e-05
-6.2840816e-06
-1.3203011e-05
-6.0634944e-06
-1.2995118e-05
-5.8532114e-06
-1.279508e-05
-5.6525876e-06
-1.260257e-05
-5.4610249e-06
-1.2417278e-05
-5.2779683e-06
-1.2238914e-05
-5.1029019e-06
-1.2067204e-05
-4.9353462e-06
-1.190189e-05
-4.7748548e-06
-1.1742727e-05
-4.6210117e-06
-1.1589486e-05
-4.4734288e-06
-1.144195e-05
-4.3317441e-06
-1.1299915e-05
-4.195619e-06
-1.1163188e-05
-4.0647371e-06
-1.1031585e-05
-3.9388021e-06
-1.0904935e-05
-3.8175365e-06
-1.0783076e-05
-3.7006802e-06
-1.0665854e-05
-3.5879888e-06
-1.0553123e-05
-3.4792332e-06
-1.0444748e-05
-3.3741978e-06
-1.0340598e-05
-3.2726799e-06
-1.0240553e-05
-3.1744887e-06
-1.0144496e-05
-3.0794443e-06
-1.0052319e-05
-2.9873773e-06
-9.9639202e-06
-2.8981278e-06
-9.879202e-06
-2.8115445e-06
-9.7980737e-06
-2.7274849e-06
-9.7204493e-06
-2.6458139e-06
-9.6462479e-06
-2.5664035e-06
-9.5753935e-06
-2.4891326e-06
-9.5078143e-06
-2.4138864e-06
-9.443443e-06
-2.3405557e-06
-9.3822164e-06
-2.2690368e-06
-9.3240751e-06
-2.1992313e-06
-9.2689631e-06
-2.1310451e-06
-9.2168284e-06
-2.064389e-06
-9.1676217e-06
-1.9991777e-06
-9.1212972e-06
-1.9353298e-06
-9.0778118e-06
-1.8727677e-06
-9.0371252e-06
-1.8114172e-06
-8.9991997e-06
-1.7512073e-06
-8.9639999e-06
-1.6920705e-06
-8.9314927e-06
-1.633942e-06
-8.9016474e-06
-1.57676e-06
-8.8744349e-06
-1.5204656e-06
-8.8498284e-06
-1.4650026e-06
-8.8278027e-06
-1.4103176e-06
-8.8083345e-06
-1.3563596e-06
-8.7914021e-06
-1.3030805e-06
-8.7769857e-06
-1.2504347e-06
-8.7650671e-06
-1.198379e-06
-8.7556299e-06
-1.1468729e-06
-8.7486594e-06
-1.0958785e-06
-8.7441432e-06
-1.04536e-06
-8.7420705e-06
-9.9528426e-07
-8.7424329e-06
-9.4562034e-07
-8.7452245e-06
-8.9633947e-07
-8.7504418e-06
-8.4741486e-07
-8.7580841e-06
-7.9882156e-07
-8.7681541e-06
-7.5053616e-07
-8.7806575e-06
-7.0253652e-07
-8.7956038e-06
-6.5480132e-07
-8.8130065e-06
-6.0730982e-07
-8.8328829e-06
-5.6004112e-07
-8.8552549e-06
-5.1297377e-07
-8.8801489e-06
-4.6608514e-07
-8.9075958e-06
-4.1935072e-07
-8.9376308e-06
-3.7274344e-07
-8.9702939e-06
-3.262331e-07
-9.0056284e-06
-2.7978574e-07
-9.0436808e-06
-2.3336312e-07
-9.0844985e-06
-1.8692257e-07
-9.1281248e-06
-1.4041711e-07
-9.1745882e-06
-9.3796237e-08
-9.2238794e-06
-4.7007998e-08
-9.2759141e-06
-9.3306066e-06
-6.8673254e-06
-1.4389077e-05
-6.6124259e-06
-1.4132325e-05
-6.3703229e-06
-1.3885884e-05
-6.140172e-06
-1.3649259e-05
-5.9211947e-06
-1.3421988e-05
-5.7126719e-06
-1.3203641e-05
-5.5139386e-06
-1.2993813e-05
-5.3243789e-06
-1.2792129e-05
-5.1434223e-06
-1.2598235e-05
-4.9705391e-06
-1.2411797e-05
-4.8052376e-06
-1.2232506e-05
-4.6470605e-06
-1.2060067e-05
-4.4955826e-06
-1.1894205e-05
-4.3504074e-06
-1.1734661e-05
-4.2111657e-06
-1.1581192e-05
-4.0775125e-06
-1.1433569e-05
-3.9491259e-06
-1.1291574e-05
-3.8257047e-06
-1.1155006e-05
-3.7069674e-06
-1.1023673e-05
-3.5926499e-06
-1.0897394e-05
-3.4825052e-06
-1.0775998e-05
-3.3763011e-06
-1.0659327e-05
-3.2738199e-06
-1.0547229e-05
-3.174857e-06
-1.0439561e-05
-3.0792199e-06
-1.033619e-05
-2.9867275e-06
-1.0236988e-05
-2.8972092e-06
-1.0141837e-05
-2.8105043e-06
-1.0050625e-05
-2.7264611e-06
-9.9632452e-06
-2.6449364e-06
-9.8795984e-06
-2.5657948e-06
-9.7995909e-06
-2.4889084e-06
-9.7231344e-06
-2.4141559e-06
-9.6501459e-06
-2.3414227e-06
-9.5805475e-06
-2.2705997e-06
-9.514266e-06
-2.2015837e-06
-9.4512325e-06
-2.1342764e-06
-9.3913824e-06
-2.0685843e-06
-9.3346552e-06
-2.0044184e-06
-9.2809942e-06
-1.941694e-06
-9.2303461e-06
-1.8803302e-06
-9.1826611e-06
-1.8202496e-06
-9.1378924e-06
-1.7613785e-06
-9.0959963e-06
-1.7036463e-06
-9.0569318e-06
-1.6469857e-06
-9.0206605e-06
-1.5913321e-06
-8.9871463e-06
-1.5366241e-06
-8.9563554e-06
-1.4828027e-06
-8.9282563e-06
-1.4298118e-06
-8.9028193e-06
-1.3775981e-06
-8.8800165e-06
-1.3261105e-06
-8.859822e-06
-1.2753009e-06
-8.8422117e-06
-1.2251236e-06
-8.827163e-06
-1.1755355e-06
-8.8146552e-06
-1.126496e-06
-8.8046693e-06
-1.0779673e-06
-8.7971881e-06
-1.0299141e-06
-8.7921964e-06
-9.8230364e-07
-8.789681e-06
-9.3510561e-07
-8.789631e-06
-8.8829227e-07
-8.7920378e-06
-8.4183819e-07
-8.7968958e-06
-7.9572021e-07
-8.8042021e-06
-7.4991714e-07
-8.8139571e-06
-7.0440966e-07
-8.826165e-06
-6.5917981e-07
-8.8408337e-06
-6.1421084e-07
-8.8579755e-06
-5.6948651e-07
-8.8776072e-06
-5.2499069e-07
-8.8997507e-06
-4.8070671e-07
-8.9244329e-06
-4.3661654e-07
-8.9516859e-06
-3.9270011e-07
-8.9815473e-06
-3.4893444e-07
-9.0140595e-06
-3.0529281e-07
-9.04927e-06
-2.6174401e-07
-9.0872296e-06
-2.1825161e-07
-9.1279909e-06
-1.7477368e-07
-9.1716027e-06
-1.3126275e-07
-9.2180991e-06
-8.7666767e-08
-9.2674754e-06
-4.3931066e-08
-9.3196498e-06
-9.3745377e-06
-6.4333371e-06
-1.4641298e-05
-6.1940295e-06
-1.4371633e-05
-5.9667716e-06
-1.4113142e-05
-5.7507678e-06
-1.3865263e-05
-5.5452841e-06
-1.3627472e-05
-5.3496422e-06
-1.3399282e-05
-5.1632146e-06
-1.3180241e-05
-4.9854199e-06
-1.2969924e-05
-4.8157195e-06
-1.2767935e-05
-4.6536137e-06
-1.2573903e-05
-4.4986385e-06
-1.2387481e-05
-4.3503625e-06
-1.2208343e-05
-4.2083846e-06
-1.2036183e-05
-4.0723311e-06
-1.1870715e-05
-3.9418537e-06
-1.171167e-05
-3.8166274e-06
-1.1558795e-05
-3.6963487e-06
-1.1411853e-05
-3.580734e-06
-1.1270621e-05
-3.4695179e-06
-1.1134889e-05
-3.3624519e-06
-1.1004459e-05
-3.2593032e-06
-1.0879147e-05
-3.1598534e-06
-1.0758777e-05
-3.0638973e-06
-1.0643185e-05
-2.9712425e-06
-1.0532216e-05
-2.8817078e-06
-1.0425724e-05
-2.7951229e-06
-1.0323573e-05
-2.7113273e-06
-1.0225633e-05
-2.6301699e-06
-1.0131782e-05
-2.5515079e-06
-1.0041907e-05
-2.4752067e-06
-9.9558996e-06
-2.4011392e-06
-9.8736584e-06
-2.3291849e-06
-9.7950886e-06
-2.25923e-06
-9.7201008e-06
-2.1911666e-06
-9.6486109e-06
-2.1248923e-06
-9.5805403e-06
-2.06031e-06
-9.5158148e-06
-1.9973272e-06
-9.4543652e-06
-1.935856e-06
-9.3961264e-06
-1.8758127e-06
-9.3410375e-06
-1.8171173e-06
-9.2890415e-06
-1.7596936e-06
-9.2400848e-06
-1.7034686e-06
-9.1941173e-06
-1.6483727e-06
-9.1510922e-06
-1.5943393e-06
-9.1109653e-06
-1.5413045e-06
-9.0736953e-06
-1.4892073e-06
-9.0392435e-06
-1.4379894e-06
-9.0075734e-06
-1.3875949e-06
-8.9786508e-06
-1.3379706e-06
-8.9524435e-06
-1.289066e-06
-8.9289212e-06
-1.2408327e-06
-8.9080553e-06
-1.1932251e-06
-8.8898193e-06
-1.1462002e-06
-8.874188e-06
-1.0997174e-06
-8.861138e-06
-1.0537388e-06
-8.8506479e-06
-1.0082292e-06
-8.8426977e-06
-9.6315602e-07
-8.8372696e-06
-9.1848946e-07
-8.8343475e-06
-8.7420232e-07
-8.8339181e-06
-8.3027013e-07
-8.83597e-06
-7.8667101e-07
-8.840495e-06
-7.4338553e-07
-8.8474876e-06
-7.0039666e-07
-8.856946e-06
-6.5768935e-07
-8.8688723e-06
-6.1525039e-07
-8.8832726e-06
-5.7306791e-07
-8.9001579e-06
-5.311309e-07
-8.9195442e-06
-4.8942856e-07
-8.9414531e-06
-4.4794965e-07
-8.9659118e-06
-4.0668159e-07
-8.992954e-06
-3.6560951e-07
-9.0226193e-06
-3.2471532e-07
-9.0549537e-06
-2.839765e-07
-9.0900088e-06
-2.4336521e-07
-9.1278409e-06
-2.028473e-07
-9.1685088e-06
-1.6238165e-07
-9.2120684e-06
-1.2192017e-07
-9.2585606e-06
-8.1408512e-08
-9.3079871e-06
-4.0788536e-08
-9.3602698e-06
-9.4153262e-06
-5.9833264e-06
-1.4875973e-05
-5.7606707e-06
-1.4594288e-05
-5.5492339e-06
-1.4324579e-05
-5.3482779e-06
-1.4066219e-05
-5.1571203e-06
-1.3818629e-05
-4.9751295e-06
-1.3581273e-05
-4.8017207e-06
-1.335365e-05
-4.636352e-06
-1.3135293e-05
-4.4785212e-06
-1.2925766e-05
-4.3277623e-06
-1.2724662e-05
-4.1836426e-06
-1.2531601e-05
-4.0457602e-06
-1.2346225e-05
-3.9137409e-06
-1.2168202e-05
-3.7872364e-06
-1.1997219e-05
-3.665922e-06
-1.1832984e-05
-3.5494949e-06
-1.1675222e-05
-3.4376722e-06
-1.1523676e-05
-3.3301894e-06
-1.1378104e-05
-3.2267992e-06
-1.1238279e-05
-3.1272701e-06
-1.1103989e-05
-3.0313851e-06
-1.0975032e-05
-2.9389405e-06
-1.0851222e-05
-2.8497454e-06
-1.073238e-05
-2.7636203e-06
-1.0618341e-05
-2.6803965e-06
-1.0508948e-05
-2.5999152e-06
-1.0404054e-05
-2.5220271e-06
-1.0303521e-05
-2.4465913e-06
-1.0207218e-05
-2.3734748e-06
-1.0115024e-05
-2.3025523e-06
-1.0026822e-05
-2.2337053e-06
-9.9425054e-06
-2.1668217e-06
-9.8619722e-06
-2.1017956e-06
-9.7851269e-06
-2.0385263e-06
-9.7118802e-06
-1.9769186e-06
-9.642148e-06
-1.9168818e-06
-9.5758516e-06
-1.8583298e-06
-9.5129172e-06
-1.8011805e-06
-9.4532756e-06
-1.7453559e-06
-9.3968622e-06
-1.6907811e-06
-9.3436163e-06
-1.6373848e-06
-9.293481e-06
-1.5850988e-06
-9.2464033e-06
-1.5338577e-06
-9.2023333e-06
-1.4835989e-06
-9.1612241e-06
-1.4342623e-06
-9.1230318e-06
-1.3857905e-06
-9.0877152e-06
-1.3381285e-06
-9.0552354e-06
-1.2912236e-06
-9.0255557e-06
-1.2450256e-06
-8.9986415e-06
-1.1994865e-06
-8.9744602e-06
-1.154561e-06
-8.9529809e-06
-1.110206e-06
-8.9341743e-06
-1.0663809e-06
-8.918013e-06
-1.0230479e-06
-8.9044711e-06
-9.8017167e-07
-8.8935242e-06
-9.3771958e-07
-8.8851498e-06
-8.9566189e-07
-8.8793272e-06
-8.5397168e-07
-8.8760378e-06
-8.1262497e-07
-8.8752648e-06
-7.7160063e-07
-8.8769944e-06
-7.3088046e-07
-8.8812151e-06
-6.9044905e-07
-8.887919e-06
-6.5029365e-07
-8.8971014e-06
-6.1040395e-07
-8.908762e-06
-5.7077184e-07
-8.9229047e-06
-5.3139088e-07
-8.9395389e-06
-4.9225587e-07
-8.9586792e-06
-4.5336211e-07
-8.9803469e-06
-4.147046e-07
-9.0045693e-06
-3.7627711e-07
-9.0313815e-06
-3.3807101e-07
-9.0608254e-06
-3.0007407e-07
-9.0929507e-06
-2.6226901e-07
-9.1278138e-06
-2.246322e-07
-9.1654777e-06
-1.871323e-07
-9.2060087e-06
-1.4972945e-07
-9.2494712e-06
-1.1237468e-07
-9.2959153e-06
-7.5010718e-08
-9.345351e-06
-3.7574635e-08
-9.3977059e-06
-9.4529008e-06
-5.5184043e-06
-1.5092032e-05
-5.3133827e-06
-1.479931e-05
-5.1186732e-06
-1.4519289e-05
-4.9336026e-06
-1.425129e-05
-4.7575461e-06
-1.3994686e-05
-4.5899239e-06
-1.3748895e-05
-4.4301987e-06
-1.3513375e-05
-4.2778723e-06
-1.3287619e-05
-4.1324828e-06
-1.3071156e-05
-3.9936015e-06
-1.2863543e-05
-3.8608309e-06
-1.2664371e-05
-3.7338008e-06
-1.2473255e-05
-3.6121675e-06
-1.2289835e-05
-3.4956103e-06
-1.2113776e-05
-3.3838306e-06
-1.1944764e-05
-3.2765496e-06
-1.1782503e-05
-3.173507e-06
-1.1626718e-05
-3.0744594e-06
-1.1477151e-05
-2.979179e-06
-1.1333559e-05
-2.8874526e-06
-1.1195715e-05
-2.7990805e-06
-1.1063404e-05
-2.7138752e-06
-1.0936427e-05
-2.6316606e-06
-1.0814595e-05
-2.5522717e-06
-1.069773e-05
-2.4755529e-06
-1.0585667e-05
-2.401358e-06
-1.0478249e-05
-2.3295494e-06
-1.037533e-05
-2.2599973e-06
-1.027677e-05
-2.1925793e-06
-1.0182442e-05
-2.1271798e-06
-1.0092222e-05
-2.0636899e-06
-1.0005995e-05
-2.0020061e-06
-9.9236559e-06
-1.9420308e-06
-9.8451022e-06
-1.8836714e-06
-9.7702396e-06
-1.8268399e-06
-9.6989795e-06
-1.7714528e-06
-9.6312387e-06
-1.7174307e-06
-9.5669393e-06
-1.6646977e-06
-9.5060087e-06
-1.6131814e-06
-9.4483784e-06
-1.5628128e-06
-9.3939848e-06
-1.5135257e-06
-9.3427681e-06
-1.4652567e-06
-9.2946724e-06
-1.4179448e-06
-9.2496451e-06
-1.3715317e-06
-9.2076372e-06
-1.3259614e-06
-9.1686022e-06
-1.2811799e-06
-9.1324967e-06
-1.2371358e-06
-9.0992796e-06
-1.1937794e-06
-9.068912e-06
-1.1510637e-06
-9.0413573e-06
-1.1089434e-06
-9.0165805e-06
-1.0673759e-06
-8.9945484e-06
-1.0263208e-06
-8.9752295e-06
-9.8573995e-07
-8.9585939e-06
-9.4559805e-07
-8.944613e-06
-9.0586232e-07
-8.9332599e-06
-8.6650286e-07
-8.9245093e-06
-8.2749262e-07
-8.9183375e-06
-7.8880765e-07
-8.9147227e-06
-7.5042705e-07
-8.9136454e-06
-7.1233323e-07
-8.9150882e-06
-6.7451167e-07
-8.9190367e-06
-6.3695119e-07
-8.9254795e-06
-5.996436e-07
-8.934409e-06
-5.6258366e-07
-8.9458219e-06
-5.2576871e-07
-8.9597197e-06
-4.8919835e-07
-8.9761092e-06
-4.5287387e-07
-8.9950037e-06
-4.1679746e-07
-9.0164233e-06
-3.809714e-07
-9.0403954e-06
-3.453969e-07
-9.066956e-06
-3.1007277e-07
-9.0961496e-06
-2.7499389e-07
-9.1280296e-06
-2.4014951e-07
-9.1626582e-06
-2.0552148e-07
-9.2001057e-06
-1.7108234e-07
-9.2404478e-06
-1.3679387e-07
-9.2837597e-06
-1.0260625e-07
-9.330103e-06
-6.8458515e-08
-9.3794988e-06
-3.428137e-08
-9.431883e-06
-9.4871822e-06
-5.0397812e-06
-1.528851e-05
-4.8532868e-06
-1.4985804e-05
-4.6761323e-06
-1.4696443e-05
-4.5077146e-06
-1.4419707e-05
-4.3474707e-06
-1.415493e-05
-4.1948767e-06
-1.3901489e-05
-4.0494465e-06
-1.3658805e-05
-3.9107292e-06
-1.3426337e-05
-3.7783068e-06
-1.3203578e-05
-3.6517916e-06
-1.2990059e-05
-3.5308236e-06
-1.2785339e-05
-3.4150683e-06
-1.258901e-05
-3.3042141e-06
-1.240069e-05
-3.1979708e-06
-1.222002e-05
-3.0960677e-06
-1.2046667e-05
-2.9982522e-06
-1.1880318e-05
-2.9042882e-06
-1.1720682e-05
-2.8139549e-06
-1.1567485e-05
-2.7270456e-06
-1.1420469e-05
-2.6433669e-06
-1.1279394e-05
-2.5627373e-06
-1.1144034e-05
-2.4849866e-06
-1.1014178e-05
-2.409955e-06
-1.0889626e-05
-2.3374923e-06
-1.0770193e-05
-2.2674573e-06
-1.0655702e-05
-2.199717e-06
-1.054599e-05
-2.1341464e-06
-1.04409e-05
-2.0706274e-06
-1.0340289e-05
-2.0090488e-06
-1.024402e-05
-1.9493055e-06
-1.0151965e-05
-1.8912982e-06
-1.0064003e-05
-1.834933e-06
-9.9800211e-06
-1.7801212e-06
-9.8999141e-06
-1.7267782e-06
-9.8235826e-06
-1.6748242e-06
-9.7509335e-06
-1.624183e-06
-9.6818799e-06
-1.5747821e-06
-9.6163402e-06
-1.5265524e-06
-9.5542384e-06
-1.4794276e-06
-9.4955032e-06
-1.4333446e-06
-9.4400679e-06
-1.3882423e-06
-9.3878704e-06
-1.3440626e-06
-9.3388521e-06
-1.3007493e-06
-9.2929585e-06
-1.2582483e-06
-9.2501381e-06
-1.2165076e-06
-9.2103429e-06
-1.1754772e-06
-9.1735271e-06
-1.1351088e-06
-9.139648e-06
-1.0953562e-06
-9.1086646e-06
-1.0561753e-06
-9.0805383e-06
-1.0175236e-06
-9.0552321e-06
-9.7936112e-07
-9.0327108e-06
-9.4164994e-07
-9.0129407e-06
-9.0435453e-07
-8.9958893e-06
-8.674419e-07
-8.9815256e-06
-8.3088179e-07
-8.96982e-06
-7.9464681e-07
-8.9607443e-06
-7.5871258e-07
-8.9542717e-06
-7.2305799e-07
-8.9503773e-06
-6.8766537e-07
-8.949038e-06
-6.5252048e-07
-8.9502331e-06
-6.1761273e-07
-8.9539444e-06
-5.8293514e-07
-8.9601571e-06
-5.4848435e-07
-8.9688598e-06
-5.1426045e-07
-8.9800459e-06
-4.8026678e-07
-8.9937134e-06
-4.4650952e-07
-9.0098665e-06
-4.129971e-07
-9.0285161e-06
-3.7973965e-07
-9.0496807e-06
-3.4674771e-07
-9.0733873e-06
-3.1403129e-07
-9.0996724e-06
-2.8159811e-07
-9.1285827e-06
-2.4945188e-07
-9.1601758e-06
-2.1759016e-07
-9.1945199e-06
-1.8600187e-07
-9.231694e-06
-1.5466482e-07
-9.2717848e-06
-1.2354358e-07
-9.3148809e-06
-9.2587654e-08
-9.3610589e-06
-6.1731609e-08
-9.4103548e-06
-3.0897796e-08
-9.4627168e-06
-9.51808e-06
-4.5487529e-06
-1.5464556e-05
-4.381581e-06
-1.5152976e-05
-4.222724e-06
-1.48553e-05
-4.0716512e-06
-1.457078e-05
-3.9278634e-06
-1.4298718e-05
-3.7908949e-06
-1.4038458e-05
-3.6603132e-06
-1.3789387e-05
-3.5357182e-06
-1.3550932e-05
-3.4167391e-06
-1.3322557e-05
-3.3030321e-06
-1.3103766e-05
-3.194278e-06
-1.2894093e-05
-3.0901798e-06
-1.2693109e-05
-2.9904612e-06
-1.2500408e-05
-2.894864e-06
-1.2315617e-05
-2.8031478e-06
-1.2138383e-05
-2.7150875e-06
-1.1968379e-05
-2.630473e-06
-1.1805297e-05
-2.5491074e-06
-1.164885e-05
-2.4708066e-06
-1.1498769e-05
-2.3953979e-06
-1.1354802e-05
-2.3227195e-06
-1.1216712e-05
-2.2526192e-06
-1.1084278e-05
-2.1849543e-06
-1.0957291e-05
-2.1195907e-06
-1.0835556e-05
-2.056402e-06
-1.0718891e-05
-1.9952694e-06
-1.0607122e-05
-1.9360809e-06
-1.0500089e-05
-1.8787309e-06
-1.0397639e-05
-1.8231198e-06
-1.0299631e-05
-1.7691536e-06
-1.0205931e-05
-1.7167433e-06
-1.0116413e-05
-1.665805e-06
-1.0030959e-05
-1.6162589e-06
-9.9494602e-06
-1.5680296e-06
-9.8718119e-06
-1.5210452e-06
-9.7979179e-06
-1.4752375e-06
-9.7276875e-06
-1.4305414e-06
-9.6610364e-06
-1.3868945e-06
-9.5978853e-06
-1.3442372e-06
-9.5381605e-06
-1.3025123e-06
-9.4817929e-06
-1.2616645e-06
-9.4287181e-06
-1.2216409e-06
-9.3788758e-06
-1.18239e-06
-9.3322093e-06
-1.1438624e-06
-9.2886657e-06
-1.1060102e-06
-9.2481951e-06
-1.0687871e-06
-9.2107503e-06
-1.0321484e-06
-9.1762867e-06
-9.9605105e-07
-9.1447619e-06
-9.6045379e-07
-9.1161355e-06
-9.2531709e-07
-9.0903688e-06
-8.906034e-07
-9.0674245e-06
-8.562772e-07
-9.0472669e-06
-8.2230535e-07
-9.0298611e-06
-7.8865711e-07
-9.0151738e-06
-7.5530453e-07
-9.0031726e-06
-7.2222261e-07
-8.9938262e-06
-6.8938952e-07
-8.9871048e-06
-6.5678693e-07
-8.9829799e-06
-6.2440016e-07
-8.9814248e-06
-5.9221838e-07
-8.9824149e-06
-5.6023483e-07
-8.9859279e-06
-5.2844695e-07
-8.991945e-06
-4.9685626e-07
-9.0004505e-06
-4.6546855e-07
-9.0114336e-06
-4.3429348e-07
-9.0248884e-06
-4.033444e-07
-9.0408156e-06
-3.7263778e-07
-9.0592227e-06
-3.4219246e-07
-9.080126e-06
-3.1202867e-07
-9.1035511e-06
-2.8216665e-07
-9.1295345e-06
-2.5262492e-07
-9.1581245e-06
-2.2341814e-07
-9.1893826e-06
-1.9455434e-07
-9.2233838e-06
-1.6603195e-07
-9.2602164e-06
-1.3783633e-07
-9.2999805e-06
-1.0993642e-07
-9.3427808e-06
-8.228183e-08
-9.3887135e-06
-5.4802025e-08
-9.4378346e-06
-2.7408701e-08
-9.4901101e-06
-9.5454887e-06
-4.0466815e-06
-1.5619442e-05
-3.8995237e-06
-1.5300134e-05
-3.7596189e-06
-1.4995205e-05
-3.6265054e-06
-1.4703894e-05
-3.4997462e-06
-1.4425477e-05
-3.3789343e-06
-1.415927e-05
-3.2636935e-06
-1.3904628e-05
-3.1536768e-06
-1.3660948e-05
-3.0485639e-06
-1.342767e-05
-2.9480577e-06
-1.3204272e-05
-2.8518827e-06
-1.2990268e-05
-2.759782e-06
-1.2785209e-05
-2.671516e-06
-1.2588674e-05
-2.586861e-06
-1.2400272e-05
-2.505608e-06
-1.2219636e-05
-2.4275613e-06
-1.2046425e-05
-2.3525379e-06
-1.188032e-05
-2.2803663e-06
-1.1721022e-05
-2.2108859e-06
-1.156825e-05
-2.143946e-06
-1.1421742e-05
-2.0794051e-06
-1.1281253e-05
-2.0171303e-06
-1.1146553e-05
-1.9569967e-06
-1.1017425e-05
-1.8988868e-06
-1.0893666e-05
-1.8426899e-06
-1.0775088e-05
-1.788302e-06
-1.066151e-05
-1.7356246e-06
-1.0552766e-05
-1.6845653e-06
-1.0448699e-05
-1.6350366e-06
-1.034916e-05
-1.5869559e-06
-1.0254012e-05
-1.5402451e-06
-1.0163124e-05
-1.4948305e-06
-1.0076374e-05
-1.4506421e-06
-9.9936486e-06
-1.4076135e-06
-9.9148405e-06
-1.3656816e-06
-9.8398498e-06
-1.3247862e-06
-9.7685829e-06
-1.2848699e-06
-9.7009527e-06
-1.2458776e-06
-9.6368775e-06
-1.2077565e-06
-9.5762816e-06
-1.1704556e-06
-9.5190939e-06
-1.1339255e-06
-9.4652482e-06
-1.0981186e-06
-9.4146826e-06
-1.0629887e-06
-9.3673392e-06
-1.0284908e-06
-9.3231637e-06
-9.9458106e-07
-9.2821048e-06
-9.6121721e-07
-9.2441141e-06
-9.28358e-07
-9.2091459e-06
-8.9596355e-07
-9.1771564e-06
-8.6399548e-07
-9.1481036e-06
-8.3241685e-07
-9.1219474e-06
-8.0119254e-07
-9.0986489e-06
-7.7028933e-07
-9.0781701e-06
-7.3967618e-07
-9.0604743e-06
-7.0932446e-07
-9.0455255e-06
-6.7920835e-07
-9.0332887e-06
-6.4930497e-07
-9.0237296e-06
-6.1959487e-07
-9.0168149e-06
-5.9006224e-07
-9.0125125e-06
-5.606953e-07
-9.0107918e-06
-5.314865e-07
-9.0116237e-06
-5.024328e-07
-9.0149816e-06
-4.7353605e-07
-9.0208417e-06
-4.4480282e-07
-9.0291837e-06
-4.1624476e-07
-9.0399916e-06
-3.878782e-07
-9.053255e-06
-3.5972426e-07
-9.0689695e-06
-3.3180818e-07
-9.0871389e-06
-3.0415862e-07
-9.1077756e-06
-2.7680683e-07
-9.1309029e-06
-2.4978507e-07
-9.1565562e-06
-2.2312481e-07
-9.1847847e-06
-1.9685417e-07
-9.2156532e-06
-1.709948e-07
-9.2492431e-06
-1.4555783e-07
-9.2856534e-06
-1.2053944e-07
-9.3249988e-06
-9.5915737e-08
-9.3674046e-06
-7.1638306e-08
-9.4129909e-06
-4.7631292e-08
-9.4618416e-06
-2.379292e-08
-9.5139485e-06
-9.5692816e-06
-3.5349649e-06
-1.5752572e-05
-3.4084125e-06
-1.5426687e-05
-3.2880293e-06
-1.5115588e-05
-3.1734126e-06
-1.481851e-05
-3.0641827e-06
-1.4534707e-05
-2.9599907e-06
-1.4263462e-05
-2.8605185e-06
-1.40041e-05
-2.7654756e-06
-1.3755991e-05
-2.6745953e-06
-1.351855e-05
-2.5876305e-06
-1.3291236e-05
-2.5043516e-06
-1.3073547e-05
-2.4245438e-06
-1.2865017e-05
-2.3480064e-06
-1.2665212e-05
-2.2745514e-06
-1.2473727e-05
-2.2040027e-06
-1.2290185e-05
-2.1361951e-06
-1.2114233e-05
-2.070974e-06
-1.1945541e-05
-2.0081943e-06
-1.1783801e-05
-1.9477198e-06
-1.1628724e-05
-1.8894226e-06
-1.1480039e-05
-1.8331827e-06
-1.1337493e-05
-1.7788868e-06
-1.1200849e-05
-1.7264288e-06
-1.1069883e-05
-1.6757084e-06
-1.0944387e-05
-1.6266313e-06
-1.0824165e-05
-1.5791084e-06
-1.0709033e-05
-1.5330557e-06
-1.0598819e-05
-1.4883941e-06
-1.049336e-05
-1.4450488e-06
-1.0392505e-05
-1.402949e-06
-1.0296112e-05
-1.362028e-06
-1.0204045e-05
-1.3222225e-06
-1.011618e-05
-1.2834726e-06
-1.0032398e-05
-1.2457215e-06
-9.9525916e-06
-1.208915e-06
-9.8766563e-06
-1.1730015e-06
-9.8044964e-06
-1.1379316e-06
-9.7360226e-06
-1.1036577e-06
-9.6711515e-06
-1.0701338e-06
-9.6098054e-06
-1.0373157e-06
-9.551912e-06
-1.00516e-06
-9.4974039e-06
-9.7362463e-07
-9.446218e-06
-9.4266846e-07
-9.3982954e-06
-9.1225121e-07
-9.3535809e-06
-8.8233341e-07
-9.3120226e-06
-8.5287646e-07
-9.2735711e-06
-8.2384262e-07
-9.2381798e-06
-7.9519511e-07
-9.2058039e-06
-7.6689825e-07
-9.1764005e-06
-7.3891767e-07
-9.149928e-06
-7.1122043e-07
-9.1263461e-06
-6.8377535e-07
-9.1056152e-06
-6.5655331e-07
-9.0876963e-06
-6.2952755e-07
-9.0725513e-06
-6.0267401e-07
-9.0601422e-06
-5.7597176e-07
-9.0504318e-06
-5.4940337e-07
-9.0433833e-06
-5.2295529e-07
-9.0389606e-06
-4.9661837e-07
-9.0371287e-06
-4.7038811e-07
-9.0378539e-06
-4.4426516e-07
-9.0411046e-06
-4.1825552e-07
-9.0468514e-06
-3.923709e-07
-9.0550683e-06
-3.6662883e-07
-9.0657337e-06
-3.410528e-07
-9.078831e-06
-3.1567199e-07
-9.0943503e-06
-2.905212e-07
-9.1122896e-06
-2.6564006e-07
-9.1326568e-06
-2.4107222e-07
-9.1554708e-06
-2.1686393e-07
-9.1807645e-06
-1.9306207e-07
-9.2085866e-06
-1.697115e-07
-9.2390038e-06
-1.4685122e-07
-9.2721034e-06
-1.2450958e-07
-9.307995e-06
-1.0269836e-07
-9.3468101e-06
-8.1405526e-08
-9.3886974e-06
-6.058796e-08
-9.4338084e-06
-4.0165676e-08
-9.4822639e-06
-2.0020728e-08
-9.5340935e-06
-9.5893023e-06
-3.0149894e-06
-1.5863461e-05
-2.9095482e-06
-1.5532128e-05
-2.8091822e-06
-1.5215954e-05
-2.7135288e-06
-1.4914164e-05
-2.6222585e-06
-1.4625977e-05
-2.5350801e-06
-1.435064e-05
-2.4517372e-06
-1.4087443e-05
-2.3720001e-06
-1.3835728e-05
-2.2956598e-06
-1.3594891e-05
-2.2225224e-06
-1.3364374e-05
-2.1524065e-06
-1.3143663e-05
-2.0851413e-06
-1.2932282e-05
-2.0205662e-06
-1.2729787e-05
-1.9585299e-06
-1.2535763e-05
-1.8988903e-06
-1.2349824e-05
-1.8415138e-06
-1.2171609e-05
-1.786275e-06
-1.200078e-05
-1.7330559e-06
-1.1837021e-05
-1.6817458e-06
-1.1680034e-05
-1.6322403e-06
-1.1529545e-05
-1.5844411e-06
-1.1385292e-05
-1.5382559e-06
-1.1247034e-05
-1.4935973e-06
-1.1114541e-05
-1.4503831e-06
-1.0987601e-05
-1.4085355e-06
-1.0866012e-05
-1.3679813e-06
-1.0749587e-05
-1.3286511e-06
-1.0638149e-05
-1.2904794e-06
-1.0531532e-05
-1.2534046e-06
-1.042958e-05
-1.217368e-06
-1.0332148e-05
-1.1823144e-06
-1.0239098e-05
-1.1481916e-06
-1.0150302e-05
-1.1149501e-06
-1.006564e-05
-1.0825429e-06
-9.9849989e-06
-1.0509251e-06
-9.9082741e-06
-1.0200539e-06
-9.8353676e-06
-9.8988814e-07
-9.7661883e-06
-9.6038808e-07
-9.7006516e-06
-9.3151512e-07
-9.6386784e-06
-9.0323153e-07
-9.5801956e-06
-8.7550036e-07
-9.525135e-06
-8.4828524e-07
-9.4734331e-06
-8.2155024e-07
-9.4250304e-06
-7.9525977e-07
-9.3798714e-06
-7.6937865e-07
-9.3379037e-06
-7.438721e-07
-9.2990776e-06
-7.1870577e-07
-9.2633461e-06
-6.9384578e-07
-9.2306638e-06
-6.6925915e-07
-9.2009871e-06
-6.4491372e-07
-9.1742735e-06
-6.2077858e-07
-9.1504812e-06
-5.9682436e-07
-9.1295694e-06
-5.730235e-07
-9.1114972e-06
-5.4935076e-07
-9.096224e-06
-5.2578356e-07
-9.0837094e-06
-5.0230245e-07
-9.0739129e-06
-4.7889171e-07
-9.0667941e-06
-4.5553969e-07
-9.0623126e-06
-4.3223953e-07
-9.0604289e-06
-4.0898942e-07
-9.061104e-06
-3.8579337e-07
-9.0643006e-06
-3.6266142e-07
-9.0699833e-06
-3.3961025e-07
-9.0781195e-06
-3.1666334e-07
-9.0886806e-06
-2.9385133e-07
-9.101643e-06
-2.7121207e-07
-9.1169896e-06
-2.4879042e-07
-9.1347113e-06
-2.2663799e-07
-9.1548092e-06
-2.0481229e-07
-9.1772965e-06
-1.833756e-07
-9.2022012e-06
-1.6239315e-07
-9.229569e-06
-1.4193009e-07
-9.2594668e-06
-1.2204766e-07
-9.2919859e-06
-1.0279738e-07
-9.3272453e-06
-8.4213518e-08
-9.3653939e-06
-6.6303379e-08
-9.4066075e-06
-4.9035725e-08
-9.4510761e-06
-3.2329507e-08
-9.4989701e-06
-1.6049761e-08
-9.5503732e-06
-9.6053521e-06
-2.488041e-06
-1.5951692e-05
-2.4041668e-06
-1.5616002e-05
-2.3242618e-06
-1.5295859e-05
-2.2479786e-06
-1.4990447e-05
-2.175031e-06
-1.4698925e-05
-2.1051899e-06
-1.4420481e-05
-2.0382677e-06
-1.4154365e-05
-1.9741032e-06
-1.3899893e-05
-1.9125503e-06
-1.3656444e-05
-1.8534716e-06
-1.3423453e-05
-1.7967361e-06
-1.3200399e-05
-1.7422179e-06
-1.29868e-05
-1.6897971e-06
-1.2782207e-05
-1.63936e-06
-1.25862e-05
-1.590799e-06
-1.2398385e-05
-1.5440127e-06
-1.2218396e-05
-1.4989056e-06
-1.2045887e-05
-1.4553878e-06
-1.1880538e-05
-1.4133742e-06
-1.1722048e-05
-1.3727847e-06
-1.1570134e-05
-1.3335436e-06
-1.1424534e-05
-1.2955795e-06
-1.1284998e-05