/*--------------------------------*- C++ -*----------------------------------*\
| =========                 |                                                 |
| \\      /  F ield         | OpenFOAM: The Open Source CFD Toolbox           |
|  \\    /   O peration     | Version:  2306                                  |
|   \\  /    A nd           | Website:  www.openfoam.com                      |
|    \\/     M anipulation  |                                                 |
\*---------------------------------------------------------------------------*/
FoamFile
{
    version     2.0;
    format      ascii;
    arch        "LSB;label=32;scalar=64";
    class       volVectorField;
    location    "0.22";
    object      U_0;
}
// * * * * * * * * * * * * * * * * * * * * * * * * * * * * * * * * * * * * * //

dimensions      [0 1 -1 0 0 0 0];

internalField   nonuniform List<vector> 
6400
(
(-0.0032650493 -0.0053213371 -3.0662307e-19)
(-0.0031063556 -0.0051751807 -3.8120295e-19)
(-0.0029573151 -0.0050352572 -3.2759646e-19)
(-0.0028172079 -0.0049012555 -4.2579707e-19)
(-0.0026853761 -0.0047728817 -2.2027696e-19)
(-0.0025612185 -0.0046498587 2.8604778e-19)
(-0.0024441843 -0.0045319255 2.4112813e-20)
(-0.0023337687 -0.0044188356 9.9095006e-20)
(-0.002229508 -0.0043103566 4.7366906e-20)
(-0.0021309766 -0.0042062692 -1.0036836e-19)
(-0.0020377824 -0.0041063666 -4.4624948e-20)
(-0.0019495648 -0.0040104534 4.3286674e-20)
(-0.0018659909 -0.0039183453 -6.7235375e-20)
(-0.0017867538 -0.0038298681 -6.964272e-20)
(-0.0017115699 -0.0037448575 -4.0509447e-20)
(-0.0016401771 -0.0036631581 -6.9872941e-20)
(-0.0015723326 -0.0035846231 -3.260064e-20)
(-0.0015078117 -0.0035091137 -6.9020357e-20)
(-0.001446406 -0.0034364987 -1.1937335e-19)
(-0.0013879221 -0.003366654 -3.686195e-20)
(-0.0013321806 -0.0032994622 -6.5287566e-20)
(-0.0012790143 -0.0032348121 -7.1740915e-20)
(-0.0012282682 -0.0031725985 -4.2514444e-20)
(-0.0011797976 -0.0031127218 -4.8761524e-20)
(-0.001133468 -0.0030550877 -3.2915365e-21)
(-0.0010891536 -0.0029996066 -2.9017348e-21)
(-0.0010467375 -0.0029461938 -3.8172792e-20)
(-0.0010061101 -0.002894769 1.9354346e-20)
(-0.00096716924 -0.0028452559 -1.7554702e-20)
(-0.00092981932 -0.0027975822 -3.6301906e-20)
(-0.00089397086 -0.0027516793 -1.9182646e-20)
(-0.00085954008 -0.0027074821 1.7365326e-20)
(-0.00082644844 -0.0026649285 -3.0915553e-20)
(-0.00079462231 -0.00262396 -2.3019815e-20)
(-0.00076399257 -0.0025845205 1.9927946e-20)
(-0.00073449433 -0.0025465572 2.4387189e-21)
(-0.00070606657 -0.0025100194 4.1557241e-21)
(-0.00067865194 -0.0024748592 -2.6031919e-20)
(-0.00065219645 -0.0024410309 -5.0621833e-20)
(-0.00062664929 -0.0024084909 -1.2449709e-20)
(-0.00060196255 -0.002377198 1.0588382e-20)
(-0.0005780911 -0.0023471125 1.6915697e-20)
(-0.00055499234 -0.002318197 -1.7201119e-20)
(-0.00053262611 -0.0022904156 -2.4526513e-20)
(-0.00051095445 -0.002263734 -8.0787602e-21)
(-0.00048994156 -0.0022381196 3.0192823e-20)
(-0.00046955358 -0.0022135413 3.6272206e-20)
(-0.00044975855 -0.0021899694 1.366319e-20)
(-0.00043052628 -0.0021673753 -6.5177392e-21)
(-0.00041182822 -0.0021457322 2.0249593e-20)
(-0.00039363742 -0.0021250139 2.353834e-20)
(-0.0003759284 -0.0021051958 5.2425871e-21)
(-0.00035867714 -0.0020862543 -5.4638271e-21)
(-0.00034186092 -0.0020681669 -1.0415479e-20)
(-0.00032545835 -0.0020509121 -2.0163412e-20)
(-0.00030944921 -0.0020344696 -5.8942104e-21)
(-0.00029381446 -0.0020188199 -9.5624477e-21)
(-0.00027853613 -0.0020039447 -3.8836565e-21)
(-0.0002635973 -0.0019898266 -6.8879271e-21)
(-0.00024898198 -0.0019764491 -5.8442659e-21)
(-0.00023467512 -0.0019637968 6.7239047e-21)
(-0.00022066247 -0.0019518553 1.4471032e-21)
(-0.00020693054 -0.0019406112 2.3106376e-21)
(-0.00019346654 -0.0019300518 1.7441348e-21)
(-0.00018025825 -0.0019201659 -1.0190103e-20)
(-0.00016729401 -0.0019109428 5.2750997e-21)
(-0.00015456255 -0.001902373 5.7888509e-21)
(-0.00014205293 -0.0018944479 -1.4891348e-20)
(-0.00012975445 -0.0018871599 -5.4388249e-21)
(-0.00011765655 -0.0018805021 1.7532743e-20)
(-0.00010574868 -0.0018744688 9.1972151e-21)
(-9.4020243e-05 -0.0018690546 6.3104151e-22)
(-8.2460466e-05 -0.001864255 6.7016619e-21)
(-7.1058348e-05 -0.0018600661 1.4922601e-20)
(-5.9802625e-05 -0.0018564837 1.5057079e-20)
(-4.8681973e-05 -0.0018535032 1.4335358e-20)
(-3.7684796e-05 -0.001851117 -9.7695129e-21)
(-2.679484e-05 -0.0018493104 -2.1276451e-21)
(-1.5991452e-05 -0.001848055 1.4836418e-20)
(-5.2907298e-06 -0.0018473217 1.9626345e-20)
(-0.0031114163 -0.0054422746 -5.3471876e-19)
(-0.0029594383 -0.0052886351 -4.6555034e-19)
(-0.0028167649 -0.0051418006 -3.2343393e-19)
(-0.002682697 -0.0050014088 -3.3859088e-19)
(-0.0025565967 -0.0048671206 -1.6100833e-19)
(-0.0024378811 -0.0047386179 7.7194571e-20)
(-0.0023260167 -0.0046156028 -8.6495396e-20)
(-0.0022205148 -0.0044977956 -2.7914575e-20)
(-0.002120927 -0.0043849338 -7.5263964e-21)
(-0.0020268417 -0.0042767709 -1.2862268e-19)
(-0.0019378801 -0.0041730753 -3.5989585e-20)
(-0.0018536938 -0.0040736292 -1.2662869e-19)
(-0.0017739618 -0.0039782279 -1.9589871e-19)
(-0.0016983879 -0.0038866787 -5.4643514e-20)
(-0.0016266987 -0.0037988003 -6.999455e-20)
(-0.0015586417 -0.0037144217 -1.1631615e-19)
(-0.001493983 -0.003633382 -1.4501246e-19)
(-0.0014325063 -0.0035555296 -1.2619275e-19)
(-0.0013740111 -0.0034807215 1.3800284e-20)
(-0.0013183114 -0.0034088225 -2.0051342e-20)
(-0.0012652346 -0.0033397055 -7.3963538e-20)
(-0.0012146203 -0.00327325 -9.9935239e-20)
(-0.0011663194 -0.0032093425 -8.5254079e-20)
(-0.0011201931 -0.0031478757 -4.07685e-20)
(-0.0010761121 -0.003088748 -2.0781903e-20)
(-0.0010339559 -0.0030318634 -3.2200978e-20)
(-0.00099361221 -0.0029771312 -5.7683227e-20)
(-0.0009549761 -0.0029244654 -5.1881045e-21)
(-0.0009179496 -0.0028737846 -1.5004856e-21)
(-0.00088244107 -0.0028250117 -1.2143006e-20)
(-0.00084836482 -0.0027780736 -3.5018282e-20)
(-0.00081564061 -0.0027329013 -6.4041756e-21)
(-0.00078419327 -0.0026894289 1.3438144e-20)
(-0.00075395229 -0.0026475943 7.4833563e-22)
(-0.00072485155 -0.0026073383 4.3518582e-21)
(-0.00069682894 -0.0025686049 -3.3426426e-20)
(-0.00066982611 -0.0025313408 -1.7882265e-21)
(-0.00064378819 -0.0024954954 3.3851292e-21)
(-0.00061866356 -0.0024610205 -2.5495159e-20)
(-0.00059440362 -0.0024278705 -8.3796907e-21)
(-0.00057096256 -0.0023960018 -1.1684204e-20)
(-0.00054829722 -0.002365373 -1.3155258e-20)
(-0.00052636688 -0.0023359447 -1.6211991e-20)
(-0.00050513311 -0.0023076793 -1.1420476e-20)
(-0.00048455966 -0.002280541 -8.8791452e-21)
(-0.00046461227 -0.0022544956 -1.0751489e-20)
(-0.00044525859 -0.0022295106 3.0395591e-21)
(-0.00042646808 -0.0022055549 -5.5970955e-21)
(-0.00040821188 -0.0021825987 3.5950283e-21)
(-0.00039046273 -0.0021606139 5.4054499e-21)
(-0.00037319492 -0.0021395732 -3.8708246e-21)
(-0.00035638416 -0.0021194509 -1.4462478e-20)
(-0.00034000753 -0.0021002223 -1.5339122e-20)
(-0.00032404346 -0.0020818639 -9.1591922e-21)
(-0.0003084716 -0.0020643533 -1.0256221e-20)
(-0.00029327279 -0.0020476693 -1.3490616e-20)
(-0.00027842903 -0.0020317914 -2.5568235e-21)
(-0.00026392338 -0.0020167006 -1.6604213e-20)
(-0.00024973991 -0.0020023786 -2.7260707e-21)
(-0.00023586367 -0.0019888083 1.1761765e-20)
(-0.00022228061 -0.0019759737 4.795488e-22)
(-0.00020897749 -0.0019638595 -1.2687982e-20)
(-0.00019594185 -0.0019524519 -1.5471532e-20)
(-0.00018316192 -0.0019417378 -2.1801763e-20)
(-0.00017062651 -0.0019317055 -2.0428031e-20)
(-0.00015832496 -0.0019223439 -3.4442361e-21)
(-0.00014624701 -0.0019136434 -3.5965696e-22)
(-0.00013438272 -0.0019055953 -9.3531688e-21)
(-0.00012272234 -0.0018981918 3.6111879e-21)
(-0.00011125621 -0.0018914263 6.9855843e-21)
(-9.9974645e-05 -0.0018852929 -7.4776582e-21)
(-8.8867803e-05 -0.0018797868 -1.102247e-20)
(-7.792559e-05 -0.0018749037 -7.7433205e-21)
(-6.7137554e-05 -0.0018706402 -1.8738319e-21)
(-5.6492849e-05 -0.0018669926 7.5858795e-21)
(-4.5980403e-05 -0.0018639567 4.4307174e-21)
(-3.5588722e-05 -0.0018615253 4.9663575e-21)
(-2.5301742e-05 -0.001859684 5.1588039e-21)
(-1.5099126e-05 -0.0018584043 1.3692481e-20)
(-4.9952547e-06 -0.0018576569 2.3260365e-20)
(-0.0029501069 -0.0055579543 -4.2247555e-19)
(-0.002805438 -0.0053971099 -4.7659771e-19)
(-0.0026696717 -0.0052436249 -2.7532154e-19)
(-0.0025421355 -0.0050970874 -2.2697872e-19)
(-0.002422216 -0.0049571138 -1.2163336e-19)
(-0.0023093532 -0.0048233463 -5.6620768e-20)
(-0.0022030347 -0.004695451 -1.8575651e-19)
(-0.0021027913 -0.0045731159 1.2044619e-19)
(-0.0020081928 -0.0044560492 1.4131153e-19)
(-0.0019188442 -0.0043439779 -1.4011158e-19)
(-0.0018343824 -0.0042366465 -5.473415e-20)
(-0.0017544737 -0.0041338154 -6.7964078e-20)
(-0.0016788104 -0.0040352601 -1.2322721e-19)
(-0.001607109 -0.0039407697 -1.1240819e-20)
(-0.0015391078 -0.0038501466 -3.9210365e-20)
(-0.0014745652 -0.0037632048 -4.5093881e-20)
(-0.0014132576 -0.0036797699 -7.7824168e-20)
(-0.0013549782 -0.0035996776 -8.3807542e-20)
(-0.0012995354 -0.0035227735 -4.9700165e-21)
(-0.0012467515 -0.003448912 4.4856003e-20)
(-0.0011964618 -0.0033779561 -2.6897568e-20)
(-0.001148513 -0.0033097769 -4.3898905e-20)
(-0.001102763 -0.0032442526 -1.3909553e-20)
(-0.0010590792 -0.0031812684 -3.5393211e-20)
(-0.0010173384 -0.0031207159 -9.6861766e-21)
(-0.00097742585 -0.0030624928 2.0955621e-20)
(-0.00093923433 -0.0030065025 -3.8300644e-20)
(-0.00090266392 -0.0029526537 -1.2229163e-20)
(-0.00086762128 -0.0029008601 -2.4631927e-21)
(-0.00083401916 -0.0028510399 -1.1093662e-20)
(-0.00080177597 -0.002803116 -8.5268271e-21)
(-0.00077081533 -0.0027570151 -2.1798289e-20)
(-0.00074106569 -0.0027126679 9.8083014e-21)
(-0.00071245997 -0.002670009 3.6037407e-20)
(-0.00068493526 -0.002628976 4.3026362e-20)
(-0.00065843247 -0.00258951 -1.3859605e-20)
(-0.00063289611 -0.0025515551 -9.3558814e-21)
(-0.000608274 -0.0025150581 3.8954924e-20)
(-0.00058451703 -0.0024799687 1.214937e-20)
(-0.00056157897 -0.0024462389 -3.6482945e-21)
(-0.00053941628 -0.0024138232 -1.5587929e-20)
(-0.00051798788 -0.0023826784 -2.4420036e-20)
(-0.00049725503 -0.0023527633 9.6233452e-21)
(-0.0004771812 -0.0023240387 1.2775488e-20)
(-0.00045773187 -0.0022964672 3.4314718e-21)
(-0.00043887447 -0.0022700132 1.8502855e-21)
(-0.00042057821 -0.0022446427 -9.2649549e-22)
(-0.00040281404 -0.0022203235 -2.5127364e-20)
(-0.00038555451 -0.0021970245 -1.5666847e-20)
(-0.00036877372 -0.0021747163 1.9310305e-20)
(-0.00035244721 -0.0021533707 3.4258468e-21)
(-0.00033655195 -0.0021329607 2.8104942e-21)
(-0.0003210662 -0.0021134608 6.2143648e-21)
(-0.00030596953 -0.0020948464 -8.6730797e-21)
(-0.0002912427 -0.0020770942 -5.194136e-21)
(-0.00027686766 -0.0020601819 -5.007507e-21)
(-0.00026282748 -0.0020440884 -1.6626647e-21)
(-0.00024910627 -0.0020287937 3.3941047e-21)
(-0.00023568919 -0.0020142788 -2.9893787e-21)
(-0.00022256234 -0.0020005258 3.0241404e-22)
(-0.00020971273 -0.0019875179 5.351186e-21)
(-0.00019712822 -0.0019752394 1.2677496e-21)
(-0.00018479741 -0.0019636758 -1.398608e-20)
(-0.00017270964 -0.0019528136 -2.7179038e-20)
(-0.00016085483 -0.0019426405 -1.5713994e-20)
(-0.00014922341 -0.0019331452 -1.0748766e-20)
(-0.00013780624 -0.0019243179 -9.4567181e-21)
(-0.00012659446 -0.0019161496 4.6592662e-21)
(-0.0001155794 -0.0019086327 3.4102467e-21)
(-0.00010475242 -0.0019017606 3.0044712e-21)
(-9.4104782e-05 -0.0018955277 -5.5730923e-21)
(-8.3627522e-05 -0.0018899294 -7.8499294e-21)
(-7.3311305e-05 -0.0018849622 1.6072264e-21)
(-6.3146307e-05 -0.0018806228 -7.441968e-21)
(-5.3122138e-05 -0.0018769085 1.6077708e-21)
(-4.3227994e-05 -0.0018738156 -2.5493913e-21)
(-3.3452456e-05 -0.0018713374 7.7097262e-21)
(-2.3779574e-05 -0.0018694602 8.783458e-21)
(-1.4189221e-05 -0.0018681552 2.76541e-21)
(-4.6939162e-06 -0.001867393 1.5558243e-20)
(-0.0027814342 -0.0056678563 -2.6770163e-19)
(-0.0026446472 -0.0055001327 -4.1733036e-19)
(-0.0025163088 -0.0053403003 -5.3947227e-19)
(-0.0023957786 -0.0051878995 -3.1072941e-19)
(-0.0022824728 -0.0050425037 -1.1384397e-20)
(-0.0021758583 -0.0049037169 1.3294482e-19)
(-0.0020754476 -0.0047711707 3.8925785e-20)
(-0.0019807942 -0.004644522 1.1164868e-19)
(-0.001891489 -0.0045234508 -3.0296376e-20)
(-0.0018071563 -0.0044076589 -8.6543953e-20)
(-0.0017274512 -0.0042968674 -1.2126558e-19)
(-0.0016520562 -0.0041908159 1.0237862e-20)
(-0.0015806793 -0.0040892608 -1.0825263e-19)
(-0.001513051 -0.0039919741 -1.2190448e-19)
(-0.0014489231 -0.0038987423 -4.9060316e-20)
(-0.0013880661 -0.0038093651 -1.4480642e-20)
(-0.0013302679 -0.0037236549 2.6389472e-20)
(-0.0012753324 -0.0036414355 -2.5579872e-20)
(-0.0012230777 -0.0035625414 -1.4426479e-19)
(-0.0011733356 -0.0034868171 -2.6344797e-20)
(-0.0011259498 -0.0034141165 1.5271092e-20)
(-0.0010807752 -0.003344302 -5.6722837e-21)
(-0.0010376769 -0.0032772442 -2.0326646e-20)
(-0.00099652967 -0.0032128212 -5.828844e-20)
(-0.00095721666 -0.003150918 1.4925501e-20)
(-0.00091962918 -0.0030914263 4.2045326e-20)
(-0.00088366586 -0.0030342439 6.4432619e-20)
(-0.00084923212 -0.0029792744 -7.1958916e-21)
(-0.00081623966 -0.0029264267 -1.6771186e-20)
(-0.00078460596 -0.0028756148 -3.0271113e-20)
(-0.00075425383 -0.0028267574 -1.9668991e-20)
(-0.00072511107 -0.0027797775 2.6385172e-20)
(-0.00069711002 -0.0027346025 3.7314634e-21)
(-0.0006701873 -0.0026911636 7.4733108e-21)
(-0.00064428342 -0.0026493956 1.5667932e-20)
(-0.00061934255 -0.0026092367 -1.4060916e-21)
(-0.00059531224 -0.0025706285 -4.3213341e-21)
(-0.00057214316 -0.0025335156 -7.016315e-21)
(-0.00054978891 -0.0024978454 -1.391357e-20)
(-0.00052820577 -0.0024635678 -1.0153147e-21)
(-0.00050735258 -0.0024306356 1.1770453e-20)
(-0.00048719049 -0.0023990037 2.630787e-20)
(-0.00046768287 -0.0023686291 2.2477162e-20)
(-0.00044879514 -0.0023394713 -9.1345238e-21)
(-0.00043049466 -0.0023114913 -6.2301589e-22)
(-0.00041275058 -0.0022846521 2.685938e-20)
(-0.00039553378 -0.0022589187 3.9347509e-21)
(-0.00037881675 -0.0022342572 -1.4261558e-20)
(-0.00036257352 -0.0022106357 -4.0718737e-20)
(-0.00034677957 -0.0021880235 -4.4016552e-21)
(-0.00033141179 -0.0021663913 -1.8361312e-21)
(-0.0003164484 -0.0021457112 8.0329354e-21)
(-0.00030186892 -0.0021259566 4.1280326e-21)
(-0.00028765407 -0.0021071019 -2.7727238e-21)
(-0.00027378577 -0.0020891229 7.2268672e-21)
(-0.00026024711 -0.0020719965 5.4688891e-21)
(-0.00024702226 -0.0020557006 4.088075e-21)
(-0.00023409645 -0.0020402144 1.3796589e-20)
(-0.00022145594 -0.0020255181 -3.3355126e-22)
(-0.00020908792 -0.002011593 -3.3304863e-21)
(-0.00019698054 -0.0019984217 3.5389973e-21)
(-0.00018512279 -0.0019859878 4.1479018e-21)
(-0.00017350443 -0.0019742761 -1.0045833e-20)
(-0.00016211597 -0.0019632727 -1.6158832e-20)
(-0.00015094851 -0.0019529647 -1.4289162e-20)
(-0.00013999371 -0.0019433407 -1.1240698e-20)
(-0.00012924363 -0.0019343905 -1.4041567e-21)
(-0.00011869062 -0.0019261049 -3.8568414e-21)
(-0.0001083272 -0.0019184765 -6.2965092e-21)
(-9.8145879e-05 -0.0019114987 1.1170882e-20)
(-8.8139022e-05 -0.0019051664 3.040345e-21)
(-7.8298662e-05 -0.0018994753 1.2140343e-20)
(-6.8616345e-05 -0.0018944224 1.0558337e-20)
(-5.9082962e-05 -0.0018900053 3.7215984e-21)
(-4.9688646e-05 -0.0018862221 2.4336788e-21)
(-4.0422879e-05 -0.0018830698 9.2987083e-21)
(-3.1274288e-05 -0.0018805428 9.0797453e-21)
(-2.2226964e-05 -0.0018786276 -3.2061243e-23)
(-1.3260852e-05 -0.0018772959 4.7445426e-21)
(-4.3864074e-06 -0.0018765182 1.0965921e-20)
(-0.0026057616 -0.0057714807 -1.4538237e-19)
(-0.002477403 -0.00559725 -3.3187688e-19)
(-0.0023569891 -0.0054314145 -4.1313807e-19)
(-0.0022439171 -0.0052734692 -3.4724801e-20)
(-0.0021376375 -0.0051229472 3.2747256e-19)
(-0.0020376483 -0.0049794161 3.1761222e-19)
(-0.0019434902 -0.0048424749 9.686919e-20)
(-0.0018547427 -0.0047117508 8.494576e-20)
(-0.0017710204 -0.0045868974 -6.8140624e-20)
(-0.0016919696 -0.004467592 4.93898e-20)
(-0.0016172654 -0.0043535339 5.824707e-20)
(-0.001546609 -0.0042444429 -5.7760063e-20)
(-0.0014797254 -0.0041400573 -1.2572225e-19)
(-0.0014163612 -0.0040401326 3.8712461e-20)
(-0.0013562826 -0.0039444402 6.9361773e-20)
(-0.0012992738 -0.0038527664 4.3479466e-20)
(-0.0012451354 -0.0037649111 1.795021e-20)
(-0.0011936829 -0.0036806866 -3.9055988e-20)
(-0.0011447454 -0.0035999171 -3.0879757e-20)
(-0.0010981646 -0.0035224377 3.0148289e-20)
(-0.0010537936 -0.0034480934 1.6618989e-20)
(-0.0010114961 -0.0033767387 1.4053581e-20)
(-0.00097114537 -0.0033082369 -2.9527268e-20)
(-0.00093262365 -0.0032424592 1.9999961e-20)
(-0.00089582129 -0.0031792845 9.4445884e-20)
(-0.00086063617 -0.0031185988 4.9322914e-20)
(-0.00082697309 -0.0030602946 4.0515008e-20)
(-0.00079474327 -0.0030042707 -1.5716649e-21)
(-0.00076386378 -0.0029504314 7.5742799e-21)
(-0.00073425717 -0.0028986867 2.361342e-20)
(-0.00070585102 -0.0028489514 5.1433658e-20)
(-0.00067857754 -0.0028011451 6.2773816e-20)
(-0.00065237327 -0.0027551918 -7.5057638e-21)
(-0.00062717871 -0.0027110198 -3.4292101e-21)
(-0.00060293806 -0.0026685609 9.9649541e-22)
(-0.00057959894 -0.0026277511 1.0430701e-20)
(-0.00055711212 -0.0025885293 4.5662646e-21)
(-0.00053543131 -0.0025508379 -3.8408467e-20)
(-0.00051451295 -0.0025146223 1.43919e-21)
(-0.000494316 -0.0024798306 1.1233438e-20)
(-0.0004748018 -0.0024464136 3.0137432e-20)
(-0.00045593386 -0.0024143247 2.7654118e-20)
(-0.00043767774 -0.0023835194 1.1855382e-20)
(-0.00042000094 -0.0023539556 -4.0497357e-21)
(-0.00040287274 -0.002325593 6.324815e-21)
(-0.00038626413 -0.0022983934 5.9303625e-21)
(-0.00037014769 -0.0022723203 -9.7233384e-21)
(-0.00035449753 -0.002247339 8.6644485e-21)
(-0.00033928919 -0.0022234161 -3.9225643e-21)
(-0.00032449961 -0.0022005202 -3.8980496e-21)
(-0.00031010704 -0.0021786207 -2.9596032e-21)
(-0.00029609102 -0.0021576889 3.5861482e-21)
(-0.0002824323 -0.002137697 -1.0109822e-21)
(-0.00026911283 -0.0021186186 -6.4407764e-21)
(-0.00025611573 -0.0021004286 1.6259987e-20)
(-0.00024342521 -0.0020831029 1.6604349e-20)
(-0.00023102659 -0.0020666186 2.0844181e-20)
(-0.00021890625 -0.002050954 1.2406783e-20)
(-0.00020705158 -0.0020360885 7.540046e-21)
(-0.00019545093 -0.0020220027 3.7886018e-21)
(-0.00018409362 -0.0020086783 -2.6409371e-21)
(-0.00017296982 -0.0019960984 -8.2350912e-22)
(-0.00016207053 -0.001984247 -5.6366185e-21)
(-0.00015138749 -0.0019731096 -2.3292132e-21)
(-0.0001409131 -0.001962673 -2.6940358e-21)
(-0.00013064033 -0.0019529254 6.9323836e-22)
(-0.00012056256 -0.0019438561 1.083194e-20)
(-0.00011067351 -0.0019354562 -8.5768254e-21)
(-0.00010096701 -0.001927718 1.6377554e-21)
(-9.1436904e-05 -0.0019206351 7.1541657e-21)
(-8.207679e-05 -0.0019142029 5.6282434e-21)
(-7.2879871e-05 -0.0019084176 1.7710515e-20)
(-6.3838723e-05 -0.001903277 1.3346454e-20)
(-5.4945084e-05 -0.0018987795 1.9580354e-20)
(-4.618971e-05 -0.0018949242 8.7951372e-21)
(-3.756241e-05 -0.0018917093 6.7594802e-21)
(-2.9051828e-05 -0.0018891303 1.6467708e-20)
(-2.0641994e-05 -0.0018871746 4.2144359e-21)
(-1.2312767e-05 -0.0018858141 1.8938956e-21)
(-4.0722934e-06 -0.0018850196 3.9007445e-21)
(-0.0024235009 -0.0058683535 -2.4000117e-19)
(-0.0023040853 -0.0056880318 -4.1329686e-19)
(-0.0021920635 -0.0055165764 -8.7284787e-20)
(-0.0020868758 -0.0053534402 1.0930879e-19)
(-0.0019880112 -0.005198119 1.8446743e-19)
(-0.0018950026 -0.0050501465 2.4118207e-19)
(-0.0018074222 -0.0049090913 -4.9003514e-20)
(-0.0017248784 -0.004774553 1.0979707e-19)
(-0.0016470122 -0.00464616 3.5807638e-20)
(-0.0015734939 -0.0045235672 7.285376e-20)
(-0.0015040208 -0.0044064531 1.9812511e-19)
(-0.0014383148 -0.0042945189 -2.7073003e-20)
(-0.0013761195 -0.0041874858 -5.7341395e-20)
(-0.001317199 -0.004085094 1.393847e-19)
(-0.0012613356 -0.0039871009 8.0947088e-20)
(-0.0012083282 -0.00389328 4.9057143e-20)
(-0.0011579912 -0.0038034193 -5.7880043e-20)
(-0.0011101527 -0.0037173207 -3.0728519e-20)
(-0.0010646536 -0.0036347986 4.8778654e-20)
(-0.0010213465 -0.003555679 2.7040099e-20)
(-0.0009800946 -0.003479799 2.0551697e-20)
(-0.00094077106 -0.0034070054 -9.8424187e-21)
(-0.00090325791 -0.0033371546 6.1781262e-21)
(-0.00086744547 -0.0032701116 7.5610816e-20)
(-0.0008332317 -0.0032057495 7.1550613e-20)
(-0.00080052154 -0.0031439488 2.8895906e-20)
(-0.00076922641 -0.0030845972 -3.102681e-20)
(-0.00073926365 -0.0030275889 2.2890486e-20)
(-0.00071055612 -0.0029728241 2.7353527e-20)
(-0.00068303174 -0.0029202088 5.6703376e-21)
(-0.00065662312 -0.0028696542 2.2300042e-20)
(-0.0006312672 -0.0028210767 1.9880324e-20)
(-0.00060690493 -0.0027743973 6.4644001e-21)
(-0.00058348095 -0.0027295413 2.0570047e-21)
(-0.00056094335 -0.0026864381 7.4400472e-23)
(-0.00053924338 -0.0026450211 4.0907362e-21)
(-0.00051833523 -0.0026052271 8.6010901e-21)
(-0.00049817579 -0.0025669965 -9.2077665e-21)
(-0.00047872452 -0.0025302726 1.6891468e-20)
(-0.00045994317 -0.0024950018 1.4955328e-20)
(-0.00044179571 -0.0024611334 8.8038596e-21)
(-0.00042424811 -0.002428619 1.0400952e-20)
(-0.00040726824 -0.0023974129 -2.0213994e-21)
(-0.00039082575 -0.0023674715 1.4256458e-20)
(-0.00037489193 -0.0023387533 2.5667089e-21)
(-0.00035943967 -0.0023112188 1.2094578e-20)
(-0.00034444331 -0.0022848306 8.5624918e-21)
(-0.00032987863 -0.0022595526 -4.219142e-21)
(-0.00031572275 -0.0022353506 7.4754284e-21)
(-0.00030195406 -0.002212192 -7.9450537e-21)
(-0.00028855224 -0.0021900454 -6.7665953e-21)
(-0.00027549813 -0.002168881 -2.8512282e-21)
(-0.00026277378 -0.0021486701 -1.6320616e-20)
(-0.00025036238 -0.0021293854 -7.6435509e-22)
(-0.00023824824 -0.0021110009 4.4972018e-21)
(-0.00022641675 -0.0020934916 2.5756029e-21)
(-0.00021485439 -0.0020768336 -9.0000792e-21)
(-0.0002035487 -0.0020610045 1.5965768e-21)
(-0.00019248823 -0.0020459828 -6.148132e-21)
(-0.00018166254 -0.0020317482 1.130418e-21)
(-0.00017106213 -0.0020182818 -9.8887962e-22)
(-0.00016067845 -0.0020055657 8.6370821e-21)
(-0.00015050376 -0.0019935834 1.175432e-20)
(-0.00014053115 -0.0019823199 1.2600423e-20)
(-0.0001307544 -0.0019717612 4.438127e-21)
(-0.00012116788 -0.0019618952 1.2311935e-20)
(-0.00011176646 -0.0019527111 3.4971932e-21)
(-0.00010254534 -0.0019441995 1.0451586e-21)
(-9.3499859e-05 -0.0019363529 1.2117917e-20)
(-8.4625351e-05 -0.0019291652 3.1976101e-22)
(-7.5916878e-05 -0.001922632 2.2641326e-21)
(-6.7369007e-05 -0.0019167505 1.3366653e-21)
(-5.8975543e-05 -0.001911519 1.7704239e-20)
(-5.0729251e-05 -0.0019069373 1.115038e-20)
(-4.2621639e-05 -0.0019030056 8.2726497e-21)
(-3.4642922e-05 -0.0018997238 1.4841949e-21)
(-2.6781765e-05 -0.0018970885 -5.1643281e-21)
(-1.9022026e-05 -0.0018950886 2.3865995e-21)
(-1.1343256e-05 -0.0018936967 -1.4664485e-21)
(-3.7509787e-06 -0.0018928836 -2.2259848e-20)
(-0.0022351102 -0.0059580318 2.6522776e-19)
(-0.0021251144 -0.0057720763 -1.2522893e-19)
(-0.0020219186 -0.0055954201 1.6709023e-19)
(-0.0019250112 -0.0054274787 -3.2207762e-19)
(-0.0018339234 -0.005267714 -2.3080933e-19)
(-0.0017482263 -0.0051156292 4.0044249e-20)
(-0.0016675267 -0.0049707646 -4.4601893e-21)
(-0.0015914642 -0.0048326945 2.3904089e-19)
(-0.0015197084 -0.0047010242 -2.2313302e-20)
(-0.0014519562 -0.0045753875 -1.0046807e-19)
(-0.0013879289 -0.0044554439 1.0995811e-19)
(-0.0013273705 -0.0043408772 -2.3142937e-21)
(-0.0012700453 -0.0042313929 5.6763381e-20)
(-0.001215736 -0.004126717 5.3248139e-21)
(-0.0011642422 -0.0040265939 -5.0834361e-20)
(-0.0011153789 -0.0039307851 -3.7747472e-20)
(-0.0010689752 -0.003839068 -9.2924981e-20)
(-0.0010248726 -0.0037512345 1.4967567e-20)
(-0.00098292493 -0.00366709 5.4937828e-20)
(-0.00094299625 -0.0035864523 -4.1695946e-20)
(-0.00090496069 -0.0035091507 -1.923847e-20)
(-0.00086870134 -0.0034350254 -2.0710362e-20)
(-0.00083410958 -0.0033639261 4.8453178e-20)
(-0.00080108438 -0.0032957122 -3.7049855e-21)
(-0.00076953177 -0.0032302512 -5.687701e-21)
(-0.00073936417 -0.0031674189 -1.1358307e-20)
(-0.0007105 -0.0031070982 -2.8725178e-20)
(-0.00068286311 -0.003049179 7.5705242e-20)
(-0.00065638244 -0.0029935579 2.8448691e-20)
(-0.0006309916 -0.0029401372 -1.853053e-20)
(-0.00060662851 -0.0028888247 -2.2023054e-20)
(-0.00058323508 -0.0028395339 -1.9785191e-20)
(-0.0005607569 -0.0027921829 1.7708977e-20)
(-0.00053914299 -0.0027466943 -1.3978651e-20)
(-0.0005183455 -0.0027029953 -2.6276379e-20)
(-0.00049831951 -0.0026610169 -3.8564366e-21)
(-0.00047902278 -0.0026206939 1.9593586e-20)
(-0.00046041558 -0.0025819648 2.0072719e-20)
(-0.00044246047 -0.0025447712 -3.4085198e-20)
(-0.00042512216 -0.0025090578 8.9039612e-21)
(-0.00040836735 -0.0024747724 2.5774528e-20)
(-0.00039216458 -0.0024418653 2.8085941e-20)
(-0.00037648411 -0.0024102894 7.9998161e-21)
(-0.00036129781 -0.0023799998 1.5468326e-20)
(-0.00034657909 -0.002350954 -2.7316548e-21)
(-0.00033230275 -0.0023231113 1.3642467e-20)
(-0.00031844499 -0.0022964332 1.1863828e-20)
(-0.00030498327 -0.0022708827 1.2310754e-21)
(-0.0002918963 -0.0022464247 1.0750122e-20)
(-0.00027916401 -0.0022230254 -1.2151946e-20)
(-0.00026676747 -0.0022006527 -8.5620179e-21)
(-0.00025468891 -0.0021792757 -7.5634417e-21)
(-0.00024291164 -0.0021588649 7.2932575e-21)
(-0.0002314201 -0.0021393922 1.2778159e-20)
(-0.0002201998 -0.0021208304 -8.6923382e-21)
(-0.00020923733 -0.0021031539 3.3114802e-21)
(-0.00019852035 -0.0020863378 -1.7692006e-20)
(-0.00018803756 -0.0020703588 -9.4083135e-22)
(-0.00017777871 -0.0020551945 -6.216449e-21)
(-0.00016773456 -0.0020408239 8.3928261e-21)
(-0.00015789687 -0.0020272271 1.7565397e-20)
(-0.00014825837 -0.0020143855 1.1097545e-20)
(-0.00013881268 -0.0020022818 2.5414606e-20)
(-0.0001295543 -0.0019909002 2.2310765e-20)
(-0.00012047847 -0.0019802265 1.6380053e-20)
(-0.00011158112 -0.0019702477 1.5216894e-20)
(-0.00010285871 -0.0019609528 6.0398223e-21)
(-9.4308113e-05 -0.0019523322 -2.2184324e-21)
(-8.5926371e-05 -0.0019443785 -2.2663385e-21)
(-7.7710528e-05 -0.0019370857 -6.7185007e-22)
(-6.9657344e-05 -0.0019304499 6.3086968e-21)
(-6.1763006e-05 -0.0019244689 -1.1336242e-21)
(-5.40228e-05 -0.0019191424 1.8820037e-20)
(-4.6430773e-05 -0.0019144713 7.2949855e-21)
(-3.8979401e-05 -0.0019104575 6.8179674e-21)
(-3.165944e-05 -0.0019071027 -4.9366551e-22)
(-2.4459587e-05 -0.0019044055 -1.1418208e-20)
(-1.7363433e-05 -0.0019023563 2.147741e-21)
(-1.0349954e-05 -0.0019009291 -3.9540548e-21)
(-3.4216375e-06 -0.0019000953 -1.844571e-20)
(-0.0020410899 -0.0060401103 -1.0539159e-19)
(-0.0019409472 -0.0058490145 -5.1951679e-20)
(-0.0018469736 -0.0056676088 -1.2942898e-20)
(-0.0017587089 -0.0054952767 -2.3951072e-19)
(-0.00167573 -0.0053314505 4.7201078e-20)
(-0.0015976486 -0.0051756059 9.9937443e-20)
(-0.0015241083 -0.0050272583 1.7605268e-19)
(-0.0014547823 -0.0048859586 2.8127707e-19)
(-0.0013893712 -0.0047512912 1.4007275e-19)
(-0.0013275998 -0.0046228703 3.2800653e-20)
(-0.0012692158 -0.0045003385 8.3076105e-20)
(-0.0012139867 -0.0043833634 1.8520658e-19)
(-0.0011616987 -0.0042716364 7.5621396e-20)
(-0.0011121547 -0.0041648705 -2.9794531e-20)
(-0.0010651728 -0.0040627981 2.4745169e-20)
(-0.0010205849 -0.00396517 5.0624428e-20)
(-0.00097823569 -0.0038717538 6.7220785e-20)
(-0.00093798152 -0.0037823323 2.8124412e-20)
(-0.00089968923 -0.0036967027 1.9267052e-20)
(-0.00086323543 -0.0036146752 7.384979e-20)
(-0.00082850563 -0.0035360723 6.5513808e-20)
(-0.00079539354 -0.0034607278 9.8522985e-20)
(-0.00076380035 -0.0033884856 6.1036373e-20)
(-0.00073363421 -0.0033191996 -5.0460857e-20)
(-0.00070480958 -0.0032527326 3.6917375e-20)
(-0.00067724682 -0.0031889557 1.0012212e-19)
(-0.00065087164 -0.0031277477 5.5491392e-20)
(-0.00062561478 -0.0030689947 3.113983e-20)
(-0.00060141154 -0.0030125895 -6.6186118e-21)
(-0.0005782015 -0.0029584313 1.8268956e-20)
(-0.00055592813 -0.002906425 2.4239988e-20)
(-0.00053453856 -0.0028564811 2.6509191e-20)
(-0.00051398326 -0.0028085151 3.5942939e-20)
(-0.00049421579 -0.0027624474 3.3226708e-20)
(-0.00047519258 -0.0027182029 2.4116028e-20)
(-0.00045687268 -0.0026757106 -2.345921e-21)
(-0.0004392176 -0.0026349034 1.3418021e-20)
(-0.00042219111 -0.0025957181 3.4821263e-20)
(-0.00040575904 -0.0025580947 -7.0893369e-21)
(-0.00038988914 -0.0025219765 5.7641048e-21)
(-0.00037455097 -0.0024873098 1.8439864e-21)
(-0.00035971571 -0.0024540438 -6.8397626e-21)
(-0.00034535611 -0.0024221301 1.0764439e-20)
(-0.00033144636 -0.0023915228 6.0525884e-22)
(-0.00031796199 -0.0023621782 6.0095869e-21)
(-0.00030487982 -0.0023340549 -1.6421363e-21)
(-0.0002921779 -0.0023071131 2.4538147e-20)
(-0.00027983543 -0.0022813151 1.5046323e-20)
(-0.00026783277 -0.0022566248 1.9275486e-20)
(-0.00025615134 -0.0022330077 2.6680623e-20)
(-0.00024477367 -0.0022104306 1.0803434e-20)
(-0.00023368331 -0.0021888618 1.3295447e-20)
(-0.00022286491 -0.0021682711 3.4942155e-20)
(-0.00021230412 -0.0021486293 3.4626391e-21)
(-0.00020198767 -0.0021299084 4.2104719e-21)
(-0.00019190335 -0.0021120819 9.1833516e-21)
(-0.00018203996 -0.0020951241 8.5547066e-21)
(-0.00017238739 -0.0020790106 6.776186e-21)
(-0.00016293659 -0.0020637183 8.4385061e-21)
(-0.00015367955 -0.0020492251 1.9368089e-20)
(-0.00014460931 -0.0020355103 2.389141e-20)
(-0.00013571991 -0.0020225544 2.3239456e-20)
(-0.0001270064 -0.0020103393 2.6362496e-20)
(-0.00011846473 -0.0019988486 1.7485459e-20)
(-0.00011009174 -0.0019880671 1.6442421e-20)
(-0.00010188501 -0.0019779814 1.720303e-20)
(-9.384277e-05 -0.00196858 1.8585855e-20)
(-8.5963719e-05 -0.0019598532 1.0052167e-20)
(-7.8246838e-05 -0.0019517933 -2.7709631e-21)
(-7.0691136e-05 -0.0019443945 1.7691061e-20)
(-6.329536e-05 -0.0019376536 2.046896e-20)
(-5.6057641e-05 -0.0019315691 2.1478244e-20)
(-4.8975104e-05 -0.0019261419 7.4910435e-21)
(-4.2043407e-05 -0.0019213746 1.4171438e-20)
(-3.5256284e-05 -0.0019172711 6.2280354e-22)
(-2.860526e-05 -0.0019138353 -1.1627797e-20)
(-2.2079178e-05 -0.0019110684 2.1150171e-21)
(-1.5661272e-05 -0.0019089633 4.0602537e-21)
(-9.3296182e-06 -0.0019074956 -4.8925362e-21)
(-3.0831359e-06 -0.0019066377 8.5866453e-23)
(-0.0018419768 -0.0061142268 -2.1310965e-19)
(-0.0017520724 -0.0059185144 -2.4210594e-19)
(-0.0016676756 -0.0057328374 -3.5953605e-19)
(-0.0015883803 -0.0055565539 -4.0288055e-20)
(-0.0015138104 -0.0053890712 1.7584559e-19)
(-0.00144362 -0.0052298412 1.5812661e-19)
(-0.0013774913 -0.0050783565 2.2932289e-19)
(-0.0013151332 -0.0049341476 1.2431284e-19)