/*--------------------------------*- C++ -*----------------------------------*\
| =========                 |                                                 |
| \\      /  F ield         | OpenFOAM: The Open Source CFD Toolbox           |
|  \\    /   O peration     | Version:  2106                                  |
|   \\  /    A nd           | Website:  www.openfoam.com                      |
|    \\/     M anipulation  |                                                 |
\*---------------------------------------------------------------------------*/
FoamFile
{
    version     2.0;
    format      ascii;
    arch        "LSB;label=32;scalar=64";
    class       volScalarField;
    location    "0.047";
    object      p_rgh;
}
// * * * * * * * * * * * * * * * * * * * * * * * * * * * * * * * * * * * * * //

dimensions      [1 -1 -2 0 0 0 0];

internalField   nonuniform List<scalar> 
16384
(
-2.5604839
-2.554316
-2.541995
-2.5235507
-2.4990273
-2.4684841
-2.4319944
-2.3896463
-2.3415416
-2.2877962
-2.2285395
-2.1639142
-2.094076
-2.019193
-1.9394455
-1.8550257
-1.7661368
-1.672993
-1.5758186
-1.4748476
-1.3703233
-1.2624974
-1.1516296
-1.0379872
-0.92184371
-0.80347906
-0.68317836
-0.56123144
-0.43793209
-0.31357737
-0.18846689
-0.06290208
0.062814534
0.18838011
0.31349204
0.43784891
0.56115111
0.68310155
0.8034064
0.92177581
1.0379246
1.1515729
1.2624469
1.3702795
1.4748108
1.5757891
1.6729711
1.7661226
1.8550192
1.9394467
2.0192018
2.0940923
2.1639378
2.22857
2.2878333
2.3415848
2.3896951
2.4320483
2.4685424
2.4990894
2.5236158
2.5420625
2.554385
2.5605537
2.5605537
2.554385
2.5420625
2.5236158
2.4990894
2.4685424
2.4320483
2.3896951
2.3415848
2.2878333
2.22857
2.1639378
2.0940923
2.0192018
1.9394467
1.8550192
1.7661226
1.6729711
1.5757891
1.4748108
1.3702795
1.2624469
1.1515729
1.0379246
0.92177581
0.8034064
0.68310155
0.56115111
0.43784891
0.31349204
0.18838011
0.062814534
-0.06290208
-0.18846689
-0.31357737
-0.43793209
-0.56123143
-0.68317836
-0.80347906
-0.92184371
-1.0379872
-1.1516296
-1.2624974
-1.3703233
-1.4748476
-1.5758186
-1.672993
-1.7661368
-1.8550257
-1.9394455
-2.019193
-2.094076
-2.1639142
-2.2285395
-2.2877962
-2.3415416
-2.3896463
-2.4319944
-2.4684841
-2.4990273
-2.5235507
-2.541995
-2.554316
-2.5604839
-2.5665984
-2.5604157
-2.5480652
-2.5295767
-2.5049947
-2.4743783
-2.4378014
-2.3953519
-2.347132
-2.293258
-2.2338595
-2.1690796
-2.0990742
-2.0240121
-1.9440738
-1.8594521
-1.7703506
-1.6769841
-1.5795772
-1.4783648
-1.3735906
-1.265507
-1.1543743
-1.0404603
-0.92403932
-0.8053919
-0.68480385
-0.5625657
-0.43897194
-0.31432034
-0.18891122
-0.063046727
0.062969903
0.188835
0.31424537
0.43889882
0.56249503
0.6847362
0.80532782
0.92397932
1.0404049
1.1543239
1.265462
1.3735514
1.4783316
1.5795503
1.6769636
1.7703368
1.8594449
1.9440733
2.0240182
2.0990868
2.1690984
2.2338843
2.2932885
2.3471678
2.3953925
2.4378464
2.4744272
2.5050468
2.5296315
2.548122
2.5604738
2.5666571
2.5666571
2.5604738
2.548122
2.5296315
2.5050468
2.4744272
2.4378464
2.3953925
2.3471678
2.2932885
2.2338843
2.1690984
2.0990868
2.0240182
1.9440733
1.8594449
1.7703368
1.6769636
1.5795503
1.4783316
1.3735514
1.265462
1.1543239
1.0404049
0.92397932
0.80532782
0.6847362
0.56249503
0.43889882
0.31424537
0.188835
0.062969903
-0.063046727
-0.18891122
-0.31432034
-0.43897194
-0.5625657
-0.68480385
-0.8053919
-0.92403932
-1.0404603
-1.1543743
-1.265507
-1.3735906
-1.4783648
-1.5795772
-1.6769841
-1.7703506
-1.8594521
-1.9440738
-2.0240121
-2.0990742
-2.1690796
-2.2338595
-2.293258
-2.347132
-2.3953519
-2.4378014
-2.4743783
-2.5049947
-2.5295767
-2.5480652
-2.5604157
-2.5665984
-2.5788976
-2.5726852
-2.5602756
-2.5416984
-2.5169985
-2.4862353
-2.4494829
-2.4068298
-2.3583787
-2.3042463
-2.244563
-2.1794724
-2.1091314
-2.0337093
-1.9533878
-1.8683602
-1.7788316
-1.6850173
-1.5871435
-1.4854459
-1.3801693
-1.2715676
-1.1599021
-1.0454421
-0.92846306
-0.80924696
-0.68808096
-0.56525699
-0.44107094
-0.31582202
-0.18981199
-0.063344452
0.063275901
0.18974398
0.31575509
0.44100562
0.56519379
0.68802039
0.80918949
0.92840914
1.0453921
1.1598566
1.2715267
1.3801335
1.4854153
1.5871184
1.6849979
1.7788179
1.8683524
1.9533857
2.033713
2.1091408
2.1794873
2.2445831
2.3042715
2.3584085
2.4068638
2.4495207
2.4862765
2.5170425
2.5417448
2.5603237
2.5727346
2.5789475
2.5789475
2.5727346
2.5603237
2.5417448
2.5170425
2.4862765
2.4495207
2.4068638
2.3584085
2.3042715
2.2445831
2.1794873
2.1091408
2.033713
1.9533857
1.8683524
1.7788179
1.6849979
1.5871184
1.4854153
1.3801335
1.2715267
1.1598566
1.0453921
0.92840914
0.80918949
0.68802039
0.56519379
0.44100562
0.31575509
0.18974398
0.063275901
-0.063344452
-0.18981199
-0.31582202
-0.44107094
-0.56525699
-0.68808096
-0.80924696
-0.92846306
-1.0454421
-1.1599021
-1.2715676
-1.3801693
-1.4854459
-1.5871435
-1.6850173
-1.7788316
-1.8683602
-1.9533878
-2.0337093
-2.1091314
-2.1794724
-2.244563
-2.3042463
-2.3583787
-2.4068298
-2.4494829
-2.4862353
-2.5169985
-2.5416984
-2.5602756
-2.5726852
-2.5788976
-2.5974034
-2.5911465
-2.5786478
-2.5599372
-2.53506
-2.504076
-2.4670598
-2.4241005
-2.3753017
-2.3207807
-2.260669
-2.1951112
-2.1242652
-2.0483017
-1.9674036
-1.8817658
-1.7915944
-1.6971068
-1.5985304
-1.4961028
-1.3900707
-1.2806894
-1.1682225
-1.0529409
-0.9351223
-0.81505058
-0.69301499
-0.56930955
-0.4442323
-0.31808457
-0.1911703
-0.063795274
0.063733623
0.19110912
0.31802433
0.44417345
0.56925256
0.69296028
0.81499857
0.93507338
1.0528954
1.1681808
1.2806518
1.3900375
1.4960743
1.5985067
1.697088
1.7915807
1.8817571
1.9674001
2.0483032
2.1242717
2.1951225
2.2606849
2.3208011
2.3753261
2.4241287
2.4670914
2.5041106
2.5350971
2.5599764
2.5786885
2.5911883
2.5974457
2.5974457
2.5911883
2.5786885
2.5599764
2.5350971
2.5041106
2.4670914
2.4241287
2.3753261
2.3208011
2.2606849
2.1951225
2.1242717
2.0483032
1.9674001
1.8817571
1.7915807
1.697088
1.5985067
1.4960743
1.3900375
1.2806518
1.1681808
1.0528954
0.93507338
0.81499857
0.69296028
0.56925256
0.44417345
0.31802433
0.19110912
0.063733623
-0.063795274
-0.1911703
-0.31808457
-0.4442323
-0.56930955
-0.69301499
-0.81505058
-0.9351223
-1.0529409
-1.1682225
-1.2806894
-1.3900707
-1.4961028
-1.5985304
-1.6971068
-1.7915944
-1.8817658
-1.9674036
-2.0483017
-2.1242652
-2.1951112
-2.260669
-2.3207807
-2.3753017
-2.4241005
-2.4670598
-2.504076
-2.53506
-2.5599372
-2.5786478
-2.5911465
-2.5974034
-2.6221585
-2.6158419
-2.603224
-2.5843351
-2.5592208
-2.5279414
-2.4905724
-2.4472036
-2.3979396
-2.3428989
-2.2822142
-2.2160314
-2.1445101
-2.0678225
-1.9861533
-1.8996991
-1.8086682
-1.7132799
-1.6137638
-1.5103598
-1.4033169
-1.292893
-1.179354
-1.0629735
-0.94403183
-0.82281558
-0.69961676
-0.5747322
-0.44846276
-0.32111267
-0.19298877
-0.064399754
0.064344565
0.19293399
0.32105869
0.44840997
0.57468098
0.6995675
0.82276863
0.94398753
1.0629321
1.1793159
1.2928584
1.4032861
1.510333
1.6137412
1.7132615
1.8086542
1.8996895
1.9861481
2.0678218
2.1445137
2.2160392
2.282226
2.3429146
2.3979588
2.4472261
2.4905979
2.5279695
2.5592511
2.5843672
2.6032575
2.6158763
2.6221933
2.6221933
2.6158763
2.6032575
2.5843672
2.5592511
2.5279695
2.4905979
2.4472261
2.3979588
2.3429146
2.282226
2.2160392
2.1445137
2.0678218
1.9861481
1.8996895
1.8086542
1.7132615
1.6137412
1.510333
1.4032861
1.2928584
1.1793159
1.0629321
0.94398753
0.82276863
0.6995675
0.57468098
0.44840997
0.32105869
0.19293399
0.064344565
-0.064399754
-0.19298877
-0.32111267
-0.44846276
-0.5747322
-0.69961676
-0.82281558
-0.94403183
-1.0629735
-1.179354
-1.292893
-1.4033169
-1.5103598
-1.6137638
-1.7132799
-1.8086682
-1.8996991
-1.9861533
-2.0678225
-2.1445101
-2.2160314
-2.2822142
-2.3428989
-2.3979396
-2.4472036
-2.4905724
-2.5279414
-2.5592208
-2.5843351
-2.603224
-2.6158419
-2.6221585
-2.6532224
-2.646831
-2.6340636
-2.614951
-2.5895391
-2.5578892
-2.5200774
-2.4761948
-2.4263472
-2.3706544
-2.3092507
-2.2422838
-2.1699151
-2.0923189
-2.0096821
-1.9222036
-1.8300941
-1.7335756
-1.6328804
-1.5282513
-1.4199401
-1.3082078
-1.1933235
-1.0755641
-0.95521316
-0.8325607
-0.70790219
-0.58153798
-0.45377251
-0.32491362
-0.19527176
-0.065159313
0.065110242
0.19522303
0.32486555
0.45372543
0.58149222
0.70785805
0.83251848
0.95517316
1.0755266
1.1932887
1.3081759
1.4199114
1.528226
1.6328587
1.7335574
1.8300797
1.9221929
2.0096752
2.0923158
2.1699157
2.242288
2.3092583
2.3706653
2.4263612
2.4762117
2.5200968
2.5579109
2.5895627
2.6149762
2.63409
2.6468582
2.65325
2.65325
2.6468582
2.63409
2.6149762
2.5895627
2.5579109
2.5200968
2.4762117
2.4263612
2.3706653
2.3092583
2.242288
2.1699157
2.0923158
2.0096752
1.9221929
1.8300797
1.7335574
1.6328587
1.528226
1.4199114
1.3081759
1.1932887
1.0755266
0.95517316
0.83251848
0.70785805
0.58149222
0.45372543
0.32486555
0.19522303
0.065110242
-0.065159313
-0.19527176
-0.32491362
-0.45377251
-0.58153798
-0.70790219
-0.8325607
-0.95521316
-1.0755641
-1.1933235
-1.3082078
-1.4199401
-1.5282513
-1.6328804
-1.7335756
-1.8300941
-1.9222036
-2.0096821
-2.0923189
-2.1699151
-2.2422838
-2.3092507
-2.3706544
-2.4263472
-2.4761948
-2.5200774
-2.5578892
-2.5895391
-2.614951
-2.6340636
-2.646831
-2.6532224
-2.6906702
-2.6841886
-2.671241
-2.6518586
-2.6260881
-2.5939915
-2.555646
-2.5111441
-2.4605929
-2.4041141
-2.3418436
-2.2739316
-2.2005415
-2.12185
-2.0380467
-1.9493335
-1.8559239
-1.7580429
-1.6559264
-1.5498203
-1.4399802
-1.3266707
-1.2101648
-1.0907431
-0.96869326
-0.84430945
-0.71789128
-0.58974334
-0.46017437
-0.32949657
-0.19802478
-0.066075784
0.066032502
0.19798177
0.32945409
0.46013269
0.5897027
0.71785195
0.84427167
0.96865727
1.0907091
1.210133
1.3266414
1.4399535
1.5497963
1.6559053
1.7580248
1.8559088
1.9493215
2.038038
2.1218444
2.200539
2.2739321
2.3418471
2.4041203
2.4606017
2.5111554
2.5556595
2.5940068
2.6261051
2.651877
2.6712604
2.6842087
2.6906906
2.6906906
2.6842087
2.6712604
2.651877
2.6261051
2.5940068
2.5556595
2.5111554
2.4606017
2.4041203
2.3418471
2.2739321
2.200539
2.1218444
2.038038
1.9493215
1.8559088
1.7580248
1.6559053
1.5497963
1.4399535
1.3266414
1.210133
1.0907091
0.96865727
0.84427167
0.71785195
0.5897027
0.46013269
0.32945409
0.19798177
0.066032502
-0.066075784
-0.19802478
-0.32949657
-0.46017437
-0.58974334
-0.71789128
-0.84430945
-0.96869326
-1.0907431
-1.2101648
-1.3266707
-1.4399802
-1.5498203
-1.6559264
-1.7580429
-1.8559239
-1.9493335
-2.0380467
-2.12185
-2.2005415
-2.2739316
-2.3418436
-2.4041141
-2.4605929
-2.5111441
-2.555646
-2.5939915
-2.6260881
-2.6518586
-2.671241
-2.6841886
-2.6906702
-2.7345919
-2.7280045
-2.7148456
-2.6951468
-2.6689557
-2.6363352
-2.5973638
-2.5521355
-2.5007592
-2.4433584
-2.3800716
-2.311051
-2.2364629
-2.1564868
-2.0713155
-1.9811541
-1.8862196
-1.7867408
-1.6829572
-1.5751189
-1.4634857
-1.3483263
-1.2299183
-1.108547
-0.9845046
-0.85809012
-0.72960807
-0.59936801
-0.46768375
-0.33487256
-0.20125444
-0.067151354
0.06711359
0.20121688
0.33483539
0.46764718
0.59933224
0.72957328
0.8580565
0.98447235
1.1085162
1.2298893
1.3482992
1.4634605
1.575096
1.6829366
1.7867225
1.8862038
1.9811407
2.0713048
2.1564786
2.2364572
2.3110478
2.3800708
2.4433599
2.5007628
2.5521412
2.5973713
2.6363442
2.6689661
2.6951584
2.714858
2.7280175
2.7346052
2.7346052
2.7280175
2.714858
2.6951584
2.6689661
2.6363442
2.5973713
2.5521412
2.5007628
2.4433599
2.3800708
2.3110478
2.2364572
2.1564786
2.0713048
1.9811407
1.8862038
1.7867225
1.6829366
1.575096
1.4634605
1.3482992
1.2298893
1.1085162
0.98447235
0.8580565
0.72957328
0.59933224
0.46764718
0.33483539
0.20121688
0.06711359
-0.067151354
-0.20125444
-0.33487256
-0.46768375
-0.59936801
-0.72960807
-0.85809012
-0.9845046
-1.108547
-1.2299183
-1.3483263
-1.4634857
-1.5751189
-1.6829572
-1.7867408
-1.8862196
-1.9811541
-2.0713155
-2.1564868
-2.2364629
-2.311051
-2.3800716
-2.4433584
-2.5007592
-2.5521355
-2.5973638
-2.6363352
-2.6689557
-2.6951468
-2.7148456
-2.7280045
-2.7345919
-2.7850931
-2.7783841
-2.7649822
-2.7449198
-2.718245
-2.6850221
-2.6453312
-2.5992677
-2.5469426
-2.488482
-2.4240264
-2.3537313
-2.2777657
-2.1963128
-2.1095686
-2.017742
-1.9210543
-1.8197383
-1.714038
-1.604208
-1.4905129
-1.3732266
-1.2526317
-1.1290186
-1.0026852
-0.87393587
-0.74308075
-0.61043516
-0.47631869
-0.34105449
-0.20496849
-0.068388583
0.068356136
0.20493618
0.34102244
0.47628704
0.61040404
0.74305029
0.87390621
1.0026565
1.128991
1.2526053
1.3732015
1.4904892
1.6041859
1.7140175
1.8197196
1.9210375
2.0177271
2.1095556
2.1963018
2.2777567
2.3537242
2.4240212
2.4884786
2.546941
2.5992677
2.6453326
2.6850249
2.7182489
2.7449246
2.7649878
2.7783901
2.7850994
2.7850994
2.7783901
2.7649878
2.7449246
2.7182489
2.6850249
2.6453326
2.5992677
2.546941
2.4884786
2.4240212
2.3537242
2.2777567
2.1963018
2.1095556
2.0177271
1.9210375
1.8197196
1.7140175
1.6041859
1.4904892
1.3732015
1.2526053
1.128991
1.0026565
0.87390621
0.74305029
0.61040404
0.47628704
0.34102244
0.20493618
0.068356137
-0.068388583
-0.20496849
-0.34105449
-0.47631869
-0.61043516
-0.74308075
-0.87393587
-1.0026852
-1.1290186
-1.2526317
-1.3732266
-1.4905129
-1.604208
-1.714038
-1.8197383
-1.9210543
-2.017742
-2.1095686
-2.1963128
-2.2777657
-2.3537313
-2.4240264
-2.488482
-2.5469426
-2.5992677
-2.6453312
-2.6850221
-2.718245
-2.7449198
-2.7649822
-2.7783841
-2.7850931
-2.8422955
-2.8354487
-2.8217716
-2.8012971
-2.7740746
-2.7401695
-2.6996635
-2.6526541
-2.5992544
-2.5395932
-2.473814
-2.4020751
-2.3245495
-2.2414237
-2.1528979
-2.0591854
-1.9605118
-1.8571148
-1.7492434
-1.6371575
-1.5211271
-1.4014317
-1.2783596
-1.1522074
-1.0232789
-0.89188485
-0.75834176
-0.62297141
-0.48609998
-0.34805725
-0.20917585
-0.069790424
0.069763165
0.20914865
0.34803018
0.4860731
0.6229448
0.75831548
0.89185899
1.0232536
1.1521826
1.2783355
1.4014084
1.5211047
1.6371361
1.749223
1.8570955
1.9604938
2.0591687
2.1528826
2.2414097
2.324537
2.402064
2.4738043
2.5395849
2.5992475
2.6526483
2.6996588
2.7401659
2.7740718
2.8012951
2.8217701
2.8354476
2.8422946
2.8422946
2.8354476
2.8217701
2.8012951
2.7740718
2.7401659
2.6996588
2.6526483
2.5992475
2.5395849
2.4738043
2.402064
2.324537
2.2414097
2.1528826
2.0591687
1.9604938
1.8570955
1.749223
1.6371361
1.5211047
1.4014084
1.2783355
1.1521826
1.0232536
0.89185899
0.75831548
0.6229448
0.4860731
0.34803018
0.20914865
0.069763165
-0.069790424
-0.20917585
-0.34805725
-0.48609998
-0.62297141
-0.75834176
-0.89188485
-1.0232789
-1.1522074
-1.2783596
-1.4014317
-1.5211271
-1.6371575
-1.7492434
-1.8571148
-1.9605118
-2.0591854
-2.1528979
-2.2414237
-2.3245495
-2.4020751
-2.473814
-2.5395932
-2.5992544
-2.6526541
-2.6996635
-2.7401695
-2.7740746
-2.8012971
-2.8217716
-2.8354487
-2.8422955
-2.9063364
-2.8993354
-2.8853502
-2.8644146
-2.8365788
-2.8019099
-2.7604914
-2.712423
-2.6578204
-2.5968151
-2.529554
-2.456199
-2.3769267
-2.2919281
-2.2014078
-2.1055838
-2.004687
-1.8989603
-1.7886583
-1.6740468
-1.5554019
-1.4330093
-1.307164
-1.178169
-1.0463352
-0.91198027
-0.77542783
-0.63700694
-0.49705114
-0.35589766
-0.21388662
-0.071360225
0.071338094
0.21386448
0.3558755
0.49702896
0.63698475
0.77540564
0.9119581
1.0463131
1.178147
1.3071421
1.4329877
1.5553806
1.6740259
1.7886378
1.8989403
2.0046676
2.1055652
2.2013899
2.291911
2.3769105
2.4561837
2.5295396
2.5968017
2.6578079
2.7124114
2.7604806
2.8018998
2.8365693
2.8644057
2.8853417
2.8993272
2.9063284
2.9063284
2.8993272
2.8853417
2.8644057
2.8365693
2.8018998
2.7604806
2.7124114
2.6578079
2.5968017
2.5295396
2.4561837
2.3769105
2.291911
2.2013899
2.1055652
2.0046676
1.8989403
1.7886378
1.6740259
1.5553806
1.4329877
1.3071421
1.178147
1.0463131
0.9119581
0.77540564
0.63698475
0.49702896
0.3558755
0.21386448
0.071338094
-0.071360225
-0.21388662
-0.35589766
-0.49705114
-0.63700694
-0.77542783
-0.91198027
-1.0463352
-1.178169
-1.307164
-1.4330093
-1.5554019
-1.6740468
-1.7886583
-1.8989603
-2.004687
-2.1055838
-2.2014078
-2.2919281
-2.3769267
-2.456199
-2.529554
-2.5968151
-2.6578204
-2.712423
-2.7604914
-2.8019099
-2.8365788
-2.8644146
-2.8853502
-2.8993354
-2.9063364
-2.9773701
-2.970198
-2.9558711
-2.9344239
-2.905908
-2.870392
-2.8279614
-2.7787184
-2.7227815
-2.6602855
-2.5913806
-2.516233
-2.4350235
-2.3479476
-2.255215
-2.1570491
-2.0536863
-1.9453755
-1.8323776
-1.7149648
-1.5934199
-1.4680356
-1.3391142
-1.2069661
-1.0719097
-0.93427051
-0.79438009
-0.65257554
-0.50919854
-0.36459459
-0.21911213
-0.073101736
0.073084749
0.21909506
0.36457735
0.50918106
0.65255776
0.79436195
0.93425198
1.0718908
1.2069467
1.3390944
1.4680155
1.5933994
1.7149441
1.8323568
1.9453546
2.0536654
2.1570283
2.2551944
2.3479272
2.4350034
2.5162133
2.5913614
2.6602667
2.7227633
2.7787007
2.8279442
2.8703752
2.9058917
2.9344079
2.9558555
2.9701826
2.9773547
2.9773547
2.9701826
2.9558555
2.9344079
2.9058917
2.8703752
2.8279442
2.7787007
2.7227633
2.6602667
2.5913614
2.5162133
2.4350034
2.3479272
2.2551944
2.1570283
2.0536654
1.9453546
1.8323568
1.7149441
1.5933994
1.4680155
1.3390944
1.2069467
1.0718908
0.93425198
0.79436195
0.65255775
0.50918106
0.36457735
0.21909506
0.073084749
-0.073101736
-0.21911213
-0.36459459
-0.50919854
-0.65257554
-0.79438009
-0.93427051
-1.0719097
-1.2069661
-1.3391142
-1.4680356
-1.5934199
-1.7149648
-1.8323776
-1.9453755
-2.0536863
-2.1570491
-2.255215
-2.3479476
-2.4350235
-2.516233
-2.5913806
-2.6602855
-2.7227815
-2.7787184
-2.8279614
-2.870392
-2.905908
-2.9344239
-2.9558711
-2.970198
-2.9773701
-3.0555674
-3.048207
-3.0335039
-3.0114936
-2.9822289
-2.9457803
-2.9022357
-2.8516997
-2.794294
-2.7301569
-2.6594427
-2.5823217
-2.4989796
-2.409617
-2.3144491
-2.2137052
-2.1076277
-1.9964723
-1.8805066
-1.7600099
-1.6352725
-1.5065949
-1.3742871
-1.2386679
-1.1000639
-0.95880925
-0.81524419
-0.66971468
-0.52257141
-0.37416896
-0.22486493
-0.075019119
0.075007373
0.22485302
0.37415672
0.5225587
0.66970135
0.81523013
0.95879436
1.1000481
1.2386511
1.3742694
1.5065762
1.6352529
1.7599894
1.8804852
1.9964502
2.107605
2.2136819
2.3144255
2.409593
2.4989554
2.5822974
2.6594184
2.7301327
2.7942699
2.8516757
2.9022119
2.9457568
2.9822055
3.0114704
3.0334809
3.048184
3.0555445
3.0555445
3.048184
3.0334809
3.0114704
2.9822055
2.9457568
2.9022119
2.8516757
2.7942699
2.7301327
2.6594184
2.5822974
2.4989554
2.409593
2.3144255
2.2136819
2.107605
1.9964502
1.8804852
1.7599894
1.6352529
1.5065762
1.3742694
1.2386511
1.1000481
0.95879436
0.81523013
0.66970135
0.5225587
0.37415672
0.22485302
0.075007373
-0.075019119
-0.22486493
-0.37416896
-0.52257141
-0.66971468
-0.81524419
-0.95880925
-1.1000639
-1.2386679
-1.3742871
-1.5065949
-1.6352725
-1.7600099
-1.8805066
-1.9964723
-2.1076277
-2.2137052
-2.3144491
-2.409617
-2.4989796
-2.5823217
-2.6594427
-2.7301569
-2.794294
-2.8516997
-2.9022357
-2.9457803
-2.9822289
-3.0114936
-3.0335039
-3.048207
-3.0555674
-3.1411163
-3.1335499
-3.1184353
-3.0958089
-3.0657251
-3.0282564
-2.9834929
-2.9315424
-2.87253
-2.8065976
-2.7339039
-2.6546241
-2.568949
-2.4770847
-2.3792527
-2.2756883
-2.1666411
-2.0523736
-1.933161
-1.8092906
-1.6810606
-1.5487801
-1.4127676
-1.2733508
-1.1308657
-0.98565559
-0.83807035
-0.68846564
-0.53720195
-0.3846438
-0.23115884
-0.077116957
0.077110638
0.23115227
0.38463673
0.53719414
0.68845689
0.83806047
0.9856444
1.1308531
1.2733367
1.4127518
1.5487627
1.6810417
1.8092701
1.933139
2.0523502
2.1666164
2.2756624
2.3792258
2.4770569
2.5689204
2.6545949
2.7338743
2.8065675
2.8724997
2.931512
2.9834624
3.0282258
3.0656945
3.0957783
3.1184047
3.1335193
3.1410857
3.1410857
3.1335193
3.1184047
3.0957783
3.0656945
3.0282258
2.9834624
2.931512
2.8724997
2.8065675
2.7338743
2.6545949
2.5689204
2.4770569
2.3792258
2.2756624
2.1666164
2.0523502
1.933139
1.8092701
1.6810417
1.5487627
1.4127518
1.2733367
1.1308531
0.9856444
0.83806047
0.68845689
0.53719414
0.38463673
0.23115227
0.077110638
-0.077116957
-0.23115884
-0.3846438
-0.53720195
-0.68846564
-0.83807035
-0.98565559
-1.1308657
-1.2733508
-1.4127676
-1.5487801
-1.6810606
-1.8092906
-1.933161
-2.0523736
-2.1666411
-2.2756883
-2.3792527
-2.4770847
-2.568949
-2.6546241
-2.7339039
-2.8065976
-2.87253
-2.9315424
-2.9834929
-3.0282564
-3.0657251
-3.0958089
-3.1184353
-3.1335499
-3.1411163
-3.2342226
-3.226432
-3.2108695
-3.1875727
-3.1565975
-3.1180186
-3.0719287
-3.0184388
-2.9576776
-2.8897914
-2.8149435
-2.7333142
-2.6451
-2.5505132
-2.4497816
-2.3431478
-2.2308684
-2.113214
-1.9904678
-1.8629256
-1.7308945
-1.5946927
-1.4546481
-1.3110983
-1.1643892
-1.0148742
-0.86291356
-0.70887355
-0.55312536
-0.39604432
-0.238009
-0.079400265
0.079399653
0.23800805
0.39604268
0.5531227
0.70886959
0.86290802
1.0148668
1.1643799
1.3110869
1.4546344
1.5946766
1.7308762
1.862905
1.990445
2.113189
2.2308415
2.343119
2.4497512
2.5504813
2.6450668
2.7332799
2.8149082
2.8897553
2.9576408
3.0184015
3.071891
3.1179806
3.1565594
3.1875344
3.2108311
3.2263935
3.234184
3.234184
3.2263935
3.2108311
3.1875344
3.1565594
3.1179806
3.071891
3.0184015
2.9576408
2.8897553
2.8149082
2.7332799
2.6450668
2.5504813
2.4497512
2.343119
2.2308415
2.113189
1.990445
1.862905
1.7308762
1.5946766
1.4546344
1.3110869
1.1643799
1.0148668
0.86290802
0.70886959
0.5531227
0.39604268
0.23800805
0.079399653
-0.079400265
-0.238009
-0.39604432
-0.55312536
-0.70887355
-0.86291356
-1.0148742
-1.1643892
-1.3110983
-1.4546481
-1.5946927
-1.7308945
-1.8629256
-1.9904678
-2.113214
-2.2308684
-2.3431478
-2.4497816
-2.5505132
-2.6451
-2.7333142
-2.8149435
-2.8897914
-2.9576776
-3.0184388
-3.0719287
-3.1180186
-3.1565975
-3.1875727
-3.2108695
-3.226432
-3.2342226
-3.3351102
-3.3270767
-3.311029
-3.2870057
-3.2550647
-3.2152828
-3.1677557
-3.1125977
-3.0499418
-2.9799385
-2.9027565
-2.8185814
-2.727616
-2.6300792
-2.5262058
-2.416246
-2.3004644
-2.17914
-2.0525649
-1.9210441
-1.7848942
-1.6444433
-1.5000297
-1.3520015
-1.2007152
-1.0465354
-0.88983363
-0.73098756
-0.57037998
-0.40839796
-0.24543187
-0.081874497
0.081879983
0.24543691
0.4084021
0.57038281
0.73098868
0.8898327
1.0465321
1.2007093
1.3519927
1.500018
1.6444285
1.7848764
1.9210232
2.0525411
2.1791133
2.300435
2.416214
2.5261716
2.6300428
2.7275778
2.8185415
2.9027151
2.979896
3.0498982
3.1125533
3.1677106
3.2152371
3.2550186
3.2869594
3.3109824
3.32703
3.3350634
3.3350634
3.32703
3.3109824
3.2869594
3.2550186
3.2152371
3.1677106
3.1125533
3.0498982
2.979896
2.9027151
2.8185415
2.7275778
2.6300428
2.5261716
2.416214
2.300435
2.1791133
2.0525411
1.9210232
1.7848764
1.6444285
1.500018
1.3519927
1.2007093
1.0465321
0.8898327
0.73098868
0.57038281
0.4084021
0.24543691
0.081879983
-0.081874497
-0.24543187
-0.40839796
-0.57037998
-0.73098756
-0.88983363
-1.0465354
-1.2007152
-1.3520015
-1.5000297
-1.6444433
-1.7848942
-1.9210441
-2.0525649
-2.17914
-2.3004644
-2.416246
-2.5262058
-2.6300792
-2.727616
-2.8185814
-2.9027565
-2.9799385
-3.0499418
-3.1125977
-3.1677557
-3.2152828
-3.2550647
-3.2870057
-3.311029
-3.3270767
-3.3351102
-3.4440218
-3.435726
-3.4191545
-3.3943471
-3.3613634
-3.3202829
-3.2712043
-3.2142458
-3.1495444
-3.0772559
-2.9975541
-2.9106309
-2.8166955
-2.7159741
-2.6087091
-2.4951588
-2.3755966
-2.2503104
-2.1196019
-1.9837859
-1.8431896
-1.6981517
-1.5490217
-1.3961587
-1.2399311
-1.0807155
-0.91889542
-0.75486094
-0.58900736
-0.42173443
-0.25344529
-0.084545566
0.08455766
0.25345682
0.42174483
0.58901611
0.75486754
0.91889943
1.0807165
1.2399289
1.3961528
1.5490121
1.6981383
1.8431723
1.9837647
2.1195769
2.2502818
2.3755645
2.4951235
2.6086708
2.715933
2.8166519
2.9105851
2.9975063
3.0772065
3.1494937
3.2141939
3.2711514
3.3202292
3.3613092
3.3942924
3.4190995
3.4356708
3.4439664
3.4439664
3.4356708
3.4190995
3.3942924
3.3613092
3.3202292
3.2711514
3.2141939
3.1494937
3.0772065
2.9975063
2.9105851
2.8166519
2.715933
2.6086708
2.4951235
2.3755645
2.2502818
2.1195769
1.9837647
1.8431723
1.6981383
1.5490121
1.3961528
1.2399289
1.0807165
0.91889943
0.75486754
0.58901611
0.42174483
0.25345682
0.08455766
-0.084545566
-0.25344529
-0.42173443
-0.58900736
-0.75486094
-0.91889542
-1.0807155
-1.2399311
-1.3961587
-1.5490217
-1.6981517
-1.8431896
-1.9837859
-2.1196019
-2.2503104
-2.3755966
-2.4951588
-2.6087091
-2.7159741
-2.8166955
-2.9106309
-2.9975541
-3.0772559
-3.1495444
-3.2142458
-3.2712043
-3.3202829
-3.3613634
-3.3943471
-3.4191545
-3.435726
-3.4440218
-3.5612192
-3.5526413
-3.5355061
-3.5098549
-3.4757494
-3.4332715
-3.3825235
-3.3236275
-3.2567252
-3.1819776
-3.0995644
-3.0096841
-2.912553
-2.8084048
-2.6974903
-2.5800764
-2.4564459
-2.3268965
-2.1917401
-2.0513023
-1.9059214
-1.7559475
-1.6017419
-1.4436763
-1.2821315
-1.1174968
-0.95016892
-0.78055117
-0.60905235
-0.43608583
-0.26206852
-0.087419851
0.0874392
0.26208717
0.4361031
0.60906758
0.78056376
0.95017833
1.1175025
1.2821332
1.4436736
1.6017347
1.7559354
1.9059045
2.0512807
2.1917138
2.3268657
2.4564108
2.5800373
2.6974474
2.8083585
2.9125036
3.009632
3.0995099
3.181921
3.2566669
3.3235677
3.3824625
3.4332095
3.4756865
3.5097915
3.5354423
3.5525772
3.561155
3.561155
3.5525772
3.5354423
3.5097915
3.4756865
3.4332095
3.3824625
3.3235677
3.2566669
3.181921
3.0995099
3.009632
2.9125036
2.8083585
2.6974474
2.5800373
2.4564108
2.3268657
2.1917139
2.0512807
1.9059045
1.7559354
1.6017347
1.4436736
1.2821332
1.1175025
0.95017833
0.78056376
0.60906758
0.4361031
0.26208717
0.0874392
-0.087419851
-0.26206852
-0.43608583
-0.60905235
-0.78055117
-0.95016892
-1.1174968
-1.2821315
-1.4436763
-1.6017419
-1.7559475
-1.9059214
-2.0513023
-2.1917401
-2.3268965
-2.4564459
-2.5800764
-2.6974903
-2.8084048
-2.912553
-3.0096841
-3.0995644
-3.1819776
-3.2567252
-3.3236275
-3.3825235
-3.4332715
-3.4757494
-3.5098549
-3.5355061
-3.5526413
-3.5612192
-3.6869843
-3.6781036
-3.6603636
-3.633807
-3.5984976
-3.5545204
-3.501981
-3.441006
-3.371742
-3.2943556
-3.209033
-3.1159795
-3.0154191
-2.9075937
-2.7927629
-2.6712032
-2.5432071
-2.4090828
-2.2691535
-2.1237559
-1.9732405
-1.8179697
-1.6583176
-1.494669
-1.3274181
-1.156968
-0.98372949
-0.80812014
-0.63056322
-0.45148671
-0.27132228
-0.090504215
0.090531619
0.27134884
0.45151159
0.63058564
0.80813936
0.98374485
1.1569789
1.3274241
1.4946697
1.6583128
1.8179591
1.9732241
2.1237338
2.2691257
2.4090496
2.5431686
2.6711599
2.7927151
2.9075418
3.0153635
3.1159206
3.2089712
3.2942913
3.3716756
3.4409378
3.5019114
3.5544495
3.5984258
3.6337345
3.6602907
3.6780303
3.6869108
3.6869108
3.6780303
3.6602907
3.6337345
3.5984258
3.5544495
3.5019114
3.4409378
3.3716756
3.2942913
3.2089712
3.1159206
3.0153635
2.9075418
2.7927151
2.6711599
2.5431686
2.4090496
2.2691257
2.1237338
1.9732241
1.8179591
1.6583128
1.4946697
1.3274241
1.1569789
0.98374485
0.80813936
0.63058564
0.45151159
0.27134884
0.090531619
-0.090504215
-0.27132228
-0.45148671
-0.63056322
-0.80812014
-0.98372949
-1.156968
-1.3274181
-1.494669
-1.6583176
-1.8179697
-1.9732405
-2.1237559
-2.2691535
-2.4090828
-2.5432071
-2.6712032
-2.7927629
-2.9075937
-3.0154191
-3.1159795
-3.209033
-3.2943556
-3.371742
-3.441006
-3.501981
-3.5545204
-3.5984976
-3.633807
-3.6603636
-3.6781036
-3.6869843
-3.8216195
-3.8124147
-3.7940273
-3.7665014
-3.7299034
-3.6843211
-3.6298641
-3.5666636
-3.4948714
-3.4146603
-3.3262232
-3.2297729
-3.1255414
-3.0137796
-2.8947565
-2.7687585
-2.6360889
-2.4970673
-2.3520283
-2.2013213
-2.0453092
-1.8843679
-1.718885
-1.5492595
-1.3758999
-1.1992241
-1.019658
-0.83763428
-0.65359177
-0.46797413
-0.28122882
-0.093806017
0.093842455
0.28126424
0.46800754
0.65362223
0.83766089
1.01968
1.1992408
1.3759107
1.549264
1.7188829
1.8843589
2.0452933
2.2012985
2.3519988
2.4970314
2.6360469
2.7687106
2.8947033
3.0137216
3.125479
3.2297066
3.3261536
3.4145878
3.4947964
3.5665865
3.6297854
3.684241
3.7298222
3.7664195
3.7939447
3.8123318
3.8215364
3.8215364
3.8123318
3.7939447
3.7664195
3.7298222
3.684241
3.6297854
3.5665865
3.4947964
3.4145878
3.3261536
3.2297066
3.125479
3.0137216
2.8947033
2.7687106
2.6360469
2.4970314
2.3519988
2.2012985
2.0452933
1.8843589
1.7188829
1.549264
1.3759107
1.1992408
1.01968
0.83766089
0.65362223
0.46800754
0.28126424
0.093842455
-0.093806017
-0.28122882
-0.46797413
-0.65359177
-0.83763428
-1.019658
-1.1992241
-1.3758999
-1.5492595
-1.718885
-1.8843679
-2.0453092
-2.2013213
-2.3520283
-2.4970673
-2.6360889
-2.7687585
-2.8947565
-3.0137796
-3.1255414
-3.2297729
-3.3262232
-3.4146603
-3.4948714
-3.5666636
-3.6298641
-3.6843211
-3.7299034
-3.7665014
-3.7940273
-3.8124147
-3.8216195
-3.9654484
-3.9558974
-3.9368184
-3.9082573
-3.8702826
-3.8229858
-3.7664804
-3.7009025
-3.6264097
-3.5431811
-3.451417
-3.351338
-3.243185
-3.1272181
-3.0037164
-2.8729773
-2.7353153
-2.5910618
-2.4405644
-2.2841852
-2.1223011
-1.955302
-1.7835901
-1.6075794
-1.4276939
-1.2443671
-1.058041
-0.86916468
-0.67819348
-0.48558779
-0.29181195
-0.097333135
0.097379782
0.29185738
0.48563083
0.678233
0.86919963
1.0580705
1.2443903
1.42771
1.6075881
1.783591
1.9552947
2.1222857
2.2841617
2.440533
2.5910229
2.7352691
2.8729244
3.0036574
3.1271535
3.2431153
3.3512639
3.451339
3.5430998
3.6263256
3.7008161
3.7663921
3.8228959
3.8701916
3.9081654
3.9367259
3.9558045
3.9653553
3.9653553
3.9558045
3.9367259
3.9081654
3.8701916
3.8228959
3.7663921
3.7008161
3.6263256
3.5430998
3.451339
3.3512639
3.2431153
3.1271535
3.0036574
2.8729244
2.7352691
2.5910229
2.440533
2.2841617
2.1222857
1.9552947
1.783591
1.6075881
1.42771
1.2443903
1.0580705
0.86919963
0.678233
0.48563083
0.29185738
0.097379782
-0.097333135
-0.29181195
-0.48558779
-0.67819348
-0.86916468
-1.058041
-1.2443671
-1.4276939
-1.6075794
-1.7835901
-1.955302
-2.1223011
-2.2841852
-2.4405644
-2.5910618
-2.7353153
-2.8729773
-3.0037164
-3.1272181
-3.243185
-3.351338
-3.451417
-3.5431811
-3.6264097
-3.7009025
-3.7664804
-3.8229858
-3.8702826
-3.9082573
-3.9368184
-3.9558974
-3.9654484
-4.1188169
-4.1088968
-4.0890804
-4.0594153
-4.0199729
-3.9708479
-3.9121585
-3.8440457
-3.7666732
-3.6802273
-3.5849156
-3.4809675
-3.368633
-3.2481823
-3.1199052
-2.9841105
-2.841125
-2.6912929
-2.5349749
-2.3725475
-2.2044018
-2.030943
-1.8525889
-1.6697693
-1.4829248
-1.2925057
-1.098971
-0.90278734
-0.7044276
-0.50437007
-0.3030971
-0.10109398
0.10115224
0.30315392
0.50442406
0.70447741
0.90283174
1.0990089
1.2925362
1.482947
1.6697827
1.8525931
2.0309377
2.2043869
2.3725232
2.5349414
2.6912506
2.8410744
2.9840522
3.1198398