/*--------------------------------*- C++ -*----------------------------------*\
| =========                 |                                                 |
| \\      /  F ield         | OpenFOAM: The Open Source CFD Toolbox           |
|  \\    /   O peration     | Version:  2306                                  |
|   \\  /    A nd           | Website:  www.openfoam.com                      |
|    \\/     M anipulation  |                                                 |
\*---------------------------------------------------------------------------*/
FoamFile
{
    version     2.0;
    format      ascii;
    arch        "LSB;label=32;scalar=64";
    class       volVectorField;
    location    "0.53";
    object      U_0;
}
// * * * * * * * * * * * * * * * * * * * * * * * * * * * * * * * * * * * * * //

dimensions      [0 1 -1 0 0 0 0];

internalField   nonuniform List<vector> 
6400
(
(-0.0064275252 -0.022396412 -2.6347825e-18)
(-0.0041093889 -0.020793815 -1.8237682e-18)
(-0.002177361 -0.019061448 -1.4769933e-18)
(-0.00061816331 -0.017259257 -1.9972671e-18)
(0.0005826427 -0.015441655 -2.639289e-18)
(0.001451651 -0.013658317 2.7473901e-18)
(0.0020248253 -0.01195123 -5.5138138e-19)
(0.0023358229 -0.010354155 6.9597301e-19)
(0.0024242694 -0.0088955518 6.8524275e-19)
(0.0023302525 -0.0075951522 2.9108472e-19)
(0.0020943744 -0.0064647361 4.4998508e-19)
(0.0017561239 -0.0055091599 7.4301215e-19)
(0.0013523385 -0.0047264246 5.463261e-19)
(0.00091653734 -0.0041082548 -1.1596337e-19)
(0.00047770244 -0.0036420368 2.554917e-19)
(5.9335549e-05 -0.003309812 1.1102363e-19)
(-0.00031892872 -0.0030927075 -1.4775721e-20)
(-0.00064345537 -0.0029698843 -1.9962967e-19)
(-0.00090702847 -0.0029197447 -1.4945066e-19)
(-0.0011064731 -0.0029216882 -9.520472e-20)
(-0.0012428523 -0.0029568696 -2.2266508e-19)
(-0.0013206902 -0.0030088923 -2.1989566e-19)
(-0.0013470358 -0.0030642514 -1.9185877e-19)
(-0.0013305561 -0.0031125273 -1.3301291e-19)
(-0.0012807138 -0.0031463727 -7.0062941e-20)
(-0.0012070615 -0.0031613631 -6.8500639e-20)
(-0.0011186185 -0.0031556811 -9.2912822e-20)
(-0.0010233564 -0.0031296713 4.344295e-21)
(-0.00092785767 -0.0030853238 -4.150606e-20)
(-0.00083714911 -0.0030257346 -9.3226772e-20)
(-0.00075470408 -0.0029546024 -5.4998572e-20)
(-0.00068257582 -0.0028758282 5.5441405e-21)
(-0.00062156651 -0.0027931599 -8.4736772e-20)
(-0.00057143476 -0.0027099038 -6.6674876e-20)
(-0.0005311664 -0.0026287469 1.421272e-20)
(-0.00049925464 -0.002551669 -7.2743971e-21)
(-0.00047395898 -0.0024799365 3.5563159e-21)
(-0.00045352454 -0.002414163 -3.5015855e-20)
(-0.00043634944 -0.0023544223 -7.6804817e-20)
(-0.00042109125 -0.0023003886 -3.2036426e-20)
(-0.00040671542 -0.0022514759 5.98662e-22)
(-0.00039249934 -0.002206961 6.4705514e-21)
(-0.00037800654 -0.0021660847 -3.5350244e-20)
(-0.00036304281 -0.0021281331 -3.2545258e-20)
(-0.00034759917 -0.0020924929 -2.03119e-21)
(-0.00033178982 -0.0020586779 4.488945e-20)
(-0.00031579536 -0.0020263338 5.1630406e-20)
(-0.00029981682 -0.0019952272 3.1423499e-20)
(-0.0002840424 -0.0019652239 -3.5547757e-21)
(-0.00026862693 -0.0019362637 3.7206713e-20)
(-0.00025368238 -0.0019083343 4.3080997e-20)
(-0.00023927721 -0.0018814497 1.6213639e-20)
(-0.00022544149 -0.0018556322 -6.7966192e-21)
(-0.00021217545 -0.0018309008 -2.0271945e-20)
(-0.00019945909 -0.0018072642 -3.5153175e-20)
(-0.00018726133 -0.0017847184 -1.4465321e-20)
(-0.0001755474 -0.0017632475 -2.8919861e-20)
(-0.00016428407 -0.0017428267 -1.963975e-20)
(-0.00015344282 -0.0017234253 -1.9495528e-20)
(-0.00014300117 -0.0017050103 -1.6483398e-20)
(-0.00013294261 -0.0016875496 2.4053479e-21)
(-0.00012325569 -0.0016710139 -4.5443144e-21)
(-0.00011393264 -0.0016553782 -4.0416673e-21)
(-0.00010496797 -0.0016406223 -8.3834767e-21)
(-9.6357083e-05 -0.0016267309 -2.08851e-20)
(-8.809527e-05 -0.0016136933 -6.3801712e-22)
(-8.0176871e-05 -0.0016015028 -4.4754993e-21)
(-7.2594746e-05 -0.0015901562 -2.1927771e-20)
(-6.5339938e-05 -0.001579653 -9.9887673e-21)
(-5.8401457e-05 -0.0015699951 1.1214686e-20)
(-5.1766137e-05 -0.001561186 4.9384848e-21)
(-4.5418552e-05 -0.0015532301 -4.9433954e-21)
(-3.9340932e-05 -0.001546132 9.5847341e-21)
(-3.3513122e-05 -0.0015398949 1.9652333e-20)
(-2.7912644e-05 -0.0015345192 2.3803625e-20)
(-2.2515013e-05 -0.0015300003 2.2875647e-20)
(-1.7293799e-05 -0.0015263261 3.4992222e-22)
(-1.2218221e-05 -0.0015234759 8.4970655e-21)
(-7.2544664e-06 -0.0015214239 2.5411396e-20)
(-2.3911238e-06 -0.0015201832 3.6330829e-20)
(-0.0047401929 -0.024938993 -6.0440592e-18)
(-0.0022594567 -0.022947025 -4.0629203e-18)
(-0.0002306371 -0.020828468 -1.776109e-18)
(0.0013612828 -0.018652419 -7.8148492e-19)
(0.0025416764 -0.016483622 -1.5945832e-18)
(0.0033435897 -0.014373631 2.5567326e-18)
(0.0038068466 -0.012373415 -4.9958398e-19)
(0.0039752593 -0.010521831 -5.660017e-19)
(0.0038963371 -0.0088496138 7.961872e-19)
(0.0036188329 -0.007377887 7.1270767e-19)
(0.0031914956 -0.0061184828 8.9057876e-19)
(0.0026614337 -0.0050745301 2.0486157e-19)
(0.0020724835 -0.0042410901 5.8827944e-19)
(0.0014640305 -0.0036059593 3.3005031e-19)
(0.0008699046 -0.0031513174 3.2726883e-19)
(0.00031747448 -0.0028545862 1.9282241e-19)
(-0.00017221408 -0.0026899311 1.6837617e-19)
(-0.00058474396 -0.0026310917 -2.6074265e-20)
(-0.00091274864 -0.0026510381 -1.9341753e-19)
(-0.0011548168 -0.0027241487 -1.0715149e-19)
(-0.0013144835 -0.0028273508 -1.7394885e-19)
(-0.0013993528 -0.0029409366 -1.8231974e-19)
(-0.0014198825 -0.0030490602 -2.1929622e-19)
(-0.0013882196 -0.0031399017 -1.8874238e-19)
(-0.0013171946 -0.0032055967 -9.7101463e-20)
(-0.0012194437 -0.0032420019 -1.4019715e-19)
(-0.001106618 -0.0032482107 -1.9195398e-19)
(-0.00098876395 -0.0032259423 -3.5904914e-20)
(-0.00087393055 -0.0031788354 -3.9015934e-20)
(-0.00076801902 -0.0031117257 -6.0011834e-20)
(-0.00067487528 -0.0030300113 -1.0885846e-19)
(-0.00059650249 -0.0029391643 -5.6473684e-20)
(-0.00053329279 -0.0028442443 1.5518218e-20)
(-0.00048434601 -0.0027495699 -5.4584558e-21)
(-0.00044785317 -0.002658528 -2.604154e-20)
(-0.00042147245 -0.0025734931 -7.4760324e-20)
(-0.00040267202 -0.0024958494 1.120858e-20)
(-0.00038901681 -0.0024261049 1.2420163e-20)
(-0.00037838009 -0.0023640723 -4.5732836e-20)
(-0.00036906128 -0.0023090824 -2.8587139e-20)
(-0.00035982042 -0.0022601801 -3.1028582e-20)
(-0.00034985677 -0.0022162851 -2.9817478e-20)
(-0.00033875882 -0.0021763243 -3.2317965e-20)
(-0.00032643314 -0.002139338 -2.0815773e-20)
(-0.00031301418 -0.0021045414 -1.7786468e-20)
(-0.0002987733 -0.0020713477 -1.1870932e-20)
(-0.00028404035 -0.0020393631 7.8722493e-22)
(-0.00026914328 -0.0020083603 -1.2469346e-20)
(-0.00025436763 -0.0019782413 2.9841281e-21)
(-0.00023993455 -0.0019489977 5.7106604e-21)
(-0.00022599414 -0.0019206732 -1.0690065e-20)
(-0.00021263003 -0.0018933331 -1.5612602e-20)
(-0.00019987092 -0.0018670415 -2.4171947e-20)
(-0.00018770551 -0.0018418468 -2.5668307e-20)
(-0.00017609795 -0.001817775 -2.6346837e-20)
(-0.00016500124 -0.0017948295 -3.091399e-20)
(-0.00015436745 -0.0017729944 -2.2377221e-20)
(-0.00014415427 -0.0017522397 -3.8863014e-20)
(-0.00013432849 -0.0017325275 -1.3038385e-20)
(-0.00012486682 -0.0017138173 5.1353155e-21)
(-0.00011575497 -0.0016960702 -8.9699999e-21)
(-0.00010698568 -0.0016792518 -2.9194796e-20)
(-9.8556457e-05 -0.0016633338 -3.4337001e-20)
(-9.0467326e-05 -0.0016482946 -4.5323802e-20)
(-8.2718979e-05 -0.0016341188 -3.8617494e-20)
(-7.5311419e-05 -0.0016207964 -2.5004776e-20)
(-6.8243031e-05 -0.0016083227 -1.7723583e-20)
(-6.1510033e-05 -0.0015966963 -1.9951641e-20)
(-5.5106197e-05 -0.0015859193 -4.7014713e-21)
(-4.9022719e-05 -0.001575996 3.0432452e-21)
(-4.3248154e-05 -0.0015669324 -1.025779e-20)
(-3.7768363e-05 -0.0015587356 -1.4746685e-20)
(-3.2566439e-05 -0.001551413 -4.9111812e-21)
(-2.7622631e-05 -0.0015449705 3.7926907e-21)
(-2.2914361e-05 -0.0015394112 1.1787708e-20)
(-1.841649e-05 -0.0015347331 1.4300722e-20)
(-1.4101375e-05 -0.0015309261 1.8676583e-20)
(-9.9368864e-06 -0.0015279712 1.7367496e-20)
(-5.8878048e-06 -0.0015258432 2.9930019e-20)
(-1.9379774e-06 -0.0015245564 4.1917181e-20)
(-0.0026341766 -0.027705282 -3.8965796e-18)
(9.600541e-06 -0.025254482 -4.4432839e-18)
(0.0021239761 -0.022684093 -1.7262811e-18)
(0.0037325927 -0.020072193 6.7151503e-19)
(0.0048663023 -0.017491794 -9.2688498e-19)
(0.0055658848 -0.015006782 3.6217975e-19)
(0.005879811 -0.012672706 -2.9412466e-18)
(0.0058619989 -0.010534104 -6.4806575e-19)
(0.005569965 -0.0086247576 2.0038857e-18)
(0.0050626427 -0.0069672168 4.0829574e-19)
(0.0043985936 -0.005572922 -4.6083183e-19)
(0.0036340886 -0.0044427586 -2.7129351e-19)
(0.0028212986 -0.0035679826 1.8392803e-19)
(0.0020066111 -0.0029311496 -1.2474772e-19)
(0.0012293617 -0.0025081486 -1.0595687e-19)
(0.0005210463 -0.00226963 -1.723992e-19)
(-9.5055433e-05 -0.0021826619 -1.7832477e-19)
(-0.00060408568 -0.0022131425 -1.1744045e-19)
(-0.00099952198 -0.0023275296 -6.7782574e-20)
(-0.001282131 -0.0024940869 -1.9088625e-19)
(-0.0014589022 -0.0026846488 -1.8169897e-19)
(-0.0015415957 -0.0028756303 -9.5953561e-20)
(-0.0015451533 -0.0030485623 -1.2946079e-19)
(-0.0014862255 -0.0031901989 -1.1448744e-19)
(-0.0013819499 -0.0032923927 1.6277197e-20)
(-0.0012488326 -0.0033517013 4.6303994e-20)
(-0.0011017524 -0.0033686848 -7.9822612e-20)
(-0.00095322385 -0.0033470754 -6.7011777e-21)
(-0.00081294069 -0.0032928137 -9.6590033e-21)
(-0.00068768579 -0.0032130824 -8.3968846e-21)
(-0.00058156445 -0.0031155476 4.4355484e-21)
(-0.00049628685 -0.0030077171 -2.7639879e-20)
(-0.00043150062 -0.0028962867 2.5873159e-20)
(-0.00038529126 -0.0027867902 6.7686687e-20)
(-0.00035470013 -0.0026834109 5.0908538e-20)
(-0.00033621766 -0.0025889101 -3.146503e-20)
(-0.00032623808 -0.0025046916 -1.5259584e-20)
(-0.00032143576 -0.0024310031 2.8877448e-20)
(-0.00031903204 -0.0023672077 4.6763606e-21)
(-0.00031691777 -0.0023121089 -1.3706178e-20)
(-0.00031364869 -0.0022642184 -2.5929782e-20)
(-0.00030838521 -0.0022219555 -4.4167386e-20)
(-0.00030081203 -0.0021838302 6.582955e-22)
(-0.00029102322 -0.0021485728 1.0015553e-20)
(-0.00027938312 -0.0021151982 3.5558196e-21)
(-0.00026639698 -0.00208302 1.9072273e-23)
(-0.00025260458 -0.0020516259 -1.062832e-20)
(-0.00023850285 -0.0020208285 -4.2580811e-20)
(-0.00022449867 -0.0019906038 -3.4866165e-20)
(-0.00021088832 -0.0019610313 2.0222299e-21)
(-0.0001978575 -0.0019322414 -9.1785427e-21)
(-0.00018549493 -0.0019043743 -1.3859587e-20)
(-0.0001738137 -0.0018775508 -1.0705922e-20)
(-0.00016277607 -0.0018518558 -2.5350311e-20)
(-0.00015231708 -0.0018273343 -2.9555319e-20)
(-0.00014236358 -0.001803994 -2.2708447e-20)
(-0.0001328476 -0.0017818138 -6.1734734e-21)
(-0.00012371405 -0.0017607531 -4.2634851e-21)
(-0.00011492384 -0.0017407616 -1.2446494e-20)
(-0.00010645355 -0.0017217867 -4.2649486e-21)
(-9.8292839e-05 -0.0017037798 -1.2718414e-21)
(-9.0440892e-05 -0.0016866999 -1.2276144e-20)
(-8.2902623e-05 -0.0016705146 -3.8161845e-20)
(-7.5685423e-05 -0.001655201 -5.2647178e-20)
(-6.8796665e-05 -0.0016407441 -4.2805496e-20)
(-6.2242037e-05 -0.0016271358 -3.6333647e-20)
(-5.6024554e-05 -0.0016143738 -3.0203707e-20)
(-5.0144104e-05 -0.0016024596 -7.734495e-21)
(-4.4597346e-05 -0.0015913982 -7.0700982e-21)
(-3.9377759e-05 -0.0015811969 4.5146815e-22)
(-3.4475696e-05 -0.0015718649 -8.5024168e-21)
(-2.9878381e-05 -0.0015634123 -5.6919337e-21)
(-2.5569865e-05 -0.0015558495 3.231102e-21)
(-2.1530878e-05 -0.0015491859 -4.5825047e-22)
(-1.7738768e-05 -0.0015434277 8.618332e-21)
(-1.4167661e-05 -0.0015385759 7.4983637e-21)
(-1.0788494e-05 -0.0015346234 1.7031994e-20)
(-7.5674564e-06 -0.0015315532 2.0729197e-20)
(-4.4674275e-06 -0.0015293412 2.0976159e-20)
(-1.4668245e-06 -0.0015280034 3.5236844e-20)
(-3.3841677e-05 -0.03070866 -2.4119666e-18)
(0.0027703884 -0.02771809 -2.3442658e-18)
(0.0049592977 -0.024615671 -4.9337983e-18)
(0.0065600392 -0.02149434 -1.3883372e-18)
(0.007612285 -0.018438329 -2.4856155e-18)
(0.0081667437 -0.015521588 -7.5758747e-20)
(0.0082825932 -0.012807007 2.0493742e-18)
(0.0080253927 -0.010345008 1.9669867e-18)
(0.0074646797 -0.0081729686 1.8420629e-19)
(0.0066715561 -0.0063149004 1.2117338e-18)
(0.0057164465 -0.0047814665 6.5388404e-19)
(0.0046666363 -0.0035705535 1.6349077e-18)
(0.0035842128 -0.0026684458 1.7534767e-18)
(0.0025239016 -0.0020508438 3.4397031e-19)
(0.00153147 -0.0016858087 3.561704e-19)
(0.00064308508 -0.0015357148 2.7716053e-19)
(-0.00011548515 -0.0015581757 1.6292825e-20)
(-0.00072920855 -0.0017097676 2.8371839e-20)
(-0.0011931569 -0.0019488489 4.1787322e-19)
(-0.0015112712 -0.0022361572 -2.3753268e-20)
(-0.0016952457 -0.0025373669 -2.2680706e-19)
(-0.0017623935 -0.0028243568 -2.4325453e-19)
(-0.0017335186 -0.0030757426 -2.3347783e-19)
(-0.0016310904 -0.0032769 -1.5822854e-19)
(-0.0014777403 -0.0034197784 -3.5953268e-20)
(-0.0012948062 -0.0035022428 1.1827242e-20)
(-0.0011011085 -0.0035270909 3.5782073e-20)
(-0.00091207142 -0.0035009292 -8.7055075e-20)
(-0.0007391889 -0.0034328644 -9.975356e-20)
(-0.0005900799 -0.003333221 -8.9114673e-20)
(-0.00046891041 -0.0032126586 -3.4605212e-20)
(-0.00037670912 -0.0030813182 9.9824246e-20)
(-0.00031189254 -0.0029478976 3.5980075e-20)
(-0.00027104658 -0.0028193581 2.6075047e-21)
(-0.0002495885 -0.002700766 6.0333152e-20)
(-0.00024239971 -0.0025952128 3.912149e-20)
(-0.00024443771 -0.0025039445 -1.7553058e-20)
(-0.00025122623 -0.0024267179 -2.124803e-20)
(-0.00025919413 -0.0023621698 -1.7908666e-21)
(-0.0002657915 -0.0023083227 5.0797112e-21)
(-0.00026939621 -0.0022629274 2.0933264e-20)
(-0.00026920723 -0.0022237164 3.5500168e-20)
(-0.00026512448 -0.0021886577 3.5192847e-20)
(-0.00025755959 -0.0021561008 -6.1027673e-21)
(-0.00024723043 -0.0021248381 4.5744082e-21)
(-0.00023498132 -0.0020940999 3.0020077e-20)
(-0.00022164085 -0.002063499 8.0442356e-21)
(-0.00020792489 -0.0020329434 -2.19779e-20)
(-0.00019438576 -0.0020025404 -7.7406268e-20)
(-0.00018139874 -0.0019725093 -2.1443664e-20)
(-0.00016917448 -0.0019431101 -3.0748565e-21)
(-0.00015778678 -0.0019145877 -4.4596875e-21)
(-0.00014720916 -0.0018871365 -9.3731493e-21)
(-0.0001373545 -0.001860884 -1.3743282e-20)
(-0.0001281098 -0.0018358918 4.6828801e-21)
(-0.00011936213 -0.0018121651 5.9742801e-21)
(-0.00011101524 -0.0017896686 2.7373915e-21)
(-0.00010299759 -0.0017683419 1.8563714e-20)
(-9.5264109e-05 -0.001748114 -8.9618845e-22)
(-8.7793419e-05 -0.0017289146 -8.874079e-21)
(-8.0582553e-05 -0.0017106816 -3.3493578e-21)
(-7.3640723e-05 -0.0016933652 2.1094809e-21)
(-6.6983496e-05 -0.0016769292 -2.1855812e-20)
(-6.0628151e-05 -0.0016613498 -3.3389046e-20)
(-5.4590474e-05 -0.0016466136 -3.4669067e-20)
(-4.8882891e-05 -0.0016327158 -2.6789961e-20)
(-4.3513581e-05 -0.0016196575 -1.2876207e-20)
(-3.8486255e-05 -0.0016074444 -1.3163277e-20)
(-3.3800443e-05 -0.001596085 -8.3307849e-21)
(-2.9451889e-05 -0.0015855902 9.7608256e-21)
(-2.543276e-05 -0.0015759726 6.4813249e-21)
(-2.1731714e-05 -0.0015672459 1.9280958e-20)
(-1.83339e-05 -0.0015594239 1.8187126e-20)
(-1.5220696e-05 -0.0015525197 1.0002428e-20)
(-1.2369478e-05 -0.0015465437 1.4479402e-20)
(-9.7536373e-06 -0.0015415005 1.5194704e-20)
(-7.3425094e-06 -0.0015373865 1.3355442e-20)
(-5.1002445e-06 -0.0015341876 1.1262223e-20)
(-2.9872263e-06 -0.0015318816 1.5557628e-20)
(-9.7557479e-07 -0.0015304866 2.0207044e-20)
(0.0031501304 -0.033961558 2.1127254e-19)
(0.0061124057 -0.030332434 7.7069187e-20)
(0.0083561373 -0.026606887 -5.2655685e-18)
(0.0099167684 -0.022892361 -1.5931281e-18)
(0.010844377 -0.019285849 -4.2510083e-18)
(0.011201181 -0.015872558 -2.7994581e-18)
(0.011059215 -0.012724303 -8.0295402e-19)
(0.010497915 -0.0098981787 -2.3901974e-18)
(0.0096012259 -0.0074356716 -3.4872294e-18)
(0.0084547407 -0.0053622651 -1.3290183e-18)
(0.0071431036 -0.0036875179 -2.7409739e-18)
(0.0057470087 -0.0024056028 -1.544313e-18)
(0.0043407296 -0.0014976343 6.2227022e-19)
(0.0029888549 -0.00092952967 -1.2771951e-18)
(0.001744108 -0.0006585064 -1.3387281e-18)
(0.00064843167 -0.00063415142 -7.977953e-19)
(-0.00026910082 -0.00080422455 -4.9419966e-19)
(-0.00099446807 -0.0011158878 8.0301989e-20)
(-0.0015254133 -0.0015171628 1.634498e-19)
(-0.0018699674 -0.0019586119 5.0455068e-20)
(-0.0020462577 -0.0023984187 1.5993276e-19)
(-0.0020790033 -0.0028031655 4.7510503e-20)
(-0.0019966504 -0.0031482605 1.1462104e-19)
(-0.0018291805 -0.0034178755 2.8669081e-19)
(-0.0016062165 -0.0036046283 5.211647e-19)
(-0.001355108 -0.0037085601 3.5488977e-19)
(-0.0010994621 -0.0037357652 1.7972357e-19)
(-0.00085809854 -0.003696877 3.3533551e-20)
(-0.00064443359 -0.003605313 2.215047e-20)
(-0.00046677999 -0.003475587 7.4822398e-20)
(-0.00032904264 -0.0033222137 7.4936564e-20)
(-0.0002309809 -0.0031588448 9.9123114e-20)
(-0.00016906683 -0.0029965087 -3.7079528e-20)
(-0.00013774522 -0.0028438312 -2.3337383e-20)
(-0.00013018281 -0.0027067816 -4.4392078e-20)
(-0.00013905574 -0.0025886567 -2.655754e-20)
(-0.00015742746 -0.0024902436 -6.1119555e-20)
(-0.00017936326 -0.0024104979 -6.985859e-20)
(-0.00020035068 -0.0023469315 1.8356128e-21)
(-0.00021739672 -0.0022964318 1.9189767e-21)
(-0.00022877046 -0.002255673 3.2132329e-20)
(-0.00023385097 -0.0022214687 4.2782107e-20)
(-0.00023293979 -0.0021910949 2.9152841e-20)
(-0.00022695612 -0.0021624472 6.4852497e-21)
(-0.0002171452 -0.0021340884 1.4556101e-20)
(-0.00020483236 -0.0021052101 8.3439398e-21)
(-0.00019123477 -0.0020755265 -9.1605822e-21)
(-0.00017734344 -0.0020451292 6.3158827e-21)
(-0.00016387631 -0.002014341 -1.8040656e-20)
(-0.00015128184 -0.0019835954 -1.6874509e-20)
(-0.00013977105 -0.0019533394 -1.9818692e-20)
(-0.00012936688 -0.0019239589 -7.7801954e-21)
(-0.00011996515 -0.0018957389 -1.2718775e-20)
(-0.00011139547 -0.001868852 -2.6317454e-21)
(-0.00010347055 -0.0018433678 1.9790298e-20)
(-9.6020477e-05 -0.0018192754 2.1280916e-20)
(-8.8911698e-05 -0.0017965097 2.5629944e-20)
(-8.2053665e-05 -0.0017749766 2.0299303e-20)
(-7.5397292e-05 -0.0017545732 1.2103646e-20)
(-6.892813e-05 -0.001735203 4.6759813e-21)
(-6.2656554e-05 -0.0017167862 -1.0493914e-20)
(-5.660751e-05 -0.0016992632 -1.2121184e-21)
(-5.081184e-05 -0.0016825941 -6.3772021e-21)
(-4.5300001e-05 -0.001666756 -1.1472842e-20)
(-4.0098211e-05 -0.0016517396 -1.2658093e-20)
(-3.5226649e-05 -0.0016375449 -1.0473253e-20)
(-3.0698941e-05 -0.0016241786 7.5515059e-21)
(-2.652243e-05 -0.0016116517 -8.7915937e-21)
(-2.269919e-05 -0.0015999771 4.3678132e-21)
(-1.9227046e-05 -0.0015891696 8.3495771e-21)
(-1.6099891e-05 -0.0015792458 1.1278594e-20)
(-1.3307865e-05 -0.0015702228 1.9757575e-20)
(-1.0837479e-05 -0.0015621186 1.9395505e-20)
(-8.6710566e-06 -0.0015549505 2.3779487e-20)
(-6.7862626e-06 -0.0015487333 1.0942703e-20)
(-5.1558981e-06 -0.0015434766 9.9595271e-21)
(-3.7475613e-06 -0.0015391812 1.3284568e-20)
(-2.5230278e-06 -0.0015358367 4.0605719e-21)
(-1.4394628e-06 -0.0015334238 1.7108632e-21)
(-4.6157071e-07 -0.0015319636 -6.0572129e-22)
(0.00702543 -0.037471037 -4.0826364e-18)
(0.010136039 -0.033091088 -5.1761548e-18)
(0.012408337 -0.028636528 -7.4433921e-19)
(0.013888147 -0.02423133 2.3751986e-18)
(0.014637455 -0.019987548 -3.0940821e-18)
(0.014732181 -0.016003267 -1.2574356e-18)
(0.014259601 -0.012360746 -1.3283184e-18)
(0.013315595 -0.0091248931 -1.0751737e-18)
(0.012001377 -0.0063421514 -4.7872374e-19)
(0.010419934 -0.0040398829 1.1160267e-18)
(0.0086727601 -0.0022268624 -6.834959e-19)
(0.0068556945 -0.00089034527 5.0895268e-19)
(0.0050592771 -3.333399e-07 2.5646608e-18)
(0.0033620105 0.00048379062 -3.305321e-19)
(0.0018259826 0.00061715846 -2.9381389e-20)
(0.00049672291 0.00046417989 -1.78106e-19)
(-0.00059747294 9.2275183e-05 3.0732495e-19)
(-0.0014420088 -0.00043009671 2.3012508e-19)
(-0.0020354197 -0.0010385395 -2.6547678e-19)
(-0.0023918037 -0.001674675 9.1767856e-20)
(-0.0025388562 -0.0022864758 -2.8196281e-20)
(-0.0025111327 -0.0028342267 -1.3175483e-19)
(-0.0023470304 -0.0032898201 -1.5795246e-19)
(-0.0020862188 -0.0036365769 6.3367913e-20)
(-0.0017671933 -0.0038686286 1.8074565e-19)
(-0.0014247741 -0.0039894199 1.0199521e-19)
(-0.0010883463 -0.0040097935 -1.5467472e-19)
(-0.00078063646 -0.0039459241 1.2262273e-20)
(-0.00051704074 -0.0038170328 8.4047858e-20)
(-0.00030624584 -0.0036433211 -2.7770327e-20)
(-0.00015152427 -0.0034439381 1.0878338e-20)
(-5.0446146e-05 -0.0032375614 2.4787147e-20)
(3.5895461e-06 -0.0030377228 6.9848385e-20)
(1.9078683e-05 -0.0028550311 6.4448917e-20)
(5.9334622e-06 -0.0026962053 1.4442011e-20)
(-2.5549335e-05 -0.0025643078 -7.3437486e-21)
(-6.5985054e-05 -0.002459256 -6.980255e-21)
(-0.00010762992 -0.0023788705 1.5614497e-20)
(-0.00014485033 -0.0023190817 4.6768245e-20)
(-0.00017425743 -0.0022750519 2.4355201e-20)
(-0.00019415986 -0.0022419572 2.1792028e-20)
(-0.00020436001 -0.0022154042 2.7885061e-20)
(-0.00020583957 -0.0021918029 1.4171352e-20)
(-0.00020029783 -0.0021685271 2.2754244e-20)
(-0.00018974857 -0.0021439336 2.8502779e-21)
(-0.00017618677 -0.002117265 1.5037106e-20)
(-0.00016134059 -0.0020884636 8.2587143e-21)
(-0.00014653375 -0.0020579392 -7.4423297e-21)
(-0.00013266016 -0.0020263508 6.3373861e-21)
(-0.00012021839 -0.0019944531 -2.3572771e-20)
(-0.00010937102 -0.0019629522 -2.5265347e-20)
(-0.00010003026 -0.0019324169 -1.7327666e-20)
(-9.1956193e-05 -0.0019032376 -1.8954545e-20)
(-8.4846488e-05 -0.0018756261 -6.2292242e-22)
(-7.8404518e-05 -0.0018496409 2.4246571e-21)
(-7.23829e-05 -0.0018252298 8.2530725e-21)
(-6.660251e-05 -0.0018022742 -1.0108818e-20)
(-6.0953863e-05 -0.0017806258 6.6358008e-21)
(-5.5389781e-05 -0.0017601331 -1.3472466e-21)
(-4.9912124e-05 -0.0017406641 6.9970363e-21)
(-4.4554529e-05 -0.0017221167 5.0488576e-21)
(-3.9366219e-05 -0.0017044211 1.3759063e-20)
(-3.4399685e-05 -0.001687536 2.0846692e-20)
(-2.9702596e-05 -0.0016714432 2.0161339e-20)
(-2.5313687e-05 -0.0016561405 1.0042392e-20)
(-2.1261608e-05 -0.0016416363 1.492418e-20)
(-1.7565184e-05 -0.0016279451 3.9841291e-21)
(-1.4234561e-05 -0.001615085 7.6336541e-21)
(-1.1273435e-05 -0.0016030739 1.5573374e-20)
(-8.6813587e-06 -0.0015919305 5.7023496e-21)
(-6.4537936e-06 -0.0015816759 1.0789535e-20)
(-4.5822902e-06 -0.0015723307 1.3463641e-20)
(-3.055202e-06 -0.0015639168 2.3580224e-20)
(-1.8563594e-06 -0.0015564564 1.9556865e-20)
(-9.6420179e-07 -0.0015499695 1.0888668e-20)
(-3.5138411e-07 -0.0015444717 2.2629668e-21)
(1.6331423e-08 -0.0015399698 -5.3153443e-21)
(1.7972028e-07 -0.0015364584 -2.3576674e-21)
(1.85695e-07 -0.0015339222 -1.1748456e-20)
(7.8573637e-08 -0.0015323864 -3.2250174e-20)
(0.011715834 -0.041244292 7.4835863e-18)
(0.014958805 -0.035982582 -5.3924413e-19)
(0.017225425 -0.030675596 5.2030599e-18)
(0.018573104 -0.025466737 -3.1109481e-18)
(0.019077846 -0.020485423 -7.9226473e-18)
(0.018831715 -0.015844717 3.7542921e-19)
(0.017939915 -0.011639152 -4.1486238e-18)
(0.016517562 -0.0079428442 -6.0294411e-18)
(0.014686081 -0.0048080286 -2.4814452e-18)
(0.012569033 -0.0022638019 -6.6850991e-19)
(0.010291398 -0.0003124766 -9.1124348e-19)
(0.0079716167 0.0010614198 -1.7720958e-18)
(0.0057127527 0.0018970739 3.2181695e-19)
(0.0036047712 0.0022490134 -8.6050102e-20)
(0.0017234196 0.0021874393 3.5935102e-19)
(0.00012284124 0.0017921882 1.2246597e-19)
(-0.001163617 0.0011508631 7.1342434e-19)
(-0.0021251694 0.00035158942 -1.9472639e-19)
(-0.0027695049 -0.00052268378 -3.2907256e-19)
(-0.0031170996 -0.0014038727 9.1181038e-19)
(-0.0032047289 -0.0022277706 6.2810425e-19)
(-0.0030810614 -0.0029477035 6.8689143e-19)
(-0.0027976005 -0.0035319221 2.6506351e-19)
(-0.0024065473 -0.0039635408 3.2466379e-20)
(-0.0019576323 -0.0042394534 2.8344881e-19)
(-0.0014949337 -0.0043682118 8.726921e-20)
(-0.0010547585 -0.0043674061 -1.314125e-19)
(-0.00066425855 -0.0042607301 3.5807848e-19)
(-0.00034088719 -0.0040750654 8.8717518e-20)
(-9.2880825e-05 -0.0038383918 -1.0928513e-19)
(7.7381803e-05 -0.003576956 -1.9026068e-20)
(0.00017576825 -0.0033132468 -8.4484341e-20)
(0.00021388832 -0.0030651332 3.0290287e-20)
(0.00020413104 -0.0028452916 -7.3188851e-20)
(0.00016085505 -0.0026610466 -1.0853754e-19)
(9.8177632e-05 -0.0025148168 -1.7171407e-20)
(2.8278671e-05 -0.0024051378 1.7517806e-20)
(-3.8924419e-05 -0.0023275523 -1.0744577e-21)
(-9.6265974e-05 -0.0022758409 -3.9849633e-20)
(-0.00014000029 -0.0022428139 5.4735715e-21)
(-0.00016884687 -0.0022215905 3.989066e-20)
(-0.00018342023 -0.00220621 4.5531127e-20)
(-0.00018578937 -0.0021920192 1.9500015e-20)
(-0.00017882098 -0.0021758235 2.0305659e-20)
(-0.00016562803 -0.0021558536 3.3828894e-21)
(-0.00014912047 -0.0021315628 2.4474115e-20)
(-0.00013168239 -0.0021033233 1.5791762e-20)
(-0.00011501979 -0.0020720625 2.0776987e-22)
(-0.0001001949 -0.0020389493 1.6716876e-20)
(-8.7702186e-05 -0.0020052087 -2.2814854e-20)
(-7.7566261e-05 -0.0019718915 -2.0779339e-20)
(-6.9495108e-05 -0.0019397937 -1.2749024e-20)
(-6.3027281e-05 -0.0019094173 7.3493972e-21)
(-5.7660858e-05 -0.001880993 8.2554383e-21)
(-5.2944596e-05 -0.0018545321 -5.9534904e-21)
(-4.8531543e-05 -0.001829899 2.7984768e-21)
(-4.4192393e-05 -0.0018068855 -1.5558681e-20)
(-3.9803901e-05 -0.0017852601 3.9222537e-22)
(-3.5333381e-05 -0.0017648008 -6.8960894e-22)
(-3.0815805e-05 -0.0017453278 1.706425e-20)
(-2.6323764e-05 -0.0017267143 3.9072071e-20)
(-2.1943034e-05 -0.0017088824 2.4489021e-20)
(-1.775606e-05 -0.0016917951 4.4370951e-20)
(-1.3832227e-05 -0.0016754448 4.2736236e-20)
(-1.0224429e-05 -0.0016598419 3.149904e-20)
(-6.9698e-06 -0.0016450075 2.6697379e-20)
(-4.0913586e-06 -0.0016309678 1.2303229e-20)
(-1.6000309e-06 -0.0016177495 1.838582e-21)
(5.0115805e-07 -0.0016053759 1.0539128e-21)
(2.2110299e-06 -0.0015938704 1.0276932e-21)
(3.5327713e-06 -0.0015832565 1.5775264e-20)
(4.4739727e-06 -0.0015735586 1.4134547e-20)
(5.0432806e-06 -0.0015648024 2.8711823e-20)
(5.2544275e-06 -0.0015570155 1.7351354e-20)
(5.1273819e-06 -0.0015502242 7.851074e-21)
(4.6887382e-06 -0.0015444512 -1.9925263e-21)
(3.9740899e-06 -0.0015397109 -1.1801663e-20)
(3.0275983e-06 -0.0015360053 -1.2075527e-20)
(1.901191e-06 -0.0015333242 -2.03268e-20)
(6.4937227e-07 -0.0015316994 -3.3405364e-20)
(0.017364619 -0.045285084 -3.1275089e-18)
(0.020717556 -0.038988939 1.4868642e-19)
(0.022934249 -0.032686355 -1.1207e-18)
(0.024085852 -0.026542974 -1.1439424e-18)
(0.024264665 -0.02070822 -2.6810301e-18)
(0.023581513 -0.015312554 -2.7209398e-19)
(0.022162733 -0.010464822 -7.2216172e-18)
(0.020146608 -0.0062497657 -9.2566223e-18)
(0.017679295 -0.0027260433 -1.3083435e-18)
(0.014913424 7.7788587e-05 -1.1702443e-18)
(0.011994803 0.0021580971 -2.5189097e-18)
(0.0090626178 0.0035389286 -3.6437305e-18)
(0.0062446995 0.0042691232 -8.5086704e-19)
(0.0036503989 0.0044225337 -6.6002791e-19)
(0.0013675447 0.0040899303 -1.1876895e-18)
(-0.00054091478 0.0033729482 -1.0426571e-18)
(-0.0020384206 0.0023824904 -9.4105928e-19)
(-0.0031154142 0.0012273452 1.448126e-20)
(-0.0037902591 1.1356942e-05 6.6169708e-19)
(-0.0040959087 -0.0011750937 3.8158204e-19)
(-0.0040813987 -0.0022587332 2.5812792e-19)
(-0.0038137447 -0.0031842462 6.0569774e-19)
(-0.0033611891 -0.0039161145 4.8532397e-19)
(-0.0027920367 -0.0044382704 4.9184239e-20)
(-0.002170189 -0.004752181 5.9231874e-19)
(-0.00155116 -0.0048738475 5.6082254e-19)
(-0.0009794549 -0.004830312 2.4514179e-19)
(-0.00048706869 -0.0046555541 1.7426631e-19)
(-9.3675503e-05 -0.004387084 -6.2014632e-20)
(0.00019267331 -0.0040627195 1.5092912e-19)
(0.00037424496 -0.0037172097 1.2228764e-19)
(0.00046186382 -0.0033782528 5.8460774e-20)
(0.00047192513 -0.0030687428 2.9064776e-20)
(0.00042347459 -0.0028035701 -1.421537e-20)
(0.00033667431 -0.0025904343 -8.9749513e-20)
(0.00023060397 -0.0024305728 3.782611e-21)
(0.00012151965 -0.0023200972 3.6694229e-20)
(2.1912254e-05 -0.0022511304 -5.8568061e-20)
(-5.9855425e-05 -0.0022140883 -4.570541e-20)
(-0.00011973745 -0.0021985467 -3.003311e-20)
(-0.00015727404 -0.0021949664 -2.4997259e-21)
(-0.00017450007 -0.0021953745 -1.0182621e-20)
(-0.00017516495 -0.0021938482 -2.965624e-21)
(-0.00016385131 -0.0021866313 -1.1851345e-20)
(-0.00014521893 -0.0021720024 7.1578273e-21)
(-0.00012340269 -0.0021498939 3.9484149e-21)
(-0.00010160477 -0.0021214181 3.8962077e-20)
(-8.1943603e-05 -0.0020883123 3.2073516e-20)
(-6.5607903e-05 -0.0020525007 2.3866192e-20)
(-5.2977025e-05 -0.0020158865 2.6344086e-20)
(-4.378586e-05 -0.0019799535 1.4501702e-20)
(-3.7398076e-05 -0.0019457663 2.3493272e-20)
(-3.30078e-05 -0.0019139231 4.3860546e-20)
(-2.9822589e-05 -0.0018846295 1.1357742e-20)
(-2.7179844e-05 -0.0018577893 -1.4926123e-21)
(-2.461281e-05 -0.0018331164 6.6800129e-21)
(-2.1846872e-05 -0.0018102582 2.1496822e-20)
(-1.8758861e-05 -0.0017888639 1.0440613e-20)
(-1.5353662e-05 -0.0017686077 1.7012465e-20)
(-1.1728173e-05 -0.0017492519 2.6629913e-20)
(-8.0178012e-06 -0.0017306465 3.847285e-20)
(-4.3617108e-06 -0.0017127128 3.920197e-20)
(-8.8265451e-07 -0.0016954278 4.2957477e-20)
(2.3242572e-06 -0.0016788041 3.503654e-20)
(5.1916587e-06 -0.0016628748 2.7272627e-20)
(7.6750927e-06 -0.0016476801 2.565156e-20)
(9.7501603e-06 -0.0016332612 2.2801591e-20)
(1.1409427e-05 -0.0016196531 1.3481462e-20)
(1.2652296e-05 -0.0016068862 -2.1109973e-21)
(1.3478719e-05 -0.0015949879 1.7776134e-20)
(1.3891368e-05 -0.0015839825 3.1459818e-20)
(1.38947e-05 -0.0015738971 2.7272456e-20)
(1.3493864e-05 -0.0015647611 1.7005702e-20)
(1.2698727e-05 -0.001556607 1.4559703e-20)
(1.1525875e-05 -0.0015494686 -2.3171304e-21)
(1.0000147e-05 -0.0015433777 -1.210533e-20)
(8.1578469e-06 -0.0015383584 -1.1862988e-20)
(6.0462041e-06 -0.0015344228 -1.6861546e-20)
(3.7233911e-06 -0.0015315689 -1.9179062e-20)
(1.2564539e-06 -0.0015298375 -2.138684e-20)
(0.024139827 -0.049592391 -2.2502755e-18)
(0.02757113 -0.042084516 9.8573195e-19)
(0.029681661 -0.034620329 -8.0821289e-18)
(0.03055851 -0.027390695 3.5209492e-18)
(0.030312859 -0.020567996 -1.3272248e-18)
(0.029077332 -0.014302874 -1.8564227e-18)
(0.027002977 -0.008720933 1.2331823e-18)
(0.024255272 -0.0039195153 -3.9015081e-18)
(0.021011776 3.4724366e-05 -3.3840632e-18)
(0.017450056 0.0031075858 1.6416023e-18)
(0.013749343 0.005298491 1.2709818e-18)
(0.010079117 0.006642255 -1.8811492e-19)
(0.0065928368 0.0072040925 1.5677485e-18)
(0.0034224407 0.0070777495 -1.1209232e-18)
(0.00067127236 0.0063783056 -7.3423466e-19)