/*--------------------------------*- C++ -*----------------------------------*\
| =========                 |                                                 |
| \\      /  F ield         | OpenFOAM: The Open Source CFD Toolbox           |
|  \\    /   O peration     | Version:  2306                                  |
|   \\  /    A nd           | Website:  www.openfoam.com                      |
|    \\/     M anipulation  |                                                 |
\*---------------------------------------------------------------------------*/
FoamFile
{
    version     2.0;
    format      ascii;
    arch        "LSB;label=32;scalar=64";
    class       surfaceScalarField;
    location    "0.36";
    object      phi_0;
}
// * * * * * * * * * * * * * * * * * * * * * * * * * * * * * * * * * * * * * //

dimensions      [0 3 -1 0 0 0 0];

oriented        oriented;

internalField   nonuniform List<scalar> 
12640
(
2.9331627e-07
-2.2492323e-06
1.1735189e-06
-6.7400384e-06
2.624199e-06
-1.1106889e-05
4.6163083e-06
-1.5240735e-05
7.1057467e-06
-1.9010764e-05
1.0037464e-05
-2.2304166e-05
1.3347376e-05
-2.5025475e-05
1.6962477e-05
-2.7090324e-05
2.0801071e-05
-2.8425619e-05
2.4773539e-05
-2.8971017e-05
2.8784165e-05
-2.8681443e-05
3.2733674e-05
-2.7529382e-05
3.652233e-05
-2.5506369e-05
4.005293e-05
-2.2623316e-05
4.3233945e-05
-1.8909647e-05
4.598141e-05
-1.4411512e-05
4.8220689e-05
-9.1898088e-06
4.988981e-05
-3.3188405e-06
5.0934217e-05
3.1295771e-06
5.1312936e-05
1.0057327e-05
5.0994239e-05
1.7377129e-05
4.995599e-05
2.4996388e-05
4.8184483e-05
3.2821891e-05
4.5673519e-05
4.0760586e-05
4.2423535e-05
4.8720057e-05
3.8440973e-05
5.6608437e-05
3.3738145e-05
6.433404e-05
2.8332942e-05
7.1804986e-05
2.2249468e-05
7.8927892e-05
1.5519594e-05
8.5608034e-05
8.1815668e-06
9.1749849e-05
2.8169149e-07
9.7254458e-05
-8.1099649e-06
0.00010202802
-1.6931104e-05
0.00010596254
-2.6094582e-05
0.0001089641
-3.5499891e-05
0.00011094035
-4.503209e-05
0.0001118068
-5.456187e-05
0.00011149072
-6.3946712e-05
0.00010993559
-7.3033163e-05
0.00010710591
-8.1660293e-05
0.0001029919
-8.9664321e-05
9.7613871e-05
-9.6884331e-05
9.1025709e-05
-0.00010316879
8.3316947e-05
-0.00010838251
7.4612988e-05
-0.00011241345
6.5073119e-05
-0.00011517882
5.4886265e-05
-0.00011663012
4.4265023e-05
-0.00011675641
3.3437514e-05
-0.00011558555
2.2638062e-05
-0.0001131839
1.2098078e-05
-0.00010965009
2.0340663e-06
-0.00010510546
-7.3853302e-06
-9.9717721e-05
-1.5947743e-05
-9.3654475e-05
-2.3544612e-05
-8.7094857e-05
-3.0086437e-05
-8.0220046e-05
-3.552022e-05
-7.3206093e-05
-3.9831334e-05
-6.6217846e-05
-4.3040876e-05
-5.9403914e-05
-4.5201723e-05
-5.2892798e-05
-4.6393615e-05
-4.6790231e-05
-4.6717596e-05
-4.1177667e-05
-4.6290168e-05
-3.6111684e-05
-4.5237713e-05
-3.1624522e-05
-4.3690905e-05
-2.7725527e-05
-4.1779296e-05
-2.4403246e-05
-3.962665e-05
-2.1628531e-05
-3.7346242e-05
-1.9357894e-05
-3.5037813e-05
-1.7537221e-05
-3.2785066e-05
-1.6105546e-05
-3.0654242e-05
-1.4998669e-05
-2.8693732e-05
-1.4152535e-05
-2.6934673e-05
-1.3506424e-05
-2.5391915e-05
-1.3005485e-05
-2.4066017e-05
-1.2602496e-05
-2.2946026e-05
-1.2258819e-05
-2.2012562e-05
-1.194464e-05
-2.1240846e-05
-1.1638636e-05
-2.0603449e-05
-2.0072591e-05
3.3482605e-07
-2.5840584e-06
1.339652e-06
-7.7448643e-06
2.991231e-06
-1.2758468e-05
5.2527799e-06
-1.7502284e-05
8.0717786e-06
-2.1829763e-05
1.1386215e-05
-2.5618603e-05
1.5125685e-05
-2.8764944e-05
1.9209954e-05
-3.1174593e-05
2.3548045e-05
-3.276371e-05
2.8038691e-05
-3.3461663e-05
3.2572512e-05
-3.3215264e-05
3.7035503e-05
-3.1992373e-05
4.1313138e-05
-2.9784004e-05
4.5294433e-05
-2.6604611e-05
4.8875585e-05
-2.2490799e-05
5.1962773e-05
-1.7498701e-05
5.4474159e-05
-1.1701194e-05
5.6339559e-05
-5.1842408e-06
5.7506595e-05
1.9625417e-06
5.7930498e-05
9.6334236e-06
5.7580378e-05
1.772725e-05
5.6435577e-05
2.6141189e-05
5.448437e-05
3.4773097e-05
5.1722584e-05
4.3522372e-05
4.8152409e-05
5.2290232e-05
4.3781516e-05
6.0979331e-05
3.8622624e-05
6.9492932e-05
3.2693789e-05
7.773382e-05
2.6018454e-05
8.5603227e-05
1.8626518e-05
9.2999969e-05
1.0557552e-05
9.9818815e-05
1.8584786e-06
0.00010595353
-7.4068618e-06
0.00011129336
-1.7166669e-05
0.00011572235
-2.7330272e-05
0.0001191277
-3.7789332e-05
0.00012139941
-4.8417323e-05
0.00012243479
-5.9069386e-05
0.00012214278
-6.9583312e-05
0.00012044952
-7.9781914e-05
0.00011730451
-8.9476928e-05
0.00011268691
-9.8474498e-05
0.00010661144
-0.00010658218
9.9133388e-05
-0.00011361715
9.0351919e-05
-0.00011941515
8.0410987e-05
-0.00012383935
6.9497325e-05
-0.00012678845
5.7835361e-05
-0.00012820319
4.5679761e-05
-0.00012807097
3.3305293e-05
-0.00012642812
2.0995213e-05
-0.00012336157
9.031527e-06
-0.00011896753
-2.3599684e-06
-0.0001134388
-1.2914061e-05
-0.00010695664
-2.242991e-05
-9.9729831e-05
-3.0771417e-05
-9.1976318e-05
-3.783995e-05
-8.3914265e-05
-4.3582272e-05
-7.5753667e-05
-4.7991932e-05
-6.7689122e-05
-5.1105421e-05
-5.9893934e-05
-5.2996911e-05
-5.2515728e-05
-5.3771821e-05
-4.5673579e-05
-5.3559745e-05
-3.9456504e-05
-5.2507244e-05
-3.3923001e-05
-5.0771216e-05
-2.9102057e-05
-4.8511848e-05
-2.4995264e-05
-4.588609e-05
-2.1579261e-05
-4.3042653e-05
-1.8810127e-05
-4.0115376e-05
-1.662752e-05
-3.722042e-05
-1.4959372e-05
-3.4453213e-05
-1.3726511e-05
-3.1887103e-05
-1.2847009e-05
-2.9573234e-05
-1.2240616e-05
-2.7541067e-05
-1.1832586e-05
-2.5799944e-05
-1.1556786e-05
-2.4341817e-05
-1.1357717e-05
-2.3145096e-05
-1.1191417e-05
-2.2178862e-05
-1.1025474e-05
-2.1406788e-05
-1.0838511e-05
-2.0790412e-05
-2.0292185e-05
3.8461068e-07
-2.9686691e-06
1.5383607e-06
-8.8986143e-06
3.4248052e-06
-1.4644913e-05
5.9950677e-06
-2.0072546e-05
9.1858535e-06
-2.5020549e-05
1.2928768e-05
-2.9361517e-05
1.7148727e-05
-3.2984903e-05
2.1759359e-05
-3.5785225e-05
2.6660147e-05
-3.7664498e-05
3.1736357e-05
-3.8537873e-05
3.686211e-05
-3.8341017e-05
4.1905338e-05
-3.7035601e-05
4.6733459e-05
-3.4612124e-05
5.1218954e-05
-3.1090106e-05
5.5243745e-05
-2.651559e-05
5.8702922e-05
-2.0957878e-05
6.1506428e-05
-1.45047e-05
6.358029e-05
-7.2581034e-06
6.486819e-05
6.746414e-07
6.5327136e-05
9.1744778e-06
6.4927773e-05
1.8126612e-05
6.3652353e-05
2.7416609e-05
6.1492475e-05
3.6932976e-05
5.8447117e-05
4.6567729e-05
5.4520985e-05
5.6216364e-05
4.9723317e-05
6.5776999e-05
4.4067242e-05
7.5149007e-05
3.7570084e-05
8.4230979e-05
3.0253579e-05
9.2919733e-05
2.2145929e-05
0.00010110762
1.3282992e-05
0.00010868175
3.7116284e-06
0.00011552489
-6.5087887e-06
0.00012151378
-1.7302879e-05
0.00012651644
-2.8576112e-05
0.00013040093
-4.0212799e-05
0.0001330361
-5.207461e-05
0.0001342966
-6.3999899e-05
0.00013406807
-7.5804287e-05
0.0001322539
-8.7283012e-05
0.00012878324
-9.8215249e-05
0.00012361915
-0.00010837056
0.00011676675
-0.00011751747
0.0001082803
-0.00012543385
9.8268299e-05
-0.00013191843
8.6895567e-05
-0.00013680254
7.4381432e-05
-0.00013996077
6.0993593e-05
-0.0001413197
4.7038695e-05
-0.00014086402
3.2849609e-05
-0.00013863828
1.8769477e-05
-0.00013475587
5.1491118e-06
-0.00012933614
-7.7796988e-06
-0.00012261285
-1.9637353e-05
-0.00011481661
-3.0226148e-05
-0.00010620212
-3.9385911e-05
-9.7034245e-05
-4.7007821e-05
-8.7575988e-05
-5.3040529e-05
-7.8078033e-05
-5.7489887e-05
-6.8770113e-05
-6.041334e-05
-5.9854144e-05
-6.191288e-05
-5.1499327e-05
-6.2126638e-05
-4.3839177e-05
-6.1219895e-05
-3.6970081e-05
-5.937634e-05
-3.0951058e-05
-5.6790239e-05
-2.5805373e-05
-5.3657533e-05
-2.1523809e-05
-5.0167654e-05
-1.8066812e-05
-4.649965e-05
-1.5371286e-05
-4.2810902e-05
-1.335536e-05
-3.9236347e-05
-1.1924411e-05
-3.5884161e-05
-1.0976488e-05
-3.2835026e-05
-1.0407719e-05
-3.0142002e-05
-1.0118183e-05
-2.7830603e-05
-1.0016306e-05
-2.5901821e-05
-1.0022768e-05
-2.4335355e-05
-1.0072865e-05
-2.3094999e-05
-1.01172e-05
-2.2134527e-05
-1.0121512e-05
-2.1402476e-05
-1.0065806e-05
-2.0846119e-05
-2.0415808e-05
4.4668437e-07
-3.4153534e-06
1.7840667e-06
-1.0235997e-05
3.9489864e-06
-1.6809832e-05
6.8731986e-06
-2.2996758e-05
1.0480298e-05
-2.8627649e-05
1.4698581e-05
-3.35798e-05
1.9452413e-05
-3.7738735e-05
2.4651863e-05
-4.0984675e-05
3.0186782e-05
-4.3199417e-05
3.5926365e-05
-4.4277456e-05
4.1724003e-05
-4.4138656e-05
4.7424882e-05
-4.2736479e-05
5.2874115e-05
-4.0061358e-05
5.7924019e-05
-3.614001e-05
6.244004e-05
-3.1031611e-05
6.6304862e-05
-2.48227e-05
6.942018e-05
-1.7620019e-05
7.1707586e-05
-9.5455087e-06
7.3110434e-05
-7.2820716e-07
7.358803e-05
8.6968822e-06
7.3114693e-05
1.859995e-05
7.1677723e-05
2.8853579e-05
6.9273922e-05
3.9336777e-05
6.5906931e-05
4.9934721e-05
6.1584973e-05
6.0538322e-05
5.6319275e-05
7.1042696e-05
5.0123314e-05
8.1344968e-05
4.3012578e-05
9.1341715e-05
3.5006044e-05
0.00010092627
2.6127402e-05
0.00010998626
1.6408373e-05
0.00011840078
5.8911147e-06
0.00012604215
-5.3691506e-06
0.00013277404
-1.7298394e-05
0.00013844568
-2.979937e-05
0.00014290191
-4.2750146e-05
0.00014598687
-5.6000855e-05
0.00014754731
-6.9372008e-05
0.00014743922
-8.2654473e-05
0.00014553637
-9.5611557e-05
0.00014174032
-0.00010798365
0.00013599124
-0.00011949572
0.00012827882
-0.00012986777
0.00011865235
-0.00013882795
0.00010722848
-0.00014612755
9.4195162e-05
-0.0001515565
7.9810384e-05
-0.00015495786
6.4394953e-05
-0.00015623974
4.8320577e-05
-0.00015538329
3.1993153e-05
-0.00015244525
1.5831443e-05
-0.00014755609
2.5995015e-07
-0.00014088843
-1.4447361e-05
-0.00013272334
-2.7802442e-05
-0.00012334758
-3.9601905e-05
-0.00011307478
-4.9658712e-05
-0.00010222822
-5.7854382e-05
-9.1125573e-05
-6.4143176e-05
-8.0066317e-05
-6.8549143e-05
-6.9321551e-05
-7.1158107e-05
-5.9126139e-05
-7.2108292e-05
-4.9673388e-05
-7.1579388e-05
-4.1112131e-05
-6.9781153e-05
-3.3545533e-05
-6.6942938e-05
-2.703113e-05
-6.3304642e-05
-2.1582982e-05
-5.9105681e-05
-1.7177399e-05
-5.4573237e-05
-1.3752896e-05
-4.9924152e-05
-1.1221703e-05
-4.5342095e-05
-9.4745757e-06
-4.0983474e-05
-8.3885684e-06
-3.6970168e-05
-7.8333691e-06
-3.3390226e-05
-7.6779025e-06
-3.0297469e-05
-7.7985843e-06
-2.7709921e-05
-8.0837153e-06
-2.561669e-05
-8.4384781e-06
-2.3980593e-05
-8.7880501e-06
-2.2745427e-05
-9.0777321e-06
-2.1844845e-05
-9.2728427e-06
-2.1207366e-05
-9.356806e-06
-2.0762155e-05
-2.0444641e-05
5.2895839e-07
-3.9443118e-06
2.1029105e-06
-1.1809949e-05
4.6033776e-06
-1.9310299e-05
7.9313925e-06
-2.6324773e-05
1.1997175e-05
-3.2693431e-05
1.6734488e-05
-3.8317113e-05
2.207559e-05
-4.3079837e-05
2.7931644e-05
-4.6840729e-05
3.4182534e-05
-4.9450307e-05
4.0676958e-05
-5.077188e-05
4.724113e-05
-5.0702828e-05
5.3690731e-05
-4.9186081e-05
5.9842664e-05
-4.6213291e-05
6.5524884e-05
-4.182223e-05
7.058357e-05
-3.6090296e-05
7.4887545e-05
-2.9126676e-05
7.8330875e-05
-2.1063348e-05
8.0832398e-05
-1.2047031e-05
8.2335731e-05
-2.2315405e-06
8.2806178e-05
8.2264348e-06
8.2224692e-05
1.9181436e-05
8.0586274e-05
3.0491997e-05
7.7895394e-05
4.2027657e-05
7.4162321e-05
5.3667794e-05
6.9400142e-05
6.5300501e-05
6.3622578e-05
7.682026e-05
5.6842864e-05
8.8124682e-05
4.9074089e-05
9.911049e-05
4.0330189e-05
0.00010967017
3.062837e-05
0.00011968808
1.9991969e-05
0.00012903718
8.4546392e-06
0.00013757948
-3.9286169e-06
0.0001451573
-1.7098414e-05
0.00015161548
-3.0953276e-05
0.00015675677
-4.5367429e-05
0.00016040103
-6.0180608e-05
0.00016236049
-7.5194856e-05
0.00016245347
-9.0173737e-05
0.00016051525
-0.0001048438
0.00015641038
-0.0001188993
0.00015004674
-0.00013201075
0.00014139028
-0.00014383758
0.00013047918
-0.00015404466
0.00011743556
-0.00016232193
0.00010247243
-0.00016840514
8.5893594e-05
-0.00017209547
6.8085289e-05
-0.00017327614
4.9501242e-05
-0.00017192456
3.0641576e-05
-0.00016812626
1.2033143e-05
-0.00016196899
-5.8973189e-06
-0.00015379282
-2.2623534e-05
-0.00014388103
-3.7714226e-05
-0.00013260061
-5.0882332e-05
-0.000120341
-6.1918319e-05
-0.00010749801
-7.0697376e-05
-9.4455902e-05
-7.718528e-05
-8.1572463e-05
-8.1432582e-05
-6.9167198e-05
-8.3563373e-05
-5.7512608e-05
-8.3762881e-05
-4.6828583e-05
-8.2263413e-05
-3.7279726e-05
-7.933001e-05
-2.8974738e-05
-7.5247925e-05
-2.1967141e-05
-7.0312239e-05
-1.6256859e-05
-6.4815963e-05
-1.1801457e-05
-5.9028639e-05
-8.5098783e-06
-5.3215732e-05
-6.262637e-06
-4.7589336e-05
-4.9160168e-06
-4.2330095e-05
-4.3109613e-06
-3.7575224e-05
-4.2827213e-06
-3.3418466e-05
-4.6656989e-06
-2.9914491e-05
-5.3085344e-06
-2.7067086e-05
-6.0761606e-06
-2.4849064e-05
-6.8548833e-06
-2.320187e-05
-7.5588514e-06
-2.2041459e-05
-8.1287979e-06
-2.1274899e-05
-8.5317126e-06
-2.0804451e-05
-8.757442e-06
-2.0536426e-05
-2.0387938e-05
6.4702895e-07
-4.5913408e-06
2.5415066e-06
-1.3704426e-05
5.4511458e-06
-2.2219938e-05
9.2313797e-06
-3.0105007e-05
1.3786299e-05
-3.7248351e-05
1.9075594e-05
-4.3606408e-05
2.5054407e-05
-4.905865e-05
3.1641764e-05
-5.3428086e-05
3.87056e-05
-5.6514143e-05
4.6065978e-05
-5.8132257e-05
5.3511536e-05
-5.8148386e-05
6.0818664e-05
-5.6493208e-05
6.7768405e-05
-5.3163033e-05
7.4159106e-05
-4.8212931e-05
7.9814876e-05
-4.1746066e-05
8.4590229e-05
-3.3902028e-05
8.8372057e-05
-2.4845176e-05
9.1078478e-05
-1.4753453e-05
9.265656e-05
-3.8096219e-06
9.3082001e-05
7.8009941e-06
9.2345803e-05
1.9917633e-05
9.045449e-05
3.238331e-05
8.7423471e-05
4.5058676e-05
8.3272201e-05
5.7819064e-05
7.8020268e-05
7.0552435e-05
7.1684606e-05
8.3155921e-05
6.4278126e-05
9.5531162e-05
5.5809563e-05
0.00010757905
4.6285391e-05
0.00011919434
3.5713063e-05
0.00013026041
2.4104046e-05
0.0001406462
1.1483056e-05
0.00015020047
-2.1116933e-06
0.00015875205
-1.6631313e-05
0.0001661351
-3.1972611e-05
0.00017209807
-4.8011933e-05
0.00017644035
-6.458083e-05
0.00017892939
-8.1463031e-05
0.00017933567
-9.83925e-05
0.00017744472
-0.00011505385
0.00017307173
-0.0001310867
0.00016607959
-0.00014609505
0.00015639863
-0.00015966241
0.00014404653
-0.00017137266
0.00012914581
-0.00018083573
0.00011193551
-0.00018771559
9.2773453e-05
-0.00019175733
7.2127028e-05
-0.00019280949
5.0553402e-05
-0.00019084046
2.867255e-05
-0.00018595692
7.1496005e-06
-0.00017830043
-1.3553807e-05
-0.0001682541
-3.2669868e-05
-0.00015621085
-4.975747e-05
-0.00014262492
-6.4468262e-05
-0.00012797843
-7.6564808e-05
-0.00011275641
-8.5919396e-05
-9.7423942e-05
-9.2517752e-05
-8.2408094e-05
-9.644843e-05
-6.8084538e-05
-9.7886929e-05
-5.4768232e-05
-9.7079187e-05
-4.2707881e-05
-9.4323764e-05
-3.2083745e-05
-8.9954146e-05
-2.3007763e-05
-8.4323908e-05
-1.5526142e-05
-7.779386e-05
-9.6179001e-06
-7.0724205e-05
-5.2196497e-06
-6.3426889e-05
-2.2002417e-06
-5.623514e-05
-3.9929296e-07
-4.9390285e-05
3.7440263e-07
-4.310379e-05
3.2715354e-07
-3.7527975e-05
-3.2886787e-07
-3.2762444e-05
-1.397113e-06
-2.8846246e-05
-2.6927029e-06
-2.5771496e-05
-4.0552115e-06
-2.3486555e-05
-5.3437016e-06
-2.191338e-05
-6.4607687e-06
-2.0924392e-05
-7.3440673e-06
-2.03916e-05
-7.965292e-06
-2.0183226e-05
-8.3250502e-06
-2.0176668e-05
-2.0266716e-05
8.2754299e-07
-5.4188838e-06
3.171556e-06
-1.6048439e-05
6.5763803e-06
-2.5624763e-05
1.0840106e-05
-3.4368733e-05
1.5885937e-05
-4.2294182e-05
2.1740428e-05
-4.9460898e-05
2.8404419e-05
-5.5722641e-05
3.5812047e-05
-6.0835714e-05
4.3812276e-05
-6.4514373e-05
5.2181089e-05
-6.650107e-05
6.0652735e-05
-6.6620032e-05
6.8950366e-05
-6.4790839e-05
7.6809616e-05
-6.1022283e-05
8.399381e-05
-5.5397125e-05
9.0302775e-05
-4.8055032e-05
9.5576878e-05
-3.9176131e-05
9.9697748e-05
-2.8966045e-05
0.00010258645
-1.7642152e-05
0.00010419837
-5.4215495e-06
0.00010452369
7.475678e-06
0.00010356963
2.0871692e-05
0.00010135892
3.4594016e-05
9.7922174e-05
4.8495427e-05
9.3291329e-05
6.2449909e-05
8.7494567e-05
7.6349197e-05
8.0552762e-05
9.0097726e-05
7.2477723e-05
0.0001036062
6.327234e-05
0.00011678444
5.2932634e-05
0.00012953404
4.1451003e-05
0.00014174204
2.8822688e-05
0.00015327452
1.5051744e-05
0.00016397142
1.5454749e-07
0.00017364924
-1.5806662e-05
0.00018209631
-3.2768416e-05
0.00018905982
-5.060584e-05
0.00019427777
-6.914405e-05
0.0001974676
-8.8149662e-05
0.00019834128
-0.00010732539
0.00019662045
-0.0001263087
0.00019205504
-0.00014467486
0.00018444575
-0.00016194682
0.00017367058
-0.00017761278
0.0001597125
-0.00019115243
0.00014268545
-0.00020207056
0.00012285364
-0.00020993547
0.00010063836
-0.00021441629
7.6607844e-05
-0.00021531411
5.1451221e-05
-0.00021258282
2.5941268e-05
-0.00020635549
9.2226856e-07
-0.00019683255
-2.3076749e-05
-0.00018449514
-4.5007282e-05
-0.00016984771
-6.4404895e-05
-0.00015346305
-8.0852922e-05
-0.00013594173
-9.4086129e-05
-0.00011787961
-0.00010398152
-9.9839677e-05
-0.00011055769
-8.2330834e-05
-0.00011395727
-6.5793135e-05
-0.00011442463
-5.0588541e-05
-0.00011228378
-3.6996103e-05
-0.0001079162
-2.5210775e-05
-0.00010173947
-1.5344415e-05
-9.4190267e-05
-7.432991e-06
-8.5705284e-05
-1.4335921e-06
-7.6723604e-05
2.794283e-06
-6.7654765e-05
5.389413e-06
-5.883027e-05
6.5658601e-06
-5.0566732e-05
6.563564e-06
-4.3101494e-05
5.6430421e-06
-3.6607453e-05
4.0687285e-06
-3.1188131e-05
2.0989119e-06
-2.687643e-05
-2.6724566e-08
-2.364586e-05
-2.1090062e-06
-2.1404273e-05
-4.003434e-06
-2.0018952e-05
-5.5948481e-06
-1.9332977e-05
-6.8197228e-06
-1.9166725e-05
-7.6590139e-06
-1.9343935e-05
-8.1303203e-06
-1.9705361e-05
-2.0118809e-05
1.0974792e-06
-6.516363e-06
4.0552024e-06
-1.9006163e-05
8.0293258e-06
-2.9598886e-05
1.2762202e-05
-3.9101609e-05
1.8253732e-05
-4.7785711e-05
2.4666027e-05
-5.5873193e-05
3.2073287e-05
-6.3129902e-05
4.0427508e-05
-6.9189935e-05
4.9540367e-05
-7.3627232e-05
5.9115466e-05
-7.6076169e-05
6.880598e-05
-7.6310545e-05
7.8262543e-05
-7.4247403e-05
8.716451e-05
-6.992425e-05
9.5236054e-05
-6.3468669e-05
0.00010225276
-5.5071738e-05
0.0001080434
-4.4966774e-05
0.00011248863
-3.3411272e-05
0.0001155172
-2.0670726e-05
0.00011709876
-7.003104e-06
0.00011724664
7.3277971e-06
0.0001159898
2.2128529e-05
0.00011337384
3.7209981e-05
0.00010945
5.2419267e-05
0.00010426691
6.7632994e-05
9.7863984e-05
8.2752126e-05
9.0266921e-05
9.7694789e-05
8.1485626e-05
0.0001123875
7.1514372e-05
0.00012675569
6.0334239e-05
0.00014071418
4.7918782e-05
0.0001541575
3.4239901e-05
0.0001669534
1.9274605e-05
0.00017893671
3.0213681e-06
0.00018990248
-1.4495479e-05
0.00019961316
-3.3218753e-05
0.0002077831
-5.3037981e-05
0.000214097
-7.3779644e-05
0.00021820926
-9.5197316e-05
0.00021975895
-0.00011696258
0.00021838572
-0.00013866094
0.0002137534
-0.0001597928
0.00020557761
-0.00017978261
0.0001936604
-0.0001979989
0.00017792878
-0.00021378644
0.000158473
-0.00022651073
0.00013557793
-0.00023561046
0.00010973809
-0.00024065167
8.1649057e-05
-0.00024137528
5.2174824e-05
-0.00023773818
2.2304176e-05
-0.00022975695
-7.0589629e-06
-0.00021794615
-3.4887552e-05
-0.00020278396
-6.0169476e-05
-0.00018493984
-8.2249009e-05
-0.00016514526
-0.0001006475
-0.00014415222
-0.00011507917
-0.00012269402
-0.00012543971
-0.00010145161
-0.0001318001
-8.1029458e-05
-0.00013437943
-6.1940165e-05
-0.00013351392
-4.4596238e-05
-0.00012962771
-2.930724e-05
-0.0001232052
-1.6281486e-05
-0.00011476523
-5.6320226e-06
-0.00010483973
2.6588456e-06
-9.3996152e-05
8.6579007e-06
-8.2722659e-05
1.2507442e-05
-7.1504306e-05
1.4434609e-05
-6.0757437e-05
1.4713201e-05
-5.0845323e-05
1.3654596e-05
-4.2042889e-05
1.1589914e-05
-3.4542772e-05
8.8541341e-06
-2.845235e-05
5.767832e-06
-2.3790128e-05
2.6166402e-06
-2.0494668e-05
-3.55106e-07
-1.8432527e-05
-2.9667291e-06
-1.7407329e-05
-5.0948296e-06
-1.7204877e-05
-6.6802533e-06
-1.7581302e-05
-7.720549e-06
-1.8303639e-05
-8.2593482e-06
-1.9166562e-05
-2.0005746e-05
1.4249945e-06
-7.9413575e-06
5.1073541e-06
-2.2688522e-05
9.6463409e-06
-3.4137873e-05
1.4753628e-05
-4.4208896e-05
2.0600834e-05
-5.3632917e-05
2.7574394e-05
-6.2846753e-05
3.5841411e-05
-7.1396918e-05
4.5360456e-05
-7.870898e-05
5.5867894e-05
-8.4134669e-05
6.6947943e-05
-8.7156218e-05
7.8132709e-05
-8.7495312e-05
8.8974341e-05
-8.5089035e-05
9.9084487e-05
-8.0034396e-05
0.00010814757
-7.253175e-05
0.00011592048
-6.2844649e-05
0.00012222795
-5.1274243e-05
0.00012695772
-3.8141048e-05
0.00013005515
-2.3768156e-05
0.00013151388
-8.4618331e-06
0.00013137476
7.4669162e-06
0.00012970099
2.3802302e-05
0.00012656866
4.0342306e-05
0.00012205647
5.693146e-05
0.00011623487
7.3454599e-05
0.00010915765
8.9829343e-05
0.00010085627
0.00010599617
9.1337332e-05
0.00012190643
8.0582993e-05
0.00013751003
6.8554839e-05
0.00015274233
5.5199361e-05
0.00016751297
4.045694e-05
0.00018169582
2.427397e-05
0.00019511968
6.6098926e-06
0.00020756656
-1.2548097e-05
0.00021877115
-3.3165961e-05
0.00022840096
-5.5155519e-05
0.00023608656
-7.8353299e-05
0.00024140704
-0.00010250642
0.00024391207
-0.00012725812
0.00024313742
-0.00015213845
0.00023863373
-0.00017656203
0.00023000119
-0.00019983468
0.00021693305
-0.00022117478
0.00019926888
-0.00023975219
0.00017705041
-0.00025474614
0.00015057188
-0.00026541795
0.0001204099
-0.00027118748
8.7418586e-05
-0.00027169988
5.2687231e-05
-0.00026689467
1.7498959e-05
-0.00025684084
-1.7112784e-05
-0.00024212259
-4.9605808e-05
-0.00022343735
-7.8854717e-05
-0.00020164527
-0.00010404109
-0.00017767929
-0.00012461347
-0.00015248281
-0.00014027566
-0.00012695843
-0.00015096409
-0.00010192776
-0.00015683076
-7.8105063e-05
-0.00015820213
-5.6082942e-05
-0.00015553604
-3.6327452e-05
-0.0001493832
-1.9177495e-05
-0.00014035516
-4.8466361e-06
-0.00012909609
6.6025736e-06
-0.00011628894
1.5158498e-05
-0.00010255208
2.0945247e-05
-8.8509408e-05
2.4173831e-05
-7.4732891e-05
2.5138761e-05
-6.1722366e-05
2.4194018e-05
-4.9900581e-05
2.1737021e-05
-3.9585892e-05
1.8187939e-05
-3.099369e-05
1.3968539e-05
-2.4232951e-05
9.4775761e-06
-1.9299165e-05
5.0678888e-06
-1.608498e-05
1.029642e-06
-1.439428e-05
-2.4151194e-06
-1.3962567e-05
-5.1374091e-06
-1.4482587e-05
-7.0858511e-06
-1.5632859e-05
-8.2844818e-06
-1.7105009e-05
-8.8156446e-06
-1.8635399e-05
-2.0022129e-05
1.582125e-06
-9.5234825e-06
5.8057966e-06
-2.6912194e-05
1.0725222e-05
-3.9057299e-05
1.6013823e-05
-4.9497497e-05
2.2140188e-05
-5.9759282e-05
2.9781553e-05
-7.0488118e-05
3.9181574e-05
-8.0796939e-05
5.0266804e-05
-8.979421e-05
6.2635704e-05
-9.650357e-05
7.5688104e-05
-0.00010020862
8.8782168e-05
-0.00010058938
0.00010133636
-9.7643229e-05
0.00011287984
-9.157787e-05
0.00012306052
-8.2712433e-05
0.00013163089
-7.1415022e-05
0.00013842965
-5.8073002e-05
0.00014336773
-4.3079127e-05
0.00014642012
-2.6820542e-05
0.00014761864
-9.6603613e-06
0.000147042
8.0435562e-06
0.00014479919
2.6045112e-05
0.00014100705
4.4134452e-05
0.00013578022
6.2158284e-05
0.00012921734
8.0017487e-05
0.00012139024
9.7656444e-05
0.00011233696
0.00011504945
0.00010205884
0.00013218455
9.0521631e-05
0.00014904724
7.7659866e-05
0.0001656041
6.3385162e-05
0.00018178768
4.7596401e-05
0.00019748458
3.0193318e-05
0.00021252277
1.1087624e-05
0.00022667225
-9.7722226e-06
0.00023963099
-3.2404694e-05
0.00025103343
-5.6752357e-05
0.00026043422
-8.2674231e-05
0.00026732892
-0.00010992164
0.00027115948
-0.00013811633
0.00027133211
-0.00016673256
0.00026724995
-0.00019508884
0.00025835747
-0.00022234968
0.00024419389
-0.00024754577
0.00022446497
-0.00026961948
0.00019912412
-0.00028749956
0.00016845195
-0.00030020201
0.00013311235
-0.00030694106
9.415764e-05
-0.00030722711
5.2973279e-05
-0.00030098076
1.1252605e-05
-0.00028828277
-2.9810769e-05
-0.00026991195
-6.7976631e-05
-0.00024681511
-0.00010195156
-0.00022012233
-0.00013073387
-0.00019103369
-0.00015370211
-0.00016073611
-0.00017057324
-0.00013033945
-0.00018136075
-0.00010083104
-0.00018633917
-7.3048535e-05
-0.00018598463
-4.7669333e-05
-0.00018091524
-2.5208132e-05
-0.0001718444
-6.0223318e-06
-0.00015954096
9.6962711e-06
-0.00014481469
2.185137e-05
-0.00012844404
3.0506122e-05
-0.00011120683
3.5835774e-05
-9.383906e-05
3.8123316e-05
-7.7020432e-05
3.7748831e-05
-6.1347881e-05
3.5166126e-05
-4.7317875e-05
3.0880349e-05
-3.5300115e-05
2.5422475e-05
-2.5535816e-05
1.9322048e-05
-1.8132523e-05
1.3077369e-05
-1.3054485e-05
7.1253602e-06
-1.0132972e-05
1.81919e-06
-9.0881103e-06
-2.5884684e-06
-9.5549091e-06
-5.9530951e-06
-1.1117961e-05
-8.2409378e-06
-1.3345017e-05
-9.5175071e-06
-1.5828439e-05
-9.9218169e-06
-1.823109e-05
-2.0308197e-05
9.9572928e-07
-1.0519212e-05
4.8884368e-06
-3.0804901e-05
9.7768938e-06
-4.3945756e-05
1.5009677e-05
-5.473028e-05
2.1487221e-05
-6.6236827e-05
3.0145313e-05
-7.914621e-05
4.1215234e-05
-9.186686e-05
5.4527083e-05
-0.00010310606
6.9461664e-05
-0.00011143815
8.5174103e-05
-0.00011592106
0.00010079518
-0.00011621045
0.00011556075
-0.0001124088
0.00012888515
-0.00010490226
0.00014037399
-9.4201272e-05
0.0001497945
-8.0835536e-05
0.0001570316
-6.5310102e-05
0.00016205276
-4.8100285e-05
0.00016488905
-2.9656838e-05
0.00016562688
-1.0398188e-05
0.00016440585
9.2645874e-06
0.0001613911
2.9059861e-05
0.00015675338
4.8772168e-05
0.00015065377
6.8257894e-05
0.00014322658
8.744468e-05
0.00013456586
0.00010631716
0.0001247168
0.00012489851
0.00011367238
0.00014322897
0.00010137549
0.00016134412
8.7725166e-05
0.00017925442
7.2586731e-05
0.00019692611
5.5805997e-05
0.00021426531
3.7221886e-05
0.00023110688
1.6686715e-05
0.00024720742
-5.9171281e-06
0.00026223484
-3.0665337e-05
0.00027578164
-5.7551321e-05
0.00028732021
-8.6476052e-05
0.00029625365
-0.00011721168
0.0003018951
-0.00014937144
0.00030349188
-0.00018237959
0.0003002581
-0.00021545109
0.00029142897
-0.00024758529
0.0002763281
-0.0002775803
0.00025445998
-0.00030408299
0.00022562681
-0.00032568317
0.00019005213
-0.00034105415
0.00014848333
-0.00034911463
0.00010221812
-0.00034918206
5.3040706e-05
-0.0003410663
3.1368472e-06
-0.00032501178
-4.5865294e-05
-0.00030200225
-9.0986155e-05
-0.00027333426
-0.00013061955
-0.00024051887
-0.00016354925
-0.00020511324
-0.00018910774
-0.00016861292
-0.00020707356
-0.00013237773
-0.00021759594
-9.7585217e-05
-0.00022113168
-6.5205656e-05
-0.00021836419
-3.5999013e-05
-0.00021012189
-1.052064e-05
-0.00019732277
1.0869942e-05
-0.00018093154
2.7963547e-05
-0.00016190829
4.072257e-05
-0.00014120306
4.9253408e-05
-0.00011973767
5.3800913e-05
-9.8386565e-05
5.4736225e-05
-7.7955745e-05
5.2543307e-05
-5.9154962e-05
4.7796837e-05
-4.2571406e-05
4.1138316e-05
-2.8641593e-05
3.3240839e-05
-1.763834e-05
2.4767854e-05
-9.6595384e-06
1.6343767e-05
-4.6303979e-06
8.5082824e-06
-2.2974876e-06
1.6951995e-06
-2.2750274e-06
-3.8033186e-06
-4.0563909e-06
-7.840793e-06
-7.0804861e-06
-1.0404995e-05
-1.0780815e-05
-1.1624427e-05
-1.4609008e-05
-1.1720575e-05
-1.8134941e-05
-2.1066572e-05
-1.2875476e-06
-9.2316641e-06
2.9257115e-07
-3.238502e-05
4.7616e-06
-4.8414784e-05
9.9257157e-06
-5.9894396e-05
1.71795e-05
-7.3490611e-05
2.7522674e-05
-8.9489384e-05
4.106063e-05
-0.00010540482
5.7432185e-05
-0.00011947761
7.5760941e-05
-0.00012976691
9.4964139e-05
-0.00013512425
0.00011392564
-0.00013517195
0.00013163729
-0.00013012045
0.00014731913
-0.0001205841
0.00016047823
-0.00010736037
0.00017088943
-9.1246742e-05
0.00017852148
-7.2942146e-05
0.00018345532
-5.3034126e-05
0.00018583196
-3.203348e-05
0.00018583016
-1.0396384e-05
0.00018368044
1.1414305e-05
0.00017962266
3.3117641e-05
0.00017389791
5.4496919e-05
0.00016672664
7.5429164e-05
0.00015828775
9.5883567e-05
0.00014870186
0.00011590306
0.00013802084
0.00013557953
0.00012622444
0.00015502537
0.00011322391
0.00017434465
9.8870896e-05
0.00019360743
8.2970799e-05
0.00021282621
6.5298684e-05
0.00023193743
4.56188e-05
0.00025078676
2.3705038e-05
0.00026912119
-6.4191348e-07
0.00028658179
-2.7574855e-05
0.00030271458
-5.7163697e-05
0.00031690905
-8.9377094e-05
0.00032846704
-0.00012403189
0.0003365499
-0.00016075426
0.00034021425
-0.00019893338
0.00033843722
-0.00023768002
0.00033017561
-0.00027580394
0.00031445202
-0.00031181682
0.00029047286
-0.00034398171
0.00025779171
-0.00037042636
0.00021649678
-0.00038934449
0.00016740146
-0.00039924986
0.0001121235
-0.00039921879
5.3009634e-05
-0.00038870928
-7.3726666e-06
-0.00036829269
-6.6281884e-05
-0.00033928277
-0.00011999607
-0.00030348993
-0.0001664124
-0.0002629602
-0.00020407898
-0.00021972637
-0.00023234157
-0.00017566945
-0.00025113048
-0.00013244183
-0.00026082357
-9.1431953e-05
-0.00026214156
-5.374424e-05
-0.00025605191
-2.0209252e-05
-0.00024365687
8.5901719e-06
-0.0002261222
3.230102e-05
-0.00020464239
5.0749518e-05
-0.00018035679
6.3941502e-05
-0.00015439505
7.2046578e-05
-0.00012784274
7.5391903e-05
-0.00010173189
7.4453551e-05
-7.7017392e-05
6.9841852e-05
-5.4543264e-05
6.2276228e-05
-3.5005782e-05
5.25633e-05
-1.8928666e-05
4.1547503e-05
-6.6225421e-06
3.0074633e-05
1.8133313e-06
1.8952921e-05
6.4913146e-06
8.8415328e-06
7.8139003e-06
2.5507014e-07
6.3114352e-06
-6.4871876e-06
2.6858668e-06
-1.11961e-05
-2.3715734e-06
-1.3908341e-05
-8.0685746e-06
-1.4855102e-05
-1.3662246e-05
-1.4374635e-05
-1.8615408e-05
-2.2584828e-05
-6.5413093e-06
-2.6903548e-06
-1.0271549e-05
-2.8654781e-05
-6.3983224e-06
-5.2288011e-05
-3.3155236e-09
-6.6289403e-05
9.0326192e-06
-8.2526546e-05
2.1934073e-05
-0.00010239084
3.872492e-05
-0.00012219566
5.875685e-05
-0.00013950954
8.1022684e-05
-0.00015203274
0.00010435159
-0.00015845316
0.00012745441
-0.00015827477
0.00014903597
-0.00015170202
0.00016797842
-0.00013952655
0.00018352008
-0.00012290203
0.00019533236
-0.00010305902
0.00020345665
-8.1066437e-05
0.00020815538
-5.7732862e-05
0.00020977315
-3.3651242e-05
0.00020866546
-9.2886941e-06
0.00020520605
1.4873717e-05
0.00019974553
3.8578153e-05
0.00019262013
6.1622324e-05
0.00018412765
8.3921641e-05
0.00017450259
0.00010550863
0.00016389632
0.00012650933
0.00015236512
0.00014711074
0.00013986733
0.00016752316
0.00012626963
0.00018794236
0.0001113601
0.00020851696
9.4866089e-05
0.00022932022
7.6474465e-05
0.00025032905
5.5852524e-05
0.0002714087
3.267265e-05
0.00029230106
6.6336215e-06
0.00031262082
-2.2512044e-05
0.00033186025
-5.4944287e-05
0.00034934129
-9.0732639e-05
0.0003642554
-0.00012977466
0.00037559192
-0.00017174476
0.00038218435
-0.00021602872
0.00038272119
-0.00026165175
0.00037579864
-0.00030721956
0.00036001983
-0.00035090452
0.00033415782
-0.00039048594
0.00029737313
-0.00042345747
0.00024946831
-0.00044728057
0.00019122456
-0.00045976611
0.00012460903
-0.0004592162
5.245973e-05
-0.00044577479
-2.0814078e-05
-0.00041980051
-9.2256164e-05
-0.00038296627
-0.00015683031
-0.00033793431
-0.00021144435
-0.00028757209