/*--------------------------------*- C++ -*----------------------------------*\
| =========                 |                                                 |
| \\      /  F ield         | OpenFOAM: The Open Source CFD Toolbox           |
|  \\    /   O peration     | Version:  2306                                  |
|   \\  /    A nd           | Website:  www.openfoam.com                      |
|    \\/     M anipulation  |                                                 |
\*---------------------------------------------------------------------------*/
FoamFile
{
    version     2.0;
    format      ascii;
    arch        "LSB;label=32;scalar=64";
    class       volVectorField;
    location    "0.36";
    object      U;
}
// * * * * * * * * * * * * * * * * * * * * * * * * * * * * * * * * * * * * * //

dimensions      [0 1 -1 0 0 0 0];

internalField   nonuniform List<vector> 
6400
(
(0.0063492393 -0.13403235 -3.0224889e-17)
(0.014607749 -0.13386589 -1.943612e-16)
(0.023926485 -0.13237112 -1.5400485e-17)
(0.032725555 -0.12975119 1.6004147e-16)
(0.041482863 -0.12588104 2.8125108e-17)
(0.049791213 -0.12081766 -3.7270748e-17)
(0.05755977 -0.11466348 -4.7917961e-17)
(0.064718251 -0.10751413 1.0348898e-18)
(0.071192253 -0.099462759 -3.9465747e-17)
(0.076908534 -0.090605216 -3.8304632e-17)
(0.081799832 -0.081044472 -2.3355351e-17)
(0.08580861 -0.070892609 -2.281582e-17)
(0.088890514 -0.060270247 -1.0986772e-17)
(0.091016901 -0.049304052 8.8556936e-18)
(0.092176152 -0.038123248 1.7080394e-17)
(0.092373558 -0.026855762 -4.2012746e-17)
(0.091629837 -0.015624611 -2.1145417e-17)
(0.089979392 -0.0045451199 -1.479078e-17)
(0.087474021 0.006275572 -1.867648e-18)
(0.084164131 0.016745352 2.7055459e-17)
(0.080108906 0.026781795 1.1363916e-17)
(0.075374242 0.03631464 5.509073e-18)
(0.070025421 0.045284575 1.2899464e-17)
(0.064127484 0.053641925 9.1480849e-19)
(0.057744052 0.061345333 -7.6650463e-18)
(0.050936739 0.068360179 1.614996e-17)
(0.043764888 0.074657245 3.7059975e-17)
(0.036285899 0.080211154 5.8181831e-17)
(0.02855626 0.084998881 4.3423968e-17)
(0.020632192 0.088999961 1.648095e-17)
(0.012570954 0.092195082 9.449228e-18)
(0.0044254816 0.094565122 9.9741458e-18)
(-0.0037572317 0.096105737 2.8081004e-17)
(-0.011896356 0.096785307 2.4679913e-17)
(-0.019916421 0.09660339 2.183071e-17)
(-0.027750507 0.095556116 2.118799e-17)
(-0.0353195 0.093647388 1.9174453e-17)
(-0.042540086 0.090890726 3.469321e-17)
(-0.049325848 0.087311165 2.5938968e-17)
(-0.055589067 0.082947162 3.0357167e-17)
(-0.061243183 0.077852171 3.8961e-17)
(-0.066205847 0.072095686 2.6293562e-17)
(-0.070402445 0.06576353 8.7057109e-18)
(-0.073769874 0.058957184 -2.2668139e-17)
(-0.07626024 0.051792047 -1.8880312e-17)
(-0.077843962 0.044394569 -2.717255e-19)
(-0.078512053 0.036898453 -5.6632728e-18)
(-0.078277785 0.029440278 -9.9260188e-18)
(-0.077177309 0.022154498 -8.128067e-18)
(-0.075268889 0.015168233 -2.2671189e-17)
(-0.072630745 0.0085962702 -1.2165259e-17)
(-0.069358104 0.0025361187 -2.7268141e-18)
(-0.065554324 -0.0029253909 -1.8942796e-17)
(-0.061335612 -0.007736809 -8.7527204e-18)
(-0.056825769 -0.011860635 -1.183419e-17)
(-0.052140735 -0.015283472 -1.5814855e-17)
(-0.047392699 -0.01801281 -9.4247348e-18)
(-0.042685083 -0.020074696 -9.3858769e-18)
(-0.038109629 -0.021511119 -4.3263038e-18)
(-0.03374437 -0.022376918 -1.2424406e-18)
(-0.02965236 -0.022736474 -2.9265556e-18)
(-0.025881157 -0.022660394 -3.040355e-18)
(-0.022463025 -0.022222342 -6.5962475e-18)
(-0.019415832 -0.021496234 -1.0974687e-18)
(-0.016744252 -0.020553758 -4.5858254e-19)
(-0.014441124 -0.019462134 -1.8500237e-18)
(-0.012489128 -0.018282361 -5.3933613e-19)
(-0.01086278 -0.017067733 4.7821789e-19)
(-0.00953057 -0.015863032 2.6681611e-19)
(-0.0084570115 -0.01470408 -3.644012e-19)
(-0.0076046446 -0.013617744 -8.802677e-19)
(-0.0069358403 -0.01262228 -1.4761606e-18)
(-0.0064143846 -0.011727971 7.0427057e-19)
(-0.0060068484 -0.010938123 3.4485674e-19)
(-0.0056836606 -0.010250294 4.0675459e-19)
(-0.005419775 -0.0096576595 -6.6689293e-20)
(-0.0051949365 -0.0091504093 -6.0106137e-19)
(-0.0049935984 -0.0087170253 2.3519233e-19)
(-0.0048045707 -0.0083453825 1.4417884e-19)
(-0.0046204788 -0.008023625 -8.4424759e-20)
(0.0072343752 -0.15401299 -4.3125359e-19)
(0.016680834 -0.15385366 -3.2294508e-16)
(0.027299487 -0.15212106 -9.4980387e-17)
(0.037271078 -0.14910727 -1.2272063e-16)
(0.047161434 -0.14467944 -1.3121102e-16)
(0.056517012 -0.13892193 4.0661354e-17)
(0.065255841 -0.13195595 -7.4931889e-17)
(0.07331129 -0.12388426 -1.6483654e-17)
(0.080604465 -0.11480305 3.1757485e-17)
(0.08705128 -0.10481214 -9.4002679e-18)
(0.09257073 -0.094022888 1.4747365e-17)
(0.097091938 -0.082561096 -4.435732e-17)
(0.10056007 -0.070565617 -4.5909362e-17)
(0.10294025 -0.058184322 -2.5652853e-17)
(0.10421932 -0.045568785 -2.8923985e-17)
(0.10440562 -0.032868896 -4.9608272e-18)
(0.10352687 -0.020227721 -5.3849186e-18)
(0.10162537 -0.007777999 -1.8389772e-17)
(0.098764398 0.0043588224 -1.2984245e-17)
(0.095013737 0.016079267 -1.7936082e-17)
(0.090439122 0.027293712 8.3853788e-18)
(0.085120292 0.03792719 1.6062202e-18)
(0.079133852 0.047918318 9.2289251e-18)
(0.072554471 0.057217244 -7.5219358e-18)
(0.065453667 0.065783782 -7.0890938e-18)
(0.057899175 0.073585231 1.6217356e-17)
(0.049954794 0.080594364 2.6982911e-17)
(0.041680749 0.086787465 4.2758377e-17)
(0.033135416 0.092142571 2.8487116e-17)
(0.02437648 0.096638854 7.61613e-18)
(0.015461846 0.10025564 9.1697552e-18)
(0.0064486077 0.10297295 7.4235342e-18)
(-0.002622479 0.1047736 2.0685474e-17)
(-0.011661575 0.10563354 2.1512549e-17)
(-0.020589704 0.10553929 1.8378687e-17)
(-0.029333509 0.10448098 3.2800402e-18)
(-0.037805129 0.10245646 7.256671e-19)
(-0.045910259 0.099473865 1.8752089e-17)
(-0.053549189 0.095554283 2.1482452e-17)
(-0.060618841 0.090734511 2.3396668e-17)
(-0.06701569 0.08506937 2.0022515e-17)
(-0.072639527 0.078633438 1.6803851e-17)
(-0.07739793 0.071521856 2.6922922e-17)
(-0.08121119 0.063849905 -2.4808555e-17)
(-0.08401727 0.055751152 -1.8096917e-17)
(-0.085776111 0.047374062 -1.4635374e-17)
(-0.086472791 0.03887725 -9.9627416e-18)
(-0.086119876 0.030423962 -5.556433e-18)
(-0.084758544 0.022175651 -2.2153745e-18)
(-0.082457924 0.01428526 -1.0016039e-17)
(-0.079313226 0.0068912032 -1.4672946e-17)
(-0.075433852 0.00010825352 -3.6284115e-18)
(-0.070945981 -0.0059602581 -1.8499849e-17)
(-0.066000335 -0.011253734 -1.6468408e-17)
(-0.060737146 -0.015731823 -1.1990767e-17)
(-0.055297457 -0.019382571 -1.7336681e-17)
(-0.049815228 -0.022219408 -1.2069986e-17)
(-0.044412688 -0.024278184 -5.8551928e-18)
(-0.03919709 -0.025613643 -1.0008271e-17)
(-0.034258397 -0.026295455 -7.9641977e-18)
(-0.029667907 -0.026404049 -3.8071272e-18)
(-0.025477849 -0.026026491 -2.8906313e-18)
(-0.021721901 -0.025252639 -5.8568457e-18)
(-0.018416477 -0.024171867 -4.5207401e-18)
(-0.015562216 -0.022870007 -4.2108591e-18)
(-0.013145807 -0.021426718 -1.2897188e-18)
(-0.011142021 -0.019913602 -1.5649928e-18)
(-0.0095162497 -0.018392219 1.922288e-18)
(-0.0082272477 -0.016913422 7.4963736e-19)
(-0.0072295958 -0.015516881 -1.2122148e-18)
(-0.00647614 -0.014231227 -5.479517e-19)
(-0.0059201264 -0.013074506 -8.5199911e-19)
(-0.0055171645 -0.012055048 9.9416734e-19)
(-0.0052269217 -0.011172831 -1.4239196e-19)
(-0.0050143965 -0.010421064 -1.4929188e-19)
(-0.0048506805 -0.0097879994 3.8021665e-19)
(-0.0047131604 -0.0092587631 -3.7601482e-19)
(-0.0045852535 -0.0088169699 1.3052512e-19)
(-0.0044558084 -0.0084460275 -9.0242872e-20)
(-0.0043183513 -0.0081302123 -6.4836612e-19)
(0.0082920668 -0.1768645 2.1475027e-16)
(0.019172284 -0.17671302 2.962669e-16)
(0.031315353 -0.17462942 2.7954988e-16)
(0.042606926 -0.17108848 1.4836275e-16)
(0.0537454 -0.1659618 9.119532e-19)
(0.06423704 -0.15937993 1.3050936e-17)
(0.074029489 -0.15148302 2.0319638e-17)
(0.083068518 -0.1423719 -3.2528053e-17)
(0.091271432 -0.13213558 -3.9809982e-18)
(0.09853831 -0.12087041 4.4593528e-17)
(0.10476717 -0.10869327 4.3882233e-17)
(0.10986701 -0.095744871 3.0486263e-17)
(0.11376745 -0.082186383 -7.4883285e-20)
(0.11642465 -0.068192468 1.0631462e-17)
(0.11782331 -0.05394309 -6.2734283e-18)
(0.11797593 -0.039615591 1.8856384e-17)
(0.11691947 -0.02537801 9.9749756e-18)
(0.1147105 -0.01138439 8.0081366e-18)
(0.111424 0.0022297685 -6.7493609e-18)
(0.10715254 0.015345463 -2.0485231e-17)
(0.10197323 0.027866637 7.4017778e-18)
(0.095982599 0.039714351 2.8372277e-17)
(0.089270878 0.05082652 -1.2093966e-17)
(0.08192407 0.061154925 -3.5444763e-17)
(0.074022642 0.070662571 -2.2957462e-17)
(0.065640803 0.079320749 -1.837697e-18)
(0.056846536 0.087106161 9.6771791e-18)
(0.047702301 0.093998322 -4.5466883e-18)
(0.038267152 0.09997775 -2.6003531e-17)
(0.028598425 0.10502404 -1.3474696e-17)
(0.018753966 0.10911488 -9.627601e-18)
(0.0087914298 0.11222813 -1.5388954e-17)
(-0.0012534676 0.11433959 -1.4339755e-17)
(-0.011283401 0.11542125 -9.0340554e-18)
(-0.021218618 0.11545017 -8.2803886e-18)
(-0.030978748 0.11440746 -3.8671983e-17)
(-0.040466488 0.11228214 -4.9253599e-17)
(-0.049575429 0.10907408 -2.7896286e-17)
(-0.05819059 0.10479768 -1.4653086e-17)
(-0.066190675 0.099485615 -1.6370413e-17)
(-0.073451495 0.093192199 9.8387931e-18)
(-0.079850563 0.085996103 2.3108562e-17)
(-0.085272752 0.078001938 1.7895371e-17)
(-0.089616726 0.069340312 -2.4736975e-17)
(-0.092801605 0.060165961 -4.3327595e-17)
(-0.094772954 0.050653788 -1.037059e-17)
(-0.095507213 0.040992901 1.1709196e-17)
(-0.095015012 0.031379525 1.2200505e-17)
(-0.093342855 0.022008754 1.2935569e-18)
(-0.0905721 0.013065604 -1.0769351e-17)
(-0.086819483 0.0047178523 1.8530187e-17)
(-0.082216231 -0.0028924734 2.5253819e-17)
(-0.076916214 -0.0096522801 2.3865788e-18)
(-0.071102689 -0.015484395 -9.2641326e-18)
(-0.064946661 -0.020346191 -1.296195e-18)
(-0.058617809 -0.024228726 1.1126209e-17)
(-0.052276079 -0.027153775 1.7815984e-17)
(-0.04606612 -0.029170138 1.1478013e-17)
(-0.040113378 -0.030348949 -4.5607755e-18)
(-0.034521451 -0.030778607 -3.2977972e-18)
(-0.029370674 -0.030559499 3.4186274e-18)
(-0.02471792 -0.0297989 6.775515e-18)
(-0.020597656 -0.028606363 -1.268403e-18)
(-0.017023646 -0.027089899 -6.3340388e-19)
(-0.013990743 -0.025352218 6.2894875e-19)
(-0.011477535 -0.023487565 1.126532e-18)
(-0.0094485499 -0.021580074 1.9132397e-18)
(-0.0078574988 -0.01970061 9.1471564e-19)
(-0.0066509872 -0.017906745 1.8497295e-18)
(-0.0057712875 -0.016242106 1.2796514e-18)
(-0.0051593258 -0.014736777 -1.0934895e-18)
(-0.0047571748 -0.013407813 -9.7670831e-19)
(-0.0045105727 -0.0122604 8.4827392e-19)
(-0.0043709855 -0.011289778 -1.1405703e-19)
(-0.0042971289 -0.010483198 -3.1024106e-19)
(-0.0042558913 -0.0098223255 -3.9117914e-19)
(-0.0042223961 -0.0092857036 1.5952726e-19)
(-0.0041793976 -0.0088507175 1.3971138e-19)
(-0.0041163822 -0.008495113 -2.418984e-19)
(-0.0040286012 -0.0081984464 -5.0248907e-19)
(0.0096086928 -0.20320274 2.2695112e-16)
(0.022283666 -0.20304079 1.1753297e-16)
(0.036236213 -0.20037964 -1.6413239e-17)
(0.048986513 -0.19607942 1.1207777e-16)
(0.061459069 -0.19003978 5.674428e-17)
(0.073141026 -0.18246495 -7.3698451e-17)
(0.084048314 -0.1735038 -1.3628335e-17)
(0.09415128 -0.16323278 -3.2682975e-18)
(0.10336159 -0.15171274 5.280781e-18)
(0.11155278 -0.13902279 1.0639722e-17)
(0.1185888 -0.1252803 -1.2420538e-17)
(0.1243473 -0.11064295 -6.4544914e-18)
(0.12873482 -0.095300589 -9.3222734e-18)
(0.13169473 -0.079462932 -7.2013646e-18)
(0.13320918 -0.063346663 2.7449393e-17)
(0.13329692 -0.047164043 8.6187373e-18)
(0.13200782 -0.031114137 -6.3139351e-18)
(0.1294165 -0.015376149 -5.4976906e-18)
(0.12561521 -0.00010532659 -9.5587466e-18)
(0.12072526 0.014565189 4.3680292e-18)
(0.11483864 0.028533255 4.1268022e-18)
(0.10807222 0.041716606 1.6028658e-17)
(0.10053316 0.054054523 3.0080727e-18)
(0.092320883 0.065503 1.8672504e-17)
(0.083525958 0.076031062 3.1187896e-17)
(0.074229378 0.085616802 4.0028257e-17)
(0.064502795 0.094243556 3.8884881e-17)
(0.054409829 0.10189638 3.9059578e-17)
(0.044008568 0.10855979 4.1163689e-17)
(0.033353765 0.11421505 3.9466552e-17)
(0.02250103 0.11883878 2.4849967e-17)
(0.011506512 0.12240552 1.5822872e-17)
(0.00039952758 0.12488548 1.5326721e-17)
(-0.010719039 0.12624225 1.5257837e-17)
(-0.021767892 0.1264413 1.9406262e-17)
(-0.032661414 0.12545235 -5.7320239e-18)
(-0.043292412 0.12325213 -4.9207449e-18)
(-0.053541308 0.11982845 9.0279686e-18)
(-0.063275683 0.11518523 1.1605903e-17)
(-0.072352695 0.1093475 3.2194675e-17)
(-0.080623002 0.10236624 3.1659496e-17)
(-0.087936307 0.094322368 2.563601e-17)
(-0.094148469 0.085329607 2.2283935e-18)
(-0.099129892 0.075535305 1.3377165e-17)
(-0.10277449 0.065118791 -3.5350089e-18)
(-0.10500804 0.054286801 -1.1495275e-17)
(-0.10579452 0.043266004 -1.4460575e-18)
(-0.10514076 0.032293819 -3.3115408e-18)
(-0.10309932 0.021607636 -2.2087742e-19)
(-0.099766528 0.011432498 1.3024392e-17)
(-0.095283101 0.0019666552 2.9057751e-17)
(-0.089806154 -0.0065949812 1.2387431e-17)
(-0.083534592 -0.01413911 4.077573e-18)
(-0.076686087 -0.020572342 -1.079165e-17)
(-0.069469609 -0.025847735 -1.16851e-17)
(-0.062090514 -0.02996074 1.3599912e-17)
(-0.054740481 -0.032944714 2.1016362e-17)
(-0.047590953 -0.034865571 1.0099645e-17)
(-0.040788633 -0.035815544 -8.6025967e-18)
(-0.034452589 -0.035906682 -1.2281682e-17)
(-0.028672863 -0.03526419 2.3268129e-18)
(-0.023510692 -0.034020117 1.0986813e-17)
(-0.019000363 -0.032307918 6.7232939e-19)
(-0.015151394 -0.030258049 -2.3886205e-18)
(-0.011950484 -0.027993357 -3.0326403e-18)
(-0.0093657422 -0.025624941 -2.8432566e-18)
(-0.007348508 -0.02325211 5.4711428e-18)
(-0.0058375422 -0.020955908 2.8530567e-18)
(-0.0047643962 -0.018801329 -1.3722607e-18)
(-0.0040561045 -0.016835922 -2.1880196e-18)
(-0.0036389632 -0.015090745 -8.3122701e-20)
(-0.0034413472 -0.013580862 -6.6470216e-19)
(-0.0033970945 -0.012306586 -3.0972017e-19)
(-0.003447945 -0.011256611 -2.8556715e-19)
(-0.0035453304 -0.010410203 -3.6031968e-19)
(-0.0036516597 -0.0097402543 -6.9448277e-19)
(-0.0037400628 -0.009216814 2.533696e-19)
(-0.0037931876 -0.0088092445 5.5436683e-19)
(-0.00380207 -0.0084881954 -1.4795407e-19)
(-0.0037648859 -0.0082275104 -5.9663451e-19)
(0.011362859 -0.23397836 4.9352767e-16)
(0.026398864 -0.2337118 6.5981609e-16)
(0.042514419 -0.22999832 7.0529031e-19)
(0.056802551 -0.2245175 2.3919883e-16)
(0.070611043 -0.21723171 1.7291174e-16)
(0.083458911 -0.20844834 6.2166868e-18)
(0.095496719 -0.19828512 -2.2757845e-18)
(0.10673089 -0.18674507 2.1052961e-17)
(0.11705735 -0.17382099 7.4821577e-18)
(0.1263004 -0.1595513 4.51047e-17)
(0.13426657 -0.14404698 5.3219245e-17)
(0.14078411 -0.12748722 3.8213844e-17)
(0.14572547 -0.11010123 4.9086825e-17)
(0.14901659 -0.09214638 2.4102184e-17)
(0.15063724 -0.073888133 6.0639591e-17)
(0.15061571 -0.055583916 6.760004e-17)
(0.14902038 -0.037471493 9.5450484e-18)
(0.1459503 -0.019760885 -9.350905e-19)
(0.14152383 -0.0026303274 -1.1150386e-17)
(0.1358916 0.013772325 3.7285776e-17)
(0.1291728 0.029338842 4.1034691e-17)
(0.12150633 0.043986089 8.4913073e-18)
(0.11302053 0.057657682 4.5598017e-17)
(0.10383069 0.070317437 4.8260674e-17)
(0.094038729 0.081944283 7.304184e-17)
(0.083732607 0.092526986 1.3361748e-16)
(0.072986816 0.10205911 1.0274409e-16)
(0.061864396 0.11053435 8.7802516e-17)
(0.050420143 0.11794334 9.3312669e-17)
(0.038703339 0.1242706 8.5555045e-17)
(0.026764394 0.12949271 1.003534e-16)
(0.014655182 0.13358033 6.6264655e-17)
(0.0023969074 0.13649434 2.979928e-17)
(-0.0099129958 0.13819507 5.3828127e-17)
(-0.022189281 0.13862573 6.0088437e-17)
(-0.034343863 0.13774389 6.0452169e-17)
(-0.046259938 0.1355096 6.3630676e-17)
(-0.057803952 0.13189361 5.1066978e-17)
(-0.068823762 0.12688418 7.7719853e-17)
(-0.079151183 0.12049384 9.5294175e-17)
(-0.088606334 0.11276596 5.3120556e-17)
(-0.097004206 0.1037807 2.8982649e-17)
(-0.10416352 0.093659609 6.3802182e-18)
(-0.1099176 0.0825679 5.9349641e-18)
(-0.11412649 0.070713319 -1.6919911e-17)
(-0.11668869 0.058341027 -1.8134426e-18)
(-0.1175502 0.045724295 6.1864547e-18)
(-0.11671114 0.033152577 4.6434715e-18)
(-0.11423064 0.020917299 -7.5829401e-19)
(-0.11022918 0.0092964961 3.5159786e-18)
(-0.10485788 -0.001466684 2.185521e-17)
(-0.098320925 -0.011142654 8.7734145e-18)
(-0.090886221 -0.019586569 2.8159732e-18)
(-0.082798596 -0.026692269 -8.916676e-18)
(-0.074318362 -0.03241079 -1.3606419e-17)
(-0.065695393 -0.036745272 2.2511926e-18)
(-0.057160038 -0.039745314 1.7539809e-17)
(-0.048915646 -0.041499564 1.2169286e-17)
(-0.04113358 -0.042127451 -4.1380112e-18)
(-0.033950232 -0.041770896 -6.8985529e-18)
(-0.027465806 -0.040585929 1.4025162e-18)
(-0.021745219 -0.038734914 1.0236567e-17)
(-0.016821098 -0.036380197 8.124978e-19)
(-0.012696664 -0.033679171 -6.6237058e-19)
(-0.0093472915 -0.030778904 -1.4406958e-18)
(-0.0067277548 -0.027809021 -6.3329001e-18)
(-0.0047725086 -0.024888591 -7.0856835e-19)
(-0.0034011153 -0.022108959 3.9210471e-19)
(-0.0025266388 -0.019543184 8.3048014e-19)
(-0.0020573004 -0.017242905 -8.4920105e-19)
(-0.001901579 -0.01523878 -1.239595e-18)
(-0.0019708439 -0.013543056 -2.1087714e-18)
(-0.0021845027 -0.012148493 -9.74367e-19)
(-0.0024730097 -0.011034997 6.4912614e-20)
(-0.002779305 -0.010171585 7.1049793e-20)
(-0.003061073 -0.0095192996 -3.2874957e-19)
(-0.0032899421 -0.0090372542 -4.4899409e-19)
(-0.0034493044 -0.0086844754 1.6814509e-19)
(-0.0035331431 -0.0084228143 1.3246602e-19)
(-0.003544219 -0.0082192316 -2.6918431e-19)
(0.013923392 -0.27081191 4.4863839e-16)
(0.032241356 -0.27008953 6.958881e-16)
(0.05090834 -0.26430217 3.9501266e-16)
(0.066636856 -0.25686555 2.8322048e-16)
(0.081594602 -0.24781629 3.8907438e-16)
(0.095435354 -0.23756585 1.0840804e-16)
(0.10854639 -0.226087 -1.4456027e-17)
(0.12096626 -0.21321072 -1.5431649e-16)
(0.13254419 -0.19879156 -6.5202499e-17)
(0.14300925 -0.18279105 -1.0182615e-16)
(0.15207004 -0.1653073 -1.7748823e-16)
(0.15947778 -0.14655205 -8.6650632e-17)
(0.16505619 -0.12681229 -9.3505395e-17)
(0.16870931 -0.10641256 -4.257962e-18)
(0.17041683 -0.085684295 -4.1059555e-18)
(0.17022296 -0.064943699 -3.0482048e-17)
(0.16822278 -0.044477011 -4.219864e-17)
(0.16454834 -0.02453178 -5.8501769e-17)
(0.15935338 -0.0053127053 -1.0536727e-17)
(0.15282647 0.013017711 6.394234e-17)
(0.14512223 0.030345334 8.2123564e-17)
(0.13640656 0.046589972 4.3890935e-18)
(0.12683376 0.061703884 2.2157484e-17)
(0.11653791 0.07566371 4.525218e-17)
(0.10563366 0.088463565 5.3164557e-17)
(0.094215834 0.10010807 1.1678373e-16)
(0.082360386 0.11060574 9.2304737e-17)
(0.070127312 0.11996301 6.2389302e-17)
(0.057564915 0.12817971 8.0142434e-17)
(0.044713554 0.1352456 5.5407942e-17)
(0.031614218 0.14113841 8.5435929e-17)
(0.018307574 0.14582331 4.9525547e-17)
(0.0048119945 0.1492509 -1.7033826e-17)
(-0.0087929786 0.15138263 2.3539696e-17)
(-0.022417936 0.15212332 3.0681499e-17)
(-0.035971346 0.15142177 6.3667424e-17)
(-0.04932974 0.14921438 6.4975663e-17)
(-0.062345229 0.14544824 2.7929835e-17)
(-0.07484367 0.14008914 7.5057721e-17)
(-0.086627299 0.13313034 7.089854e-17)
(-0.09747935 0.12460142 1.6374091e-17)
(-0.10717158 0.11457697 2.6920728e-17)
(-0.11547511 0.10318373 4.8783444e-17)
(-0.1221745 0.090605147 -1.0359352e-17)
(-0.12708405 0.077081458 -4.7448685e-17)
(-0.13006439 0.062904206 -3.6126683e-17)
(-0.13103553 0.048404733 -3.0846751e-18)
(-0.1299864 0.033938437 3.6461923e-17)
(-0.12698112 0.019865881 5.4315972e-18)
(-0.12216549 0.0065342205 -2.8736926e-17)
(-0.11572781 -0.0057486216 -4.6241064e-18)
(-0.10792141 -0.016726037 6.6191025e-18)
(-0.099071825 -0.026202125 -7.0927246e-18)
(-0.089491962 -0.03405894 1.0017633e-17)
(-0.079499982 -0.040247379 2.4542766e-17)
(-0.06939973 -0.044782873 7.1111494e-18)
(-0.059468239 -0.047737671 8.1642086e-18)
(-0.049946584 -0.049230664 1.5835229e-17)
(-0.041034421 -0.049416378 3.987767e-18)
(-0.032887169 -0.048474407 7.6882683e-18)
(-0.02561523 -0.046598984 1.0485261e-17)
(-0.01928595 -0.043989489 1.1982017e-17)
(-0.013928143 -0.040843001 1.0925991e-17)
(-0.009536105 -0.037348715 4.341237e-18)
(-0.0060690583 -0.033683639 -3.4681396e-18)
(-0.0034663308 -0.029997072 -2.400149e-18)
(-0.0016410172 -0.026432892 2.1541596e-18)
(-0.00048647871 -0.023093768 6.7982518e-18)
(0.00010588892 -0.020062156 1.5877221e-18)
(0.00025146322 -0.017393018 -2.8734655e-18)
(6.3209032e-05 -0.015115393 -1.0892647e-18)
(-0.00034932811 -0.013234253 3.815574e-19)
(-0.00088760798 -0.011733112 1.3574677e-18)
(-0.0014697318 -0.010579737 5.1759591e-19)
(-0.0020283857 -0.0097325926 -8.9752902e-19)
(-0.0025160455 -0.0091351338 -3.5906504e-19)
(-0.0029038644 -0.0087324196 1.2806571e-19)
(-0.0031772796 -0.0084702879 5.3367409e-19)
(-0.003335274 -0.0082996946 2.1646292e-19)
(-0.0033874603 -0.0081793492 -2.0605773e-19)
(0.017939095 -0.31661609 5.6395211e-16)
(0.040997725 -0.31434211 6.2590276e-16)
(0.062496493 -0.30431256 7.6202447e-16)
(0.079181404 -0.293521 3.5228039e-16)
(0.094765966 -0.28193892 2.9347832e-16)
(0.10920495 -0.26996526 1.6896441e-16)
(0.12325724 -0.25714896 3.0196734e-16)
(0.13693873 -0.24296829 1.5903814e-16)
(0.14997822 -0.22702533 6.9220543e-17)
(0.16192258 -0.20915608 1.8466952e-16)
(0.17231615 -0.18944694 9.7051646e-17)
(0.18079428 -0.16816766 -1.0523748e-17)
(0.18711601 -0.14569544 -3.7191949e-17)
(0.19116278 -0.12245177 -3.372164e-17)
(0.19292178 -0.098857818 1.8609416e-17)
(0.19246444 -0.075306084 -6.3659651e-17)
(0.18992492 -0.052143401 2.9511223e-17)
(0.18548074 -0.029662084 -6.3880223e-17)
(0.17933374 -0.0080965933 -1.1949921e-16)
(0.17172129 0.012375378 -8.6650474e-17)
(0.16284202 0.031636671 -2.0112644e-17)
(0.1528969 0.049614797 5.0260054e-18)
(0.14207151 0.066276724 -1.0210546e-17)
(0.13052207 0.081618742 3.7792383e-17)
(0.1183773 0.09565723 3.7297879e-17)
(0.10573842 0.10841953 6.3294349e-17)
(0.092680832 0.11993528 1.0310539e-16)
(0.079258045 0.13022895 8.6566579e-17)
(0.065507425 0.13931382 9.6825716e-17)
(0.051455555 0.14718768 6.4276349e-17)
(0.037127581 0.15383039 8.3927162e-17)
(0.022547947 0.15920176 8.6787756e-17)
(0.0077375526 0.16324512 4.0250266e-17)
(-0.0072690123 0.16590057 6.7397672e-17)
(-0.022369113 0.16705761 7.1049677e-17)
(-0.037466599 0.16663643 7.2292821e-17)
(-0.052440211 0.16454382 6.6656807e-17)
(-0.067126802 0.16069566 5.4589534e-17)
(-0.081328109 0.15502647 8.1181479e-17)
(-0.094812285 0.14750103 8.5154322e-17)
(-0.10731835 0.13812639 6.389887e-17)
(-0.11856443 0.12696411 3.4158975e-17)
(-0.12826073 0.11414127 3.0564887e-17)
(-0.13612754 0.099858577 -4.1083155e-17)
(-0.14191723 0.084392834 -2.4961979e-17)
(-0.14543762 0.068091679 -2.9472413e-17)
(-0.1465713 0.051359363 -3.6444074e-17)
(-0.14528944 0.034635372 -1.7245217e-17)
(-0.14165939 0.018368049 -9.2091748e-19)
(-0.1358602 0.0029819378 -1.306809e-18)
(-0.1281175 -0.011095906 -7.7133725e-18)
(-0.11876436 -0.023583512 -1.3200175e-17)
(-0.10820036 -0.034243365 -3.2851676e-17)
(-0.096818526 -0.042936692 9.4260275e-18)
(-0.085012408 -0.0496159 3.6480689e-17)
(-0.073153197 -0.054315185 -1.1531881e-17)
(-0.061574491 -0.05713837 -2.8771714e-17)
(-0.050561686 -0.05824466 -2.9457764e-18)
(-0.040346394 -0.057833925 2.0310074e-18)
(-0.031104342 -0.056133159 2.2800857e-17)
(-0.02295547 -0.053383674 9.9081156e-18)
(-0.015967388 -0.049829855 -9.4391767e-18)
(-0.010161787 -0.045710581 1.0805884e-18)
(-0.0055216274 -0.041252387 2.3151837e-18)
(-0.0019833142 -0.036666697 7.2412846e-18)
(0.00053309311 -0.032134384 6.1164727e-18)
(0.0021381272 -0.027815264 -4.5979112e-18)
(0.0029743916 -0.023830821 5.9597419e-18)
(0.0031775082 -0.020272247 3.1024991e-18)
(0.0028920785 -0.017197592 7.5188574e-19)
(0.0022591519 -0.014633119 1.0917109e-18)
(0.0014128825 -0.012574161 -3.3896125e-20)
(0.00047106769 -0.010992972 1.9074734e-18)
(-0.00047162463 -0.0098399484 1.920367e-18)
(-0.0013337652 -0.0090541924 -8.8723797e-20)
(-0.0020598135 -0.008562035 7.6353462e-20)
(-0.0026238131 -0.0082889639 2.2083933e-19)
(-0.0030151134 -0.0081639546 1.9908538e-19)
(-0.0032405827 -0.0081244244 5.0797993e-19)
(-0.0033197952 -0.0081192423 7.1574057e-19)
(0.024050483 -0.3763318 5.6557101e-16)
(0.053859871 -0.36967997 1.4371216e-15)
(0.078093931 -0.35114 1.5255245e-15)
(0.094655474 -0.33462097 1.0058827e-15)
(0.10994656 -0.31947216 4.463521e-16)
(0.12440619 -0.30565943 1.0249266e-16)
(0.1393105 -0.29170716 -1.2011305e-17)
(0.15448572 -0.27644443 2.1867398e-16)
(0.16939918 -0.25905338 1.099182e-16)
(0.18326752 -0.23919191 6.1816982e-17)
(0.19537276 -0.21696028 2.162447e-16)
(0.20518679 -0.19274135 7.9332977e-17)
(0.21239374 -0.16705851 8.5768672e-17)
(0.21686383 -0.14047463 4.5470551e-17)
(0.21861173 -0.11353206 2.2953232e-17)
(0.21775727 -0.086720467 5.3304338e-17)
(0.21449337 -0.060460563 -2.849209e-17)
(0.20906026 -0.035096935 -3.7902033e-17)
(0.20172281 -0.01089641 -3.5410504e-17)
(0.19278298 0.011950534 -6.8257997e-20)
(0.18249394 0.033325946 4.2364648e-17)
(0.17110062 0.053172145 6.6146973e-18)
(0.15882634 0.07147954 -1.9341548e-17)
(0.1458533 0.088273264 -9.5171898e-18)
(0.13232554 0.10360133 -2.8081206e-17)
(0.11834962 0.11752278 -3.8633068e-17)
(0.10399735 0.13009648 -3.2284415e-17)
(0.089311225 0.14137175 -1.6655142e-17)
(0.074311869 0.15138066 -6.2906426e-18)
(0.05900536 0.16013253 5.9967739e-21)
(0.043394141 0.1676111 -1.8314208e-17)
(0.027481863 0.17377258 -9.8587949e-18)
(0.011273157 0.17854868 8.3047578e-19)
(-0.0052341398 0.18184886 1.8400876e-17)
(-0.021923921 0.18355675 1.4313494e-17)
(-0.03872178 0.18354847 -4.3273713e-17)
(-0.055499905 0.18169329 -2.3445026e-17)
(-0.072082342 0.17786623 1.5304877e-17)
(-0.08824602 0.17195914 1.771851e-17)
(-0.10372074 0.16389583 5.1382107e-17)
(-0.11819316 0.15364846 8.2696373e-17)
(-0.13131533 0.14125439 7.4591894e-17)
(-0.14271969 0.12683276 6.2148251e-17)
(-0.15204163 0.11059809 -1.2349934e-17)
(-0.15894902 0.092867185 -7.5195141e-17)
(-0.16317558 0.074055246 -8.4049827e-17)
(-0.16455008 0.054658806 -3.2509944e-17)
(-0.16301775 0.035227437 1.1533016e-17)
(-0.15865724 0.016329065 2.0629818e-18)
(-0.15164653 -0.0015019305 -2.7630973e-17)
(-0.14228841 -0.017735824 -7.9751409e-18)
(-0.13105229 -0.032006075 -1.2665141e-17)
(-0.11839831 -0.04403018 -3.9107317e-17)
(-0.10483044 -0.053652018 1.8102741e-18)
(-0.090839624 -0.06083206 5.0831676e-17)
(-0.076880946 -0.065633626 -1.7296476e-17)
(-0.063356175 -0.068204802 -2.7429594e-17)
(-0.05060215 -0.068758657 -3.3922829e-19)
(-0.03888568 -0.067553663 -5.5502712e-18)
(-0.028403121 -0.064876322 1.5837971e-17)
(-0.019282267 -0.061025785 -1.6705064e-17)
(-0.011587663 -0.056300423 -8.8608776e-18)
(-0.0053293076 -0.050988111 6.8276459e-19)
(-0.00047347265 -0.045364274 -2.2022546e-20)
(0.0030596506 -0.039677703 2.6873027e-18)
(0.0053921475 -0.034148207 -4.9432064e-18)
(0.0066701621 -0.028945013 -1.2457468e-18)
(0.0070618978 -0.024215757 3.1411696e-18)
(0.0067424802 -0.020061708 4.371077e-18)
(0.0058926317 -0.01654407 -1.6495148e-18)
(0.0046878292 -0.013684139 -2.3334031e-18)
(0.0032914802 -0.01146656 2.5470266e-18)
(0.0018470459 -0.0098463104 2.0240945e-18)
(0.00046945906 -0.0087516278 1.8594224e-18)
(-0.00074987895 -0.0080917318 -1.2033816e-18)
(-0.0017499624 -0.0077733475 7.9273545e-20)
(-0.0025046077 -0.0076962767 5.8050386e-19)
(-0.003011257 -0.0077682012 -1.2904492e-19)
(-0.0032888289 -0.007909791 3.0939374e-19)
(-0.0033711476 -0.0080582724 4.3593813e-19)
(0.031252375 -0.45633949 -5.118639e-16)
(0.069679939 -0.43980549 -1.094126e-15)
(0.096129745 -0.40552088 1.0829667e-15)
(0.11110227 -0.37976129 8.5085667e-16)
(0.12516858 -0.35992781 6.1815595e-16)
(0.13931225 -0.34458208 -2.9266535e-16)
(0.15544702 -0.33012069 -2.305059e-16)
(0.17285375 -0.31430216 -2.3844053e-16)
(0.19053303 -0.29567411 -2.8138914e-16)
(0.20715864 -0.27368295 -1.7138838e-16)
(0.22162849 -0.24852261 -1.3164186e-16)
(0.23320574 -0.22079749 -7.664628e-17)
(0.24150805 -0.19127086 -8.3874114e-17)
(0.24643171 -0.16071155 -2.2985475e-17)
(0.24806418 -0.12982161 -4.745946e-17)
(0.24661461 -0.09920907 -7.4272619e-18)
(0.2423672 -0.069379639 -4.9385694e-17)
(0.23565037 -0.040735854 -5.4965968e-17)
(0.22681401 -0.01357864 -9.9275216e-18)
(0.21624034 0.011892762 1.5811757e-17)
(0.20424679 0.035565509 -4.602754e-17)
(0.19113743 0.057406306 -5.6000675e-17)
(0.17718026 0.077440646 -6.6343987e-17)
(0.16258718 0.095734694 -1.2280072e-16)
(0.14751838 0.11238034 -1.0896149e-16)
(0.13208377 0.12747997 -1.5273568e-16)
(0.11634721 0.14113213 -1.7658522e-16)
(0.10033387 0.15341967 -1.2187552e-16)
(0.084039823 0.16440005 -1.342149e-16)
(0.067442266 0.1740986 -1.210523e-16)
(0.050512521 0.18250525 -1.9107095e-16)
(0.03322242 0.18957203 -1.8033813e-16)
(0.015552165 0.19521564 -1.0905376e-16)
(-0.0025405338 0.19932454 -1.1612794e-16)
(-0.02093861 0.20174879 -1.1704828e-16)
(-0.039593933 0.2023258 -1.9252836e-16)
(-0.058379255 0.20087545 -1.448933e-16)
(-0.077107907 0.19721922 -4.161322e-17)
(-0.095532633 0.19119168 -2.8444581e-17)
(-0.11334134 0.18265914 2.6467336e-17)
(-0.13015968 0.17154157 6.2368322e-17)
(-0.14555913 0.1578357 7.1831131e-17)
(-0.15907335 0.14163925 4.5590299e-17)
(-0.17022569 0.12317299 2.8410661e-17)
(-0.17856862 0.10279516 -5.0299062e-17)
(-0.18373095 0.081001452 -7.2212164e-17)
(-0.18546142 0.058405364 -5.0957961e-17)
(-0.1836604 0.035700182 -2.5030516e-17)
(-0.17841074 0.013614212 -2.5692401e-17)
(-0.16993573 -0.0071614662 -2.7834553e-17)
(-0.1586121 -0.025990549 1.3638108e-17)
(-0.145034 -0.04236908 -1.1447924e-17)
(-0.12980965 -0.055965905 -2.3915018e-17)
(-0.11357537 -0.066610663 -1.6471453e-18)
(-0.096943991 -0.074282603 1.5882153e-17)
(-0.080473892 -0.0790897 -9.7181444e-18)
(-0.064648039 -0.081242185 -4.7297838e-18)
(-0.049861808 -0.081025173 5.2764865e-18)
(-0.036419373 -0.078772665 -8.4947551e-18)
(-0.024536394 -0.074845576 -3.2783929e-18)
(-0.014344863 -0.069613845 -1.7338873e-17)
(-0.0059009936 -0.063440438 3.2047849e-18)
(0.00079621942 -0.05667447 -3.7944131e-18)
(0.0058029651 -0.049650956 -4.8161046e-19)
(0.0092462468 -0.042650285 -1.1508096e-18)
(0.011275646 -0.035928172 -1.4940525e-17)
(0.01207735 -0.029691994 1.2663752e-18)
(0.01186224 -0.024107235 1.4094515e-18)
(0.010851794 -0.019286725 1.2251931e-18)
(0.009270716 -0.015293456 -3.356913e-18)