/*--------------------------------*- C++ -*----------------------------------*\
| =========                 |                                                 |
| \\      /  F ield         | OpenFOAM: The Open Source CFD Toolbox           |
|  \\    /   O peration     | Version:  2106                                  |
|   \\  /    A nd           | Website:  www.openfoam.com                      |
|    \\/     M anipulation  |                                                 |
\*---------------------------------------------------------------------------*/
FoamFile
{
    version     2.0;
    format      ascii;
    arch        "LSB;label=32;scalar=64";
    class       volVectorField;
    location    "0.008";
    object      U;
}
// * * * * * * * * * * * * * * * * * * * * * * * * * * * * * * * * * * * * * //

dimensions      [0 1 -1 0 0 0 0];

internalField   nonuniform List<vector> 
256
(
(0.043934689 -0.034648765 0)
(0.12432717 -0.029278354 0)
(0.18636711 -0.01960563 0)
(0.21949262 -0.0068190731 0)
(0.2199099 0.0066455705 0)
(0.18731705 0.01969162 0)
(0.12523022 0.029695232 0)
(0.044346117 0.035306266 0)
(-0.044346117 0.035306266 0)
(-0.12523022 0.029695232 0)
(-0.18731705 0.01969162 0)
(-0.2199099 0.0066455705 0)
(-0.21949262 -0.0068190731 0)
(-0.18636711 -0.01960563 0)
(-0.12432717 -0.029278354 0)
(-0.043934689 -0.034648765 0)
(0.048708877 -0.13554942 0)
(0.13766198 -0.11464016 0)
(0.20628002 -0.076812139 0)
(0.24276948 -0.026889064 0)
(0.24359504 0.025669284 0)
(0.20810171 0.076194484 0)
(0.13943435 0.1147082 0)
(0.049490802 0.13614359 0)
(-0.049490802 0.13614359 0)
(-0.13943435 0.1147082 0)
(-0.20810171 0.076194484 0)
(-0.24359504 0.025669284 0)
(-0.24276948 -0.026889064 0)
(-0.20628002 -0.076812139 0)
(-0.13766198 -0.11464016 0)
(-0.048708877 -0.13554942 0)
(0.066854275 -0.21822179 0)
(0.18876288 -0.18422693 0)
(0.28264322 -0.12321657 0)
(0.33210956 -0.043208272 0)
(0.33353541 0.040580363 0)
(0.28582271 0.12255828 0)
(0.19190698 0.18588936 0)
(0.068241261 0.22161178 0)
(-0.06824126 0.22161178 0)
(-0.19190698 0.18588936 0)
(-0.28582271 0.12255828 0)
(-0.33353541 0.040580363 0)
(-0.33210956 -0.043208272 0)
(-0.28264322 -0.12321657 0)
(-0.18876288 -0.18422693 0)
(-0.066854275 -0.21822179 0)
(0.096983311 -0.39931693 0)
(0.27328383 -0.33708948 0)
(0.4080822 -0.2252487 0)
(0.47852287 -0.079036102 0)
(0.48228622 0.072975073 0)
(0.4165706 0.22253873 0)
(0.28163117 0.33864249 0)
(0.10059394 0.4041148 0)
(-0.10059394 0.4041148 0)
(-0.28163117 0.33864249 0)
(-0.4165706 0.22253873 0)
(-0.48228622 0.072975073 0)
(-0.47852287 -0.079036102 0)
(-0.4080822 -0.2252487 0)
(-0.27328383 -0.33708948 0)
(-0.096983311 -0.39931693 0)
(0.17500267 -0.5773069 0)
(0.49347979 -0.48497784 0)
(0.7363889 -0.32202153 0)
(0.86160391 -0.11413231 0)
(0.86789335 0.099884402 0)
(0.75107622 0.31754361 0)
(0.50884308 0.49218025 0)
(0.18180136 0.59300665 0)
(-0.18180136 0.59300665 0)
(-0.50884308 0.49218025 0)
(-0.75107622 0.31754361 0)
(-0.86789335 0.099884402 0)
(-0.86160391 -0.11413231 0)
(-0.7363889 -0.32202153 0)
(-0.49347979 -0.48497784 0)
(-0.17500267 -0.5773069 0)
(0.29233022 -1.0929513 0)
(0.82195321 -0.91936517 0)
(1.2203044 -0.60950982 0)
(1.4201953 -0.2144347 0)
(1.4313286 0.18686479 0)
(1.2448155 0.59634661 0)
(0.84740363 0.9281395 0)
(0.30315958 1.1197249 0)
(-0.30315958 1.1197249 0)
(-0.84740363 0.9281395 0)
(-1.2448155 0.59634661 0)
(-1.4313286 0.18686479 0)
(-1.4201953 -0.2144347 0)
(-1.2203044 -0.60950982 0)
(-0.82195321 -0.91936517 0)
(-0.29233022 -1.0929513 0)
(0.47215968 -1.654324 0)
(1.3326465 -1.3779204 0)
(1.9789559 -0.89790464 0)
(2.3016064 -0.3145182 0)
(2.3038735 0.26612456 0)
(1.9870118 0.88170048 0)
(1.3445434 1.4009304 0)
(0.47955121 1.7062157 0)
(-0.47955121 1.7062157 0)
(-1.3445434 1.4009304 0)
(-1.9870118 0.88170048 0)
(-2.3038735 0.26612456 0)
(-2.3016064 -0.3145182 0)
(-1.9789559 -0.89790464 0)
(-1.3326465 -1.3779204 0)
(-0.47215968 -1.654324 0)
(0.3853137 -2.9778538 0)
(1.0841886 -2.4941065 0)
(1.5978743 -1.6292882 0)
(1.8403902 -0.55390395 0)
(1.8053134 0.5130036 0)
(1.5186325 1.60106 0)
(1.0054022 2.4987198 0)
(0.35257017 3.0220441 0)
(-0.35257017 3.0220441 0)
(-1.0054022 2.4987198 0)
(-1.5186325 1.60106 0)
(-1.8053134 0.5130036 0)
(-1.8403902 -0.55390395 0)
(-1.5978743 -1.6292882 0)
(-1.0841886 -2.4941065 0)
(-0.3853137 -2.9778538 0)
(-0.3503947 -3.0085171 0)
(-1.0003688 -2.4891398 0)
(-1.5126219 -1.5857811 0)
(-1.7941749 -0.49343845 0)
(-1.8221599 0.56386944 0)
(-1.5786937 1.6178775 0)
(-1.0723844 2.466358 0)
(-0.38148519 2.9486227 0)
(0.38148519 2.9486227 0)
(1.0723844 2.466358 0)
(1.5786937 1.6178775 0)
(1.8221599 0.56386944 0)
(1.7941749 -0.49343845 0)
(1.5126219 -1.5857811 0)
(1.0003688 -2.4891398 0)
(0.3503947 -3.0085171 0)
(-0.48121872 -1.7451889 0)
(-1.3520683 -1.4345697 0)
(-1.9977543 -0.89982381 0)
(-2.3110446 -0.26834704 0)
(-2.3025589 0.32676987 0)
(-1.9752037 0.92124288 0)
(-1.3304765 1.4048873 0)
(-0.47229864 1.6858323 0)
(0.47229864 1.6858323 0)
(1.3304765 1.4048873 0)
(1.9752037 0.92124288 0)
(2.3025589 0.32676987 0)
(2.3110446 -0.26834704 0)
(1.9977543 -0.89982381 0)
(1.3520683 -1.4345697 0)
(0.48121872 -1.7451889 0)
(-0.29461987 -1.0895882 0)
(-0.82465109 -0.9025873 0)
(-1.2099052 -0.57636242 0)
(-1.3875834 -0.17696603 0)
(-1.3752532 0.21090937 0)
(-1.1800519 0.59190466 0)
(-0.79443474 0.88912027 0)
(-0.28324381 1.0574233 0)
(0.28324381 1.0574233 0)
(0.79443474 0.88912027 0)
(1.1800519 0.59190466 0)
(1.3752532 0.21090937 0)
(1.3875834 -0.17696603 0)
(1.2099052 -0.57636242 0)
(0.82465109 -0.9025873 0)
(0.29461987 -1.0895882 0)
(-0.18613082 -0.67772948 0)
(-0.52251317 -0.56406305 0)
(-0.77157209 -0.36388991 0)
(-0.89110193 -0.11454485 0)
(-0.88453207 0.13273035 0)
(-0.75480447 0.37064543 0)
(-0.50555705 0.55495224 0)
(-0.17957563 0.65950323 0)
(0.17957563 0.65950323 0)
(0.50555705 0.55495224 0)
(0.75480447 0.37064543 0)
(0.88453207 0.13273035 0)
(0.89110193 -0.11454485 0)
(0.77157209 -0.36388991 0)
(0.52251317 -0.56406305 0)
(0.18613082 -0.67772948 0)
(-0.075175352 -0.33475074 0)
(-0.21003474 -0.27927099 0)
(-0.30937148 -0.18134656 0)
(-0.35545169 -0.057071512 0)
(-0.35187445 0.066421155 0)
(-0.30044532 0.18550155 0)
(-0.20143954 0.27553519 0)
(-0.071948607 0.32623327 0)
(0.071948607 0.32623327 0)
(0.20143954 0.27553519 0)
(0.30044532 0.18550155 0)
(0.35187445 0.066421155 0)
(0.35545169 -0.057071512 0)
(0.30937148 -0.18134656 0)
(0.21003474 -0.27927099 0)
(0.075175352 -0.33475074 0)
(-0.077561787 -0.43211319 0)
(-0.21888249 -0.36359676 0)
(-0.32618913 -0.2398575 0)
(-0.38105076 -0.079916248 0)
(-0.37971399 0.086478506 0)
(-0.32271397 0.24241967 0)
(-0.21547946 0.3603771 0)
(-0.076308619 0.42534786 0)
(0.076308619 0.42534786 0)
(0.21547946 0.3603771 0)
(0.32271397 0.24241967 0)
(0.37971399 0.086478506 0)
(0.38105076 -0.079916248 0)
(0.32618913 -0.2398575 0)
(0.21888249 -0.36359676 0)
(0.077561787 -0.43211319 0)
(0.006431791 0.003303288 0)
(0.019321293 0.0040963801 0)
(0.029756163 0.0043058054 0)
(0.037017579 0.0037155067 0)
(0.038150656 0.00021222163 0)
(0.032599604 -0.0025499637 0)
(0.022078313 -0.0055517706 0)
(0.0074938292 -0.0068493098 0)
(-0.0074938292 -0.0068493098 0)
(-0.022078313 -0.0055517706 0)
(-0.032599604 -0.0025499637 0)
(-0.038150656 0.00021222164 0)
(-0.037017579 0.0037155067 0)
(-0.029756163 0.0043058054 0)
(-0.019321293 0.0040963802 0)
(-0.0064317909 0.003303288 0)
(-0.12265894 -0.50328202 0)
(-0.34785744 -0.4253197 0)
(-0.51931787 -0.28282979 0)
(-0.60950685 -0.096889595 0)
(-0.60754593 0.099973543 0)
(-0.5144474 0.28403298 0)
(-0.34302521 0.42377185 0)
(-0.12072805 0.49993519 0)
(0.12072805 0.49993519 0)
(0.34302521 0.42377185 0)
(0.5144474 0.28403298 0)
(0.60754593 0.099973543 0)
(0.60950685 -0.096889595 0)
(0.51931787 -0.28282979 0)
(0.34785744 -0.4253197 0)
(0.12265894 -0.50328202 0)
)
;

boundaryField
{
    leftWall
    {
        type            cyclic;
    }
    rightWall
    {
        type            cyclic;
    }
    lowerWall
    {
        type            slip;
    }
    atmosphere
    {
        type            slip;
    }
    defaultFaces
    {
        type            empty;
    }
}


// ************************************************************************* //
