/*--------------------------------*- C++ -*----------------------------------*\
| =========                 |                                                 |
| \\      /  F ield         | OpenFOAM: The Open Source CFD Toolbox           |
|  \\    /   O peration     | Version:  2106                                  |
|   \\  /    A nd           | Website:  www.openfoam.com                      |
|    \\/     M anipulation  |                                                 |
\*---------------------------------------------------------------------------*/
FoamFile
{
    version     2.0;
    format      ascii;
    arch        "LSB;label=32;scalar=64";
    class       surfaceScalarField;
    location    "0.001";
    object      phi;
}
// * * * * * * * * * * * * * * * * * * * * * * * * * * * * * * * * * * * * * //

dimensions      [0 3 -1 0 0 0 0];

oriented        oriented;

internalField   nonuniform List<scalar> 
130560
(
-2.8713459e-05
2.8713458e-05
-5.7409674e-05
2.8696215e-05
-8.6071414e-05
2.866174e-05
-0.00011468147
2.8610052e-05
-0.00014322265
2.8541183e-05
-0.00017167782
2.8455172e-05
-0.00020002989
2.835207e-05
-0.00022826183
2.8231939e-05
-0.00025635668
2.8094848e-05
-0.00028429756
2.794088e-05
-0.00031206768
2.7770125e-05
-0.00033965037
2.7582683e-05
-0.00036702903
2.7378665e-05
-0.00039418722
2.7158193e-05
-0.00042110862
2.6921395e-05
-0.00044777703
2.6668413e-05
-0.00047417643
2.6399395e-05
-0.00050029093
2.6114501e-05
-0.00052610483
2.58139e-05
-0.0005516026
2.5497769e-05
-0.00057676889
2.5166297e-05
-0.00060158857
2.4819678e-05
-0.00062604669
2.445812e-05
-0.00065012853
2.4081837e-05
-0.00067381958
2.3691051e-05
-0.00069710558
2.3285996e-05
-0.00071997249
2.2866912e-05
-0.00074240654
2.2434049e-05
-0.0007643942
2.1987664e-05
-0.00078592222
2.1528023e-05
-0.00080697762
2.10554e-05
-0.0008275477
2.0570077e-05
-0.00084762005
2.0072344e-05
-0.00086718254
1.9562497e-05
-0.00088622338
1.9040842e-05
-0.00090473108
1.8507691e-05
-0.00092269444
1.7963362e-05
-0.00094010262
1.7408181e-05
-0.0009569451
1.6842481e-05
-0.0009732117
1.62666e-05
-0.00098889258
1.5680886e-05
-0.0010039783
1.5085687e-05
-0.0010184596
1.4481363e-05
-0.0010323279
1.3868276e-05
-0.0010455747
1.3246795e-05
-0.001058192
1.2617293e-05
-0.0010701721
1.1980149e-05
-0.0010815079
1.1335747e-05
-0.0010921924
1.0684475e-05
-0.0011022191
1.0026725e-05
-0.001111582
9.362893e-06
-0.0011202754
8.6933804e-06
-0.001128294
8.0185908e-06
-0.0011356329
7.3389312e-06
-0.0011422877
6.6548121e-06
-0.0011482543
5.9666466e-06
-0.0011535292
5.2748505e-06
-0.001158109
4.5798418e-06
-0.0011619911
3.8820405e-06
-0.001165173
3.1818689e-06
-0.0011676527
2.4797506e-06
-0.0011694288
1.7761075e-06
-0.0011705002
1.0713439e-06
-0.0011708661
3.6594706e-07
-0.0011705264
-3.3969629e-07
-0.0011694812
-1.0451654e-06
-0.0011677312
-1.7500264e-06
-0.0011652774
-2.4538503e-06
-0.0011621212
-3.1562111e-06
-0.0011582645
-3.8566836e-06
-0.0011537096
-4.5548442e-06
-0.0011484594
-5.25027e-06
-0.0011425168
-5.9425403e-06
-0.0011358856
-6.6312361e-06
-0.0011285696
-7.3159405e-06
-0.0011205734
-7.9962393e-06
-0.0011119017
-8.6717209e-06
-0.0011025597
-9.3419766e-06
-0.0010925531
-1.0006601e-05
-0.0010818879
-1.0665192e-05
-0.0010705706
-1.1317352e-05
-0.0010586079
-1.1962685e-05
-0.0010460071
-1.2600803e-05
-0.0010327757
-1.323132e-05
-0.0010189219
-1.3853854e-05
-0.0010044539
-1.4468029e-05
-0.00098938039
-1.5073476e-05
-0.00097371056
-1.5669827e-05
-0.00095745384
-1.6256724e-05
-0.00094062002
-1.6833812e-05
-0.00092321928
-1.7400743e-05
-0.00090526211
-1.7957175e-05
-0.00088675933
-1.8502772e-05
-0.00086772213
-1.9037207e-05
-0.00084816197
-1.9560156e-05
-0.00082809067
-2.0071305e-05
-0.00080752032
-2.0570347e-05
-0.00078646334
-2.105698e-05
-0.00076493243
-2.1530912e-05
-0.00074294057
-2.1991858e-05
-0.00072050103
-2.243954e-05
-0.00069762734
-2.287369e-05
-0.00067433329
-2.3294047e-05
-0.00065063294
-2.3700358e-05
-0.00062654056
-2.4092378e-05
-0.00060207068
-2.4469873e-05
-0.00057723807
-2.4832617e-05
-0.00055205768
-2.518039e-05
-0.00052654469
-2.5512985e-05
-0.00050071449
-2.5830203e-05
-0.00047458264
-2.6131852e-05
-0.00044816488
-2.6417753e-05
-0.00042147715
-2.6687733e-05
-0.00039453552
-2.6941631e-05
-0.00036735622
-2.7179296e-05
-0.00033995564
-2.7400584e-05
-0.00031235028
-2.7605363e-05
-0.00028455677
-2.779351e-05
-0.00025659185
-2.7964914e-05
-0.00022847238
-2.811947e-05
-0.0002002153
-2.8257088e-05
-0.00017183761
-2.8377684e-05
-0.00014335643
-2.8481186e-05
-0.00011478889
-2.8567533e-05
-8.6152221e-05
-2.8636672e-05
-5.7463658e-05
-2.8688563e-05
-2.8740485e-05
-2.8723174e-05
-1.2966988e-13
-2.8740484e-05
2.8740484e-05
-2.8740484e-05
5.7463658e-05
-2.8723174e-05
8.6152221e-05
-2.8688563e-05
0.00011478889
-2.8636672e-05
0.00014335643
-2.8567533e-05
0.00017183761
-2.8481186e-05
0.0002002153
-2.8377684e-05
0.00022847238
-2.8257088e-05
0.00025659185
-2.811947e-05
0.00028455677
-2.7964914e-05
0.00031235028
-2.779351e-05
0.00033995564
-2.7605363e-05
0.00036735622
-2.7400584e-05
0.00039453552
-2.7179296e-05
0.00042147715
-2.6941631e-05
0.00044816488
-2.6687733e-05
0.00047458264
-2.6417753e-05
0.00050071449
-2.6131852e-05
0.00052654469
-2.5830203e-05
0.00055205768
-2.5512985e-05
0.00057723807
-2.518039e-05
0.00060207068
-2.4832617e-05
0.00062654056
-2.4469873e-05
0.00065063294
-2.4092378e-05
0.00067433329
-2.3700358e-05
0.00069762734
-2.3294047e-05
0.00072050103
-2.287369e-05
0.00074294057
-2.243954e-05
0.00076493243
-2.1991858e-05
0.00078646334
-2.1530912e-05
0.00080752032
-2.105698e-05
0.00082809067
-2.0570347e-05
0.00084816197
-2.0071305e-05
0.00086772213
-1.9560156e-05
0.00088675933
-1.9037207e-05
0.00090526211
-1.8502772e-05
0.00092321928
-1.7957175e-05
0.00094062002
-1.7400743e-05
0.00095745384
-1.6833812e-05
0.00097371056
-1.6256724e-05
0.00098938039
-1.5669827e-05
0.0010044539
-1.5073476e-05
0.0010189219
-1.4468029e-05
0.0010327757
-1.3853854e-05
0.0010460071
-1.323132e-05
0.0010586079
-1.2600803e-05
0.0010705706
-1.1962685e-05
0.0010818879
-1.1317352e-05
0.0010925531
-1.0665192e-05
0.0011025597
-1.0006601e-05
0.0011119017
-9.3419766e-06
0.0011205734
-8.6717209e-06
0.0011285696
-7.9962393e-06
0.0011358856
-7.3159405e-06
0.0011425168
-6.6312361e-06
0.0011484594
-5.9425403e-06
0.0011537096
-5.25027e-06
0.0011582645
-4.5548442e-06
0.0011621212
-3.8566837e-06
0.0011652774
-3.1562111e-06
0.0011677312
-2.4538503e-06
0.0011694812
-1.7500264e-06
0.0011705264
-1.0451654e-06
0.0011708661
-3.396963e-07
0.0011705002
3.6594705e-07
0.0011694288
1.0713439e-06
0.0011676527
1.7761075e-06
0.001165173
2.4797506e-06
0.0011619911
3.1818689e-06
0.001158109
3.8820405e-06
0.0011535292
4.5798418e-06
0.0011482543
5.2748505e-06
0.0011422877
5.9666466e-06
0.0011356329
6.6548121e-06
0.001128294
7.3389312e-06
0.0011202754
8.0185908e-06
0.001111582
8.6933804e-06
0.0011022191
9.362893e-06
0.0010921924
1.0026725e-05
0.0010815079
1.0684475e-05
0.0010701721
1.1335747e-05
0.001058192
1.1980149e-05
0.0010455747
1.2617293e-05
0.0010323279
1.3246795e-05
0.0010184596
1.3868276e-05
0.0010039783
1.4481363e-05
0.00098889258
1.5085687e-05
0.0009732117
1.5680886e-05
0.0009569451
1.6266601e-05
0.00094010262
1.6842481e-05
0.00092269444
1.7408181e-05
0.00090473108
1.7963362e-05
0.00088622338
1.8507691e-05
0.00086718254
1.9040842e-05
0.00084762005
1.9562497e-05
0.0008275477
2.0072344e-05
0.00080697762
2.0570077e-05
0.00078592222
2.10554e-05
0.0007643942
2.1528023e-05
0.00074240654
2.1987664e-05
0.00071997249
2.2434049e-05
0.00069710558
2.2866912e-05
0.00067381958
2.3285996e-05
0.00065012853
2.3691051e-05
0.00062604669
2.4081837e-05
0.00060158857
2.445812e-05
0.00057676889
2.4819678e-05
0.0005516026
2.5166297e-05
0.00052610483
2.5497769e-05
0.00050029093
2.58139e-05
0.00047417643
2.6114501e-05
0.00044777703
2.6399395e-05
0.00042110862
2.6668413e-05
0.00039418722
2.6921395e-05
0.00036702903
2.7158193e-05
0.00033965037
2.7378665e-05
0.00031206768
2.7582683e-05
0.00028429756
2.7770125e-05
0.00025635668
2.794088e-05
0.00022826183
2.8094848e-05
0.00020002989
2.8231939e-05
0.00017167782
2.835207e-05
0.00014322265
2.8455172e-05
0.00011468147
2.8541183e-05
8.6071414e-05
2.8610052e-05
5.7409674e-05
2.866174e-05
2.8713459e-05
2.8696216e-05
2.8713459e-05
-2.8738179e-05
5.7451637e-05
-5.74591e-05
5.7417137e-05
-8.6145517e-05
5.7348157e-05
-0.0001147802
5.7244738e-05
-0.00014334596
5.710694e-05
-0.00017182563
5.6934845e-05
-0.00020020212
5.6728555e-05
-0.00022845837
5.6488191e-05
-0.00025657742
5.6213895e-05
-0.00028454236
5.5905828e-05
-0.00031233641
5.5564172e-05
-0.00033994286
5.518913e-05
-0.00036734512
5.4780923e-05
-0.00039452671
5.4339791e-05
-0.00042147131
5.3865995e-05
-0.00044816272
5.3359816e-05
-0.00047458487
5.2821552e-05
-0.0005007219
5.2251523e-05
-0.00052655806
5.1650065e-05
-0.00055207783
5.1017535e-05
-0.00057726584
5.0354308e-05
-0.00060210694
4.9660777e-05
-0.00062658617
4.8937353e-05
-0.0006506888
4.8184465e-05
-0.00067440031
4.7402562e-05
-0.00069770642
4.6592106e-05
-0.00072059309
4.5753581e-05
-0.00074304652
4.4887485e-05
-0.00076505319
4.3994334e-05
-0.00078659983
4.3074659e-05
-0.00080767344
4.2129009e-05
-0.00082826131
4.1157948e-05
-0.00084835102
4.0162055e-05
-0.00086793045
3.9141926e-05
-0.00088698778
3.8098168e-05
-0.00090551149
3.7031408e-05
-0.00092349041
3.5942283e-05
-0.00094091368
3.4831444e-05
-0.00095777075
3.3699558e-05
-0.00097405146
3.2547302e-05
-0.00098974594
3.1375369e-05
-0.0010048447
3.018446e-05
-0.0010193386
2.8975291e-05
-0.001033219
2.7748589e-05
-0.0010464772
2.650509e-05
-0.0010591055
2.5245543e-05
-0.0010710961
2.3970706e-05
-0.0010824417
2.2681345e-05
-0.0010931354
2.1378238e-05
-0.0011031709
2.0062169e-05
-0.0011125419
1.8733931e-05
-0.0011212428
1.7394327e-05
-0.0011292684
1.6044164e-05
-0.0011366137
1.4684256e-05
-0.0011432744
1.3315426e-05
-0.0011492462
1.1938498e-05
-0.0011545257
1.0554306e-05
-0.0011591095
9.1636863e-06
-0.0011629949
7.7674784e-06
-0.0011661796
6.3665267e-06
-0.0011686615
4.9616781e-06
-0.0011704392
3.553779e-06
-0.0011715115
2.1436753e-06
-0.0011718778
7.322486e-07
-0.0011715379
-6.7966163e-07
-0.0011704918
-2.0912114e-06
-0.0011687403
-3.501543e-06
-0.0011662844
-4.9098006e-06
-0.0011631254
-6.3151312e-06
-0.0011592654
-7.7166842e-06
-0.0011547067
-9.113611e-06
-0.0011494519
-1.0505066e-05
-0.0011435042
-1.1890208e-05
-0.0011368672
-1.3268197e-05
-0.001129545
-1.46382e-05
-0.0011215418
-1.5999387e-05
-0.0011128626
-1.7350937e-05
-0.0011035126
-1.8692029e-05
-0.0010934973
-2.0021854e-05
-0.0010828229
-2.1339607e-05
-0.0010714958
-2.2644492e-05
-0.0010595227
-2.3935719e-05
-0.001046911
-2.5212507e-05
-0.0010336683
-2.6474086e-05
-0.0010198024
-2.7719694e-05
-0.0010053219
-2.8948577e-05
-0.00099023535
-3.0159993e-05
-0.00097455197
-3.1353212e-05
-0.00095828118
-3.2527513e-05
-0.0009414328
-3.3682188e-05
-0.00092401701
-3.4816539e-05
-0.0009060443
-3.5929884e-05
-0.00088752552
-3.7021551e-05
-0.00086847184
-3.8090881e-05
-0.00084889477
-3.9137231e-05
-0.0008288061
-4.0159971e-05
-0.00080821797
-4.1158484e-05
-0.00078714278
-4.213217e-05
-0.00076559324
-4.3080443e-05
-0.00074358237
-4.4002732e-05
-0.00072112343
-4.4898483e-05
-0.00069822996
-4.5767157e-05
-0.00067491578
-4.6608232e-05
-0.00065119493
-4.7421203e-05
-0.00062708173
-4.8205581e-05
-0.00060259071
-4.8960896e-05
-0.00057773663
-4.9686695e-05
-0.00055253448
-5.0382541e-05
-0.00052699945
-5.1048017e-05
-0.00050114692
-5.1682724e-05
-0.00047499249
-5.2286282e-05
-0.00044855192
-5.2858329e-05
-0.00042184113
-5.3398521e-05
-0.00039487622
-5.3906536e-05
-0.00036767345
-5.4382069e-05
-0.0003402492
-5.4824834e-05
-0.00031262
-5.5234568e-05
-0.00028480248
-5.5611025e-05
-0.00025681342
-5.5953978e-05
-0.00022866966
-5.6263224e-05
-0.00020038817
-5.6538577e-05
-0.00017198599
-5.6779872e-05
-0.00014348021
-5.6986965e-05
-0.00011488801
-5.7159733e-05
-8.6226608e-05
-5.729807e-05
-5.7513274e-05
-5.7401896e-05
-2.87653e-05
-5.7471148e-05
-7.2749684e-14
-5.7505784e-05
2.87653e-05
-5.7505784e-05
5.7513274e-05
-5.7471148e-05
8.6226608e-05
-5.7401896e-05
0.00011488801
-5.729807e-05
0.00014348021
-5.7159733e-05
0.00017198599
-5.6986965e-05
0.00020038817
-5.6779872e-05
0.00022866966
-5.6538577e-05
0.00025681342
-5.6263224e-05
0.00028480248
-5.5953978e-05
0.00031262
-5.5611025e-05
0.0003402492
-5.5234568e-05
0.00036767345
-5.4824834e-05
0.00039487622
-5.4382069e-05
0.00042184113
-5.3906536e-05
0.00044855192
-5.3398521e-05
0.00047499249
-5.2858329e-05
0.00050114692
-5.2286282e-05
0.00052699945
-5.1682724e-05
0.00055253448
-5.1048017e-05
0.00057773663
-5.0382541e-05
0.00060259071
-4.9686695e-05
0.00062708173
-4.8960896e-05
0.00065119493
-4.8205581e-05
0.00067491578
-4.7421203e-05
0.00069822996
-4.6608232e-05
0.00072112343
-4.5767157e-05
0.00074358237
-4.4898483e-05
0.00076559324
-4.4002732e-05
0.00078714278
-4.3080443e-05
0.00080821797
-4.213217e-05
0.0008288061
-4.1158484e-05
0.00084889477
-4.0159971e-05
0.00086847184
-3.9137231e-05
0.00088752552
-3.8090881e-05
0.0009060443
-3.7021551e-05
0.00092401701
-3.5929884e-05
0.0009414328
-3.4816539e-05
0.00095828118
-3.3682188e-05
0.00097455197
-3.2527513e-05
0.00099023535
-3.1353212e-05
0.0010053219
-3.0159993e-05
0.0010198024
-2.8948577e-05
0.0010336683
-2.7719694e-05
0.001046911
-2.6474086e-05
0.0010595227
-2.5212507e-05
0.0010714958
-2.3935719e-05
0.0010828229
-2.2644492e-05
0.0010934973
-2.1339607e-05
0.0011035126
-2.0021854e-05
0.0011128626
-1.8692029e-05
0.0011215418
-1.7350937e-05
0.001129545
-1.5999387e-05
0.0011368672
-1.46382e-05
0.0011435042
-1.3268197e-05
0.0011494519
-1.1890208e-05
0.0011547067
-1.0505066e-05
0.0011592654
-9.113611e-06
0.0011631254
-7.7166842e-06
0.0011662844
-6.3151313e-06
0.0011687403
-4.9098006e-06
0.0011704918
-3.501543e-06
0.0011715379
-2.0912114e-06
0.0011718778
-6.7966165e-07
0.0011715115
7.3224858e-07
0.0011704392
2.1436752e-06
0.0011686615
3.553779e-06
0.0011661796
4.961678e-06
0.0011629949
6.3665267e-06
0.0011591095
7.7674784e-06
0.0011545257
9.1636863e-06
0.0011492462
1.0554306e-05
0.0011432744
1.1938498e-05
0.0011366137
1.3315426e-05
0.0011292684
1.4684256e-05
0.0011212428
1.6044164e-05
0.0011125419
1.7394327e-05
0.0011031709
1.8733931e-05
0.0010931354
2.0062169e-05
0.0010824417
2.1378238e-05
0.0010710961
2.2681345e-05
0.0010591055
2.3970706e-05
0.0010464772
2.5245543e-05
0.001033219
2.650509e-05
0.0010193386
2.7748589e-05
0.0010048447
2.8975291e-05
0.00098974594
3.018446e-05
0.00097405146
3.1375369e-05
0.00095777075
3.2547302e-05
0.00094091368
3.3699558e-05
0.00092349041
3.4831444e-05
0.00090551149
3.5942283e-05
0.00088698778
3.7031408e-05
0.00086793045
3.8098168e-05
0.00084835102
3.9141926e-05
0.00082826131
4.0162055e-05
0.00080767344
4.1157948e-05
0.00078659983
4.2129009e-05
0.00076505319
4.3074659e-05
0.00074304652
4.3994334e-05
0.00072059309
4.4887485e-05
0.00069770642
4.5753581e-05
0.00067440031
4.6592106e-05
0.0006506888
4.7402562e-05
0.00062658617
4.8184465e-05
0.00060210694
4.8937353e-05
0.00057726584
4.9660777e-05
0.00055207783
5.0354308e-05
0.00052655806
5.1017535e-05
0.0005007219
5.1650065e-05
0.00047458487
5.2251523e-05
0.00044816272
5.2821552e-05
0.00042147131
5.3359816e-05
0.00039452671
5.3865995e-05
0.00036734512
5.4339791e-05
0.00033994286
5.4780923e-05
0.00031233641
5.518913e-05
0.00028454236
5.5564172e-05
0.00025657742
5.5905828e-05
0.00022845837
5.6213894e-05
0.00020020212
5.6488191e-05
0.00017182563
5.6728555e-05
0.00014334596
5.6934845e-05
0.0001147802
5.710694e-05
8.6145517e-05
5.7244738e-05
5.74591e-05
5.7348157e-05
2.8738179e-05
5.7417137e-05
5.7451637e-05
-2.8779143e-05
8.6230781e-05
-5.7541005e-05
8.6178999e-05
-8.6268314e-05
8.6075466e-05
-0.00011494382
8.5920243e-05
-0.0001435503
8.5713421e-05
-0.00017207058
8.5455122e-05
-0.00020048752
8.5145499e-05
-0.00022878406
8.4784733e-05
-0.00025694321
8.4373039e-05
-0.00028494804
8.3910658e-05
-0.00031278173
8.3397863e-05
-0.00034042756
8.2834958e-05
-0.00036786891
8.2222274e-05
-0.00039508929
8.1560173e-05
-0.00042207234
8.0849047e-05
-0.00044880184
8.0089315e-05
-0.00047526172
7.9281428e-05
-0.00050143606
7.8425862e-05
-0.00052730912
7.7523126e-05
-0.00055286533
7.6573752e-05
-0.00057808933
7.5578303e-05
-0.00060296592
7.4537371e-05
-0.00062748014
7.3451571e-05
-0.00065161722
7.2321549e-05
-0.00067536264
7.1147976e-05
-0.00069870208
6.9931548e-05
-0.00072162149
6.8672989e-05
-0.00074410705
6.7373048e-05
-0.00076614522
6.6032499e-05
-0.0007877227
6.465214e-05
-0.00080882648
6.3232793e-05
-0.00082944384
6.1775306e-05
-0.00084956233
6.0280548e-05
-0.00086916982
5.8749411e-05
-0.00088825446
5.7182811e-05
-0.00090680473
5.5581684e-05
-0.00092480944
5.3946988e-05
-0.0009422577
5.2279702e-05
-0.00095913896
5.0580824e-05
-0.00097544303
4.8851372e-05
-0.00099116005
4.7092385e-05
-0.0010062805
4.5304916e-05
-0.0010207953
4.349004e-05
-0.0010346955
4.1648847e-05
-0.0010479729
3.9782443e-05
-0.0010606193
3.7891951e-05
-0.0010726271
3.5978508e-05
-0.001083989
3.4043267e-05
-0.0010946982
3.2087392e-05
-0.001104748
3.0112062e-05
-0.0011141326
2.8118468e-05
-0.0011228461
2.6107812e-05
-0.0011308832
2.4081307e-05
-0.0011382391
2.2040177e-05
-0.0011449094
1.9985653e-05
-0.0011508898
1.7918976e-05
-0.0011561769
1.5841395e-05
-0.0011607674
1.3754165e-05
-0.0011646585
1.1658547e-05
-0.0011678478
9.5558092e-06
-0.0011703333
7.4472218e-06
-0.0011721136
5.3340587e-06
-0.0011731875
3.2175977e-06
-0.0011735544
1.0991312e-06
-0.001173214
-1.0200631e-06
-0.0011721665
-3.1387099e-06
-0.0011704125
-5.2555264e-06
-0.0011679531
-7.3692299e-06
-0.0011647897
-9.4785404e-06
-0.0011609242
-1.1582181e-05
-0.0011563589
-1.3678878e-05
-0.0011510966
-1.5767363e-05
-0.0011451404
-1.7846371e-05
-0.001138494
-1.9914644e-05
-0.0011311613
-2.197093e-05
-0.0011231467
-2.4013984e-05
-0.001114455
-2.6042572e-05
-0.0011050916
-2.8055465e-05
-0.001095062
-3.0051446e-05
-0.0010843723
-3.2029307e-05
-0.0010730289
-3.3987853e-05
-0.0010610388
-3.59259e-05
-0.001048409
-3.7842275e-05
-0.0010351473
-3.9735822e-05
-0.0010212616
-4.1605396e-05
-0.0010067603
-4.3449867e-05
-0.00099165213
-4.5268122e-05
-0.00097594628
-4.7059063e-05
-0.00095965218
-4.882161e-05
-0.00094277967
-5.0554698e-05
-0.00092533893
-5.2257283e-05
-0.00090734048
-5.3928337e-05
-0.00088879517
-5.5566854e-05
-0.00086971421
-5.7171845e-05
-0.0008501091
-5.8742344e-05
-0.00082999166
-6.0277405e-05
-0.00080937404
-6.1776104e-05
-0.00078826868
-6.3237538e-05
-0.00076668829
-6.4660828e-05
-0.0007446459
-6.6045119e-05
-0.00072215481
-6.7389577e-05
-0.00069922857
-6.8693394e-05
-0.00067588102
-6.9955787e-05
-0.00065212622
-7.1175998e-05
-0.00062797851
-7.2353294e-05
-0.00060345244
-7.3486967e-05
-0.0005785628
-7.4576337e-05
-0.00055332459
-7.5620751e-05
-0.00052775302
-7.6619582e-05
-0.00050186351
-7.7572231e-05
-0.00047567167
-7.8478126e-05
-0.00044919327
-7.9336726e-05
-0.00042244428
-8.0147515e-05
-0.00039544081
-8.0910007e-05
-0.00036819913
-8.1623746e-05
-0.00034073566
-8.2288304e-05
-0.00031306695
-8.2903283e-05
-0.00028520966
-8.3468316e-05
-0.00025718057
-8.3983063e-05
-0.00022899658
-8.4447218e-05
-0.00020067465
-8.4860502e-05
-0.00017223186
-8.5222667e-05
-0.00014368533
-8.5533499e-05
-0.00011505225
-8.5792809e-05
-8.6349876e-05
-8.6000444e-05
-5.7595494e-05
-8.6156278e-05
-2.8806422e-05
-8.626022e-05
-3.9754188e-14
-8.6312206e-05
2.8806422e-05
-8.6312206e-05
5.7595494e-05
-8.626022e-05
8.6349876e-05
-8.6156278e-05
0.00011505225
-8.6000444e-05
0.00014368532
-8.5792809e-05
0.00017223186
-8.5533499e-05
0.00020067465
-8.5222668e-05
0.00022899658
-8.4860502e-05
0.00025718057
-8.4447218e-05
0.00028520966
-8.3983063e-05
0.00031306695
-8.3468316e-05
0.00034073566
-8.2903283e-05
0.00036819913
-8.2288304e-05
0.00039544081
-8.1623746e-05
0.00042244428
-8.0910007e-05
0.00044919327
-8.0147515e-05
0.00047567167
-7.9336726e-05
0.00050186351
-7.8478126e-05
0.00052775302
-7.7572231e-05
0.00055332459
-7.6619582e-05
0.0005785628
-7.5620751e-05
0.00060345244
-7.4576337e-05
0.00062797851
-7.3486967e-05
0.00065212622
-7.2353294e-05
0.00067588102
-7.1175998e-05
0.00069922857
-6.9955787e-05
0.00072215481
-6.8693394e-05
0.0007446459
-6.7389577e-05
0.00076668829
-6.6045119e-05
0.00078826868
-6.4660828e-05
0.00080937404
-6.3237538e-05
0.00082999166
-6.1776104e-05
0.0008501091
-6.0277405e-05
0.00086971421
-5.8742344e-05
0.00088879517
-5.7171845e-05
0.00090734048
-5.5566854e-05
0.00092533893
-5.3928337e-05
0.00094277967
-5.2257283e-05
0.00095965218
-5.0554698e-05
0.00097594628
-4.882161e-05
0.00099165213
-4.7059063e-05
0.0010067603
-4.5268122e-05
0.0010212616
-4.3449867e-05
0.0010351473
-4.1605396e-05
0.001048409
-3.9735822e-05
0.0010610388
-3.7842275e-05
0.0010730289
-3.59259e-05
0.0010843723
-3.3987853e-05
0.001095062
-3.2029307e-05
0.0011050916
-3.0051446e-05
0.001114455
-2.8055465e-05
0.0011231467
-2.6042572e-05
0.0011311613
-2.4013984e-05
0.001138494
-2.197093e-05
0.0011451404
-1.9914644e-05
0.0011510966
-1.7846371e-05
0.0011563589
-1.5767363e-05
0.0011609242
-1.3678878e-05
0.0011647897
-1.1582181e-05
0.0011679531
-9.4785404e-06
0.0011704125
-7.3692299e-06
0.0011721665
-5.2555264e-06
0.001173214
-3.1387099e-06
0.0011735544
-1.0200631e-06
0.0011731875
1.0991312e-06
0.0011721136
3.2175977e-06
0.0011703333
5.3340587e-06
0.0011678478
7.4472217e-06
0.0011646585
9.5558092e-06
0.0011607674
1.1658547e-05
0.0011561769
1.3754165e-05
0.0011508898
1.5841395e-05
0.0011449094
1.7918976e-05
0.0011382391
1.9985653e-05
0.0011308832
2.2040177e-05
0.0011228461
2.4081307e-05
0.0011141326
2.6107812e-05
0.001104748
2.8118468e-05
0.0010946982
3.0112062e-05
0.001083989
3.2087392e-05
0.0010726271
3.4043267e-05
0.0010606193
3.5978508e-05
0.0010479729
3.7891951e-05
0.0010346955
3.9782443e-05
0.0010207953
4.1648847e-05
0.0010062805
4.349004e-05
0.00099116005
4.5304916e-05
0.00097544303
4.7092385e-05
0.00095913896
4.8851372e-05
0.0009422577
5.0580824e-05
0.00092480944
5.2279702e-05
0.00090680473
5.3946988e-05
0.00088825446
5.5581684e-05
0.00086916982
5.7182811e-05
0.00084956233
5.8749411e-05
0.00082944384
6.0280548e-05
0.00080882648
6.1775306e-05
0.0007877227
6.3232793e-05
0.00076614522
6.465214e-05
0.00074410705
6.6032499e-05
0.00072162149
6.7373048e-05
0.00069870208
6.8672989e-05
0.00067536264
6.9931548e-05
0.00065161722
7.1147976e-05
0.00062748014
7.2321549e-05
0.00060296592
7.3451571e-05
0.00057808933
7.4537371e-05
0.00055286533
7.5578303e-05
0.00052730912
7.6573752e-05
0.00050143606
7.7523126e-05
0.00047526172
7.8425862e-05
0.00044880184
7.9281428e-05
0.00042207234
8.0089315e-05
0.00039508929
8.0849047e-05
0.00036786891
8.1560173e-05
0.00034042756
8.2222274e-05
0.00031278173
8.2834958e-05
0.00028494804
8.3397863e-05
0.00025694321
8.3910658e-05
0.00022878406
8.4373039e-05
0.00020048752
8.4784733e-05
0.00017207058
8.5145499e-05
0.0001435503
8.5455122e-05
0.00011494382
8.5713421e-05
8.6268314e-05
8.5920243e-05
5.7541005e-05
8.6075466e-05
2.8779143e-05
8.6178999e-05
8.6230781e-05
-2.8836486e-05
0.00011506727
-5.7655658e-05
0.00011499817
-8.6440208e-05
0.00011486002
-0.00011517285
0.00011465289
-0.00014383634
0.00011437691
-0.00017241345
0.00011403224
-0.00020088703
0.00011361908
-0.00022923997
0.00011313768
-0.00025745525
0.00011258831
-0.00028551591
0.00011197132
-0.00031340509
0.00011128705
-0.00034110605
0.00011053591
-0.00036860212
0.00010971835
-0.0003958768
0.00010883485
-0.00042291367
0.00010788592
-0.0004496965
0.00010687214
-0.00047620918
0.0001057941
-0.00050243576
0.00010465244
-0.00052836047
0.00010344783
-0.00055396771
0.00010218099
-0.00057924207
0.00010085267
-0.00060416835
9.9463652e-05
-0.00062873155
9.8014764e-05
-0.00065291686
9.6506864e-05
-0.00067670973
9.4940849e-05
-0.00070009583
9.3317648e-05
-0.00072306107
9.1638226e-05
-0.00074559161
8.9903584e-05
-0.00076767386
8.8114752e-05
-0.00078929452
8.6272798e-05
-0.00081044054
8.4378817e-05
-0.00083109918
8.243394e-05
-0.00085125796
8.0439328e-05
-0.00087090472
7.8396172e-05
-0.0008900276
7.6305691e-05
-0.00090861505
7.4169137e-05
-0.00092665585
7.1987786e-05
-0.0009441391
6.9762946e-05
-0.00096105422
6.7495949e-05
-0.000977391
6.5188153e-05
-0.00099313956
6.2840943e-05
-0.0010082904
6.0455726e-05
-0.0010228343
5.8033935e-05
-0.0010367624
5.5577026e-05
-0.0010500665
5.3086473e-05
-0.0010627383
5.0563777e-05
-0.0010747702
4.8010453e-05
-0.001086155
4.542804e-05
-0.0010968857
4.2818092e-05
-0.0011069558
4.0182182e-05
-0.0011163593
3.75219e-05
-0.0011250903
3.4838849e-05
-0.0011331436
3.2134648e-05
-0.0011405144
2.9410929e-05
-0.0011471981
2.6669338e-05
-0.0011531906
2.3911528e-05
-0.0011584884
2.1139167e-05
-0.0011630882
1.835393e-05
-0.0011669871
1.5557499e-05
-0.0011701829
1.2751567e-05
-0.0011726735
9.937829e-06
-0.0011744574
7.1179867e-06
-0.0011755336
4.2937467e-06
-0.0011759013
1.4668229e-06
-0.0011755602
-1.3610752e-06
-0.0011745107
-4.1882403e-06
-0.0011727533
-7.0129613e-06
-0.001170289
-9.833528e-06
-0.0011671193
-1.2648233e-05
-0.0011632461
-1.5455371e-05
-0.0011586717
-1.8253245e-05
-0.0011533989
-2.1040159e-05
-0.0011474309
-2.3814427e-05
-0.0011407712
-2.6574369e-05
-0.0011334238
-2.9318316e-05
-0.0011253931
-3.2044607e-05
-0.0011166841
-3.4751593e-05
-0.001107302
-3.7437634e-05
-0.0010972523
-4.0101108e-05
-0.0010865412
-4.2740402e-05
-0.0010751751
-4.5353921e-05
-0.0010631609
-4.7940084e-05
-0.0010505059
-5.0497329e-05
-0.0010372176
-5.302411e-05
-0.0010233041
-5.5518901e-05
-0.0010087738
-5.7980194e-05
-0.00099363539
-6.0406503e-05
-0.00097789809
-6.2796364e-05
-0.00096157137
-6.5148334e-05
-0.00094466507
-6.7460993e-05
-0.00092718941
-6.9732947e-05
-0.00090915492
-7.1962827e-05
-0.00089057249
-7.4149286e-05
-0.00087145332
-7.6291009e-05
-0.00085180896
-7.8386704e-05
-0.00083165126
-8.043511e-05
-0.00081099237
-8.2434992e-05
-0.00078984476
-8.4385148e-05
-0.00076822118
-8.6284404e-05
-0.00074613468
-8.8131618e-05
-0.00072359858
-8.9925678e-05
-0.00070062647
-9.1665506e-05
-0.0006772322
-9.3350057e-05
-0.00065342988
-9.4978319e-05
-0.00062923386
-9.6549313e-05
-0.00060465873
-9.8062098e-05
-0.0005797193
-9.9515764e-05
-0.00055443062
-0.00010090944
-0.00052880791
-0.00010224229
-0.00050286663
-0.00010351351
-0.00047662241
-0.00010472234
-0.00045009107
-0.00010586807
-0.0004232886
-0.00010694999
-0.00039623114
-0.00010796746
-0.000368935
-0.00010891988
-0.00034141664
-0.00010980667
-0.00031369261
-0.00011062731
-0.00028577964
-0.00011138129
-0.00025769453
-0.00011206817
-0.00022945421
-0.00011268754
-0.00020107568
-0.00011323903
-0.00017257604
-0.00011372231
-0.00014397246
-0.00011413708
-0.00011528216
-0.00011448311
-8.6522431e-05
-0.00011476017
-5.7710588e-05
-0.00011496812
-2.8863986e-05
-0.00011510682
-1.6544057e-14
-0.00011517619
2.8863986e-05
-0.00011517619
5.7710588e-05
-0.00011510682
8.6522431e-05
-0.00011496812
0.00011528216
-0.00011476017
0.00014397246
-0.00011448311
0.00017257604
-0.00011413708
0.00020107568
-0.00011372231
0.00022945421
-0.00011323903
0.00025769453
-0.00011268754
0.00028577964
-0.00011206817
0.00031369261
-0.00011138129
0.00034141663
-0.00011062731
0.000368935
-0.00010980667
0.00039623114
-0.00010891988
0.0004232886
-0.00010796746
0.00045009107
-0.00010694999
0.00047662241
-0.00010586807
0.00050286663
-0.00010472234
0.00052880791
-0.00010351351
0.00055443062
-0.00010224229
0.0005797193
-0.00010090944
0.00060465873
-9.9515764e-05
0.00062923386
-9.8062098e-05
0.00065342988
-9.6549313e-05
0.0006772322
-9.4978319e-05
0.00070062647
-9.3350057e-05
0.00072359858
-9.1665506e-05
0.00074613468
-8.9925678e-05
0.00076822118
-8.8131618e-05
0.00078984476
-8.6284404e-05
0.00081099237
-8.4385148e-05
0.00083165126
-8.2434992e-05
0.00085180896
-8.043511e-05
0.00087145332
-7.8386704e-05
0.00089057249
-7.6291009e-05
0.00090915492
-7.4149286e-05
0.00092718941
-7.1962827e-05
0.00094466507
-6.9732947e-05
0.00096157137
-6.7460993e-05
0.00097789809
-6.5148334e-05
0.00099363539
-6.2796364e-05
0.0010087738
-6.0406503e-05
0.0010233041
-5.7980194e-05
0.0010372176
-5.5518901e-05
0.0010505059
-5.302411e-05
0.0010631609
-5.0497329e-05
0.0010751751
-4.7940084e-05
0.0010865412
-4.5353921e-05
0.0010972523
-4.2740402e-05
0.001107302
-4.0101108e-05
0.0011166841
-3.7437634e-05
0.0011253931
-3.4751593e-05
0.0011334238
-3.2044607e-05
0.0011407712
-2.9318316e-05
0.0011474309
-2.6574369e-05
0.0011533989
-2.3814427e-05
0.0011586717
-2.1040159e-05
0.0011632461
-1.8253245e-05
0.0011671193
-1.5455371e-05
0.001170289
-1.2648233e-05
0.0011727533
-9.833528e-06
0.0011745107
-7.0129613e-06
0.0011755602
-4.1882403e-06
0.0011759013
-1.3610753e-06
0.0011755336
1.4668229e-06
0.0011744574
4.2937467e-06
0.0011726735
7.1179867e-06
0.0011701829
9.937829e-06
0.0011669871
1.2751567e-05
0.0011630882
1.5557499e-05
0.0011584884
1.835393e-05
0.0011531906
2.1139167e-05
0.0011471981
2.3911528e-05
0.0011405144
2.6669338e-05
0.0011331436
2.9410929e-05
0.0011250903
3.2134648e-05
0.0011163593
3.4838849e-05
0.0011069558
3.75219e-05
0.0010968857
4.0182182e-05
0.001086155
4.2818092e-05
0.0010747702
4.542804e-05
0.0010627383
4.8010453e-05
0.0010500665
5.0563777e-05
0.0010367624
5.3086473e-05
0.0010228343
5.5577026e-05
0.0010082904
5.8033935e-05
0.00099313956
6.0455726e-05
0.000977391
6.2840943e-05
0.00096105422
6.5188153e-05
0.0009441391
6.7495949e-05
0.00092665585
6.9762946e-05
0.00090861505
7.1987786e-05
0.0008900276
7.4169137e-05
0.00087090472
7.6305691e-05
0.00085125796
7.8396172e-05
0.00083109918
8.0439328e-05
0.00081044054
8.243394e-05
0.00078929452
8.4378817e-05
0.00076767386
8.6272798e-05
0.00074559161
8.8114752e-05
0.00072306107
8.9903584e-05
0.00070009583
9.1638226e-05
0.00067670973
9.3317648e-05
0.00065291686
9.4940848e-05
0.00062873155
9.6506864e-05
0.00060416835
9.8014764e-05
0.00057924207
9.9463652e-05
0.00055396771
0.00010085267
0.00052836047
0.00010218099
0.00050243576
0.00010344783
0.00047620918
0.00010465244
0.0004496965
0.0001057941
0.00042291367
0.00010687214
0.0003958768
0.00010788592
0.00036860212
0.00010883485
0.00034110605
0.00010971835
0.00031340509
0.00011053591
0.00028551591
0.00011128705
0.00025745525
0.00011197132
0.00022923997
0.00011258831
0.00020088703
0.00011313768
0.00017241345
0.00011361908
0.00014383634
0.00011403224
0.00011517285
0.00011437691
8.6440208e-05
0.00011465289
5.7655658e-05
0.00011486002
2.8836487e-05
0.00011499817