/*--------------------------------*- C++ -*----------------------------------*\
| =========                 |                                                 |
| \\      /  F ield         | OpenFOAM: The Open Source CFD Toolbox           |
|  \\    /   O peration     | Version:  2106                                  |
|   \\  /    A nd           | Website:  www.openfoam.com                      |
|    \\/     M anipulation  |                                                 |
\*---------------------------------------------------------------------------*/
FoamFile
{
    version     2.0;
    format      ascii;
    arch        "LSB;label=32;scalar=64";
    class       surfaceScalarField;
    location    "0.039";
    object      phi_0;
}
// * * * * * * * * * * * * * * * * * * * * * * * * * * * * * * * * * * * * * //

dimensions      [0 3 -1 0 0 0 0];

oriented        oriented;

internalField   nonuniform List<scalar> 
32512
(
-1.8975269e-05
1.8975269e-05
-3.7905979e-05
1.8930709e-05
-5.6747664e-05
1.8841685e-05
-7.5456052e-05
1.8708389e-05
-9.3987159e-05
1.8531107e-05
-0.00011229738
1.8310223e-05
-0.0001303436
1.8046214e-05
-0.00014808325
1.7739652e-05
-0.00016547445
1.7391202e-05
-0.00018247607
1.7001621e-05
-0.00019904783
1.657176e-05
-0.00021515039
1.6102557e-05
-0.00023074543
1.5595043e-05
-0.00024579577
1.5050335e-05
-0.0002602654
1.4469636e-05
-0.00027411964
1.3854234e-05
-0.00028732514
1.3205499e-05
-0.00029985002
1.2524881e-05
-0.00031166393
1.1813908e-05
-0.00032273811
1.1074184e-05
-0.00033304549
1.0307384e-05
-0.00034256075
9.515253e-06
-0.00035126035
8.6996023e-06
-0.00035912265
7.8623055e-06
-0.00036612795
7.0052951e-06
-0.00037225851
6.1305589e-06
-0.00037749864
5.2401355e-06
-0.00038183475
4.3361102e-06
-0.00038525536
3.4206106e-06
-0.00038775117
2.4958003e-06
-0.00038931503
1.5638688e-06
-0.0003899421
6.2706213e-07
-0.00038962972
-3.1238117e-07
-0.00038837751
-1.2522067e-06
-0.00038618738
-2.1901326e-06
-0.0003830635
-3.123877e-06
-0.00037901234
-4.0511578e-06
-0.00037404264
-4.9696991e-06
-0.00036816541
-5.8772359e-06
-0.00036139389
-6.7715208e-06
-0.00035374356
-7.65033e-06
-0.00034523209
-8.5114685e-06
-0.00033587931
-9.3527771e-06
-0.00032570717
-1.0172138e-05
-0.00031473969
-1.0967479e-05
-0.00030300291
-1.1736784e-05
-0.00029052482
-1.2478092e-05
-0.00027733531
-1.3189511e-05
-0.00026346609
-1.3869216e-05
-0.00024895063
-1.4515457e-05
-0.00023382407
-1.5126568e-05
-0.0002181231
-1.5700966e-05
-0.00020188594
-1.6237162e-05
-0.00018515218
-1.6733758e-05
-0.00016796272
-1.7189461e-05
-0.00015035964
-1.7603078e-05
-0.00013238612
-1.7973525e-05
-0.00011408629
-1.829983e-05
-9.550515e-05
-1.8581135e-05
-7.668845e-05
-1.8816699e-05
-5.7682549e-05
-1.9005902e-05
-3.8534306e-05
-1.9148242e-05
-1.929096e-05
-1.9243346e-05
1.9438366e-13
-1.9290961e-05
1.9290961e-05
-1.9290961e-05
3.8534307e-05
-1.9243346e-05
5.7682549e-05
-1.9148242e-05
7.6688451e-05
-1.9005902e-05
9.550515e-05
-1.8816699e-05
0.00011408629
-1.8581135e-05
0.00013238612
-1.829983e-05
0.00015035964
-1.7973525e-05
0.00016796272
-1.7603078e-05
0.00018515218
-1.7189461e-05
0.00020188594
-1.6733758e-05
0.0002181231
-1.6237162e-05
0.00023382407
-1.5700966e-05
0.00024895063
-1.5126568e-05
0.00026346609
-1.4515457e-05
0.00027733531
-1.3869215e-05
0.00029052482
-1.3189511e-05
0.00030300291
-1.2478092e-05
0.00031473969
-1.1736784e-05
0.00032570717
-1.0967479e-05
0.00033587931
-1.0172138e-05
0.00034523209
-9.3527771e-06
0.00035374356
-8.5114685e-06
0.00036139389
-7.6503299e-06
0.00036816541
-6.7715208e-06
0.00037404264
-5.8772358e-06
0.00037901234
-4.969699e-06
0.0003830635
-4.0511578e-06
0.00038618738
-3.1238769e-06
0.00038837751
-2.1901326e-06
0.00038962972
-1.2522067e-06
0.0003899421
-3.1238115e-07
0.00038931503
6.2706215e-07
0.00038775117
1.5638688e-06
0.00038525536
2.4958003e-06
0.00038183475
3.4206106e-06
0.00037749864
4.3361102e-06
0.00037225851
5.2401355e-06
0.00036612795
6.130559e-06
0.00035912265
7.0052952e-06
0.00035126035
7.8623055e-06
0.00034256075
8.6996024e-06
0.00033304549
9.515253e-06
0.00032273811
1.0307384e-05
0.00031166393
1.1074184e-05
0.00029985002
1.1813908e-05
0.00028732514
1.2524881e-05
0.00027411964
1.3205499e-05
0.0002602654
1.3854234e-05
0.00024579577
1.4469636e-05
0.00023074543
1.5050335e-05
0.00021515039
1.5595043e-05
0.00019904783
1.6102557e-05
0.00018247607
1.657176e-05
0.00016547445
1.7001621e-05
0.00014808325
1.7391202e-05
0.0001303436
1.7739652e-05
0.00011229738
1.8046214e-05
9.3987159e-05
1.8310223e-05
7.5456052e-05
1.8531107e-05
5.6747663e-05
1.8708389e-05
3.7905978e-05
1.8841685e-05
1.8975269e-05
1.8930709e-05
1.8975269e-05
-1.9025634e-05
3.8000903e-05
-3.8006594e-05
3.7911669e-05
-5.6898302e-05
3.7733393e-05
-7.5656371e-05
3.7466458e-05
-9.4236704e-05
3.7111441e-05
-0.00011259559
3.6669106e-05
-0.00013068978
3.614041e-05
-0.00014847663
3.5526498e-05
-0.00016591413
3.48287e-05
-0.00018296104
3.4048535e-05
-0.00019957699
3.3187703e-05
-0.00021572251
3.2248086e-05
-0.00023135922
3.1231746e-05
-0.0002464498
3.0140918e-05
-0.00026095818
2.8978013e-05
-0.00027484955
2.7745609e-05
-0.0002880905
2.6446449e-05
-0.00030064906
2.5083437e-05
-0.00031249478
2.3659633e-05
-0.00032359885
2.2178248e-05
-0.0003339341
2.0642636e-05
-0.00034347514
1.9056291e-05
-0.00035219838
1.7422842e-05
-0.00036008211
1.5746038e-05
-0.00036710657
1.4029751e-05
-0.00037325397
1.2277962e-05
-0.00037850858
1.0494751e-05
-0.00038285677
8.6842962e-06
-0.00038628702
6.8508567e-06
-0.00038878998
4.9987669e-06
-0.00039035854
3.1324251e-06
-0.00039098777
1.2562978e-06
-0.00039067504
-6.2511759e-07
-0.00038941995
-2.5072934e-06
-0.00038722441
-4.3856698e-06
-0.00038409261
-6.2556764e-06
-0.00038003103
-8.1127431e-06
-0.00037504842
-9.952311e-06
-0.00036915581
-1.1769844e-05
-0.00036236649
-1.3560842e-05
-0.00035469597
-1.532085e-05
-0.00034616196
-1.7045472e-05
-0.00033678436
-1.8730384e-05
-0.00032658515
-2.0371343e-05
-0.00031558843
-2.1964202e-05
-0.0003038203
-2.3504919e-05
-0.00029130882
-2.498957e-05
-0.00027808397
-2.6414362e-05
-0.00026417754
-2.7775641e-05
-0.00024962309
-2.9069905e-05
-0.00023445585
-3.0293812e-05
-0.00021871262
-3.1444196e-05
-0.00020243171
-3.2518069e-05
-0.00018565283
-3.3512637e-05
-0.00016841699
-3.4425305e-05
-0.00015076638
-3.5253686e-05
-0.0001327443
-3.5995608e-05
-0.000114395
-3.6649125e-05
-9.576362e-05
-3.7212518e-05
-7.6896018e-05
-3.7684301e-05
-5.7838687e-05
-3.8063232e-05
-3.8638619e-05
-3.834831e-05
-1.9343183e-05
-3.8538782e-05
1.944568e-13
-3.8634144e-05
1.9343184e-05
-3.8634144e-05
3.863862e-05
-3.8538782e-05
5.7838688e-05
-3.834831e-05
7.6896018e-05
-3.8063232e-05
9.576362e-05
-3.7684301e-05
0.000114395
-3.7212518e-05
0.0001327443
-3.6649125e-05
0.00015076638
-3.5995608e-05
0.00016841699
-3.5253686e-05
0.00018565283
-3.4425305e-05
0.00020243171
-3.3512637e-05
0.00021871262
-3.2518069e-05
0.00023445585
-3.1444196e-05
0.00024962309
-3.0293812e-05
0.00026417754
-2.9069905e-05
0.00027808397
-2.7775641e-05
0.00029130882
-2.6414362e-05
0.0003038203
-2.498957e-05
0.00031558843
-2.3504919e-05
0.00032658515
-2.1964202e-05
0.00033678436
-2.0371343e-05
0.00034616197
-1.8730384e-05
0.00035469597
-1.7045472e-05
0.00036236649
-1.532085e-05
0.00036915581
-1.3560842e-05
0.00037504842
-1.1769844e-05
0.00038003103
-9.9523109e-06
0.00038409261
-8.112743e-06
0.00038722441
-6.2556764e-06
0.00038941995
-4.3856698e-06
0.00039067504
-2.5072934e-06
0.00039098777
-6.2511755e-07
0.00039035854
1.2562978e-06
0.00038878998
3.1324252e-06
0.00038628702
4.998767e-06
0.00038285677
6.8508568e-06
0.00037850858
8.6842963e-06
0.00037325397
1.0494751e-05
0.00036710657
1.2277962e-05
0.00036008211
1.4029751e-05
0.00035219838
1.5746038e-05
0.00034347514
1.7422842e-05
0.0003339341
1.9056291e-05
0.00032359885
2.0642636e-05
0.00031249478
2.2178248e-05
0.00030064906
2.3659633e-05
0.0002880905
2.5083437e-05
0.00027484955
2.6446449e-05
0.00026095818
2.7745609e-05
0.0002464498
2.8978013e-05
0.00023135922
3.0140918e-05
0.00021572251
3.1231746e-05
0.00019957698
3.2248086e-05
0.00018296104
3.3187703e-05
0.00016591413
3.4048535e-05
0.00014847663
3.4828701e-05
0.00013068978
3.5526498e-05
0.00011259559
3.614041e-05
9.4236704e-05
3.6669106e-05
7.5656371e-05
3.7111441e-05
5.6898301e-05
3.7466458e-05
3.8006594e-05
3.7733393e-05
1.9025634e-05
3.7911669e-05
3.8000903e-05
-1.9104035e-05
5.7104938e-05
-3.8163215e-05
5.697085e-05
-5.7132784e-05
5.6702961e-05
-7.5968176e-05
5.630185e-05
-9.4625114e-05
5.5768379e-05
-0.00011305971
5.51037e-05
-0.00013122855
5.4309249e-05
-0.00014908879
5.3386745e-05
-0.00016659828
5.2338188e-05
-0.0001837156
5.1165858e-05
-0.00020040021
4.987231e-05
-0.00021661249
4.8460371e-05
-0.00023231389
4.6933139e-05
-0.00024746694
4.5293974e-05
-0.00026203542
4.3546495e-05
-0.00027598439
4.1694576e-05
-0.00028928028
3.974234e-05
-0.000301891
3.769415e-05
-0.00031378596
3.5554602e-05
-0.00032493624
3.3328521e-05
-0.00033531455
3.1020948e-05
-0.00034489539
2.8637133e-05
-0.00035365508
2.6182527e-05
-0.0003615718
2.3662766e-05
-0.00036862572
2.1083667e-05
-0.00037479897
1.845121e-05
-0.00038007575
1.5771531e-05
-0.00038444235
1.3050904e-05
-0.00038788723
1.0295731e-05
-0.00039040099
7.5125267e-06
-0.00039197647
4.707904e-06
-0.00039260873
1.8885635e-06
-0.00039229512
-9.3873234e-07
-0.00039103524
-3.7671729e-06
-0.000388831
-6.5899087e-06
-0.0003856866
-9.4000723e-06
-0.00038160855
-1.2190796e-05
-0.00037660563
-1.4955228e-05
-0.00037068893
-1.7686553e-05
-0.00036387176
-2.0378006e-05
-0.00035616972
-2.3022893e-05
-0.00034760058
-2.5614609e-05
-0.00033818431
-2.8146654e-05
-0.000327943
-3.0612653e-05
-0.00031690083
-3.3006371e-05
-0.00030508401
-3.5321736e-05
-0.00029252073
-3.7552851e-05
-0.00027924108
-3.9694014e-05
-0.00026527699
-4.1739733e-05
-0.00025066215
-4.3684746e-05
-0.00023543193
-4.552403e-05
-0.0002196233
-4.7252827e-05
-0.00020327472
-4.8866646e-05
-0.00018642607
-5.0361287e-05
-0.00016911853
-5.173285e-05
-0.00015139447
-5.2977747e-05
-0.00013329736
-5.4092716e-05
-0.00011487165
-5.5074829e-05
-9.616267e-05
-5.5921502e-05
-7.7216466e-05
-5.6630506e-05
-5.8079729e-05
-5.7199969e-05
-3.8799651e-05
-5.7628389e-05
-1.94238e-05
-5.7914633e-05
1.9432218e-13
-5.8057944e-05
1.9423801e-05
-5.8057944e-05
3.8799651e-05
-5.7914633e-05
5.807973e-05
-5.7628389e-05
7.7216466e-05
-5.7199969e-05
9.6162671e-05
-5.6630506e-05
0.00011487166
-5.5921502e-05
0.00013329736
-5.5074829e-05
0.00015139447
-5.4092716e-05
0.00016911853
-5.2977747e-05
0.00018642607
-5.173285e-05
0.00020327472
-5.0361287e-05
0.0002196233
-4.8866646e-05
0.00023543193
-4.7252827e-05
0.00025066215
-4.552403e-05
0.00026527699
-4.3684746e-05
0.00027924108
-4.1739733e-05
0.00029252073
-3.9694014e-05
0.00030508401
-3.7552851e-05
0.00031690083
-3.5321736e-05
0.000327943
-3.3006371e-05
0.00033818431
-3.0612653e-05
0.00034760058
-2.8146654e-05
0.00035616972
-2.5614609e-05
0.00036387176
-2.3022893e-05
0.00037068893
-2.0378006e-05
0.00037660563
-1.7686553e-05
0.00038160855
-1.4955228e-05
0.0003856866
-1.2190796e-05
0.000388831
-9.4000722e-06
0.00039103524
-6.5899087e-06
0.00039229512
-3.7671729e-06
0.00039260873
-9.3873229e-07
0.00039197647
1.8885636e-06
0.00039040099
4.7079041e-06
0.00038788723
7.5125267e-06
0.00038444235
1.0295731e-05
0.00038007575
1.3050904e-05
0.00037479897
1.5771531e-05
0.00036862572
1.845121e-05
0.0003615718
2.1083667e-05
0.00035365508
2.3662766e-05
0.00034489539
2.6182527e-05
0.00033531455
2.8637133e-05
0.00032493624
3.1020948e-05
0.00031378596
3.3328521e-05
0.00030189099
3.5554602e-05
0.00028928028
3.769415e-05
0.00027598439
3.974234e-05
0.00026203542
4.1694576e-05
0.00024746694
4.3546495e-05
0.00023231389
4.5293974e-05
0.00021661249
4.6933139e-05
0.00020040021
4.8460371e-05
0.0001837156
4.987231e-05
0.00016659828
5.1165858e-05
0.00014908879
5.2338188e-05
0.00013122855
5.3386745e-05
0.00011305971
5.4309249e-05
9.4625114e-05
5.51037e-05
7.5968175e-05
5.5768379e-05
5.7132784e-05
5.630185e-05
3.8163215e-05
5.6702961e-05
1.9104035e-05
5.697085e-05
5.7104938e-05
-1.9210623e-05
7.6315561e-05
-3.8376146e-05
7.6136372e-05
-5.7451565e-05
7.577838e-05
-7.6392069e-05
7.5242355e-05
-9.5153141e-05
7.4529451e-05
-0.00011369065
7.3641206e-05
-0.00013196094
7.2579538e-05
-0.00014992094
7.1346744e-05
-0.00016752824
6.9945497e-05
-0.00018474123
6.8378842e-05
-0.00020151911
6.6650193e-05
-0.00021782207
6.4763329e-05
-0.00023361132
6.2722385e-05
-0.00024884919
6.0531852e-05
-0.00026349927
5.8196567e-05
-0.0002775264
5.5721705e-05
-0.00029089683
5.3112775e-05
-0.00030357829
5.0375607e-05
-0.00031554003
4.7516343e-05
-0.00032675294
4.454143e-05
-0.0003371896
4.1457604e-05
-0.00034682434
3.8271882e-05
-0.00035563336
3.4991545e-05
-0.00036359472
3.1624129e-05
-0.00037068846
2.8177404e-05
-0.00037689662
2.4659364e-05
-0.00038220329
2.1078207e-05
-0.00038659471
1.7442319e-05
-0.00039005923
1.3760257e-05
-0.00039258743
1.0040727e-05
-0.0003941721
6.292567e-06
-0.00039480826
2.524728e-06
-0.00039449324
-1.2537513e-06
-0.00039322665
-5.0337657e-06
-0.0003910104
-8.8061617e-06
-0.00038784871
-1.2561762e-05
-0.00038374812
-1.6291387e-05
-0.00037871746
-1.9985882e-05
-0.00037276788
-2.3636137e-05
-0.00036591277
-2.7233111e-05
-0.00035816781
-3.0767859e-05
-0.00034955087
-3.4231551e-05
-0.00034008202
-3.7615501e-05
-0.00032978348
-4.0911189e-05
-0.00031867957
-4.4110283e-05
-0.00030679664
-4.7204667e-05
-0.00029416303
-5.0186459e-05
-0.00028080901
-5.3048038e-05
-0.00026676668
-5.5782065e-05
-0.00025206992
-5.8381505e-05
-0.0002367543
-6.0839649e-05
-0.000220857
-6.3150131e-05
-0.00020441669
-6.5306953e-05
-0.00018747347
-6.73045e-05
-0.00017006876
-6.9137559e-05
-0.00015224518
-7.0801335e-05
-0.00013404643
-7.2291466e-05
-0.00011551722
-7.360404e-05
-9.6703115e-05
-7.4735602e-05
-7.7650449e-05
-7.5683172e-05
-5.8406167e-05
-7.644425e-05
-3.901773e-05
-7.7016826e-05
-1.9532976e-05
-7.7399387e-05
1.9404259e-13
-7.759092e-05
1.9532976e-05
-7.759092e-05
3.901773e-05
-7.7399387e-05
5.8406168e-05
-7.7016826e-05
7.7650449e-05
-7.644425e-05
9.6703116e-05
-7.5683172e-05
0.00011551722
-7.4735602e-05
0.00013404643
-7.360404e-05
0.00015224518
-7.2291466e-05
0.00017006877
-7.0801335e-05
0.00018747347
-6.9137559e-05
0.00020441669
-6.73045e-05
0.000220857
-6.5306953e-05
0.0002367543
-6.3150131e-05
0.00025206992
-6.0839649e-05
0.00026676668
-5.8381505e-05
0.00028080901
-5.5782065e-05
0.00029416303
-5.3048038e-05
0.00030679664
-5.0186459e-05
0.00031867957
-4.7204667e-05
0.00032978348
-4.4110283e-05
0.00034008202
-4.0911189e-05
0.00034955087
-3.7615501e-05
0.00035816781
-3.4231551e-05
0.00036591277
-3.0767858e-05
0.00037276788
-2.7233111e-05
0.00037871746
-2.3636137e-05
0.00038374812
-1.9985882e-05
0.00038784871
-1.6291387e-05
0.0003910104
-1.2561762e-05
0.00039322665
-8.8061616e-06
0.00039449324
-5.0337656e-06
0.00039480826
-1.2537513e-06
0.0003941721
2.5247281e-06
0.00039258743
6.2925671e-06
0.00039005923
1.0040727e-05
0.00038659471
1.3760257e-05
0.00038220329
1.7442319e-05
0.00037689662
2.1078207e-05
0.00037068846
2.4659364e-05
0.00036359472
2.8177404e-05
0.00035563336
3.1624129e-05
0.00034682434
3.4991545e-05
0.00033718959
3.8271882e-05
0.00032675294
4.1457604e-05
0.00031554003
4.454143e-05
0.00030357829
4.7516343e-05
0.00029089683
5.0375607e-05
0.0002775264
5.3112775e-05
0.00026349927
5.5721705e-05
0.00024884919
5.8196567e-05
0.00023361132
6.0531852e-05
0.00021782207
6.2722385e-05
0.00020151911
6.4763329e-05
0.00018474123
6.6650194e-05
0.00016752824
6.8378842e-05
0.00014992093
6.9945497e-05
0.00013196094
7.1346744e-05
0.00011369065
7.2579538e-05
9.5153141e-05
7.3641206e-05
7.6392069e-05
7.4529451e-05
5.7451564e-05
7.5242355e-05
3.8376146e-05
7.577838e-05
1.9210623e-05
7.6136372e-05
7.6315561e-05
-1.9345767e-05
9.5661328e-05
-3.8646121e-05
9.5436726e-05
-5.7855745e-05
9.4988004e-05
-7.6929518e-05
9.4316127e-05
-9.5822611e-05
9.3422544e-05
-0.00011449058
9.2309179e-05
-0.00013288948
9.0978436e-05
-0.00015097593
8.9433195e-05
-0.00016870724
8.7676803e-05
-0.00018604147
8.5713077e-05
-0.00020293757
8.3546295e-05
-0.00021935544
8.1181192e-05
-0.000235256
7.8622951e-05
-0.00025060135
7.5877201e-05
-0.00026535479
7.2950001e-05
-0.00027948092
6.984784e-05
-0.00029294577
6.657762e-05
-0.00030571681
6.3146647e-05
-0.00031776309
5.9562622e-05
-0.00032905528
5.5833623e-05
-0.00033956577
5.1968095e-05
-0.00034926872
4.7974831e-05
-0.00035814013
4.3862959e-05
-0.00036615793
3.9641923e-05
-0.00037330199
3.5321465e-05
-0.00037955423
3.0911605e-05
-0.00038489864
2.6422618e-05
-0.00038932134
2.1865018e-05
-0.00039281061
1.7249529e-05
-0.00039535695
1.2587066e-05
-0.00039695309
7.888708e-06
-0.00039759404
3.1656734e-06
-0.00039727708
-1.5707071e-06
-0.00039600183
-6.309018e-06
-0.00039377021
-1.1037785e-05
-0.00039058646
-1.5745504e-05
-0.00038645718
-2.042067e-05
-0.00038139126
-2.5051805e-05
-0.00037539991
-2.9627489e-05
-0.00036849663
-3.4136391e-05
-0.00036069719
-3.8567295e-05
-0.00035201961
-4.2909135e-05
-0.00034248408
-4.7151022e-05
-0.000332113
-5.1282275e-05
-0.00032093083
-5.5292451e-05
-0.00030896412
-5.9171373e-05
-0.00029624142
-6.2909163e-05
-0.00028279319
-6.6496267e-05
-0.00026865177
-6.9923484e-05
-0.00025385128
-7.3181996e-05
-0.00023842754
-7.626339e-05
-0.00022241798
-7.9159689e-05
-0.00020586156
-8.1863372e-05
-0.00018879867
-8.4367399e-05
-0.00017127099
-8.6665234e-05
-0.00015332146
-8.8750868e-05
-0.00013499409
-9.061883e-05
-0.00011633392
-9.2264216e-05
-9.7386825e-05
-9.3682695e-05
-7.8199467e-05
-9.487053e-05
-5.881913e-05
-9.5824587e-05
-3.929361e-05
-9.6542346e-05
-1.9671088e-05
-9.7021909e-05
1.9365658e-13
-9.7262008e-05
1.9671088e-05
-9.7262008e-05
3.929361e-05
-9.7021909e-05
5.881913e-05
-9.6542346e-05
7.8199467e-05
-9.5824587e-05
9.7386825e-05
-9.487053e-05
0.00011633392
-9.3682695e-05
0.00013499409
-9.2264216e-05
0.00015332146
-9.061883e-05
0.00017127099
-8.8750868e-05
0.00018879867
-8.6665234e-05
0.00020586156
-8.4367399e-05
0.00022241798
-8.1863372e-05
0.00023842754
-7.9159689e-05
0.00025385128
-7.626339e-05
0.00026865177
-7.3181996e-05
0.00028279319
-6.9923484e-05
0.00029624142
-6.6496267e-05
0.00030896412
-6.2909163e-05
0.00032093083
-5.9171373e-05
0.000332113
-5.529245e-05
0.00034248408
-5.1282275e-05
0.00035201961
-4.7151022e-05
0.00036069719
-4.2909135e-05
0.00036849663
-3.8567295e-05
0.00037539991
-3.4136391e-05
0.00038139126
-2.9627489e-05
0.00038645718
-2.5051805e-05
0.00039058646
-2.042067e-05
0.00039377021
-1.5745504e-05
0.00039600183
-1.1037785e-05
0.00039727708
-6.3090179e-06
0.00039759404
-1.570707e-06
0.00039695309
3.1656735e-06
0.00039535695
7.888708e-06
0.00039281061
1.2587066e-05
0.00038932134
1.7249529e-05
0.00038489864
2.1865018e-05
0.00037955423
2.6422618e-05
0.00037330199
3.0911605e-05
0.00036615793
3.5321466e-05
0.00035814013
3.9641923e-05
0.00034926872
4.3862959e-05
0.00033956577
4.7974831e-05
0.00032905528
5.1968095e-05
0.00031776309
5.5833623e-05
0.00030571681
5.9562622e-05
0.00029294577
6.3146647e-05
0.00027948092
6.657762e-05
0.00026535479
6.984784e-05
0.00025060135
7.2950001e-05
0.000235256
7.5877201e-05
0.00021935544
7.8622952e-05
0.00020293757
8.1181192e-05
0.00018604147
8.3546295e-05
0.00016870724
8.5713077e-05
0.00015097593
8.7676803e-05
0.00013288948
8.9433195e-05
0.00011449058
9.0978436e-05
9.582261e-05
9.2309179e-05
7.6929517e-05
9.3422544e-05
5.7855744e-05
9.4316127e-05
3.8646121e-05
9.4988004e-05
1.9345767e-05
9.5436726e-05
9.5661328e-05
-1.9510059e-05
0.00011517139
-3.8974323e-05
0.00011490099
-5.8347095e-05
0.00011436078
-7.7582874e-05
0.00011355191
-9.6636456e-05
0.00011247612
-0.00011546302
0.00011113575
-0.00013401826
0.00010953367
-0.00015225841
0.00010767335
-0.00017014043
0.00010555882
-0.00018762204
0.00010319468
-0.00020466182
0.00010058608
-0.00022121932
9.7738701e-05
-0.00023725517
9.4658799e-05
-0.00025273111
9.1353142e-05
-0.00026761014
8.7829027e-05
-0.00028185656
8.4094262e-05
-0.0002954361
8.0157155e-05
-0.00030831595
7.6026504e-05
-0.00032046491
7.1711577e-05
-0.00033185338
6.7222099e-05
-0.00034245352
6.2568235e-05
-0.00035223927
5.7760574e-05
-0.00036118641
5.2810104e-05
-0.00036927268
4.7728195e-05
-0.0003764778
4.2526576e-05
-0.0003827835
3.7217309e-05
-0.00038817365
3.1812767e-05
-0.00039263424
2.6325608e-05
-0.00039615345
2.0768745e-05
-0.00039872171
1.5155318e-05
-0.00040033166
9.4986669e-06
-0.00040097829
3.8122984e-06
-0.00040065885
-1.8901456e-06
-0.00039937295
-7.59492e-06
-0.00039712252
-1.328821e-05
-0.00039391187
-1.8956164e-05
-0.00038974761
-2.458493e-05
-0.00038463872
-3.0160689e-05
-0.00037859652
-3.5669692e-05
-0.00037163461
-4.1098296e-05
-0.00036376891
-4.6432997e-05
-0.00035501757
-5.1660474e-05
-0.00034540098
-5.6767614e-05
-0.0003349417
-6.1741558e-05
-0.00032366442
-6.6569733e-05
-0.0003115959
-7.1239887e-05
-0.00029876494
-7.5740126e-05
-0.00028520226
-8.0058947e-05
-0.00027094047
-8.4185272e-05
-0.00025601398
-8.8108483e-05
-0.00024045892
-9.1818452e-05
-0.00022431304
-9.5305573e-05
-0.00020761562
-9.8560789e-05
-0.00019040739
-0.00010157563
-0.00017273042
-0.00010434221
-0.00015462797
-0.00010685331
-0.00013614447
-0.00010910234
-0.0001173253
-0.00011108338
-9.8216759e-05
-0.00011279123
-7.8865897e-05
-0.00011422139
-5.9320404e-05
-0.00011537008
-3.9628486e-05
-0.00011623426
-1.9838733e-05
-0.00011681166
1.9317843e-13
-0.00011710074
1.9838734e-05
-0.00011710074
3.9628486e-05
-0.00011681166
5.9320405e-05
-0.00011623426
7.8865898e-05
-0.00011537008
9.8216759e-05
-0.00011422139
0.0001173253
-0.00011279123
0.00013614447
-0.00011108338
0.00015462797
-0.00010910234
0.00017273042
-0.00010685331
0.00019040739
-0.00010434221
0.00020761562
-0.00010157563
0.00022431304
-9.8560789e-05
0.00024045892
-9.5305573e-05
0.00025601398
-9.1818452e-05
0.00027094047
-8.8108483e-05
0.00028520226
-8.4185272e-05
0.00029876494
-8.0058947e-05
0.0003115959
-7.5740126e-05
0.00032366442
-7.1239887e-05
0.0003349417
-6.6569733e-05
0.00034540098
-6.1741558e-05
0.00035501757
-5.6767614e-05
0.00036376891
-5.1660473e-05
0.00037163461
-4.6432997e-05
0.00037859652
-4.1098295e-05
0.00038463872
-3.5669692e-05
0.00038974761
-3.0160689e-05
0.00039391187
-2.458493e-05
0.00039712252
-1.8956164e-05
0.00039937295
-1.328821e-05
0.00040065885
-7.5949199e-06
0.00040097829
-1.8901455e-06
0.00040033166
3.8122985e-06
0.00039872171
9.4986671e-06
0.00039615345
1.5155318e-05
0.00039263424
2.0768745e-05
0.00038817365
2.6325608e-05
0.0003827835
3.1812767e-05
0.0003764778
3.7217309e-05
0.00036927268
4.2526576e-05
0.00036118641
4.7728195e-05
0.00035223927
5.2810104e-05
0.00034245352
5.7760574e-05
0.00033185338
6.2568236e-05
0.00032046491
6.7222099e-05
0.00030831595
7.1711577e-05
0.0002954361
7.6026504e-05
0.00028185656
8.0157156e-05
0.00026761014
8.4094262e-05
0.00025273111
8.7829027e-05
0.00023725517
9.1353142e-05
0.00022121932
9.4658799e-05
0.00020466182
9.7738701e-05
0.00018762204
0.00010058608
0.00017014043
0.00010319468
0.00015225841
0.00010555882
0.00013401826
0.00010767335
0.00011546302
0.00010953367
9.6636455e-05
0.00011113575
7.7582874e-05
0.00011247613
5.8347094e-05
0.00011355191
3.8974323e-05
0.00011436078
1.9510059e-05
0.00011490099
0.00011517139
-1.9704319e-05
0.00013487571
-3.9362391e-05
0.00013455906
-5.8928069e-05
0.00013392645
-7.8355404e-05
0.00013297924
-9.7598743e-05
0.00013171946
-0.00011661283
0.00013014983
-0.0001353529
0.00012827374
-0.00015377478
0.00012609523
-0.00017183499
0.00012361903
-0.00018949082
0.00012085052
-0.00020670046
0.00011779571
-0.00022342305
0.00011446129
-0.00023961882
0.00011085456
-0.00025524913
0.00010698345
-0.0002702766
0.0001028565
-0.00028466519
9.8482854e-05
-0.00029838028
9.387224e-05
-0.00031138873
8.9034957e-05
-0.00032365901
8.398186e-05
-0.00033516125
7.8724336e-05
-0.00034586731
7.3274291e-05
-0.00035575085
6.7644121e-05
-0.00036478744
6.1846696e-05
-0.00037295458
5.5895331e-05
-0.00038023177
4.9803761e-05
-0.00038660057
4.3586114e-05
-0.00039204468
3.7256881e-05
-0.00039654996
3.0830884e-05
-0.00040010446
2.4323247e-05
-0.0004026985
1.774936e-05
-0.00040432468
1.1124845e-05
-0.00040497791
4.4655218e-06
-0.00040465542
-2.2126339e-06
-0.00040335681
-8.8935241e-06
-0.00040108405
-1.5560969e-05
-0.00039784147
-2.2198747e-05
-0.00039363576
-2.8790636e-05
-0.000388476
-3.5320451e-05
-0.0003823736
-4.1772091e-05
-0.00037534232
-4.8129579e-05
-0.00036739822
-5.4377101e-05
-0.00035855964
-6.0499053e-05
-0.00034884717
-6.6480083e-05
-0.00033828359
-7.2305131e-05
-0.00032689386
-7.7959471e-05
-0.00031470499
-8.3428755e-05
-0.00030174606
-8.8699055e-05
-0.00028804811
-9.3756899e-05
-0.00027364407
-9.8589313e-05
-0.00025856869
-0.00010318386
-0.00024285846
-0.00010752868
-0.0002265515
-0.00011161253
-0.0002096875
-0.00011542479
-0.00019230758
-0.00011895554
-0.00017445422
-0.00012219557
-0.00015617115
-0.00012513639
-0.0001375032
-0.00012777029
-0.00011849623
-0.00013009035
-9.9196999e-05
-0.00013209047
-7.9653017e-05
-0.00013376537
-5.9912456e-05
-0.00013511064
-4.0024003e-05
-0.00013612272
-2.0036737e-05
-0.00013679893
1.9262967e-13
-0.00013713748
2.0036738e-05
-0.00013713748
4.0024003e-05
-0.00013679893
5.9912456e-05
-0.00013612272
7.9653017e-05
-0.00013511064
9.9196999e-05
-0.00013376537
0.00011849623
-0.00013209047
0.0001375032
-0.00013009035
0.00015617115
-0.00012777029
0.00017445423
-0.00012513639
0.00019230758
-0.00012219557
0.0002096875
-0.00011895554
0.0002265515
-0.00011542479
0.00024285846
-0.00011161253
0.00025856869
-0.00010752868
0.00027364407
-0.00010318386
0.00028804811
-9.8589313e-05
0.00030174606
-9.3756899e-05
0.00031470499
-8.8699055e-05
0.00032689386
-8.3428755e-05
0.00033828359
-7.7959471e-05
0.00034884717
-7.2305131e-05
0.00035855964
-6.6480083e-05
0.00036739822
-6.0499053e-05
0.00037534232
-5.43771e-05
0.0003823736
-4.8129579e-05
0.000388476
-4.1772091e-05
0.00039363576
-3.5320451e-05
0.00039784147
-2.8790636e-05
0.00040108405
-2.2198747e-05
0.00040335681
-1.5560969e-05
0.00040465542
-8.893524e-06
0.00040497791
-2.2126338e-06
0.00040432468
4.465522e-06
0.0004026985
1.1124846e-05
0.00040010446
1.774936e-05
0.00039654996
2.4323247e-05
0.00039204468
3.0830884e-05
0.00038660057
3.7256881e-05
0.00038023177
4.3586114e-05
0.00037295458
4.9803761e-05
0.00036478744
5.5895331e-05
0.00035575085
6.1846696e-05
0.00034586731
6.7644121e-05
0.00033516125
7.3274291e-05
0.00032365901
7.8724336e-05
0.00031138873
8.398186e-05
0.00029838028
8.9034957e-05
0.00028466519
9.387224e-05
0.0002702766
9.8482854e-05
0.00025524913
0.0001028565
0.00023961882
0.00010698345
0.00022342305
0.00011085456
0.00020670046
0.00011446129
0.00018949082
0.00011779571
0.00017183499
0.00012085052
0.00015377478
0.00012361903
0.0001353529
0.00012609523
0.00011661283
0.00012827374
9.7598742e-05
0.00013014983
7.8355404e-05
0.00013171946
5.8928069e-05
0.00013297924
3.9362391e-05
0.00013392645
1.9704319e-05
0.00013455906
0.00013487571
-1.9929609e-05
0.00015480531
-3.9812446e-05
0.0001544419
-5.9601843e-05
0.00015371585
-7.9251327e-05
0.00015262873
-9.871473e-05
0.00015118287
-0.00011794628
0.00014938138
-0.0001369007
0.00014722816
-0.00015553333
0.00014472785
-0.00017380017
0.00014188587
-0.00019165804
0.00013870839
-0.00020906465
0.00013520232
-0.00022597867
0.00013137531
-0.00024235987
0.00012723576
-0.00025816917
0.00012279275
-0.00027336876
0.0001180561
-0.00028792219
0.00011303628
-0.00030179442
0.00010774447
-0.00031495195
0.00010219249
-0.00032736288
9.6392787e-05
-0.00033899698
9.0358438e-05
-0.00034982579
8.4103102e-05
-0.00035982268
7.7641011e-05
-0.00036896292
7.0986934e-05
-0.00037722374
6.4156154e-05
-0.00038458442
5.7164437e-05
-0.0003910263
5.0027999e-05
-0.0003965329
4.2763473e-05
-0.00040108989
3.5387874e-05
-0.0004046852
2.7918561e-05
-0.00040730904
2.03732e-05
-0.00040895392
1.2769723e-05
-0.00040961468
5.1262869e-06
-0.00040928855
-2.5387684e-06
-0.00040797511
-1.0206965e-05
-0.00040567635
-1.7859732e-05
-0.00040239664
-2.547845e-05
-0.00039814278
-3.3044498e-05
-0.00039292393
-4.0539299e-05
-0.00038675165
-4.7944375e-05
-0.00037963984
-5.5241384e-05
-0.00037160477
-6.2412178e-05
-0.00036266497
-6.9438848e-05
-0.00035284128
-7.6303771e-05
-0.00034215675
-8.2989663e-05
-0.0003306366
-8.9479624e-05
-0.00031830817
-9.5757185e-05
-0.00030520087
-0.00010180636
-0.00029134608
-0.00010761168
-0.00027677713
-0.00011315827
-0.00026152915
-0.00011843184
-0.00024563906
-0.00012341878
-0.00022914541
-0.00012810618
-0.00021208833
-0.00013248187
-0.00019450944
-0.00013653444
-0.00017645168
-0.00014025332
-0.00015795928
-0.00014362878
-0.0001390776
-0.00014665197
-0.00011985301
-0.00014931494
-0.0001003328
-0.00015161067
-8.0565048e-05
-0.00015353313
-6.0598459e-05
-0.00015507723
-4.0482282e-05
-0.00015623889
-2.0266161e-05
-0.00015701505
1.9200872e-13
-0.00015740364
2.0266161e-05
-0.00015740364
4.0482283e-05
-0.00015701505
6.0598459e-05
-0.00015623889
8.0565048e-05
-0.00015507723
0.0001003328
-0.00015353313
0.00011985301
-0.00015161067
0.0001390776
-0.00014931494
0.00015795928
-0.00014665197
0.00017645168
-0.00014362878
0.00019450944
-0.00014025332
0.00021208833
-0.00013653444
0.00022914541
-0.00013248187
0.00024563906
-0.00012810618
0.00026152915
-0.00012341878
0.00027677713
-0.00011843184
0.00029134608
-0.00011315827
0.00030520087
-0.00010761168
0.00031830817
-0.00010180636
0.0003306366
-9.5757184e-05
0.00034215675
-8.9479624e-05
0.00035284128
-8.2989663e-05
0.00036266497
-7.6303771e-05
0.00037160477
-6.9438848e-05
0.00037963984
-6.2412178e-05
0.00038675165
-5.5241384e-05
0.00039292393
-4.7944375e-05
0.00039814278
-4.0539299e-05
0.00040239664
-3.3044497e-05
0.00040567635
-2.547845e-05
0.00040797511
-1.7859732e-05
0.00040928855
-1.0206965e-05
0.00040961468
-2.5387683e-06
0.00040895392
5.126287e-06
0.00040730904
1.2769723e-05
0.0004046852
2.03732e-05
0.00040108989
2.7918561e-05
0.0003965329
3.5387874e-05
0.0003910263
4.2763473e-05
0.00038458442
5.0027999e-05
0.00037722374
5.7164437e-05
0.00036896292
6.4156154e-05
0.00035982268
7.0986934e-05
0.00034982579
7.7641011e-05
0.00033899698
8.4103103e-05
0.00032736288
9.0358438e-05
0.00031495195
9.6392787e-05
0.00030179442
0.00010219249
0.00028792219
0.00010774447
0.00027336876
0.00011303628
0.00025816917
0.0001180561
0.00024235987
0.00012279275
0.00022597867
0.00012723576
0.00020906465
0.00013137531
0.00019165804