/*--------------------------------*- C++ -*----------------------------------*\
| =========                 |                                                 |
| \\      /  F ield         | OpenFOAM: The Open Source CFD Toolbox           |
|  \\    /   O peration     | Version:  2106                                  |
|   \\  /    A nd           | Website:  www.openfoam.com                      |
|    \\/     M anipulation  |                                                 |
\*---------------------------------------------------------------------------*/
FoamFile
{
    version     2.0;
    format      ascii;
    arch        "LSB;label=32;scalar=64";
    class       surfaceScalarField;
    location    "0.031";
    object      phi;
}
// * * * * * * * * * * * * * * * * * * * * * * * * * * * * * * * * * * * * * //

dimensions      [0 3 -1 0 0 0 0];

oriented        oriented;

internalField   nonuniform List<scalar> 
1984
(
0.00035712378
-0.00035715482
0.00070069945
-0.00034357567
0.0010176165
-0.00031691703
0.0012957807
-0.00027816424
0.0015245355
-0.00022875477
0.0016950657
-0.00017053018
0.0018007391
-0.0001056734
0.0018373721
-3.6633002e-05
0.0018034087
3.3963352e-05
0.0017000014
0.00010340733
0.001530985
0.00016901634
0.0013027661
0.00022821889
0.0010240798
0.00027868638
0.00070566332
0.00031841645
0.00035984
0.00034582332
3.1608117e-08
0.00035980839
-0.00035977801
0.00035980962
-0.00070560499
0.00034582698
-0.0010240274
0.00031842239
-0.0013027217
0.00027869435
-0.0015309503
0.00022822858
-0.0016999777
0.00016902736
-0.0018033969
0.00010341923
-0.0018373726
3.3975659e-05
-0.0018007518
-3.6620774e-05
-0.0016950901
-0.00010566173
-0.0015245706
-0.00017051951
-0.0012958251
-0.00022874549
-0.0010176684
-0.00027815668
-0.00070075695
-0.00031691144
-0.00035718471
-0.00034357224
-0.00035715367
0.00037746667
-0.00073465378
0.00074061746
-0.00070672646
0.0010755995
-0.00065189903
0.0013696323
-0.00057219712
0.0016114535
-0.00047057587
0.0017917447
-0.00035082141
0.0019034931
-0.00021742178
0.0019422712
-7.5411134e-05
0.0019064251
6.980948e-05
0.0017971619
0.00021267052
0.0016185343
0.00034764393
0.0013773018
0.00046945139
0.001082695
0.00057329316
0.00074606575
0.0006550457
0.0003804462
0.00071144287
3.2952106e-08
0.00074022164
-0.00038038159
0.00074022416
-0.00074600494
0.00071145034
-0.0010826404
0.00065505782
-0.0013772555
0.00057330945
-0.0016184981
0.00046947119
-0.0017971372
0.00034766645
-0.0019064128
0.00021269484
-0.0019422718
6.9834627e-05
-0.0019035064
-7.5386154e-05
-0.0017917702
-0.00021739794
-0.00161149
-0.00035079963
-0.0013696786
-0.00047055695
-0.0010756535
-0.00057218171
-0.00074067732
-0.00065188766
-0.00037753006
-0.0007067195
-0.00073465144
0.00041391035
-0.0011485986
0.0008121228
-0.0011049389
0.0011794493
-0.0010192256
0.0015018776
-0.00089462538
0.0017670599
-0.00073575813
0.0019647807
-0.00054854226
0.0020873514
-0.00033999244
0.0021299157
-0.0001179755
0.0020906551
0.00010907009
0.0019708851
0.00033244058
0.0017750377
0.00054349127
0.0015105176
0.00073397155
0.0011874415
0.00089636923
0.00081825808
0.0010242291
0.00041726365
0.0011124373
3.5307571e-08
0.00115745
-0.00041719441
0.0011574539
-0.00081819293
0.0011124489
-0.001187383
0.0010242479
-0.001510468
0.00089639443
-0.001774999
0.0007340022
-0.0019708587
0.00054352613
-0.0020906421
0.00033247824
-0.0021299164
0.00010910903
-0.0020873658
-0.00011793685
-0.0019648081
-0.0003399556
-0.0017670991
-0.00054850862
-0.0015019271
-0.00073572894
-0.0011795072
-0.00089460165
-0.00081218675
-0.0010192081
-0.00041397804
-0.0011049282
-0.001148595
0.00046799662
-0.001616633
0.00091823873
-0.001555181
0.0013335528
-0.0014345396
0.0016980963
-0.001259169
0.001997913
-0.0010355748
0.0022214603
-0.00077208962
0.0023600536
-0.00047858574
0.0024082079
-0.00016612978
0.0023638656
0.00015341239
0.0022285037
0.00046780245
0.0020071167
0.00076487835
0.0017080621
0.0010330261
0.0013427695
0.0012616619
0.00092531213
0.0014416865
0.00047186049
0.0015658889
3.8848427e-08
0.0016292716
-0.00047178431
0.001629277
-0.00092524042
0.001565905
-0.001342705
0.0014417125
-0.0017080075
0.0012616969
-0.002007074
0.0010330687
-0.0022284747
0.00076492685
-0.0023638513
0.00046785484
-0.0024082089
0.00015346653
-0.0023600696
-0.00016607607
-0.0022214906
-0.0004785346
-0.0019979562
-0.00077204301
-0.0016981508
-0.0010355344
-0.0013336162
-0.0012591362
-0.00091830881
-0.0014345155
-0.00046807072
-0.0015551663
-0.001616628
0.00054143631
-0.0021581115
0.0010623185
-0.0020760632
0.0015427718
-0.0019149929
0.0019644679
-0.0016808651
0.0023112695
-0.0013823763
0.0025698408
-0.001030661
0.0027301556
-0.00063890048
0.002785885
-0.00022185916
0.0027346518
0.00020464558
0.0025781479
0.00062430634
0.0023221226
0.0010209036
0.0019762173
0.0013789314
0.0015536355
0.0016842437
0.0010706534
0.0019246685
0.00054598684
0.0020905555
4.3825224e-08
0.0021752146
-0.00054590088
0.0021752217
-0.0010705725
0.0020905766
-0.0015535628
0.0019247027
-0.0019761557
0.0016842898
-0.0023220745
0.0013789876
-0.0025781152
0.0010209676
-0.0027346358
0.00062437545
-0.0027858863
0.00020471697
-0.0027301739
-0.00022178841
-0.0025698753
-0.00063883323
-0.0023113185
-0.0010305998
-0.0019645294
-0.0013823235
-0.0015428432
-0.0016808223
-0.0010623971
-0.0019149616
-0.00054151936
-0.0020760441
-0.0021581051
0.000637823
-0.0027959829
0.0012514062
-0.0026896464
0.0018173222
-0.0024809089
0.0023139785
-0.0021775214
0.0027223821
-0.0017907799
0.003026858
-0.0013351369
0.0032156379
-0.00082768038
0.0032813026
-0.00028752386
0.003221062
0.00026488617
0.0030368785
0.00080848987
0.0027354715
0.0013223105
0.0023281456
0.0017862574
0.0018304177
0.0021819716
0.0012614502
0.002493636
0.00064330352
0.0027087022
5.0630956e-08
0.0028184675
-0.0006432042
0.0028184766
-0.0012613567
0.0027087291
-0.0018303336
0.0024936796
-0.0023280742
0.0021820305
-0.0027354159
0.0017863292
-0.0030368408
0.0013223925
-0.0032210438
0.00080857845
-0.0032813045
0.00026497765
-0.0032156596
-0.0002874333
-0.0030268983
-0.00082759449
-0.0027224391
-0.001335059
-0.0023140496
-0.001790713
-0.0018174045
-0.0021774675
-0.0012514966
-0.0024808695
-0.00063791821
-0.0026896224
-0.0027959749
0.00076514927
-0.0035611889
0.0015011723
-0.0034256695
0.0021799363
-0.003159673
0.0027755348
-0.0027731198
0.0032652115
-0.0022804567
0.0036302246
-0.0017001499
0.0038565354
-0.0010539912
0.003935314
-0.00036630241
0.003863238
0.00033696214
0.0036426056
0.0010291223
0.0032813811
0.001683535
0.0027930306
0.0022746079
0.0021961035
0.0027788987
0.0015135675
0.003176172
0.00077190865
0.003450361
5.9899422e-08
0.0035903163
-0.0007717911
0.0035903276
-0.0015134566
0.0034503946
-0.0021960036
0.0031762267
-0.0027929458
0.0027789727
-0.0032813149
0.0022746983
-0.0036425608
0.0016836384
-0.0038632166
0.0010292342
-0.0039353167
0.00033707771
-0.0038565618
-0.00036618817
-0.0036302731
-0.0010538832
-0.0032652796
-0.0017000525
-0.0027756192
-0.0022803734
-0.0021800335
-0.0027730531
-0.0015012786
-0.0031596245
-0.00076526095
-0.0034256401
-0.0035611791
0.00093848093
-0.0044997379
0.0018411572
-0.0043283457
0.0026734732
-0.003991989
0.0034036439
-0.0035032905
0.0040037997
-0.0028806125
0.0044510546
-0.0021474048
0.0047283243
-0.0013312609
0.0048249069
-0.00046288504
0.0047367859
0.00042508316
0.0044666828
0.0012992255
0.0040242049
0.0021260129
0.0034257145
0.0028730983
0.0026938592
0.003510754
0.0018567796
0.0040132515
0.00094699464
0.0043601461
7.2568395e-08
0.0045372384
-0.00094685216
0.0045372523
-0.0018566451
0.0043601875
-0.0026937378
0.0040133193
-0.0034256112
0.003510846
-0.0040241241
0.0028732113
-0.0044666282
0.0021261424
-0.00473676
0.0012993661
-0.0048249108
0.0004252285
-0.0047283574
-0.0004627416
-0.0044511147
-0.0013311259
-0.0040038833
-0.0021472839
-0.0034037467
-0.00288051
-0.0026735908
-0.003503209
-0.0018412852
-0.0039919301
-0.00093861502
-0.0043283102
-0.0044997261
0.0011810886
-0.0056809098
0.0023169891
-0.0054642462
0.003364134
-0.0050391339
0.0042824985
-0.004421655
0.0050370564
-0.0036351704
0.0055991534
-0.0027095018
0.0059474974
-0.0016796049
0.0060688413
-0.00058422899
0.0059582661
0.00053565844
0.0056190398
0.0016384517
0.0050630128
0.0026820399
0.004310559
0.0036255521
0.0033900383
0.0044312747
0.0023368287
0.0050664611
0.0011918927
0.0055050821
8.9783717e-08
0.0057290413
-0.0011917163
0.0057290584
-0.0023366619
0.0055051331
-0.0033898873
0.0050665447
-0.0043104299
0.0044313886
-0.0050629114
0.0036256928
-0.0056189711
0.0026822022
-0.0059582338
0.0016386287
-0.006068847
0.00053584176
-0.0059475402
-0.00058404841
-0.0055992301
-0.001679436
-0.0050371618
-0.0027093522
-0.0042826269
-0.003635045
-0.0033642797
-0.0044215561
-0.0023171467
-0.0050390632
-0.001181253
-0.0054642039
-0.0056808958
0.0015206429
-0.0072016558
0.0029829202
-0.0069265235
0.0043306277
-0.0063868414
0.0055121869
-0.0056032141
0.0064825303
-0.0046055139
0.0072049498
-0.0034319212
0.0076523108
-0.002126966
0.0078079119
-0.00073983008
0.0076657314
0.00067783891
0.0072297323
0.0020744509
0.0065148676
0.0033969045
0.005547122
0.0045932977
0.0043628549
0.0056155418
0.0030075841
0.0064217319
0.0015340636
0.0069786026
1.1243541e-07
0.0072629924
-0.0015338425
0.0072630133
-0.0030073745
0.0069786652
-0.0043626645
0.0064218346
-0.0055469581
0.0056156822
-0.0065147379
0.0045934726
-0.0072296437
0.003397108
-0.00766569
0.002074675
-0.0078079205
0.00067807226
-0.007652368
-0.00073960093
-0.0072050501
-0.0021267539
-0.0064826659
-0.0034317364
-0.0055123497
-0.0046053612
-0.0043308107
-0.0056030951
-0.0029831166
-0.0063867573
-0.0015208466
-0.0069264739
-0.0072016393
0.0019753064
-0.0091770888
0.0038745524
-0.0088257695
0.0056245977
-0.0081368868
0.0071583648
-0.0071369812
0.0084172549
-0.005864404
0.0093537647
-0.0043684311
0.0099329225
-0.0027061237
0.010133543
-0.00094045094
0.0099485078
0.00086287449
0.0093825558
0.0026404029
0.0084548322
0.0043246281
0.0071989312
0.0058491988
0.0056619909
0.0071524821
0.0039031454
0.0081805773
0.0019908518
0.0088908962
1.4016601e-07
0.0092537041
-0.0019905758
0.0092537293
-0.0039028833
0.0088909727
-0.0056617517
0.008180703
-0.0071987232
0.0071526538
-0.008454665
0.0058494144
-0.0093824397
0.0043248826
-0.0099484534
0.0026406888
-0.010133557
0.00086317599
-0.0099330011
-0.00094015692
-0.0093538982
-0.0027058569
-0.0084174301
-0.0043682045
-0.007158571
-0.0058642203
-0.0056248267
-0.0071368394
-0.0038747958
-0.0081367882
-0.0019755572
-0.0088257124
-0.0091770699
0.0025242324
-0.011701471
0.0049509795
-0.011252517
0.0071866846
-0.010372592
0.0091455506
-0.0090958472
0.010752411
-0.0074712643
0.011946621
-0.0055626407
0.012683605
-0.0034431079
0.012936904
-0.0011937501
0.012698974
0.0011008041
0.011975047
0.0033643299
0.010789578
0.0055100968
0.0091856849
0.0074530923
0.0072236885
0.0091144785
0.0049792588
0.010425007
0.0025395872
0.011330568
1.6968825e-07
0.011793122
-0.0025392523
0.011793151
-0.0049789401
0.011330661
-0.0072233966
0.01042516
-0.0091854276
0.0091146848
-0.010789366
0.0074533526
-0.011974893
0.0055104098
-0.0126989
0.0033646957
-0.012936928
0.0011012035
-0.012683716
-0.0011933687
-0.011946798
-0.0034427745
-0.010752633
-0.0055623692
-0.0091458055
-0.0074710482
-0.0071869637
-0.0090956811
-0.0049512722
-0.01037248
-0.0025245307
-0.011252454
-0.011701451
0.0030611335
-0.01476277
0.0060037094
-0.014195092
0.0087143635
-0.013083246
0.011089109
-0.011470593
0.013036209
-0.0094183643
0.014481172
-0.0070076034
0.015370309
-0.004332245
0.01567184
-0.0014952813
0.015379893
0.0013927512
0.014498872
0.0042453513
0.013059369
0.0069495998
0.011114582
0.0093978788
0.0087380494
0.011491012
0.006021849
0.013141207
0.003070932
0.014281485
1.9313809e-07
0.01486386
-0.003070549
0.014863893
-0.0060214846
0.014281596
-0.0087377168
0.013141392
-0.011114284
0.011491252
-0.01305911
0.0093981779
-0.014498664
0.0069499638
-0.01537978
0.0042458119
-0.015671887
0.0013933106
-0.015370472
-0.0014947835
-0.014481404
-0.0043318422
-0.013036478
-0.0070072954
-0.011089407
-0.0094181197
-0.0087146854
-0.011470403
-0.0060040399
-0.013083125
-0.0030614634
-0.01419503
-0.014762749
0.0033422448
-0.018105174
0.0065547664
-0.017407614
0.0095138273
-0.016042307
0.012105998
-0.014062764
0.014229591
-0.011541957
0.015803524
-0.0085815367
0.016769106
-0.0052978264
0.017089166
-0.001815342
0.016764227
0.0017176907
0.015794389
0.0052151895
0.014217754
0.0085262341
0.012093443
0.01152219
0.0095024238
0.014082031
0.0065461919
0.016097439
0.0033375053
0.017490171
1.9853245e-07
0.018201167
-0.0033371081
0.0182012
-0.0065458179
0.017490306
-0.0095020947
0.016097669
-0.012093146
0.014082304
-0.014217467
0.011522499
-0.015794093
0.00852659
-0.016763996
0.0052157143
-0.017089289
0.0017186043
-0.016769363
-0.0018147097
-0.015803812
-0.0052973933
-0.014229879
-0.0085812286
-0.012106308
-0.01154169
-0.0095141669
-0.014062544
-0.0065551024
-0.01604219
-0.0033425653
-0.017407567
-0.018105155
0.0029654851
-0.021070778
0.0058180449
-0.020260174
0.0084441473
-0.018668409
0.01074477
-0.016363387
0.012627481
-0.013424668
0.014020103
-0.0099741588
0.014869586
-0.0061473093
0.015135782
-0.0020815376
0.014837479
0.0020159939
0.013960926
0.0060917421
0.012550581
0.0099365788
0.0106623
0.013410471
0.0083693106
0.01637502
0.0057619103
0.01870484
0.0029361167
0.020315965
1.7460193e-07
0.021137109
-0.0029357625
0.021137137
-0.0057615973
0.020316141
-0.0083690857
0.018705157
-0.010662114
0.016375332
-0.012550324
0.013410709
-0.013960462
0.0099367277
-0.014836776
0.0060920289
-0.015136282
0.0020181101
-0.014870048
-0.0020809436
-0.014020408
-0.0061470334
-0.012627699
-0.0099739381
-0.010745021
-0.013424367
-0.0084444557
-0.01636311
-0.0058183308
-0.018668315
-0.0029657309
-0.020260167
-0.021070766
0.0014655154
-0.022536349
0.0028745899
-0.021669248
0.0041667425
-0.019960562
0.0052969296
-0.017493574
0.0062154042
-0.014343143
0.0068869382
-0.010645693
0.0072917613
-0.0065521324
0.0073859691
-0.0021757454
0.0072306124
0.0021713506
0.0067691743
0.0065531802
0.0060598738
0.010645879
0.0051273575
0.014342988
0.0040088225
0.017493555
0.0027529171
0.019960745
0.0013995702
0.021669312
1.0408297e-07
0.022536575
-0.0013993587
0.0225366
-0.0027527811
0.021669563
-0.0040088299
0.019961206
-0.0051274137
0.017493916
-0.0060597608
0.014343057
-0.0067684792
0.010645446
-0.007227814
0.0065513637
-0.0073883813
0.0021786774
-0.0072927249
-0.0021766
-0.006887108
-0.0065526504
-0.0062153896
-0.010645657
-0.0052970049
-0.014342752
-0.0041669155
-0.017493199
-0.0028747332
-0.019960497
-0.0014656226
-0.021669278
-0.022536333
-0.0013867844
-0.021149514
-0.0027280514
-0.020327981
-0.0039726957
-0.018715918
-0.0050813652
-0.016384904
-0.0060057447
-0.013418764
-0.0067085901
-0.0099428474
-0.007164687
-0.0060960355
-0.0073211379
-0.0020192944
-0.0072305148
0.0020807275
-0.0068277411
0.0061504065
-0.0061617414
0.0099798796
-0.0052512586
0.013432505
-0.0041308561
0.016373153
-0.0028498532
0.018679742
-0.0014530218
0.020272481
-1.0878793e-07
0.021083662
0.0014528011
0.02108369
0.0028497097
0.020272654
0.0041308586
0.018680057
0.0052513107
0.016373463
0.0061616225
0.013432745
0.0068270343
0.0099800343
0.0072276815
0.0061507165
0.0073235493
0.0020828096
0.0071656671
-0.0020187179
0.0067087666
-0.0060957498
0.00600573
-0.00994262
0.005081436
-0.013418458
0.0039728608
-0.016384624
0.0027281853
-0.018715822
0.0013868822
-0.020327975
-0.021149502
-0.0029228629
-0.018226535
-0.0057362024
-0.017514642
-0.0083320671
-0.016120053
-0.010614977
-0.014101994
-0.01249499
-0.011538751
-0.013899074
-0.0085387634
-0.014771737
-0.0052233731
-0.015069653
-0.001721378
-0.014805606
0.0018166808
-0.013959758
0.0053045587
-0.012573097
0.0085932178
-0.010698561
0.011557969
-0.0084079038
0.014082496
-0.0057931399
0.016064978
-0.0029529348
0.017432276
-1.759934e-07
0.018130904
0.0029525777
0.018130936
0.0057928233
0.017432409
0.0084076745
0.016065206
0.01069837
0.014082768
0.012572838
0.011558277
0.013959296
0.0085935756
0.014804925
0.0053050882
0.015070147
0.0018175873
0.014772186
-0.0017207574
0.013899373
-0.0052229363
0.012495203
-0.0085384501
0.010615224
-0.011538479
0.0083323702
-0.01410177
0.0057364819
-0.016119933
0.0029231015
-0.017514594
-0.018226517
-0.0033236067
-0.014902772
-0.0065192861
-0.014318963
-0.0094635343
-0.013175805
-0.012044095
-0.011521433
-0.01415987
-0.0094229761
-0.015730209
-0.006968424
-0.016696334
-0.0042572484
-0.017020436
-0.0013972755
-0.016702183
0.0014984275
-0.015740698
0.0043430731
-0.01417317
0.0070256898
-0.012058148
0.0094429471
-0.0094763536
0.011500702
-0.0065290748
0.013117699
-0.0033293325
0.014232533
-1.98512e-07
0.01480177
0.0033289354
0.014801802
0.0065287006
0.014232644
0.0094760239
0.013117882
0.01205785
0.011500941
0.014172882
0.0094432455
0.015740404
0.007026054
0.016701958
0.0043435343
0.017020561
0.0014989837
0.016696584
-0.0013967803
0.015730492
-0.0042568437
0.014160154
-0.006968112
0.012044402
-0.0094227272
0.0094638699
-0.011521238
0.0065196175
-0.013175681
0.003323922
-0.014318899
-0.014902751
-0.0030561969
-0.011846412
-0.0059933118
-0.011381848
-0.0086968244
-0.010472292
-0.011062298
-0.0091559595
-0.012998088
-0.0074871864
-0.014431002
-0.0055355095
-0.015308133
-0.0033801173
-0.015599045
-0.0011063635
-0.015299279
0.0011986618
-0.014414541
0.0034583341
-0.012976446
0.0055875955
-0.011038453
0.0075049542
-0.0086747049
0.0091369534
-0.0059765323
0.010419527
-0.0030474664
0.011303467
-1.9203362e-07
0.011754495
0.0030470856
0.011754525
0.0059761698
0.011303559
0.0086743739
0.010419678
0.011038156
0.0091371587
0.012976188
0.0075052138
0.014414334
0.0055879083
0.015299168
0.0034587001
0.015599091
0.0011990608
0.015308293
-0.001105982
0.014431231
-0.0033797816
0.012998353
-0.0055352343
0.011062592
-0.0074869662
0.0086971432
-0.0091557895
0.0059936391
-0.010472177
0.0030565234
-0.011381783
-0.011846391
-0.0025236206
-0.0093226426
-0.0049482737
-0.0089571947
-0.0071789073
-0.0082416583
-0.0091288806
-0.0072059862
-0.010722996
-0.0058930707
-0.01190131
-0.004357196
-0.012620984
-0.0026604432
-0.012857707
-0.00086964047
-0.012606246
0.00094720065
-0.011874024
0.0027261124
-0.010687296
0.0044008676
-0.009090354
0.0059080121
-0.0071434676
0.007190067
-0.0049213505
0.0081974095
-0.0025092981
0.008891415
-1.6786052e-07
0.009245365
0.0025089668
0.0092453901
0.0049210351
0.0088914911
0.0071431786
0.0081975348
0.009090099
0.0071902383
0.010687085
0.0059082276
0.011873871
0.0044011224
0.012606172
0.0027263989
0.01285773
0.00094750338
0.012621093
-0.00086934512
0.011901485
-0.0026601736
0.010723216
-0.0043569657
0.0091291328
-0.005892883
0.007179184
-0.0072058407
0.004948564
-0.0082415567
0.0025239165
-0.0089571358
-0.0093226231
-0.0019728587
-0.0073496584
-0.0038681365
-0.0070619169
-0.0056113513
-0.0064984435
-0.0071346644
-0.005682673
-0.0083794744
-0.0046482608
-0.0092990687
-0.0034376017
-0.009860158
-0.002099354
-0.010043761
-0.00068603728
-0.009845158
0.00074859742
-0.0092713566
0.002152311
-0.0083433116
0.0034728226
-0.0070956615
0.0046603621
-0.0055754785
0.0056698839
-0.0038408465
0.0064627776
-0.0019582688
0.0070088372
-1.3792815e-07
0.0072872342
0.0019579971
0.0072872551
0.0038405883
0.0070088998
0.0055752426
0.0064628805
0.0070954563
0.0056700247
0.0083431462
0.0046605376
0.0092712415
0.0034730272
0.0098451037
0.0021525368
0.010043774
0.00074883302
0.0098602346
-0.00068580568
0.0092991996
-0.0020991386
0.0083796469
-0.003437413
0.0071348681
-0.0046481042
0.0056115779
-0.0056825505
0.0038683776
-0.0064983565
0.0019731073
-0.0070618655
-0.0073496413
-0.0015125021
-0.0058370546
-0.0029655269
-0.0056088921
-0.0043019625
-0.0051620079
-0.0054697946
-0.0045148409
-0.0064241449
-0.0036939106
-0.0071291658
-0.0027325807
-0.0075592397
-0.0016692801
-0.0076996177
-0.00054565934
-0.0075463755
0.00059535522
-0.0071054152
0.0017113508
-0.0063931687
0.002760576
-0.0054363664
0.0037035598
-0.004271194
0.0045047115
-0.0029420956
0.0051336792
-0.0014999511
0.0055666927
-1.0990307e-07
0.005787393
0.0014997349
0.0057874103
0.0029418905
0.0055667442
0.0042710074
0.0051337636
0.0054362056
0.0045048265
0.006393041
0.0037037022
0.0071053277
0.0027607404
0.0075463341
0.0017115304
0.0076996254
0.00059554172
0.0075592951
-0.00054547534
0.0071292637
-0.0016691072
0.0064242777
-0.0027324269
0.0054699546
-0.0036937811
0.0043021426
-0.0045147385
0.0029657205
-0.0051619344
0.0015127031
-0.0056088481
-0.0058370399
-0.0011642752
-0.004672698
-0.0022828521
-0.0044903152
-0.0033118254
-0.0041330347
-0.0042111796
-0.0036154867
-0.0049463563
-0.0029587338
-0.0054896559
-0.0021892812
-0.0058211788
-0.0013377571
-0.0059293479
-0.00043749025
-0.0058109538
0.00047696119
-0.0054707792
0.0013711762
-0.0049217332
0.0022115299
-0.0041845925
0.0029664192
-0.0032873385
0.0036074575
-0.0022641924
0.004110533
-0.0011542724
0.0044567728
-8.686247e-08
0.0046332074
0.0011541017
0.0046332217
0.0022640308
0.0044568152
0.0032871921
0.0041106023
0.004184467
0.0036075516
0.0049216343
0.0029665349
0.005470712
0.0022116627
0.0058109218
0.0013713206
0.0059293528
0.00047711075
0.0058212198
-0.00043734232
0.00548973
-0.0013376174
0.0049464586
-0.0021891556
0.0042113044
-0.0029586269
0.0033119674
-0.0036154014
0.0022830058
-0.0041329729
0.0011644356
-0.0044902779
-0.0046726855
-0.00090955525
-0.0037630775
-0.0017835015
-0.003616369
-0.0025876032
-0.0033289329
-0.0032906235
-0.0029124665
-0.0038655348
-0.0023838225
-0.0042905905
-0.0017642255
-0.0045500826
-0.0010782651
-0.0046347861
-0.00035278673
-0.0045420927
0.00038426782
-0.0042758399
0.0011049234
-0.0038462902
0.0017819802
-0.0032698359
0.0023899649
-0.0025684491
0.0029060707
-0.0017688989
0.0033109828
-0.00090172485
0.0035895987
-6.9100481e-08
0.0037315517
0.00090158914
0.0037315634
0.0017687707
0.0035896336
0.0025683332
0.0033110398
0.003269737
0.0029061477
0.0038462127
0.0023900593
0.0042757873
0.0017820881
0.0045420675
0.0011050404
0.0046347893
0.00038438892
0.0045501138
-0.00035266679
0.0042906476
-0.0010781513
0.0038656146
-0.0017641226
0.0032907218
-0.0023837341
0.0025877159
-0.0029123955
0.0017836242
-0.0033288811
0.00090968384
-0.0036163376
-0.003763067
-0.00072307707
-0.0030399476
-0.0014179321
-0.002921514
-0.0020574093
-0.0026894557
-0.0026166934
-0.0023531824
-0.0030742593
-0.0019262565
-0.00341272
-0.0014257649
-0.0036194572
-0.0008715278
-0.0036870171
-0.00028522686
-0.0036132441
0.0003104948
-0.0034012557
0.00089293499
-0.0030593154
0.0014400399
-0.0026005663
0.0019312158
-0.0020425608
0.0023480652
-0.001406618
0.00267504
-0.00071701287
0.0028999936
-5.5475437e-08
0.0030145943
0.00071690398
0.003014604
0.0014065152
0.0029000224
0.0020424682
0.0026750869
0.0026004875
0.0023481284
0.0030592538
0.001931293
0.0034012139
0.0014401281
0.0036132239
0.00089303036
0.0036870194
0.00031059347
0.0036194815
-0.00028512892
0.0034127649
-0.00087143464
0.0030743225
-0.0014256802
0.0026167718
-0.0019261834
0.0020574997
-0.0023531233
0.0014180309
-0.0026894124
0.00072318098
-0.0029214876
-0.0030399388
-0.00057453168
-0.0024653721
-0.0011266519
-0.0023693938
-0.0016347895
-0.002181318
-0.0020792294
-0.0019087425
-0.0024428613
-0.0015626246
-0.002711845
-0.0011567812
-0.0028761101
-0.0007072627
-0.0029296832
-0.00023165381
-0.002870852
0.00025166366
-0.0027021352
0.00072421817
-0.0024301869
0.0011680917
-0.0020655264
0.0015665552
-0.0016221497
0.0019046885
-0.0011170057
0.0021698961
-0.00056935503
0.0023523429
-4.5741588e-08
0.002445285
0.00056926529
0.002445293
0.0011169211
0.0023523665
0.0016220735
0.0021699345
0.0020654618
0.0019047402
0.0024301364
0.0015666183
0.002702101
0.0011681635
0.0028708354
0.00072429594
0.0029296847
0.00025174414
0.0028761296
-0.00023157383
0.0027118814
-0.00070718645
0.0024429128
-0.0011567116
0.0020792938
-0.0015625643
0.001634864
-0.0019086936
0.0011267337
-0.0021812821
0.0005746179
-0.0023693718
-0.0024653647
-0.00048349903
-0.0019818363
-0.00094816986
-0.001904723
-0.0013758828
-0.0017536051
-0.0017500547
-0.0015345706
-0.002056276
-0.0012564033
-0.002282869
-0.00093018822
-0.0024213132
-0.00056881847
-0.0024665309
-0.00018643614
-0.0024170211
0.00020215389
-0.0022749322
0.00058212924
-0.0020458946
0.00093905406
-0.0017388112
0.0012594719
-0.0013654999
0.0015313771
-0.00094024136
0.0017446375
-0.00047924352
0.001891345
-3.8094989e-08
0.0019660796
0.00047916879
0.0019660861
0.00094017098
0.0018913643
0.0013654366
0.0017446689
0.0017387575
0.0015314193
0.0020458526
0.0012595232
0.0022749036
0.0009391125
0.0024170071
0.00058219246
0.002466532
0.00020221928
0.0024213291
-0.00018637095
0.0022828989
-0.00056875628
0.0020563187
-0.00093013136
0.0017501082
-0.0012563538
0.0013759449
-0.0015345304
0.00094823836
-0.0017535755
0.00048357136
-0.0019047048
-0.0019818302
-0.00039191833
-0.0015898844
-0.00076855135
-0.0015280899
-0.0011151761
-0.0014069804
-0.0014183336
-0.0012314131
-0.0016663356
-0.0010084012
-0.0018497189
-0.00074680492
-0.0019615915
-0.00045694586
-0.0019978551
-0.00015017263
-0.0019573335
0.00016163236
-0.001841854
0.00046664976
-0.0016560659
0.0007532659
-0.0014072317
0.0010106377
-0.0011049393
0.0012290846
-0.00076074144
0.0014004397
-0.00038772641
0.00151833
-3.4559555e-08
0.0015783877
0.00038765863
0.0015783929
0.00076067764
0.0015183453
0.0011048819
0.0014004646
0.0014071831
0.0012291181
0.001656028
0.0010106784
0.0018418283
0.0007533122
0.0019573208
0.00046669988
0.0019978556
0.00016168451
0.0019616058
-0.00015012116
0.0018497459
-0.00045689641
0.0016663742
-0.00074675959
0.001418382
-0.0010083617
0.0011152325
-0.0012313809
0.0007686137
-0.0014069567
0.00039198425
-0.0015280753
-0.0015898795
-0.00044425988
-0.0011455947
-0.00087125104
-0.0011010988
-0.0012643447
-0.0010138868
-0.0016083105
-0.00088744724
-0.0018898926
-0.00072681908
-0.0020983244
-0.00053837305
-0.0022257346
-0.00032953571
-0.0022674273
-0.00010847997
-0.0022219934
0.00011619848
-0.00209142
0.00033607637
-0.0018808837
0.00054272961
-0.0015985741
0.00072832809
-0.0012553658
0.00088587634
-0.00086439913
0.0010094731
-0.00044058146
0.0010945123
-3.0317814e-08
0.0011378366
0.00044052199
0.0011378406
0.00086434313
0.0010945242
0.0012553154
0.0010094923
0.0015985313
0.00088590216
0.0018808502
0.00072835949
0.0020913971
0.00054276533
0.002221982
0.00033611499
0.0022674281
0.00011623835
0.0022257468
-0.00010843981
0.0020983478
-0.00032949741
0.0018899262
-0.00053833798
0.001608353
-0.00072678852
0.0012643945
-0.00088742232
0.0008713062
-0.0010138684
0.00044431832
-0.0011010875
-0.0011455909
-0.00042545999
-0.0007200938
-0.00083438219
-0.00069217658
-0.0012108198
-0.0006374492
-0.0015401848
-0.00055808223
-0.0018097901
-0.00045721384
-0.0020093455
-0.00033881762
-0.0021313361
-0.00020754509
-0.0021712234
-6.8592693e-05
-0.0021272822
7.2257322e-05
-0.0020018582
0.0002106523
-0.0018000156
0.00034088701
-0.0015296163
0.00045792885
-0.0012010724
0.00055733242
-0.00082694676
0.00063534741
-0.00042147608
0.00068904166
-4.1598379e-08
0.00071640211
0.0004213945
0.00071640449
0.00082686996
0.00068904871
0.0012010034
0.00063535885
0.0015295578
0.00055734779
0.0017999697
0.00045794753
0.0020018268
0.00034090826
0.0021272665
0.00021067529
0.0021712238
7.2281042e-05
0.0021313528
-6.8568798e-05
0.0020093777
-0.0002075223
0.0018098364
-0.00033879668
0.0015402434
-0.00045719555
0.0012108884
-0.00055806728
0.00083445807
-0.00063743812
0.00042554037
-0.00069216976
-0.0007200915
-0.00070803753
-0.0013886464
-0.0020154341
-0.0025641712
-0.0030137153
-0.0033468333
-0.0035508674
-0.0036182709
-0.0035471811
-0.00334002
-0.0030048162
-0.0025545452
-0.0020065513
-0.001381864
-0.00070439343
-2.76409e-08
0.00070433924
0.001381813
0.0020065056
0.0025545065
0.003004786
0.0033399994
0.0035471708
0.0036182713
0.0035508784
0.0033468545
0.0030137458
0.0025642098
0.0020154794
0.0013886966
0.00070809075
)
;

boundaryField
{
    leftWall
    {
        type            cyclic;
        value           nonuniform List<scalar> 
32
(
3.104004e-08
3.2294449e-08
3.4475636e-08
3.7728235e-08
4.2262094e-08
4.841463e-08
5.673893e-08
6.804996e-08
8.3303275e-08
1.03087e-07
1.2660838e-07
1.5008952e-07
1.6514682e-07
1.5880222e-07
1.1970488e-07
5.5730375e-08
-5.0898277e-08
-1.1605161e-07
-1.5607391e-07
-1.6337868e-07
-1.4888554e-07
-1.2550868e-07
-1.0170824e-07
-8.1322246e-08
-6.5260626e-08
-5.2791399e-08
-4.3843165e-08
-3.6806228e-08
-3.3562725e-08
-2.9770988e-08
-4.0952788e-08
-2.7122547e-08
)
;
    }
    rightWall
    {
        type            cyclic;
        value           nonuniform List<scalar> 
32
(
-3.104004e-08
-3.2294449e-08
-3.4475636e-08
-3.7728235e-08
-4.2262094e-08
-4.841463e-08
-5.673893e-08
-6.804996e-08
-8.3303275e-08
-1.03087e-07
-1.2660838e-07
-1.5008952e-07
-1.6514682e-07
-1.5880222e-07
-1.1970488e-07
-5.5730375e-08
5.0898277e-08
1.1605161e-07
1.5607391e-07
1.6337868e-07
1.4888554e-07
1.2550868e-07
1.0170824e-07
8.1322246e-08
6.5260626e-08
5.2791399e-08
4.3843165e-08
3.6806228e-08
3.3562725e-08
2.9770988e-08
4.0952788e-08
2.7122547e-08
)
;
    }
    lowerWall
    {
        type            calculated;
        value           uniform 0;
    }
    atmosphere
    {
        type            calculated;
        value           nonuniform List<scalar> 
32
(
-1.2029151e-05
-1.1567739e-05
-1.0661432e-05
-9.3451773e-06
-7.6697198e-06
-5.6996411e-06
-3.5110102e-06
-1.1891264e-06
1.1674779e-06
3.4911982e-06
5.6832332e-06
7.6578772e-06
9.3385379e-06
1.0660048e-05
1.1571107e-05
1.203632e-05
1.2037605e-05
1.1574915e-05
1.066624e-05
9.3468844e-06
7.6680648e-06
5.6948727e-06
3.5038388e-06
1.1806282e-06
-1.1759544e-06
-3.4983639e-06
-5.6880152e-06
-7.6595592e-06
-9.3368632e-06
-1.065527e-05
-1.1563952e-05
-1.2027873e-05
)
;
    }
    defaultFaces
    {
        type            empty;
        value           nonuniform List<scalar> 0();
    }
}


// ************************************************************************* //
