/*--------------------------------*- C++ -*----------------------------------*\
| =========                 |                                                 |
| \\      /  F ield         | OpenFOAM: The Open Source CFD Toolbox           |
|  \\    /   O peration     | Version:  2106                                  |
|   \\  /    A nd           | Website:  www.openfoam.com                      |
|    \\/     M anipulation  |                                                 |
\*---------------------------------------------------------------------------*/
FoamFile
{
    version     2.0;
    format      ascii;
    arch        "LSB;label=32;scalar=64";
    class       volScalarField;
    location    "0.031";
    object      reconstructedDistanceFunction;
}
// * * * * * * * * * * * * * * * * * * * * * * * * * * * * * * * * * * * * * //

dimensions      [0 1 0 0 0 0 0];

internalField   nonuniform List<scalar> 
1024
(
0
0
0
0
0
0
0
0
0
0
0
0
0
0
0
0
0
0
0
0
0
0
0
0
0
0
0
0
0
0
0
0
0
0
0
0
0
0
0
0
0
0
0
0
0
0
0
0
0
0
0
0
0
0
0
0
0
0
0
0
0
0
0
0
0
0
0
0
0
0
0
0
0
0
0
0
0
0
0
0
0
0
0
0
0
0
0
0
0
0
0
0
0
0
0
0
0
0
0
0
0
0
0
0
0
0
0
0
0
0
0
0
0
0
0
0
0
0
0
0
0
0
0
0
0
0
0
0
0
0
0
0
0
0
0
0
0
0
0
0
0
0
0
0
0
0
0
0
0
0
0
0
0
0
0
0
0
0
0
0
0
0
0
0
0
0
0
0
0
0
0
0
0
0
0
0
0
0
0
0
0
0
0
0
0
0
0
0
0
0
0
0
0
0
0
0
0
0
0
0
0
0
0
0
0
0
0
0
0
0
0
0
0
0
0
0
0
0
0
0
0
0
0
0
0
0
0
0
0
0
0
0
0
0
0
0
0
0
0
0
0
0
0
0
0
0
0
0
0
0
0
0
0
0
0
0
0
0
0
0
0
0
0
0
0
0
0
0
0
0
0
0
0
0
0
0
0
0
0
0
0
0
0
0
0
0
0
0
0
0
0
0
0
0
0
0
0
0
0
0
0
0
0
0
0
0
0
0
0
0
0
0
0
0
0
0
0
0
0
0
0
0
0
0
0
0
0
0
0
0
0
0
0
0
0
0
0
0
0
0
0
0
0
0
0
0
0
0
0
0
0
0
0
0
0
0
0
0
0
0
0
0
0
0
0
0
0
0
0
0
0
0
0
0
0
0
0
0
0
0
0
0
0
0
0
0
0
0
0
0.10960764
0.10951854
0.10942276
0.10932619
0.10923049
0.10914154
0.10906067
0.10899244
0.1089388
0.10890172
0.10888298
0.10888298
0.10890172
0.1089388
0.10899244
0.10906067
0.10914154
0.10923049
0.10932619
0.10942276
0.10951854
0.10960764
0.1096887
0
0
0
0
0.078617015
0.078598211
0.078560992
0.078507202
0.078438789
0.078357757
0.078268678
0.078172913
0.078076341
0.077980627
0.077891653
0.077810757
0.077742496
0.077688836
0.077651732
0.077632984
0.077632984
0.077651732
0.077688835
0.0777425
0.07781076
0.07789166
0.077980629
0.07807634
0.078172914
0.078268682
0.07835776
0.078438788
0.078507203
0.07856099
0.078598211
0.078617013
0.047367015
0.047348223
0.047311027
0.047257262
0.047188879
0.047107874
0.047018816
0.046923062
0.04682649
0.046730765
0.04664177
0.046560847
0.046492556
0.046438869
0.046401745
0.046382986
0.046382985
0.046401745
0.046438869
0.04649256
0.04656085
0.046641777
0.046730767
0.046826489
0.046923063
0.04701882
0.047107877
0.047188878
0.047257263
0.047311025
0.047348224
0.047367013
0.016117015
0.016098235
0.016061061
0.016007323
0.015938969
0.015857991
0.015768953
0.015673211
0.01557664
0.015480902
0.015391887
0.015310937
0.015242617
0.015188903
0.015151757
0.015132987
0.015132987
0.015151757
0.015188902
0.015242621
0.015310941
0.015391894
0.015480905
0.015576637
0.015673212
0.015768959
0.015857994
0.015938968
0.016007323
0.016061059
0.016098236
0.016117013
-0.015132985
-0.015151753
-0.015188904
-0.015242617
-0.015310942
-0.015391892
-0.015480909
-0.01557664
-0.015673211
-0.01576896
-0.015857996
-0.015938973
-0.016007323
-0.016061064
-0.01609823
-0.016117011
-0.016117012
-0.01609823
-0.016061065
-0.016007319
-0.015938969
-0.015857989
-0.015768957
-0.015673214
-0.015576639
-0.015480903
-0.015391889
-0.015310942
-0.015242616
-0.015188906
-0.015151752
-0.015132987
-0.046382985
-0.046401741
-0.046438869
-0.046492556
-0.046560852
-0.046641775
-0.046730771
-0.046826491
-0.046923062
-0.047018822
-0.047107879
-0.047188883
-0.047257263
-0.047311031
-0.047348217
-0.04736701
-0.04736701
-0.047348217
-0.047311031
-0.047257259
-0.047188879
-0.047107872
-0.047018819
-0.046923065
-0.04682649
-0.046730765
-0.046641772
-0.046560852
-0.046492556
-0.046438872
-0.04640174
-0.046382987
-0.077632985
-0.077651729
-0.077688835
-0.077742496
-0.077810762
-0.077891658
-0.077980633
-0.078076342
-0.078172913
-0.078268684
-0.078357762
-0.078438793
-0.078507202
-0.078560997
-0.078598205
-0.078617009
-0.078617009
-0.078598205
-0.078560998
-0.078507198
-0.078438789
-0.078357755
-0.078268681
-0.078172917
-0.078076341
-0.077980627
-0.077891655
-0.077810763
-0.077742495
-0.077688837
-0.077651728
-0.077632987
-0.10888298
-0.10890172
-0.1089388
-0.10899244
-0.10906067
-0.10914154
-0.1092305
-0.10932619
-0.10942276
-0.10951855
-0.10960764
0
0
0
0
0
0
0
0
0
0
-0.10960764
-0.10951854
-0.10942277
-0.10932619
-0.10923049
-0.10914154
-0.10906067
-0.10899243
-0.1089388
-0.10890172
-0.10888299
0
0
0
0
0
0
0
0
0
0
0
0
0
0
0
0
0
0
0
0
0
0
0
0
0
0
0
0
0
0
0
0
0
0
0
0
0
0
0
0
0
0
0
0
0
0
0
0
0
0
0
0
0
0
0
0
0
0
0
0
0
0
0
0
0
0
0
0
0
0
0
0
0
0
0
0
0
0
0
0
0
0
0
0
0
0
0
0
0
0
0
0
0
0
0
0
0
0
0
0
0
0
0
0
0
0
0
0
0
0
0
0
0
0
0
0
0
0
0
0
0
0
0
0
0
0
0
0
0
0
0
0
0
0
0
0
0
0
0
0
0
0
0
0
0
0
0
0
0
0
0
0
0
0
0
0
0
0
0
0
0
0
0
0
0
0
0
0
0
0
0
0
0
0
0
0
0
0
0
0
0
0
0
0
0
0
0
0
0
0
0
0
0
0
0
0
0
0
0
0
0
0
0
0
0
0
0
0
0
0
0
0
0
0
0
0
0
0
0
0
0
0
0
0
0
0
0
0
0
0
0
0
0
0
0
0
0
0
0
0
0
0
0
0
0
0
0
0
0
0
0
0
0
0
0
0
0
0
0
0
0
0
0
0
0
0
0
0
0
0
0
0
0
0
0
0
0
0
0
0
0
0
0
0
0
0
0
0
0
0
0
0
0
0
0
0
0
0
0
0
0
0
0
0
0
0
0
0
0
0
0
0
0
0
0
0
0
0
0
0
0
0
0
0
0
0
0
0
0
0
0
0
0
0
0
0
0
0
0
0
0
0
0
0
0
0
0
0
0
0
0
0
0
0
0
0
0
0
0
0
0
0
0
0
0
0
0
0
0
0
0
0
0
0
0
0
0
0
0
0
0
0
0
0
)
;

boundaryField
{
    leftWall
    {
        type            cyclic;
    }
    rightWall
    {
        type            cyclic;
    }
    lowerWall
    {
        type            calculated;
        value           uniform 0;
    }
    atmosphere
    {
        type            calculated;
        value           uniform 0;
    }
    defaultFaces
    {
        type            empty;
    }
}


// ************************************************************************* //
