/*--------------------------------*- C++ -*----------------------------------*\
| =========                 |                                                 |
| \\      /  F ield         | OpenFOAM: The Open Source CFD Toolbox           |
|  \\    /   O peration     | Version:  2106                                  |
|   \\  /    A nd           | Website:  www.openfoam.com                      |
|    \\/     M anipulation  |                                                 |
\*---------------------------------------------------------------------------*/
FoamFile
{
    version     2.0;
    format      ascii;
    arch        "LSB;label=32;scalar=64";
    class       volScalarField;
    location    "0.03";
    object      p;
}
// * * * * * * * * * * * * * * * * * * * * * * * * * * * * * * * * * * * * * //

dimensions      [1 -1 -2 0 0 0 0];

internalField   nonuniform List<scalar> 
4096
(
7.4362348
7.3646214
7.222078
7.0099752
6.7303596
6.3859227
5.9799726
5.5164268
4.9997687
4.4349587
3.827413
3.1829898
2.5079168
1.8086928
1.0920389
0.36481571
-0.36593818
-1.093175
-1.8098845
-2.5091632
-3.184274
-3.828704
-4.4362442
-5.0010631
-5.5177117
-5.981207
-6.3871011
-6.7315074
-7.0110894
-7.2231572
-7.3656795
-7.4372916
-7.4372916
-7.3656795
-7.2231572
-7.0110894
-6.7315074
-6.3871011
-5.981207
-5.5177118
-5.0010631
-4.4362442
-3.828704
-3.184274
-2.5091632
-1.8098845
-1.093175
-0.36593817
0.36481571
1.0920389
1.8086928
2.5079168
3.1829897
3.8274129
4.4349587
4.9997687
5.5164268
5.9799726
6.3859227
6.7303596
7.0099752
7.222078
7.3646214
7.4362347
7.5071865
7.4348923
7.2909952
7.0768788
6.794608
6.4469004
6.0370932
5.5691396
5.0475606
4.4773631
3.8640197
3.2134546
2.5319456
1.8260525
1.1025602
0.36838931
-0.36934753
-1.1035352
-1.8270985
-2.5330681
-3.2146392
-3.8652349
-4.4785946
-5.0488271
-5.5704291
-6.038365
-6.4481591
-6.7958647
-7.0781328
-7.2922341
-7.4361263
-7.5084259
-7.5084259
-7.4361264
-7.2922342
-7.0781328
-6.7958647
-6.4481592
-6.0383651
-5.5704291
-5.0488271
-4.4785946
-3.8652349
-3.2146392
-2.533068
-1.8270984
-1.1035352
-0.36934752
0.36838931
1.1025602
1.8260525
2.5319456
3.2134546
3.8640197
4.4773631
5.0475606
5.5691396
6.0370932
6.4469004
6.794608
7.0768788
7.2909952
7.4348924
7.5071865
7.650411
7.5767393
7.4301033
7.2119129
6.9242703
6.5699401
6.1523318
5.6754723
5.1439545
4.562884
3.9378457
3.2748725
2.580357
1.8609905
1.1237309
0.37549795
-0.37632326
-1.1245247
-1.8619028
-2.5813538
-3.2759436
-3.9389733
-4.5640607
-5.1451946
-5.6767693
-6.1536577
-6.571287
-6.9256458
-7.2133083
-7.4315055
-7.5781497
-7.6518302
-7.6518302
-7.5781497
-7.4315055
-7.2133084
-6.9256458
-6.571287
-6.1536577
-5.6767694
-5.1451946
-4.5640608
-3.9389733
-3.2759437
-2.5813538
-1.8619028
-1.1245247
-0.37632326
0.37549795
1.1237309
1.8609905
2.5803569
3.2748724
3.9378457
4.562884
5.1439545
5.6754723
6.1523318
6.5699401
6.9242703
7.2119129
7.4301033
7.5767394
7.650411
7.8670342
7.7912799
7.640502
7.4161445
7.120369
6.7560229
6.3266068
5.836259
5.2897067
4.6921969
4.0494751
3.3677334
2.6535376
1.9137566
1.1554788
0.38617779
-0.38690709
-1.1562946
-1.9145618
-2.6543973
-3.3686704
-4.0504969
-4.6933126
-5.2909307
-5.8375815
-6.3279956
-6.7574695
-7.1218779
-7.4176926
-7.6420764
-7.7928802
-7.8686493
-7.8686493
-7.7928802
-7.6420764
-7.4176926
-7.1218779
-6.7574696
-6.3279956
-5.8375815
-5.2909307
-4.6933126
-4.0504969
-3.3686704
-2.6543973
-1.9145618
-1.1562946
-0.38690709
0.38617779
1.1554788
1.9137566
2.6535376
3.3677334
4.0494751
4.6921969
5.2897067
5.836259
6.3266068
6.756023
7.120369
7.4161445
7.640502
7.7912799
7.8670342
8.1591041
8.0805453
7.9241782
7.6915061
7.3847675
7.0069136
6.5615731
6.0530351
5.4862027
4.8665241
4.1999576
3.4929163
2.7522067
1.9849585
1.1985604
0.40064215
-0.40116333
-1.1991321
-1.9855708
-2.7528953
-3.4937076
-4.2008719
-4.8675812
-5.4874146
-6.0543874
-6.5630322
-7.0084684
-7.3864113
-7.6932185
-7.9259424
-8.0823525
-8.1609358
-8.1609358
-8.0823525
-7.9259424
-7.6932185
-7.3864113
-7.0084684
-6.5630322
-6.0543874
-5.4874146
-4.8675812
-4.2008719
-3.4937076
-2.7528953
-1.9855708
-1.1991321
-0.40116332
0.40064216
1.1985605
1.9849585
2.7522067
3.4929164
4.1999576
4.8665241
5.4862027
6.0530351
6.5615731
7.0069136
7.3847675
7.6915061
7.9241782
8.0805453
8.1591041
8.5293947
8.4472764
8.2838253
8.0406108
7.7199723
7.3249948
6.8594703
6.3278758
5.7353318
5.0875452
4.3907432
3.6516256
2.8773081
2.0752459
1.2531631
0.41899802
-0.41922921
-1.2534455
-2.0756095
-2.877792
-3.6522572
-4.3915443
-5.0885403
-5.7365315
-6.329264
-6.8610199
-7.3266883
-7.7217949
-8.0425377
-8.2858356
-8.4493496
-8.5315008
-8.5315008
-8.4493496
-8.2858356
-8.0425377
-7.7217949
-7.3266883
-6.8610199
-6.329264
-5.7365315
-5.0885402
-4.3915443
-3.6522572
-2.8777919
-2.0756095
-1.2534455
-0.41922918
0.41899805
1.2531631
2.0752459
2.8773082
3.6516257
4.3907433
5.0875452
5.7353318
6.3278759
6.8594704
7.3249948
7.7199723
8.0406108
8.2838253
8.4472764
8.5293947
8.9814352
8.8949696
8.7228684
8.4667827
8.1291751
7.7132932
7.2231325
6.6634005
6.039481
5.3573819
4.6236641
3.8453865
3.0300402
2.1854725
1.319815
0.44140829
-0.44128326
-1.3197539
-2.1855337
-3.0302733
-3.8458276
-4.6243358
-5.3583028
-6.0406644
-6.6648405
-7.224806
-7.7151743
-8.1312372
-8.4689911
-8.7251925
-8.8973757
-8.9838809
-8.9838809
-8.8973757
-8.7251925
-8.4689911
-8.1312372
-7.7151743
-7.224806
-6.6648404
-6.0406644
-5.3583027
-4.6243358
-3.8458275
-3.0302733
-2.1855336
-1.3197539
-0.44128321
0.44140835
1.319815
2.1854725
3.0300403
3.8453866
4.6236642
5.3573819
6.0394811
6.6634006
7.2231326
7.7132933
8.1291752
8.4667827
8.7228684
8.8949696
8.9814352
9.5195503
9.4279102
9.24551
8.9741015
8.6162928
8.1755248
7.6560356
7.0628112
6.401551
5.6786138
4.900955
4.0760588
3.211864
2.3166874
1.3991466
0.46807908
-0.46754043
-1.3986908
-2.3163943
-3.2117991
-4.0762688
-4.9014704
-5.6794542
-6.4027289
-7.0643264
-7.6578664
-8.1776339
-8.6186369
-8.9766366
-9.2481919
-9.4306911
-9.52238
-9.52238
-9.4306911
-9.2481919
-8.9766366
-8.6186369
-8.1776339
-7.6578664
-7.0643264
-6.4027289
-5.6794541
-4.9014703
-4.0762687
-3.2117991
-2.3163942
-1.3986908
-0.46754037
0.46807915
1.3991467
2.3166875
3.2118641
4.0760589
4.9009551
5.6786139
6.4015511
7.0628113
7.6560357
8.1755249
8.6162929
8.9741015
9.2455101
9.4279103
9.5195503
10.148876
10.051185
9.8567432
9.5674179
9.1859893
8.7161206
8.1623287
7.5299319
6.8250011
6.0543097
5.2252685
4.3458536
3.4245266
2.470156
1.4919303
0.49927311
-0.49824796
-1.4910124
-2.4694461
-3.4241097
-4.3457923
-5.2256047
-6.0550673
-6.8261928
-7.5315549
-8.1643538
-8.7184981
-9.1886641
-9.5703345
-9.8598417
-10.054404
-10.152153
-10.152153
-10.054404
-9.8598417
-9.5703345
-9.1886641
-8.7184981
-8.1643538
-7.5315549
-6.8261928
-6.0550673
-5.2256046
-4.3457922
-3.4241096
-2.4694461
-1.4910124
-0.4982479
0.49927317
1.4919304
2.4701561
3.4245267
4.3458537
5.2252685
6.0543098
6.8250012
7.529932
8.1623288
8.7161207
9.1859894
9.5674179
9.8567432
10.051185
10.148876
10.875425
10.77075
10.56241
10.252407
9.8437147
9.3402562
8.7468652
8.0692413
7.3138917
6.4880709
5.599713
4.657359
3.6700763
2.6473657
1.5990745
0.53530375
-0.53369238
-1.5976005
-2.6461567
-3.6692423
-4.656983
-5.5998484
-6.4887462
-7.3151156
-8.0710022
-8.7491239
-9.3429499
-9.8467783
-10.255772
-10.566
-10.774485
-10.87923
-10.87923
-10.774485
-10.566
-10.255772
-9.8467783
-9.3429499
-8.7491239
-8.0710022
-7.3151156
-6.4887462
-5.5998484
-4.656983
-3.6692423
-2.6461567
-1.5976005
-0.53369234
0.53530379
1.5990745
2.6473658
3.6700763
4.657359
5.5997131
6.4880709
7.3138918
8.0692414
8.7468652
9.3402562
9.8437147
10.252407
10.56241
10.77075
10.875425
11.706146
11.593491
11.369265
11.035619
10.595757
10.053896
9.4152368
8.6859088
7.8729169
6.9840665
6.0278903
5.0135775
3.9508838
2.8500323
1.7216232
0.57653284
-0.57420211
-1.7194708
-2.8482183
-3.9495509
-5.0128333
-6.027799
-6.984659
-7.8741967
-8.6878491
-9.4177818
-10.056973
-10.599283
-11.039507
-11.373422
-11.597824
-11.710563
-11.710563
-11.597824
-11.373422
-11.039507
-10.599283
-10.056973
-9.4177819
-8.6878492
-7.8741967
-6.984659
-6.027799
-5.0128333
-3.9495509
-2.8482183
-1.7194708
-0.57420209
0.57653286
1.7216232
2.8500323
3.9508838
5.0135776
6.0278904
6.9840666
7.872917
8.6859088
9.4152368
10.053896
10.595757
11.035619
11.369265
11.593491
11.706146
12.648988
12.527277
12.285021
11.924547
11.449311
10.86387
10.173841
9.3858452
8.5074439
7.5470656
6.5139256
5.4179467
4.2696647
3.0801217
1.8607734
0.62337331
-0.62015246
-1.8577851
-3.0775699
-4.2677299
-5.4167658
-6.513576
-7.5475781
-8.5088107
-9.388022
-10.176751
-10.867416
-11.453388
-11.929048
-12.289836
-12.532296
-12.654107
-12.654107
-12.532296
-12.289836
-11.929048
-11.453388
-10.867416
-10.176751
-9.388022
-8.5088107
-7.5475782
-6.5135761
-5.4167659
-4.2677299
-3.0775699
-1.8577851
-0.62015246
0.62337331
1.8607734
3.0801217
4.2696647
5.4179467
6.5139256
7.5470657
8.5074439
9.3858452
10.173841
10.863871
11.449311
11.924547
12.285021
12.527277
12.648988
13.712959
13.581027
13.31843
12.927688
12.412543
11.777935
11.029952
10.175767
9.2235659
8.1824793
7.0624963
5.8743676
4.629503
3.3398706
2.0178881
0.67629812
-0.67196585
-2.0138612
-3.3364139
-4.6268425
-5.8726705
-7.0618562
-8.1829215
-9.2250619
-10.178248
-11.033315
-11.782051
-12.417277
-12.932911
-13.324013
-13.586842
-13.718887
-13.718887
-13.586842
-13.324013
-12.932911
-12.417277
-11.782051
-11.033315
-10.178248
-9.225062
-8.1829215
-7.0618562
-5.8726706
-4.6268425
-3.336414
-2.0138613
-0.67196587
0.6762981
2.017888
3.3398706
4.629503
5.8743676
7.0624963
8.1824793
9.2235659
10.175767
11.029952
11.777935
12.412543
12.927688
13.31843
13.581027
13.712959
14.908236
14.764824
14.479378
14.054637
13.49467
12.804842
11.991769
11.063242
10.028151
8.8964153
7.6788901
6.3872515
5.0338905
3.631812
2.1945121
0.73584604
-0.73011886
-2.1891866
-3.6272349
-5.030348
-6.3849485
-7.6779341
-8.8968172
-10.02985
-11.066132
-11.995707
-12.809659
-13.500196
-14.060714
-14.485852
-14.771551
-14.915086
-14.915086
-14.771551
-14.485852
-14.060714
-13.500196
-12.809659
-11.995708
-11.066132
-10.02985
-8.8968173
-7.6779342
-6.3849485
-5.030348
-3.627235
-2.1891867
-0.73011891
0.735846
2.194512
3.631812
5.0338905
6.3872514
7.6788901
8.8964153
10.028151
11.063241
11.991769
12.804842
13.49467
14.054637
14.479378
14.764824
14.908236
16.246258
16.089997
15.778977
15.316182
14.706047
13.954416
13.068494
12.056766
10.928912
9.6957328
8.3690454
6.9615569
5.4867565
3.9588009
2.3923893
0.80263037
-0.79514204
-2.3854315
-3.9528284
-5.4821435
-6.9585555
-8.3677679
-9.6961648
-10.930943
-12.06023
-13.073187
-13.960116
-14.71254
-15.323273
-15.786486
-16.097768
-16.254155
-16.254155
-16.097768
-15.786486
-15.323273
-14.71254
-13.960116
-13.073187
-12.06023
-10.930943
-9.6961648
-8.367768
-6.9585556
-5.4821435
-3.9528284
-2.3854316
-0.79514209
0.80263032
2.3923892
3.9588009
5.4867565
6.9615569
8.3690454
9.6957328
10.928912
12.056766
13.068493
13.954416
14.706047
15.316182
15.778977
16.089997
16.246258
17.739808
17.569208
17.229646
16.724382
16.058257
15.237654
14.270436
13.165864
11.934498
10.58812
9.1396171
7.6028414
5.992502
4.3240391
2.6134902
0.87735371
-0.86761483
-2.6044613
-4.3163306
-5.986598
-7.5990428
-9.138033
-10.588691
-11.937035
-13.170117
-14.276119
-15.244469
-16.065934
-16.732683
-17.238367
-17.578181
-17.748902
-17.748902
-17.578181
-17.238367
-16.732683
-16.065934
-15.244469
-14.276119
-13.170117
-11.937036
-10.588691
-9.138033
-7.5990429
-5.986598
-4.3163306
-2.6044613
-0.86761488
0.87735366
2.6134902
4.324039
5.9925019
7.6028413
9.139617
10.58812
11.934498
13.165864
14.270436
15.237654
16.058257
16.724382
17.229646
17.569208
17.739808
19.40315
19.216581
18.845236
18.292681
17.564216
16.666822
15.609097
14.401161
13.05456
11.582166
9.9980452
8.3173258
6.5560677
4.7311348
2.8600371
0.96078366
-0.948172
-2.8483544
-4.7212474
-6.5486
-8.3126263
-9.9961982
-11.583032
-13.057847
-14.406494
-15.616071
-16.675045
-17.573343
-18.302427
-18.855371
-19.226936
-19.413604
-19.413604
-19.226936
-18.855371
-18.302427
-17.573343
-16.675045
-15.616071
-14.406494
-13.057847
-11.583032
-9.9961982
-8.3126263
-6.5486
-4.7212474
-2.8483544
-0.94817202
0.96078364
2.860037
4.7311348
6.5560677
8.3173257
9.9980451
11.582166
13.05456
14.401161
15.609097
16.666822
17.564215
18.292681
18.845236
19.216581
19.40315
21.25218
21.047859
20.641183
20.036062
19.238305
18.255565
17.097257
15.774463
14.299822
12.687412
10.95261
9.1119474
7.1829799
5.1841357
3.1345555
1.0539596
-1.0374884
-3.1194261
-5.171497
-7.1736263
-9.1062662
-10.950621
-12.688849
-14.304228
-15.781289
-17.105937
-18.265574
-19.249207
-20.047517
-20.652945
-21.059771
-21.264149
-21.264149
-21.059771
-20.652945
-20.047517
-19.249207
-18.265574
-17.105936
-15.781289
-14.304228
-12.688849
-10.950621
-9.1062661
-7.1736263
-5.1714969
-3.119426
-1.0374884
1.0539596
3.1345555
5.1841356
7.1829799
9.1119473
10.952609
12.687412
14.299822
15.774463
17.097257
18.255564
19.238305
20.036062
20.641183
21.047859
21.25218
23.304557
23.080531
22.634635
21.971164
21.096495
20.019031
18.749106
17.298873
15.682182
13.914448
12.0125
9.994419
7.8793937
5.6875594
3.439845
1.1578425
-1.1363343
-3.4202565
-5.6714648
-7.8678084
-9.9877538
-12.010646
-13.916922
-15.688273
-17.307782
-18.760048
-20.031311
-21.109558
-21.984615
-22.648226
-23.09414
-23.318152
-23.318152
-23.09414
-22.648226
-21.984615
-21.109558
-20.031311
-18.760047
-17.307781
-15.688272
-13.916922
-12.010646
-9.9877538
-7.8678084
-5.6714648
-3.4202565
-1.1363343
1.1578425
3.439845
5.6875594
7.8793937
9.994419
12.0125
13.914448
15.682182
17.298873
18.749106
20.019031
21.096495
21.971164
22.634635
23.080531
23.304557
25.579864
25.333984
24.844598
24.116424
23.156483
21.974013
20.580373
18.988909
17.214823
15.275015
13.187915
10.973308
8.6521654
6.2464756
3.7791057
1.2736854
-1.2455025
-3.7537075
-6.2260558
-8.6380147
-10.965809
-13.186716
-15.279274
-17.223445
-19.000735
-20.594324
-21.989178
-23.172172
-24.132187
-24.860204
-25.349385
-25.59513
-25.59513
-25.349385
-24.860204
-24.132187
-23.172172
-21.989178
-20.594324
-19.000735
-17.223444
-15.279274
-13.186716
-10.965809
-8.6380146
-6.2260558
-3.7537074
-1.2455025
1.2736854
3.7791057
6.2464756
8.6521654
10.973308
13.187915
15.275015
17.214823
18.988909
20.580373
21.974013
23.156483
24.116424
24.844598
25.333984
25.579863
28.099794
27.8297
27.292123
26.492266
25.437865
24.139093
22.608453
20.860627
18.912322
16.782091
14.490137
12.058117
9.5089365
6.8665818
4.1559897
1.4029754
-1.3658019
-4.1229531
-6.8407786
-9.4919721
-12.050219
-14.49051
-16.789318
-18.924731
-20.876556
-22.626432
-24.157946
-25.456756
-26.510709
-27.309939
-27.846961
-28.116736
-28.116736
-27.846961
-27.309939
-26.510709
-25.456756
-24.157946
-22.626432
-20.876556
-18.924731
-16.789318
-14.49051
-12.050219
-9.4919721
-6.8407786
-4.1229531
-1.3658018
1.4029754
4.1559897
6.8665818
9.5089365
12.058117
14.490137
16.782091
18.912322
20.860627
22.608453
24.139093
25.437865
26.492266
27.292123
27.8297
28.099794
30.888379
30.591465
30.000522
29.121293
27.962314
26.53481
24.852559
22.931742
20.790751
18.449984
15.931615
13.259354
10.458209
7.5542932
4.5747034
1.5475283
-1.4980196
-4.5315174
-7.5218534
-10.438415
-13.252006
-15.935121
-18.462022
-20.808803
-22.953454
-24.875959
-26.55841
-27.98514
-29.142854
-30.02075
-30.610621
-30.906944
-30.906944
-30.610621
-30.02075
-29.142854
-27.98514
-26.55841
-24.875959
-22.953454
-20.808803
-18.462022
-15.935121
-13.252006
-10.438415
-7.5218534
-4.5315174
-1.4980196
1.5475283
4.5747034
7.5542932
10.458209
13.259354
15.931615
18.449984
20.790751
22.931742
24.852559
26.53481
27.962314
29.121293
30.000522
30.591465
30.888379
33.972206
33.645597
32.995572
32.028483
30.753765
29.183819
27.333863
25.221757
22.867787
20.294421
17.526034
14.588609
11.509438
8.3168655
5.0401626
1.7096473
-1.6428355
-4.9833257
-8.2763811
-11.487304
-14.58365
-17.535263
-20.314108
-22.894204
-25.251628
-27.364594
-29.213577
-30.781458
-32.053683
-33.018407
-33.666617
-33.992247
-33.992247
-33.666617
-33.018407
-32.053683
-30.781458
-29.213577
-27.364594
-25.251628
-22.894204
-20.314108
-17.535263
-14.58365
-11.487304
-8.2763811
-4.9833257
-1.6428355
1.7096472
5.0401626
8.3168655
11.509438
14.588609
17.526034
20.294421
22.867787
25.221757
27.333863
29.183819
30.753765
32.028483
32.995572
33.645597
33.972206
37.380652
37.021167
36.305739
35.241404
33.83861
32.111085
30.075668
27.752106
25.162821
22.33262
19.288366
16.058594
12.673093
9.1625268
5.5582177
1.8923989
-1.8006442
-5.4827741
-9.1126108
-12.650152
-16.059389
-19.307528
-22.364275
-25.201555
-27.793464
-30.116333
-32.148878
-33.872385
-35.270899
-36.331405
-37.043985
-37.401957
-37.401957
-37.043985
-36.331405
-35.270899
-33.872385
-32.148878
-30.116333
-27.793464
-25.201555
-22.364275
-19.307528
-16.059389
-12.650152
-9.1126108
-5.4827742
-1.8006442
1.8923989
5.5582177
9.1625268
12.673093
16.058594
19.288366
22.33262
25.162821
27.752106
30.075668
32.111085
33.83861
35.241404
36.305739
37.021167
37.380652
41.146152
40.750267
39.962431
38.790458
37.245937
35.344093
33.103586
30.546295
27.697055
24.583346
21.234884
17.683135
13.960691
10.100633
6.1360144
2.1001226
-1.9711941
-6.0348262
-10.040384
-13.940507
-17.69561
-21.270675
-24.633414
-27.75374
-30.603723
-33.157679
-35.392403
-37.287398
-38.825137
-39.991276
-40.774871
-41.168529
-41.168529
-40.774871
-39.991277
-38.825137
-37.287398
-35.392403
-33.157679
-30.603723
-27.75374
-24.633414
-21.270675
-17.69561
-13.940507
-10.040384
-6.0348262
-1.9711941
2.1001225
6.1360144
10.100633
13.96069
17.683135
21.234884
24.583346
27.697055
30.546295
33.103586
35.344093
37.245937
38.790458
39.962431
40.750267
41.146152
45.3045
44.868302
44.000289
42.709155
41.007781
38.913074
36.44574
33.630063
30.49361
27.066945
23.383117
19.477082
15.384742
11.141831
6.7825651
2.3393904
-2.1528128
-6.645198
-11.071958
-15.374717
-19.511355
-23.445928
-27.144804
-30.576064
-33.7097
-36.517834
-38.975112
-41.05902
-42.750232
-44.032881
-44.894832
-45.327876
-45.327876
-44.894832
-44.032881
-42.750232
-41.05902
-38.975112
-36.517834
-33.709701
-30.576064
-27.144804
-23.445928
-19.511355
-15.374717
-11.071958
-6.645198
-2.1528128
2.3393904
6.7825651
11.141831
15.384742
19.477082
23.383117
27.066945
30.49361
33.630063
36.44574
38.913074
41.007781
42.709155
44.000289
44.868302
45.3045
49.895299
49.414436
48.457611
47.034519
45.159499
42.85136
40.13309
37.03166
33.577712
29.805388
25.751716
21.456022
16.958465
12.298136
7.50968
2.6208586
-2.3408498
-7.3210178
-12.223865
-16.97327
-21.528965
-25.857239
-29.924229
-33.696346
-37.141363
-40.228882
-42.931085
-45.223113
-47.083561
-48.494778
-49.443243
-49.919787
-49.919787
-49.443243
-48.494778
-47.083561
-45.223113
-42.931085
-40.228882
-37.141363
-33.696346
-29.924229
-25.857239
-21.528965
-16.97327
-12.223865
-7.3210177
-2.3408497
2.6208587
7.5096801
12.298136
16.958465
21.456022
25.751716
29.805388
33.577712
37.03166
40.13309
42.85136
45.159499
47.034519
48.457611
49.414436
49.895299
54.962664
54.432275
53.377012
51.807725
49.740397
47.19599
44.2
40.782379
36.977106
32.82239
28.360125
23.635511
18.694813
13.58255
8.3337011
2.9635719
-2.5240991
-8.0720587
-13.520527
-18.762797
-23.774559
-28.531153
-32.999801
-37.144865
-40.93144
-44.326006
-47.29784
-49.81929
-51.866529
-53.419776
-54.463885
-54.988537
-54.988537
-54.463885
-53.419776
-51.866529
-49.81929
-47.29784
-44.326006
-40.93144
-37.144865
-32.999801
-28.531153
-23.774559
-18.762797
-13.520526
-8.0720586
-2.524099
2.963572
8.3337012
13.58255
18.694813
23.635511
28.360125
32.82239
36.977106
40.782379
44.2
47.19599
49.740397
51.807724
53.377012
54.432275
54.962664
60.554915
59.969527
58.80508
57.073767
54.793411
51.987455
48.684079
44.916524
40.72228
36.144147
31.229443
26.03131
20.605548
15.007837
9.2778744
3.4054517
-2.6759307
-8.9078551
-14.996726
-20.776824
-26.276827
-31.494858
-36.400178
-40.953002
-45.114371
-48.846609
-52.115567
-54.890211
-57.143923
-58.854332
-60.004378
-60.582338
-60.582338
-60.004378
-58.854332
-57.143923
-54.890211
-52.115567
-48.846609
-45.114371
-40.953002
-36.400178
-31.494857
-26.276827
-20.776824
-14.996726
-8.907855
-2.6759306
3.4054518
9.2778744
15.007837
20.605548
26.03131
31.229443
36.144147
40.72228
44.916524
48.684079
51.987455
54.793411
57.073767
58.80508
59.969527
60.554915
66.720616
66.07415
64.788644
62.877847
60.361696
57.266534
53.623316
49.468728
44.843506
39.795445
34.377894
28.654843
22.697183
16.582973
10.370272
4.0187046
-2.6909351
-9.8314802
-16.703992
-23.060293
-29.067907
-34.774501
-40.151476
-45.149512
-49.722465
-53.826427
-57.423112
-60.477402
-62.959579
-64.844105
-66.111665
-66.748783
-66.748783
-66.111665
-64.844105
-62.959579
-60.477402
-57.423112
-53.826427
-49.722465
-45.149512
-40.151476
-34.774501
-29.067907
-23.060293
-16.703992
-9.8314802
-2.690935
4.0187047
10.370272
16.582973
22.697183
28.654843
34.377894
39.795445
44.843506
49.468728
53.623316
57.266534
60.361696
62.877847
64.788644
66.07415
66.720616
73.518889
72.805257
71.385588
69.275856
66.498673
63.08398
59.065463
54.483266
49.380395
43.809207
37.828001
31.514292
24.963891
18.305445
11.620716
4.7664665
-2.7694937
-10.999362
-18.82193
-25.702939
-32.189464
-38.399744
-44.284394
-49.768694
-54.794394
-59.307794
-63.266499
-66.629884
-69.365309
-71.442992
-72.841197
-73.544053
-73.544053
-72.841197
-71.442992
-69.365309
-66.629884
-63.266499
-59.307794
-54.794394
-49.768694
-44.284394
-38.399744
-32.189464
-25.702939
-18.82193
-10.999362
-2.7694936
4.7664665
11.620716
18.305445
24.963891
31.514292
37.828001
43.809207
49.380395
54.483266
59.065463
63.08398
66.498673
69.275856
71.385588
72.805257
73.518889
81.108785
80.319267
78.747417
76.414405
73.343333
69.572542
65.133986
60.077279
54.437824
48.278375
41.644912
34.6348
27.373329
20.168427
13.318718
7.1369621
-4.1299343
-15.674376
-21.265668
-26.403995
-31.957774
-37.321395
-42.30627
-46.816571
-50.835208
-54.343095
-57.347158
-59.84416
-61.84053
-63.33512
-64.331127
-64.828495
-64.828495
-64.331127
-63.33512
-61.84053
-59.84416
-57.347158
-54.343095
-50.835208
-46.816571
-42.30627
-37.321395
-31.957774
-26.403995
-21.265668
-15.674376
-4.1299343
7.1369621
13.318718
20.168427
27.373329
34.6348
41.644912
48.278375
54.437824
60.07728
65.133987
69.572542
73.343333
76.414405
78.747417
80.319267
81.108785
-64.749638
-64.253107
-63.258576
-61.766303
-59.77298
-57.279707
-54.280046
-50.77718
-46.764144
-42.259978
-37.281668
-31.924977
-26.378434
-21.247036
-15.663543
-4.128084
7.1318389
13.306365
20.1486
27.346179
34.600644
41.604017
48.231366
54.385149
60.019408
65.071447
69.505926
73.273256
76.341538
78.67245
80.242798
81.031672
81.031672
80.242798
78.67245
76.341538
73.273256
69.505926
65.071447
60.019408
54.385149
48.231366
41.604017
34.600644
27.346179
20.1486
13.306365
7.1318388
-4.1280841
-15.663543
-21.247036
-26.378434
-31.924977
-37.281668
-42.259978
-46.764144
-50.77718
-54.280046
-57.279707
-59.77298
-61.766303
-63.258576
-64.253107
-64.749638
-73.464424
-72.762376
-71.365713
-69.290366
-66.558024
-63.198417
-59.244162
-54.735844
-49.715796
-44.237646
-38.359585
-32.156281
-25.677051
-18.803608
-10.988685
-2.7663404
4.7617698
11.608306
18.285494
24.936607
31.479962
37.787037
43.761904
49.327241
54.424798
59.002245
63.016603
66.427772
69.20211
71.309679
72.72787
73.440784
73.440784
72.72787
71.309679
69.20211
66.427772
63.016603
59.002245
54.424798
49.327241
43.761904
37.787037
31.479962
24.936606
18.285494
11.608306
4.7617698
-2.7663404
-10.988685
-18.803608
-25.677051
-32.156281
-38.359585
-44.237646
-49.715796
-54.735844
-59.244162
-63.198417
-66.558024
-69.290367
-71.365713
-72.762376
-73.464424
-66.667843
-66.031528
-64.765546
-62.883379
-60.404314
-57.353849
-53.761667
-49.662842
-45.095603
-40.103798
-34.733508
-29.033986
-23.033758
-16.685084
-9.8204318
-2.6878881
4.0139643
10.357755
16.562776
22.669505
28.619968
34.336177
39.747273
44.789347
49.409112
53.558817
57.197764
60.289307
62.802526
64.711098
65.995101
66.640823
66.640823
65.995101
64.711098
62.802526
60.289307
57.197764
53.558817
49.409112
44.789347
39.747273
34.336177
28.619968
22.669505
16.562776
10.357755
4.0139643
-2.6878881
-9.8204318
-16.685084
-23.033758
-29.033986
-34.733508
-40.103798
-45.095603
-49.662842
-53.761667
-57.353849
-60.404314
-62.883379
-64.765546
-66.031528
-66.667843
-60.499279
-59.922136
-58.773706
-57.065706
-54.815171
-52.044437
-48.780081
-45.053093
-40.897567
-36.351118
-31.452642
-26.241857
-20.749426
-14.977151
-8.8962908
-2.6724527
3.4007919
9.2651602
14.987204
20.577204
25.99554
31.186601
36.094644
40.666595
44.855196
48.617697
51.916653
54.718862
56.996179
58.725188
59.888083
60.472696
60.472696
59.888083
58.725188
56.996179
54.718862
51.916653
48.617697
44.855196
40.666595
36.094644
31.186601
25.99554
20.577204
14.987204
9.2651602
3.4007919
-2.6724527
-8.8962908
-14.977151
-20.749426
-26.241857
-31.452642
-36.351118
-40.897567
-45.053093
-48.780081
-52.044437
-54.815171
-57.065706
-58.773706
-59.922136
-60.499279
-54.902534
-54.378722
-53.336282
-51.78552
-49.741557
-47.22414
-44.257055
-40.867908
-37.087366
-32.948888
-28.487313
-23.73821
-18.734282
-13.500114
-8.0599404
-2.520387
2.9588736
8.320647
13.561271
18.665522
23.598498
28.315752
32.771085
36.919366
40.718761
44.131115
47.122496
49.662994
51.727151
53.294034
54.34768
54.877259
54.877259
54.34768
53.294034
51.727151
49.662994
47.122496
44.131115
40.718761
36.919366
32.771085
28.315752
23.598498
18.665522
13.561271
8.3206471
2.9588736
-2.520387
-8.0599404
-13.500114
-18.734282
-23.73821
-28.487313
-32.948888
-37.087366
-40.867908
-44.257055
-47.22414
-49.741557
-51.78552
-53.336282
-54.378722
-54.902535
-49.829992
-49.354321
-48.407593
-46.998963
-45.141924
-42.854093
-40.156834
-37.074957
-33.636225
-29.870971
-25.811355
-21.490893
-16.943371
-12.202423
-7.3082336
-2.3368393
2.6160713
7.4961487
12.275997
16.927937
21.417406
25.705388
29.751795
33.517371
36.965152
40.061054
42.774486
45.07852
46.950209
48.370775
49.325903
49.805914
49.805914
49.325903
48.370775
46.950209
45.07852
42.774486
40.061054
36.965152
33.517371
29.751795
25.705388
21.417406
16.927937
12.275997
7.4961487
2.6160713
-2.3368393
-7.3082336
-12.202423
-16.943371
-21.490893
-25.811355
-29.870971
-33.636225
-37.074957
-40.156834
-42.854093
-45.141924
-46.998963
-48.407593
-49.354321
-49.829992
-45.233405
-44.801277
-43.941149
-42.661214
-40.973579
-38.894076
-36.441989
-33.639779
-30.512743
-27.088691
-23.397562
-19.471199
-15.343155
-11.04929
-6.631637
-2.1484839
2.3344531
6.7684147
11.118609
15.352677
19.436487
23.334386
27.01055
30.430094
33.560036
36.369874
38.832095
40.922464
42.620317
43.908781
44.775002
45.2103
45.2103
44.775002
43.908781
42.620317
40.922464
38.832094
36.369874
33.560036
30.430094
27.010549
23.334386
19.436487
15.352677
11.118609
6.7684147
2.334453
-2.1484839
-6.6316371
-11.04929
-15.343155
-19.471199
-23.397562
-27.088691
-30.512743
-33.639779
-36.441989
-38.894076
-40.973579
-42.661214
-43.941149
-44.801277
-45.233405
-41.068456
-40.675765
-39.894097
-38.730827
-37.196871
-35.306534
-33.077301
-30.529613
-27.686612
-24.573911
-21.219368
-17.652993
-13.906988
-10.016283
-6.0203712
-1.9665201
2.0949747
6.1210981
10.076096
13.926773
17.640165
21.183279
24.523607
27.629756
30.472082
33.023168
35.258242
37.155476
38.696253
39.865389
40.651321
41.046251
41.046251
40.651321
39.865389
38.696253
37.155476
35.258242
33.023168
30.472082
27.629756
24.523607
21.183279
17.640165
13.926773
10.076096
6.1210981
2.0949747
-1.9665201
-6.0203712
-10.016283
-13.906988
-17.652993
-21.219368
-24.573911
-27.686612
-30.529613
-33.077301
-35.306534
-37.196871
-38.730827
-39.894097
-40.675765
-41.068456
-37.295306
-36.938363
-36.227834
-35.170383
-33.775895
-32.057349
-30.03065
-27.714456
-25.12998
-22.300818
-19.252796
-16.01391
-12.614364
-9.0868564
-5.4672975
-1.7955917
1.8869809
5.5423836
9.1364318
12.63699
16.012832
19.233389
22.268961
25.091093
27.672996
29.989932
32.019547
33.742147
35.140942
36.202246
36.915641
37.274106
37.274106
36.915641
36.202246
35.140942
33.742147
32.019547
29.989932
27.672996
25.091093
22.268961
19.233389
16.012832
12.63699
9.1364319
5.5423836
1.8869809
-1.7955916
-5.4672975
-9.0868564
-12.614364
-16.01391
-19.252796
-22.300818
-25.12998
-27.714456
-30.03065
-32.057349
-33.775895
-35.170383
-36.227834
-36.938363
-37.295306
-33.877999
-33.553472
-32.907459
-31.946004
-30.678086
-29.115514
-27.27279
-25.166969
-22.817502
-20.246096
-17.47659
-14.534883
-11.448913
-8.2487343
-4.9666872
-1.637364
1.7038997
5.0232524
8.2889567
11.4708
14.539614
17.467157
20.226233
22.790945
25.136999
27.241999
29.085729
30.65039
31.920817
32.884652
33.532493
33.858006
33.858006
33.532493
32.884652
31.920817
30.65039
29.085729
27.241999
25.136999
22.790945
20.226233
17.467157
14.539614
11.4708
8.2889567
5.0232524
1.7038997
-1.637364
-4.9666871
-8.2487343
-11.448913
-14.534883
-17.47659
-20.246096
-22.817502
-25.166969
-27.27279
-29.115514
-30.678086
-31.946004
-32.907459
-33.553472
-33.877999
-30.784021
-30.488885
-29.901375
-29.02699
-27.873903
-26.452878
-24.777155
-22.862333
-20.726239
-18.388804
-15.87195
-13.199491
-10.39706
-7.4920563
-4.5135637
-1.4920826
1.5413901
4.5565489
7.5242975
10.416662
13.206657
15.868278
18.376617
20.708064
22.840531
24.753698
26.429243
27.851052
29.005404
29.881125
30.469714
30.765447
30.765447
30.469714
29.881125
29.005404
27.851052
26.429243
24.753698
22.840531
20.708064
18.376617
15.868278
13.206657
10.416662
7.5242976
4.5565489
1.5413901
-1.4920826
-4.5135637
-7.4920563
-10.39706
-13.199491
-15.87195
-18.388804
-20.726238
-22.862333
-24.777155
-26.452878
-27.873903
-29.02699
-29.901375
-30.488885
-30.784021
-27.983953
-27.715458
-27.180983
-26.385541
-25.336584
-24.043933
-22.519682
-20.778099
-18.835512
-16.710193
-14.422237
-11.993457
-9.4472646
-6.8085526
-4.1035177
-1.3593471
1.3963836
4.136414
6.834213
9.4640868
12.001217
14.421734
16.702842
18.822994
20.762085
22.501642
24.025034
25.317649
26.367051
27.163116
27.698146
27.966963
27.966963
27.698146
27.163116
26.367051
25.317649
24.025034
22.501642
20.762085
18.822994
16.702842