/*--------------------------------*- C++ -*----------------------------------*\
| =========                 |                                                 |
| \\      /  F ield         | OpenFOAM: The Open Source CFD Toolbox           |
|  \\    /   O peration     | Version:  2106                                  |
|   \\  /    A nd           | Website:  www.openfoam.com                      |
|    \\/     M anipulation  |                                                 |
\*---------------------------------------------------------------------------*/
FoamFile
{
    version     2.0;
    format      ascii;
    arch        "LSB;label=32;scalar=64";
    class       surfaceScalarField;
    location    "0.043";
    object      phi_0;
}
// * * * * * * * * * * * * * * * * * * * * * * * * * * * * * * * * * * * * * //

dimensions      [0 3 -1 0 0 0 0];

oriented        oriented;

internalField   nonuniform List<scalar> 
8064
(
4.4370787e-05
-4.4370787e-05
8.8309452e-05
-4.3938665e-05
0.00013138823
-4.3078782e-05
0.00017318804
-4.1799805e-05
0.00021330265
-4.0114606e-05
0.00025134276
-3.8040111e-05
0.00028693986
-3.5597105e-05
0.00031974985
-3.2809992e-05
0.00034945638
-2.9706528e-05
0.00037577389
-2.631751e-05
0.00039845034
-2.2676451e-05
0.00041726957
-1.8819227e-05
0.00043205327
-1.4783704e-05
0.00044266263
-1.0609352e-05
0.00044899948
-6.3368563e-06
0.00045100719
-2.0077116e-06
0.00044867101
2.3361817e-06
0.00044201806
6.6529553e-06
0.00043111681
1.0901245e-05
0.00041607654
1.5040277e-05
0.00039704586
1.9030671e-05
0.00037421128
2.2834583e-05
0.00034779519
2.6416093e-05
0.00031805365
2.9741539e-05
0.00028527384
3.277981e-05
0.00024977122
3.5502617e-05
0.0002118865
3.7884719e-05
0.00017198237
3.9904131e-05
0.00013044009
4.1542285e-05
8.7655917e-05
4.278417e-05
4.403748e-05
4.3618437e-05
9.4757765e-15
4.403748e-05
-4.403748e-05
4.403748e-05
-8.7655917e-05
4.3618437e-05
-0.00013044009
4.278417e-05
-0.00017198237
4.1542285e-05
-0.0002118865
3.9904131e-05
-0.00024977122
3.7884719e-05
-0.00028527384
3.5502617e-05
-0.00031805365
3.277981e-05
-0.00034779519
2.9741539e-05
-0.00037421128
2.6416093e-05
-0.00039704586
2.2834583e-05
-0.00041607654
1.9030671e-05
-0.00043111681
1.5040277e-05
-0.00044201806
1.0901245e-05
-0.00044867101
6.6529553e-06
-0.00045100719
2.3361817e-06
-0.00044899948
-2.0077116e-06
-0.00044266263
-6.3368563e-06
-0.00043205327
-1.0609352e-05
-0.00041726957
-1.4783704e-05
-0.00039845034
-1.8819227e-05
-0.00037577389
-2.2676451e-05
-0.00034945638
-2.631751e-05
-0.00031974985
-2.9706528e-05
-0.00028693986
-3.2809992e-05
-0.00025134276
-3.5597105e-05
-0.00021330265
-3.8040111e-05
-0.00017318804
-4.0114606e-05
-0.00013138823
-4.1799805e-05
-8.8309452e-05
-4.3078782e-05
-4.4370787e-05
-4.3938665e-05
-4.4370787e-05
4.5009193e-05
-8.9379979e-05
8.9580007e-05
-8.850948e-05
0.00013327849
-8.6777268e-05
0.0001756795
-8.4200809e-05
0.00021637094
-8.0806046e-05
0.00025495791
-7.6627085e-05
0.00029106661
-7.1705805e-05
0.000324348
-6.6091379e-05
0.00035448119
-5.9839722e-05
0.00038117656
-5.3012878e-05
0.00040417846
-4.5678355e-05
0.00042326765
-3.7908416e-05
0.00043826328
-2.9779331e-05
0.00044902454
-2.1370609e-05
0.00045545188
-1.2764196e-05
0.00045748783
-4.0436699e-06
0.00045511743
4.706583e-06
0.00044836816
1.3402227e-05
0.00043730963
2.195978e-05
0.00042205259
3.0297314e-05
0.00040274785
3.8335409e-05
0.00037958461
4.5997822e-05
0.00035278851
5.3212197e-05
0.00032261932
5.9910726e-05
0.00028936838
6.6030747e-05
0.00025335572
7.151528e-05
0.00021492694
7.6313498e-05
0.00017444995
8.0381125e-05
0.00013231146
8.3680776e-05
8.8913399e-05
8.6182229e-05
4.4669201e-05
8.7862635e-05
8.9413061e-15
8.8706681e-05
-4.4669201e-05
8.8706681e-05
-8.8913399e-05
8.7862635e-05
-0.00013231146
8.6182229e-05
-0.00017444995
8.3680776e-05
-0.00021492694
8.0381125e-05
-0.00025335572
7.6313498e-05
-0.00028936838
7.151528e-05
-0.00032261932
6.6030747e-05
-0.00035278851
5.9910726e-05
-0.00037958461
5.3212197e-05
-0.00040274785
4.5997822e-05
-0.00042205259
3.8335409e-05
-0.00043730963
3.0297314e-05
-0.00044836816
2.195978e-05
-0.00045511743
1.3402227e-05
-0.00045748783
4.706583e-06
-0.00045545188
-4.0436699e-06
-0.00044902454
-1.2764196e-05
-0.00043826328
-2.1370609e-05
-0.00042326765
-2.9779331e-05
-0.00040417846
-3.7908416e-05
-0.00038117656
-4.5678355e-05
-0.00035448119
-5.3012878e-05
-0.000324348
-5.9839722e-05
-0.00029106661
-6.6091379e-05
-0.00025495791
-7.1705805e-05
-0.00021637094
-7.6627085e-05
-0.0001756795
-8.0806046e-05
-0.00013327849
-8.4200809e-05
-8.9580007e-05
-8.6777268e-05
-4.5009193e-05
-8.850948e-05
-8.9379979e-05
4.6092389e-05
-0.00013547237
9.1735841e-05
-0.00013415293
0.00013648596
-0.00013152738
0.00017990736
-0.00012762221
0.00022157806
-0.00012247674
0.00026109367
-0.0001161427
0.00029807143
-0.00010868357
0.00033215393
-0.00010017388
0.00036301261
-9.0698399e-05
0.00039035089
-8.0351153e-05
0.00041390698
-6.923445e-05
0.00043345636
-5.7457799e-05
0.00044881381
-4.5136782e-05
0.00045983509
-3.2391883e-05
0.00046641818
-1.9347289e-05
0.00046850417
-6.1296622e-06
0.00046607765
7.1331065e-06
0.00045916671
2.0313166e-05
0.00044784256
3.3283928e-05
0.00043221862
4.5921258e-05
0.00041244929
5.8104739e-05
0.00038872833
6.9718777e-05
0.00036128685
8.0653682e-05
0.00033039091
9.0806664e-05
0.00029633892
0.00010008274
0.00025945864
0.00010839556
0.00022010406
0.00011566808
0.00017865196
0.00012183322
0.0001354984
0.00012683434
9.105499e-05
0.00013062564
4.5745102e-05
0.00013317252
8.6390029e-15
0.00013445178
-4.5745102e-05
0.00013445178
-9.105499e-05
0.00013317252
-0.0001354984
0.00013062564
-0.00017865196
0.00012683434
-0.00022010406
0.00012183322
-0.00025945864
0.00011566808
-0.00029633892
0.00010839556
-0.00033039091
0.00010008274
-0.00036128685
9.0806664e-05
-0.00038872833
8.0653682e-05
-0.00041244929
6.9718777e-05
-0.00043221862
5.8104739e-05
-0.00044784256
4.5921258e-05
-0.00045916671
3.3283928e-05
-0.00046607765
2.0313166e-05
-0.00046850417
7.1331065e-06
-0.00046641818
-6.1296622e-06
-0.00045983509
-1.9347289e-05
-0.00044881381
-3.2391883e-05
-0.00043345636
-4.5136782e-05
-0.00041390698
-5.7457799e-05
-0.00039035089
-6.923445e-05
-0.00036301261
-8.0351153e-05
-0.00033215393
-9.0698399e-05
-0.00029807143
-0.00010017388
-0.00026109367
-0.00010868357
-0.00022157806
-0.0001161427
-0.00017990736
-0.00012247674
-0.00013648596
-0.00012762221
-9.1735841e-05
-0.00013152738
-4.6092389e-05
-0.00013415293
-0.00013547237
4.7635325e-05
-0.00018310769
9.4806706e-05
-0.00018132431
0.00014105489
-0.00017777557
0.00018592996
-0.00017249728
0.00022899585
-0.00016554263
0.0002698347
-0.00015698154
0.00030805097
-0.00014689984
0.00034327536
-0.00013539827
0.00037516836
-0.00012259139
0.00040342348
-0.00010860627
0.00042777018
-9.3581155e-05
0.00044797639
-7.7664006e-05
0.0004638506
-6.1010996e-05
0.00047524365
-4.3784925e-05
0.00048204996
-2.6153606e-05
0.00048420851
-8.2882105e-06
0.00048170321
9.6384095e-06
0.00047456296
2.7453419e-05
0.00046286121
4.498567e-05
0.00044671511
6.2067359e-05
0.00042628419
7.8535662e-05
0.00040176868
9.4234281e-05
0.00037340746
0.00010901491
0.00034147556
0.00012273856
0.00030628146
0.00013527685
0.00026816399
0.00014651303
0.00022748906
0.000156343
0.00018464618
0.00016467611
0.00014004471
0.00017143581
9.4110104e-05
0.00017656025
4.7279958e-05
0.00018000267
8.3861428e-15
0.00018173174
-4.7279958e-05
0.00018173174
-9.4110104e-05
0.00018000267
-0.00014004471
0.00017656025
-0.00018464618
0.00017143581
-0.00022748906
0.00016467611
-0.00026816399
0.000156343
-0.00030628146
0.00014651303
-0.00034147556
0.00013527685
-0.00037340746
0.00012273856
-0.00040176868
0.00010901491
-0.00042628419
9.4234281e-05
-0.00044671511
7.8535662e-05
-0.00046286121
6.2067359e-05
-0.00047456296
4.498567e-05
-0.00048170321
2.7453419e-05
-0.00048420851
9.6384095e-06
-0.00048204996
-8.2882105e-06
-0.00047524365
-2.6153606e-05
-0.0004638506
-4.3784925e-05
-0.00044797639
-6.1010996e-05
-0.00042777018
-7.7664006e-05
-0.00040342348
-9.3581155e-05
-0.00037516836
-0.00010860627
-0.00034327536
-0.00012259139
-0.00030805097
-0.00013539827
-0.0002698347
-0.00014689984
-0.00022899585
-0.00015698154
-0.00018592996
-0.00016554263
-0.00014105489
-0.00017249728
-9.4806706e-05
-0.00017777557
-4.7635325e-05
-0.00018132431
-0.00018310769
4.9648604e-05
-0.0002327563
9.8813702e-05
-0.00023048941
0.00014701669
-0.00022597856
0.0001937887
-0.00021926929
0.0002386753
-0.00021042924
0.00028124106
-0.00019954731
0.00032107383
-0.00018673261
0.00035778877
-0.00017211322
0.00039103209
-0.00015583471
0.00042048437
-0.00013805855
0.00044586363
-0.00011896042
0.00046692792
-9.8728291e-05
0.00048347751
-7.7560592e-05
0.00049535676
-5.5664171e-05
0.00050245543
-3.3252272e-05
0.00050470965
-1.0542434e-05
0.00050210243
1.2245631e-05
0.00049466366
3.4892185e-05
0.00048246972
5.7179608e-05
0.00046564257
7.8894513e-05
0.00044434841
9.9829822e-05
0.00041879594
0.00011978675
0.00038923416
0.00013857668
0.00035594984
0.00015602288
0.00031926459
0.00017196209
0.00027953173
0.00018624589
0.00023713276
0.00019874197
0.00019247378
0.00020933509
0.00014598158
0.00021792801
9.8099695e-05
0.00022444213
4.9284289e-05
0.00022881808
8.0392427e-15
0.00023101603
-4.9284289e-05
0.00023101603
-9.8099695e-05
0.00022881808
-0.00014598158
0.00022444213
-0.00019247378
0.00021792801
-0.00023713276
0.00020933509
-0.00027953173
0.00019874197
-0.00031926459
0.00018624589
-0.00035594984
0.00017196209
-0.00038923416
0.00015602288
-0.00041879594
0.00013857668
-0.00044434841
0.00011978675
-0.00046564257
9.9829822e-05
-0.00048246972
7.8894513e-05
-0.00049466366
5.7179608e-05
-0.00050210243
3.4892185e-05
-0.00050470965
1.2245631e-05
-0.00050245543
-1.0542434e-05
-0.00049535676
-3.3252272e-05
-0.00048347751
-5.5664171e-05
-0.00046692792
-7.7560592e-05
-0.00044586363
-9.8728291e-05
-0.00042048437
-0.00011896042
-0.00039103209
-0.00013805855
-0.00035778877
-0.00015583471
-0.00032107383
-0.00017211322
-0.00028124106
-0.00018673261
-0.0002386753
-0.00019954731
-0.0001937887
-0.00021042924
-0.00014701669
-0.00021926929
-9.8813702e-05
-0.00022597856
-4.9648604e-05
-0.00023048941
-0.0002327563
5.2139996e-05
-0.00028489629
0.0001037723
-0.00028212172
0.00015439437
-0.00027660063
0.00020351391
-0.00026838883
0.0002506538
-0.00025756913
0.00029535687
-0.00024425038
0.00033719043
-0.00022856616
0.00037575042
-0.00021067321
0.00041066538
-0.00019074967
0.00044159992
-0.0001689931
0.00046825787
-0.00014561837
0.00049038503
-0.00012085545
0.00050777147
-9.4947033e-05
0.00052025347
-6.8146173e-05
0.00052771496
-4.071376e-05
0.00053008853
-1.2916001e-05
0.00052735598
1.497818e-05
0.0005195484
4.2699762e-05
0.00050674575
6.9982259e-05
0.00048907593
9.6564333e-05
0.0004667134
0.00012219235
0.00043987735
0.00014662281
0.00040882933
0.0001696247
0.00037387065
0.00019098157
0.00033533925
0.00021049349
0.00029360634
0.0002279788
0.0002490728
0.00024327551
0.00020216526
0.00025624262
0.00015333211
0.00026676116
0.00010303926
0.00027473498
5.1765873e-05
0.00028009146
7.4980541e-15
0.0002827819
-5.1765873e-05
0.0002827819
-0.00010303926
0.00028009146
-0.00015333211
0.00027473498
-0.00020216526
0.00026676116
-0.0002490728
0.00025624262
-0.00029360634
0.00024327551
-0.00033533925
0.0002279788
-0.00037387065
0.00021049349
-0.00040882933
0.00019098157
-0.00043987735
0.0001696247
-0.0004667134
0.00014662281
-0.00048907593
0.00012219235
-0.00050674575
9.6564333e-05
-0.0005195484
6.9982259e-05
-0.00052735598
4.2699762e-05
-0.00053008853
1.497818e-05
-0.00052771496
-1.2916001e-05
-0.00052025347
-4.071376e-05
-0.00050777147
-6.8146173e-05
-0.00049038503
-9.4947033e-05
-0.00046825787
-0.00012085545
-0.00044159992
-0.00014561837
-0.00041066538
-0.0001689931
-0.00037575042
-0.00019074967
-0.00033719043
-0.00021067321
-0.00029535687
-0.00022856616
-0.0002506538
-0.00024425038
-0.00020351391
-0.00025756913
-0.00015439437
-0.00026838883
-0.0001037723
-0.00027660063
-5.2139996e-05
-0.00028212172
-0.00028489629
5.5117712e-05
-0.00034001401
0.00010969884
-0.00033670285
0.00016321226
-0.00033011405
0.00021513769
-0.00032031425
0.00026497091
-0.00030740235
0.00031222881
-0.00029150828
0.00035645414
-0.00027279149
0.00039721994
-0.00025143901
0.00043413362
-0.00022766335
0.00046684068
-0.00020170015
0.00049502799
-0.00017380568
0.00051842667
-0.00014425413
0.00053681458
-0.00011333493
0.00055001826
-8.1349857e-05
0.0005579146
-4.8610096e-05
0.00056043186
-1.5433267e-05
0.00055755037
1.7859673e-05
0.00054930257
5.0947558e-05
0.00053577267
8.3512161e-05
0.00051709567
0.00011524134
0.0004934559
0.00014583211
0.0004650851
0.00017499361
0.00043225991
0.00020244988
0.00039529905
0.00022794243
0.00035456
0.00025123254
0.00031043546
0.00027210334
0.00026334946
0.00029036151
0.00021375323
0.00030583885
0.00016212096
0.00031839343
0.00010894534
0.00032791061
5.4733018e-05
0.00033430378
6.7229424e-15
0.00033751492
-5.4733018e-05
0.00033751492
-0.00010894534
0.00033430378
-0.00016212096
0.00032791061
-0.00021375323
0.00031839343
-0.00026334946
0.00030583885
-0.00031043546
0.00029036151
-0.00035456
0.00027210334
-0.00039529905
0.00025123254
-0.00043225991
0.00022794243
-0.0004650851
0.00020244988
-0.0004934559
0.00017499361
-0.00051709567
0.00014583211
-0.00053577267
0.00011524134
-0.00054930257
8.3512161e-05
-0.00055755037
5.0947558e-05
-0.00056043186
1.7859673e-05
-0.0005579146
-1.5433267e-05
-0.00055001826
-4.8610096e-05
-0.00053681458
-8.1349857e-05
-0.00051842667
-0.00011333493
-0.00049502799
-0.00014425413
-0.00046684068
-0.00017380568
-0.00043413362
-0.00020170015
-0.00039721994
-0.00022766335
-0.00035645414
-0.00025143901
-0.00031222881
-0.00027279149
-0.00026497091
-0.00029150828
-0.00021513769
-0.00030740235
-0.00016321226
-0.00032031425
-0.00010969884
-0.00033011405
-5.5117712e-05
-0.00033670285
-0.00034001401
5.8595448e-05
-0.00039860945
0.0001166206
-0.00039472799
0.00017351096
-0.00038700441
0.00022871359
-0.00037551689
0.00028169267
-0.00036038142
0.00033193481
-0.00034175042
0.00037895412
-0.0003198108
0.00042229689
-0.00029478178
0.00046154591
-0.00026691237
0.00049632435
-0.0002364786
0.00052629926
-0.00020378058
0.00055118457
-0.00016913945
0.00057074377
-0.00013289413
0.00058479199
-9.5398076e-05
0.00059319775
-5.7015859e-05
0.00059588419
-1.8119707e-05
0.00059282977
2.0914092e-05
0.00058406848
5.9708854e-05
0.00056968942
9.7891219e-05
0.00054983589
0.00013509487
0.00052470379
0.00017096421
0.00049453957
0.00020515783
0.00045963756
0.00023735189
0.0004203369
0.0002672431
0.00037701799
0.00029455145
0.00033009868
0.00031902265
0.00028003009
0.0003404301
0.00022729223
0.00035857671
0.00017238944
0.00037329622
0.00011584566
0.00038445439
5.8199633e-05
0.00039194981
5.7131945e-15
0.00039571455
-5.8199633e-05
0.00039571455
-0.00011584566
0.00039194981
-0.00017238944
0.00038445439
-0.00022729223
0.00037329622
-0.00028003009
0.00035857671
-0.00033009868
0.0003404301
-0.00037701799
0.00031902265
-0.0004203369
0.00029455145
-0.00045963756
0.0002672431
-0.00049453957
0.00023735189
-0.00052470379
0.00020515783
-0.00054983589
0.00017096421
-0.00056968942
0.00013509487
-0.00058406848
9.7891219e-05
-0.00059282977
5.9708854e-05
-0.00059588419
2.0914092e-05
-0.00059319775
-1.8119707e-05
-0.00058479199
-5.7015859e-05
-0.00057074377
-9.5398076e-05
-0.00055118457
-0.00013289413
-0.00052629926
-0.00016913945
-0.00049632435
-0.00020378058
-0.00046154591
-0.0002364786
-0.00042229689
-0.00026691237
-0.00037895412
-0.00029478178
-0.00033193481
-0.0003198108
-0.00028169267
-0.00034175042
-0.00022871359
-0.00036038142
-0.00017351096
-0.00037551689
-0.0001166206
-0.00038700441
-5.8595448e-05
-0.00039472799
-0.00039860945
6.2599345e-05
-0.0004612088
0.00012458961
-0.00045671826
0.00018536792
-0.00044778273
0.0002443438
-0.00043449277
0.00030094505
-0.00041698267
0.00035462349
-0.00039542886
0.00040486031
-0.00037004761
0.00045117104
-0.00034109251
0.00049311013
-0.00030885145
0.00053027505
-0.00027364352
0.00056231
-0.00023581553
0.00058890909
-0.00019573854
0.00060981913
-0.00015380417
0.00062484197
-0.00011042092
0.00063383637
-6.6010261e-05
0.00063671939
-2.1002724e-05
0.00063346722
2.4166257e-05
0.00062411551
6.9060567e-05
0.00060875897
0.00011324775
0.00058755045
0.0001563034
0.00056069922
0.00019781544
0.00052846876
0.00023738829
0.0004911739
0.00027464676
0.0004491774
0.0003092396
0.00040288619
0.00034084266
0.00035274716
0.00036916167
0.00029924271
0.00039393455
0.00024288601
0.00041493341
0.00018421613
0.00043196611
0.00012379297
0.00044487754
6.2192209e-05
0.00045355058
4.5109388e-15
0.00045790676
-6.2192209e-05
0.00045790676
-0.00012379297
0.00045355058
-0.00018421613
0.00044487754
-0.00024288601
0.00043196611
-0.00029924271
0.00041493341
-0.00035274716
0.00039393455
-0.00040288619
0.00036916167
-0.0004491774
0.00034084266
-0.0004911739
0.0003092396
-0.00052846876
0.00027464676
-0.00056069922
0.00023738829
-0.00058755045
0.00019781544
-0.00060875897
0.0001563034
-0.00062411551
0.00011324775
-0.00063346722
6.9060567e-05
-0.00063671939
2.4166257e-05
-0.00063383637
-2.1002724e-05
-0.00062484197
-6.6010261e-05
-0.00060981913
-0.00011042092
-0.00058890909
-0.00015380417
-0.00056231
-0.00019573854
-0.00053027505
-0.00023581553
-0.00049311013
-0.00027364352
-0.00045117104
-0.00030885145
-0.00040486031
-0.00034109251
-0.00035462349
-0.00037004761
-0.00030094505
-0.00039542886
-0.0002443438
-0.00041698267
-0.00018536792
-0.00043449277
-0.00012458961
-0.00044778273
-6.2599345e-05
-0.00045671826
-0.0004612088
6.7176876e-05
-0.00052838567
0.00013370038
-0.00052324176
0.00019892383
-0.00051300619
0.00026221386
-0.00049778279
0.00032295677
-0.00047772558
0.00038056465
-0.00045303675
0.00043448112
-0.00042396408
0.0004841866
-0.00039079799
0.00052920317
-0.00035386803
0.00056909895
-0.0003135393
0.00060349193
-0.00027020852
0.00063205345
-0.00022430006
0.00065451116
-0.00017626187
0.0006706515
-0.00012656126
0.00068032186
-7.5680622e-05
0.00068343212
-2.4112976e-05
0.00067995568
2.7642697e-05
0.00066992993
7.9086316e-05
0.00065345595
0.00012972174
0.00063069749
0.00017906186
0.00060187924
0.00022663369
0.0005672843
0.00027198322
0.0005272511
0.00031467996
0.00048216961
0.00035432108
0.00043247726
0.00039053502
0.00037865429
0.00042298464
0.00032121894
0.0004513699
0.00026072235
0.00047543
0.00019774331
0.00049494515
0.00013288283
0.00050973801
6.6758728e-05
0.00051967468
3.203572e-15
0.00052466549
-6.6758728e-05
0.00052466549
-0.00013288283
0.00051967468
-0.00019774331
0.00050973801
-0.00026072235
0.00049494515
-0.00032121894
0.00047543
-0.00037865429
0.0004513699
-0.00043247726
0.00042298464
-0.00048216961
0.00039053502
-0.0005272511
0.00035432108
-0.0005672843
0.00031467996
-0.00060187924
0.00027198322
-0.00063069749
0.00022663369
-0.00065345595
0.00017906186
-0.00066992993
0.00012972174
-0.00067995568
7.9086316e-05
-0.00068343212
2.7642697e-05
-0.00068032186
-2.4112976e-05
-0.0006706515
-7.5680622e-05
-0.00065451116
-0.00012656126
-0.00063205345
-0.00017626187
-0.00060349193
-0.00022430006
-0.00056909895
-0.00027020852
-0.00052920317
-0.0003135393
-0.0004841866
-0.00035386803
-0.00043448112
-0.00039079799
-0.00038056465
-0.00042396408
-0.00032295677
-0.00045303675
-0.00026221386
-0.00047772558
-0.00019892383
-0.00049778279
-0.00013370038
-0.00051300619
-6.7176876e-05
-0.00052324176
-0.00052838567
7.2407575e-05
-0.00060079325
0.00014411124
-0.00059494542
0.00021441433
-0.00058330928
0.00028263455
-0.00056600301
0.00034811087
-0.0005432019
0.00041021008
-0.00051513595
0.00046833292
-0.00048208692
0.00052191977
-0.00044438484
0.00057045578
-0.00040240404
0.00061347549
-0.000356559
0.00065056693
-0.00030729996
0.0006813753
-0.00025510843
0.00070560608
-0.00020049266
0.0007230279
-0.00014398308
0.00073347479
-8.6127515e-05
0.00073684811
-2.7486294e-05
0.00073311781
3.1372998e-05
0.00072232308
8.9881052e-05
0.00070457216
0.00014747266
0.00068004134
0.00020359268
0.00064897303
0.00025770199
0.00061167302
0.00030928323
0.00056850696
0.00035784603
0.00051989621
0.00040293183
0.00046631325
0.00044411797
0.00040827664
0.00048102125
0.00034634571
0.00051330083
0.00028111503
0.00054066067
0.0002132088
0.00056285139
0.00014327496
0.00057967185
7.1979409e-05
0.00059097023
1.8631637e-15
0.0005966449
-7.1979409e-05
0.0005966449
-0.00014327496
0.00059097023
-0.0002132088
0.00057967185
-0.00028111503
0.00056285139
-0.00034634571
0.00054066067
-0.00040827664
0.00051330084
-0.00046631325
0.00048102125
-0.00051989621
0.00044411797
-0.00056850696
0.00040293183
-0.00061167302
0.00035784603
-0.00064897303
0.00030928323
-0.00068004134
0.00025770199
-0.00070457216
0.00020359268
-0.00072232308
0.00014747266
-0.00073311781
8.9881052e-05
-0.00073684811
3.1372998e-05
-0.00073347479
-2.7486294e-05
-0.0007230279
-8.6127515e-05
-0.00070560608
-0.00014398308
-0.0006813753
-0.00020049266
-0.00065056693
-0.00025510843
-0.00061347549
-0.00030729996
-0.00057045578
-0.000356559
-0.00052191977
-0.00040240404
-0.00046833292
-0.00044438484
-0.00041021008
-0.00048208692
-0.00034811087
-0.00051513595
-0.00028263455
-0.0005432019
-0.00021441433
-0.00056600301
-0.00014411124
-0.00058330928
-7.2407575e-05
-0.00059494542
-0.00060079325
7.8415168e-05
-0.00067920842
0.00015606849
-0.00067259875
0.000232206
-0.00065944678
0.00030608932
-0.00063988633
0.00037700315
-0.00061411574
0.00044426237
-0.00058239517
0.00050721861
-0.00054504317
0.00056526634
-0.00050243257
0.00061784834
-0.00045498604
0.00066446059
-0.00040317125
0.00070465664
-0.00034749601
0.00073805146
-0.00028850324
0.00076432486
-0.00022676606
0.00078322455
-0.00016288277
0.00079456885
-9.7471808e-05
0.00079824885
-3.1166294e-05
0.00079423014
3.5391703e-05
0.00078255372
0.00010155747
0.00076333596
0.00016669041
0.00073676764
0.000230161
0.00070311174
0.00029135789
0.00066270043
0.00034969454
0.00061593101
0.00040461545
0.00056326128
0.00045560156
0.0005052043
0.00050217495
0.00044232287
0.00054390269
0.00037522365
0.00058040005
0.00030455121
0.0006113331
0.00023098186
0.00063642075
0.00015521739
0.00065543631
7.7978828e-05
0.0006682088
5.3336448e-16
0.00067462373
-7.7978828e-05
0.00067462373
-0.00015521739
0.0006682088
-0.00023098186
0.00065543631
-0.00030455121
0.00063642075
-0.00037522365
0.0006113331
-0.00044232287
0.00058040005
-0.0005052043
0.00054390269
-0.00056326128
0.00050217495
-0.00061593101
0.00045560156
-0.00066270043
0.00040461545
-0.00070311174
0.00034969454
-0.00073676764
0.00029135789
-0.00076333596
0.000230161
-0.00078255372
0.00016669041
-0.00079423014
0.00010155747
-0.00079824885
3.5391703e-05
-0.00079456885
-3.1166294e-05
-0.00078322455
-9.7471808e-05
-0.00076432486
-0.00016288277
-0.00073805146
-0.00022676606
-0.00070465664
-0.00028850324
-0.00066446059
-0.00034749601
-0.00061784834
-0.00040317125
-0.00056526634
-0.00045498604
-0.00050721861
-0.00050243257
-0.00044426237
-0.00054504317
-0.00037700315
-0.00058239517
-0.00030608932
-0.00061411574
-0.000232206
-0.00063988633
-0.00015606849
-0.00065944678
-7.8415168e-05
-0.00067259875
-0.00067920842
8.5380196e-05
-0.00076458861
0.00016993152
-0.00075715007
0.0002528337
-0.00074234896
0.00033328349
-0.00072033613
0.00041050284
-0.00069133509
0.00048374655
-0.00065563888
0.00055230944
-0.00061360606
0.00061553288
-0.000565656
0.00067281059
-0.00051226375
0.00072359389
-0.00045395455
0.00076739623
-0.00039129836
0.00080379734
-0.00032490435
0.00083244688
-0.0002554156
0.00085306787
-0.00018350376
0.00086545975
-0.00010986369
0.00086950116
-3.5207699e-05
0.00086515208
3.9740777e-05
0.00085245525
0.00011425431
0.00083153636
0.0001876093
0.00080260306
0.0002590943
0.0007659426
0.00032801836
0.00072191816
0.00039371898
0.00067096429
0.00045556931
0.0006135815
0.00051298435
0.00055033034
0.00056542611
0.00048182517
0.00061240786
0.00040872774
0.00065349748
0.0003317406
0.00068832024
0.00025160048
0.00071656087
0.00016907152
0.00073796527
8.4938501e-05
0.00075234182
-7.7579909e-16
0.00075956223
-8.4938501e-05
0.00075956223
-0.00016907152
0.00075234182
-0.00025160048
0.00073796527
-0.0003317406
0.00071656087
-0.00040872774
0.00068832024
-0.00048182517
0.00065349748
-0.00055033034
0.00061240786
-0.0006135815
0.00056542611
-0.00067096429
0.00051298435
-0.00072191816
0.00045556931
-0.0007659426
0.00039371898
-0.00080260306
0.00032801836
-0.00083153636
0.0002590943
-0.00085245525
0.0001876093
-0.00086515208
0.00011425431
-0.00086950116
3.9740777e-05
-0.00086545975
-3.5207699e-05
-0.00085306787
-0.00010986369
-0.00083244688
-0.00018350376
-0.00080379734
-0.0002554156
-0.00076739623
-0.00032490435
-0.00072359389
-0.00039129836
-0.00067281059
-0.00045395455
-0.00061553288
-0.00051226375
-0.00055230944
-0.000565656
-0.00048374655
-0.00061360606
-0.00041050284
-0.00065563888
-0.00033328349
-0.00069133509
-0.0002528337
-0.00072033613
-0.00016993152
-0.00074234896
-8.5380196e-05
-0.00075715007
-0.00076458861
9.3551519e-05
-0.00085814013
0.00018619571
-0.00084979426
0.00027703469
-0.00083318794
0.00036518928
-0.00080849072
0.00044980796
-0.00077595377
0.00053007523
-0.00073590615
0.00060521943
-0.00068875025
0.00067451972
-0.0006349563
0.00073731241
-0.00057505644
0.00079299641
-0.00050963855
0.00084103809
-0.00043934003
0.00088097557
-0.00036484183
0.00091242271
-0.00028686275
0.00093507291
-0.00020615396
0.00094870273
-0.00012349351
0.00095317537
-3.9680334e-05
0.00094844354
4.4472603e-05
0.00093455155
0.00012814631
0.00091163587
0.00021052497
0.00087992421
0.00029080596
0.00083973271
0.00036820986
0.00079146164
0.00044199004
0.00073558996
0.000511441
0.00067266889
0.00057590542
0.00060331522
0.00063477979
0.00052820414
0.00068751893
0.0004480622
0.00073363942
0.00036366004
0.0007727224
0.00027580519
0.00080441572
0.0001853348
0.00082843567
9.3108293e-05
0.00084456832
-2.1124281e-15
0.00085267052
-9.3108293e-05
0.00085267052
-0.0001853348
0.00084456832
-0.00027580519
0.00082843567
-0.00036366004
0.00080441572
-0.0004480622
0.0007727224
-0.00052820414
0.00073363942
-0.00060331522
0.00068751893
-0.00067266889
0.00063477979
-0.00073558996
0.00057590542
-0.00079146164
0.000511441
-0.00083973271
0.00044199004
-0.00087992421
0.00036820986
-0.00091163587
0.00029080596
-0.00093455155
0.00021052497
-0.00094844354
0.00012814631
-0.00095317537
4.4472603e-05
-0.00094870273
-3.9680334e-05
-0.00093507291
-0.00012349351
-0.00091242271
-0.00020615396
-0.00088097557
-0.00028686275
-0.00084103809
-0.00036484183
-0.00079299641
-0.00043934003
-0.00073731241
-0.00050963855
-0.00067451972
-0.00057505644
-0.00060521943
-0.0006349563
-0.00053007523
-0.00068875025
-0.00044980796
-0.00073590615
-0.00036518928
-0.00077595377
-0.00027703469
-0.00080849072
-0.00018619571
-0.00083318794
-9.3551519e-05
-0.00084979426
-0.00085814013
0.0001032542
-0.00096139434
0.00020550813
-0.00095204819
0.00030577196
-0.00093345176
0.00040307654
-0.00090579531
0.00049648329
-0.00086936051
0.00058509341
-0.00082451628
0.00066805645
-0.00077171328
0.0007445779
-0.00071147775
0.000813926
-0.00064440454
0.00087543751
-0.00057115006
0.00092852282
-0.00049242534
0.00097267042
-0.00040898943
0.0010074512
-0.0003216435
0.0010325225
-0.00023122533
0.0010476329
-0.00013860392
0.0010526262
-4.4673586e-05
0.0010474455
4.965333e-05
0.0010321363
0.00014345547
0.0010068479
0.0002358134
0.000971832
0.00032582183
0.00092743984
0.00041260202
0.00087411664
0.00049531325
0.00081239494
0.0005731627
0.00074288704
0.00064541331
0.00066627705
0.00071138979
0.00058331279
0.00077048319
0.00049479786
0.00082215435
0.00040158376
0.0008659365
0.00030456198
0.0009014375
0.00020465616
0.00092834148
0.00010281416
0.00094641033
-3.5700632e-15
0.00095548468
-0.00010281416
0.00095548468
-0.00020465616
0.00094641033
-0.00030456198
0.00092834148
-0.00040158376
0.0009014375
-0.00049479786
0.0008659365
-0.00058331279
0.00082215435
-0.00066627705
0.00077048319
-0.00074288704
0.00071138979
-0.00081239494
0.00064541331
-0.00087411664
0.0005731627
-0.00092743984
0.00049531325
-0.000971832
0.00041260202
-0.0010068479
0.00032582183
-0.0010321363
0.0002358134
-0.0010474455
0.00014345547
-0.0010526262
4.965333e-05
-0.0010476329
-4.4673586e-05
-0.0010325225
-0.00013860392
-0.0010074512
-0.00023122533
-0.00097267042
-0.0003216435
-0.00092852282
-0.00040898943
-0.00087543751
-0.00049242534
-0.000813926
-0.00057115006
-0.0007445779
-0.00064440454
-0.00066805645
-0.00071147775
-0.00058509341
-0.00077171328
-0.00049648329
-0.00082451628
-0.00040307654
-0.00086936051
-0.00030577196
-0.00090579531
-0.00020550813
-0.00093345176
-0.0001032542
-0.00095204819
-0.00096139434
0.00011489028
-0.0010762846
0.00022866905
-0.001065827
0.00034023647
-0.0010450192
0.0004485157
-0.0010140745
0.00055246393
-0.00097330874
0.00065108263
-0.00092313498
0.00074342701
-0.00086405766
0.0008286144
-0.00079666514
0.00090583156
-0.0007216217
0.00097434085
-0.00063965936
0.0010334855
-0.00055157003
0.0010826944
-0.0004581983
0.0011214863
-0.00036043533
0.0011494746
-0.00025921362
0.0011663728
-0.00015550217
0.0011720002
-5.0300984e-05
0.0011662872
5.5366279e-05
0.0011492802
0.00016046248
0.0011211434
0.00026395025
0.001082158
0.00036480725
0.0010327182
0.00046204182
0.00097332434
0.00055470709
0.0009045745
0.00064191255
0.00082715513
0.00072283267
0.00074183171
0.0007967132
0.0006494395
0.0008628754
0.00055087462
0.00092071923
0.00044708541
0.00096972572
0.00033906385
0.0010094591
0.00022783706
0.0010395683
0.00011445866
0.0010597887
-5.2323391e-15
0.0010699433
-0.00011445866
0.0010699433
-0.00022783706
0.0010597887
-0.00033906385
0.0010395683
-0.00044708541
0.0010094591
-0.00055087462
0.00096972572
-0.0006494395
0.00092071923
-0.00074183171
0.0008628754
-0.00082715513
0.0007967132
-0.0009045745
0.00072283267
-0.00097332434
0.00064191255
-0.0010327182
0.00055470709
-0.001082158
0.00046204182
-0.0011211434
0.00036480725
-0.0011492802
0.00026395025
-0.0011662872
0.00016046248
-0.0011720002
5.5366279e-05
-0.0011663728
-5.0300984e-05
-0.0011494746
-0.00015550217
-0.0011214863
-0.00025921362
-0.0010826944
-0.00036043533
-0.0010334855
-0.0004581983
-0.00097434085
-0.00055157003
-0.00090583156
-0.00063965936
-0.0008286144
-0.0007216217
-0.00074342701
-0.00079666514
-0.00065108263
-0.00086405766
-0.00055246393
-0.00092313498
-0.0004485157