/*--------------------------------*- C++ -*----------------------------------*\
| =========                 |                                                 |
| \\      /  F ield         | OpenFOAM: The Open Source CFD Toolbox           |
|  \\    /   O peration     | Version:  2106                                  |
|   \\  /    A nd           | Website:  www.openfoam.com                      |
|    \\/     M anipulation  |                                                 |
\*---------------------------------------------------------------------------*/
FoamFile
{
    version     2.0;
    format      ascii;
    arch        "LSB;label=32;scalar=64";
    class       volVectorField;
    location    "0.043";
    object      U;
}
// * * * * * * * * * * * * * * * * * * * * * * * * * * * * * * * * * * * * * //

dimensions      [0 1 -1 0 0 0 0];

internalField   nonuniform List<vector> 
4096
(
(0.001423728 -0.0014172881 0)
(0.0042573173 -0.0014034856 0)
(0.0070494465 -0.0013760196 0)
(0.0097729406 -0.0013351672 0)
(0.012401316 -0.0012813393 0)
(0.014909045 -0.0012150767 0)
(0.017271812 -0.001137043 0)
(0.019466751 -0.0010480178 0)
(0.021472669 -0.00094888762 0)
(0.023270254 -0.00084063617 0)
(0.024842258 -0.00072433392 0)
(0.026173659 -0.00060112677 0)
(0.027251801 -0.00047222427 0)
(0.028066511 -0.00033888725 0)
(0.028610188 -0.00020241521 0)
(0.028877867 -6.4133483e-05 0)
(0.02886725 7.4620831e-05 0)
(0.028578766 0.0002125034 0)
(0.028015444 0.00034820397 0)
(0.027183019 0.00048041355 0)
(0.026089757 0.00060787514 0)
(0.024746415 0.00072938026 0)
(0.023166115 0.0008437816 0)
(0.02136421 0.00095000391 0)
(0.019358131 0.0010470535 0)
(0.017167216 0.0011340265 0)
(0.014812518 0.0012101169 0)
(0.012316606 0.0012746221 0)
(0.0097033498 0.0013269491 0)
(0.0069976943 0.0013666182 0)
(0.0042254307 0.001393267 0)
(0.0014129582 0.0014066524 0)
(-0.0014129582 0.0014066524 0)
(-0.0042254307 0.001393267 0)
(-0.0069976943 0.0013666182 0)
(-0.0097033498 0.0013269491 0)
(-0.012316606 0.0012746221 0)
(-0.014812518 0.0012101169 0)
(-0.017167216 0.0011340265 0)
(-0.019358131 0.0010470535 0)
(-0.02136421 0.00095000391 0)
(-0.023166115 0.0008437816 0)
(-0.024746415 0.00072938026 0)
(-0.026089757 0.00060787514 0)
(-0.027183019 0.00048041355 0)
(-0.028015444 0.00034820397 0)
(-0.028578766 0.0002125034 0)
(-0.02886725 7.4620831e-05 0)
(-0.028877867 -6.4133483e-05 0)
(-0.028610188 -0.00020241521 0)
(-0.028066511 -0.00033888725 0)
(-0.027251801 -0.00047222427 0)
(-0.026173659 -0.00060112677 0)
(-0.024842258 -0.00072433392 0)
(-0.023270254 -0.00084063617 0)
(-0.021472669 -0.00094888762 0)
(-0.019466751 -0.0010480178 0)
(-0.017271812 -0.001137043 0)
(-0.014909045 -0.0012150767 0)
(-0.012401316 -0.0012813393 0)
(-0.0097729406 -0.0013351672 0)
(-0.0070494465 -0.0013760196 0)
(-0.0042573173 -0.0014034856 0)
(-0.001423728 -0.0014172881 0)
(0.0014442198 -0.0042676207 0)
(0.0043185918 -0.0042260583 0)
(0.0071509034 -0.0041433528 0)
(0.0099135861 -0.0040203379 0)
(0.012579774 -0.0038582519 0)
(0.015123571 -0.0036587228 0)
(0.017520312 -0.00342375 0)
(0.019746801 -0.0031556809 0)
(0.021781544 -0.002857185 0)
(0.023604952 -0.0025312248 0)
(0.025199529 -0.0021810235 0)
(0.02655004 -0.0018100316 0)
(0.027643649 -0.0014218911 0)
(0.028470036 -0.0010203986 0)
(0.029021491 -0.00060946694 0)
(0.029292979 -0.00019308709 0)
(0.029282176 0.00022471095 0)
(0.028989491 0.00063990274 0)
(0.028418034 0.0010485021 0)
(0.027573601 0.0014465953 0)
(0.026464584 0.0018303919 0)
(0.025101895 0.0021962518 0)
(0.023498848 0.0025407205 0)
(0.021671018 0.0028605602 0)
(0.019636091 0.0031527789 0)
(0.017413683 0.0034146559 0)
(0.015025151 0.0036437638 0)
(0.012493391 0.0038379881 0)
(0.0098426114 0.0039955432 0)
(0.0070981167 0.0041149856 0)
(0.0042860658 0.004195224 0)
(0.0014332336 0.0042355267 0)
(-0.0014332336 0.0042355267 0)
(-0.0042860658 0.004195224 0)
(-0.0070981167 0.0041149856 0)
(-0.0098426114 0.0039955432 0)
(-0.012493391 0.0038379881 0)
(-0.015025151 0.0036437638 0)
(-0.017413683 0.0034146559 0)
(-0.019636091 0.0031527789 0)
(-0.021671018 0.0028605602 0)
(-0.023498848 0.0025407205 0)
(-0.025101895 0.0021962518 0)
(-0.026464584 0.0018303919 0)
(-0.027573601 0.0014465953 0)
(-0.028418034 0.0010485021 0)
(-0.028989491 0.00063990274 0)
(-0.029282176 0.00022471095 0)
(-0.029292979 -0.00019308708 0)
(-0.029021491 -0.00060946694 0)
(-0.028470036 -0.0010203986 0)
(-0.027643649 -0.0014218911 0)
(-0.02655004 -0.0018100316 0)
(-0.025199529 -0.0021810235 0)
(-0.023604952 -0.0025312248 0)
(-0.021781544 -0.002857185 0)
(-0.019746801 -0.0031556809 0)
(-0.017520312 -0.00342375 0)
(-0.015123571 -0.0036587228 0)
(-0.012579774 -0.0038582519 0)
(-0.0099135861 -0.0040203379 0)
(-0.0071509034 -0.0041433528 0)
(-0.0043185918 -0.0042260583 0)
(-0.0014442198 -0.0042676207 0)
(0.0014789749 -0.0071768817 0)
(0.0044225184 -0.0071069832 0)
(0.0073229884 -0.0069678919 0)
(0.010152153 -0.0067610105 0)
(0.0128825 -0.0064884222 0)
(0.015487513 -0.006152866 0)
(0.017941932 -0.0057577049 0)
(0.020222009 -0.0053068874 0)
(0.022305732 -0.0048049034 0)
(0.024173043 -0.0042567346 0)
(0.025806028 -0.0036678017 0)
(0.027189085 -0.0030439067 0)
(0.028309067 -0.0023911735 0)
(0.029155405 -0.001715986 0)
(0.029720199 -0.0010249239 0)
(0.029998289 -0.00032469796 0)
(0.029987291 0.00037791631 0)
(0.029687615 0.0010761468 0)
(0.02910245 0.0017632881 0)
(0.028237721 0.0024327638 0)
(0.027102024 0.0030781958 0)
(0.025706533 0.0036934614 0)
(0.024064883 0.0042727503 0)
(0.022193028 0.0048106178 0)
(0.02010908 0.0053020321 0)
(0.017833133 0.0057424181 0)
(0.01538706 0.0061276948 0)
(0.01279431 0.0064543074 0)
(0.010079678 0.0067192542 0)
(0.0072690763 0.006920109 0)
(0.004389295 0.0070550376 0)
(0.0014677525 0.0071228102 0)
(-0.0014677525 0.0071228102 0)
(-0.004389295 0.0070550376 0)
(-0.0072690763 0.006920109 0)
(-0.010079678 0.0067192542 0)
(-0.01279431 0.0064543074 0)
(-0.01538706 0.0061276948 0)
(-0.017833133 0.0057424181 0)
(-0.02010908 0.0053020321 0)
(-0.022193028 0.0048106178 0)
(-0.024064883 0.0042727503 0)
(-0.025706533 0.0036934614 0)
(-0.027102024 0.0030781958 0)
(-0.028237721 0.0024327638 0)
(-0.02910245 0.0017632881 0)
(-0.029687615 0.0010761468 0)
(-0.029987291 0.00037791631 0)
(-0.029998289 -0.00032469796 0)
(-0.029720199 -0.0010249239 0)
(-0.029155405 -0.001715986 0)
(-0.028309067 -0.0023911735 0)
(-0.027189085 -0.0030439067 0)
(-0.025806028 -0.0036678017 0)
(-0.024173043 -0.0042567346 0)
(-0.022305732 -0.0048049034 0)
(-0.020222009 -0.0053068874 0)
(-0.017941932 -0.0057577049 0)
(-0.015487513 -0.006152866 0)
(-0.0128825 -0.0064884222 0)
(-0.010152153 -0.0067610105 0)
(-0.0073229884 -0.0069678919 0)
(-0.0044225184 -0.0071069832 0)
(-0.0014789749 -0.0071768817 0)
(0.0015284803 -0.010170079 0)
(0.0045705528 -0.010071027 0)
(0.0075681121 -0.0098739245 0)
(0.010491983 -0.0095807589 0)
(0.013313735 -0.0091944841 0)
(0.016005967 -0.0087189824 0)
(0.018542578 -0.0081590206 0)
(0.020899028 -0.0075201943 0)
(0.023052573 -0.006808866 0)
(0.024982485 -0.0060320943 0)
(0.026670252 -0.0051975589 0)
(0.028099747 -0.0043134799 0)
(0.029257382 -0.003388533 0)
(0.030132228 -0.0024317622 0)
(0.030716112 -0.0014524896 0)
(0.031003691 -0.00046022323 0)
(0.030992493 0.00053543618 0)
(0.030682932 0.00152489 0)
(0.030078293 0.0024986339 0)
(0.029184694 0.0034473491 0)
(0.028011016 0.0043619943 0)
(0.026568804 0.0052338905 0)
(0.02487215 0.0060548023 0)
(0.022937546 0.0068170121 0)
(0.020783715 0.0075133892 0)
(0.018431428 0.0081374503 0)
(0.015903299 0.0086834129 0)
(0.013223564 0.009146241 0)
(0.010417855 0.0095216826 0)
(0.0075129564 0.0098063011 0)
(0.004536557 0.0099974988 0)
(0.0015169959 0.010093534 0)
(-0.0015169959 0.010093534 0)
(-0.004536557 0.0099974988 0)
(-0.0075129564 0.0098063011 0)
(-0.010417855 0.0095216826 0)
(-0.013223564 0.009146241 0)
(-0.015903299 0.0086834129 0)
(-0.018431428 0.0081374503 0)
(-0.020783715 0.0075133892 0)
(-0.022937546 0.0068170121 0)
(-0.02487215 0.0060548023 0)
(-0.026568804 0.0052338905 0)
(-0.028011016 0.0043619943 0)
(-0.029184694 0.0034473491 0)
(-0.030078293 0.0024986339 0)
(-0.030682932 0.00152489 0)
(-0.030992493 0.00053543618 0)
(-0.031003691 -0.00046022323 0)
(-0.030716112 -0.0014524896 0)
(-0.030132228 -0.0024317622 0)
(-0.029257382 -0.003388533 0)
(-0.028099747 -0.0043134799 0)
(-0.026670252 -0.0051975589 0)
(-0.024982485 -0.0060320943 0)
(-0.023052573 -0.006808866 0)
(-0.020899028 -0.0075201943 0)
(-0.018542578 -0.0081590206 0)
(-0.016005967 -0.0087189824 0)
(-0.013313735 -0.0091944841 0)
(-0.010491983 -0.0095807589 0)
(-0.0075681121 -0.0098739245 0)
(-0.0045705528 -0.010071027 0)
(-0.0015284803 -0.010170079 0)
(0.0015930762 -0.013276775 0)
(0.0047637129 -0.013147466 0)
(0.0078879598 -0.012890157 0)
(0.010935413 -0.012507443 0)
(0.013876444 -0.012003183 0)
(0.016682499 -0.011382446 0)
(0.019326381 -0.010651455 0)
(0.021782517 -0.0098175166 0)
(0.024027207 -0.0088889348 0)
(0.026038852 -0.0078749227 0)
(0.027798157 -0.0067855024 0)
(0.029288311 -0.0056314006 0)
(0.030495146 -0.0044239389 0)
(0.03140726 -0.0031749195 0)
(0.032016123 -0.0018965087 0)
(0.032316152 -0.00060111685 0)
(0.032304754 0.00069872323 0)
(0.031982344 0.0019904787 0)
(0.031352335 0.0032617384 0)
(0.030421092 0.0045003337 0)
(0.029197865 0.0056944562 0)
(0.027694684 0.0068327709 0)
(0.025926238 0.0079045218 0)
(0.023909721 0.0088996305 0)
(0.021664654 0.0098087857 0)
(0.019212696 0.010623523 0)
(0.016577422 0.011336293 0)
(0.013784105 0.011940524 0)
(0.010859467 0.012430666 0)
(0.0078314313 0.012802235 0)
(0.0047288623 0.013051842 0)
(0.0015813016 0.013177215 0)
(-0.0015813016 0.013177215 0)
(-0.0047288623 0.013051842 0)
(-0.0078314313 0.012802235 0)
(-0.010859467 0.012430666 0)
(-0.013784105 0.011940524 0)
(-0.016577422 0.011336293 0)
(-0.019212696 0.010623523 0)
(-0.021664654 0.0098087857 0)
(-0.023909721 0.0088996305 0)
(-0.025926238 0.0079045218 0)
(-0.027694684 0.0068327709 0)
(-0.029197865 0.0056944562 0)
(-0.030421092 0.0045003337 0)
(-0.031352335 0.0032617384 0)
(-0.031982344 0.0019904787 0)
(-0.032304754 0.00069872323 0)
(-0.032316152 -0.00060111685 0)
(-0.032016123 -0.0018965087 0)
(-0.03140726 -0.0031749195 0)
(-0.030495146 -0.0044239389 0)
(-0.029288311 -0.0056314006 0)
(-0.027798157 -0.0067855024 0)
(-0.026038852 -0.0078749227 0)
(-0.024027207 -0.0088889348 0)
(-0.021782517 -0.0098175166 0)
(-0.019326381 -0.010651455 0)
(-0.016682499 -0.011382446 0)
(-0.013876444 -0.012003183 0)
(-0.010935413 -0.012507443 0)
(-0.0078879598 -0.012890157 0)
(-0.0047637129 -0.013147466 0)
(-0.0015930762 -0.013276775 0)
(0.0016730126 -0.016527525 0)
(0.0050027459 -0.016366561 0)
(0.008283769 -0.016046262 0)
(0.011484158 -0.015569861 0)
(0.014572804 -0.014942164 0)
(0.017519729 -0.014169482 0)
(0.020296379 -0.013259565 0)
(0.022875905 -0.012221506 0)
(0.025233425 -0.011065641 0)
(0.027346259 -0.0098034333 0)
(0.029194146 -0.0084473535 0)
(0.030759427 -0.0070107472 0)
(0.032027213 -0.0055076999 0)
(0.032985516 -0.0039528963 0)
(0.03362536 -0.0023614756 0)
(0.03394086 -0.0007488832 0)
(0.033929271 0.00086927967 0)
(0.033591007 0.0024774087 0)
(0.032929633 0.0040600485 0)
(0.031951822 0.0056020436 0)
(0.030667278 0.007088686 0)
(0.029088633 0.0085058566 0)
(0.027231315 0.0098401579 0)
(0.025113389 0.011079038 0)
(0.022755366 0.012210902 0)
(0.020180002 0.01322521 0)
(0.017412071 0.014112565 0)
(0.014478124 0.014864788 0)
(0.011406237 0.015474973 0)
(0.008225741 0.015937541 0)
(0.0049669586 0.016248275 0)
(0.0016609195 0.016404351 0)
(-0.0016609195 0.016404351 0)
(-0.0049669586 0.016248275 0)
(-0.008225741 0.015937541 0)
(-0.011406237 0.015474973 0)
(-0.014478124 0.014864788 0)
(-0.017412071 0.014112565 0)
(-0.020180002 0.01322521 0)
(-0.022755366 0.012210902 0)
(-0.025113389 0.011079038 0)
(-0.027231315 0.0098401579 0)
(-0.029088633 0.0085058566 0)
(-0.030667278 0.007088686 0)
(-0.031951822 0.0056020436 0)
(-0.032929633 0.0040600485 0)
(-0.033591007 0.0024774087 0)
(-0.033929271 0.00086927967 0)
(-0.03394086 -0.0007488832 0)
(-0.03362536 -0.0023614756 0)
(-0.032985516 -0.0039528963 0)
(-0.032027213 -0.0055076999 0)
(-0.030759427 -0.0070107472 0)
(-0.029194146 -0.0084473535 0)
(-0.027346259 -0.0098034333 0)
(-0.025233425 -0.011065641 0)
(-0.022875905 -0.012221506 0)
(-0.020296379 -0.013259565 0)
(-0.017519729 -0.014169482 0)
(-0.014572804 -0.014942164 0)
(-0.011484158 -0.015569861 0)
(-0.008283769 -0.016046262 0)
(-0.0050027459 -0.016366561 0)
(-0.0016730126 -0.016527525 0)
(0.0017685536 -0.019953202 0)
(0.0052884419 -0.019758885 0)
(0.0087568482 -0.019372218 0)
(0.012140033 -0.018797108 0)
(0.015405122 -0.018039359 0)
(0.018520432 -0.017106594 0)
(0.021455791 -0.016008167 0)
(0.024182827 -0.014755057 0)
(0.026675246 -0.013359737 0)
(0.028909078 -0.011836041 0)
(0.030862903 -0.010199012 0)
(0.03251805 -0.0084647511 0)
(0.033858765 -0.0066502504 0)
(0.034872356 -0.0047732268 0)
(0.035549309 -0.0028519483 0)
(0.035883374 -0.00090505692 0)
(0.035871618 0.0010486128 0)
(0.035514451 0.0029902173 0)
(0.034815619 0.0049010886 0)
(0.033782157 0.0067629179 0)
(0.032424314 0.0085579346 0)
(0.030755442 0.010269079 0)
(0.028791858 0.011880166 0)
(0.026552667 0.013376031 0)
(0.024059569 0.014742669 0)
(0.021336635 0.015967355 0)
(0.018410073 0.017038744 0)
(0.015307966 0.017946962 0)
(0.012060005 0.018683678 0)
(0.0086972113 0.01924216 0)
(0.0052516456 0.019617323 0)
(0.0017561167 0.019805759 0)
(-0.0017561167 0.019805759 0)
(-0.0052516456 0.019617323 0)
(-0.0086972113 0.01924216 0)
(-0.012060005 0.018683678 0)
(-0.015307966 0.017946962 0)
(-0.018410073 0.017038744 0)
(-0.021336635 0.015967355 0)
(-0.024059569 0.014742669 0)
(-0.026552667 0.013376031 0)
(-0.028791858 0.011880166 0)
(-0.030755442 0.010269079 0)
(-0.032424314 0.0085579346 0)
(-0.033782157 0.0067629179 0)
(-0.034815619 0.0049010886 0)
(-0.035514451 0.0029902173 0)
(-0.035871618 0.0010486128 0)
(-0.035883374 -0.00090505692 0)
(-0.035549309 -0.0028519483 0)
(-0.034872356 -0.0047732268 0)
(-0.033858765 -0.0066502504 0)
(-0.03251805 -0.0084647511 0)
(-0.030862903 -0.010199012 0)
(-0.028909078 -0.011836041 0)
(-0.026675246 -0.013359737 0)
(-0.024182827 -0.014755057 0)
(-0.021455791 -0.016008167 0)
(-0.018520432 -0.017106594 0)
(-0.015405122 -0.018039359 0)
(-0.012140033 -0.018797108 0)
(-0.0087568482 -0.019372218 0)
(-0.0052884419 -0.019758885 0)
(-0.0017685536 -0.019953202 0)
(0.0018801397 -0.023585238 0)
(0.0056221181 -0.023355567 0)
(0.0093093797 -0.02289855 0)
(0.012906067 -0.022218811 0)
(0.016377241 -0.021323212 0)
(0.019689237 -0.020220767 0)
(0.022809989 -0.018922537 0)
(0.025709352 -0.017441492 0)
(0.028359381 -0.015792372 0)
(0.030734601 -0.013991517 0)
(0.032812242 -0.012056693 0)
(0.034572444 -0.010006913 0)
(0.035998441 -0.0078622449 0)
(0.037076714 -0.0056436123 0)
(0.037797113 -0.0033725957 0)
(0.038152955 -0.0010712233 0)
(0.038141081 0.0012382413 0)
(0.037761892 0.0035335164 0)
(0.037019338 0.0057925212 0)
(0.035920878 0.0079935949 0)
(0.034477399 0.010115711 0)
(0.032703097 0.012138684 0)
(0.030615329 0.014043363 0)
(0.028234422 0.015811811 0)
(0.025583469 0.017427467 0)
(0.022688085 0.018875282 0)
(0.019576152 0.02014185 0)
(0.016277548 0.021215504 0)
(0.012823854 0.022086402 0)
(0.0092480605 0.022746595 0)
(0.005584261 0.023190078 0)
(0.0018673404 0.023412828 0)
(-0.0018673404 0.023412828 0)
(-0.005584261 0.023190078 0)
(-0.0092480605 0.022746595 0)
(-0.012823854 0.022086402 0)
(-0.016277548 0.021215504 0)
(-0.019576152 0.02014185 0)
(-0.022688085 0.018875282 0)
(-0.025583469 0.017427467 0)
(-0.028234422 0.015811811 0)
(-0.030615329 0.014043363 0)
(-0.032703097 0.012138684 0)
(-0.034477399 0.010115711 0)
(-0.035920878 0.0079935949 0)
(-0.037019338 0.0057925212 0)
(-0.037761892 0.0035335164 0)
(-0.038141081 0.0012382413 0)
(-0.038152955 -0.0010712233 0)
(-0.037797113 -0.0033725957 0)
(-0.037076714 -0.0056436123 0)
(-0.035998441 -0.0078622449 0)
(-0.034572444 -0.010006913 0)
(-0.032812242 -0.012056693 0)
(-0.030734601 -0.013991517 0)
(-0.028359381 -0.015792372 0)
(-0.025709352 -0.017441492 0)
(-0.022809989 -0.018922537 0)
(-0.019689237 -0.020220767 0)
(-0.016377241 -0.021323212 0)
(-0.012906067 -0.022218811 0)
(-0.0093093797 -0.02289855 0)
(-0.0056221181 -0.023355567 0)
(-0.0018801397 -0.023585238 0)
(0.0020086107 -0.027456223 0)
(0.0060062863 -0.02718888 0)
(0.0099455242 -0.026656907 0)
(0.01378803 -0.025865689 0)
(0.017496493 -0.024823219 0)
(0.021034965 -0.023539996 0)
(0.024369209 -0.022028895 0)
(0.027467034 -0.020305013 0)
(0.030298603 -0.018385498 0)
(0.032836708 -0.016289355 0)
(0.035057019 -0.014037244 0)
(0.036938308 -0.011651273 0)
(0.03846264 -0.0091547742 0)
(0.039615533 -0.0065720812 0)
(0.040386099 -0.0039282977 0)
(0.040767141 -0.0012490583 0)
(0.040755236 0.0014397173 0)
(0.04035076 0.0041120768 0)
(0.039557899 0.0067422923 0)
(0.038384595 0.0093051185 0)
(0.036842473 0.011776046 0)
(0.034946705 0.014131546 0)
(0.032715852 0.016349299 0)
(0.03017166 0.018408405 0)
(0.027338831 0.020289573 0)
(0.024244764 0.021975285 0)
(0.020919278 0.023449935 0)
(0.017394316 0.024699949 0)
(0.01370364 0.025713882 0)
(0.0098825074 0.026482491 0)
(0.0059673505 0.026998795 0)
(0.0019954414 0.02725812 0)
(-0.0019954414 0.02725812 0)
(-0.0059673505 0.026998795 0)
(-0.0098825074 0.026482491 0)
(-0.01370364 0.025713882 0)
(-0.017394316 0.024699949 0)
(-0.020919278 0.023449935 0)
(-0.024244764 0.021975285 0)
(-0.027338831 0.020289573 0)
(-0.03017166 0.018408405 0)
(-0.032715852 0.016349299 0)
(-0.034946705 0.014131546 0)
(-0.036842473 0.011776046 0)
(-0.038384595 0.0093051185 0)
(-0.039557899 0.0067422923 0)
(-0.04035076 0.0041120768 0)
(-0.040755236 0.0014397173 0)
(-0.040767141 -0.0012490583 0)
(-0.040386099 -0.0039282977 0)
(-0.039615533 -0.0065720812 0)
(-0.03846264 -0.0091547742 0)
(-0.036938308 -0.011651273 0)
(-0.035057019 -0.014037244 0)
(-0.032836708 -0.016289355 0)
(-0.030298603 -0.018385498 0)
(-0.027467034 -0.020305013 0)
(-0.024369209 -0.022028895 0)
(-0.021034965 -0.023539996 0)
(-0.017496493 -0.024823219 0)
(-0.01378803 -0.025865689 0)
(-0.0099455242 -0.026656907 0)
(-0.0060062863 -0.02718888 0)
(-0.0020086107 -0.027456223 0)
(0.002155491 -0.031600948 0)
(0.0064455055 -0.031293285 0)
(0.010672833 -0.030681082 0)
(0.014796397 -0.029770546 0)
(0.018776179 -0.028570882 0)
(0.022573623 -0.027094179 0)
(0.026152014 -0.025355258 0)
(0.02947683 -0.023371488 0)
(0.032516067 -0.02116259 0)
(0.03524054 -0.018750414 0)
(0.037624136 -0.016158709 0)
(0.039644059 -0.013412879 0)
(0.041281025 -0.01053974 0)
(0.042519445 -0.007567264 0)
(0.043347568 -0.0045243183 0)
(0.043757602 -0.0014403953 0)
(0.043745799 0.0016546675 0)
(0.043312505 0.004730978 0)
(0.04246216 0.0077588891 0)
(0.041203264 0.0107093 0)
(0.039548284 0.013553954 0)
(0.037513519 0.016265727 0)
(0.035118919 0.018818896 0)
(0.032387862 0.021189381 0)
(0.029346902 0.023354967 0)
(0.026025489 0.025295489 0)
(0.022455662 0.026992995 0)
(0.018671735 0.028431875 0)
(0.014709959 0.029598973 0)
(0.010608188 0.030483669 0)
(0.0064055221 0.031077944 0)
(0.0021419603 0.031376428 0)
(-0.0021419603 0.031376428 0)
(-0.0064055221 0.031077944 0)
(-0.010608188 0.030483669 0)
(-0.014709959 0.029598973 0)
(-0.018671735 0.028431875 0)
(-0.022455662 0.026992995 0)
(-0.026025489 0.025295489 0)
(-0.029346902 0.023354967 0)
(-0.032387862 0.021189381 0)
(-0.035118919 0.018818896 0)
(-0.037513519 0.016265727 0)
(-0.039548284 0.013553954 0)
(-0.041203264 0.0107093 0)
(-0.04246216 0.0077588891 0)
(-0.043312505 0.004730978 0)
(-0.043745799 0.0016546675 0)
(-0.043757602 -0.0014403953 0)
(-0.043347568 -0.0045243183 0)
(-0.042519445 -0.007567264 0)
(-0.041281025 -0.01053974 0)
(-0.039644059 -0.013412879 0)
(-0.037624136 -0.016158709 0)
(-0.03524054 -0.018750414 0)
(-0.032516067 -0.02116259 0)
(-0.02947683 -0.023371488 0)
(-0.026152014 -0.025355258 0)
(-0.022573623 -0.027094179 0)
(-0.018776179 -0.028570882 0)
(-0.014796397 -0.029770546 0)
(-0.010672833 -0.030681082 0)
(-0.0064455055 -0.031293285 0)
(-0.002155491 -0.031600948 0)
(0.0023233333 -0.036058089 0)
(0.0069474106 -0.035707084 0)
(0.011503952 -0.035008643 0)
(0.015948707 -0.033969854 0)
(0.020238569 -0.032601232 0)
(0.024332008 -0.030916577 0)
(0.028189481 -0.028932799 0)
(0.031773805 -0.02666971 0)
(0.035050512 -0.024149791 0)
(0.037988151 -0.021397939 0)
(0.040558575 -0.018441208 0)
(0.042737187 -0.01530853 0)
(0.044503153 -0.012030449 0)
(0.045839601 -0.0086388297 0)
(0.046733777 -0.0051665765 0)
(0.047177186 -0.0016473268 0)
(0.047165692 0.0018848632 0)
(0.046699584 0.0053958505 0)
(0.04578359 0.0088517515 0)
(0.044426841 0.012219294 0)
(0.042642778 0.015466169 0)
(0.040448997 0.018561364 0)
(0.037867051 0.021475479 0)
(0.034922203 0.02418101 0)
(0.031643142 0.026652593 0)
(0.028061671 0.028867225 0)
(0.02421238 0.030804435 0)
(0.020132294 0.032446438 0)
(0.015860517 0.033778246 0)
(0.011437861 0.034787769 0)
(0.0069064767 0.03546588 0)
(0.0023094715 0.035806467 0)
(-0.0023094715 0.035806467 0)
(-0.0069064767 0.03546588 0)
(-0.011437861 0.034787769 0)
(-0.015860517 0.033778246 0)
(-0.020132294 0.032446438 0)
(-0.02421238 0.030804435 0)
(-0.028061671 0.028867225 0)
(-0.031643142 0.026652593 0)
(-0.034922203 0.02418101 0)
(-0.037867051 0.021475479 0)
(-0.040448997 0.018561364 0)
(-0.042642778 0.015466169 0)
(-0.044426841 0.012219294 0)
(-0.04578359 0.0088517515 0)
(-0.046699584 0.0053958505 0)
(-0.047165692 0.0018848632 0)
(-0.047177186 -0.0016473268 0)
(-0.046733777 -0.0051665765 0)
(-0.045839601 -0.0086388297 0)
(-0.044503153 -0.012030449 0)
(-0.042737187 -0.01530853 0)
(-0.040558575 -0.018441208 0)
(-0.037988151 -0.021397939 0)
(-0.035050512 -0.024149791 0)
(-0.031773805 -0.02666971 0)
(-0.028189481 -0.028932799 0)
(-0.024332008 -0.030916577 0)
(-0.020238569 -0.032601232 0)
(-0.015948707 -0.033969854 0)
(-0.011503952 -0.035008643 0)
(-0.0069474106 -0.035707084 0)
(-0.0023233333 -0.036058089 0)
(0.0025161083 -0.040872628 0)
(0.0075238759 -0.040474831 0)
(0.012458549 -0.039683287 0)
(0.017272238 -0.038506044 0)
(0.021918295 -0.036955029 0)
(0.026351784 -0.035045893 0)
(0.03052992 -0.032797806 0)
(0.034412474 -0.030233211 0)
(0.037962143 -0.027377561 0)
(0.041144886 -0.024259032 0)
(0.043930213 -0.020908221 0)
(0.04629145 -0.017357852 0)
(0.048205973 -0.013642464 0)
(0.04965541 -0.0097981091 0)
(0.05062583 -0.0058620337 0)
(0.051107901 -0.0018723487 0)
(0.051097013 0.0021323233 0)
(0.05059337 0.0061132258 0)
(0.049602016 0.010031868 0)
(0.048132808 0.013850436 0)
(0.046200312 0.017532207 0)
(0.043823636 0.021041943 0)
(0.0410262 0.024346254 0)
(0.037835453 0.027413924 0)
(0.03428256 0.030216196 0)
(0.030402047 0.032727005 0)
(0.026231444 0.034923175 0)
(0.0218109 0.036784584 0)
(0.017182792 0.038294286 0)
(0.012391334 0.039438614 0)
(0.0074821703 0.040207256 0)
(0.0025019724 0.040593307 0)
(-0.0025019724 0.040593307 0)
(-0.0074821703 0.040207256 0)
(-0.012391334 0.039438614 0)
(-0.017182792 0.038294286 0)
(-0.0218109 0.036784584 0)
(-0.026231444 0.034923175 0)
(-0.030402047 0.032727005 0)
(-0.03428256 0.030216196 0)
(-0.037835453 0.027413924 0)
(-0.0410262 0.024346254 0)
(-0.043823636 0.021041943 0)
(-0.046200312 0.017532207 0)
(-0.048132808 0.013850436 0)
(-0.049602016 0.010031868 0)
(-0.05059337 0.0061132258 0)
(-0.051097013 0.0021323233 0)
(-0.051107901 -0.0018723487 0)
(-0.05062583 -0.0058620337 0)
(-0.04965541 -0.0097981091 0)
(-0.048205973 -0.013642464 0)
(-0.04629145 -0.017357852 0)
(-0.043930213 -0.020908221 0)
(-0.041144886 -0.024259032 0)
(-0.037962143 -0.027377561 0)
(-0.034412474 -0.030233211 0)
(-0.03052992 -0.032797806 0)
(-0.026351784 -0.035045893 0)
(-0.021918295 -0.036955029 0)
(-0.017272238 -0.038506044 0)
(-0.012458549 -0.039683287 0)
(-0.0075238759 -0.040474831 0)
(-0.0025161083 -0.040872628 0)
(0.0027396085 -0.046099084 0)
(0.008192225 -0.045650526 0)
(0.013565316 -0.044757986 0)
(0.018806782 -0.043430552 0)
(0.023865878 -0.041681692 0)
(0.028693729 -0.039529068 0)
(0.033243798 -0.036994298 0)
(0.037472332 -0.034102679 0)
(0.041338754 -0.030882878 0)
(0.044806017 -0.027366607 0)
(0.047840913 -0.023588286 0)
(0.050414354 -0.019584716 0)
(0.052501617 -0.015394742 0)
(0.05408257 -0.011058925 0)
(0.055141879 -0.0066192076 0)
(0.0556692 -0.0021185501 0)
(0.055659338 0.0023994541 0)
(0.055112365 0.0068910074 0)
(0.054033679 0.011312571 0)
(0.052433978 0.015621351 0)
(0.05032915 0.019775784 0)
(0.047740082 0.023736006 0)
(0.04469239 0.027464274 0)
(0.041216095 0.030925337 0)
(0.037345259 0.034086755 0)
(0.033117591 0.036919156 0)
(0.028574044 0.039396452 0)
(0.023758392 0.041496004 0)
(0.018716815 0.043198762 0)
(0.013497461 0.044489368 0)
(0.0081500207 0.045356237 0)
(0.0027252864 0.045791615 0)
(-0.0027252864 0.045791615 0)
(-0.0081500207 0.045356237 0)
(-0.013497461 0.044489368 0)
(-0.018716815 0.043198762 0)
(-0.023758392 0.041496004 0)
(-0.028574044 0.039396452 0)
(-0.033117591 0.036919156 0)
(-0.037345259 0.034086755 0)
(-0.041216095 0.030925337 0)
(-0.04469239 0.027464274 0)
(-0.047740082 0.023736006 0)
(-0.05032915 0.019775784 0)
(-0.052433978 0.015621351 0)
(-0.054033679 0.011312571 0)
(-0.055112365 0.0068910074 0)
(-0.055659338 0.0023994541 0)
(-0.0556692 -0.0021185501 0)
(-0.055141879 -0.0066192076 0)
(-0.05408257 -0.011058925 0)
(-0.052501617 -0.015394742 0)
(-0.050414354 -0.019584716 0)
(-0.047840913 -0.023588286 0)
(-0.044806017 -0.027366607 0)
(-0.041338754 -0.030882878 0)
(-0.037472332 -0.034102679 0)
(-0.033243798 -0.036994298 0)
(-0.028693729 -0.039529068 0)
(-0.023865878 -0.041681692 0)
(-0.018806782 -0.043430552 0)
(-0.013565316 -0.044757986 0)
(-0.008192225 -0.045650526 0)
(-0.0027396085 -0.046099084 0)
(0.0030018175 -0.051805556 0)
(0.0089763336 -0.051301623 0)
(0.014863797 -0.050298907 0)
(0.020607178 -0.048807637 0)
(0.02615094 -0.046842965 0)
(0.031441592 -0.044424751 0)
(0.03642821 -0.041577286 0)
(0.041062914 -0.038328975 0)
(0.045301293 -0.034711976 0)
(0.049102778 -0.030761836 0)
(0.052430974 -0.026517115 0)
(0.055253951 -0.022019017 0)
(0.057544501 -0.01731104 0)
(0.05928039 -0.012438628 0)
(0.060444595 -0.0074488136 0)
(0.061025533 -0.0023898489 0)
(0.061017269 0.0026892252 0)
(0.060419686 0.0077390595 0)
(0.059238572 0.012710537 0)
(0.057485615 0.01755535 0)
(0.055178281 0.022226587 0)
(0.05233958 0.026679281 0)
(0.048997753 0.030870906 0)
(0.045185881 0.034761802 0)
(0.040941463 0.038315521 0)
(0.036305968 0.041499106 0)
(0.031324379 0.044283317 0)
(0.026044738 0.046642804 0)
(0.020517675 0.048556247 0)
(0.014795955 0.050006467 0)
(0.0089340005 0.050980509 0)
(0.0029874287 0.051469703 0)
(-0.0029874287 0.051469703 0)
(-0.0089340005 0.050980509 0)
(-0.014795955 0.050006467 0)
(-0.020517675 0.048556247 0)
(-0.026044738 0.046642804 0)
(-0.031324379 0.044283317 0)
(-0.036305968 0.041499106 0)
(-0.040941463 0.038315521 0)
(-0.045185881 0.034761802 0)
(-0.048997753 0.030870906 0)
(-0.05233958 0.026679281 0)
(-0.055178281 0.022226587 0)
(-0.057485615 0.01755535 0)
(-0.059238572 0.012710537 0)
(-0.060419686 0.0077390595 0)
(-0.061017269 0.0026892252 0)
(-0.061025533 -0.0023898489 0)
(-0.060444595 -0.0074488136 0)
(-0.05928039 -0.012438628 0)
(-0.057544501 -0.01731104 0)
(-0.055253951 -0.022019017 0)
(-0.052430974 -0.026517115 0)
(-0.049102778 -0.030761836 0)
(-0.045301293 -0.034711976 0)
(-0.041062914 -0.038328975 0)
(-0.03642821 -0.041577286 0)
(-0.031441592 -0.044424751 0)
(-0.02615094 -0.046842965 0)
(-0.020607178 -0.048807637 0)
(-0.014863797 -0.050298907 0)
(-0.0089763336 -0.051301623 0)
(-0.0030018175 -0.051805556 0)
(0.0033131624 -0.058078424 0)
(0.0099073847 -0.057513683 0)
(0.016405636 -0.056389985 0)
(0.022745049 -0.054718815 0)
(0.028864404 -0.05251718 0)
(0.034704745 -0.049807356 0)
(0.040209948 -0.046616572 0)
(0.045327244 -0.042976639 0)
(0.050007676 -0.038923534 0)
(0.054206504 -0.034496989 0)
(0.057883549 -0.029740061 0)
(0.061003495 -0.02469874 0)
(0.063536164 -0.01942157 0)
(0.065456788 -0.013959297 0)
(0.066746277 -0.0083645112 0)
(0.06739151 -0.0026912669 0)
(0.06738561 0.0030053766 0)
(0.06672818 0.008669898 0)
(0.065425448 0.014246951 0)
(0.063490286 0.019682064 0)
(0.060942065 0.024922349 0)
(0.057806375 0.029917165 0)
(0.054114631 0.0346187 0)
(0.049903605 0.038982442 0)
(0.045214923 0.042967562 0)
(0.040094548 0.046537204 0)
(0.034592268 0.049658708 0)
(0.028761188 0.052303786 0)
(0.022657226 0.054448665 0)
(0.016338612 0.056074194 0)
(0.0098653782 0.057165936 0)
(0.0032988539 0.057714228 0)
(-0.0032988539 0.057714228 0)
(-0.0098653782 0.057165936 0)
(-0.016338612 0.056074194 0)
(-0.022657226 0.054448665 0)
(-0.028761188 0.052303786 0)
(-0.034592268 0.049658708 0)
(-0.040094548 0.046537204 0)
(-0.045214923 0.042967562 0)
(-0.049903605 0.038982442 0)
(-0.054114631 0.0346187 0)
(-0.057806375 0.029917165 0)
(-0.060942065 0.024922349 0)
(-0.063490286 0.019682064 0)
(-0.065425448 0.014246951 0)
(-0.06672818 0.008669898 0)
(-0.06738561 0.0030053766 0)
(-0.06739151 -0.0026912669 0)
(-0.066746277 -0.0083645112 0)
(-0.065456788 -0.013959297 0)
(-0.063536164 -0.01942157 0)
(-0.061003495 -0.02469874 0)
(-0.057883549 -0.029740061 0)
(-0.054206504 -0.034496989 0)
(-0.050007676 -0.038923534 0)
(-0.045327244 -0.042976639 0)
(-0.040209948 -0.046616572 0)
(-0.034704745 -0.049807356 0)
(-0.028864404 -0.05251718 0)
(-0.022745049 -0.054718815 0)
(-0.016405636 -0.056389985 0)
(-0.0099073847 -0.057513683 0)
(-0.0033131624 -0.058078424 0)
(0.0036865369 -0.065027397 0)
(0.011023939 -0.064395378 0)
(0.018254698 -0.063137828 0)
(0.025308959 -0.061267624 0)
(0.032118703 -0.05880383 0)
(0.038618427 -0.055771402 0)
(0.044745784 -0.05220082 0)
(0.05044215 -0.048127655 0)
(0.055653132 -0.043592097 0)
(0.060328995 -0.03863847 0)
(0.064425027 -0.033314759 0)
(0.06790185 -0.027672172 0)
(0.070725704 -0.021764755 0)
(0.072868733 -0.015649039 0)
(0.074309305 -0.0093837087 0)
(0.07503237 -0.0030292263 0)
(0.07502983 0.0033526412 0)
(0.074300887 0.0096994361 0)
(0.072852267 0.015948772 0)
(0.070698272 0.022039199 0)
(0.067860612 0.027911081 0)
(0.064368045 0.033507408 0)
(0.060255875 0.038774472 0)
(0.05556537 0.043662401 0)
(0.050343156 0.048125555 0)
(0.044640616 0.052122815 0)
(0.038513313 0.055617797 0)
(0.032020424 0.058579022 0)