/*--------------------------------*- C++ -*----------------------------------*\
| =========                 |                                                 |
| \\      /  F ield         | OpenFOAM: The Open Source CFD Toolbox           |
|  \\    /   O peration     | Version:  2106                                  |
|   \\  /    A nd           | Website:  www.openfoam.com                      |
|    \\/     M anipulation  |                                                 |
\*---------------------------------------------------------------------------*/
FoamFile
{
    version     2.0;
    format      ascii;
    arch        "LSB;label=32;scalar=64";
    class       volVectorField;
    location    "0.015";
    object      U;
}
// * * * * * * * * * * * * * * * * * * * * * * * * * * * * * * * * * * * * * //

dimensions      [0 1 -1 0 0 0 0];

internalField   nonuniform List<vector> 
4096
(
(-0.013805575 0.013755222 0)
(-0.041286811 0.01362574 0)
(-0.068379419 0.013367885 0)
(-0.094828011 0.012983874 0)
(-0.12038275 0.012477029 0)
(-0.14480152 0.011851762 0)
(-0.16785215 0.011113561 0)
(-0.1893145 0.010268971 0)
(-0.20898258 0.0093255526 0)
(-0.22666652 0.0082918394 0)
(-0.2421945 0.0071772777 0)
(-0.25541449 0.0059921526 0)
(-0.26619581 0.004747496 0)
(-0.27443052 0.0034549453 0)
(-0.28003566 0.0021264994 0)
(-0.28294953 0.0007758502 0)
(-0.28314304 -0.0005853796 0)
(-0.28060643 -0.0019434541 0)
(-0.27535977 -0.0032852999 0)
(-0.26744867 -0.0045978408 0)
(-0.25694481 -0.0058682148 0)
(-0.24394533 -0.0070838915 0)
(-0.22857214 -0.0082327915 0)
(-0.21097077 -0.0093034085 0)
(-0.19130921 -0.010284929 0)
(-0.16977633 -0.011167352 0)
(-0.14658015 -0.011941607 0)
(-0.12194589 -0.012599668 0)
(-0.096113751 -0.013134655 0)
(-0.069336498 -0.013540941 0)
(-0.041876893 -0.013814223 0)
(-0.014004944 -0.013951596 0)
(0.014004944 -0.013951596 0)
(0.041876893 -0.013814223 0)
(0.069336498 -0.013540941 0)
(0.096113751 -0.013134655 0)
(0.12194589 -0.012599668 0)
(0.14658015 -0.011941607 0)
(0.16977633 -0.011167352 0)
(0.19130921 -0.010284929 0)
(0.21097077 -0.0093034085 0)
(0.22857214 -0.0082327915 0)
(0.24394533 -0.0070838915 0)
(0.25694481 -0.0058682148 0)
(0.26744867 -0.0045978408 0)
(0.27535977 -0.0032852999 0)
(0.28060643 -0.0019434541 0)
(0.28314304 -0.0005853796 0)
(0.28294953 0.0007758502 0)
(0.28003566 0.0021264994 0)
(0.27443052 0.0034549453 0)
(0.26619581 0.004747496 0)
(0.25541449 0.0059921526 0)
(0.2421945 0.0071772777 0)
(0.22666652 0.0082918394 0)
(0.20898258 0.0093255526 0)
(0.1893145 0.010268971 0)
(0.16785215 0.011113561 0)
(0.14480152 0.011851762 0)
(0.12038275 0.012477029 0)
(0.094828011 0.012983874 0)
(0.068379419 0.013367885 0)
(0.041286811 0.01362574 0)
(0.013805575 0.013755222 0)
(-0.013929285 0.041364302 0)
(-0.041656886 0.040975009 0)
(-0.068992693 0.040199755 0)
(-0.095679215 0.039045196 0)
(-0.12146451 0.037521298 0)
(-0.14610441 0.03564131 0)
(-0.16936468 0.033421719 0)
(-0.19102319 0.030882179 0)
(-0.21087204 0.028045408 0)
(-0.22871953 0.024937052 0)
(-0.24439214 0.021585506 0)
(-0.2577363 0.018021689 0)
(-0.26861998 0.014278781 0)
(-0.27693417 0.010391876 0)
(-0.28259436 0.0063975778 0)
(-0.28554049 0.0023344026 0)
(-0.28573952 -0.0017588266 0)
(-0.28318383 -0.0058430075 0)
(-0.27789299 -0.0098784703 0)
(-0.26991297 -0.013825863 0)
(-0.25931599 -0.017646497 0)
(-0.24619998 -0.021302684 0)
(-0.23068786 -0.024758094 0)
(-0.21292641 -0.027978117 0)
(-0.19308504 -0.030930227 0)
(-0.17135432 -0.033584333 0)
(-0.14794415 -0.035913143 0)
(-0.12308184 -0.037892495 0)
(-0.097009845 -0.03950169 0)
(-0.069983377 -0.040723776 0)
(-0.042267766 -0.041545803 0)
(-0.014135695 -0.041959022 0)
(0.014135695 -0.041959022 0)
(0.042267766 -0.041545803 0)
(0.069983377 -0.040723776 0)
(0.097009845 -0.03950169 0)
(0.12308184 -0.037892495 0)
(0.14794415 -0.035913143 0)
(0.17135432 -0.033584333 0)
(0.19308504 -0.030930227 0)
(0.21292641 -0.027978117 0)
(0.23068786 -0.024758094 0)
(0.24619998 -0.021302684 0)
(0.25931599 -0.017646497 0)
(0.26991297 -0.013825863 0)
(0.27789299 -0.0098784703 0)
(0.28318383 -0.0058430075 0)
(0.28573952 -0.0017588266 0)
(0.28554049 0.0023344026 0)
(0.28259436 0.0063975778 0)
(0.27693417 0.010391876 0)
(0.26861998 0.014278781 0)
(0.2577363 0.018021689 0)
(0.24439214 0.021585506 0)
(0.22871953 0.024937052 0)
(0.21087204 0.028045408 0)
(0.19102319 0.030882179 0)
(0.16936468 0.033421719 0)
(0.14610441 0.03564131 0)
(0.12146451 0.037521298 0)
(0.095679215 0.039045196 0)
(0.068992693 0.040199755 0)
(0.041656886 0.040975009 0)
(0.013929285 0.041364302 0)
(-0.01411405 0.06931056 0)
(-0.042209616 0.068658582 0)
(-0.069908694 0.06736018 0)
(-0.096950667 0.06542646 0)
(-0.12308048 0.062874052 0)
(-0.14805086 0.059725074 0)
(-0.17162453 0.056007064 0)
(-0.19357636 0.051752868 0)
(-0.21369555 0.047000477 0)
(-0.23178768 0.041792802 0)
(-0.24767666 0.036177376 0)
(-0.26120658 0.030205984 0)
(-0.27224339 0.023934216 0)
(-0.28067636 0.017420937 0)
(-0.28641947 0.010727731 0)
(-0.28941203 0.003918621 0)
(-0.28961984 -0.0029412208 0)
(-0.28703538 -0.0097858657 0)
(-0.28167827 -0.016548973 0)
(-0.27359497 -0.02316464 0)
(-0.26285857 -0.029568038 0)
(-0.24956822 -0.035696006 0)
(-0.23384833 -0.04148766 0)
(-0.21584755 -0.046884985 0)
(-0.19573749 -0.051833441 0)
(-0.17371118 -0.056282562 0)
(-0.14998134 -0.060186548 0)
(-0.12477838 -0.063504845 0)
(-0.098348148 -0.066202687 0)
(-0.070949472 -0.068251599 0)
(-0.042851522 -0.069629815 0)
(-0.014330966 -0.070322631 0)
(0.014330966 -0.070322631 0)
(0.042851522 -0.069629815 0)
(0.070949472 -0.068251599 0)
(0.098348148 -0.066202687 0)
(0.12477838 -0.063504845 0)
(0.14998134 -0.060186548 0)
(0.17371118 -0.056282562 0)
(0.19573749 -0.051833441 0)
(0.21584755 -0.046884985 0)
(0.23384833 -0.04148766 0)
(0.24956822 -0.035696006 0)
(0.26285857 -0.029568038 0)
(0.27359497 -0.02316464 0)
(0.28167827 -0.016548973 0)
(0.28703538 -0.0097858657 0)
(0.28961984 -0.0029412208 0)
(0.28941203 0.003918621 0)
(0.28641947 0.010727731 0)
(0.28067636 0.017420937 0)
(0.27224339 0.023934216 0)
(0.26120658 0.030205984 0)
(0.24767666 0.036177376 0)
(0.23178768 0.041792802 0)
(0.21369555 0.047000477 0)
(0.19357636 0.051752868 0)
(0.17162453 0.056007064 0)
(0.14805086 0.059725074 0)
(0.12308048 0.062874052 0)
(0.096950667 0.06542646 0)
(0.069908694 0.06736018 0)
(0.042209616 0.068658582 0)
(0.01411405 0.06931056 0)
(-0.014362529 0.097689386 0)
(-0.042952966 0.096771061 0)
(-0.071140652 0.094942194 0)
(-0.098660794 0.092218339 0)
(-0.12525416 0.088622808 0)
(-0.15066933 0.084186619 0)
(-0.17466489 0.078948419 0)
(-0.19701169 0.07295434 0)
(-0.21749502 0.066257785 0)
(-0.2359167 0.05891912 0)
(-0.25209716 0.051005265 0)
(-0.26587734 0.042589175 0)
(-0.27712039 0.033749208 0)
(-0.28571325 0.024568402 0)
(-0.29156796 0.015133678 0)
(-0.29462257 0.0055350824 0)
(-0.29484198 -0.0041353884 0)
(-0.29221845 -0.0137846 0)
(-0.28677175 -0.023319062 0)
(-0.27854908 -0.032645901 0)
(-0.26762472 -0.041673743 0)
(-0.25409947 -0.05031357 0)
(-0.2380998 -0.058479556 0)
(-0.21977688 -0.066089906 0)
(-0.19930522 -0.073067693 0)
(-0.17688122 -0.079341708 0)
(-0.15272136 -0.084847289 0)
(-0.1270602 -0.089527147 0)
(-0.10014812 -0.093332147 0)
(-0.072248834 -0.096222018 0)
(-0.043636649 -0.098165972 0)
(-0.014593598 -0.099143196 0)
(0.014593598 -0.099143196 0)
(0.043636649 -0.098165972 0)
(0.072248834 -0.096222018 0)
(0.10014812 -0.093332147 0)
(0.1270602 -0.089527147 0)
(0.15272136 -0.084847289 0)
(0.17688122 -0.079341708 0)
(0.19930522 -0.073067693 0)
(0.21977688 -0.066089906 0)
(0.2380998 -0.058479556 0)
(0.25409947 -0.05031357 0)
(0.26762472 -0.041673743 0)
(0.27854908 -0.032645901 0)
(0.28677175 -0.023319062 0)
(0.29221845 -0.0137846 0)
(0.29484198 -0.0041353884 0)
(0.29462257 0.0055350824 0)
(0.29156796 0.015133678 0)
(0.28571325 0.024568402 0)
(0.27712039 0.033749208 0)
(0.26587734 0.042589175 0)
(0.25209716 0.051005265 0)
(0.2359167 0.05891912 0)
(0.21749502 0.066257785 0)
(0.19701169 0.07295434 0)
(0.17466489 0.078948419 0)
(0.15066933 0.084186619 0)
(0.12525416 0.088622808 0)
(0.098660794 0.092218339 0)
(0.071140652 0.094942194 0)
(0.042952966 0.096771061 0)
(0.014362529 0.097689386 0)
(-0.014678185 0.12662776 0)
(-0.043897309 0.1254384 0)
(-0.072705797 0.12306967 0)
(-0.10083359 0.1195416 0)
(-0.12801617 0.11488416 0)
(-0.15399685 0.10913731 0)
(-0.17852899 0.10235086 0)
(-0.20137826 0.094584333 0)
(-0.22232492 0.085906719 0)
(-0.24116602 0.076396074 0)
(-0.25771747 0.066139024 0)
(-0.27181612 0.055230086 0)
(-0.28332153 0.043770859 0)
(-0.29211761 0.03186907 0)
(-0.29811398 0.019637516 0)
(-0.30124702 0.0071929436 0)
(-0.30148062 -0.0053452434 0)
(-0.2988067 -0.017856159 0)
(-0.29324539 -0.03021857 0)
(-0.28484485 -0.042312077 0)
(-0.27368093 -0.054018247 0)
(-0.25985656 -0.065221705 0)
(-0.24350089 -0.075811204 0)
(-0.22476829 -0.085680693 0)
(-0.20383698 -0.09473039 0)
(-0.18090761 -0.10286787 0)
(-0.15620141 -0.11000916 0)
(-0.12995821 -0.11607979 0)
(-0.10243413 -0.12101586 0)
(-0.073899031 -0.12476496 0)
(-0.044633759 -0.127287 0)
(-0.014927139 -0.12855485 0)
(0.014927139 -0.12855485 0)
(0.044633759 -0.127287 0)
(0.073899031 -0.12476496 0)
(0.10243413 -0.12101586 0)
(0.12995821 -0.11607979 0)
(0.15620141 -0.11000916 0)
(0.18090761 -0.10286787 0)
(0.20383698 -0.09473039 0)
(0.22476829 -0.085680693 0)
(0.24350089 -0.075811204 0)
(0.25985656 -0.065221705 0)
(0.27368093 -0.054018247 0)
(0.28484485 -0.042312077 0)
(0.29324539 -0.03021857 0)
(0.2988067 -0.017856159 0)
(0.30148062 -0.0053452434 0)
(0.30124702 0.0071929436 0)
(0.29811398 0.019637516 0)
(0.29211761 0.03186907 0)
(0.28332153 0.043770859 0)
(0.27181612 0.055230086 0)
(0.25771747 0.066139024 0)
(0.24116602 0.076396074 0)
(0.22232492 0.085906719 0)
(0.20137826 0.094584333 0)
(0.17852899 0.10235086 0)
(0.15399685 0.10913731 0)
(0.12801617 0.11488416 0)
(0.10083359 0.1195416 0)
(0.072705797 0.12306967 0)
(0.043897309 0.1254384 0)
(0.014678185 0.12662776 0)
(-0.015065733 0.15626486 0)
(-0.045056761 0.15479865 0)
(-0.074627573 0.15187845 0)
(-0.10350169 0.1475287 0)
(-0.13140817 0.14178606 0)
(-0.15808384 0.13469943 0)
(-0.18327562 0.12632983 0)
(-0.2067428 0.11675029 0)
(-0.2282594 0.10604557 0)
(-0.24761648 0.094311711 0)
(-0.26462434 0.08165543 0)
(-0.2791147 0.068193313 0)
(-0.29094261 0.054050796 0)
(-0.29998822 0.039360972 0)
(-0.30615819 0.024263245 0)
(-0.3093868 0.0089018831 0)
(-0.30963678 -0.0065755396 0)
(-0.30689975 -0.022019648 0)
(-0.30119634 -0.037280733 0)
(-0.29257603 -0.052210185 0)
(-0.28111668 -0.066661876 0)
(-0.26692394 -0.08049347 0)
(-0.2501303 -0.093567717 0)
(-0.23089407 -0.10575374 0)
(-0.20939806 -0.11692833 0)
(-0.1858481 -0.12697727 0)
(-0.16047125 -0.13579672 0)
(-0.13351373 -0.1432945 0)
(-0.10523868 -0.14939143 0)
(-0.075923502 -0.15402251 0)
(-0.045856999 -0.15713801 0)
(-0.01533632 -0.15870425 0)
(0.01533632 -0.15870425 0)
(0.045856999 -0.15713801 0)
(0.075923502 -0.15402251 0)
(0.10523868 -0.14939143 0)
(0.13351373 -0.1432945 0)
(0.16047125 -0.13579672 0)
(0.1858481 -0.12697727 0)
(0.20939806 -0.11692833 0)
(0.23089407 -0.10575374 0)
(0.2501303 -0.093567717 0)
(0.26692394 -0.08049347 0)
(0.28111668 -0.066661876 0)
(0.29257603 -0.052210185 0)
(0.30119634 -0.037280733 0)
(0.30689975 -0.022019648 0)
(0.30963678 -0.0065755396 0)
(0.3093868 0.0089018831 0)
(0.30615819 0.024263245 0)
(0.29998822 0.039360972 0)
(0.29094261 0.054050796 0)
(0.2791147 0.068193313 0)
(0.26462434 0.08165543 0)
(0.24761648 0.094311711 0)
(0.2282594 0.10604557 0)
(0.2067428 0.11675029 0)
(0.18327562 0.12632983 0)
(0.15808384 0.13469943 0)
(0.13140817 0.14178606 0)
(0.10350169 0.1475287 0)
(0.074627573 0.15187845 0)
(0.045056761 0.15479865 0)
(0.015065733 0.15626486 0)
(-0.015531922 0.18675002 0)
(-0.04645154 0.18500001 0)
(-0.076939555 0.18151438 0)
(-0.10671185 0.17632197 0)
(-0.13548977 0.1694661 0)
(-0.1630024 0.16100456 0)
(-0.18898886 0.15100963 0)
(-0.2132007 0.13956796 0)
(-0.23540436 0.12678027 0)
(-0.25538354 0.11276092 0)
(-0.27294165 0.097637187 0)
(-0.28790409 0.081548342 0)
(-0.30012038 0.06464441 0)
(-0.30946604 0.047084714 0)
(-0.31584413 0.029036215 0)
(-0.31918648 0.010671701 0)
(-0.31945448 -0.0078320947 0)
(-0.3166395 -0.026296368 0)
(-0.31076297 -0.044542037 0)
(-0.30187609 -0.062391461 0)
(-0.29005936 -0.079670051 0)
(-0.27542178 -0.096207809 0)
(-0.25809996 -0.11184081 0)
(-0.23825701 -0.12641268 0)
(-0.21608127 -0.13977613 0)
(-0.19178478 -0.15179449 0)
(-0.16560153 -0.16234337 0)
(-0.13778543 -0.17131222 0)
(-0.10860797 -0.17860599 0)
(-0.078355527 -0.18414656 0)
(-0.047326458 -0.18787411 0)
(-0.015827856 -0.18974811 0)
(0.015827856 -0.18974811 0)
(0.047326458 -0.18787411 0)
(0.078355527 -0.18414656 0)
(0.10860797 -0.17860599 0)
(0.13778543 -0.17131222 0)
(0.16560153 -0.16234337 0)
(0.19178478 -0.15179449 0)
(0.21608127 -0.13977613 0)
(0.23825701 -0.12641268 0)
(0.25809996 -0.11184081 0)
(0.27542178 -0.096207809 0)
(0.29005936 -0.079670051 0)
(0.30187609 -0.06239146 0)
(0.31076297 -0.044542037 0)
(0.3166395 -0.026296368 0)
(0.31945448 -0.0078320947 0)
(0.31918648 0.010671701 0)
(0.31584413 0.029036215 0)
(0.30946604 0.047084714 0)
(0.30012038 0.06464441 0)
(0.28790409 0.081548342 0)
(0.27294165 0.097637187 0)
(0.25538354 0.11276092 0)
(0.23540436 0.12678027 0)
(0.2132007 0.13956796 0)
(0.18898886 0.15100963 0)
(0.1630024 0.16100456 0)
(0.13548977 0.1694661 0)
(0.10671185 0.17632197 0)
(0.076939555 0.18151438 0)
(0.04645154 0.18500001 0)
(0.015531922 0.18675002 0)
(-0.016086663 0.21824819 0)
(-0.048111314 0.21620616 0)
(-0.079690998 0.21213864 0)
(-0.1105326 0.20607879 0)
(-0.14034838 0.19807649 0)
(-0.16885818 0.1881984 0)
(-0.19579185 0.17652803 0)
(-0.22089164 0.1631657 0)
(-0.24391478 0.14822834 0)
(-0.26463609 0.13184896 0)
(-0.28285055 0.11417597 0)
(-0.29837585 0.095372074 0)
(-0.31105472 0.075612811 0)
(-0.32075707 0.055084829 0)
(-0.32738166 0.033983843 0)
(-0.33085741 0.012512425 0)
(-0.33114425 -0.0091222974 0)
(-0.32823345 -0.030710907 0)
(-0.32214764 -0.052043861 0)
(-0.31294035 -0.072913502 0)
(-0.30069539 -0.093115905 0)
(-0.28552599 -0.1124526 0)
(-0.26757378 -0.13073224 0)
(-0.24700767 -0.14777221 0)
(-0.22402257 -0.16340038 0)
(-0.19883789 -0.17745688 0)
(-0.17169582 -0.18979598 0)
(-0.14285929 -0.20028801 0)
(-0.11260965 -0.20882132 0)
(-0.081243879 -0.21530405 0)
(-0.049071577 -0.21966572 0)
(-0.016411591 -0.22185862 0)
(0.016411591 -0.22185862 0)
(0.049071577 -0.21966572 0)
(0.081243879 -0.21530405 0)
(0.11260965 -0.20882132 0)
(0.14285929 -0.20028801 0)
(0.17169582 -0.18979598 0)
(0.19883789 -0.17745688 0)
(0.22402257 -0.16340038 0)
(0.24700767 -0.14777221 0)
(0.26757378 -0.13073224 0)
(0.28552599 -0.1124526 0)
(0.30069539 -0.093115905 0)
(0.31294035 -0.072913502 0)
(0.32214764 -0.052043861 0)
(0.32823345 -0.030710907 0)
(0.33114425 -0.0091222974 0)
(0.33085741 0.012512425 0)
(0.32738166 0.033983843 0)
(0.32075707 0.055084829 0)
(0.31105472 0.075612811 0)
(0.29837585 0.095372074 0)
(0.28285055 0.11417597 0)
(0.26463609 0.13184896 0)
(0.24391478 0.14822834 0)
(0.22089164 0.1631657 0)
(0.19579185 0.17652803 0)
(0.16885818 0.1881984 0)
(0.14034838 0.19807649 0)
(0.1105326 0.20607879 0)
(0.079690998 0.21213864 0)
(0.048111314 0.21620616 0)
(0.016086663 0.21824819 0)
(-0.016744406 0.25094791 0)
(-0.050079354 0.24860425 0)
(-0.082953719 0.24393557 0)
(-0.11506385 0.23697926 0)
(-0.1461113 0.22779158 0)
(-0.17580503 0.21644793 0)
(-0.20386382 0.203043 0)
(-0.23001878 0.18769082 0)
(-0.25401607 0.17052467 0)
(-0.2756197 0.15169665 0)
(-0.29461438 0.13137694 0)
(-0.31080837 0.10975255 0)
(-0.32403616 0.087025723 0)
(-0.33416079 0.063411787 0)
(-0.34107586 0.039136737 0)
(-0.34470692 0.014434515 0)
(-0.34501234 -0.010455787 0)
(-0.34198357 -0.035292673 0)
(-0.33564499 -0.059834814 0)
(-0.32605324 -0.083843373 0)
(-0.31329642 -0.10708408 0)
(-0.29749302 -0.12932911 0)
(-0.27879083 -0.15035884 0)
(-0.25736573 -0.16996364 0)
(-0.23342044 -0.18794571 0)
(-0.20718305 -0.2041211 0)
(-0.17890539 -0.21832187 0)
(-0.14886096 -0.23039835 0)
(-0.11734264 -0.24022142 0)
(-0.084659851 -0.24768469 0)
(-0.051135393 -0.25270648 0)
(-0.017101914 -0.25523138 0)
(0.017101914 -0.25523138 0)
(0.051135393 -0.25270648 0)
(0.084659851 -0.24768469 0)
(0.11734264 -0.24022142 0)
(0.14886096 -0.23039835 0)
(0.17890539 -0.21832187 0)
(0.20718305 -0.2041211 0)
(0.23342044 -0.18794571 0)
(0.25736573 -0.16996364 0)
(0.27879083 -0.15035884 0)
(0.29749302 -0.12932911 0)
(0.31329642 -0.10708408 0)
(0.32605324 -0.083843373 0)
(0.33564499 -0.059834814 0)
(0.34198357 -0.035292673 0)
(0.34501234 -0.010455787 0)
(0.34470692 0.014434515 0)
(0.34107586 0.039136737 0)
(0.33416079 0.063411787 0)
(0.32403616 0.087025723 0)
(0.31080837 0.10975255 0)
(0.29461438 0.13137694 0)
(0.2756197 0.15169665 0)
(0.25401607 0.17052467 0)
(0.23001878 0.18769082 0)
(0.20386382 0.203043 0)
(0.17580503 0.21644793 0)
(0.1461113 0.22779158 0)
(0.11506385 0.23697926 0)
(0.082953719 0.24393557 0)
(0.050079354 0.24860425 0)
(0.016744406 0.25094791 0)
(-0.017525694 0.28507188 0)
(-0.05241715 0.28241539 0)
(-0.086829761 0.27712306 0)
(-0.12044752 0.26923629 0)
(-0.15295936 0.25881758 0)
(-0.18406136 0.24595082 0)
(-0.21345911 0.23074168 0)
(-0.24087036 0.21331788 0)
(-0.26602788 0.19382919 0)
(-0.28868253 0.17244723 0)
(-0.30860646 0.14936465 0)
(-0.32559636 0.1247939 0)
(-0.33947657 0.098965325 0)
(-0.35010178 0.072124689 0)
(-0.35735938 0.044530195 0)
(-0.36117097 0.016449178 0)
(-0.36149332 -0.011845319 0)
(-0.3583185 -0.040077886 0)
(-0.35167342 -0.067973791 0)
(-0.34161892 -0.09526165 0)
(-0.32824863 -0.12167571 0)
(-0.31168767 -0.1469578 0)
(-0.29209136 -0.17085917 0)
(-0.26964401 -0.19314229 0)
(-0.24455762 -0.21358281 0)
(-0.21707055 -0.23197175 0)
(-0.1874459 -0.24811796 0)
(-0.15596959 -0.26185072 0)
(-0.122948 -0.27302245 0)
(-0.088705139 -0.28151136 0)
(-0.053579301 -0.28722376 0)
(-0.017919355 -0.29009605 0)
(0.017919355 -0.29009605 0)
(0.053579301 -0.28722376 0)
(0.088705139 -0.28151136 0)
(0.122948 -0.27302245 0)
(0.15596959 -0.26185072 0)
(0.1874459 -0.24811796 0)
(0.21707055 -0.23197175 0)
(0.24455762 -0.21358281 0)
(0.26964401 -0.19314229 0)
(0.29209136 -0.17085917 0)
(0.31168767 -0.1469578 0)
(0.32824863 -0.12167571 0)
(0.34161892 -0.09526165 0)
(0.35167342 -0.067973791 0)
(0.3583185 -0.040077886 0)
(0.36149332 -0.011845319 0)
(0.36117097 0.016449178 0)
(0.35735938 0.044530195 0)
(0.35010178 0.072124689 0)
(0.33947657 0.098965325 0)
(0.32559636 0.1247939 0)
(0.30860646 0.14936465 0)
(0.28868253 0.17244723 0)
(0.26602788 0.19382919 0)
(0.24087036 0.21331788 0)
(0.21345911 0.23074168 0)
(0.18406136 0.24595082 0)
(0.15295936 0.25881758 0)
(0.12044752 0.26923629 0)
(0.086829761 0.27712306 0)
(0.05241715 0.28241539 0)
(0.017525694 0.28507188 0)
(-0.01845871 0.32089071 0)
(-0.055209063 0.31790827 0)
(-0.091459091 0.31196589 0)
(-0.12687821 0.30310879 0)
(-0.16114044 0.29140534 0)
(-0.19392651 0.27694759 0)
(-0.22492622 0.25985191 0)
(-0.25384123 0.24025951 0)
(-0.28038803 0.21833677 0)
(-0.30430139 0.19427519 0)
(-0.32533803 0.16829078 0)
(-0.34328034 0.14062272 0)
(-0.35794008 0.11153126 0)
(-0.36916169 0.081294788 0)
(-0.37682498 0.050206189 0)
(-0.380847 0.018568804 0)
(-0.38118291 -0.013307843 0)
(-0.37782602 -0.045112113 0)
(-0.37080689 -0.076533891 0)
(-0.36019202 -0.10726763 0)
(-0.34608222 -0.1370148 0)
(-0.32861098 -0.16548587 0)
(-0.30794295 -0.19240204 0)
(-0.2842726 -0.21749698 0)
(-0.25782306 -0.24051885 0)
(-0.2288448 -0.26123259 0)
(-0.19761424 -0.27942269 0)
(-0.16443188 -0.29489619 0)
(-0.12962003 -0.30748589 0)
(-0.093519834 -0.31705348 0)
(-0.056487889 -0.32349239 0)
(-0.018892198 -0.32673019 0)
(0.018892198 -0.32673019 0)
(0.056487889 -0.32349239 0)
(0.093519834 -0.31705348 0)
(0.12962003 -0.30748589 0)
(0.16443188 -0.29489619 0)
(0.19761424 -0.27942269 0)
(0.2288448 -0.26123259 0)
(0.25782306 -0.24051885 0)
(0.2842726 -0.21749698 0)
(0.30794295 -0.19240204 0)
(0.32861098 -0.16548587 0)
(0.34608222 -0.1370148 0)
(0.36019202 -0.10726763 0)
(0.37080689 -0.076533891 0)
(0.37782602 -0.045112113 0)
(0.38118291 -0.013307843 0)
(0.380847 0.018568804 0)
(0.37682498 0.050206189 0)
(0.36916169 0.081294788 0)
(0.35794008 0.11153126 0)
(0.34328034 0.14062272 0)
(0.32533803 0.16829078 0)
(0.30430139 0.19427519 0)
(0.28038803 0.21833677 0)
(0.25384123 0.24025951 0)
(0.22492622 0.25985191 0)
(0.19392651 0.27694759 0)
(0.16114044 0.29140534 0)
(0.12687821 0.30310879 0)
(0.091459091 0.31196589 0)
(0.055209063 0.31790827 0)
(0.01845871 0.32089071 0)
(-0.019580615 0.35873966 0)
(-0.05856632 0.35541577 0)
(-0.09702623 0.34879219 0)
(-0.13461245 0.33891761 0)
(-0.1709812 0.32586582 0)
(-0.20579485 0.30973653 0)
(-0.23872422 0.29065633 0)
(-0.26945141 0.2687796 0)
(-0.29767307 0.24428929 0)
(-0.32310419 0.2173972 0)
(-0.34548235 0.1883436 0)
(-0.36457215 0.15739602 0)
(-0.3801697 0.12484683 0)
(-0.39210669 0.091009834 0)
(-0.40025368 0.056215841 0)
(-0.40452233 0.020807545 0)
(-0.40486632 -0.014865776 0)
(-0.40128107 -0.050453321 0)
(-0.39380235 -0.085607147 0)
(-0.38250425 -0.11998564 0)
(-0.36749697 -0.15325606 0)
(-0.34892457 -0.18509643 0)
(-0.32696326 -0.21519696 0)
(-0.30181991 -0.24326167 0)
(-0.27373095 -0.26901021 0)
(-0.24296132 -0.29218027 0)
(-0.20980319 -0.31253069 0)
(-0.17457435 -0.32984485 0)
(-0.13761591 -0.34393452 0)
(-0.09928942 -0.3546436 0)
(-0.059973159 -0.36185156 0)
(-0.020057898 -0.36547632 0)
(0.020057898 -0.36547632 0)
(0.059973159 -0.36185156 0)
(0.09928942 -0.3546436 0)
(0.13761591 -0.34393452 0)
(0.17457435 -0.32984485 0)
(0.20980319 -0.31253069 0)
(0.24296132 -0.29218027 0)
(0.27373095 -0.26901021 0)
(0.30181991 -0.24326167 0)
(0.32696326 -0.21519696 0)
(0.34892457 -0.18509643 0)
(0.36749697 -0.15325606 0)
(0.38250425 -0.11998564 0)
(0.39380235 -0.085607147 0)
(0.40128107 -0.050453321 0)
(0.40486632 -0.014865776 0)
(0.40452233 0.020807545 0)
(0.40025368 0.056215841 0)
(0.39210669 0.091009834 0)
(0.3801697 0.12484683 0)
(0.36457215 0.15739602 0)
(0.34548235 0.1883436 0)
(0.32310419 0.2173972 0)
(0.29767307 0.24428929 0)
(0.26945141 0.2687796 0)
(0.23872422 0.29065633 0)
(0.20579485 0.30973653 0)
(0.1709812 0.32586582 0)
(0.13461245 0.33891761 0)
(0.09702623 0.34879219 0)
(0.05856632 0.35541577 0)
(0.019580615 0.35873966 0)
(-0.020938366 0.39903772 0)
(-0.062629463 0.39535395 0)
(-0.1037643 0.38801206 0)
(-0.14397424 0.37706378 0)
(-0.18289418 0.36258773 0)
(-0.22016436 0.34469057 0)
(-0.25543263 0.32350841 0)
(-0.28835733 0.29920829 0)
(-0.31861075 0.27198949 0)
(-0.34588347 0.24208444 0)
(-0.36988924 0.20975875 0)
(-0.39037045 0.17531017 0)
(-0.40710357 0.139066 0)
(-0.41990433 0.10137907 0)
(-0.42863188 0.062622253 0)
(-0.43319148 0.023181993 0)
(-0.43353554 -0.016548437 0)
(-0.42966286 -0.056175329 0)
(-0.42161647 -0.095309879 0)
(-0.40948067 -0.13357215 0)
(-0.3933778 -0.17059362 0)
(-0.37346541 -0.20601875 0)
(-0.34993403 -0.23950594 0)
(-0.32300565 -0.27072863 0)
(-0.29293272 -0.29937691 0)
(-0.25999743 -0.32515997 0)
(-0.22451075 -0.34780943 0)
(-0.18681103 -0.36708337 0)
(-0.1472619 -0.38277084 0)
(-0.10624921 -0.39469636 0)
(-0.064177222 -0.40272412 0)
(-0.021463979 -0.40676148 0)
(0.021463979 -0.40676148 0)
(0.064177222 -0.40272412 0)
(0.10624921 -0.39469636 0)
(0.1472619 -0.38277084 0)
(0.18681103 -0.36708337 0)
(0.22451075 -0.34780943 0)
(0.25999743 -0.32515997 0)
(0.29293272 -0.29937691 0)
(0.32300565 -0.27072863 0)
(0.34993403 -0.23950594 0)
(0.37346541 -0.20601875 0)
(0.3933778 -0.17059362 0)
(0.40948067 -0.13357215 0)
(0.42161647 -0.095309879 0)
(0.42966286 -0.056175329 0)
(0.43353554 -0.016548437 0)
(0.43319148 0.023181993 0)
(0.42863188 0.062622253 0)
(0.41990433 0.10137907 0)
(0.40710357 0.139066 0)
(0.39037045 0.17531017 0)
(0.36988924 0.20975875 0)
(0.34588347 0.24208444 0)
(0.31861075 0.27198949 0)
(0.28835733 0.29920829 0)
(0.25543263 0.32350841 0)
(0.22016436 0.34469057 0)
(0.18289418 0.36258773 0)
(0.14397424 0.37706378 0)
(0.1037643 0.38801206 0)
(0.062629463 0.39535395 0)
(0.020938366 0.39903772 0)
(-0.022588618 0.44230766 0)
(-0.067568034 0.43824186 0)
(-0.11195448 0.4301371 0)
(-0.15535433 0.41804758 0)
(-0.19737676 0.40205598 0)
(-0.23763528 0.38227498 0)
(-0.2757499 0.35884926 0)
(-0.31134997 0.33195766 0)
(-0.34407793 0.30181538 0)
(-0.37359417 0.26867567 0)
(-0.39958281 0.23283062 0)
(-0.42175832 0.19461047 0)
(-0.43987252 0.15438095 0)
(-0.45372105 0.11253852 0)
(-0.46314887 0.069503518 0)
(-0.46805364 0.025711901 0)
(-0.46838682 -0.018393551 0)
(-0.46415232 -0.062371421 0)
(-0.4554032 -0.10578828 0)
(-0.44223728 -0.1482232 0)
(-0.42479271 -0.1892702 0)
(-0.40324404 -0.22853912 0)
(-0.37779952 -0.26565575 0)
(-0.34869954 -0.30026214 0)
(-0.31621587 -0.33201774 0)
(-0.28065134 -0.36060175 0)
(-0.2423394 -0.38571677 0)
(-0.20164306 -0.40709357 0)
(-0.15895292 -0.42449639 0)
(-0.1146841 -0.43772844 0)
(-0.069272158 -0.44663704 0)
(-0.023167992 -0.45111783 0)
(0.023167992 -0.45111783 0)
(0.069272158 -0.44663704 0)
(0.1146841 -0.43772844 0)
(0.15895292 -0.42449639 0)
(0.20164306 -0.40709357 0)
(0.2423394 -0.38571677 0)
(0.28065134 -0.36060175 0)
(0.31621587 -0.33201774 0)
(0.34869954 -0.30026214 0)
(0.37779952 -0.26565575 0)
(0.40324404 -0.22853912 0)
(0.42479271 -0.1892702 0)
(0.44223728 -0.1482232 0)
(0.4554032 -0.10578828 0)
(0.46415232 -0.062371421 0)
(0.46838682 -0.018393551 0)
(0.46805364 0.025711901 0)
(0.46314887 0.069503518 0)
(0.45372105 0.11253852 0)
(0.43987252 0.15438095 0)
(0.42175832 0.19461047 0)
(0.39958281 0.23283062 0)
(0.37359417 0.26867567 0)
(0.34407793 0.30181538 0)
(0.31134997 0.33195766 0)
(0.2757499 0.35884926 0)
(0.23763528 0.38227498 0)
(0.19737676 0.40205598 0)
(0.15535433 0.41804758 0)
(0.11195448 0.4301371 0)
(0.067568034 0.43824186 0)
(0.022588618 0.44230766 0)
(-0.024596204 0.4891947 0)
(-0.073576036 0.48472011 0)
(-0.12191846 0.47579862 0)
(-0.16919964 0.46248626 0)
(-0.21499765 0.4448688 0)
(-0.25889371 0.42306377 0)
(-0.30047411 0.39722309 0)
(-0.33933297 0.36753628 0)
(-0.37507624 0.33423364 0)
(-0.4073271 0.29758929 0)
(-0.43573285 0.25792295 0)
(-0.4599731 0.21560002 0)
(-0.47976859 0.17102902 0)
(-0.49488973 0.12465589 0)
(-0.50516378 0.076955504 0)
(-0.51047928 0.028420818 0)
(-0.51078729 -0.020448686 0)
(-0.50609912 -0.069157721 0)
(-0.49648144 -0.11722356 0)
(-0.48204994 -0.1641812 0)
(-0.46296298 -0.20958543 0)
(-0.43941647 -0.25301056 0)
(-0.41164045 -0.29404917 0)
(-0.37989755 -0.33231119 0)
(-0.34448268 -0.36742423 0)
(-0.30572339 -0.39903579 0)
(-0.26398005 -0.4268173 0)
(-0.21964525 -0.45046969 0)
(-0.1731421 -0.46972985 0)
(-0.12492105 -0.48437733 0)
(-0.075455464 -0.49424055 0)
(-0.025235992 -0.49920202 0)
(0.025235992 -0.49920202 0)
(0.075455464 -0.49424055 0)
(0.12492105 -0.48437733 0)
(0.1731421 -0.46972985 0)
(0.21964525 -0.45046969 0)
(0.26398005 -0.4268173 0)
(0.30572339 -0.39903579 0)
(0.34448268 -0.36742423 0)
(0.37989755 -0.33231119 0)
(0.41164045 -0.29404917 0)
(0.43941647 -0.25301056 0)
(0.46296298 -0.20958543 0)
(0.48204994 -0.1641812 0)
(0.49648144 -0.11722356 0)
(0.50609912 -0.069157721 0)
(0.51078729 -0.020448686 0)
(0.51047928 0.028420818 0)
(0.50516378 0.076955504 0)
(0.49488973 0.12465589 0)
(0.47976859 0.17102902 0)
(0.4599731 0.21560002 0)
(0.43573285 0.25792295 0)
(0.4073271 0.29758929 0)
(0.37507624 0.33423364 0)
(0.33933297 0.36753628 0)
(0.30047411 0.39722309 0)
(0.25889371 0.42306377 0)
(0.21499765 0.4448688 0)
(0.16919964 0.46248626 0)
(0.12191846 0.47579862 0)
(0.073576036 0.48472011 0)
(0.024596204 0.4891947 0)
(-0.027030627 0.54048043 0)
(-0.080861414 0.53556461 0)
(-0.13400093 0.52576113 0)
(-0.18598882 0.51112711 0)
(-0.23636562 0.49175029 0)
(-0.28467369 0.46775158 0)
(-0.3304587 0.43928856 0)
(-0.37327226 0.40655976 0)
(-0.41267602 0.36980944 0)
(-0.44824769 0.32933223 0)
(-0.47958921 0.28547665 0)
(-0.50633683 0.23864635 0)
(-0.52817242 0.18929791 0)
(-0.54483475 0.13793426 0)
(-0.556129 0.085093867 0)
(-0.56193281 0.031336477 0)
(-0.5621976 -0.022772388 0)
(-0.55694514 -0.076675715 0)
(-0.54626031 -0.12983573 0)
(-0.53028195 -0.18173984 0)
(-0.5091941 -0.23190184 0)
(-0.48321905 -0.27985989 0)
(-0.45261331 -0.32517306 0)
(-0.41766612 -0.36741852 0)
(-0.3786999 -0.40619077 0)
(-0.33607159 -0.44110356 0)
(-0.2901737 -0.4717944 0)
(-0.24143434 -0.4979313 0)
(-0.19031574 -0.51922064 0)
(-0.13731099 -0.53541534 0)
(-0.082939147 -0.54632252 0)
(-0.027738889 -0.55180978 0)
(0.027738889 -0.55180978 0)
(0.082939147 -0.54632252 0)
(0.13731099 -0.53541534 0)
(0.19031574 -0.51922064 0)
(0.24143434 -0.4979313 0)
(0.2901737 -0.4717944 0)
(0.33607159 -0.44110356 0)
(0.3786999 -0.40619077 0)
(0.41766612 -0.36741852 0)
(0.45261331 -0.32517306 0)
(0.48321905 -0.27985989 0)
(0.5091941 -0.23190184 0)
(0.53028195 -0.18173984 0)
(0.54626031 -0.12983573 0)
(0.55694514 -0.076675714 0)
(0.5621976 -0.022772388 0)
(0.56193281 0.031336477 0)
(0.556129 0.085093867 0)
(0.54483475 0.13793426 0)
(0.52817242 0.18929791 0)
(0.50633683 0.23864635 0)
(0.47958921 0.28547665 0)
(0.44824769 0.32933223 0)
(0.41267602 0.36980944 0)
(0.37327226 0.40655976 0)
(0.3304587 0.43928856 0)
(0.28467369 0.46775158 0)
(0.23636562 0.49175029 0)
(0.18598882 0.51112711 0)
(0.13400093 0.52576113 0)
(0.080861414 0.53556461 0)
(0.027030627 0.54048043 0)
(-0.029959942 0.59708753 0)
(-0.089627717 0.59169116 0)
(-0.14853912 0.58092667 0)
(-0.20618976 0.56485148 0)
(-0.26207521 0.54355406 0)
(-0.31569134 0.51715708 0)
(-0.36653541 0.48582175 0)
(-0.41410831 0.44975356 0)
(-0.45791862 0.40920897 0)
(-0.49748925 0.36450238 0)
(-0.5323669 0.31601205 0)
(-0.56213457 0.26418334 0)
(-0.58642597 0.20952726 0)
(-0.60494048 0.15261308 0)
(-0.61745596 0.094054499 0)
(-0.62383698 0.034490692 0)
(-0.62403648 -0.025434734 0)
(-0.6180906 -0.085093089 0)
(-0.6061081 -0.14388459 0)
(-0.58825747 -0.20124512 0)
(-0.56475465 -0.25664602 0)
(-0.53585406 -0.30958912 0)
(-0.50184369 -0.35960007 0)
(-0.46304409 -0.40622285 0)
(-0.41981 -0.44901734 0)
(-0.37253297 -0.48756096 0)
(-0.32164366 -0.52145391 0)
(-0.26761256 -0.55032739 0)
(-0.21094882 -0.57385327 0)
(-0.15219676 -0.59175427 0)
(-0.091930341 -0.6038132 0)
(-0.030745968 -0.60988071 0)
(0.030745968 -0.60988071 0)
(0.091930341 -0.6038132 0)