/*--------------------------------*- C++ -*----------------------------------*\
| =========                 |                                                 |
| \\      /  F ield         | OpenFOAM: The Open Source CFD Toolbox           |
|  \\    /   O peration     | Version:  2106                                  |
|   \\  /    A nd           | Website:  www.openfoam.com                      |
|    \\/     M anipulation  |                                                 |
\*---------------------------------------------------------------------------*/
FoamFile
{
    version     2.0;
    format      ascii;
    arch        "LSB;label=32;scalar=64";
    class       volVectorField;
    location    "0.05";
    object      U;
}
// * * * * * * * * * * * * * * * * * * * * * * * * * * * * * * * * * * * * * //

dimensions      [0 1 -1 0 0 0 0];

internalField   nonuniform List<vector> 
1024
(
(-0.0020190708 0.0019811713 0)
(-0.0059725154 0.0019047571 0)
(-0.0096958067 0.0017549718 0)
(-0.013045561 0.0015376318 0)
(-0.015892892 0.0012611657 0)
(-0.018128382 0.00093627732 0)
(-0.019666343 0.00057551337 0)
(-0.020447849 0.00019284625 0)
(-0.02044346 -0.00019705528 0)
(-0.019653635 -0.00057918128 0)
(-0.018109151 -0.00093888246 0)
(-0.015869649 -0.001262392 0)
(-0.013021347 -0.0015373499 0)
(-0.0096737032 -0.0017532677 0)
(-0.0059552053 -0.0019019202 0)
(-0.0020084593 -0.001977651 0)
(0.0020152497 -0.0019775814 0)
(0.0059617148 -0.0019017161 0)
(0.0096796696 -0.0017529419 0)
(0.013026542 -0.0015369211 0)
(0.015873885 -0.0012618819 0)
(0.018112287 -0.00093831317 0)
(0.019655575 -0.00057857315 0)
(0.020444145 -0.00019642678 0)
(0.020447256 0.00019347778 0)
(0.019664482 0.00057613028 0)
(0.018125301 0.00093685987 0)
(0.01588868 0.0012616916 0)
(0.013040357 0.0015380767 0)
(0.0096897986 0.0017553116 0)
(0.0059659391 0.0019049706 0)
(0.0020121997 0.0019812443 0)
(-0.0021008263 0.0060085904 0)
(-0.0062142674 0.0057768272 0)
(-0.010088213 0.0053225351 0)
(-0.013573468 0.0046633569 0)
(-0.016535932 0.0038248602 0)
(-0.018861773 0.0028395168 0)
(-0.020461817 0.0017454093 0)
(-0.021274886 0.00058477782 0)
(-0.021270192 -0.0005976944 0)
(-0.020448344 -0.0017565965 0)
(-0.01884134 -0.0028474854 0)
(-0.016511239 -0.0038286098 0)
(-0.013547747 -0.0046624863 0)
(-0.010064744 -0.0053173069 0)
(-0.0061959115 -0.0057681282 0)
(-0.002089617 -0.0059977971 0)
(0.002096744 -0.0059975843 0)
(0.0062027375 -0.0057675044 0)
(0.01007099 -0.0053163125 0)
(0.013553173 -0.00466118 0)
(0.016515655 -0.0038270591 0)
(0.018844603 -0.0028457575 0)
(0.020450361 -0.0017547532 0)
(0.021270907 -0.00059579062 0)
(0.021274276 0.00058669115 0)
(0.02045989 0.0017472799 0)
(0.018858572 0.0028412861 0)
(0.016531544 0.0038264607 0)
(0.01356803 0.0046647139 0)
(0.010081917 0.0053235732 0)
(0.0062073623 0.0057774806 0)
(0.002093604 0.0060088137 0)
(-0.0022311589 0.010262034 0)
(-0.0065996119 0.0098661777 0)
(-0.010713693 0.0090902529 0)
(-0.014414956 0.0079644014 0)
(-0.017560995 0.0065323009 0)
(-0.020030936 0.0048494212 0)
(-0.02173009 0.0029808235 0)
(-0.022593524 0.0009986186 0)
(-0.022588521 -0.0010208837 0)
(-0.021715746 -0.0030001097 0)
(-0.020009162 -0.0048631728 0)
(-0.01753466 -0.0065387749 0)
(-0.014387493 -0.0079629006 0)
(-0.010688594 -0.0090812263 0)
(-0.0065799327 -0.0098511516 0)
(-0.002219082 -0.010243382 0)
(0.0022267938 -0.010243011 0)
(0.006587305 -0.0098500656 0)
(0.010695317 -0.0090795005 0)
(0.014393309 -0.007960643 0)
(0.017539371 -0.0065361072 0)
(0.02001263 -0.0048602132 0)
(0.021717886 -0.0029969629 0)
(0.022589285 -0.0010176392 0)
(0.022592891 0.0010018806 0)
(0.021728061 0.0029840201 0)
(0.020027546 0.0048524564 0)
(0.017556318 0.0065350599 0)
(0.014409124 0.0079667524 0)
(0.010706905 0.0090920595 0)
(0.0065921372 0.0098673186 0)
(0.0022233238 0.010262425 0)
(-0.0024234433 0.014824058 0)
(-0.0071680871 0.014252178 0)
(-0.011636419 0.013131257 0)
(-0.015656352 0.011504855 0)
(-0.019073235 0.0094360802 0)
(-0.021755811 0.0070050749 0)
(-0.02360126 0.0043058316 0)
(-0.024539086 0.0014424936 0)
(-0.024533749 -0.001474718 0)
(-0.023585955 -0.0043337547 0)
(-0.021732549 -0.007025012 0)
(-0.019045051 -0.0094455005 0)
(-0.015626881 -0.011502738 0)
(-0.011609377 -0.013118238 0)
(-0.0071467468 -0.014230448 0)
(-0.0024101639 -0.014797043 0)
(0.0024187689 -0.014796487 0)
(0.0071549474 -0.014228829 0)
(0.011616814 -0.013115679 0)
(0.015633267 -0.011499414 0)
(0.019050182 -0.0094416016 0)
(0.021736302 -0.0070207169 0)
(0.023588264 -0.0043292125 0)
(0.024534581 -0.0014700473 0)
(0.024538424 0.0014471917 0)
(0.023599099 0.0043104524 0)
(0.021752161 0.0070094899 0)
(0.019068147 0.0094401242 0)
(0.015649943 0.011508328 0)
(0.011628893 0.013133946 0)
(0.0071597452 0.014253885 0)
(0.0024146677 0.014824645 0)
(-0.0027005048 0.01983439 0)
(-0.0079872042 0.019069151 0)
(-0.012965979 0.017569298 0)
(-0.017445098 0.015393138 0)
(-0.021252271 0.012625136 0)
(-0.02424129 0.0093725325 0)
(-0.026297629 0.0057610887 0)
(-0.027342765 0.0019301145 0)
(-0.027337093 -0.0019729546 0)
(-0.026281345 -0.0057982397 0)
(-0.024216491 -0.0093991178 0)
(-0.02122213 -0.012637789 0)
(-0.017413433 -0.015390481 0)
(-0.012936723 -0.017552136 0)
(-0.0079638566 -0.019040358 0)
(-0.0026856318 -0.019798489 0)
(0.0026955089 -0.019797708 0)
(0.0079732245 -0.019038094 0)
(0.012945146 -0.017548583 0)
(0.017420583 -0.015385911 0)
(0.021227807 -0.012632489 0)
(0.024220599 -0.009393341 0)
(0.026283858 -0.0057921805 0)
(0.02733801 -0.0019667503 0)
(0.02734208 0.0019363596 0)
(0.026295318 0.0057672647 0)
(0.024237325 0.0093784884 0)
(0.021246656 0.012630655 0)
(0.017437914 0.015397935 0)
(0.01295743 0.017573049 0)
(0.0079776343 0.019071551 0)
(0.002690383 0.019835219 0)
(-0.0030977221 0.025488963 0)
(-0.0091616198 0.024505454 0)
(-0.014872275 0.022577903 0)
(-0.020009799 0.019781292 0)
(-0.024376629 0.016224196 0)
(-0.027805123 0.012044443 0)
(-0.03016398 0.0074036412 0)
(-0.031363167 0.002480755 0)
(-0.031357228 -0.0025348316 0)
(-0.030146905 -0.0074505966 0)
(-0.027779033 -0.012078163 0)
(-0.024344751 -0.016240433 0)
(-0.019976049 -0.019778267 0)
(-0.01484074 -0.022556557 0)
(-0.009136007 -0.024469327 0)
(-0.0030808216 -0.025443706 0)
(0.0030924436 -0.025442633 0)
(0.0091469528 -0.024466239 0)
(0.014850459 -0.022551761 0)
(0.01998416 -0.019772184 0)
(0.024351071 -0.016233493 0)
(0.027783532 -0.012070715 0)
(0.030149632 -0.0074428776 0)
(0.031358242 -0.0025269769 0)
(0.031362478 0.0024886687 0)
(0.030161535 0.0074115293 0)
(0.027800826 0.012052152 0)
(0.024370397 0.016231457 0)
(0.020001641 0.019787712 0)
(0.014862374 0.022582998 0)
(0.00915038 0.024508749 0)
(0.0030857419 0.02549011 0)
(-0.0036652057 0.032067171 0)
(-0.010839562 0.030829677 0)
(-0.017595951 0.028404535 0)
(-0.023674276 0.024886153 0)
(-0.028840888 0.020411176 0)
(-0.032897519 0.015153001 0)
(-0.03568889 0.0093149283 0)
(-0.03710851 0.0031219974 0)
(-0.037102529 -0.0031876892 0)
(-0.035671643 -0.0093720818 0)
(-0.032871011 -0.015194266 0)
(-0.0288082 -0.020431404 0)
(-0.023639205 -0.024883111 0)
(-0.017562559 -0.028379216 0)
(-0.010811667 -0.030786215 0)
(-0.0036458137 -0.032012309 0)
(0.0036597971 -0.032010836 0)
(0.010824705 -0.030782021 0)
(0.017573928 -0.028372792 0)
(0.023648456 -0.02487512 0)
(0.028815206 -0.020422498 0)
(0.032875873 -0.015184917 0)
(0.035674546 -0.0093625571 0)
(0.037103634 -0.0031780849 0)
(0.037107861 0.003131686 0)
(0.035686385 0.0093246936 0)
(0.032892947 0.015162724 0)
(0.028834013 0.02042055 0)
(0.023664962 0.02489464 0)
(0.01758432 0.028411406 0)
(0.010826093 0.030834183 0)
(0.0036506927 0.032068756 0)
(-0.0044628784 0.039962177 0)
(-0.013198218 0.0384198 0)
(-0.021424667 0.03539747 0)
(-0.028825654 0.031012957 0)
(-0.035116844 0.02543659 0)
(-0.040056888 0.018884402 0)
(-0.043456757 0.01160973 0)
(-0.04518678 0.0038928188 0)
(-0.045181234 -0.0039698786 0)
(-0.043440675 -0.011676978 0)
(-0.040031884 -0.01893336 0)
(-0.035085453 -0.025461247 0)
(-0.028791112 -0.03101057 0)
(-0.021390637 -0.035368914 0)
(-0.013168417 -0.038369601 0)
(-0.0044404815 -0.039898022 0)
(0.0044576741 -0.039895973 0)
(0.013184221 -0.038363852 0)
(0.02140407 -0.035360266 0)
(0.028801636 -0.031000083 0)
(0.035093077 -0.025449935 0)
(0.040036964 -0.018921851 0)
(0.043443635 -0.011665533 0)
(0.045182404 -0.0039584877 0)
(0.045186259 0.0039043294 0)
(0.043454365 0.011621513 0)
(0.040052232 0.018896441 0)
(0.035109423 0.025448576 0)
(0.028815055 0.031024169 0)
(0.021410861 0.03540679 0)
(0.013181776 0.038426024 0)
(0.0044448967 0.039964392 0)
(-0.0055395316 0.049690056 0)
(-0.016381632 0.047771997 0)
(-0.026592241 0.044013951 0)
(-0.035778642 0.03856253 0)
(-0.043588187 0.031629538 0)
(-0.049721291 0.023483357 0)
(-0.053943242 0.014439003 0)
(-0.056093011 0.0048446182 0)
(-0.056088705 -0.0049316032 0)
(-0.053930575 -0.014515274 0)
(-0.049701024 -0.023539614 0)
(-0.043561651 -0.031659081 0)
(-0.035747764 -0.038562048 0)
(-0.026559657 -0.043983856 0)
(-0.016350636 -0.047716771 0)
(-0.0055134147 -0.049617974 0)
(0.0055350536 -0.049615055 0)
(0.016370141 -0.047708738 0)
(0.02657565 -0.043972035 0)
(0.035759589 -0.038548171 0)
(0.043569615 -0.031644777 0)
(0.049705977 -0.023525694 0)
(0.053933339 -0.014501888 0)
(0.056089874 -0.0049185222 0)
(0.05609277 0.0048578701 0)
(0.053941293 0.014452862 0)
(0.049716961 0.023498022 0)
(0.043580539 0.031644808 0)
(0.035766738 0.038577465 0)
(0.026575722 0.04402679 0)
(0.016361176 0.047780764 0)
(0.0055167066 0.049693224 0)
(-0.0068863308 0.061836269 0)
(-0.020362854 0.059449187 0)
(-0.033054742 0.054772807 0)
(-0.044474155 0.04798985 0)
(-0.054183278 0.03936383 0)
(-0.061809496 0.029227969 0)
(-0.067060652 0.017974436 0)
(-0.06973641 0.0060360229 0)
(-0.069734393 -0.0061296964 0)
(-0.067054302 -0.018057208 0)
(-0.061798075 -0.029290324 0)
(-0.054166017 -0.039398793 0)
(-0.044450621 -0.0479935 0)
(-0.033025725 -0.054744407 0)
(-0.020330964 -0.059392333 0)
(-0.0068550696 -0.061759156 0)
(0.006883077 -0.061754858 0)
(0.020355551 -0.0593808 0)
(0.033044911 -0.054727869 0)
(0.04446357 -0.04797483 0)
(0.054173652 -0.039380724 0)
(0.061802215 -0.029273824 0)
(0.067056404 -0.018042051 0)
(0.069735432 -0.0061152603 0)
(0.06973671 0.006050708 0)
(0.067059729 0.017990254 0)
(0.061806284 0.029245506 0)
(0.054176146 0.039383274 0)
(0.044461153 0.048010055 0)
(0.033034822 0.054790909 0)
(0.020336825 0.059461869 0)
(0.0068565185 0.061840933 0)
(-0.0083613587 0.076880104 0)
(-0.024720151 0.073912255 0)
(-0.040126922 0.068098902 0)
(-0.053989811 0.05966774 0)
(-0.065778569 0.048946299 0)
(-0.075040239 0.036346718 0)
(-0.081419024 0.02235724 0)
(-0.084671641 0.0075154649 0)
(-0.084672871 -0.0076106593 0)
(-0.08142148 -0.022442506 0)
(-0.075040885 -0.03641328 0)
(-0.06577361 -0.048987674 0)
(-0.053975257 -0.059679359 0)
(-0.040101012 -0.068077532 0)
(-0.024685123 -0.07385913 0)
(-0.0083215924 -0.076802342 0)
(0.0083591461 -0.076795756 0)
(0.024716965 -0.073842031 0)
(0.040124253 -0.06805371 0)
(0.053988702 -0.059653598 0)
(0.065779416 -0.04896482 0)
(0.075042847 -0.036394311 0)
(0.081422052 -0.022426128 0)
(0.084673527 -0.0075956096 0)
(0.084672944 0.0075308949 0)
(0.081420182 0.022374555 0)
(0.075039693 0.036367124 0)
(0.065773582 0.04897109 0)
(0.053976427 0.059695704 0)
(0.040102682 0.068125194 0)
(0.024686056 0.0739312 0)
(0.0083209987 0.076887214 0)
(-0.0096016652 0.094841922 0)
(-0.028375867 0.091180848 0)
(-0.046057845 0.084010369 0)
(-0.0619682 0.073612526 0)
(-0.075501541 0.060391856 0)
(-0.086136654 0.044851009 0)
(-0.093462241 0.027594665 0)
(-0.09719991 0.0092857451 0)
(-0.097204377 -0.0093769475 0)
(-0.0934736 -0.027678928 0)
(-0.086148757 -0.044920888 0)
(-0.075506747 -0.060442408 0)
(-0.061957692 -0.073638711 0)
(-0.046027192 -0.084003834 0)
(-0.028328916 -0.091138113 0)
(-0.0095457212 -0.094767877 0)
(0.009598377 -0.094757311 0)
(0.028371565 -0.091111791 0)
(0.046055594 -0.083968309 0)
(0.061969779 -0.07360186 0)
(0.075507123 -0.060413428 0)
(0.086145579 -0.044900333 0)
(0.09347095 -0.027662672 0)
(0.097204121 -0.0093627646 0)
(0.097203009 0.009300538 0)
(0.093467455 0.02761229 0)
(0.086142052 0.044873553 0)
(0.075502565 0.060423534 0)
(0.061956565 0.073652486 0)
(0.046028163 0.084049955 0)
(0.028329536 0.091210234 0)
(0.0095444981 0.094853196 0)
(-0.009980156 0.11476018 0)
(-0.029467636 0.11033049 0)
(-0.047821257 0.10165467 0)
(-0.064333567 0.08907667 0)
(-0.078384693 0.07308986 0)
(-0.089431004 0.054287809 0)
(-0.097038354 0.033407564 0)
(-0.10092191 0.01125236 0)
(-0.10092831 -0.011335306 0)
(-0.097054055 -0.033486053 0)
(-0.089448081 -0.054359439 0)
(-0.07839084 -0.073154954 0)
(-0.064312544 -0.089128283 0)
(-0.047766005 -0.10167315 0)
(-0.029388715 -0.11030377 0)
(-0.0098925241 -0.11469003 0)
(0.009970192 -0.11467217 0)
(0.029447657 -0.11026146 0)
(0.047800116 -0.10161806 0)
(0.064317743 -0.089072895 0)
(0.078376703 -0.073118044 0)
(0.08943322 -0.054340246 0)
(0.09704548 -0.033472966 0)
(0.10092647 -0.011324767 0)
(0.10092768 0.011263824 0)
(0.097050591 0.033422651 0)
(0.089449263 0.054309691 0)
(0.07840133 0.073130406 0)
(0.064330073 0.089136317 0)
(0.047785824 0.10171686 0)
(0.029402423 0.11037811 0)
(0.0098950178 0.11477887 0)
(-0.0087270562 0.13415944 0)
(-0.025708593 0.12898109 0)
(-0.041700887 0.11883654 0)
(-0.056078237 0.1041331 0)
(-0.068322466 0.085465239 0)
(-0.077961702 0.063483544 0)
(-0.084593092 0.039069526 0)
(-0.087975889 0.013168896 0)
(-0.08798082 -0.013245856 0)
(-0.084605964 -0.039146234 0)
(-0.077979367 -0.063560659 0)
(-0.068327409 -0.085554625 0)
(-0.056034279 -0.10422869 0)
(-0.04159577 -0.11889333 0)
(-0.025568492 -0.12897186 0)
(-0.0085830914 -0.13408314 0)
(0.0087012934 -0.13405116 0)
(0.025649241 -0.12890015 0)
(0.041631557 -0.11880436 0)
(0.056018127 -0.1041403 0)
(0.068279102 -0.085507648 0)
(0.077941994 -0.063551775 0)
(0.084591558 -0.039143093 0)
(0.087979098 -0.013242795 0)
(0.087982854 0.013173216 0)
(0.084611941 0.039075582 0)
(0.07800315 0.063495706 0)
(0.068374908 0.085516522 0)
(0.056099423 0.10422685 0)
(0.041664784 0.11893887 0)
(0.025617314 0.12906235 0)
(0.0085968778 0.13419214 0)
(-0.0053998541 0.1489782 0)
(-0.015793963 0.14322656 0)
(-0.025581428 0.13195408 0)
(-0.034350994 0.11561518 0)
(-0.041836356 0.094930809 0)
(-0.047763044 0.07051938 0)
(-0.051824601 0.043392552 0)
(-0.053885658 0.01463024 0)
(-0.053880967 -0.014709504 0)
(-0.051825881 -0.043463109 0)
(-0.047796627 -0.070590547 0)
(-0.041877665 -0.095054809 0)
(-0.034317101 -0.11578581 0)
(-0.025439702 -0.13207067 0)
(-0.015590202 -0.14323571 0)
(-0.0051870557 -0.14887479 0)
(0.005354974 -0.14881444 0)
(0.015685082 -0.14310783 0)
(0.025459173 -0.13192421 0)
(0.034256984 -0.11564025 0)
(0.041773613 -0.094998066 0)
(0.047734624 -0.070616877 0)
(0.051822848 -0.043484286 0)
(0.05389091 -0.014713981 0)
(0.053884207 0.014628916 0)
(0.051830998 0.043377054 0)
(0.047825748 0.070496001 0)
(0.041944651 0.094990441 0)
(0.034421765 0.11576567 0)
(0.025564672 0.1321264 0)
(0.015684014 0.14337148 0)
(0.0052165438 0.14903824 0)
(-0.00089686508 0.15462104 0)
(-0.0024738963 0.14863507 0)
(-0.0039649583 0.13691815 0)
(-0.0052507186 0.11991087 0)
(-0.0063597536 0.098542819 0)
(-0.0073007651 0.073223582 0)
(-0.0079351888 0.045030992 0)
(-0.0082489462 0.015176442 0)
(-0.0082445798 -0.015257663 0)
(-0.0079631078 -0.04503515 0)
(-0.0074264771 -0.073201621 0)
(-0.0065502969 -0.098688597 0)
(-0.0053775154 -0.12022704 0)
(-0.0039655429 -0.13717471 0)
(-0.002374945 -0.14871907 0)
(-0.0007326429 -0.15449564 0)
(0.00088043609 -0.15436914 0)
(0.0024277983 -0.14846742 0)
(0.00394336 -0.1369289 0)
(0.0052983087 -0.11999719 0)
(0.0064454532 -0.098645149 0)
(0.0073854469 -0.073334714 0)
(0.007995939 -0.045112464 0)
(0.0082756639 -0.015237595 0)
(0.0082329645 0.015208605 0)
(0.0079015746 0.044973638 0)
(0.0073337897 0.073090287 0)
(0.0064633237 0.098578383 0)
(0.005339628 0.12013848 0)
(0.0039914269 0.13721236 0)
(0.0024090205 0.14891647 0)
(0.00074078521 0.15474527 0)
(0.0008880468 0.15462094 0)
(0.002445304 0.14864007 0)
(0.0039113039 0.13692836 0)
(0.0051640992 0.11992704 0)
(0.0062305173 0.098565253 0)
(0.0071204781 0.07325025 0)
(0.007701268 0.045058941 0)
(0.0079643866 0.015202365 0)
(0.0079178385 -0.015237761 0)
(0.0076087255 -0.045024352 0)
(0.0070653178 -0.073202764 0)
(0.0062052053 -0.098703342 0)
(0.005074015 -0.1202555 0)
(0.0037278671 -0.13721569 0)
(0.0022224574 -0.14877012 0)
(0.00067845947 -0.15455472 0)
(-0.00082853125 -0.15442858 0)
(-0.0022762188 -0.1485192 0)
(-0.0037057823 -0.13697061 0)
(-0.0049943205 -0.1200261 0)
(-0.006099061 -0.098659893 0)
(-0.0070237152 -0.073335656 0)
(-0.0076417385 -0.045101497 0)
(-0.0079487092 -0.015217451 0)
(-0.0079481634 0.015234218 0)
(-0.0076677464 0.045001413 0)
(-0.0071530164 0.073116678 0)
(-0.0063330466 0.098600799 0)
(-0.0052523878 0.12015515 0)
(-0.0039379228 0.13722339 0)
(-0.0023818123 0.14892231 0)
(-0.00073452889 0.1547455 0)
(0.0053657029 0.14902644 0)
(0.015695922 0.14327664 0)
(0.02542388 0.13200951 0)
(0.034140022 0.11567801 0)
(0.041579952 0.095000542 0)
(0.047471653 0.070590767 0)
(0.051510725 0.043458967 0)
(0.053562134 0.014685352 0)
(0.053560729 -0.014672163 0)
(0.05152089 -0.043448965 0)
(0.047517447 -0.070604011 0)
(0.041633683 -0.095098889 0)
(0.0341174 -0.11586073 0)
(0.025292313 -0.13217273 0)
(0.015500741 -0.14335712 0)
(0.0051581953 -0.14900593 0)
(-0.0053257261 -0.14894642 0)
(-0.015595524 -0.14323045 0)
(-0.025312056 -0.13202739 0)
(-0.034057634 -0.11571588 0)
(-0.041529787 -0.095042156 0)
(-0.047455451 -0.070630028 0)
(-0.051517615 -0.043469937 0)
(-0.053570679 -0.014676522 0)
(-0.053560646 0.014683923 0)
(-0.051516782 0.043443301 0)
(-0.047534356 0.070567001 0)
(-0.041688542 0.095060188 0)
(-0.034211247 0.11582931 0)
(-0.025407531 0.13218311 0)
(-0.015586084 0.14342296 0)
(-0.0051822137 0.1490873 0)
(0.0086931085 0.13427737 0)
(0.02560788 0.129098 0)
(0.041536658 0.11895304 0)
(0.055856597 0.10424813 0)
(0.068052181 0.085575319 0)
(0.077652206 0.063583263 0)
(0.084254763 0.039151442 0)
(0.087620651 0.013226025 0)
(0.087621465 -0.013219076 0)
(0.084257079 -0.03915451 0)
(0.07765544 -0.063607351 0)
(0.068042424 -0.085641407 0)
(0.055800401 -0.10435322 0)
(0.041421889 -0.11905037 0)
(0.02546142 -0.12915211 0)
(0.0085474474 -0.13427474 0)
(-0.0086649486 -0.13424304 0)
(-0.025541818 -0.12908093 0)
(-0.041457663 -0.11896199 0)
(-0.055784461 -0.10426528 0)
(-0.067994361 -0.085594538 0)
(-0.07761824 -0.063598353 0)
(-0.084242708 -0.039151294 0)
(-0.08761969 -0.013216128 0)
(-0.087627588 0.013230561 0)
(-0.084273694 0.039157494 0)
(-0.07769391 0.063595343 0)
(-0.068105021 0.085626776 0)
(-0.055878166 0.10434245 0)
(-0.041500708 0.11905609 0)
(-0.025516402 0.12917991 0)
(-0.0085623657 0.13431034 0)
(0.0099443834 0.1149437 0)
(0.029360515 0.11051148 0)
(0.047645021 0.1018312 0)
(0.064092825 0.089245586 0)
(0.078086106 0.073245992 0)
(0.089083513 0.054423187 0)
(0.096651734 0.03351453 0)
(0.10050853 0.011323247 0)
(0.10050323 -0.011309469 0)
(0.096634403 -0.03351247 0)
(0.089052491 -0.054440599 0)
(0.078038165 -0.073290206 0)
(0.064018955 -0.089314348 0)
(0.047545444 -0.10190173 0)
(0.029251762 -0.11056256 0)
(0.0098462491 -0.11496411 0)
(-0.0099233967 -0.1149464 0)
(-0.029310367 -0.11052052 0)
(-0.047579419 -0.10184697 0)
(-0.064024193 -0.089259228 0)
(-0.07802415 -0.073253412 0)
(-0.08903775 -0.054421405 0)
(-0.096625924 -0.033499335 0)
(-0.10050143 -0.011298892 0)
(-0.10051437 0.011334743 0)
(-0.096664144 0.033529656 0)
(-0.089102009 0.054445163 0)
(-0.078103027 0.073286763 0)
(-0.064089554 0.08930562 0)
(-0.047609636 0.10189383 0)
(-0.029295137 0.11055946 0)
(-0.0098588862 0.11496256 0)
(0.0095562532 0.095101487 0)
(0.02824038 0.091436437 0)
(0.0458355 0.084257967 0)
(0.061664968 0.073846768 0)
(0.075126057 0.060605504 0)
(0.0857002 0.045035162 0)
(0.092978665 0.027738445 0)
(0.096685334 0.0093770859 0)
(0.096678141 -0.0093482218 0)
(0.092956372 -0.027720559 0)
(0.085662898 -0.045037852 0)
(0.075073847 -0.060633953 0)
(0.061597592 -0.073898192 0)
(0.045756774 -0.08431959 0)
(0.028161115 -0.09149392 0)
(0.0094889331 -0.095144289 0)
(-0.0095412254 -0.095133794 0)
(-0.028203493 -0.091467748 0)
(-0.045785019 -0.084284247 0)
(-0.061609637 -0.073861493 0)
(-0.075074257 -0.060605053 0)
(-0.085659789 -0.045017312 0)
(-0.092953811 -0.027704266 0)
(-0.096677982 -0.0093339668 0)
(-0.09668856 0.0093919382 0)
(-0.092984054 0.027756174 0)
(-0.085705802 0.045057865 0)
(-0.07512729 0.060637407 0)
(-0.06165349 0.073887014 0)
(-0.045805871 0.084297845 0)
(-0.028193989 0.091466049 0)
(-0.0094989316 0.095112856 0)
(0.0082979797 0.077243388 0)
(0.024531901 0.074268835 0)
(0.039819767 0.068441602 0)
(0.053573876 0.059987952 0)
(0.065267923 0.049233545 0)
(0.074452648 0.03658882 0)
(0.080775629 0.022540791 0)
(0.083996085 0.0076265889 0)
(0.083990672 -0.0075845185 0)
(0.080759311 -0.022510639 0)
(0.074425277 -0.036579895 0)
(0.065229672 -0.049250473 0)
(0.053525777 -0.060029399 0)
(0.039765184 -0.068499568 0)
(0.024477514 -0.074332412 0)
(0.0082514253 -0.077302174 0)
(-0.0082886979 -0.077295622 0)
(-0.024509127 -0.074315388 0)
(-0.039788267 -0.068475835 0)
(-0.053539141 -0.060003708 0)
(-0.065235463 -0.04922765 0)
(-0.07442727 -0.036560912 0)
(-0.080759949 -0.022494207 0)
(-0.083991424 -0.0075693816 0)
(-0.083997517 0.007642126 0)
(-0.080776948 0.022558246 0)
(-0.074452281 0.0366094 0)
(-0.065263112 0.049258543 0)
(-0.053560635 0.060016142 0)
(-0.039795612 0.068468105 0)
(-0.024497832 0.074287934 0)
(-0.0082575976 0.077250559 0)
(0.0067968774 0.062347003 0)
(0.020097853 0.059948117 0)
(0.032624086 0.055247599 0)
(0.043894088 0.048426983 0)
(0.053475812 0.039748352 0)
(0.061001654 0.02954378 0)
(0.066183486 0.018204962 0)
(0.068823675 0.0061653224 0)
(0.06882118 -0.0061151454 0)
(0.066175693 -0.01816652 0)
(0.060987793 -0.029526386 0)
(0.053455201 -0.039756974 0)
(0.043866766 -0.048461372 0)
(0.032591552 -0.055302164 0)
(0.020063458 -0.060013835 0)
(0.0067647874 -0.062413689 0)
(-0.0067925472 -0.062409404 0)
(-0.020087829 -0.06000233 0)
(-0.032610574 -0.055285654 0)
(-0.043879609 -0.048442711 0)
(-0.053462786 -0.039738882 0)
(-0.06099193 -0.02950983 0)
(-0.066177833 -0.018151275 0)
(-0.068822294 -0.0061005936 0)
(-0.068824086 0.0061801465 0)
(-0.066182705 0.018220942 0)
(-0.060998604 0.029561497 0)
(-0.053468843 0.039767989 0)
(-0.043881233 0.04844738 0)
(-0.032604285 0.055265869 0)
(-0.020071914 0.059960915 0)
(-0.006767131 0.062351711 0)
(0.0054166564 0.050406634 0)
(0.016018024 0.048468761 0)
(0.026002398 0.044670798 0)
(0.034986093 0.039158779 0)
(0.042624476 0.032144013 0)
(0.048624639 0.023894899 0)
(0.052756905 0.014727397 0)
(0.054863376 0.0049919422 0)
(0.054863309 -0.0049391967 0)
(0.052756219 -0.01468568 0)
(0.048622042 -0.02387313 0)
(0.042618399 -0.032147299 0)
(0.034975318 -0.039187607 0)
(0.025986621 -0.044720994 0)
(0.015998174 -0.048532607 0)
(0.0053945445 -0.050474487 0)
(-0.005415939 -0.050471568 0)
(-0.016017458 -0.048524567 0)
(-0.026002431 -0.044709152 0)
(-0.034987009 -0.039173687 0)
(-0.04262628 -0.032132923 0)
(-0.04862696 -0.023859107 0)
(-0.052758994 -0.014672163 0)
(-0.054864529 -0.0049259614 0)
(-0.054863225 0.0050053664 0)
(-0.052755082 0.014741442 0)
(-0.048620459 0.023909758 0)
(-0.042616991 0.032159476 0)
(-0.034974351 0.039173894 0)
(-0.025986033 0.044683785 0)
(-0.015997711 0.048477627 0)
(-0.0053939648 0.050409838 0)
(0.0043030287 0.040953804 0)
(0.012725366 0.039380481 0)
(0.020658029 0.036296439 0)
(0.0277963 0.031819845 0)
(0.033866281 0.026121944 0)
(0.038635187 0.019420547 0)
(0.041920325 0.011971981 0)
(0.04359588 0.004061 0)
(0.043597431 -0.0040096809 0)
(0.041924389 -0.011930686 0)
(0.038640158 -0.019397492 0)
(0.033870001 -0.026122067 0)
(0.027796642 -0.031844036 0)
(0.020653435 -0.036341455 0)
(0.012715219 -0.039439668 0)
(0.0042876669 -0.041018336 0)
(-0.0043045926 -0.041016276 0)
(-0.012730775 -0.039433881 0)
(-0.020666654 -0.036332741 0)
(-0.027806996 -0.031833452 0)
(-0.033877504 -0.026110627 0)
(-0.038645169 -0.019385825 0)
(-0.04192733 -0.011919057 0)
(-0.04359863 -0.0039980849 0)
(-0.043595434 0.0040727291 0)
(-0.041918052 0.01198399 0)
(-0.038630682 0.019432811 0)
(-0.033859035 0.026134144 0)
(-0.027785891 0.031831247 0)
(-0.02064442 0.03630591 0)
(-0.012709123 0.039386804 0)
(-0.0042852454 0.040956054 0)
(0.003475681 0.033388198 0)
(0.010279011 0.03210629 0)
(0.016687232 0.029593125 0)
(0.022454306 0.025944728 0)
(0.027358936 0.021300403 0)
(0.031212958 0.015837497 0)
(0.033868543 0.0097647646 0)
(0.035223739 0.0033143782 0)
(0.035226253 -0.0032667022 0)
(0.033875453 -0.0097260028 0)
(0.031222506 -0.015815026 0)
(0.027368646 -0.021298801 0)
(0.022461518 -0.025965051 0)
(0.016689638 -0.029632786 0)
(0.010275088 -0.032159558 0)
(0.0034648964 -0.033447184 0)
(-0.0034785559 -0.033445687 0)
(-0.010287822 -0.032155289 0)
(-0.016700739 -0.029626238 0)
(-0.022470548 -0.025956886 0)
(-0.027375485 -0.021289676 0)
(-0.031227259 -0.015805418 0)
(-0.033878306 -0.0097161897 0)
(-0.035227367 -0.0032567885 0)
(-0.035223156 0.0033243857 0)
(-0.033866158 0.0097748491 0)
(-0.031208553 0.015847527 0)
(-0.027352266 0.021310058 0)
(-0.022445229 0.025953455 0)
(-0.01667586 0.029600181 0)
(-0.010265816 0.032110913 0)
(-0.0034614503 0.033389823 0)
(0.0029078383 0.027648449 0)
(0.0086001753 0.026587326 0)
(0.013962275 0.024506754 0)
(0.018788365 0.021486094 0)
(0.022893256 0.017640564 0)
(0.026119389 0.013116924 0)
(0.028342857 0.0080879791 0)
(0.029478106 0.0027460377 0)
(0.029481168 -0.0027042856 0)
(0.028351402 -0.0080537693 0)
(0.026131605 -0.013096539 0)
(0.022906517 -0.017637977 0)
(0.018799728 -0.021502342 0)
(0.013969016 -0.024539798 0)
(0.00860026 -0.026632412 0)
(0.0029002348 -0.027698882 0)
(-0.0029114232 -0.027697792 0)
(-0.0086107929 -0.026629272 0)
(-0.013978361 -0.024534911 0)
(-0.018807521 -0.021496127 0)
(-0.022912587 -0.017630864 0)
(-0.02613593 -0.01308888 0)
(-0.028354034 -0.008045811 0)
(-0.029482168 -0.0026961734 0)
(-0.029477482 0.0027542143 0)
(-0.028340553 0.0080961241 0)
(-0.026115303 0.013124871 0)
(-0.022887299 0.017648034 0)
(-0.018780536 0.021492682 0)
(-0.013952743 0.024511972 0)
(-0.0085893329 0.026590696 0)
(-0.0028962691 0.027649621 0)
(0.0025524364 0.020790121 0)
(0.0075496965 0.019992609 0)
(0.012257344 0.018428821 0)
(0.016494819 0.016158274 0)
(0.020099534 0.013267416 0)
(0.022933071 0.0098664145 0)
(0.024886469 0.006085054 0)
(0.025884399 0.0020678606 0)
(0.025888097 -0.0020313038 0)
(0.024896865 -0.0060550157 0)
(0.022948188 -0.0098483369 0)
(0.020116469 -0.01326478 0)
(0.016510245 -0.016172057 0)
(0.012268081 -0.018457351 0)
(0.0075532324 -0.020031844 0)
(0.0025473261 -0.020834289 0)
(-0.0025566988 -0.020833474 0)
(-0.0075621146 -0.020029481 0)
(-0.012276056 -0.018453639 0)
(-0.016517004 -0.016167275 0)
(-0.020121826 -0.013259225 0)
(-0.022952064 -0.0098422704 0)
(-0.024899243 -0.0060486416 0)
(-0.025888982 -0.0020247683 0)
(-0.025883786 0.0020744448 0)
(-0.024884328 0.0060915675 0)
(-0.022929366 0.0098726947 0)
(-0.020094257 0.013273232 0)
(-0.016488034 0.016163326 0)
(-0.012249238 0.01843277 0)
(-0.0075405983 0.019995134 0)
(-0.0025427993 0.020790993 0)
(0.0024858235 0.01944667 0)
(0.0073539604 0.018700468 0)
(0.011940116 0.01723718 0)
(0.016068408 0.015112578 0)
(0.019580416 0.012407681 0)
(0.022341227 0.0092257345 0)
(0.024244615 0.0056883318 0)
(0.025217139 0.0019308223 0)
(0.025221025 -0.0019028135 0)
(0.024255576 -0.0056652929 0)
(0.022357281 -0.0092118257 0)
(0.019598636 -0.012405575 0)
(0.016085403 -0.015123043 0)
(0.011952588 -0.017258958 0)
(0.0073592404 -0.018730474 0)
(0.0024822944 -0.019480469 0)
(-0.0024902943 -0.019479829 0)
(-0.0073668649 -0.018728603 0)
(-0.011959505 -0.017255988 0)
(-0.016091344 -0.01511916 0)
(-0.019603414 -0.012400991 0)
(-0.022360781 -0.0092067428 0)
(-0.024257734 -0.0056598904 0)
(-0.025221811 -0.0018972442 0)
(-0.025216535 0.0019364211 0)
(-0.024242615 0.0056938195 0)
(-0.022337841 0.009230948 0)
(-0.01957569 0.012412424 0)
(-0.016062451 0.015116624 0)
(-0.011933118 0.017240293 0)
(-0.0073462013 0.018702436 0)
(-0.0024776591 0.019447345 0)
(0.0023852038 0.0084083304 0)
(0.007056676 0.0080861435 0)
(0.011457735 0.0074543657 0)
(0.015419669 0.0065369292 0)
(0.018790476 0.0053686212 0)
(0.021440658 0.003993806 0)
(0.02326818 0.0024647718 0)
(0.024202388 0.00083978362 0)
(0.024206906 -0.00081903158 0)
(0.023280956 -0.0024476254 0)
(0.021459463 -0.0039832879 0)
(0.018812017 -0.0053666816 0)
(0.015440102 -0.0065441513 0)
(0.011473294 -0.007469874 0)
(0.0070642723 -0.0081077421 0)
(0.0023829164 -0.0084328436 0)
(-0.0023902974 -0.0084324792 0)
(-0.0070713239 -0.008106679 0)
(-0.011479717 -0.0074681917 0)
(-0.015445651 -0.0065419624 0)
(-0.018816505 -0.0053641104 0)
(-0.021462768 -0.003980451 0)
(-0.023282999 -0.0024446204 0)
(-0.024207646 -0.00081593664 0)
(-0.024201803 0.00084290227 0)
(-0.023266271 0.0024678452 0)
(-0.021437449 0.0039967474 0)
(-0.018786031 0.0053713184 0)
(-0.015414107 0.0065392469 0)
(-0.011451242 0.0074561594 0)
(-0.0070495118 0.0080872822 0)
(-0.0023776859 0.0084087216 0)
(0.0028200584 0.013029984 0)
(0.0083434978 0.012529679 0)
(0.013547049 0.011548588 0)
(0.018231125 0.010124195 0)
(0.022215924 0.0083109499 0)
(0.025348304 0.0061782178 0)
(0.027507683 0.0038076615 0)
(0.028610758 0.0012901545 0)
(0.028615085 -0.0012778762 0)
(0.027519942 -0.0037976868 0)
(0.025366307 -0.0061724867 0)
(0.022236466 -0.0083106918 0)
(0.018250451 -0.010129757 0)
(0.013561467 -0.011559365 0)
(0.0083499667 -0.012544201 0)
(0.0028166808 -0.013046139 0)
(-0.0028251585 -0.01304574 0)
(-0.0083581033 -0.012543029 0)
(-0.013568942 -0.011557477 0)
(-0.018256978 -0.010127246 0)
(-0.022241805 -0.0083076689 0)
(-0.025370271 -0.0061690746 0)
(-0.027522396 -0.0037940122 0)
(-0.028615947 -0.0012740655 0)
(-0.028609996 0.0012939759 0)
(-0.027505315 0.0038113673 0)
(-0.025344403 0.0061816779 0)
(-0.022210615 0.0083140311 0)
(-0.018224593 0.010126766 0)
(-0.013539536 0.011550527 0)
(-0.0083352971 0.012530887 0)
(-0.0028115022 0.013030395 0)
(0.0022836437 -0.0056795634 0)
(0.0067542698 -0.0054610741 0)
(0.010966109 -0.0050325629 0)
(0.014757723 -0.0044105229 0)
(0.017983662 -0.003618897 0)