/*--------------------------------*- C++ -*----------------------------------*\
| =========                 |                                                 |
| \\      /  F ield         | OpenFOAM: The Open Source CFD Toolbox           |
|  \\    /   O peration     | Version:  2306                                  |
|   \\  /    A nd           | Website:  www.openfoam.com                      |
|    \\/     M anipulation  |                                                 |
\*---------------------------------------------------------------------------*/
FoamFile
{
    version     2.0;
    format      ascii;
    arch        "LSB;label=32;scalar=64";
    class       volVectorField;
    location    "0.55";
    object      U;
}
// * * * * * * * * * * * * * * * * * * * * * * * * * * * * * * * * * * * * * //

dimensions      [0 1 -1 0 0 0 0];

internalField   nonuniform List<vector> 
6400
(
(3.8824825e-05 -2.7566033e-05 -9.2896958e-20)
(9.1652297e-05 -3.3291033e-05 -4.5910841e-21)
(0.00015093174 -3.2847667e-05 2.4291034e-20)
(0.00020788761 -3.2869824e-05 -1.2893258e-20)
(0.00026560851 -3.2765653e-05 -3.3209024e-20)
(0.00032243288 -3.2491231e-05 9.9687874e-21)
(0.0003783942 -3.2202673e-05 7.8944606e-21)
(0.00043352171 -3.1885479e-05 -2.2119002e-20)
(0.00048777193 -3.153457e-05 -1.3612149e-20)
(0.00054106995 -3.1148624e-05 3.795861e-20)
(0.00059332839 -3.0726895e-05 4.8375531e-20)
(0.0006444537 -3.0269484e-05 -7.6895386e-21)
(0.00069435036 -2.9777239e-05 3.0175775e-20)
(0.00074292499 -2.9251317e-05 4.8153964e-20)
(0.00079008806 -2.8693086e-05 3.3301883e-20)
(0.00083575471 -2.8104007e-05 6.6938101e-21)
(0.00087984508 -2.7485653e-05 -1.2848895e-20)
(0.00092228464 -2.6839672e-05 2.1554159e-20)
(0.00096300451 -2.6167707e-05 1.7972476e-20)
(0.0010019415 -2.5471335e-05 -1.6387513e-20)
(0.0010390383 -2.4752175e-05 1.32496e-20)
(0.0010742437 -2.4011615e-05 2.5502061e-20)
(0.001107512 -2.3250967e-05 -1.5808353e-21)
(0.0011388038 -2.2471234e-05 -5.2318304e-20)
(0.0011680858 -2.1673126e-05 -1.3476947e-19)
(0.0011953304 -2.0856521e-05 -1.5690698e-20)
(0.001220516 -2.0020281e-05 1.5983549e-19)
(0.0012436271 -1.9161968e-05 1.0459757e-20)
(0.0012646606 -1.8278935e-05 -1.0499714e-19)
(0.0012836383 -1.737603e-05 -3.2878515e-20)
(0.0013005677 -1.6492952e-05 -2.2291239e-20)
(0.0013154315 -1.5646184e-05 -4.4407951e-20)
(0.0013282307 -1.4830788e-05 -1.0402225e-19)
(0.0013389866 -1.4039755e-05 8.3971044e-20)
(0.0013477269 -1.3268441e-05 1.9868569e-19)
(0.0013544845 -1.2514627e-05 -1.0306492e-19)
(0.001359296 -1.1776646e-05 -1.0575112e-19)
(0.0013622012 -1.1054333e-05 1.3896296e-19)
(0.0013632452 -1.0348084e-05 -7.2537957e-20)
(0.0013624765 -9.6584188e-06 -2.8200379e-19)
(0.0013599466 -8.9869655e-06 -5.2359547e-20)
(0.0013557115 -8.3356149e-06 2.0012473e-19)
(0.0013498298 -7.7052458e-06 3.8347493e-19)
(0.0013423644 -7.0977048e-06 3.3790128e-19)
(0.0013333814 -6.5129318e-06 -1.6807239e-19)
(0.0013229476 -5.9518362e-06 -6.6363346e-19)
(0.0013111331 -5.4165838e-06 -1.8136937e-19)
(0.0012980109 -4.9101619e-06 2.1959435e-19)
(0.0012836558 -4.4380461e-06 2.1725663e-19)
(0.0012681442 -4.0052415e-06 2.6149552e-19)
(0.0012515353 -3.602138e-06 -1.9861359e-19)
(0.0012338922 -3.2275396e-06 -7.0149439e-20)
(0.0012152956 -2.8585017e-06 1.4893384e-19)
(0.0011958139 -2.4872654e-06 -1.6021675e-19)
(0.0011754988 -2.1189094e-06 8.6993184e-20)
(0.0011544252 -1.7107777e-06 7.3951968e-20)
(0.0011327202 -1.2546733e-06 -2.4477714e-19)
(0.001110471 -8.1253133e-07 -4.1439317e-20)
(0.0010877195 -3.9812587e-07 7.4052187e-20)
(0.0010645266 -1.3112798e-08 -3.3214285e-20)
(0.0010409587 3.4360291e-07 2.3504974e-21)
(0.0010170803 6.744803e-07 8.7193343e-20)
(0.00099295534 9.7988595e-07 -9.3002002e-21)
(0.00096864623 1.2622977e-06 -1.9373573e-19)
(0.00094421029 1.5227021e-06 -1.1694445e-19)
(0.00091970455 1.7617609e-06 1.3598384e-19)
(0.00089518352 1.9807685e-06 1.0176326e-19)
(0.00087069814 2.1803062e-06 -4.6847177e-21)
(0.00084629776 2.361226e-06 -7.8454515e-20)
(0.00082202645 2.5258591e-06 -2.3841973e-19)
(0.00079792682 2.6726959e-06 5.0409437e-20)
(0.00077404096 2.803353e-06 2.4655771e-19)
(0.000750406 2.919053e-06 3.8626928e-20)
(0.00072705621 3.0206809e-06 -3.1386122e-20)
(0.00070402188 3.1093181e-06 -1.5067723e-20)
(0.00068133297 3.1836456e-06 1.2189393e-19)
(0.00065901595 3.2461155e-06 6.2393036e-20)
(0.00063709496 3.2966224e-06 -1.5082559e-19)
(0.00061559186 3.3373955e-06 -1.3469541e-19)
(0.00059452459 3.3678415e-06 -1.5195307e-20)
(7.4441592e-05 -0.00020731323 2.8650477e-20)
(0.00016703857 -0.00020973178 -9.3771699e-21)
(0.00027087074 -0.00020772512 -2.9826172e-20)
(0.00037053345 -0.00020590736 -7.8227453e-20)
(0.0004710302 -0.00020379571 -6.228319e-20)
(0.00056983478 -0.00020156487 4.9117173e-21)
(0.00066698379 -0.00019933934 -3.6106403e-20)
(0.000762522 -0.00019705603 -2.4200812e-20)
(0.00085635597 -0.0001946507 1.7811382e-20)
(0.00094833246 -0.00019207928 6.9818574e-20)
(0.0010382767 -0.00018931558 9.1068893e-20)
(0.0011260042 -0.00018634672 6.9666738e-20)
(0.0012113284 -0.00018316893 3.7618592e-20)
(0.0012940678 -0.00017978401 -5.0382437e-20)
(0.0013740494 -0.00017619744 3.1634195e-20)
(0.0014511103 -0.00017241675 3.996e-20)
(0.0015250983 -0.00016845108 -6.0374827e-20)
(0.0015958727 -0.00016431072 1.2414118e-20)
(0.001663305 -0.00016000678 8.6171736e-20)
(0.0017272787 -0.00015555067 6.8100835e-20)
(0.0017876902 -0.00015095465 3.3700469e-20)
(0.0018444482 -0.00014623068 2.4999644e-20)
(0.0018974743 -0.00014139117 2.5501833e-20)
(0.0019467028 -0.00013644843 -3.9916296e-20)
(0.0019920812 -0.00013141498 -2.0135028e-19)
(0.0020335704 -0.00012630219 -1.1027876e-19)
(0.0020711438 -0.00012112086 8.6822515e-20)
(0.0021047873 -0.00011588074 1.4709972e-20)
(0.0021344966 -0.00011059325 2.2265803e-20)
(0.0021602625 -0.00010527368 -5.7568082e-21)
(0.0021821 -9.9963525e-05 -1.7301514e-19)
(0.0022000601 -9.4687416e-05 -1.1548888e-19)
(0.0022141958 -8.9455557e-05 -4.8332935e-20)
(0.002224562 -8.4272336e-05 1.1419725e-19)
(0.00223122 -7.9144413e-05 1.8364535e-19)
(0.0022342434 -7.4081003e-05 -1.352728e-20)
(0.0022337147 -6.9089171e-05 1.3735163e-20)
(0.0022297244 -6.417874e-05 3.9408408e-20)
(0.0022223737 -5.9358846e-05 -4.1090707e-19)
(0.0022117707 -5.463596e-05 -4.1167522e-19)
(0.002198029 -5.0017591e-05 4.5903249e-19)
(0.0021812724 -4.5510239e-05 3.6303027e-19)
(0.0021616281 -4.1118743e-05 -1.3646648e-20)
(0.0021392314 -3.6854115e-05 1.1472727e-19)
(0.0021142221 -3.2718904e-05 -1.4841604e-19)
(0.0020867389 -2.87189e-05 -1.2821091e-20)
(0.0020569253 -2.4860714e-05 1.3405027e-19)
(0.0020249272 -2.1149462e-05 -2.3297362e-19)
(0.0019908925 -1.7585318e-05 -8.6235748e-20)
(0.0019549888 -1.4168966e-05 1.332313e-19)
(0.0019173591 -1.082598e-05 1.0891347e-19)
(0.0018781547 -7.6568354e-06 8.0989668e-20)
(0.0018375327 -4.685506e-06 -7.6012491e-20)
(0.0017956061 -1.9033692e-06 -1.228625e-19)
(0.0017525369 7.1574983e-07 -7.3953689e-21)
(0.0017084875 3.209081e-06 6.2122879e-20)
(0.0016635503 5.5835981e-06 -9.6268013e-20)
(0.0016178581 7.806287e-06 -3.285619e-19)
(0.0015715804 9.872648e-06 -8.6759306e-20)
(0.0015248534 1.1784064e-05 2.7475438e-19)
(0.0014778071 1.3542273e-05 8.7311183e-20)
(0.0014305637 1.5153967e-05 -1.5308646e-19)
(0.0013832416 1.6618127e-05 -1.5987407e-19)
(0.0013359556 1.7944076e-05 -7.7332083e-20)
(0.0012888077 1.9134355e-05 -1.3405542e-19)
(0.0012419019 2.0194201e-05 7.9740809e-20)
(0.0011953368 2.1128383e-05 3.277681e-19)
(0.0011492015 2.1940657e-05 -7.9189579e-20)
(0.0011035829 2.2637355e-05 -2.9364178e-19)
(0.0010585561 2.322902e-05 -3.1425312e-19)
(0.001014193 2.3712139e-05 -3.7039336e-20)
(0.00097056547 2.4095172e-05 3.5779679e-19)
(0.00092773413 2.4385739e-05 2.2901965e-19)
(0.00088575499 2.4589247e-05 8.9912207e-20)
(0.00084467341 2.4712911e-05 -1.0357443e-19)
(0.000804536 2.4754451e-05 8.7674635e-20)
(0.00076538451 2.4731142e-05 1.7612507e-19)
(0.00072725309 2.4634115e-05 -3.1461626e-19)
(0.00069016857 2.4477264e-05 -2.1500458e-19)
(0.00065415358 2.4265443e-05 1.2169956e-19)
(8.0843979e-05 -0.00045204806 8.0333642e-20)
(0.00017976271 -0.00044955948 4.1262565e-21)
(0.00029140441 -0.00044479905 -6.0777951e-20)
(0.00039837699 -0.00043938229 -7.3242717e-20)
(0.00050627937 -0.00043391059 -2.7639711e-20)
(0.00061227352 -0.00042861287 -9.9270974e-21)
(0.0007163493 -0.00042338706 -7.8750003e-20)
(0.00081849717 -0.00041805299 1.4820981e-20)
(0.0009185772 -0.00041246113 2.5061723e-20)
(0.0010163993 -0.00040650837 -2.0557512e-20)
(0.0011117574 -0.00040013326 6.6412374e-20)
(0.0012044378 -0.00039330466 6.0561421e-20)
(0.0012942261 -0.00038601254 1.1123479e-19)
(0.0013809138 -0.00037826032 1.6696857e-20)
(0.0014643025 -0.0003700606 -7.5687647e-21)
(0.0015442057 -0.0003614308 5.9331801e-20)
(0.0016204501 -0.00035239272 -2.114823e-21)
(0.001692876 -0.00034297099 5.8613251e-20)
(0.001761338 -0.00033319232 7.0123819e-20)
(0.0018257061 -0.00032308425 -2.0405559e-20)
(0.0018858661 -0.00031267683 2.0687168e-20)
(0.0019417187 -0.00030199978 5.099399e-20)
(0.0019931806 -0.00029108362 2.4801424e-20)
(0.0020401842 -0.00027995972 -6.4316459e-20)
(0.0020826778 -0.00026866058 -1.6599603e-19)
(0.0021206257 -0.00025721771 -1.0263093e-19)
(0.0021540073 -0.00024566317 -1.2222443e-20)
(0.0021828156 -0.00023402912 2.2512642e-20)
(0.0022070605 -0.00022235178 2.4882394e-21)
(0.0022267626 -0.00021065964 4.3985713e-20)
(0.0022419614 -0.00019897095 2.1760885e-20)
(0.0022527133 -0.00018730786 -2.0425739e-19)
(0.0022590858 -0.0001757075 -1.3484209e-19)
(0.0022611586 -0.00016419723 6.7945536e-20)
(0.0022590194 -0.00015280664 1.0960642e-19)
(0.0022527722 -0.000141563 1.3581328e-19)
(0.0022425308 -0.00013048907 -1.4606079e-20)
(0.0022284175 -0.00011961116 -1.3168027e-19)
(0.0022105678 -0.00010895224 -2.2307617e-19)
(0.0021891249 -9.8529696e-05 -2.8303956e-19)
(0.0021642386 -8.8361733e-05 2.0230129e-20)
(0.0021360679 -7.8465453e-05 3.2543007e-19)
(0.0021047713 -6.8854163e-05 3.2428836e-19)
(0.0020705207 -5.9549231e-05 2.0863359e-19)
(0.0020334949 -5.0557834e-05 -5.7622328e-20)
(0.0019938675 -4.1891859e-05 -4.4296785e-19)
(0.0019518201 -3.3553423e-05 -1.7055474e-19)
(0.0019075449 -2.5541728e-05 8.4754331e-20)
(0.0018612285 -1.7868456e-05 2.7918924e-19)
(0.0018131248 -1.0574538e-05 4.4128143e-19)
(0.0017632982 -3.7497689e-06 -2.488809e-19)
(0.0017118282 2.7101466e-06 -2.5279109e-19)
(0.0016590133 8.7907979e-06 1.8772912e-19)
(0.0016050776 1.4492299e-05 -2.0504707e-20)
(0.0015502018 1.9819875e-05 -9.5564117e-20)
(0.0014945512 2.4762299e-05 -9.0561686e-20)
(0.0014382862 2.932056e-05 -1.2414992e-19)
(0.0013815662 3.3519842e-05 -2.7259963e-20)
(0.0013245532 3.7376541e-05 -4.2181285e-20)
(0.0012673965 4.0895315e-05 -1.7509436e-19)
(0.0012102469 4.4079572e-05 -1.7806683e-20)
(0.0011532453 4.6953047e-05 9.6237346e-20)
(0.0010965297 4.9499455e-05 -2.0558009e-19)
(0.0010402318 5.1747443e-05 -7.9109226e-20)
(0.00098446735 5.3702808e-05 3.1691099e-19)
(0.00092935334 5.5373207e-05 1.9975925e-19)
(0.00087499792 5.6774322e-05 -2.1447253e-19)
(0.00082150171 5.7913186e-05 -3.6448768e-19)
(0.00076896247 5.8803831e-05 -7.51712e-20)
(0.00071745461 5.9479962e-05 -1.8564067e-19)
(0.00066705368 5.991996e-05 -1.4806856e-19)
(0.00061784113 6.0151621e-05 1.0985941e-19)
(0.00056987757 6.0189311e-05 6.3451285e-20)
(0.00052321915 6.0043454e-05 2.2641123e-19)
(0.00047790514 5.975198e-05 1.2384902e-19)
(0.0004339878 5.9277928e-05 3.0665941e-19)
(0.00039149656 5.8665387e-05 1.2031136e-19)
(0.00035045846 5.7922528e-05 -5.79486e-19)
(0.00031090927 5.7059148e-05 -1.5979339e-19)
(0.00027285717 5.6089925e-05 4.2070421e-19)
(7.4167481e-05 -0.00067777341 3.8930897e-19)
(0.00016658529 -0.00067165114 6.3202922e-20)
(0.00027155188 -0.0006644129 -1.0624916e-19)
(0.00037237 -0.00065610197 -3.0068894e-20)
(0.00047441719 -0.00064776859 -1.8947664e-19)
(0.0005746942 -0.00063963189 -8.605831e-20)
(0.00067307433 -0.00063146201 -5.6800418e-20)
(0.000769441 -0.00062302042 8.2175059e-21)
(0.00086360122 -0.00061411485 3.0524306e-20)
(0.00095534157 -0.0006046114 2.8170298e-20)
(0.0010444472 -0.00059442966 7.5444354e-20)
(0.001130702 -0.00058352914 4.1648285e-20)
(0.0012138916 -0.0005718987 1.3358977e-19)
(0.0012938082 -0.00055954636 9.9430696e-20)
(0.0013702551 -0.00054649351 3.069984e-20)
(0.0014430473 -0.00053276917 9.9219155e-20)
(0.0015120129 -0.00051840911 3.1398294e-20)
(0.0015769941 -0.00050345356 6.8708307e-20)
(0.0016378487 -0.00048794597 9.4537852e-20)
(0.0016944491 -0.00047193178 2.4246349e-21)
(0.001746685 -0.00045545932 5.0389057e-20)
(0.0017944631 -0.00043857708 6.1648361e-20)
(0.0018377057 -0.0004213349 -7.9869847e-20)
(0.0018763518 -0.00040378345 -7.3441148e-20)
(0.001910358 -0.00038597499 1.1650328e-19)
(0.0019396972 -0.00036796107 6.7085814e-20)
(0.0019643587 -0.00034979136 -1.546573e-19)
(0.0019843458 -0.00033151716 -7.9162655e-20)
(0.0019996817 -0.0003131917 9.2637576e-20)
(0.0020104025 -0.00029486081 7.1983546e-20)
(0.0020165616 -0.00027657425 -1.4861551e-19)
(0.0020182252 -0.00025837368 -2.2247299e-19)
(0.002015476 -0.00024031288 5.7255748e-20)
(0.0020084118 -0.00022243191 2.133707e-19)
(0.0019971359 -0.00020477759 -5.3720431e-20)
(0.0019817714 -0.00018738663 -3.5346842e-19)
(0.0019624465 -0.00017029859 -8.1808653e-20)
(0.0019392985 -0.00015355479 1.4352578e-19)
(0.0019124825 -0.00013718636 -2.3745369e-19)
(0.0018821604 -0.00012122473 -2.3185545e-19)
(0.001848498 -0.00010570026 2.4353995e-21)
(0.0018116719 -9.0643844e-05 7.7956948e-20)
(0.0017718565 -7.6080774e-05 1.7336756e-19)
(0.0017292421 -6.2035769e-05 2.2833562e-19)
(0.0016840285 -4.852691e-05 9.5791201e-20)
(0.0016364114 -3.5562806e-05 -1.6399481e-19)
(0.0015865955 -2.3152453e-05 -8.4163922e-20)
(0.0015347638 -1.1350317e-05 1.2122796e-19)
(0.0014810686 -1.6012861e-07 2.839082e-19)
(0.0014256482 1.0416168e-05 3.8193871e-19)
(0.0013688401 2.0275269e-05 -3.5042381e-20)
(0.0013109121 2.9535992e-05 -4.5095519e-19)
(0.0012519571 3.8237194e-05 -7.4890986e-20)
(0.001192146 4.6374496e-05 2.5379812e-19)
(0.0011316691 5.3935805e-05 -4.5572788e-20)
(0.0010707219 6.0920845e-05 -2.5630417e-19)
(0.001009472 6.7350115e-05 -1.9893454e-19)
(0.00094809485 7.3190803e-05 -4.6216576e-20)
(0.00088676211 7.84798e-05 3.2121548e-21)
(0.00082562549 8.3231563e-05 -9.4350167e-20)
(0.00076485514 8.7439266e-05 2.7401948e-20)
(0.00070457543 9.1138908e-05 1.4789495e-19)
(0.00064492972 9.4336695e-05 -3.2055916e-20)
(0.00058606805 9.7053147e-05 -1.0804104e-19)
(0.00052808741 9.9313095e-05 -4.7926884e-21)
(0.00047111131 0.00010113346 1.5597557e-19)
(0.0004152475 0.00010253438 -9.0400997e-20)
(0.00036059033 0.00010352815 -3.3339413e-19)
(0.00030725492 0.00010414359 -1.5773801e-19)
(0.00025528325 0.00010440287 -1.1876558e-19)
(0.00020474215 0.0001043269 5.9645626e-20)
(0.00015573476 0.00010393741 7.8809114e-20)
(0.00010830172 0.00010325465 -9.4895328e-20)
(6.2516423e-05 0.00010230026 -9.6058929e-20)
(1.8367619e-05 0.00010109738 1.4001629e-19)
(-2.4100754e-05 9.9664187e-05 4.10983e-19)
(-6.4813742e-05 9.8014454e-05 -1.659086e-19)
(-0.00010378329 9.6183415e-05 -4.9888197e-19)
(-0.00014099131 9.4180284e-05 7.7055459e-20)
(-0.00017643061 9.2026156e-05 1.0236201e-19)
(6.592957e-05 -0.00087998032 4.6739527e-19)
(0.00014910049 -0.00087301232 -1.5190385e-20)
(0.00024456088 -0.00086462764 -2.0439355e-19)
(0.00033677588 -0.00085469047 -3.5142e-19)
(0.00043055337 -0.00084436366 -2.1129977e-19)
(0.0005228334 -0.00083388332 -4.1751377e-20)
(0.00061336099 -0.00082304078 6.0175914e-20)
(0.00070190621 -0.00081162034 7.3617902e-20)
(0.00078822071 -0.0007994406 8.1177414e-20)
(0.00087206679 -0.00078637309 9.2240184e-20)
(0.0009532222 -0.00077234071 1.7120333e-19)
(0.0010314717 -0.0007573071 1.0008074e-19)
(0.0011066056 -0.00074126807 1.3860749e-19)
(0.0011784233 -0.00072424123 1.617545e-19)
(0.0012467353 -0.00070625916 5.9522892e-20)
(0.0013113647 -0.00068736515 1.2419787e-19)
(0.001372147 -0.00066761073 8.0786328e-20)
(0.0014289314 -0.0006470533 1.0590585e-19)
(0.0014815828 -0.00062575389 8.914943e-20)
(0.0015299817 -0.00060377764 -1.5690216e-20)
(0.0015740251 -0.00058119241 2.8484541e-20)
(0.0016136268 -0.0005580666 1.230699e-19)
(0.0016487169 -0.00053447057 7.9527905e-20)
(0.0016792418 -0.00051047639 1.4620101e-19)
(0.0017051662 -0.00048615588 2.187477e-19)
(0.0017264731 -0.00046158201 -2.8878861e-20)
(0.0017431603 -0.00043682473 -2.5295841e-19)
(0.0017552386 -0.0004119569 -1.4856797e-19)
(0.0017627425 -0.00038704759 7.8981911e-20)
(0.0017657156 -0.00036216606 3.2657753e-20)
(0.001764222 -0.00033738138 -1.7870829e-19)
(0.0017583378 -0.00031275223 5.3820601e-21)
(0.0017481552 -0.00028835065 1.443398e-19)
(0.0017337815 -0.00026423078 1.2692271e-19)
(0.0017153314 -0.00024045912 -1.7334353e-19)
(0.0016929378 -0.00021708317 -4.5913312e-19)
(0.0016667341 -0.00019416194 -7.9979313e-20)
(0.0016368737 -0.00017174871 1.241818e-19)
(0.0016035229 -0.00014988278 -1.8626141e-19)
(0.0015668492 -0.00012861096 -3.0884618e-19)
(0.0015270252 -0.00010797232 -2.438372e-19)
(0.0014842363 -8.8003687e-05 2.1596526e-19)
(0.0014386694 -6.8743847e-05 4.4062745e-19)
(0.0013905225 -5.0221968e-05 9.1691415e-20)
(0.0013400102 -3.2476199e-05 -2.2542232e-19)
(0.0012873327 -1.5507604e-05 -1.8859162e-19)
(0.0012326455 6.4015793e-07 9.6375037e-20)
(0.0011761639 1.5948302e-05 4.0502186e-19)
(0.0011181421 3.041666e-05 1.8239374e-19)
(0.0010587532 4.406238e-05 -7.6458103e-20)
(0.00099819804 5.6953029e-05 1.016011e-19)
(0.00093670359 6.8981937e-05 8.2665012e-21)
(0.000874455 8.0163651e-05 -1.0725208e-19)
(0.00081163447 9.0490407e-05 7.6535802e-21)
(0.00074843573 9.9983755e-05 2.332559e-20)
(0.00068506123 0.0001086544 -2.5269621e-20)
(0.00062164633 0.00011653033 -3.2394218e-19)
(0.00055837349 0.00012360304 -3.7043575e-19)
(0.00049545047 0.00012990613 -4.9492535e-20)
(0.00043298852 0.00013545392 2.617025e-20)
(0.00037115812 0.00014027109 1.5077978e-19)
(0.00031011057 0.00014437492 2.7223814e-19)
(0.00024996868 0.00014780511 1.1631058e-19)
(0.00019087737 0.00015056844 -1.9666624e-19)
(0.00013294325 0.00015270854 -4.2266391e-19)
(7.627316e-05 0.00015425739 -2.3881436e-20)
(2.0963848e-05 0.00015523715 1.5794771e-19)
(-3.2883884e-05 0.00015567995 3.2363202e-20)
(-8.5171725e-05 0.00015561707 -2.6393023e-19)
(-0.00013584324 0.00015505749 -4.8720406e-19)
(-0.00018483448 0.00015406836 8.7623267e-20)
(-0.00023207629 0.0001526648 3.5993191e-19)
(-0.00027752069 0.00015087587 1.7840221e-19)
(-0.00032112202 0.00014873417 -1.56293e-19)
(-0.0003628587 0.00014624409 -2.2530819e-19)
(-0.00040270106 0.00014348575 -6.937728e-20)
(-0.00044061777 0.00014045415 -2.5849982e-19)
(-0.0004766015 0.00013718343 -2.1677029e-20)
(-0.00051064622 0.0001336994 7.5235423e-20)
(-0.00054275255 0.00013002925 -2.2058537e-19)
(6.0005485e-05 -0.0010609603 4.5391247e-19)
(0.00013623636 -0.0010547872 -2.1754203e-20)
(0.00022433127 -0.0010463452 -1.0906291e-19)
(0.00030988531 -0.0010358243 -2.5365583e-19)
(0.00039721795 -0.0010242711 -1.6696365e-19)
(0.00048330624 -0.0010119533 -1.3870632e-19)
(0.00056780398 -0.00099877005 -5.290401e-20)
(0.00065039398 -0.00098458398 -2.7049987e-20)
(0.00073077918 -0.00096926593 8.6310686e-20)
(0.00080869549 -0.00095272181 3.5812694e-20)
(0.0008839083 -0.00093489747 9.2224135e-20)
(0.00095619757 -0.00091577384 6.9005943e-20)
(0.0010253535 -0.00089536098 4.3674429e-20)
(0.0010911789 -0.00087369121 3.0016805e-20)
(0.0011534889 -0.00085081139 1.6632576e-20)
(0.001212111 -0.00082678123 1.4495263e-19)
(0.0012668865 -0.00080166903 7.5297911e-20)
(0.0013176705 -0.00077555012 3.641418e-20)
(0.0013643334 -0.0007485051 6.4084953e-20)
(0.0014067606 -0.00072061731 6.9363838e-20)
(0.0014448556 -0.00069197555 1.1240609e-19)
(0.0014785387 -0.00066266951 1.5546886e-19)
(0.0015077445 -0.00063278879 1.831529e-19)
(0.0015324263 -0.00060242805 1.2392206e-19)
(0.0015525554 -0.00057167859 9.9768484e-20)
(0.0015681206 -0.00054063325 -2.8057398e-20)
(0.0015791256 -0.00050938744 -1.4586972e-19)
(0.0015855882 -0.00047803269 -1.4242841e-19)
(0.0015875493 -0.00044665311 -7.8478477e-20)
(0.0015850597 -0.00041534335 -3.2990975e-20)
(0.0015781931 -0.00038419052 2.1193841e-20)
(0.0015670269 -0.00035327324 1.4993764e-19)
(0.001551662 -0.00032267697 6.3420816e-20)
(0.0015322138 -0.00029247535 -1.7159571e-19)
(0.001508803 -0.00026275382 -2.5423172e-19)
(0.0014815693 -0.00023357285 -1.0958641e-19)
(0.0014506515 -0.00020500297 -5.4342281e-20)
(0.0014162139 -0.0001771154 -1.5389869e-19)
(0.0013784254 -0.00014995904 -2.248562e-19)
(0.0013374586 -0.00012359927 -3.4244215e-19)
(0.001293497 -9.8074102e-05 -2.6565411e-19)
(0.0012467258 -7.3443109e-05 6.8638363e-20)
(0.0011973329 -4.9740076e-05 1.3255359e-19)
(0.0011455181 -2.7007427e-05 -3.3258027e-20)
(0.0010915144 -5.2559954e-06 -6.108792e-21)
(0.0010355142 1.5466338e-05 1.0872755e-19)
(0.00097771373 3.5116474e-05 1.8781211e-19)
(0.00091834101 5.3722621e-05 7.683954e-20)
(0.0008575845 7.1264402e-05 -4.7402962e-20)
(0.00079565035 8.7713495e-05 -8.7961737e-21)
(0.00073274671 0.00010308974 3.2987587e-20)
(0.00066909087 0.00011737526 3.7519662e-20)
(0.00060487876 0.00013057459 6.9982512e-20)
(0.00054028994 0.00014270923 -7.0921769e-20)
(0.00047552678 0.00015376771 -1.5525319e-19)
(0.0004107873 0.00016377927 8.5655944e-20)
(0.00034621542 0.0001727538 6.7023901e-21)
(0.00028198833 0.00018072425 -1.6860202e-19)
(0.00021829385 0.00018772146 -1.7516492e-19)
(0.00015526969 0.00019372702 -2.1219079e-19)
(9.3083233e-05 0.00019880968 1.6827609e-20)
(3.1864857e-05 0.00020299522 2.5135719e-19)
(-2.8259348e-05 0.00020632794 2.5572939e-19)
(-8.7141871e-05 0.00020883408 8.7271662e-21)
(-0.00014467368 0.00021054897 -2.6527724e-19)
(-0.00020076027 0.00021151515 -1.3693295e-19)
(-0.00025530332 0.00021176978 -8.9360137e-20)
(-0.00030821114 0.00021136069 -1.2267637e-20)
(-0.00035940026 0.00021031986 -4.2090971e-20)
(-0.00040880474 0.0002086815 -2.1760808e-19)
(-0.00045636401 0.00020649677 -4.608309e-20)
(-0.00050202193 0.00020380257 5.8671388e-20)
(-0.00054573391 0.00020063793 7.1243867e-20)
(-0.00058746314 0.00019704181 5.2875025e-20)
(-0.00062718401 0.00019304884 3.9501625e-20)
(-0.00066487438 0.00018870811 -1.3313255e-19)
(-0.00070051763 0.00018405028 -3.0677375e-19)
(-0.00073410743 0.00017911152 -7.0177643e-20)
(-0.0007656434 0.00017392612 -3.464163e-20)
(-0.00079513191 0.00016852788 -7.9269321e-20)
(5.71175e-05 -0.0012294593 4.9885409e-19)
(0.00012970941 -0.0012246344 -2.5093284e-19)
(0.00021379053 -0.0012166656 -2.621325e-19)
(0.00029566835 -0.0012060989 -3.0068856e-20)
(0.00037939171 -0.0011937505 -7.8604203e-20)
(0.00046202219 -0.0011799174 -2.7117131e-19)
(0.00054317578 -0.0011646266 -1.8321714e-19)
(0.00062248743 -0.0011478383 -2.2136107e-20)
(0.00069962646 -0.0011294943 2.4629515e-20)
(0.00077430507 -0.0011095499 3.729177e-20)
(0.00084627284 -0.0010879861 1.0235058e-19)
(0.00091530003 -0.0010648094 1.0345754e-19)
(0.00098117074 -0.0010400501 1.2469461e-19)
(0.001043685 -0.0010137592 7.3871872e-20)
(0.0011026569 -0.00098600102 1.7418675e-20)
(0.0011579144 -0.0009568536 1.157739e-19)
(0.0012092996 -0.00092640332 9.2639489e-20)
(0.001256669 -0.00089474323 7.8199218e-20)
(0.0012998963 -0.00086197612 1.4301995e-19)
(0.0013388688 -0.00082820332 1.0136119e-19)
(0.0013734918 -0.00079353417 1.1515171e-19)
(0.001403691 -0.00075808049 1.2566832e-19)
(0.0014294036 -0.00072195215 1.8992736e-19)
(0.0014505861 -0.00068526643 1.9211879e-19)
(0.0014672145 -0.0006481344 9.0236364e-20)
(0.0014792792 -0.00061066966 1.3911988e-20)
(0.0014867894 -0.00057299305 -7.678074e-20)
(0.0014897716 -0.00053521321 -1.2295483e-19)
(0.0014882677 -0.00049743496 -8.9448361e-20)
(0.0014823312 -0.00045976967 1.5458682e-20)
(0.0014720456 -0.00042232941 9.5365195e-20)
(0.0014574939 -0.00038521512 1.3353926e-19)
(0.0014387813 -0.00034851707 3.6958632e-20)
(0.0014160223 -0.00031233928 -6.7643783e-20)
(0.0013893474 -0.00027677479 -1.0358694e-19)
(0.0013589097 -0.00024189975 -1.5798042e-19)
(0.0013248431 -0.00020780552 -1.8045181e-19)
(0.0012873187 -0.00017457353 -2.9968556e-19)
(0.0012465117 -0.00014226412 -2.6037251e-19)
(0.0012026071 -0.0001109536 -1.9507344e-19)
(0.0011557844 -8.0694132e-05 -1.5247506e-19)
(0.001106238 -5.1543834e-05 -2.5573387e-19)
(0.0010541676 -2.3566516e-05 -2.0176304e-19)
(0.00099979712 3.2460242e-06 1.1145316e-19)
(0.0009433357 2.8828886e-05 2.2486537e-19)
(0.00088495239 5.3140985e-05 2.4161952e-19)
(0.00082487922 7.6155431e-05 2.297229e-19)
(0.00076334574 9.7854212e-05 -5.1053542e-20)
(0.00070054791 0.00011821742 -2.2924048e-20)
(0.00063669949 0.00013724686 -4.0850709e-20)
(0.0005720099 0.00015494099 -1.7114037e-19)
(0.0005066879 0.00017130005 -4.4151541e-20)
(0.00044095371 0.00018631938 -6.6245459e-21)
(0.00037496812 0.00020002898 -5.3472515e-20)
(0.0003089275 0.00021244405 -5.5238401e-20)
(0.00024305294 0.00022357134 1.7164729e-21)
(0.00017747815 0.00023346162 -8.9717565e-21)
(0.0001123991 0.00024211573 3.3920247e-20)
(4.7967078e-05 0.00024953667 -4.9374662e-20)
(-1.5677228e-05 0.00025579599 -2.5164021e-19)
(-7.832342e-05 0.00026093711 -1.0141365e-19)
(-0.00013985276 0.00026499355 3.9400327e-20)
(-0.00020015095 0.00026802001 1.4111579e-19)
(-0.00025908611 0.00027005894 1.2153028e-19)
(-0.00031654582 0.00027114636 -8.0533901e-20)
(-0.00037242848 0.00027133354 -6.9561627e-20)
(-0.00042663928 0.00027067038 -1.4520019e-19)
(-0.00047909162 0.00026920846 -5.7694423e-20)
(-0.00052970755 0.00026699577 5.0914615e-20)
(-0.00057842126 0.00026408116 -7.1326206e-20)
(-0.00062517481 0.00026051717 -3.1709179e-20)
(-0.00066991724 0.00025635345 -4.3341333e-20)
(-0.00071260767 0.00025163899 -6.760998e-20)
(-0.00075321348 0.0002464222 1.2985333e-20)
(-0.00079171084 0.0002407505 8.3500292e-20)
(-0.00082808239 0.00023467314 -2.5819076e-20)
(-0.00086231757 0.00022823456 -1.7366518e-19)
(-0.00089441374 0.00022147869 -1.6623373e-19)
(-0.00092437489 0.00021444781 -1.6021703e-19)
(-0.00095221148 0.0002071829 -3.4268692e-20)
(5.6620138e-05 -0.0013935152 6.3030859e-19)
(0.00012837158 -0.0013899044 -4.4446566e-20)
(0.00021138842 -0.0013824495 -2.0855834e-19)
(0.00029223095 -0.0013719279 -2.2833025e-19)
(0.00037488073 -0.0013588947 -1.14123e-19)
(0.00045647712 -0.0013436595 -3.5201543e-20)
(0.00053663981 -0.001326357 -8.4897448e-20)
(0.00061498983 -0.0013070369 9.0613801e-20)
(0.00069117912 -0.0012857114 1.3100273e-19)
(0.00076490228 -0.0012623884 1.2417428e-19)
(0.00083589355 -0.0012370877 1.4022227e-19)
(0.00090391091 -0.0012098458 1.3835438e-19)
(0.00096872802 -0.0011807169 1.9369822e-19)
(0.0010301376 -0.0011497738 1.4288199e-19)
(0.0010879484 -0.0011170999 5.8523675e-20)
(0.0011419842 -0.0010827934 7.1968335e-20)
(0.0011920855 -0.0010469607 5.3484516e-20)
(0.0012381053 -0.0010097139 8.0651465e-20)
(0.001279917 -0.00097117645 1.6609907e-19)
(0.0013174087 -0.00093147082 1.5526557e-19)
(0.0013504844 -0.00089072785 1.5206435e-19)
(0.0013790714 -0.00084907932 2.2898212e-19)
(0.0014031076 -0.00080665843 3.1428901e-19)
(0.0014225518 -0.00076360503 3.2892373e-19)
(0.001437383 -0.00072004967 1.4656871e-19)
(0.0014475908 -0.00067613046 1.1483208e-19)
(0.0014531892 -0.0006319871 -1.0496101e-20)
(0.0014542121 -0.00058774895 -1.0700678e-19)
(0.0014507051 -0.00054354595 -8.3612839e-20)
(0.0014427198 -0.00049950632 4.2960966e-20)
(0.0014303424 -0.00045575991 1.9853682e-19)
(0.0014136705 -0.00041243234 2.7327082e-19)
(0.0013928085 -0.00036962762 1.380071e-19)
(0.0013678764 -0.00032746915 7.278479e-20)
(0.0013390192 -0.00028606217 -2.3654644e-20)
(0.0013063807 -0.00024550645 -1.2382709e-19)
(0.001270099 -0.00020591099 -1.3353553e-19)
(0.0012303657 -0.00016734659 -3.1558882e-19)
(0.0011873593 -0.00012990804 -2.7756183e-19)
(0.0011412629 -9.3669597e-05 -1.9397396e-19)
(0.0010922743 -5.8710067e-05 -2.1117321e-19)
(0.0010405706 -2.5080643e-05 -1.5898262e-19)
(0.00098640253 7.1676803e-06 -9.8026419e-20)
(0.00092996661 3.7987653e-05 1.1534545e-20)
(0.00087144681 6.7301198e-05 1.1741881e-19)
(0.00081107169 9.5106408e-05 2.8076995e-19)
(0.00074905725 0.00012135443 2.8158333e-19)
(0.00068563704 0.00014603853 4.6608057e-20)
(0.0006210189 0.00016913049 -5.2649669e-20)
(0.00055542302 0.00019063266 -9.9915985e-20)
(0.00048905544 0.00021055025 -2.1016969e-19)
(0.00042212716 0.00022886959 -1.1151091e-19)
(0.00035485855 0.00024560728 -6.5284338e-20)
(0.00028744205 0.00026076642 -6.8626794e-20)
(0.00022005639 0.00027442592 2.3722639e-20)
(0.00015293326 0.00028656706 3.5550156e-20)
(8.6200627e-05 0.00029720339 -6.2782322e-20)
(1.9985159e-05 0.00030639819 -2.948293e-20)
(-4.5454354e-05 0.000314123 -2.0800082e-20)
(-0.00010994929 0.00032050904 -1.8165063e-19)
(-0.00017337441 0.00032558774 -1.2654306e-19)
(-0.00023559182 0.00032939217 -3.6625288e-20)
(-0.0002964731 0.00033198101 -2.1833723e-20)
(-0.00035589381 0.00033340875 -2.7192579e-20)
(-0.00041374116 0.00033372962 -5.6055294e-20)
(-0.00046991229 0.0003330021 -5.475669e-20)
(-0.00052431331 0.00033128578 -1.2237288e-19)
(-0.00057685958 0.00032864111 -3.1593412e-21)
(-0.00062747579 0.00032512798 6.0686636e-20)
(-0.00067609692 0.00032080642 -4.1775643e-20)
(-0.00072266681 0.00031573754 -2.8234763e-20)
(-0.00076713775 0.00030998123 -5.8047089e-20)
(-0.00080947126 0.00030359655 1.8567143e-20)
(-0.00084963745 0.0002966417 5.9908523e-20)
(-0.00088761476 0.00028917386 -1.044288e-20)
(-0.0009233891 0.00028124944 -1.1647828e-19)
(-0.00095695373 0.00027292243 -1.7662383e-19)
(-0.00098830925 0.00026424518 -4.5392709e-20)
(-0.0010174631 0.00025526805 -9.21118e-20)
(-0.001044429 0.00024603951 -9.9526201e-20)
(5.7676447e-05 -0.0015587356 7.7075134e-19)
(0.00013052873 -0.0015559649 1.2190513e-19)
(0.00021460858 -0.0015488069 -2.9443483e-19)
(0.00029635687 -0.0015381607 -3.2102897e-19)
(0.00037983021 -0.001524345 -1.9991839e-19)
(0.00046220553 -0.0015076654 -6.0067359e-20)
(0.00054312649 -0.0014883316 -7.9485796e-20)
(0.00062222089 -0.0014664624 -7.1134191e-22)
(0.00069913488 -0.0014421304 5.7175035e-20)
(0.00077355124 -0.0014153908 1.0643082e-19)
(0.00084519137 -0.0013863013 3.9050035e-20)
(0.00091380061 -0.0013549285 4.4609113e-20)
(0.0009791404 -0.0013213534 8.8519422e-20)
(0.0010409942 -0.0012856705 5.2425133e-20)
(0.0010991622 -0.0012479855 2.9684349e-20)
(0.0011534609 -0.0012084169 9.6096834e-20)