/*--------------------------------*- C++ -*----------------------------------*\
| =========                 |                                                 |
| \\      /  F ield         | OpenFOAM: The Open Source CFD Toolbox           |
|  \\    /   O peration     | Version:  2106                                  |
|   \\  /    A nd           | Website:  www.openfoam.com                      |
|    \\/     M anipulation  |                                                 |
\*---------------------------------------------------------------------------*/
FoamFile
{
    version     2.0;
    format      ascii;
    arch        "LSB;label=32;scalar=64";
    class       volScalarField;
    location    "0.037";
    object      reconstructedDistanceFunction;
}
// * * * * * * * * * * * * * * * * * * * * * * * * * * * * * * * * * * * * * //

dimensions      [0 1 0 0 0 0 0];

internalField   nonuniform List<scalar> 
1024
(
0
0
0
0
0
0
0
0
0
0
0
0
0
0
0
0
0
0
0
0
0
0
0
0
0
0
0
0
0
0
0
0
0
0
0
0
0
0
0
0
0
0
0
0
0
0
0
0
0
0
0
0
0
0
0
0
0
0
0
0
0
0
0
0
0
0
0
0
0
0
0
0
0
0
0
0
0
0
0
0
0
0
0
0
0
0
0
0
0
0
0
0
0
0
0
0
0
0
0
0
0
0
0
0
0
0
0
0
0
0
0
0
0
0
0
0
0
0
0
0
0
0
0
0
0
0
0
0
0
0
0
0
0
0
0
0
0
0
0
0
0
0
0
0
0
0
0
0
0
0
0
0
0
0
0
0
0
0
0
0
0
0
0
0
0
0
0
0
0
0
0
0
0
0
0
0
0
0
0
0
0
0
0
0
0
0
0
0
0
0
0
0
0
0
0
0
0
0
0
0
0
0
0
0
0
0
0
0
0
0
0
0
0
0
0
0
0
0
0
0
0
0
0
0
0
0
0
0
0
0
0
0
0
0
0
0
0
0
0
0
0
0
0
0
0
0
0
0
0
0
0
0
0
0
0
0
0
0
0
0
0
0
0
0
0
0
0
0
0
0
0
0
0
0
0
0
0
0
0
0
0
0
0
0
0
0
0
0
0
0
0
0
0
0
0
0
0
0
0
0
0
0
0
0
0
0
0
0
0
0
0
0
0
0
0
0
0
0
0
0
0
0
0
0
0
0
0
0
0
0
0
0
0
0
0
0
0
0
0
0
0
0
0
0
0
0
0
0
0
0
0
0
0
0
0
0
0
0
0
0
0
0
0
0
0
0
0
0
0
0
0
0
0
0
0
0
0
0
0
0
0
0
0
0
0.10917424
0.10918185
0.10919704
0.1092189
0.10924675
0.10927982
0.10931609
0.10935518
0.10939465
0.10943375
0.10947005
0
0
0
0
0
0
0
0
0
0
0.10947005
0.10943374
0.10939465
0.10935518
0.10931609
0.10927982
0.10924676
0.1092189
0.10919704
0.10918185
0.10917424
0.077924239
0.077931855
0.077947044
0.077968911
0.077996768
0.078029839
0.078066111
0.078105206
0.078144674
0.078183771
0.078220066
0.078253155
0.07828104
0.078302925
0.078318131
0.078325756
0.078325757
0.078318132
0.07830293
0.078281043
0.078253153
0.078220072
0.078183766
0.078144673
0.078105207
0.078066114
0.078029841
0.077996771
0.077968915
0.077947042
0.077931855
0.077924237
0.046674239
0.046681857
0.04669705
0.046718921
0.046746783
0.046779858
0.046816134
0.046855231
0.046894699
0.046933794
0.046970085
0.04700317
0.04703105
0.047052931
0.047068133
0.047075757
0.047075757
0.047068134
0.047052936
0.047031053
0.047003168
0.046970092
0.046933789
0.046894697
0.046855232
0.046816137
0.04677986
0.046746786
0.046718925
0.046697047
0.046681857
0.046674237
0.015424239
0.015431859
0.015447055
0.015468931
0.015496798
0.015529877
0.015566157
0.015605256
0.015644724
0.015683817
0.015720105
0.015753185
0.01578106
0.015802936
0.015818135
0.015825757
0.015825757
0.015818136
0.015802942
0.015781063
0.015753183
0.015720111
0.015683812
0.015644722
0.015605257
0.01556616
0.01552988
0.015496801
0.015468935
0.015447053
0.015431859
0.015424237
-0.015825761
-0.015818139
-0.015802939
-0.015781059
-0.015753187
-0.015720103
-0.01568382
-0.015644719
-0.015605251
-0.01556616
-0.015529876
-0.0154968
-0.01546893
-0.015447058
-0.015431863
-0.015424243
-0.015424243
-0.015431862
-0.015447053
-0.015468927
-0.015496802
-0.015529869
-0.015566165
-0.015605253
-0.015644718
-0.015683817
-0.015720101
-0.015753184
-0.015781055
-0.015802941
-0.015818139
-0.015825763
-0.047075761
-0.047068137
-0.047052933
-0.047031049
-0.047003172
-0.046970084
-0.046933797
-0.046894694
-0.046855226
-0.046816137
-0.046779856
-0.046746785
-0.04671892
-0.046697052
-0.046681861
-0.046674243
-0.046674242
-0.04668186
-0.046697047
-0.046718917
-0.046746787
-0.04677985
-0.046816142
-0.046855228
-0.046894693
-0.046933794
-0.046970081
-0.047003169
-0.047031045
-0.047052935
-0.047068137
-0.047075763
-0.078325761
-0.078318135
-0.078302927
-0.078281039
-0.078253157
-0.078220064
-0.078183774
-0.078144669
-0.078105202
-0.078066114
-0.078029837
-0.07799677
-0.07796891
-0.077947047
-0.077931859
-0.077924242
-0.077924242
-0.077931858
-0.077947042
-0.077968907
-0.077996772
-0.078029831
-0.078066119
-0.078105203
-0.078144668
-0.078183771
-0.078220062
-0.078253154
-0.078281035
-0.07830293
-0.078318135
-0.078325763
0
0
0
0
-0.10950314
-0.10947004
-0.10943375
-0.10939464
-0.10935518
-0.10931609
-0.10927982
-0.10924676
-0.1092189
-0.10919704
-0.10918186
-0.10917424
-0.10917424
-0.10918186
-0.10919704
-0.1092189
-0.10924676
-0.10927981
-0.1093161
-0.10935518
-0.10939464
-0.10943375
-0.10947004
0
0
0
0
0
0
0
0
0
0
0
0
0
0
0
0
0
0
0
0
0
0
0
0
0
0
0
0
0
0
0
0
0
0
0
0
0
0
0
0
0
0
0
0
0
0
0
0
0
0
0
0
0
0
0
0
0
0
0
0
0
0
0
0
0
0
0
0
0
0
0
0
0
0
0
0
0
0
0
0
0
0
0
0
0
0
0
0
0
0
0
0
0
0
0
0
0
0
0
0
0
0
0
0
0
0
0
0
0
0
0
0
0
0
0
0
0
0
0
0
0
0
0
0
0
0
0
0
0
0
0
0
0
0
0
0
0
0
0
0
0
0
0
0
0
0
0
0
0
0
0
0
0
0
0
0
0
0
0
0
0
0
0
0
0
0
0
0
0
0
0
0
0
0
0
0
0
0
0
0
0
0
0
0
0
0
0
0
0
0
0
0
0
0
0
0
0
0
0
0
0
0
0
0
0
0
0
0
0
0
0
0
0
0
0
0
0
0
0
0
0
0
0
0
0
0
0
0
0
0
0
0
0
0
0
0
0
0
0
0
0
0
0
0
0
0
0
0
0
0
0
0
0
0
0
0
0
0
0
0
0
0
0
0
0
0
0
0
0
0
0
0
0
0
0
0
0
0
0
0
0
0
0
0
0
0
0
0
0
0
0
0
0
0
0
0
0
0
0
0
0
0
0
0
0
0
0
0
0
0
0
0
0
0
0
0
0
0
0
0
0
0
0
0
0
0
0
0
0
0
0
0
0
0
0
0
0
0
0
0
0
0
0
0
0
0
0
0
0
0
0
0
0
0
0
0
0
0
0
0
0
0
0
0
0
0
0
0
0
0
0
0
0
0
0
0
0
0
0
0
0
0
0
0
0
0
0
0
0
)
;

boundaryField
{
    leftWall
    {
        type            cyclic;
    }
    rightWall
    {
        type            cyclic;
    }
    lowerWall
    {
        type            calculated;
        value           uniform 0;
    }
    atmosphere
    {
        type            calculated;
        value           uniform 0;
    }
    defaultFaces
    {
        type            empty;
    }
}


// ************************************************************************* //
