/*--------------------------------*- C++ -*----------------------------------*\
| =========                 |                                                 |
| \\      /  F ield         | OpenFOAM: The Open Source CFD Toolbox           |
|  \\    /   O peration     | Version:  2106                                  |
|   \\  /    A nd           | Website:  www.openfoam.com                      |
|    \\/     M anipulation  |                                                 |
\*---------------------------------------------------------------------------*/
FoamFile
{
    version     2.0;
    format      ascii;
    arch        "LSB;label=32;scalar=64";
    class       surfaceScalarField;
    location    "0.026";
    object      phi;
}
// * * * * * * * * * * * * * * * * * * * * * * * * * * * * * * * * * * * * * //

dimensions      [0 3 -1 0 0 0 0];

oriented        oriented;

internalField   nonuniform List<scalar> 
130560
(
-1.2444575e-05
1.2444575e-05
-2.4882057e-05
1.2437482e-05
-3.7305356e-05
1.2423299e-05
-4.970739e-05
1.2402034e-05
-6.2081084e-05
1.2373694e-05
-7.441938e-05
1.2338295e-05
-8.6715232e-05
1.2295853e-05
-9.8961618e-05
1.2246386e-05
-0.00011115154
1.2189918e-05
-0.00012327801
1.2126476e-05
-0.0001353341
1.2056089e-05
-0.00014731289
1.197879e-05
-0.00015920751
1.1894615e-05
-0.00017101111
1.1803604e-05
-0.00018271691
1.17058e-05
-0.00019431816
1.1601249e-05
-0.00020580816
1.149e-05
-0.00021718027
1.1372107e-05
-0.00022842789
1.1247625e-05
-0.00023954451
1.1116615e-05
-0.00025052364
1.0979138e-05
-0.00026135891
1.0835262e-05
-0.00027204396
1.0685056e-05
-0.00028257255
1.0528592e-05
-0.0002929385
1.0365948e-05
-0.0003031357
1.0197202e-05
-0.00031315814
1.0022438e-05
-0.00032299988
9.8417419e-06
-0.00033265509
9.6552035e-06
-0.000342118
9.4629156e-06
-0.00035138298
9.2649745e-06
-0.00036044446
9.0614798e-06
-0.00036929699
8.8525344e-06
-0.00037793524
8.6382444e-06
-0.00038635395
8.4187192e-06
-0.00039454803
8.1940716e-06
-0.00040251244
7.9644173e-06
-0.00041024232
7.7298755e-06
-0.00041773289
7.4905684e-06
-0.00042497951
7.2466215e-06
-0.00043197767
6.9981632e-06
-0.000438723
6.7453251e-06
-0.00044521124
6.488242e-06
-0.00045143829
6.2270514e-06
-0.00045740018
5.961894e-06
-0.0004630931
5.6929133e-06
-0.00046851335
5.4202557e-06
-0.00047365742
5.1440704e-06
-0.00047852193
4.8645095e-06
-0.00048310366
4.5817275e-06
-0.00048739954
4.295882e-06
-0.00049140668
4.0071326e-06
-0.00049512232
3.7156419e-06
-0.00049854389
3.4215747e-06
-0.00050166899
3.1250982e-06
-0.00050449537
2.826382e-06
-0.00050702097
2.5255977e-06
-0.00050924389
2.2229192e-06
-0.00051116241
1.9185223e-06
-0.000512775
1.6125848e-06
-0.00051408028
1.3052864e-06
-0.00051507709
9.9680848e-07
-0.00051576442
6.8733271e-07
-0.00051614146
3.7704067e-07
-0.0005162076
6.613245e-08
-0.00051596238
-2.452173e-07
-0.00051540556
-5.5681845e-07
-0.00051453708
-8.6848054e-07
-0.00051335707
-1.1800124e-06
-0.00051186585
-1.4912227e-06
-0.00051006393
-1.8019191e-06
-0.00050795202
-2.1119089e-06
-0.00050553102
-2.4209988e-06
-0.00050280202
-2.7289953e-06
-0.00049976632
-3.0357043e-06
-0.00049642539
-3.3409322e-06
-0.0004927809
-3.644485e-06
-0.00048883473
-3.9461691e-06
-0.00048458894
-4.2457912e-06
-0.00048004578
-4.5431585e-06
-0.0004752077
-4.8380788e-06
-0.00047007734
-5.1303608e-06
-0.00046465753
-5.419814e-06
-0.00045895128
-5.7062489e-06
-0.0004529618
-5.9894775e-06
-0.00044669249
-6.2693129e-06
-0.00044014692
-6.5455698e-06
-0.00043332886
-6.8180647e-06
-0.00042624224
-7.0866157e-06
-0.0004188912
-7.3510432e-06
-0.00041128003
-7.6111693e-06
-0.00040341321
-7.8668187e-06
-0.00039529539
-8.1178184e-06
-0.00038693139
-8.363998e-06
-0.0003783262
-8.6051899e-06
-0.00036948497
-8.8412293e-06
-0.00036041302
-9.0719543e-06
-0.00035111581
-9.2972063e-06
-0.00034159898
-9.5168301e-06
-0.00033186831
-9.7306737e-06
-0.00032192972
-9.9385888e-06
-0.00031178929
-1.0140431e-05
-0.00030145323
-1.0336059e-05
-0.00029092789
-1.0525337e-05
-0.00028021976
-1.0708132e-05
-0.00026933544
-1.0884315e-05
-0.00025828168
-1.1053763e-05
-0.00024706532
-1.1216356e-05
-0.00023569335
-1.1371979e-05
-0.00022417282
-1.1520522e-05
-0.00021251094
-1.166188e-05
-0.00020071499
-1.1795951e-05
-0.00018879235
-1.192264e-05
-0.00017675049
-1.2041858e-05
-0.00016459698
-1.2153519e-05
-0.00015233943
-1.2257543e-05
-0.00013998558
-1.2353855e-05
-0.00012754319
-1.2442387e-05
-0.00011502012
-1.2523074e-05
-0.00010242426
-1.259586e-05
-8.9763567e-05
-1.266069e-05
-7.7046047e-05
-1.271752e-05
-6.4279739e-05
-1.2766308e-05
-5.1472721e-05
-1.2807018e-05
-3.86331e-05
-1.2839621e-05
-2.5769005e-05
-1.2864095e-05
-1.2888585e-05
-1.288042e-05
3.045735e-16
-1.2888585e-05
1.2888585e-05
-1.2888585e-05
2.5769005e-05
-1.288042e-05
3.86331e-05
-1.2864095e-05
5.1472721e-05
-1.2839621e-05
6.4279739e-05
-1.2807018e-05
7.7046047e-05
-1.2766308e-05
8.9763567e-05
-1.271752e-05
0.00010242426
-1.266069e-05
0.00011502012
-1.259586e-05
0.00012754319
-1.2523074e-05
0.00013998558
-1.2442387e-05
0.00015233943
-1.2353855e-05
0.00016459698
-1.2257543e-05
0.00017675049
-1.2153519e-05
0.00018879235
-1.2041858e-05
0.00020071499
-1.192264e-05
0.00021251094
-1.1795951e-05
0.00022417282
-1.166188e-05
0.00023569335
-1.1520522e-05
0.00024706532
-1.1371979e-05
0.00025828168
-1.1216356e-05
0.00026933544
-1.1053763e-05
0.00028021976
-1.0884315e-05
0.00029092789
-1.0708132e-05
0.00030145323
-1.0525337e-05
0.00031178929
-1.0336059e-05
0.00032192972
-1.0140431e-05
0.00033186831
-9.9385888e-06
0.00034159898
-9.7306737e-06
0.00035111581
-9.5168301e-06
0.00036041302
-9.2972063e-06
0.00036948497
-9.0719543e-06
0.0003783262
-8.8412293e-06
0.00038693139
-8.6051899e-06
0.00039529539
-8.363998e-06
0.00040341321
-8.1178184e-06
0.00041128003
-7.8668187e-06
0.0004188912
-7.6111693e-06
0.00042624224
-7.3510432e-06
0.00043332886
-7.0866157e-06
0.00044014692
-6.8180647e-06
0.00044669249
-6.5455698e-06
0.0004529618
-6.2693129e-06
0.00045895128
-5.9894775e-06
0.00046465753
-5.7062489e-06
0.00047007734
-5.419814e-06
0.0004752077
-5.1303608e-06
0.00048004578
-4.8380788e-06
0.00048458894
-4.5431585e-06
0.00048883473
-4.2457912e-06
0.0004927809
-3.9461691e-06
0.00049642539
-3.644485e-06
0.00049976632
-3.3409322e-06
0.00050280202
-3.0357043e-06
0.00050553102
-2.7289953e-06
0.00050795202
-2.4209988e-06
0.00051006393
-2.1119089e-06
0.00051186585
-1.8019191e-06
0.00051335707
-1.4912227e-06
0.00051453708
-1.1800124e-06
0.00051540556
-8.6848054e-07
0.00051596238
-5.5681845e-07
0.0005162076
-2.452173e-07
0.00051614146
6.613245e-08
0.00051576442
3.7704067e-07
0.00051507709
6.8733271e-07
0.00051408028
9.9680848e-07
0.000512775
1.3052864e-06
0.00051116241
1.6125848e-06
0.00050924389
1.9185223e-06
0.00050702097
2.2229192e-06
0.00050449537
2.5255977e-06
0.00050166899
2.826382e-06
0.00049854389
3.1250982e-06
0.00049512232
3.4215747e-06
0.00049140668
3.7156419e-06
0.00048739954
4.0071326e-06
0.00048310366
4.295882e-06
0.00047852193
4.5817275e-06
0.00047365742
4.8645095e-06
0.00046851335
5.1440704e-06
0.0004630931
5.4202557e-06
0.00045740018
5.6929133e-06
0.00045143829
5.961894e-06
0.00044521124
6.2270514e-06
0.000438723
6.488242e-06
0.00043197767
6.7453251e-06
0.00042497951
6.9981632e-06
0.00041773289
7.2466215e-06
0.00041024232
7.4905684e-06
0.00040251244
7.7298755e-06
0.00039454803
7.9644173e-06
0.00038635395
8.1940716e-06
0.00037793524
8.4187192e-06
0.00036929699
8.6382444e-06
0.00036044446
8.8525344e-06
0.00035138298
9.0614798e-06
0.000342118
9.2649745e-06
0.00033265509
9.4629156e-06
0.00032299988
9.6552035e-06
0.00031315814
9.8417419e-06
0.0003031357
1.0022438e-05
0.0002929385
1.0197202e-05
0.00028257255
1.0365948e-05
0.00027204396
1.0528592e-05
0.00026135891
1.0685056e-05
0.00025052364
1.0835262e-05
0.00023954451
1.0979138e-05
0.00022842789
1.1116615e-05
0.00021718027
1.1247625e-05
0.00020580816
1.1372107e-05
0.00019431816
1.149e-05
0.00018271691
1.1601249e-05
0.00017101111
1.17058e-05
0.00015920751
1.1803604e-05
0.00014731289
1.1894615e-05
0.0001353341
1.197879e-05
0.00012327801
1.2056089e-05
0.00011115154
1.2126476e-05
9.8961618e-05
1.2189918e-05
8.6715232e-05
1.2246386e-05
7.441938e-05
1.2295853e-05
6.2081084e-05
1.2338295e-05
4.970739e-05
1.2373694e-05
3.7305356e-05
1.2402034e-05
2.4882057e-05
1.2423299e-05
1.2444575e-05
1.2437482e-05
1.2444575e-05
-1.2452127e-05
2.4896702e-05
-2.4897157e-05
2.4882512e-05
-3.7327997e-05
2.4854139e-05
-4.973756e-05
2.4811596e-05
-6.2118768e-05
2.4754903e-05
-7.4464559e-05
2.4684086e-05
-8.6767885e-05
2.4599178e-05
-9.9021717e-05
2.4500218e-05
-0.00011121905
2.4387253e-05
-0.00012335291
2.4260334e-05
-0.00013541634
2.4119523e-05
-0.00014740244
2.3964883e-05
-0.00015930431
2.3796488e-05
-0.00017111512
2.3614418e-05
-0.00018282808
2.3418757e-05
-0.00019443643
2.3209598e-05
-0.00020593347
2.298704e-05
-0.00021731255
2.275119e-05
-0.00022856709
2.2502159e-05
-0.00023969054
2.2240067e-05
-0.00025067644
2.1965039e-05
-0.00026151839
2.1677208e-05
-0.00027221004
2.1376713e-05
-0.00028274515
2.10637e-05
-0.00029311753
2.0738322e-05
-0.00030332106
2.0400737e-05
-0.00031334973
2.0051112e-05
-0.00032319761
1.968962e-05
-0.00033285885
1.9316439e-05
-0.00034232769
1.8931756e-05
-0.00035159848
1.8535763e-05
-0.00036066566
1.8128659e-05
-0.00036952377
1.771065e-05
-0.00037816748
1.7281949e-05
-0.00038659153
1.6842774e-05
-0.00039479081
1.6393351e-05
-0.0004027603
1.5933911e-05
-0.00041049512
1.5464693e-05
-0.00041799049
1.4985941e-05
-0.00042524178
1.4497906e-05
-0.00043224446
1.4000846e-05
-0.00043899416
1.3495023e-05
-0.00044548662
1.2980706e-05
-0.00045171774
1.2458172e-05
-0.00045768355
1.1927701e-05
-0.00046338022
1.1389581e-05
-0.00046880407
1.0844105e-05
-0.00047395157
1.029157e-05
-0.00047881934
9.7322817e-06
-0.00048340416
9.1665487e-06
-0.00048770297
8.5946859e-06
-0.00049171285
8.0170132e-06
-0.00049543106
7.4338556e-06
-0.00049885503
6.8455427e-06
-0.00050198234
6.2524093e-06
-0.00050481075
5.6547943e-06
-0.0005073382
5.0530413e-06
-0.00050956277
4.447498e-06
-0.00051148277
3.8385162e-06
-0.00051309663
3.2264515e-06
-0.00051440301
2.6116634e-06
-0.00051540072
1.9945145e-06
-0.00051608875
1.37537e-06
-0.00051646631
7.5459886e-07
-0.00051653276
1.325797e-07
-0.00051628766
-4.9031772e-07
-0.00051573076
-1.1137174e-06
-0.000514862
-1.7372393e-06
-0.00051368151
-2.3605017e-06
-0.00051218961
-2.9831212e-06
-0.00051038682
-3.6047135e-06
-0.00050827384
-4.2248927e-06
-0.00050585156
-4.8432722e-06
-0.00050312109
-5.4594646e-06
-0.00050008372
-6.0730821e-06
-0.00049674091
-6.6837368e-06
-0.00049309436
-7.2910408e-06
-0.00048914592
-7.8946067e-06
-0.00048489766
-8.4940479e-06
-0.00048035184
-9.0889786e-06
-0.00047551091
-9.6790143e-06
-0.00047037749
-1.0263772e-05
-0.00046495444
-1.0842871e-05
-0.00045924475
-1.1415932e-05
-0.00045325165
-1.1982578e-05
-0.00044697853
-1.2542436e-05
-0.00044042896
-1.3095136e-05
-0.00043360672
-1.3640309e-05
-0.00042651574
-1.4177592e-05
-0.00041916016
-1.4706626e-05
-0.00041154427
-1.5227055e-05
-0.00040367257
-1.5738528e-05
-0.00039554969
-1.6240698e-05
-0.00038718046
-1.6733226e-05
-0.00037856987
-1.7215774e-05
-0.00036972309
-1.7688015e-05
-0.00036064542
-1.8149624e-05
-0.00035134234
-1.8600283e-05
-0.00034181949
-1.9039682e-05
-0.00033208265
-1.9467517e-05
-0.00032213774
-1.9883491e-05
-0.00031199086
-2.0287316e-05
-0.00030164821
-2.0678708e-05
-0.00029111615
-2.1057396e-05
-0.00028040117
-2.1423113e-05
-0.00026950988
-2.1775603e-05
-0.00025844903
-2.2114618e-05
-0.00024722547
-2.2439918e-05
-0.00023584617
-2.2751273e-05
-0.00022431823
-2.3048463e-05
-0.00021264884
-2.3331277e-05
-0.00020084527
-2.3599514e-05
-0.00018891493
-2.3852983e-05
-0.00017686529
-2.4091503e-05
-0.0001647039
-2.4314903e-05
-0.00015243842
-2.4523024e-05
-0.00014007656
-2.4715717e-05
-0.0001276261
-2.4892843e-05
-0.0001150949
-2.5054275e-05
-0.00010249086
-2.5199898e-05
-8.9821948e-05
-2.5329605e-05
-7.7096163e-05
-2.5443305e-05
-6.4321556e-05
-2.5540915e-05
-5.1506209e-05
-2.5622364e-05
-3.8658236e-05
-2.5687594e-05
-2.5785773e-05
-2.5736558e-05
-1.2896972e-05
-2.576922e-05
1.4077756e-16
-2.5785557e-05
1.2896972e-05
-2.5785557e-05
2.5785773e-05
-2.576922e-05
3.8658236e-05
-2.5736558e-05
5.1506209e-05
-2.5687594e-05
6.4321556e-05
-2.5622364e-05
7.7096163e-05
-2.5540915e-05
8.9821948e-05
-2.5443305e-05
0.00010249086
-2.5329605e-05
0.0001150949
-2.5199898e-05
0.0001276261
-2.5054275e-05
0.00014007656
-2.4892843e-05
0.00015243842
-2.4715717e-05
0.0001647039
-2.4523024e-05
0.00017686529
-2.4314903e-05
0.00018891493
-2.4091503e-05
0.00020084527
-2.3852983e-05
0.00021264884
-2.3599514e-05
0.00022431823
-2.3331277e-05
0.00023584617
-2.3048463e-05
0.00024722547
-2.2751273e-05
0.00025844903
-2.2439918e-05
0.00026950988
-2.2114618e-05
0.00028040117
-2.1775603e-05
0.00029111615
-2.1423113e-05
0.00030164821
-2.1057396e-05
0.00031199086
-2.0678708e-05
0.00032213774
-2.0287316e-05
0.00033208265
-1.9883491e-05
0.00034181949
-1.9467517e-05
0.00035134234
-1.9039682e-05
0.00036064542
-1.8600283e-05
0.00036972309
-1.8149624e-05
0.00037856987
-1.7688015e-05
0.00038718046
-1.7215774e-05
0.00039554969
-1.6733226e-05
0.00040367257
-1.6240698e-05
0.00041154427
-1.5738528e-05
0.00041916016
-1.5227055e-05
0.00042651574
-1.4706626e-05
0.00043360672
-1.4177592e-05
0.00044042896
-1.3640309e-05
0.00044697853
-1.3095136e-05
0.00045325165
-1.2542436e-05
0.00045924475
-1.1982578e-05
0.00046495444
-1.1415932e-05
0.00047037749
-1.0842871e-05
0.00047551091
-1.0263772e-05
0.00048035184
-9.6790143e-06
0.00048489766
-9.0889786e-06
0.00048914592
-8.4940479e-06
0.00049309436
-7.8946067e-06
0.00049674091
-7.2910408e-06
0.00050008372
-6.6837368e-06
0.00050312109
-6.0730821e-06
0.00050585156
-5.4594646e-06
0.00050827384
-4.8432722e-06
0.00051038682
-4.2248927e-06
0.00051218961
-3.6047135e-06
0.00051368151
-2.9831212e-06
0.000514862
-2.3605017e-06
0.00051573076
-1.7372393e-06
0.00051628766
-1.1137174e-06
0.00051653276
-4.9031772e-07
0.00051646631
1.325797e-07
0.00051608875
7.5459886e-07
0.00051540072
1.37537e-06
0.00051440301
1.9945145e-06
0.00051309663
2.6116634e-06
0.00051148277
3.2264515e-06
0.00050956277
3.8385162e-06
0.0005073382
4.447498e-06
0.00050481075
5.0530413e-06
0.00050198234
5.6547943e-06
0.00049885503
6.2524093e-06
0.00049543106
6.8455427e-06
0.00049171285
7.4338556e-06
0.00048770297
8.0170132e-06
0.00048340416
8.5946859e-06
0.00047881934
9.1665487e-06
0.00047395157
9.7322817e-06
0.00046880407
1.029157e-05
0.00046338022
1.0844105e-05
0.00045768355
1.1389581e-05
0.00045171774
1.1927701e-05
0.00044548662
1.2458172e-05
0.00043899416
1.2980706e-05
0.00043224446
1.3495023e-05
0.00042524178
1.4000846e-05
0.00041799049
1.4497906e-05
0.00041049512
1.4985941e-05
0.0004027603
1.5464693e-05
0.00039479081
1.5933911e-05
0.00038659153
1.6393351e-05
0.00037816748
1.6842774e-05
0.00036952377
1.7281949e-05
0.00036066566
1.771065e-05
0.00035159848
1.8128659e-05
0.00034232769
1.8535763e-05
0.00033285885
1.8931756e-05
0.00032319761
1.9316439e-05
0.00031334973
1.968962e-05
0.00030332106
2.0051112e-05
0.00029311753
2.0400737e-05
0.00028274515
2.0738322e-05
0.00027221004
2.10637e-05
0.00026151839
2.1376713e-05
0.00025067644
2.1677208e-05
0.00023969054
2.1965039e-05
0.00022856709
2.2240067e-05
0.00021731255
2.2502159e-05
0.00020593347
2.275119e-05
0.00019443643
2.298704e-05
0.00018282808
2.3209598e-05
0.00017111512
2.3418757e-05
0.00015930431
2.3614418e-05
0.00014740244
2.3796488e-05
0.00013541634
2.3964883e-05
0.00012335291
2.4119523e-05
0.00011121905
2.4260334e-05
9.9021717e-05
2.4387253e-05
8.6767885e-05
2.4500218e-05
7.4464559e-05
2.4599178e-05
6.2118768e-05
2.4684086e-05
4.973756e-05
2.4754903e-05
3.7327997e-05
2.4811596e-05
2.4897157e-05
2.4854139e-05
1.2452127e-05
2.4882512e-05
2.4896702e-05
-1.2463692e-05
3.7360394e-05
-2.4920281e-05
3.7339101e-05
-3.7362669e-05
3.7296527e-05
-4.9783761e-05
3.7232689e-05
-6.2176476e-05
3.7147618e-05
-7.4533744e-05
3.7041354e-05
-8.684851e-05
3.6913945e-05
-9.9113743e-05
3.676545e-05
-0.00011132243
3.659594e-05
-0.00012346759
3.6405493e-05
-0.00013554226
3.6194198e-05
-0.00014753953
3.5962153e-05
-0.00015945251
3.5709468e-05
-0.00017127436
3.5436261e-05
-0.00018299826
3.5142661e-05
-0.00019461747
3.4828806e-05
-0.00020612527
3.4494846e-05
-0.00021751502
3.4140939e-05
-0.00022878012
3.3767254e-05
-0.00023991402
3.3373969e-05
-0.00025091025
3.2961273e-05
-0.00026176241
3.2529364e-05
-0.00027246415
3.2078453e-05
-0.00028300921
3.1608757e-05
-0.00029339139
3.1120505e-05
-0.00030360459
3.0613937e-05
-0.00031364278
3.00893e-05
-0.00032350001
2.9546856e-05
-0.00033317044
2.8986871e-05
-0.00034264831
2.8409626e-05
-0.00035192796
2.7815408e-05
-0.00036100382
2.7204518e-05
-0.00036987043
2.6577263e-05
-0.00037852244
2.5933963e-05
-0.00038695462
2.5274945e-05
-0.00039516181
2.4600548e-05
-0.00040313902
2.391112e-05
-0.00041088135
2.3207017e-05
-0.00041838401
2.2488608e-05
-0.00042564237
2.1756267e-05
-0.00043265191
2.1010382e-05
-0.00043940824
2.0251347e-05
-0.0004459071
1.9479566e-05
-0.00045214438
1.8695453e-05
-0.0004581161
1.7899429e-05
-0.00046381845
1.7091925e-05
-0.00046924773
1.6273382e-05
-0.0004744004
1.5444245e-05
-0.00047927309
1.4604973e-05
-0.00048386257
1.3756029e-05
-0.00048816577
1.2897886e-05
-0.00049217978
1.2031023e-05
-0.00049590185
1.1155928e-05
-0.00049932941
1.0273096e-05
-0.00050246003
9.3830294e-06
-0.00050529147
8.4862363e-06
-0.00050782166
7.5832324e-06
-0.0005100487
6.6745396e-06
-0.00051197087
5.7606857e-06
-0.00051358663
4.8422045e-06
-0.0005148946
3.9196352e-06
-0.00051589361
2.993522e-06
-0.00051658265
2.0644143e-06
-0.00051696092
1.1328664e-06
-0.00051702778
1.9943933e-07
-0.00051678279
-7.3530609e-07
-0.0005162257
-1.6708052e-06
-0.00051535645
-2.6064883e-06
-0.00051417517
-3.5417831e-06
-0.00051268218
-4.4761144e-06
-0.00051087799
-5.4089052e-06
-0.0005087633
-6.3395767e-06
-0.00050633902
-7.2675485e-06
-0.00050360625
-8.1922393e-06
-0.00050056626
-9.1130672e-06
-0.00049722055
-1.002945e-05
-0.00049357079
-1.0940805e-05
-0.00048961884
-1.1846552e-05
-0.00048536678
-1.2746111e-05
-0.00048081686
-1.3638901e-05
-0.00047597152
-1.4524346e-05
-0.00047083342
-1.5401873e-05
-0.00046540539
-1.6270907e-05
-0.00045969044
-1.7130882e-05
-0.00045369178
-1.7981232e-05
-0.00044741282
-1.8821396e-05
-0.00044085714
-1.9650817e-05
-0.00043402851
-2.0468945e-05
-0.00042693087
-2.1275234e-05
-0.00041956835
-2.2069143e-05
-0.00041194526
-2.285014e-05
-0.00040406609
-2.3617697e-05
-0.0003959355
-2.4371296e-05
-0.0003875583
-2.5110424e-05
-0.00037893949
-2.5834578e-05
-0.00037008425
-2.6543263e-05
-0.00036099788
-2.7235993e-05
-0.00035168587
-2.7912292e-05
-0.00034215385
-2.8571694e-05
-0.00033240763
-2.9213743e-05
-0.00032245313
-2.9837992e-05
-0.00031229644
-3.0444009e-05
-0.00030194377
-3.103137e-05
-0.00029140151
-3.1599665e-05
-0.00028067612
-3.2148496e-05
-0.00026977425
-3.2677477e-05
-0.00025870263
-3.3186235e-05
-0.00024746814
-3.3674413e-05
-0.00023607775
-3.4141664e-05
-0.00022453855
-3.4587657e-05
-0.00021285775
-3.5012077e-05
-0.00020104265
-3.5414621e-05
-0.00018910063
-3.5795002e-05
-0.00017703918
-3.615295e-05
-0.00016486587
-3.6488208e-05
-0.00015258836
-3.6800537e-05
-0.00014021437
-3.7089712e-05
-0.00012775168
-3.7355526e-05
-0.00011520817
-3.7597789e-05
-0.00010259174
-3.7816325e-05
-8.9910368e-05
-3.8010979e-05
-7.7172064e-05
-3.8181609e-05
-6.4384886e-05
-3.8328093e-05
-5.1556926e-05
-3.8450325e-05
-3.8696304e-05
-3.8548216e-05
-2.5811166e-05
-3.8621697e-05
-1.2909673e-05
-3.8670713e-05
2.5700329e-17
-3.869523e-05
1.2909673e-05
-3.869523e-05
2.5811166e-05
-3.8670713e-05
3.8696304e-05
-3.8621697e-05
5.1556926e-05
-3.8548216e-05
6.4384886e-05
-3.8450325e-05
7.7172064e-05
-3.8328093e-05
8.9910368e-05
-3.8181609e-05
0.00010259174
-3.8010979e-05
0.00011520817
-3.7816325e-05
0.00012775168
-3.7597789e-05
0.00014021437
-3.7355526e-05
0.00015258836
-3.7089712e-05
0.00016486587
-3.6800537e-05
0.00017703918
-3.6488208e-05
0.00018910063
-3.615295e-05
0.00020104265
-3.5795002e-05
0.00021285775
-3.5414621e-05
0.00022453855
-3.5012077e-05
0.00023607775
-3.4587657e-05
0.00024746814
-3.4141664e-05
0.00025870263
-3.3674413e-05
0.00026977425
-3.3186235e-05
0.00028067612
-3.2677477e-05
0.00029140151
-3.2148496e-05
0.00030194377
-3.1599665e-05
0.00031229644
-3.103137e-05
0.00032245313
-3.0444009e-05
0.00033240763
-2.9837992e-05
0.00034215385
-2.9213743e-05
0.00035168587
-2.8571694e-05
0.00036099788
-2.7912292e-05
0.00037008425
-2.7235993e-05
0.00037893949
-2.6543263e-05
0.0003875583
-2.5834578e-05
0.0003959355
-2.5110424e-05
0.00040406609
-2.4371296e-05
0.00041194526
-2.3617697e-05
0.00041956835
-2.285014e-05
0.00042693087
-2.2069143e-05
0.00043402851
-2.1275234e-05
0.00044085714
-2.0468945e-05
0.00044741282
-1.9650817e-05
0.00045369178
-1.8821396e-05
0.00045969044
-1.7981232e-05
0.00046540539
-1.7130882e-05
0.00047083342
-1.6270907e-05
0.00047597152
-1.5401873e-05
0.00048081686
-1.4524346e-05
0.00048536678
-1.3638901e-05
0.00048961884
-1.2746111e-05
0.00049357079
-1.1846552e-05
0.00049722055
-1.0940805e-05
0.00050056626
-1.002945e-05
0.00050360625
-9.1130672e-06
0.00050633902
-8.1922393e-06
0.0005087633
-7.2675485e-06
0.00051087799
-6.3395767e-06
0.00051268218
-5.4089052e-06
0.00051417517
-4.4761144e-06
0.00051535645
-3.5417831e-06
0.0005162257
-2.6064883e-06
0.00051678279
-1.6708052e-06
0.00051702778
-7.3530609e-07
0.00051696092
1.9943933e-07
0.00051658265
1.1328664e-06
0.00051589361
2.0644143e-06
0.0005148946
2.993522e-06
0.00051358663
3.9196352e-06
0.00051197087
4.8422045e-06
0.0005100487
5.7606857e-06
0.00050782166
6.6745396e-06
0.00050529147
7.5832324e-06
0.00050246003
8.4862363e-06
0.00049932941
9.3830294e-06
0.00049590185
1.0273096e-05
0.00049217978
1.1155928e-05
0.00048816577
1.2031023e-05
0.00048386257
1.2897886e-05
0.00047927309
1.3756029e-05
0.0004744004
1.4604973e-05
0.00046924773
1.5444245e-05
0.00046381845
1.6273382e-05
0.0004581161
1.7091925e-05
0.00045214438
1.7899429e-05
0.0004459071
1.8695453e-05
0.00043940824
1.9479566e-05
0.00043265191
2.0251347e-05
0.00042564237
2.1010382e-05
0.00041838401
2.1756267e-05
0.00041088135
2.2488608e-05
0.00040313902
2.3207017e-05
0.00039516181
2.391112e-05
0.00038695462
2.4600548e-05
0.00037852244
2.5274945e-05
0.00036987043
2.5933963e-05
0.00036100382
2.6577263e-05
0.00035192796
2.7204518e-05
0.00034264831
2.7815408e-05
0.00033317044
2.8409626e-05
0.00032350001
2.8986871e-05
0.00031364278
2.9546856e-05
0.00030360459
3.00893e-05
0.00029339139
3.0613937e-05
0.00028300921
3.1120505e-05
0.00027246415
3.1608757e-05
0.00026176241
3.2078453e-05
0.00025091025
3.2529364e-05
0.00023991402
3.2961273e-05
0.00022878012
3.3373969e-05
0.00021751502
3.3767254e-05
0.00020612527
3.4140939e-05
0.00019461747
3.4494846e-05
0.00018299826
3.4828806e-05
0.00017127436
3.5142661e-05
0.00015945251
3.5436261e-05
0.00014753953
3.5709468e-05
0.00013554226
3.5962153e-05
0.00012346759
3.6194198e-05
0.00011132243
3.6405493e-05
9.9113743e-05
3.659594e-05
8.684851e-05
3.676545e-05
7.4533744e-05
3.6913945e-05
6.2176476e-05
3.7041354e-05
4.9783761e-05
3.7147618e-05
3.7362669e-05
3.7232689e-05
2.4920281e-05
3.7296527e-05
1.2463692e-05
3.7339101e-05
3.7360394e-05
-1.247928e-05
4.9839674e-05
-2.495145e-05
4.9811271e-05
-3.7409402e-05
4.9754478e-05
-4.9846035e-05
4.9669322e-05
-6.2254258e-05
4.9555841e-05
-7.4626993e-05
4.9414089e-05
-8.695718e-05
4.9244131e-05
-9.9237776e-05
4.9046047e-05
-0.00011146176
4.8819927e-05
-0.00012362215
4.8565879e-05
-0.00013571197
4.828402e-05
-0.0001477243
4.7974482e-05
-0.00015965224
4.763741e-05
-0.00017148895
4.7272963e-05
-0.0001832276
4.6881312e-05
-0.00019486143
4.6462643e-05
-0.00020638374
4.6017153e-05
-0.00021778785
4.5545053e-05
-0.00022906717
4.504657e-05
-0.00024021514
4.4521941e-05
-0.00025122529
4.3971418e-05
-0.00026209119
4.3395266e-05
-0.0002728065
4.2793764e-05
-0.00028336495
4.2167203e-05
-0.00029376033
4.1515889e-05
-0.00030398654
4.084014e-05
-0.00031403752
4.0140288e-05
-0.00032390735
3.9416679e-05
-0.00033359015
3.8669672e-05
-0.00034308016
3.7899638e-05
-0.00035237171
3.7106963e-05
-0.00036145924
3.6292045e-05
-0.00037033727
3.5455297e-05
-0.00037900045
3.4597142e-05
-0.00038744353
3.371802e-05
-0.00039566136
3.2818381e-05
-0.00040364893
3.1898689e-05
-0.00041140133
3.095942e-05
-0.00041891379
3.0001065e-05
-0.00042618165
2.9024125e-05
-0.00043320038
2.8029114e-05
-0.00043996559
2.701656e-05
-0.00044647303
2.5987002e-05
-0.00045271857
2.4940991e-05
-0.00045869823
2.3879089e-05
-0.00046440817
2.2801872e-05
-0.00046984472
2.1709925e-05
-0.00047500432
2.0603847e-05
-0.00047988359
1.9484245e-05
-0.0004844793
1.8351739e-05
-0.00048878837
1.720696e-05
-0.0004928079
1.6050547e-05
-0.00049653512
1.488315e-05
-0.00049996746
1.3705431e-05
-0.00050310248
1.2518058e-05
-0.00050593796
1.132171e-05
-0.0005084718
1.0117075e-05
-0.00051070211
8.9048496e-06
-0.00051262716
7.6857371e-06
-0.00051424541
6.4604498e-06
-0.00051555548
5.229707e-06
-0.00051655619
3.9942352e-06
-0.00051724654
2.7547672e-06
-0.00051762572
1.5120427e-06
-0.00051769309
2.6680762e-07
-0.00051744821
-9.8018824e-07
-0.00051689082
-2.2281906e-06
-0.00051602087
-3.4764399e-06
-0.00051483848
-4.7241726e-06
-0.00051334397
-5.9706218e-06
-0.00051153786
-7.2150176e-06
-0.00050942085
-8.4565877e-06
-0.00050699384
-9.694558e-06
-0.00050425793
-1.0928153e-05
-0.0005012144
-1.2156596e-05
-0.00049786474
-1.337911e-05
-0.00049421062
-1.459492e-05
-0.00049025393
-1.5803249e-05
-0.00048599672
-1.7003323e-05
-0.00048144125
-1.8194369e-05
-0.00047658997
-1.9375619e-05
-0.00047144554
-2.0546305e-05
-0.00046601078
-2.1705665e-05
-0.00046028873
-2.2852939e-05
-0.00045428259
-2.3987374e-05
-0.00044799576
-2.5108221e-05
-0.00044143184
-2.6214738e-05
-0.00043459459
-2.7306191e-05
-0.00042748798
-2.838185e-05
-0.00042011613
-2.9440995e-05
-0.00041248335
-3.0482914e-05
-0.00040459414
-3.1506905e-05
-0.00039645316
-3.2512275e-05
-0.00038806525
-3.3498341e-05
-0.00037943539
-3.4464431e-05
-0.00037056877
-3.5409885e-05
-0.00036147071
-3.6334055e-05
-0.00035214669
-3.7236306e-05
-0.00034260238
-3.8116014e-05
-0.00033284355
-3.8972571e-05
-0.00032287615
-3.9805384e-05
-0.00031270629
-4.0613874e-05
-0.00030234018
-4.1397475e-05
-0.00029178421
-4.2155641e-05
-0.00028104486
-4.288784e-05
-0.00027012878
-4.3593557e-05
-0.00025904272
-4.4272297e-05
-0.00024779356
-4.4923579e-05
-0.00023638827
-4.5546944e-05
-0.00022483398
-4.6141949e-05
-0.00021313789
-4.6708173e-05
-0.00020130729
-4.7245213e-05
-0.00018934961
-4.7752685e-05
-0.00017727233
-4.8230228e-05
-0.00016508304
-4.8677501e-05
-0.00015278939
-4.9094184e-05
-0.00014039913
-4.9479977e-05
-0.00012792005
-4.9834605e-05
-0.00011536003
-5.0157812e-05
-0.00010272699
-5.0449366e-05
-9.0028908e-05
-5.0709057e-05
-7.727382e-05
-5.0936698e-05
-6.4469788e-05
-5.1132124e-05
-5.1624917e-05
-5.1295196e-05
-3.8747338e-05
-5.1425795e-05
-2.5845207e-05
-5.1523827e-05
-1.2926699e-05
-5.1589221e-05
-4.6335561e-17
-5.162193e-05
1.2926699e-05
-5.162193e-05
2.5845207e-05
-5.1589221e-05
3.8747338e-05
-5.1523827e-05
5.1624917e-05
-5.1425795e-05
6.4469788e-05
-5.1295196e-05
7.727382e-05
-5.1132124e-05
9.0028908e-05
-5.0936698e-05
0.00010272699
-5.0709057e-05
0.00011536003
-5.0449366e-05
0.00012792005
-5.0157812e-05
0.00014039913
-4.9834605e-05
0.00015278939
-4.9479977e-05
0.00016508304
-4.9094184e-05
0.00017727233
-4.8677501e-05
0.00018934961
-4.8230228e-05
0.00020130729
-4.7752685e-05
0.00021313789
-4.7245213e-05
0.00022483398
-4.6708173e-05
0.00023638827
-4.6141949e-05
0.00024779356
-4.5546944e-05
0.00025904272
-4.4923579e-05
0.00027012878
-4.4272297e-05
0.00028104486
-4.3593557e-05
0.00029178421
-4.288784e-05
0.00030234018
-4.2155641e-05
0.00031270629
-4.1397475e-05
0.00032287615
-4.0613874e-05
0.00033284355
-3.9805384e-05
0.00034260238
-3.8972571e-05
0.00035214669
-3.8116014e-05
0.00036147071
-3.7236306e-05
0.00037056877
-3.6334055e-05
0.00037943539
-3.5409885e-05
0.00038806525
-3.4464431e-05
0.00039645316
-3.3498341e-05
0.00040459414
-3.2512275e-05
0.00041248335
-3.1506905e-05
0.00042011613
-3.0482914e-05
0.00042748798
-2.9440995e-05
0.00043459459
-2.838185e-05
0.00044143184
-2.7306191e-05
0.00044799576
-2.6214738e-05
0.00045428259
-2.5108221e-05
0.00046028873
-2.3987374e-05
0.00046601078
-2.2852939e-05
0.00047144554
-2.1705665e-05
0.00047658997
-2.0546305e-05
0.00048144125
-1.9375619e-05
0.00048599672
-1.8194369e-05
0.00049025393
-1.7003323e-05
0.00049421062
-1.5803249e-05
0.00049786474
-1.459492e-05
0.0005012144
-1.337911e-05
0.00050425793
-1.2156596e-05
0.00050699384
-1.0928153e-05
0.00050942085
-9.694558e-06
0.00051153786
-8.4565877e-06
0.00051334397
-7.2150176e-06
0.00051483848
-5.9706218e-06
0.00051602087
-4.7241726e-06
0.00051689082
-3.4764399e-06
0.00051744821
-2.2281906e-06
0.00051769309
-9.8018824e-07
0.00051762572
2.6680762e-07
0.00051724654
1.5120427e-06
0.00051655619
2.7547672e-06
0.00051555548
3.9942352e-06
0.00051424541
5.229707e-06
0.00051262716
6.4604498e-06
0.00051070211
7.6857371e-06
0.0005084718
8.9048496e-06
0.00050593796
1.0117075e-05
0.00050310248
1.132171e-05
0.00049996746
1.2518058e-05
0.00049653512
1.3705431e-05
0.0004928079
1.488315e-05
0.00048878837
1.6050547e-05
0.0004844793
1.720696e-05
0.00047988359
1.8351739e-05
0.00047500432
1.9484245e-05
0.00046984472
2.0603847e-05
0.00046440817
2.1709925e-05
0.00045869823
2.2801872e-05
0.00045271857
2.3879089e-05
0.00044647303
2.4940991e-05
0.00043996559
2.5987002e-05
0.00043320038
2.701656e-05
0.00042618165
2.8029114e-05
0.00041891379
2.9024125e-05
0.00041140133
3.0001065e-05
0.00040364893
3.095942e-05
0.00039566136
3.1898689e-05
0.00038744353
3.2818381e-05
0.00037900045
3.371802e-05
0.00037033727
3.4597142e-05
0.00036145924
3.5455297e-05
0.00035237171
3.6292045e-05
0.00034308016
3.7106963e-05
0.00033359015
3.7899638e-05
0.00032390735
3.8669672e-05
0.00031403752
3.9416679e-05
0.00030398654
4.0140288e-05
0.00029376033
4.084014e-05
0.00028336495
4.1515889e-05
0.0002728065
4.2167203e-05
0.00026209119
4.2793764e-05
0.00025122529
4.3395266e-05
0.00024021514
4.3971418e-05
0.00022906717
4.4521941e-05
0.00021778785
4.504657e-05
0.00020638374
4.5545053e-05
0.00019486143
4.6017153e-05
0.0001832276
4.6462643e-05
0.00017148895
4.6881312e-05
0.00015965224
4.7272963e-05