/*--------------------------------*- C++ -*----------------------------------*\
| =========                 |                                                 |
| \\      /  F ield         | OpenFOAM: The Open Source CFD Toolbox           |
|  \\    /   O peration     | Version:  2106                                  |
|   \\  /    A nd           | Website:  www.openfoam.com                      |
|    \\/     M anipulation  |                                                 |
\*---------------------------------------------------------------------------*/
FoamFile
{
    version     2.0;
    format      ascii;
    arch        "LSB;label=32;scalar=64";
    class       volVectorField;
    location    "0.005";
    object      U;
}
// * * * * * * * * * * * * * * * * * * * * * * * * * * * * * * * * * * * * * //

dimensions      [0 1 -1 0 0 0 0];

internalField   nonuniform List<vector> 
16384
(
(-0.0077970596 0.0077883785 0)
(-0.023373005 0.0077702223 0)
(-0.038894465 0.0077339471 0)
(-0.054325241 0.007679627 0)
(-0.069629318 0.0076073733 0)
(-0.084770941 0.0075173343 0)
(-0.099714691 0.0074096956 0)
(-0.11442555 0.0072846794 0)
(-0.128869 0.007142545 0)
(-0.14301105 0.0069835884 0)
(-0.15681836 0.0068081426 0)
(-0.17025829 0.0066165766 0)
(-0.18329897 0.0064092959 0)
(-0.19590937 0.0061867418 0)
(-0.20805939 0.0059493914 0)
(-0.21971991 0.0056977566 0)
(-0.23086289 0.0054323839 0)
(-0.24146139 0.0051538536 0)
(-0.25148969 0.0048627793 0)
(-0.2609233 0.0045598066 0)
(-0.26973908 0.0042456125 0)
(-0.27791527 0.003920904 0)
(-0.28543155 0.0035864169 0)
(-0.29226909 0.0032429147 0)
(-0.29841063 0.0028911866 0)
(-0.30384052 0.0025320463 0)
(-0.30854474 0.0021663302 0)
(-0.31251099 0.0017948955 0)
(-0.31572867 0.0014186178 0)
(-0.31818896 0.0010383827 0)
(-0.31988499 0.00065506511 0)
(-0.32081118 0.00026970438 0)
(-0.32096476 -0.00011684204 0)
(-0.32034395 -0.00050370792 0)
(-0.31894922 -0.00088987 0)
(-0.31678292 -0.0012743973 0)
(-0.31384923 -0.0016563456 0)
(-0.31015428 -0.0020347712 0)
(-0.30570604 -0.0024087347 0)
(-0.30051439 -0.0027773037 0)
(-0.29459105 -0.0031395554 0)
(-0.28794956 -0.0034945792 0)
(-0.28060531 -0.003841479 0)
(-0.27257544 -0.0041793759 0)
(-0.26387882 -0.0045074104 0)
(-0.25453605 -0.0048247452 0)
(-0.24456936 -0.0051305673 0)
(-0.2340026 -0.0054240905 0)
(-0.22286114 -0.0057045575 0)
(-0.21117185 -0.0059712424 0)
(-0.19896302 -0.0062234528 0)
(-0.1862643 -0.0064605317 0)
(-0.1731066 -0.0066818601 0)
(-0.15952205 -0.006886858 0)
(-0.14554387 -0.0070749873 0)
(-0.13120636 -0.0072457527 0)
(-0.11654472 -0.0073987037 0)
(-0.10159503 -0.0075334358 0)
(-0.086394143 -0.0076495923 0)
(-0.070979556 -0.0077468651 0)
(-0.055389345 -0.0078249958 0)
(-0.039662049 -0.0078837765 0)
(-0.023836574 -0.0079230508 0)
(-0.0079520876 -0.0079427142 0)
(0.0079520876 -0.0079427142 0)
(0.023836574 -0.0079230508 0)
(0.039662049 -0.0078837765 0)
(0.055389345 -0.0078249958 0)
(0.070979556 -0.0077468651 0)
(0.086394143 -0.0076495923 0)
(0.10159503 -0.0075334358 0)
(0.11654472 -0.0073987037 0)
(0.13120636 -0.0072457527 0)
(0.14554387 -0.0070749873 0)
(0.15952205 -0.0068868581 0)
(0.1731066 -0.0066818601 0)
(0.1862643 -0.0064605317 0)
(0.19896302 -0.0062234528 0)
(0.21117185 -0.0059712424 0)
(0.22286114 -0.0057045575 0)
(0.2340026 -0.0054240905 0)
(0.24456936 -0.0051305673 0)
(0.25453605 -0.0048247452 0)
(0.26387882 -0.0045074104 0)
(0.27257544 -0.0041793759 0)
(0.28060531 -0.003841479 0)
(0.28794956 -0.0034945792 0)
(0.29459105 -0.0031395554 0)
(0.30051439 -0.0027773037 0)
(0.30570604 -0.0024087347 0)
(0.31015428 -0.0020347712 0)
(0.31384923 -0.0016563456 0)
(0.31678292 -0.0012743973 0)
(0.31894922 -0.00088987 0)
(0.32034395 -0.00050370792 0)
(0.32096476 -0.00011684204 0)
(0.32081118 0.00026970438 0)
(0.31988499 0.00065506511 0)
(0.31818896 0.0010383827 0)
(0.31572867 0.0014186178 0)
(0.31251099 0.0017948955 0)
(0.30854474 0.0021663302 0)
(0.30384052 0.0025320463 0)
(0.29841063 0.0028911866 0)
(0.29226909 0.0032429147 0)
(0.28543155 0.0035864169 0)
(0.27791527 0.003920904 0)
(0.26973908 0.0042456125 0)
(0.2609233 0.0045598066 0)
(0.25148969 0.0048627793 0)
(0.24146139 0.0051538536 0)
(0.23086289 0.0054323839 0)
(0.21971991 0.0056977566 0)
(0.20805939 0.0059493914 0)
(0.19590937 0.0061867418 0)
(0.18329897 0.0064092959 0)
(0.17025829 0.0066165766 0)
(0.15681836 0.0068081426 0)
(0.14301105 0.0069835884 0)
(0.128869 0.007142545 0)
(0.11442555 0.0072846794 0)
(0.099714691 0.0074096956 0)
(0.084770941 0.0075173343 0)
(0.069629318 0.0076073733 0)
(0.054325241 0.007679627 0)
(0.038894465 0.0077339471 0)
(0.023373005 0.0077702223 0)
(0.0077970597 0.0077883785 0)
(-0.0078247131 0.023386137 0)
(-0.023455908 0.023331625 0)
(-0.039032446 0.023222712 0)
(-0.054518014 0.023059622 0)
(-0.069876482 0.022842687 0)
(-0.085071982 0.022572354 0)
(-0.10006898 0.022249177 0)
(-0.11483235 0.021873826 0)
(-0.12932745 0.021447076 0)
(-0.14352018 0.020969818 0)
(-0.1573771 0.02044305 0)
(-0.17086544 0.019867878 0)
(-0.18395322 0.019245522 0)
(-0.19660932 0.018577304 0)
(-0.20880352 0.017864656 0)
(-0.2205066 0.017109116 0)
(-0.23169041 0.016312322 0)
(-0.24232791 0.015476018 0)
(-0.25239328 0.014602045 0)
(-0.26186194 0.013692341 0)
(-0.27071066 0.012748939 0)
(-0.27891757 0.01177396 0)
(-0.28646229 0.010769614 0)
(-0.2933259 0.0097381928 0)
(-0.29949107 0.0086820664 0)
(-0.30494207 0.0076036778 0)
(-0.30966482 0.006505538 0)
(-0.31364695 0.0053902205 0)
(-0.31687783 0.0042603548 0)
(-0.31934859 0.003118615 0)
(-0.32105223 0.0019677016 0)
(-0.32198348 0.00081044116 0)
(-0.32213905 -0.00035037201 0)
(-0.32151741 -0.0015119842 0)
(-0.32011901 -0.0026715475 0)
(-0.31794616 -0.0038262162 0)
(-0.31500307 -0.004973147 0)
(-0.31129586 -0.0061095046 0)
(-0.30683253 -0.0072324675 0)
(-0.30162298 -0.0083392356 0)
(-0.29567896 -0.0094270377 0)
(-0.28901407 -0.010493139 0)
(-0.28164373 -0.011534848 0)
(-0.27358513 -0.012549525 0)
(-0.26485724 -0.01353459 0)
(-0.2554807 -0.014487528 0)
(-0.24547783 -0.015405896 0)
(-0.23487254 -0.016287334 0)
(-0.22369033 -0.017129567 0)
(-0.21195815 -0.017930415 0)
(-0.1997044 -0.018687799 0)
(-0.18695884 -0.019399746 0)
(-0.17375249 -0.020064394 0)
(-0.1601176 -0.020680005 0)
(-0.14608753 -0.021244959 0)
(-0.1316967 -0.021757771 0)
(-0.11698045 -0.022217087 0)
(-0.10197502 -0.022621691 0)
(-0.086717387 -0.022970513 0)
(-0.071245201 -0.023262627 0)
(-0.055596689 -0.023497257 0)
(-0.039810545 -0.023673778 0)
(-0.023925829 -0.02379172 0)
(-0.0079818654 -0.02385077 0)
(0.0079818654 -0.02385077 0)
(0.023925829 -0.02379172 0)
(0.039810545 -0.023673778 0)
(0.055596689 -0.023497257 0)
(0.071245201 -0.023262627 0)
(0.086717387 -0.022970513 0)
(0.10197502 -0.022621691 0)
(0.11698045 -0.022217087 0)
(0.1316967 -0.021757771 0)
(0.14608753 -0.021244959 0)
(0.1601176 -0.020680005 0)
(0.17375249 -0.020064394 0)
(0.18695884 -0.019399746 0)
(0.1997044 -0.018687799 0)
(0.21195815 -0.017930415 0)
(0.22369033 -0.017129567 0)
(0.23487254 -0.016287334 0)
(0.24547783 -0.015405896 0)
(0.2554807 -0.014487528 0)
(0.26485724 -0.01353459 0)
(0.27358513 -0.012549525 0)
(0.28164373 -0.011534848 0)
(0.28901407 -0.010493139 0)
(0.29567896 -0.0094270377 0)
(0.30162298 -0.0083392356 0)
(0.30683253 -0.0072324675 0)
(0.31129586 -0.0061095046 0)
(0.31500307 -0.004973147 0)
(0.31794616 -0.0038262162 0)
(0.32011901 -0.0026715475 0)
(0.32151741 -0.0015119842 0)
(0.32213905 -0.00035037202 0)
(0.32198348 0.00081044115 0)
(0.32105223 0.0019677016 0)
(0.31934859 0.003118615 0)
(0.31687783 0.0042603548 0)
(0.31364695 0.0053902205 0)
(0.30966482 0.006505538 0)
(0.30494207 0.0076036778 0)
(0.29949107 0.0086820664 0)
(0.2933259 0.0097381928 0)
(0.28646229 0.010769614 0)
(0.27891757 0.01177396 0)
(0.27071066 0.012748939 0)
(0.26186194 0.013692341 0)
(0.25239328 0.014602045 0)
(0.24232791 0.015476018 0)
(0.23169041 0.016312322 0)
(0.2205066 0.017109116 0)
(0.20880352 0.017864656 0)
(0.19660932 0.018577304 0)
(0.18395322 0.019245522 0)
(0.17086544 0.019867878 0)
(0.1573771 0.02044305 0)
(0.14352018 0.020969818 0)
(0.12932745 0.021447076 0)
(0.11483235 0.021873826 0)
(0.10006898 0.022249177 0)
(0.085071982 0.022572354 0)
(0.069876482 0.022842687 0)
(0.054518014 0.023059622 0)
(0.039032446 0.023222712 0)
(0.023455908 0.023331625 0)
(0.0078247131 0.023386137 0)
(-0.0078706952 0.039063079 0)
(-0.023593759 0.038972047 0)
(-0.039261881 0.03879017 0)
(-0.054838556 0.038517817 0)
(-0.070287467 0.038155546 0)
(-0.085572554 0.037704098 0)
(-0.10065809 0.037164403 0)
(-0.11550877 0.036537571 0)
(-0.13008976 0.035824901 0)
(-0.14436677 0.035027873 0)
(-0.15830616 0.034148155 0)
(-0.171875 0.033187593 0)
(-0.18504112 0.032148217 0)
(-0.19777321 0.031032237 0)
(-0.21004088 0.029842042 0)
(-0.22181473 0.028580194 0)
(-0.23306644 0.027249433 0)
(-0.24376879 0.025852664 0)
(-0.25389581 0.024392961 0)
(-0.26342275 0.022873561 0)
(-0.27232623 0.021297855 0)
(-0.28058425 0.019669386 0)
(-0.28817625 0.017991845 0)
(-0.29508322 0.016269056 0)
(-0.30128767 0.014504979 0)
(-0.30677377 0.012703693 0)
(-0.31152734 0.010869392 0)
(-0.3155359 0.0090063727 0)
(-0.31878873 0.0071190284 0)
(-0.3212769 0.0052118317 0)
(-0.32299332 0.0032893265 0)
(-0.32393271 0.001356164 0)
(-0.32409167 -0.00058299248 0)
(-0.3234687 -0.0025234752 0)
(-0.32206419 -0.0044605485 0)
(-0.31988046 -0.0063894631 0)
(-0.31692173 -0.0083054701 0)
(-0.31319414 -0.010203832 0)
(-0.30870571 -0.012079835 0)
(-0.30346639 -0.013928799 0)
(-0.29748799 -0.015746094 0)
(-0.29078418 -0.01752715 0)
(-0.28337046 -0.019267471 0)
(-0.27526411 -0.020962645 0)
(-0.26648421 -0.02260836 0)
(-0.25705151 -0.024200413 0)
(-0.24698847 -0.025734724 0)
(-0.23631914 -0.027207345 0)
(-0.22506917 -0.028614478 0)
(-0.21326567 -0.029952477 0)
(-0.20093722 -0.031217868 0)
(-0.18811376 -0.032407351 0)
(-0.17482651 -0.033517819 0)
(-0.16110792 -0.034546362 0)
(-0.14699156 -0.035490275 0)
(-0.13251207 -0.036347074 0)
(-0.11770503 -0.037114495 0)
(-0.1026069 -0.037790508 0)
(-0.087254903 -0.038373322 0)
(-0.071686936 -0.038861389 0)
(-0.055941477 -0.039253412 0)
(-0.040057475 -0.039548346 0)
(-0.024074249 -0.039745407 0)
(-0.0080313824 -0.039844069 0)
(0.0080313824 -0.039844069 0)
(0.024074249 -0.039745407 0)
(0.040057475 -0.039548346 0)
(0.055941477 -0.039253412 0)
(0.071686936 -0.038861389 0)
(0.087254903 -0.038373322 0)
(0.1026069 -0.037790508 0)
(0.11770503 -0.037114495 0)
(0.13251207 -0.036347074 0)
(0.14699156 -0.035490275 0)
(0.16110792 -0.034546362 0)
(0.17482651 -0.033517819 0)
(0.18811376 -0.032407351 0)
(0.20093722 -0.031217868 0)
(0.21326567 -0.029952477 0)
(0.22506917 -0.028614478 0)
(0.23631914 -0.027207345 0)
(0.24698847 -0.025734724 0)
(0.25705151 -0.024200413 0)
(0.26648421 -0.02260836 0)
(0.27526411 -0.020962645 0)
(0.28337046 -0.019267471 0)
(0.29078418 -0.01752715 0)
(0.29748799 -0.015746094 0)
(0.30346639 -0.013928799 0)
(0.30870571 -0.012079835 0)
(0.31319414 -0.010203832 0)
(0.31692173 -0.0083054701 0)
(0.31988046 -0.0063894631 0)
(0.32206419 -0.0044605485 0)
(0.3234687 -0.0025234752 0)
(0.32409167 -0.00058299248 0)
(0.32393271 0.001356164 0)
(0.32299332 0.0032893265 0)
(0.3212769 0.0052118317 0)
(0.31878873 0.0071190284 0)
(0.3155359 0.0090063727 0)
(0.31152734 0.010869392 0)
(0.30677377 0.012703693 0)
(0.30128767 0.014504979 0)
(0.29508322 0.016269056 0)
(0.28817625 0.017991845 0)
(0.28058425 0.019669386 0)
(0.27232623 0.021297855 0)
(0.26342275 0.022873561 0)
(0.25389581 0.024392961 0)
(0.24376879 0.025852664 0)
(0.23306644 0.027249433 0)
(0.22181473 0.028580194 0)
(0.21004088 0.029842042 0)
(0.19777321 0.031032237 0)
(0.18504112 0.032148217 0)
(0.171875 0.033187593 0)
(0.15830616 0.034148155 0)
(0.14436677 0.035027873 0)
(0.13008976 0.035824901 0)
(0.11550877 0.036537571 0)
(0.10065809 0.037164403 0)
(0.085572554 0.037704098 0)
(0.070287467 0.038155546 0)
(0.054838556 0.038517817 0)
(0.039261881 0.03879017 0)
(0.023593759 0.038972047 0)
(0.0078706952 0.039063079 0)
(-0.007934851 0.054850471 0)
(-0.023786094 0.054722691 0)
(-0.039581998 0.054467391 0)
(-0.055285793 0.05408509 0)
(-0.070860897 0.053576569 0)
(-0.086270987 0.052942867 0)
(-0.10148007 0.052185284 0)
(-0.11645258 0.051305377 0)
(-0.13115342 0.050304966 0)
(-0.14554804 0.049186125 0)
(-0.15960254 0.047951188 0)
(-0.17328373 0.046602746 0)
(-0.18655918 0.045143643 0)
(-0.19939734 0.043576976 0)
(-0.21176756 0.041906095 0)
(-0.2236402 0.040134594 0)
(-0.23498668 0.038266311 0)
(-0.24577958 0.036305325 0)
(-0.25599267 0.034255946 0)
(-0.265601 0.032122714 0)
(-0.27458095 0.029910388 0)
(-0.28291033 0.02762394 0)
(-0.29056839 0.025268548 0)
(-0.29753591 0.022849583 0)
(-0.30379525 0.0203726 0)
(-0.3093304 0.017843327 0)
(-0.31412703 0.015267651 0)
(-0.31817253 0.012651607 0)
(-0.32145606 0.010001363 0)
(-0.32396859 0.0073232052 0)
(-0.32570291 0.0046235248 0)
(-0.32665368 0.0019088183 0)
(-0.32681744 -0.0008143643 0)
(-0.32619265 -0.0035394337 0)
(-0.32477967 -0.0062597461 0)
(-0.3225808 -0.0089686352 0)
(-0.31960029 -0.011659432 0)
(-0.31584428 -0.014325481 0)
(-0.31132086 -0.01696016 0)
(-0.30604003 -0.019556898 0)
(-0.30001367 -0.022109188 0)
(-0.29325556 -0.024610611 0)
(-0.28578131 -0.027054849 0)
(-0.27760833 -0.029435706 0)
(-0.26875584 -0.031747122 0)
(-0.25924477 -0.033983193 0)
(-0.24909774 -0.036138186 0)
(-0.23833903 -0.038206555 0)
(-0.22699446 -0.040182959 0)
(-0.21509141 -0.04206228 0)
(-0.20265867 -0.043839631 0)
(-0.18972646 -0.045510379 0)
(-0.17632625 -0.047070155 0)
(-0.1624908 -0.048514867 0)
(-0.14825396 -0.049840718 0)
(-0.13365068 -0.051044212 0)
(-0.11871686 -0.05212217 0)
(-0.10348929 -0.053071737 0)
(-0.088005519 -0.053890394 0)
(-0.072303802 -0.054575967 0)
(-0.056422962 -0.055126631 0)
(-0.040402307 -0.055540919 0)
(-0.024281514 -0.055817727 0)
(-0.0081005318 -0.055956316 0)
(0.0081005318 -0.055956316 0)
(0.024281514 -0.055817727 0)
(0.040402307 -0.055540919 0)
(0.056422962 -0.055126631 0)
(0.072303802 -0.054575967 0)
(0.088005519 -0.053890394 0)
(0.10348929 -0.053071737 0)
(0.11871686 -0.05212217 0)
(0.13365068 -0.051044212 0)
(0.14825396 -0.049840718 0)
(0.1624908 -0.048514867 0)
(0.17632625 -0.047070155 0)
(0.18972646 -0.045510379 0)
(0.20265867 -0.043839631 0)
(0.21509141 -0.04206228 0)
(0.22699446 -0.040182959 0)
(0.23833903 -0.038206555 0)
(0.24909774 -0.036138186 0)
(0.25924477 -0.033983193 0)
(0.26875584 -0.031747122 0)
(0.27760833 -0.029435706 0)
(0.28578131 -0.027054849 0)
(0.29325556 -0.024610611 0)
(0.30001367 -0.022109188 0)
(0.30604003 -0.019556898 0)
(0.31132086 -0.01696016 0)
(0.31584428 -0.014325481 0)
(0.31960029 -0.011659432 0)
(0.3225808 -0.0089686352 0)
(0.32477967 -0.0062597461 0)
(0.32619265 -0.0035394337 0)
(0.32681744 -0.0008143643 0)
(0.32665368 0.0019088183 0)
(0.32570291 0.0046235248 0)
(0.32396859 0.0073232052 0)
(0.32145606 0.010001363 0)
(0.31817253 0.012651607 0)
(0.31412703 0.015267651 0)
(0.3093304 0.017843327 0)
(0.30379525 0.0203726 0)
(0.29753591 0.022849583 0)
(0.29056839 0.025268548 0)
(0.28291033 0.02762394 0)
(0.27458095 0.029910388 0)
(0.265601 0.032122714 0)
(0.25599267 0.034255946 0)
(0.24577958 0.036305325 0)
(0.23498668 0.038266311 0)
(0.2236402 0.040134594 0)
(0.21176756 0.041906095 0)
(0.19939734 0.043576976 0)
(0.18655918 0.045143643 0)
(0.17328373 0.046602746 0)
(0.15960254 0.047951188 0)
(0.14554804 0.049186125 0)
(0.13115342 0.050304966 0)
(0.11645258 0.051305377 0)
(0.10148007 0.052185284 0)
(0.086270987 0.052942867 0)
(0.070860897 0.053576569 0)
(0.055285793 0.05408509 0)
(0.039581998 0.054467391 0)
(0.023786094 0.054722691 0)
(0.007934851 0.054850471 0)
(-0.0080171194 0.070783948 0)
(-0.02403273 0.070619118 0)
(-0.039992493 0.070289793 0)
(-0.055859302 0.069796641 0)
(-0.071596235 0.069140666 0)
(-0.087166631 0.068323204 0)
(-0.10253417 0.067345928 0)
(-0.11766292 0.066210843 0)
(-0.13251748 0.064920288 0)
(-0.14706295 0.063476935 0)
(-0.16126511 0.061883787 0)
(-0.17509042 0.060144179 0)
(-0.18850614 0.058261774 0)
(-0.20148039 0.05624056 0)
(-0.21398219 0.054084849 0)
(-0.22598159 0.051799273 0)
(-0.23744972 0.049388777 0)
(-0.24835883 0.046858615 0)
(-0.2586824 0.044214344 0)
(-0.26839521 0.041461815 0)
(-0.27747335 0.038607164 0)
(-0.28589436 0.035656802 0)
(-0.29363725 0.032617406 0)
(-0.30068255 0.029495904 0)
(-0.3070124 0.026299461 0)
(-0.31261058 0.023035468 0)
(-0.31746256 0.019711521 0)
(-0.32155556 0.016335409 0)
(-0.32487857 0.012915091 0)
(-0.32742244 0.0094586833 0)
(-0.32917982 0.005974436 0)
(-0.33014529 0.0024707204 0)
(-0.3303153 -0.0010440076 0)
(-0.32968826 -0.0045612276 0)
(-0.32826449 -0.0080723643 0)
(-0.32604629 -0.011568813 0)
(-0.3230379 -0.015041964 0)
(-0.31924551 -0.018483226 0)
(-0.31467726 -0.021884048 0)
(-0.30934322 -0.025235945 0)
(-0.30325539 -0.028530517 0)
(-0.29642766 -0.031759473 0)
(-0.28887577 -0.034914658 0)
(-0.28061733 -0.037988067 0)
(-0.27167173 -0.040971877 0)
(-0.26206011 -0.043858461 0)
(-0.25180534 -0.046640415 0)
(-0.24093193 -0.049310577 0)
(-0.22946598 -0.051862049 0)
(-0.21743516 -0.054288217 0)
(-0.20486859 -0.05658277 0)
(-0.1917968 -0.058739723 0)
(-0.17825162 -0.060753429 0)
(-0.16426616 -0.062618606 0)
(-0.14987467 -0.064330342 0)
(-0.13511248 -0.065884124 0)
(-0.12001591 -0.067275841 0)
(-0.10462216 -0.068501805 0)
(-0.088969221 -0.069558762 0)
(-0.07309579 -0.070443899 0)
(-0.05704114 -0.07115486 0)
(-0.040845037 -0.071689749 0)
(-0.024547623 -0.072047136 0)
(-0.0081893132 -0.072226069 0)
(0.0081893132 -0.072226069 0)
(0.024547623 -0.072047136 0)
(0.040845037 -0.071689749 0)
(0.05704114 -0.07115486 0)
(0.07309579 -0.070443899 0)
(0.088969221 -0.069558762 0)
(0.10462216 -0.068501805 0)
(0.12001591 -0.067275841 0)
(0.13511248 -0.065884124 0)
(0.14987467 -0.064330342 0)
(0.16426616 -0.062618606 0)
(0.17825162 -0.060753429 0)
(0.1917968 -0.058739723 0)
(0.20486859 -0.05658277 0)
(0.21743516 -0.054288217 0)
(0.22946598 -0.051862049 0)
(0.24093193 -0.049310577 0)
(0.25180534 -0.046640415 0)
(0.26206011 -0.043858461 0)
(0.27167173 -0.040971877 0)
(0.28061733 -0.037988067 0)
(0.28887577 -0.034914658 0)
(0.29642766 -0.031759473 0)
(0.30325539 -0.028530517 0)
(0.30934322 -0.025235945 0)
(0.31467726 -0.021884048 0)
(0.31924551 -0.018483226 0)
(0.3230379 -0.015041964 0)
(0.32604629 -0.011568813 0)
(0.32826449 -0.0080723643 0)
(0.32968826 -0.0045612276 0)
(0.3303153 -0.0010440076 0)
(0.33014529 0.0024707204 0)
(0.32917982 0.005974436 0)
(0.32742244 0.0094586833 0)
(0.32487857 0.012915091 0)
(0.32155556 0.016335409 0)
(0.31746256 0.019711521 0)
(0.31261058 0.023035468 0)
(0.3070124 0.026299461 0)
(0.30068255 0.029495904 0)
(0.29363725 0.032617406 0)
(0.28589436 0.035656802 0)
(0.27747335 0.038607164 0)
(0.26839521 0.041461815 0)
(0.2586824 0.044214344 0)
(0.24835883 0.046858615 0)
(0.23744972 0.049388777 0)
(0.22598159 0.051799273 0)
(0.21398219 0.054084849 0)
(0.20148039 0.05624056 0)
(0.18850614 0.058261774 0)
(0.17509042 0.060144179 0)
(0.16126511 0.061883787 0)
(0.14706295 0.063476935 0)
(0.13251748 0.064920288 0)
(0.11766292 0.066210843 0)
(0.10253417 0.067345928 0)
(0.087166631 0.068323204 0)
(0.071596235 0.069140666 0)
(0.055859302 0.069796641 0)
(0.039992493 0.070289793 0)
(0.02403273 0.070619118 0)
(0.0080171194 0.070783948 0)
(-0.0081175253 0.086899918 0)
(-0.024333742 0.086697663 0)
(-0.040493494 0.086293563 0)
(-0.056559263 0.085688435 0)
(-0.072493716 0.084883506 0)
(-0.088259781 0.083880411 0)
(-0.10382072 0.082681195 0)
(-0.11914022 0.081288312 0)
(-0.13418243 0.079704622 0)
(-0.14891207 0.077933396 0)
(-0.16329451 0.075978309 0)
(-0.17729581 0.073843442 0)
(-0.19088282 0.071533279 0)
(-0.20402326 0.069052704 0)
(-0.21668578 0.066406998 0)
(-0.22884003 0.063601834 0)
(-0.24045676 0.060643271 0)
(-0.25150786 0.057537749 0)
(-0.26196644 0.054292077 0)
(-0.27180692 0.05091343 0)
(-0.28100508 0.04740933 0)
(-0.28953811 0.043787643 0)
(-0.29738472 0.040056558 0)
(-0.30452514 0.036224574 0)
(-0.31094123 0.032300485 0)
(-0.31661652 0.028293361 0)
(-0.32153623 0.024212526 0)
(-0.32568738 0.020067541 0)
(-0.32905877 0.015868181 0)
(-0.33164104 0.011624409 0)
(-0.33342674 0.007346357 0)
(-0.33441029 0.0030442991 0)
(-0.33458807 -0.0012713796 0)
(-0.3339584 -0.0055902087 0)
(-0.33252159 -0.0099016548 0)
(-0.33027989 -0.01419515 0)
(-0.32723756 -0.018460118 0)
(-0.32340084 -0.022686006 0)
(-0.31877793 -0.026862312 0)
(-0.313379 -0.03097861 0)
(-0.30721616 -0.03502458 0)
(-0.30030346 -0.038990039 0)
(-0.29265682 -0.042864965 0)
(-0.28429405 -0.046639524 0)
(-0.27523476 -0.050304103 0)
(-0.26550036 -0.05384933 0)
(-0.255114 -0.057266106 0)
(-0.24410049 -0.060545631 0)
(-0.23248628 -0.063679425 0)
(-0.22029939 -0.06665936 0)
(-0.20756931 -0.069477679 0)
(-0.19432698 -0.072127023 0)
(-0.18060467 -0.074600452 0)
(-0.16643592 -0.076891468 0)
(-0.15185545 -0.078994037 0)
(-0.13689907 -0.080902606 0)
(-0.12160361 -0.08261212 0)
(-0.10600677 -0.084118045 0)
(-0.090147086 -0.085416378 0)
(-0.074063789 -0.08650366 0)
(-0.057796707 -0.087376992 0)
(-0.041386166 -0.088034042 0)
(-0.024872876 -0.088473055 0)
(-0.0082978271 -0.088692855 0)
(0.0082978271 -0.088692855 0)
(0.024872876 -0.088473055 0)
(0.041386166 -0.088034042 0)
(0.057796707 -0.087376992 0)
(0.074063789 -0.08650366 0)
(0.090147086 -0.085416378 0)
(0.10600677 -0.084118045 0)
(0.12160361 -0.08261212 0)
(0.13689907 -0.080902606 0)
(0.15185545 -0.078994037 0)
(0.16643592 -0.076891468 0)
(0.18060467 -0.074600452 0)
(0.19432698 -0.072127023 0)
(0.20756931 -0.069477679 0)
(0.22029939 -0.06665936 0)
(0.23248628 -0.063679425 0)
(0.24410049 -0.060545631 0)
(0.255114 -0.057266106 0)
(0.26550036 -0.05384933 0)
(0.27523476 -0.050304103 0)
(0.28429405 -0.046639524 0)
(0.29265682 -0.042864965 0)
(0.30030346 -0.038990039 0)
(0.30721616 -0.03502458 0)
(0.313379 -0.03097861 0)
(0.31877793 -0.026862312 0)
(0.32340084 -0.022686006 0)
(0.32723756 -0.018460118 0)
(0.33027989 -0.01419515 0)
(0.33252159 -0.0099016548 0)
(0.3339584 -0.0055902087 0)
(0.33458807 -0.0012713796 0)
(0.33441029 0.0030442991 0)
(0.33342674 0.007346357 0)
(0.33164104 0.011624409 0)
(0.32905877 0.015868181 0)
(0.32568738 0.020067541 0)
(0.32153623 0.024212526 0)
(0.31661652 0.028293361 0)
(0.31094123 0.032300485 0)
(0.30452514 0.036224574 0)
(0.29738472 0.040056558 0)
(0.28953811 0.043787643 0)
(0.28100508 0.04740933 0)
(0.27180692 0.05091343 0)
(0.26196644 0.054292077 0)
(0.25150786 0.057537749 0)
(0.24045676 0.060643271 0)
(0.22884003 0.063601834 0)
(0.21668578 0.066406998 0)
(0.20402326 0.069052704 0)
(0.19088282 0.071533279 0)
(0.17729581 0.073843442 0)
(0.16329451 0.075978309 0)
(0.14891207 0.077933396 0)
(0.13418243 0.079704622 0)
(0.11914022 0.081288312 0)
(0.10382072 0.082681195 0)
(0.088259781 0.083880411 0)
(0.072493716 0.084883506 0)
(0.056559263 0.085688435 0)
(0.040493494 0.086293563 0)
(0.024333742 0.086697663 0)
(0.0081175253 0.086899918 0)
(-0.0082361716 0.10323477 0)
(-0.024689439 0.10299464 0)
(-0.041085515 0.10251487 0)
(-0.057386399 0.10179642 0)
(-0.073554272 0.10084075 0)
(-0.089551581 0.099649783 0)
(-0.10534111 0.098225943 0)
(-0.12088604 0.096572132 0)
(-0.13615007 0.094691733 0)
(-0.15109742 0.092588617 0)
(-0.16569299 0.090267132 0)
(-0.17990235 0.08773211 0)
(-0.1936919 0.08498886 0)
(-0.20702888 0.082043166 0)
(-0.21988148 0.078901283 0)
(-0.23221889 0.075569932 0)
(-0.24401141 0.072056295 0)
(-0.2552305 0.068368005 0)
(-0.26584884 0.064513137 0)
(-0.27584043 0.060500198 0)
(-0.28518064 0.056338115 0)
(-0.2938463 0.052036219 0)
(-0.30181571 0.04760423 0)
(-0.30906878 0.043052237 0)
(-0.31558704 0.038390682 0)
(-0.32135369 0.033630334 0)
(-0.3263537 0.028782271 0)
(-0.3305738 0.023857848 0)
(-0.33400257 0.018868679 0)
(-0.33663046 0.013826602 0)
(-0.33844982 0.0087436571 0)
(-0.33945494 0.0036320505 0)
(-0.33964208 -0.0014958747 0)
(-0.33900948 -0.0066276713 0)
(-0.33755739 -0.011750818 0)
(-0.33528806 -0.016852753 0)
(-0.33220575 -0.021920906 0)
(-0.32831673 -0.02694273 0)
(-0.3236293 -0.03190574 0)
(-0.31815374 -0.036797541 0)
(-0.3119023 -0.041605866 0)
(-0.3048892 -0.046318604 0)
(-0.29713057 -0.050923841 0)
(-0.28864447 -0.055409883 0)
(-0.27945077 -0.059765298 0)
(-0.2695712 -0.06397894 0)
(-0.25902922 -0.06803999 0)
(-0.24785003 -0.071937978 0)
(-0.23606046 -0.075662819 0)
(-0.22368895 -0.079204842 0)
(-0.21076545 -0.082554819 0)
(-0.19732136 -0.085703996 0)
(-0.18338947 -0.088644113 0)
(-0.16900385 -0.091367439 0)
(-0.15419975 -0.09386679 0)
(-0.13901358 -0.096135559 0)
(-0.12348274 -0.098167729 0)
(-0.10764556 -0.099957903 0)
(-0.091541191 -0.10150131 0)
(-0.075209509 -0.10279385 0)
(-0.058690999 -0.10383205 0)
(-0.042026652 -0.10461314 0)
(-0.025257852 -0.10513503 0)
(-0.0084262663 -0.10539633 0)
(0.0084262663 -0.10539633 0)
(0.025257852 -0.10513503 0)
(0.042026652 -0.10461314 0)
(0.058690999 -0.10383205 0)
(0.075209509 -0.10279385 0)
(0.091541191 -0.10150131 0)
(0.10764556 -0.099957903 0)
(0.12348274 -0.098167729 0)
(0.13901358 -0.096135559 0)
(0.15419975 -0.09386679 0)
(0.16900385 -0.091367439 0)
(0.18338947 -0.088644113 0)
(0.19732136 -0.085703996 0)
(0.21076545 -0.082554819 0)
(0.22368895 -0.079204842 0)
(0.23606046 -0.075662819 0)
(0.24785003 -0.071937978 0)
(0.25902922 -0.06803999 0)
(0.2695712 -0.06397894 0)
(0.27945077 -0.059765298 0)
(0.28864447 -0.055409883 0)
(0.29713057 -0.050923841 0)
(0.3048892 -0.046318604 0)
(0.3119023 -0.041605866 0)
(0.31815374 -0.036797541 0)
(0.3236293 -0.03190574 0)
(0.32831673 -0.02694273 0)
(0.33220575 -0.021920906 0)
(0.33528806 -0.016852753 0)
(0.33755739 -0.011750818 0)
(0.33900948 -0.0066276713 0)
(0.33964208 -0.0014958747 0)
(0.33945494 0.0036320505 0)
(0.33844982 0.0087436571 0)
(0.33663046 0.013826602 0)
(0.33400257 0.018868679 0)
(0.3305738 0.023857848 0)
(0.3263537 0.028782271 0)
(0.32135369 0.033630334 0)
(0.31558704 0.038390682 0)
(0.30906878 0.043052237 0)
(0.30181571 0.04760423 0)
(0.2938463 0.052036219 0)
(0.28518064 0.056338115 0)
(0.27584043 0.060500198 0)
(0.26584884 0.064513137 0)
(0.2552305 0.068368005 0)
(0.24401141 0.072056295 0)
(0.23221889 0.075569932 0)
(0.21988148 0.078901283 0)
(0.20702888 0.082043166 0)
(0.1936919 0.08498886 0)
(0.17990235 0.08773211 0)
(0.16569299 0.090267132 0)
(0.15109742 0.092588617 0)
(0.13615007 0.094691733 0)
(0.12088604 0.096572132 0)
(0.10534111 0.098225943 0)
(0.089551581 0.099649783 0)
(0.073554272 0.10084075 0)
(0.057386399 0.10179642 0)
(0.041085515 0.10251487 0)
(0.024689439 0.10299464 0)
(0.0082361716 0.10323477 0)
(-0.0083732303 0.1198251 0)
(-0.025100337 0.11954658 0)
(-0.041769418 0.11899009 0)
(-0.058341916 0.11815676 0)
(-0.074779457 0.11704827 0)
(-0.091043931 0.11566683 0)
(-0.10709756 0.11401524 0)
(-0.12290299 0.11209687 0)
(-0.13842334 0.1099156 0)
(-0.1536223 0.10747593 0)
(-0.16846419 0.10478286 0)
(-0.18291406 0.10184199 0)
(-0.19693775 0.098659453 0)
(-0.21050196 0.095241937 0)
(-0.22357435 0.09159668 0)
(-0.23612358 0.087731458 0)
(-0.24811943 0.083654583 0)
(-0.25953285 0.079374894 0)
(-0.27033603 0.074901742 0)
(-0.28050248 0.070244984 0)
(-0.2900071 0.065414963 0)
(-0.29882627 0.060422495 0)
(-0.30693787 0.05527885 0)
(-0.3143214 0.04999573 0)
(-0.320958 0.044585245 0)
(-0.32683053 0.039059892 0)
(-0.3319236 0.033432524 0)
(-0.33622367 0.027716323 0)
(-0.33971902 0.021924768 0)
(-0.34239988 0.016071605 0)
(-0.34425839 0.010170811 0)
(-0.34528868 0.0042365597 0)
(-0.34548687 -0.0017168147 0)
(-0.3448511 -0.0076748554 0)
(-0.34338155 -0.013623019 0)
(-0.34108045 -0.019546715 0)
(-0.33795209 -0.02543134 0)
(-0.33400278 -0.031262322 0)
(-0.32924091 -0.037025157 0)
(-0.32367688 -0.042705446 0)
(-0.31732312 -0.048288937 0)
(-0.31019404 -0.053761561 0)
(-0.30230603 -0.059109472 0)
(-0.29367739 -0.064319085 0)
(-0.28432834 -0.069377113 0)
(-0.27428095 -0.074270607 0)
(-0.26355905 -0.078986988 0)
(-0.25218828 -0.083514089 0)
(-0.24019592 -0.087840187 0)
(-0.22761089 -0.091954039 0)
(-0.21446367 -0.095844916 0)
(-0.20078622 -0.099502637 0)
(-0.18661189 -0.1029176 0)
(-0.17197537 -0.10608081 0)
(-0.15691256 -0.10898391 0)
(-0.14146052 -0.11161922 0)
(-0.12565733 -0.11397974 0)
(-0.10954204 -0.11605919 0)
(-0.093154529 -0.11785201 0)
(-0.076535416 -0.11935343 0)
(-0.059725945 -0.12055943 0)
(-0.042767877 -0.12146676 0)
(-0.02570338 -0.12207301 0)
(-0.0085749079 -0.12237654 0)
(0.0085749079 -0.12237654 0)
(0.02570338 -0.12207301 0)
(0.042767877 -0.12146676 0)
(0.059725945 -0.12055943 0)
(0.076535416 -0.11935343 0)
(0.093154529 -0.11785201 0)
(0.10954204 -0.11605919 0)
(0.12565733 -0.11397974 0)
(0.14146052 -0.11161922 0)
(0.15691256 -0.10898391 0)
(0.17197537 -0.10608081 0)
(0.18661189 -0.1029176 0)
(0.20078622 -0.099502637 0)
(0.21446367 -0.095844916 0)
(0.22761089 -0.091954039 0)
(0.24019592 -0.087840187 0)
(0.25218828 -0.083514089 0)
(0.26355905 -0.078986988 0)
(0.27428095 -0.074270607 0)
(0.28432834 -0.069377113 0)
(0.29367739 -0.064319085 0)
(0.30230603 -0.059109472 0)
(0.31019404 -0.053761561 0)
(0.31732312 -0.048288937 0)
(0.32367688 -0.042705446 0)
(0.32924091 -0.037025157 0)
(0.33400278 -0.031262322 0)
(0.33795209 -0.02543134 0)
(0.34108045 -0.019546715 0)
(0.34338155 -0.013623019 0)
(0.3448511 -0.0076748554 0)
(0.34548687 -0.0017168147 0)
(0.34528868 0.0042365597 0)
(0.34425839 0.010170811 0)
(0.34239988 0.016071605 0)
(0.33971902 0.021924768 0)
(0.33622367 0.027716323 0)
(0.3319236 0.033432524 0)
(0.32683053 0.039059892 0)
(0.320958 0.044585245 0)
(0.3143214 0.04999573 0)
(0.30693787 0.05527885 0)
(0.29882627 0.060422495 0)
(0.2900071 0.065414963 0)
(0.28050248 0.070244984 0)
(0.27033603 0.074901742 0)
(0.25953285 0.079374894 0)
(0.24811943 0.083654583 0)
(0.23612358 0.087731458 0)
(0.22357435 0.09159668 0)
(0.21050196 0.095241937 0)
(0.19693775 0.098659453 0)
(0.18291406 0.10184199 0)
(0.16846419 0.10478286 0)
(0.1536223 0.10747593 0)
(0.13842334 0.1099156 0)
(0.12290299 0.11209687 0)
(0.10709756 0.11401524 0)
(0.091043931 0.11566683 0)
(0.074779457 0.11704827 0)
(0.058341916 0.11815676 0)
(0.041769418 0.11899009 0)
(0.025100337 0.11954658 0)
(0.0083732303 0.1198251 0)
(-0.008528935 0.1367079 0)
(-0.025567137 0.1363904 0)
(-0.042546371 0.13575602 0)
(-0.059427452 0.13480603 0)
(-0.076171377 0.13354234 0)
(-0.092739407 0.13196747 0)
(-0.10909314 0.13008459 0)
(-0.12519458 0.1278975 0)