/*--------------------------------*- C++ -*----------------------------------*\
| =========                 |                                                 |
| \\      /  F ield         | OpenFOAM: The Open Source CFD Toolbox           |
|  \\    /   O peration     | Version:  2106                                  |
|   \\  /    A nd           | Website:  www.openfoam.com                      |
|    \\/     M anipulation  |                                                 |
\*---------------------------------------------------------------------------*/
FoamFile
{
    version     2.0;
    format      ascii;
    arch        "LSB;label=32;scalar=64";
    class       volVectorField;
    location    "0.005";
    object      U_0;
}
// * * * * * * * * * * * * * * * * * * * * * * * * * * * * * * * * * * * * * //

dimensions      [0 1 -1 0 0 0 0];

internalField   nonuniform List<vector> 
16384
(
(-0.0078026622 0.0077939749 0)
(-0.023389799 0.0077758053 0)
(-0.038922411 0.0077395031 0)
(-0.054364271 0.0076851427 0)
(-0.069679338 0.0076128355 0)
(-0.084831831 0.0075227299 0)
(-0.099786304 0.0074150115 0)
(-0.11450772 0.0072899027 0)
(-0.12896152 0.0071476633 0)
(-0.1431137 0.0069885893 0)
(-0.15693089 0.006813014 0)
(-0.17038044 0.0066213067 0)
(-0.18343043 0.0064138734 0)
(-0.19604983 0.0061911556 0)
(-0.20820851 0.0059536308 0)
(-0.21987734 0.0057018114 0)
(-0.23102824 0.0054362442 0)
(-0.24163427 0.0051575101 0)
(-0.25166967 0.0048662232 0)
(-0.26110996 0.0045630295 0)
(-0.26993196 0.0042486066 0)
(-0.27811391 0.003923662 0)
(-0.28563547 0.0035889322 0)
(-0.2924778 0.0032451811 0)
(-0.29862363 0.0028931986 0)
(-0.30405728 0.0025337991 0)
(-0.30876475 0.0021678195 0)
(-0.31273371 0.0017961178 0)
(-0.31595356 0.00141957 0)
(-0.31841549 0.0010390626 0)
(-0.32011261 0.000655471 0)
(-0.32103934 0.00026983551 0)
(-0.3211929 -0.00011698614 0)
(-0.32057153 -0.00050412677 0)
(-0.31917569 -0.00089056254 0)
(-0.31700772 -0.0012753618 0)
(-0.31407184 -0.0016575797 0)
(-0.31037415 -0.0020362718 0)
(-0.30592265 -0.002410498 0)
(-0.3007272 -0.0027793255 0)
(-0.29479956 -0.0031418307 0)
(-0.28815327 -0.0034971024 0)
(-0.28080372 -0.0038442439 0)
(-0.27276808 -0.0041823758 0)
(-0.26406523 -0.0045106379 0)
(-0.25471578 -0.0048281926 0)
(-0.24474197 -0.0051342261 0)
(-0.23416768 -0.0054279517 0)
(-0.22301829 -0.0057086119 0)
(-0.2113207 -0.0059754801 0)
(-0.19910322 -0.0062278635 0)
(-0.1863955 -0.006465105 0)
(-0.1732285 -0.0066865847 0)
(-0.15963434 -0.0068917227 0)
(-0.1456463 -0.0070799804 0)
(-0.13129867 -0.0072508621 0)
(-0.1166267 -0.0074039172 0)
(-0.10166648 -0.007538741 0)
(-0.086454891 -0.0076549764 0)
(-0.071029458 -0.0077523152 0)
(-0.055428282 -0.0078304989 0)
(-0.039689928 -0.0078893194 0)
(-0.023853328 -0.0079286204 0)
(-0.0079576766 -0.0079482971 0)
(0.0079576766 -0.0079482971 0)
(0.023853328 -0.0079286204 0)
(0.039689928 -0.0078893194 0)
(0.055428282 -0.0078304989 0)
(0.071029458 -0.0077523152 0)
(0.086454891 -0.0076549764 0)
(0.10166648 -0.007538741 0)
(0.1166267 -0.0074039172 0)
(0.13129867 -0.0072508621 0)
(0.1456463 -0.0070799804 0)
(0.15963434 -0.0068917227 0)
(0.1732285 -0.0066865847 0)
(0.1863955 -0.006465105 0)
(0.19910322 -0.0062278635 0)
(0.2113207 -0.0059754801 0)
(0.22301829 -0.0057086119 0)
(0.23416768 -0.0054279517 0)
(0.24474197 -0.0051342261 0)
(0.25471578 -0.0048281926 0)
(0.26406523 -0.0045106379 0)
(0.27276808 -0.0041823758 0)
(0.28080372 -0.0038442439 0)
(0.28815327 -0.0034971024 0)
(0.29479956 -0.0031418307 0)
(0.3007272 -0.0027793255 0)
(0.30592265 -0.002410498 0)
(0.31037415 -0.0020362718 0)
(0.31407184 -0.0016575797 0)
(0.31700772 -0.0012753618 0)
(0.31917569 -0.00089056254 0)
(0.32057153 -0.00050412677 0)
(0.3211929 -0.00011698614 0)
(0.32103934 0.00026983551 0)
(0.32011261 0.000655471 0)
(0.31841549 0.0010390626 0)
(0.31595356 0.00141957 0)
(0.31273371 0.0017961178 0)
(0.30876475 0.0021678195 0)
(0.30405728 0.0025337991 0)
(0.29862363 0.0028931986 0)
(0.2924778 0.0032451811 0)
(0.28563547 0.0035889322 0)
(0.27811391 0.003923662 0)
(0.26993196 0.0042486066 0)
(0.26110996 0.0045630295 0)
(0.25166967 0.0048662232 0)
(0.24163427 0.0051575101 0)
(0.23102824 0.0054362442 0)
(0.21987734 0.0057018114 0)
(0.20820851 0.0059536308 0)
(0.19604983 0.0061911556 0)
(0.18343043 0.0064138734 0)
(0.17038044 0.0066213067 0)
(0.15693089 0.006813014 0)
(0.1431137 0.0069885893 0)
(0.12896152 0.0071476633 0)
(0.11450772 0.0072899027 0)
(0.099786304 0.0074150115 0)
(0.084831831 0.0075227299 0)
(0.069679338 0.0076128355 0)
(0.054364271 0.0076851427 0)
(0.038922411 0.0077395031 0)
(0.023389799 0.0077758053 0)
(0.0078026623 0.0077939749 0)
(-0.0078303347 0.023402941 0)
(-0.023472759 0.023348388 0)
(-0.039060486 0.023239395 0)
(-0.054557176 0.023076184 0)
(-0.069926671 0.022859088 0)
(-0.085133078 0.022588554 0)
(-0.10014084 0.022265139 0)
(-0.11491479 0.021889509 0)
(-0.12942028 0.021462445 0)
(-0.14362318 0.020984834 0)
(-0.15749001 0.020457677 0)
(-0.17098799 0.019882081 0)
(-0.18408513 0.019259266 0)
(-0.19675026 0.018590557 0)
(-0.20895315 0.017877386 0)
(-0.22066456 0.017121291 0)
(-0.23185632 0.016323913 0)
(-0.24250138 0.015486998 0)
(-0.25257387 0.014612386 0)
(-0.26204923 0.013702019 0)
(-0.27090419 0.012757929 0)
(-0.27911689 0.011782241 0)
(-0.2866669 0.010777166 0)
(-0.29353532 0.0097449979 0)
(-0.29970478 0.0086881078 0)
(-0.30515956 0.0076089408 0)
(-0.30988557 0.0065100098 0)
(-0.31387043 0.0053938904 0)
(-0.31710349 0.0042632139 0)
(-0.31957589 0.0031206565 0)
(-0.32128062 0.0019689204 0)
(-0.32221241 0.00081083465 0)
(-0.32236796 -0.0003508047 0)
(-0.32174576 -0.0015132419 0)
(-0.32034625 -0.0026736271 0)
(-0.31817173 -0.0038291124 0)
(-0.31522643 -0.0049768526 0)
(-0.31151647 -0.0061140104 0)
(-0.30704987 -0.0072377624 0)
(-0.30183651 -0.0083453065 0)
(-0.29588817 -0.0094338697 0)
(-0.28921846 -0.010500715 0)
(-0.28184281 -0.01154315 0)
(-0.27377843 -0.012558533 0)
(-0.26504428 -0.013544281 0)
(-0.25566103 -0.014497879 0)
(-0.24565102 -0.015416882 0)
(-0.23503818 -0.016298928 0)
(-0.22384802 -0.017141741 0)
(-0.21210751 -0.01794314 0)
(-0.19984507 -0.018701043 0)
(-0.18709048 -0.019413477 0)
(-0.17387479 -0.020078581 0)
(-0.16023027 -0.020694611 0)
(-0.1461903 -0.021259952 0)
(-0.13178932 -0.021773113 0)
(-0.11706271 -0.022232741 0)
(-0.10204671 -0.02263762 0)
(-0.086778339 -0.022986679 0)
(-0.07129527 -0.023278991 0)
(-0.055635756 -0.02351378 0)
(-0.039838517 -0.023690421 0)
(-0.023942639 -0.023808443 0)
(-0.0079874732 -0.023867533 0)
(0.0079874732 -0.023867533 0)
(0.023942639 -0.023808443 0)
(0.039838517 -0.023690421 0)
(0.055635756 -0.02351378 0)
(0.07129527 -0.023278992 0)
(0.086778339 -0.022986679 0)
(0.10204671 -0.02263762 0)
(0.11706271 -0.022232741 0)
(0.13178932 -0.021773113 0)
(0.1461903 -0.021259952 0)
(0.16023027 -0.020694611 0)
(0.17387479 -0.020078581 0)
(0.18709048 -0.019413477 0)
(0.19984507 -0.018701043 0)
(0.21210751 -0.01794314 0)
(0.22384802 -0.017141741 0)
(0.23503818 -0.016298928 0)
(0.24565102 -0.015416882 0)
(0.25566103 -0.014497879 0)
(0.26504428 -0.013544281 0)
(0.27377843 -0.012558533 0)
(0.28184281 -0.01154315 0)
(0.28921846 -0.010500715 0)
(0.29588817 -0.0094338697 0)
(0.30183651 -0.0083453065 0)
(0.30704987 -0.0072377624 0)
(0.31151647 -0.0061140104 0)
(0.31522643 -0.0049768526 0)
(0.31817173 -0.0038291124 0)
(0.32034625 -0.0026736271 0)
(0.32174576 -0.0015132419 0)
(0.32236796 -0.0003508047 0)
(0.32221241 0.00081083465 0)
(0.32128062 0.0019689204 0)
(0.31957589 0.0031206565 0)
(0.31710349 0.0042632139 0)
(0.31387043 0.0053938904 0)
(0.30988557 0.0065100098 0)
(0.30515956 0.0076089408 0)
(0.29970478 0.0086881078 0)
(0.29353532 0.0097449979 0)
(0.2866669 0.010777166 0)
(0.27911689 0.011782241 0)
(0.27090419 0.012757929 0)
(0.26204923 0.013702019 0)
(0.25257387 0.014612386 0)
(0.24250138 0.015486998 0)
(0.23185632 0.016323913 0)
(0.22066456 0.017121291 0)
(0.20895315 0.017877386 0)
(0.19675026 0.018590557 0)
(0.18408513 0.019259266 0)
(0.17098799 0.019882081 0)
(0.15749001 0.020457677 0)
(0.14362318 0.020984834 0)
(0.12942028 0.021462445 0)
(0.11491479 0.021889509 0)
(0.10014084 0.022265139 0)
(0.085133078 0.022588554 0)
(0.069926671 0.022859088 0)
(0.054557176 0.023076184 0)
(0.039060486 0.023239395 0)
(0.023472759 0.023348388 0)
(0.0078303347 0.023402941 0)
(-0.0078763482 0.039091145 0)
(-0.023610704 0.039000046 0)
(-0.039290078 0.038818033 0)
(-0.054877937 0.038545478 0)
(-0.070337937 0.038182938 0)
(-0.085633992 0.037731157 0)
(-0.10073035 0.037191061 0)
(-0.11559168 0.036563766 0)
(-0.1301831 0.035850569 0)
(-0.14447034 0.035052953 0)
(-0.15841971 0.034172585 0)
(-0.17199825 0.033211314 0)
(-0.18517377 0.032171173 0)
(-0.19791494 0.031054372 0)
(-0.21019135 0.029863302 0)
(-0.22197358 0.028600529 0)
(-0.23323328 0.027268792 0)
(-0.24394323 0.025871001 0)
(-0.25407741 0.024410232 0)
(-0.26361109 0.022889724 0)
(-0.27252085 0.02131287 0)
(-0.28078468 0.019683218 0)
(-0.28838201 0.018004459 0)
(-0.29529381 0.016280422 0)
(-0.30150258 0.01451507 0)
(-0.30699249 0.012712483 0)
(-0.31174933 0.01087686 0)
(-0.31576062 0.0090125021 0)
(-0.31901565 0.0071238036 0)
(-0.32150547 0.0052152412 0)
(-0.32322299 0.0032913622 0)
(-0.32416292 0.001356821 0)
(-0.32432187 -0.00058371539 0)
(-0.32369833 -0.0025255761 0)
(-0.3222927 -0.004464022 0)
(-0.3201073 -0.0063943005 0)
(-0.31714634 -0.0083116595 0)
(-0.31341598 -0.010211358 0)
(-0.30892426 -0.012088678 0)
(-0.30368112 -0.013938939 0)
(-0.29769838 -0.015757505 0)
(-0.29098972 -0.017539804 0)
(-0.28357065 -0.019281337 0)
(-0.27545848 -0.02097769 0)
(-0.26667229 -0.022624546 0)
(-0.25723285 -0.024217701 0)
(-0.24716262 -0.025753072 0)
(-0.23648571 -0.02722671 0)
(-0.22522773 -0.028634811 0)
(-0.21341586 -0.029973729 0)
(-0.20107868 -0.031239987 0)
(-0.18824614 -0.032430286 0)
(-0.17494949 -0.033541513 0)
(-0.16122121 -0.034570758 0)
(-0.1470949 -0.035515315 0)
(-0.13260521 -0.036372697 0)
(-0.11778775 -0.03714064 0)
(-0.10267899 -0.037817113 0)
(-0.087316193 -0.038400322 0)
(-0.071737283 -0.03888872 0)
(-0.055980761 -0.039281008 0)
(-0.040085602 -0.039576143 0)
(-0.024091152 -0.039773337 0)
(-0.0080370213 -0.039872066 0)
(0.0080370213 -0.039872066 0)
(0.024091152 -0.039773337 0)
(0.040085602 -0.039576143 0)
(0.055980761 -0.039281008 0)
(0.071737283 -0.03888872 0)
(0.087316193 -0.038400322 0)
(0.10267899 -0.037817113 0)
(0.11778775 -0.03714064 0)
(0.13260521 -0.036372697 0)
(0.1470949 -0.035515315 0)
(0.16122121 -0.034570758 0)
(0.17494949 -0.033541513 0)
(0.18824614 -0.032430286 0)
(0.20107868 -0.031239987 0)
(0.21341586 -0.029973729 0)
(0.22522773 -0.028634811 0)
(0.23648571 -0.02722671 0)
(0.24716262 -0.025753072 0)
(0.25723285 -0.024217701 0)
(0.26667229 -0.022624546 0)
(0.27545848 -0.02097769 0)
(0.28357065 -0.019281337 0)
(0.29098972 -0.017539804 0)
(0.29769838 -0.015757505 0)
(0.30368112 -0.013938939 0)
(0.30892426 -0.012088678 0)
(0.31341598 -0.010211358 0)
(0.31714634 -0.0083116595 0)
(0.3201073 -0.0063943005 0)
(0.3222927 -0.004464022 0)
(0.32369833 -0.0025255761 0)
(0.32432187 -0.00058371539 0)
(0.32416292 0.001356821 0)
(0.32322299 0.0032913622 0)
(0.32150547 0.0052152412 0)
(0.31901565 0.0071238036 0)
(0.31576062 0.0090125021 0)
(0.31174933 0.01087686 0)
(0.30699249 0.012712483 0)
(0.30150258 0.01451507 0)
(0.29529381 0.016280422 0)
(0.28838201 0.018004459 0)
(0.28078468 0.019683218 0)
(0.27252085 0.02131287 0)
(0.26361109 0.022889724 0)
(0.25407741 0.024410232 0)
(0.24394323 0.025871001 0)
(0.23323328 0.027268792 0)
(0.22197358 0.028600529 0)
(0.21019135 0.029863302 0)
(0.19791494 0.031054372 0)
(0.18517377 0.032171173 0)
(0.17199825 0.033211314 0)
(0.15841971 0.034172585 0)
(0.14447034 0.035052953 0)
(0.1301831 0.035850569 0)
(0.11559168 0.036563766 0)
(0.10073035 0.037191061 0)
(0.085633992 0.037731157 0)
(0.070337937 0.038182938 0)
(0.054877937 0.038545478 0)
(0.039290078 0.038818033 0)
(0.023610704 0.039000046 0)
(0.0078763482 0.039091145 0)
(-0.0079405481 0.054889874 0)
(-0.023803172 0.054761999 0)
(-0.039610415 0.054506509 0)
(-0.055325481 0.054123925 0)
(-0.07091176 0.053615027 0)
(-0.086332903 0.052980856 0)
(-0.1015529 0.052222711 0)
(-0.11653613 0.051342154 0)
(-0.13124749 0.050341002 0)
(-0.14565241 0.049221335 0)
(-0.15971697 0.047985486 0)
(-0.17340793 0.04663605 0)
(-0.18669286 0.045175872 0)
(-0.19954017 0.043608053 0)
(-0.2119192 0.041935944 0)
(-0.22380028 0.040163143 0)
(-0.23515483 0.038293491 0)
(-0.24595538 0.03633107 0)
(-0.2561757 0.034280194 0)
(-0.26579081 0.032145406 0)
(-0.2747771 0.029931469 0)
(-0.28311233 0.027643359 0)
(-0.29077576 0.025286258 0)
(-0.29774815 0.022865541 0)
(-0.30401184 0.020386767 0)
(-0.30955083 0.017855668 0)
(-0.31435076 0.015278136 0)
(-0.31839902 0.012660212 0)
(-0.32168476 0.010008067 0)
(-0.32419895 0.0073279918 0)
(-0.32593437 0.0046263825 0)
(-0.32688569 0.0019097404 0)
(-0.32704944 -0.00081537968 0)
(-0.32642407 -0.0035423838 0)
(-0.32500996 -0.0062646234 0)
(-0.32280941 -0.0089754274 0)
(-0.31982665 -0.011668122 0)
(-0.31606785 -0.014336048 0)
(-0.31154111 -0.016972578 0)
(-0.30625642 -0.019571135 0)
(-0.30022569 -0.022125209 0)
(-0.2934627 -0.024628377 0)
(-0.28598306 -0.027074318 0)
(-0.27780421 -0.029456829 0)
(-0.26894538 -0.031769848 0)
(-0.25942751 -0.034007466 0)
(-0.24927325 -0.036163947 0)
(-0.23850688 -0.038233741 0)
(-0.22715426 -0.040211506 0)
(-0.21524276 -0.042092117 0)
(-0.20280122 -0.043870686 0)
(-0.18985986 -0.045542578 0)
(-0.17645019 -0.047103419 0)
(-0.16260497 -0.048549118 0)
(-0.1483581 -0.049875872 0)
(-0.13374454 -0.051080185 0)
(-0.11880021 -0.052158876 0)
(-0.10356193 -0.053109087 0)
(-0.088067283 -0.0539283 0)
(-0.072354538 -0.054614338 0)
(-0.05646255 -0.055165375 0)
(-0.040430651 -0.055579943 0)
(-0.024298548 -0.055856939 0)
(-0.0081062142 -0.055995621 0)
(0.0081062142 -0.055995621 0)
(0.024298548 -0.055856939 0)
(0.040430651 -0.055579943 0)
(0.05646255 -0.055165375 0)
(0.072354538 -0.054614338 0)
(0.088067283 -0.0539283 0)
(0.10356193 -0.053109087 0)
(0.11880021 -0.052158876 0)
(0.13374454 -0.051080185 0)
(0.1483581 -0.049875872 0)
(0.16260497 -0.048549118 0)
(0.17645019 -0.047103419 0)
(0.18985986 -0.045542578 0)
(0.20280122 -0.043870686 0)
(0.21524276 -0.042092117 0)
(0.22715426 -0.040211506 0)
(0.23850688 -0.038233741 0)
(0.24927325 -0.036163947 0)
(0.25942751 -0.034007466 0)
(0.26894538 -0.031769848 0)
(0.27780421 -0.029456829 0)
(0.28598306 -0.027074318 0)
(0.2934627 -0.024628377 0)
(0.30022569 -0.022125209 0)
(0.30625642 -0.019571135 0)
(0.31154111 -0.016972578 0)
(0.31606785 -0.014336048 0)
(0.31982665 -0.011668122 0)
(0.32280941 -0.0089754274 0)
(0.32500996 -0.0062646234 0)
(0.32642407 -0.0035423838 0)
(0.32704944 -0.00081537968 0)
(0.32688569 0.0019097404 0)
(0.32593437 0.0046263825 0)
(0.32419895 0.0073279918 0)
(0.32168476 0.010008067 0)
(0.31839902 0.012660212 0)
(0.31435076 0.015278136 0)
(0.30955083 0.017855668 0)
(0.30401184 0.020386767 0)
(0.29774815 0.022865541 0)
(0.29077576 0.025286258 0)
(0.28311233 0.027643359 0)
(0.2747771 0.029931469 0)
(0.26579081 0.032145406 0)
(0.2561757 0.034280194 0)
(0.24595538 0.03633107 0)
(0.23515483 0.038293491 0)
(0.22380028 0.040163143 0)
(0.2119192 0.041935944 0)
(0.19954017 0.043608053 0)
(0.18669286 0.045175872 0)
(0.17340793 0.04663605 0)
(0.15971697 0.047985486 0)
(0.14565241 0.049221335 0)
(0.13124749 0.050341002 0)
(0.11653613 0.051342154 0)
(0.1015529 0.052222711 0)
(0.086332903 0.052980856 0)
(0.07091176 0.053615027 0)
(0.055325481 0.054123925 0)
(0.039610415 0.054506509 0)
(0.023803172 0.054761999 0)
(0.0079405481 0.054889874 0)
(-0.0080228733 0.070834789 0)
(-0.024049978 0.070669836 0)
(-0.040021194 0.070340267 0)
(-0.055899386 0.069846749 0)
(-0.071647606 0.069190288 0)
(-0.087229166 0.06837222 0)
(-0.10260771 0.06739422 0)
(-0.11774731 0.066258295 0)
(-0.13261249 0.064966786 0)
(-0.14716837 0.063522366 0)
(-0.16138068 0.061928042 0)
(-0.17521587 0.060187151 0)
(-0.18864116 0.058303359 0)
(-0.20162465 0.056280658 0)
(-0.21413535 0.054123364 0)
(-0.22614328 0.05183611 0)
(-0.23761955 0.049423848 0)
(-0.24853639 0.046891835 0)
(-0.25886726 0.044245632 0)
(-0.26858692 0.041491095 0)
(-0.27767146 0.038634364 0)
(-0.28609839 0.035681858 0)
(-0.29384669 0.032640257 0)
(-0.30089691 0.029516493 0)
(-0.30723116 0.02631774 0)
(-0.31283321 0.023051391 0)
(-0.31768852 0.019725051 0)
(-0.32178431 0.016346512 0)
(-0.32510956 0.012923741 0)
(-0.3276551 0.0094648589 0)
(-0.32941361 0.0059781227 0)
(-0.33037962 0.0024719096 0)
(-0.33054962 -0.0010453184 0)
(-0.329922 -0.0045650349 0)
(-0.32849709 -0.0080786583 0)
(-0.32627718 -0.011577578 0)
(-0.32326653 -0.015053178 0)
(-0.31947132 -0.018496861 0)
(-0.31489971 -0.021900071 0)
(-0.30956178 -0.025254316 0)
(-0.30346953 -0.02855119 0)
(-0.29663686 -0.031782399 0)
(-0.28907954 -0.034939779 0)
(-0.28081517 -0.038015323 0)
(-0.27186316 -0.0410012 0)
(-0.26224468 -0.043889781 0)
(-0.2519826 -0.046673655 0)
(-0.24110145 -0.049345656 0)
(-0.22962737 -0.051898882 0)
(-0.21758802 -0.054326715 0)
(-0.20501256 -0.05662284 0)
(-0.19193152 -0.058781268 0)
(-0.17837679 -0.06079635 0)
(-0.16438147 -0.062662798 0)
(-0.14997984 -0.0643757 0)
(-0.13520727 -0.065930538 0)
(-0.12010009 -0.067323201 0)
(-0.10469552 -0.068549997 0)
(-0.089031597 -0.06960767 0)
(-0.073147028 -0.070493407 0)
(-0.05708112 -0.071204849 0)
(-0.040873662 -0.071740099 0)
(-0.024564825 -0.072097729 0)
(-0.0081950519 -0.072276783 0)
(0.0081950519 -0.072276783 0)
(0.024564825 -0.072097729 0)
(0.040873662 -0.071740099 0)
(0.05708112 -0.071204849 0)
(0.073147028 -0.070493407 0)
(0.089031597 -0.06960767 0)
(0.10469552 -0.068549997 0)
(0.12010009 -0.067323201 0)
(0.13520727 -0.065930538 0)
(0.14997984 -0.0643757 0)
(0.16438147 -0.062662798 0)
(0.17837679 -0.06079635 0)
(0.19193152 -0.058781268 0)
(0.20501256 -0.05662284 0)
(0.21758802 -0.054326715 0)
(0.22962737 -0.051898882 0)
(0.24110145 -0.049345656 0)
(0.2519826 -0.046673655 0)
(0.26224468 -0.043889781 0)
(0.27186316 -0.0410012 0)
(0.28081517 -0.038015323 0)
(0.28907954 -0.034939779 0)
(0.29663686 -0.031782399 0)
(0.30346953 -0.02855119 0)
(0.30956178 -0.025254316 0)
(0.31489971 -0.021900071 0)
(0.31947132 -0.018496861 0)
(0.32326653 -0.015053178 0)
(0.32627718 -0.011577578 0)
(0.32849709 -0.0080786583 0)
(0.329922 -0.0045650349 0)
(0.33054962 -0.0010453184 0)
(0.33037962 0.0024719096 0)
(0.32941361 0.0059781227 0)
(0.3276551 0.0094648589 0)
(0.32510956 0.012923741 0)
(0.32178431 0.016346512 0)
(0.31768852 0.019725051 0)
(0.31283321 0.023051391 0)
(0.30723116 0.02631774 0)
(0.30089691 0.029516493 0)
(0.29384669 0.032640257 0)
(0.28609839 0.035681858 0)
(0.27767146 0.038634364 0)
(0.26858692 0.041491095 0)
(0.25886726 0.044245632 0)
(0.24853639 0.046891835 0)
(0.23761955 0.049423848 0)
(0.22614328 0.05183611 0)
(0.21413535 0.054123363 0)
(0.20162465 0.056280658 0)
(0.18864116 0.058303359 0)
(0.17521587 0.060187151 0)
(0.16138068 0.061928042 0)
(0.14716837 0.063522366 0)
(0.13261249 0.064966786 0)
(0.11774731 0.066258295 0)
(0.10260771 0.06739422 0)
(0.087229166 0.06837222 0)
(0.071647606 0.069190288 0)
(0.055899386 0.069846749 0)
(0.040021194 0.070340267 0)
(0.024049978 0.070669836 0)
(0.0080228733 0.070834789 0)
(-0.0081233493 0.086962323 0)
(-0.0243512 0.086759918 0)
(-0.040522544 0.086355518 0)
(-0.056599835 0.085749941 0)
(-0.072545712 0.084944415 0)
(-0.088323078 0.083940576 0)
(-0.10389517 0.082740472 0)
(-0.11922563 0.081346558 0)
(-0.1342786 0.079761697 0)
(-0.14901878 0.077989162 0)
(-0.16341149 0.076032631 0)
(-0.17742278 0.073896189 0)
(-0.19101948 0.071584324 0)
(-0.20416928 0.069101924 0)
(-0.2168408 0.066454274 0)
(-0.22900369 0.063647051 0)
(-0.24062866 0.06068632 0)
(-0.25168758 0.057578525 0)
(-0.26215356 0.054330483 0)
(-0.27200098 0.050949371 0)
(-0.28120561 0.04744272 0)
(-0.28974463 0.0438184 0)
(-0.29759672 0.040084607 0)
(-0.30474212 0.036249848 0)
(-0.31116266 0.032322923 0)
(-0.31684187 0.028312907 0)
(-0.32176496 0.024229134 0)
(-0.32591893 0.02008117 0)
(-0.32929258 0.015878798 0)
(-0.33187655 0.011631989 0)
(-0.33366337 0.0073508817 0)
(-0.33464749 0.0030457579 0)
(-0.33482525 -0.0012729897 0)
(-0.334195 -0.0055948833 0)
(-0.33275702 -0.009909382 0)
(-0.33051359 -0.01420591 0)
(-0.32746898 -0.018473884 0)
(-0.32362941 -0.022702745 0)
(-0.3190031 -0.026881982 0)
(-0.31360022 -0.031001161 0)
(-0.30743291 -0.035049958 0)
(-0.30051521 -0.039018182 0)
(-0.29286307 -0.042895802 0)
(-0.28449429 -0.046672982 0)
(-0.27542852 -0.050340098 0)
(-0.26568717 -0.053887775 0)
(-0.25529341 -0.057306909 0)
(-0.24427207 -0.060588691 0)
(-0.23264962 -0.063724638 0)
(-0.2204541 -0.066706616 0)
(-0.20771502 -0.069526864 0)
(-0.19446334 -0.072178019 0)
(-0.18073136 -0.074653135 0)
(-0.16655263 -0.076945712 0)
(-0.1519619 -0.079049712 0)
(-0.13699501 -0.080959577 0)
(-0.1216888 -0.082670251 0)
(-0.10608102 -0.084177197 0)
(-0.090210215 -0.085476409 0)
(-0.074115646 -0.086564427 0)
(-0.057837169 -0.08743835 0)
(-0.041415136 -0.088095844 0)
(-0.024890286 -0.088535153 0)
(-0.0083036351 -0.088755102 0)
(0.0083036351 -0.088755102 0)
(0.024890286 -0.088535153 0)
(0.041415136 -0.088095844 0)
(0.057837169 -0.08743835 0)
(0.074115646 -0.086564427 0)
(0.090210215 -0.085476409 0)
(0.10608102 -0.084177197 0)
(0.1216888 -0.082670251 0)
(0.13699501 -0.080959577 0)
(0.1519619 -0.079049712 0)
(0.16655263 -0.076945712 0)
(0.18073136 -0.074653135 0)
(0.19446334 -0.072178019 0)
(0.20771502 -0.069526864 0)
(0.2204541 -0.066706616 0)
(0.23264962 -0.063724638 0)
(0.24427207 -0.060588691 0)
(0.25529341 -0.057306909 0)
(0.26568717 -0.053887775 0)
(0.27542852 -0.050340098 0)
(0.28449429 -0.046672982 0)
(0.29286307 -0.042895802 0)
(0.30051521 -0.039018182 0)
(0.30743291 -0.035049958 0)
(0.31360022 -0.031001161 0)
(0.3190031 -0.026881982 0)
(0.32362941 -0.022702745 0)
(0.32746898 -0.018473884 0)
(0.33051359 -0.01420591 0)
(0.33275702 -0.009909382 0)
(0.334195 -0.0055948833 0)
(0.33482525 -0.0012729897 0)
(0.33464749 0.0030457579 0)
(0.33366337 0.0073508818 0)
(0.33187655 0.011631989 0)
(0.32929258 0.015878798 0)
(0.32591893 0.02008117 0)
(0.32176496 0.024229134 0)
(0.31684187 0.028312907 0)
(0.31116266 0.032322923 0)
(0.30474212 0.036249848 0)
(0.29759672 0.040084607 0)
(0.28974463 0.0438184 0)
(0.28120561 0.04744272 0)
(0.27200098 0.050949371 0)
(0.26215356 0.054330483 0)
(0.25168758 0.057578525 0)
(0.24062866 0.06068632 0)
(0.22900369 0.063647051 0)
(0.2168408 0.066454274 0)
(0.20416928 0.069101924 0)
(0.19101948 0.071584324 0)
(0.17742278 0.073896189 0)
(0.16341149 0.076032631 0)
(0.14901878 0.077989162 0)
(0.1342786 0.079761697 0)
(0.11922563 0.081346558 0)
(0.10389517 0.082740472 0)
(0.088323078 0.083940576 0)
(0.072545712 0.084944415 0)
(0.056599835 0.085749941 0)
(0.040522544 0.086355518 0)
(0.0243512 0.086759918 0)
(0.0081233493 0.086962323 0)
(-0.008242079 0.10330889 0)
(-0.024707147 0.10306859 0)
(-0.041114982 0.10258846 0)
(-0.057427552 0.10186948 0)
(-0.073607014 0.1009131 0)
(-0.089615785 0.099721246 0)
(-0.10541662 0.098296351 0)
(-0.12097268 0.096641315 0)
(-0.13624762 0.094759525 0)
(-0.15120566 0.092654854 0)
(-0.16581165 0.090331655 0)
(-0.18003115 0.087794763 0)
(-0.19383052 0.085049492 0)
(-0.207177 0.082101629 0)
(-0.22003873 0.078957437 0)
(-0.2323849 0.075623641 0)
(-0.24418578 0.072107429 0)
(-0.25541281 0.068416439 0)
(-0.26603865 0.064558755 0)
(-0.27603728 0.060542889 0)
(-0.28538405 0.056377775 0)
(-0.29405578 0.052072752 0)
(-0.30203076 0.047637547 0)
(-0.30928888 0.043082258 0)
(-0.31581166 0.038417333 0)
(-0.32158229 0.033653551 0)
(-0.32658572 0.028801997 0)
(-0.33080868 0.023874036 0)
(-0.33423975 0.018881289 0)
(-0.33686936 0.013835605 0)
(-0.33868986 0.0087490306 0)
(-0.33969555 0.0036337821 0)
(-0.33988267 -0.0014977886 0)
(-0.33924948 -0.0066332255 0)
(-0.33779621 -0.011759999 0)
(-0.33552512 -0.016865537 0)
(-0.33244049 -0.02193726 0)
(-0.32854858 -0.026962614 0)
(-0.3238577 -0.031929105 0)
(-0.31837814 -0.03682433 0)
(-0.31212216 -0.041636012 0)
(-0.30510399 -0.046352034 0)
(-0.29733977 -0.050960472 0)
(-0.28884758 -0.055449626 0)
(-0.2796473 -0.059808055 0)
(-0.26976068 -0.064024608 0)
(-0.2592112 -0.068088456 0)
(-0.24802406 -0.071989125 0)
(-0.23622613 -0.075716523 0)
(-0.22384587 -0.079260972 0)
(-0.21091323 -0.082613241 0)
(-0.19745967 -0.085764567 0)
(-0.18351796 -0.088706688 0)
(-0.16912221 -0.091431868 0)
(-0.15430772 -0.093932918 0)
(-0.13911088 -0.096203226 0)
(-0.12356915 -0.098236774 0)
(-0.10772087 -0.10002816 0)
(-0.091605219 -0.10157261 0)
(-0.075262105 -0.10286602 0)
(-0.058732037 -0.10390492 0)
(-0.042056035 -0.10468654 0)
(-0.025275509 -0.10520879 0)
(-0.0084321568 -0.10547026 0)
(0.0084321568 -0.10547026 0)
(0.025275509 -0.10520879 0)
(0.042056035 -0.10468654 0)
(0.058732037 -0.10390492 0)
(0.075262105 -0.10286602 0)
(0.091605219 -0.10157261 0)
(0.10772087 -0.10002816 0)
(0.12356915 -0.098236774 0)
(0.13911088 -0.096203226 0)
(0.15430772 -0.093932918 0)
(0.16912221 -0.091431868 0)
(0.18351796 -0.088706688 0)
(0.19745967 -0.085764567 0)
(0.21091323 -0.082613241 0)
(0.22384587 -0.079260972 0)
(0.23622613 -0.075716523 0)
(0.24802406 -0.071989125 0)
(0.2592112 -0.068088456 0)
(0.26976068 -0.064024608 0)
(0.2796473 -0.059808055 0)
(0.28884758 -0.055449626 0)
(0.29733977 -0.050960472 0)
(0.30510399 -0.046352034 0)
(0.31212216 -0.041636012 0)
(0.31837814 -0.03682433 0)
(0.3238577 -0.031929105 0)
(0.32854858 -0.026962614 0)
(0.33244049 -0.02193726 0)
(0.33552512 -0.016865537 0)
(0.33779621 -0.011759999 0)
(0.33924948 -0.0066332254 0)
(0.33988267 -0.0014977885 0)
(0.33969555 0.0036337821 0)
(0.33868986 0.0087490306 0)
(0.33686936 0.013835605 0)
(0.33423975 0.018881289 0)
(0.33080868 0.023874036 0)
(0.32658572 0.028801997 0)
(0.32158229 0.033653551 0)
(0.31581166 0.038417333 0)
(0.30928888 0.043082258 0)
(0.30203076 0.047637547 0)
(0.29405578 0.052072752 0)
(0.28538405 0.056377775 0)
(0.27603728 0.060542889 0)
(0.26603865 0.064558755 0)
(0.25541281 0.068416439 0)
(0.24418578 0.072107429 0)
(0.2323849 0.075623641 0)
(0.22003873 0.078957437 0)
(0.207177 0.082101629 0)
(0.19383052 0.085049492 0)
(0.18003115 0.087794763 0)
(0.16581165 0.090331655 0)
(0.15120566 0.092654854 0)
(0.13624762 0.094759525 0)
(0.12097268 0.096641315 0)
(0.10541662 0.098296351 0)
(0.089615785 0.099721246 0)
(0.073607014 0.1009131 0)
(0.057427552 0.10186948 0)
(0.041114982 0.10258846 0)
(0.024707147 0.10306859 0)
(0.008242079 0.10330889 0)
(-0.0083792349 0.11991112 0)
(-0.025118336 0.11963239 0)
(-0.04179937 0.11907549 0)
(-0.058383747 0.11824155 0)
(-0.074833068 0.11713222 0)
(-0.091109192 0.11574976 0)
(-0.10717432 0.11409696 0)
(-0.12299106 0.11217716 0)
(-0.1385225 0.10999428 0)
(-0.15373232 0.1075528 0)
(-0.1685848 0.10485774 0)
(-0.18304498 0.1019147 0)
(-0.19707866 0.098729818 0)
(-0.21065252 0.095309787 0)
(-0.22373419 0.09166185 0)
(-0.23629233 0.08779379 0)
(-0.24829668 0.083713927 0)
(-0.25971817 0.079431105 0)
(-0.27052897 0.074954685 0)
(-0.28070257 0.07029453 0)
(-0.29021387 0.065460991 0)
(-0.29903921 0.060464894 0)
(-0.30715647 0.055317517 0)
(-0.31454514 0.050030571 0)
(-0.32118633 0.044616176 0)
(-0.3270629 0.039086837 0)
(-0.33215945 0.033455418 0)
(-0.33646243 0.02773511 0)
(-0.33996012 0.021939403 0)
(-0.34264273 0.016082053 0)
(-0.3445024 0.010177046 0)
(-0.34553326 0.0042385678 0)
(-0.34573143 -0.0017190378 0)
(-0.34509505 -0.0076813035 0)
(-0.34362431 -0.013633676 0)
(-0.34132143 -0.019561553 0)
(-0.3381907 -0.025450323 0)
(-0.33423846 -0.031285402 0)
(-0.32947308 -0.037052278 0)
(-0.32390498 -0.04273654 0)
(-0.3175466 -0.048323927 0)
(-0.31041236 -0.053800361 0)
(-0.30251867 -0.059151987 0)
(-0.29388384 -0.064365211 0)
(-0.28452811 -0.069426737 0)
(-0.27447354 -0.074323608 0)
(-0.26374402 -0.079043237 0)
(-0.25236517 -0.083573449 0)
(-0.24036431 -0.087902514 0)
(-0.22777039 -0.092019182 0)
(-0.21461389 -0.095912717 0)
(-0.20092679 -0.099572932 0)
(-0.18674249 -0.10299022 0)
(-0.17209568 -0.10615558 0)
(-0.15702229 -0.10906065 0)
(-0.14155941 -0.11169775 0)
(-0.12574515 -0.11405987 0)
(-0.10961858 -0.11614072 0)
(-0.093219603 -0.11793476 0)
(-0.07658887 -0.11943719 0)
(-0.059767652 -0.120644 0)
(-0.042797739 -0.12155195 0)
(-0.025721325 -0.1221586 0)
(-0.0085808946 -0.12246234 0)
(0.0085808946 -0.12246234 0)
(0.025721325 -0.1221586 0)
(0.042797739 -0.12155195 0)
(0.059767652 -0.120644 0)
(0.07658887 -0.11943719 0)
(0.093219603 -0.11793476 0)
(0.10961858 -0.11614072 0)
(0.12574515 -0.11405987 0)
(0.14155941 -0.11169775 0)
(0.15702229 -0.10906065 0)
(0.17209568 -0.10615558 0)
(0.18674249 -0.10299022 0)
(0.20092679 -0.099572932 0)
(0.21461389 -0.095912717 0)
(0.22777039 -0.092019182 0)
(0.24036431 -0.087902514 0)
(0.25236517 -0.083573449 0)
(0.26374402 -0.079043237 0)
(0.27447354 -0.074323608 0)
(0.28452811 -0.069426737 0)
(0.29388384 -0.064365211 0)
(0.30251867 -0.059151987 0)
(0.31041236 -0.053800361 0)
(0.3175466 -0.048323927 0)
(0.32390498 -0.04273654 0)
(0.32947308 -0.037052278 0)
(0.33423846 -0.031285402 0)
(0.3381907 -0.025450323 0)
(0.34132143 -0.019561553 0)
(0.34362431 -0.013633676 0)
(0.34509505 -0.0076813035 0)
(0.34573143 -0.0017190378 0)
(0.34553326 0.0042385678 0)
(0.3445024 0.010177046 0)
(0.34264273 0.016082053 0)
(0.33996012 0.021939403 0)
(0.33646243 0.02773511 0)
(0.33215945 0.033455418 0)
(0.3270629 0.039086837 0)
(0.32118633 0.044616176 0)
(0.31454514 0.050030571 0)
(0.30715647 0.055317517 0)
(0.29903921 0.060464894 0)
(0.29021387 0.065460991 0)
(0.28070257 0.07029453 0)
(0.27052897 0.074954685 0)
(0.25971817 0.079431105 0)
(0.24829668 0.083713927 0)
(0.23629233 0.08779379 0)
(0.22373419 0.09166185 0)
(0.21065252 0.095309787 0)
(0.19707866 0.098729818 0)
(0.18304498 0.1019147 0)
(0.1685848 0.10485774 0)
(0.15373232 0.1075528 0)
(0.1385225 0.10999428 0)
(0.12299106 0.11217716 0)
(0.10717432 0.11409696 0)
(0.091109192 0.11574976 0)
(0.074833068 0.11713222 0)
(0.058383747 0.11824155 0)
(0.04179937 0.11907549 0)
(0.025118336 0.11963239 0)
(0.0083792349 0.11991112 0)
(-0.008535051 0.13680603 0)
(-0.02558547 0.13648829 0)
(-0.042576878 0.13585344 0)
(-0.059470058 0.13490275 0)
(-0.076225981 0.13363812 0)
(-0.092805878 0.13206208 0)
(-0.10917132 0.1301778 0)
(-0.12528428 0.12798909 0)
(-0.14110723 0.12550039 0)