/*--------------------------------*- C++ -*----------------------------------*\
| =========                 |                                                 |
| \\      /  F ield         | OpenFOAM: The Open Source CFD Toolbox           |
|  \\    /   O peration     | Version:  2306                                  |
|   \\  /    A nd           | Website:  www.openfoam.com                      |
|    \\/     M anipulation  |                                                 |
\*---------------------------------------------------------------------------*/
FoamFile
{
    version     2.0;
    format      ascii;
    arch        "LSB;label=32;scalar=64";
    class       surfaceScalarField;
    location    "0.56";
    object      phi_0;
}
// * * * * * * * * * * * * * * * * * * * * * * * * * * * * * * * * * * * * * //

dimensions      [0 3 -1 0 0 0 0];

oriented        oriented;

internalField   nonuniform List<scalar> 
12640
(
-6.4339432e-06
1.3315615e-05
-5.9490681e-06
1.3154744e-05
-5.4908844e-06
1.2985565e-05
-5.058333e-06
1.2809603e-05
-4.6503057e-06
1.2628258e-05
-4.2656757e-06
1.244279e-05
-3.903301e-06
1.2254329e-05
-3.5620405e-06
1.2063879e-05
-3.2407654e-06
1.1872328e-05
-2.9383693e-06
1.1680438e-05
-2.6537771e-06
1.148888e-05
-2.3859512e-06
1.1298217e-05
-2.1338965e-06
1.110892e-05
-1.8966775e-06
1.0921383e-05
-1.6733901e-06
1.0735932e-05
-1.4631941e-06
1.0552813e-05
-1.2653102e-06
1.037223e-05
-1.0790189e-06
1.0194334e-05
-9.0359951e-07
1.00192e-05
-7.384744e-07
9.8469526e-06
-5.8306413e-07
9.6776034e-06
-4.368528e-07
9.5111878e-06
-2.9930912e-07
9.3476766e-06
-1.7005183e-07
9.1871142e-06
-4.8659797e-08
9.0294478e-06
6.5218468e-08
8.8746811e-06
1.7192749e-07
8.7227522e-06
2.71738e-07
8.5736975e-06
3.6495445e-07
8.4274216e-06
4.518241e-07
8.2839431e-06
5.3257897e-07
8.1432426e-06
6.074338e-07
8.0053085e-06
6.7659066e-07
7.8701336e-06
7.4023756e-07
7.7377159e-06
7.9855131e-07
7.6080607e-06
8.5170012e-07
7.481177e-06
8.9984554e-07
7.3570783e-06
9.4313983e-07
7.2357835e-06
9.8173207e-07
7.1173142e-06
1.0157657e-06
7.0016972e-06
1.0453802e-06
6.8889601e-06
1.0707115e-06
6.779135e-06
1.0918935e-06
6.6722554e-06
1.1090566e-06
6.5683558e-06
1.1223299e-06
6.4674723e-06
1.1318392e-06
6.3696429e-06
1.1377093e-06
6.2749042e-06
1.1400623e-06
6.1832953e-06
1.1390199e-06
6.0948532e-06
1.1347002e-06
6.0096171e-06
1.1272207e-06
5.927624e-06
1.1166967e-06
5.8489118e-06
1.1032427e-06
5.7735164e-06
1.0869702e-06
5.7014744e-06
1.0679882e-06
5.6328229e-06
1.0464061e-06
5.5675961e-06
1.0223297e-06
5.5058295e-06
9.9586421e-07
5.4475573e-06
9.6711141e-07
5.3928146e-06
9.36173e-07
5.3416338e-06
9.03147e-07
5.2940493e-06
8.6813171e-07
5.250095e-06
8.312222e-07
5.2098032e-06
7.9251207e-07
5.1732086e-06
7.5209399e-07
5.1403447e-06
7.1005901e-07
5.1112459e-06
6.6649558e-07
5.0859467e-06
6.2149272e-07
5.0644831e-06
5.7513756e-07
5.0468907e-06
5.2751501e-07
5.0332055e-06
4.7871119e-07
5.0234674e-06
4.2880884e-07
5.0177122e-06
3.7789252e-07
5.0159787e-06
3.2604385e-07
5.0183019e-06
2.7334733e-07
5.0247117e-06
2.1988527e-07
5.0352223e-06
1.6573883e-07
5.0498227e-06
1.1099137e-07
5.0684541e-06
5.5720211e-08
5.0909843e-06
5.1173625e-06
-6.7589053e-06
1.2809089e-05
-6.2783894e-06
1.2674228e-05
-5.8230333e-06
1.2530209e-05
-5.391928e-06
1.2378498e-05
-4.9841186e-06
1.2220449e-05
-4.5986204e-06
1.2057292e-05
-4.2344291e-06
1.1890138e-05
-3.8905325e-06
1.1719983e-05
-3.5659185e-06
1.1547713e-05
-3.2595997e-06
1.137412e-05
-2.9706013e-06
1.1199881e-05
-2.6979788e-06
1.1025594e-05
-2.4408233e-06
1.0851764e-05
-2.1982666e-06
1.0678826e-05
-1.9694764e-06
1.0507141e-05
-1.7536691e-06
1.0337006e-05
-1.5501128e-06
1.0168674e-05
-1.3581098e-06
1.0002331e-05
-1.1770356e-06
9.8381257e-06
-1.0062713e-06
9.6761885e-06
-8.4527597e-07
9.516608e-06
-6.9353465e-07
9.3594461e-06
-5.5059993e-07
9.2047421e-06
-4.1602025e-07
9.0525345e-06
-2.894169e-07
8.9028451e-06
-1.7039466e-07
8.7556591e-06
-5.8672457e-08
8.6110298e-06
4.6133118e-08
8.4688919e-06
1.4422787e-07
8.3293274e-06
2.3588798e-07
8.1922827e-06
3.2136059e-07
8.0577701e-06
4.0086707e-07
7.9258021e-06
4.7461563e-07
7.7963844e-06
5.4280182e-07
7.6695303e-06
6.0560834e-07
7.5452545e-06
6.6321038e-07
7.4235752e-06
7.157735e-07
7.3045153e-06
7.6345691e-07
7.1881002e-06
8.0641324e-07
7.0743582e-06
8.4478999e-07
6.96332e-06
8.7873037e-07
6.8550198e-06
9.0837343e-07
6.7494914e-06
9.3385583e-07
6.646774e-06
9.5530898e-07
6.5469018e-06
9.7286454e-07
6.4499168e-06
9.8665005e-07
6.3558575e-06
9.9679051e-07
6.2647639e-06
1.0034096e-06
6.1766762e-06
1.0066284e-06
6.0916342e-06
1.0065675e-06
6.0096785e-06
1.0033429e-06
5.9308487e-06
9.9707132e-07
5.8551833e-06
9.878663e-07
5.7827216e-06
9.7583937e-07
5.7135012e-06
9.611018e-07
5.6475607e-06
9.4376078e-07
5.584937e-06
9.239234e-07
5.525667e-06
9.0169412e-07
5.4697869e-06
8.7717596e-07
5.4173326e-06
8.5047011e-07
5.3683398e-06
8.2167623e-07
5.3228437e-06
7.9089116e-07
5.2808798e-06
7.5821271e-07
5.2424819e-06
7.237343e-07
5.2076871e-06
6.8754889e-07
5.1765301e-06
6.4974901e-07
5.1490457e-06
6.1042457e-07
5.1252713e-06
5.6966543e-07
5.1052421e-06
5.2755948e-07
5.0889968e-06
4.8419374e-07
5.0765715e-06
4.3965408e-07
5.0680067e-06
3.9402779e-07
5.0633395e-06
3.4739777e-07
5.0626081e-06
2.998505e-07
5.0658492e-06
2.5147044e-07
5.0730919e-06
2.0234222e-07
5.0843512e-06
1.525486e-07
5.0996164e-06
1.0217441e-07
5.1188284e-06
5.1299629e-08
5.1418586e-06
5.1686622e-06
-7.0516829e-06
1.2309785e-05
-6.5767581e-06
1.2199303e-05
-6.1255023e-06
1.2078953e-05
-5.6971463e-06
1.1950142e-05
-5.2908689e-06
1.1814172e-05
-4.9058158e-06
1.1672239e-05
-4.5411082e-06
1.152543e-05
-4.1958524e-06
1.1374727e-05
-3.8691548e-06
1.1221016e-05
-3.560125e-06
1.106509e-05
-3.2678873e-06
1.0907644e-05
-2.9915875e-06
1.0749294e-05
-2.730396e-06
1.0590573e-05
-2.4835126e-06
1.0431943e-05
-2.2501755e-06
1.0273805e-05
-2.0296599e-06
1.011649e-05
-1.8212636e-06
9.9602777e-06
-1.6243555e-06
9.8054229e-06
-1.4383215e-06
9.6520916e-06
-1.2625935e-06
9.5004604e-06
-1.0966383e-06
9.3506527e-06
-9.3997807e-07
9.2027858e-06
-7.921423e-07
9.0569065e-06
-6.5272e-07
8.9131121e-06
-5.2131534e-07
8.7714402e-06
-3.9758499e-07
8.6319288e-06
-2.8117242e-07
8.4946171e-06
-1.7180559e-07
8.3595253e-06
-6.9184211e-08
8.2267057e-06
2.6965514e-08
8.0961331e-06
1.1687113e-07
7.9678648e-06
2.0075983e-07
7.8419134e-06
2.7884904e-07
7.7182953e-06
3.5133548e-07
7.5970434e-06
4.1840804e-07
7.4781819e-06
4.802466e-07
7.3617364e-06
5.3702172e-07
7.2477403e-06
5.8889584e-07
7.1362261e-06
6.3602548e-07
7.0272284e-06
6.7856081e-07
6.9207844e-06
7.1664875e-07
6.8169319e-06
7.5043088e-07
6.7157099e-06
7.8004432e-07
6.6171601e-06
8.0562395e-07
6.521322e-06
8.2730188e-07
6.4282392e-06
8.4520712e-07
6.3379526e-06
8.594649e-07
6.2505059e-06
8.7020087e-07
6.16594e-06
8.7753557e-07
6.0842994e-06
8.8158982e-07
6.0056244e-06
8.824812e-07
5.9299572e-06
8.8032508e-07
5.8573391e-06
8.7523579e-07
5.7878107e-06
8.6732513e-07
5.7214125e-06
8.5670312e-07
5.6581826e-06
8.4347876e-07
5.5981616e-06
8.2775842e-07
5.5413875e-06
8.0964659e-07
5.4878987e-06
7.8924688e-07
5.4377325e-06
7.666599e-07
5.3909265e-06
7.419864e-07
5.3475168e-06
7.1532416e-07
5.3075416e-06
6.8677039e-07
5.2710362e-06
6.56419e-07
5.238038e-06
6.2436569e-07
5.2085834e-06
5.9070134e-07
5.1827099e-06
5.5551818e-07
5.1604539e-06
5.1890689e-07
5.141854e-06
4.8095566e-07
5.1269475e-06
4.4175325e-07
5.1157735e-06
4.0138806e-07
5.1083718e-06
3.5994648e-07
5.1047808e-06
3.1751553e-07
5.1050399e-06
2.7418065e-07
5.1091843e-06
2.3002896e-07
5.1172431e-06
1.8514628e-07
5.1292336e-06
1.3961864e-07
5.1451437e-06
9.3531295e-08
5.164916e-06
4.6965748e-08
5.1884246e-06
5.2156278e-06
-7.3139924e-06
1.181872e-05
-6.8457333e-06
1.1731044e-05
-6.3996979e-06
1.1632917e-05
-5.9752399e-06
1.1525684e-05
-5.5716639e-06
1.1410596e-05
-5.188231e-06
1.1288806e-05
-4.8241777e-06
1.1161376e-05
-4.4787236e-06
1.1029273e-05
-4.1510764e-06
1.0893369e-05
-3.8404449e-06
1.0754458e-05
-3.5460437e-06
1.0613243e-05
-3.2670979e-06
1.0470349e-05
-3.0028585e-06
1.0326333e-05
-2.7525967e-06
1.018168e-05
-2.5156065e-06
1.0036815e-05
-2.2912191e-06
9.8921031e-06
-2.0787995e-06
9.7478581e-06
-1.8777201e-06
9.6043436e-06
-1.6874313e-06
9.4618028e-06
-1.5073886e-06
9.3204179e-06
-1.337092e-06
9.1803564e-06
-1.1760454e-06
9.0417391e-06
-1.0238431e-06
8.9047042e-06
-8.8006383e-07
8.7693328e-06
-7.4432885e-07
8.6357049e-06
-6.1628826e-07
8.503888e-06
-4.9561546e-07
8.3739445e-06
-3.8201895e-07
8.2459287e-06
-2.751701e-07
8.1198568e-06
-1.7485565e-07
7.9958188e-06
-8.0813891e-08
7.8738227e-06
7.1910393e-09
7.7539087e-06
8.9365206e-08
7.6361211e-06
1.6591046e-07
7.5204983e-06
2.3701506e-07
7.4070772e-06
3.0287056e-07
7.2958811e-06
3.6364685e-07
7.1869639e-06
4.1951006e-07
7.0803625e-06
4.7061866e-07
6.9761203e-06
5.1712587e-07
6.8742774e-06
5.5917993e-07
6.7748776e-06
5.9692394e-07
6.677966e-06
6.3049871e-07
6.5835856e-06
6.6003878e-07
6.4917822e-06
6.8567703e-07
6.4026009e-06
7.0754383e-07
6.3160858e-06
7.2576633e-07
6.2322835e-06
7.404684e-07
6.1512382e-06
7.5177269e-07
6.0729948e-06
7.5979971e-07
5.997598e-06
7.6466647e-07
5.9250906e-06
7.6648907e-07
5.8555165e-06
7.6538181e-07
5.7889181e-06
7.6145671e-07
5.7253376e-06
7.5482309e-07
5.6648159e-06
7.4559047e-07
5.6073945e-06
7.3386464e-07
5.5531136e-06
7.1975081e-07
5.5020125e-06
7.033525e-07
5.4541314e-06
6.8477083e-07
5.4095077e-06
6.6410621e-07
5.3681818e-06
6.4145741e-07
5.3301906e-06
6.1692059e-07
5.2955728e-06
5.9059308e-07
5.2643661e-06
5.6256752e-07
5.2366088e-06
5.3293899e-07
5.2123388e-06
5.0179786e-07
5.191595e-06
4.6923605e-07
5.1744147e-06
4.3534467e-07
5.1608392e-06
4.002122e-07
5.1509066e-06
3.6392756e-07
5.144656e-06
3.2657965e-07
5.1421292e-06
2.8825529e-07
5.1433636e-06
2.490436e-07
5.1483959e-06
2.0903142e-07
5.1572558e-06
1.68306e-07
5.1699589e-06
1.2695564e-07
5.1864944e-06
8.5066012e-08
5.2068053e-06
4.272138e-08
5.2307692e-06
5.2583489e-06
-7.5475038e-06
1.1336761e-05
-7.0868395e-06
1.127038e-05
-6.6469997e-06
1.1193078e-05
-6.2274514e-06
1.1106136e-05
-5.8276089e-06
1.1010753e-05
-5.4468445e-06
1.0908042e-05
-5.0844998e-06
1.0799031e-05
-4.7398925e-06
1.0684666e-05
-4.4123287e-06
1.0565805e-05
-4.1011043e-06
1.0443234e-05
-3.805521e-06
1.031766e-05
-3.5248864e-06
1.0189714e-05
-3.258518e-06
1.0059966e-05
-3.0057542e-06
9.9289166e-06
-2.7659518e-06
9.7970123e-06
-2.5384899e-06
9.6646409e-06
-2.3227775e-06
9.5321455e-06
-2.1182526e-06
9.3998189e-06
-1.9243747e-06
9.2679246e-06
-1.7406383e-06
9.1366815e-06
-1.5665612e-06
9.0062787e-06
-1.4017101e-06
8.8768887e-06
-1.2456484e-06
8.7486425e-06
-1.0979875e-06
8.6216721e-06
-9.5835852e-07
8.4960761e-06
-8.2642097e-07
8.3719508e-06
-7.0185247e-07
8.2493757e-06
-5.8435403e-07
8.1284306e-06
-4.73658e-07
8.0091608e-06
-3.6948665e-07
7.8916475e-06
-2.7160141e-07
7.7759376e-06
-1.7977633e-07
7.6620834e-06
-9.3794036e-08
7.5501391e-06
-1.3441938e-08
7.4401462e-06
6.1481513e-08
7.3321539e-06
1.3113252e-07
7.2262303e-06
1.9569635e-07
7.1224001e-06
2.5534388e-07
7.0207155e-06
3.1023396e-07
6.9212298e-06
3.6052297e-07
6.8239886e-06
4.0635933e-07
6.7290414e-06
4.4788903e-07
6.636436e-06
4.8525139e-07
6.5462225e-06
5.1858463e-07
6.4584489e-06
5.4802112e-07
6.3731641e-06
5.7369168e-07
6.2904154e-06
5.9572345e-07
6.2102518e-06
6.1424162e-07
6.1327198e-06
6.2936845e-07
6.0578683e-06
6.4122423e-07
5.9857418e-06
6.4992622e-07
5.9163884e-06
6.5559083e-07
5.8498518e-06
6.5833154e-07
5.7861775e-06
6.5826036e-07
5.7254086e-06
6.5548756e-07
5.6675891e-06
6.5012103e-07
5.6127606e-06
6.4226822e-07
5.5609666e-06
6.3203271e-07
5.5122479e-06
6.1951838e-07
5.466645e-06
6.0482746e-07
5.4241988e-06
5.8805958e-07
5.3849496e-06
5.6931373e-07
5.3489367e-06
5.4868768e-07
5.3161988e-06
5.2627706e-07
5.2867765e-06
5.0217709e-07
5.2607089e-06
4.7648116e-07
5.2380346e-06
4.492832e-07
5.2187933e-06
4.2067345e-07
5.2030244e-06
3.9074515e-07
5.1907682e-06
3.5958619e-07
5.1820649e-06
3.2728865e-07
5.1769542e-06
2.939409e-07
5.1754775e-06
2.5963204e-07
5.1776725e-06
2.2445134e-07
5.1835769e-06
1.8848675e-07
5.1932201e-06
1.5182868e-07
5.2066175e-06
1.1456412e-07
5.2237582e-06
7.6782439e-08
5.2445871e-06
3.8567354e-08
5.2689843e-06
5.2969166e-06
-7.7538372e-06
1.0864643e-05
-7.301564e-06
1.0818107e-05
-6.8687668e-06
1.076028e-05
-6.4550136e-06
1.0692382e-05
-6.0598191e-06
1.0615558e-05
-5.6826548e-06
1.0530877e-05
-5.3229561e-06
1.0439333e-05
-4.9801342e-06
1.0341844e-05
-4.6535849e-06
1.0239256e-05
-4.3426889e-06
1.0132338e-05
-4.0468247e-06
1.0021795e-05
-3.7653742e-06
9.9082631e-06
-3.4977243e-06
9.7923157e-06
-3.2432756e-06
9.6744678e-06
-3.0014396e-06
9.5551765e-06
-2.7716521e-06
9.4348535e-06
-2.553366e-06
9.3138592e-06
-2.3460581e-06
9.1925111e-06
-2.1492272e-06
9.0710938e-06
-1.9623987e-06
8.9498532e-06
-1.785126e-06
8.8290063e-06
-1.616968e-06
8.7087307e-06
-1.4575432e-06
8.5892175e-06
-1.3064609e-06
8.4705896e-06
-1.1633729e-06
8.3529882e-06
-1.0279471e-06
8.236525e-06
-8.998743e-07
8.1213027e-06
-7.7884436e-07
8.0074006e-06
-6.6460477e-07
7.8949211e-06
-5.5689034e-07
7.7839328e-06
-4.554568e-07
7.6745039e-06
-3.6007578e-07
7.5667023e-06
-2.7053069e-07
7.4605941e-06
-1.8661953e-07
7.3562351e-06
-1.081564e-07
7.2536903e-06
-3.4937383e-08
7.1530112e-06
3.3204668e-08
7.0542583e-06
9.6430358e-08
6.9574893e-06
1.5490293e-07
6.8627576e-06
2.0878182e-07
6.77011e-06
2.582163e-07
6.679607e-06
3.0335152e-07
6.5913007e-06
3.443296e-07
6.5052447e-06
3.8128754e-07
6.4214911e-06
4.143587e-07
6.3400932e-06
4.4367347e-07
6.2611005e-06
4.6936066e-07
6.1845649e-06
4.9154333e-07
6.1105369e-06
5.1034563e-07
6.0390661e-06
5.2588565e-07
5.9702019e-06
5.3828333e-07
5.9039913e-06
5.4765209e-07
5.8404827e-06
5.5410742e-07
5.7797225e-06
5.5775945e-07
5.7217561e-06
5.5871951e-07
5.6666294e-06
5.5709411e-07
5.6143861e-06
5.5299068e-07
5.5650699e-06
5.4651391e-07
5.5187247e-06
5.3776706e-07
5.4753921e-06
5.268512e-07
5.4351145e-06
5.1386774e-07
5.3979332e-06
4.9891509e-07
5.3638895e-06
4.8209085e-07
5.333023e-06
4.6349113e-07
5.3053762e-06
4.432121e-07
5.2809882e-06
4.2134762e-07
5.2598988e-06
3.9799069e-07
5.2421501e-06
3.7323447e-07
5.2277811e-06
3.4717062e-07
5.2168321e-06
3.1989012e-07
5.2093454e-06
2.9148363e-07
5.2053606e-06
2.6204179e-07
5.204919e-06
2.3165399e-07
5.2080596e-06
2.004116e-07
5.2148196e-06
1.6840326e-07
5.2252285e-06
1.357195e-07
5.2393009e-06
1.0245052e-07
5.2570273e-06
6.8684518e-08
5.2783532e-06
3.4506824e-08
5.3031618e-06
5.3314234e-06
-7.9345618e-06
1.0402982e-05
-7.4913569e-06
1.0374902e-05
-7.0663305e-06
1.0335254e-05
-6.659141e-06
1.0285193e-05
-6.2693941e-06
1.0225811e-05
-5.8966508e-06
1.0158134e-05
-5.5404348e-06
1.0083117e-05
-5.2002426e-06
1.0001652e-05
-4.8755475e-06
9.9145607e-06
-4.5658115e-06
9.8226016e-06
-4.2704858e-06
9.7264697e-06
-3.989021e-06
9.6267983e-06
-3.7208691e-06
9.524164e-06
-3.4654875e-06
9.4190864e-06
-3.222348e-06
9.3120368e-06
-2.9909318e-06
9.2034374e-06
-2.7707357e-06
9.0936632e-06
-2.561279e-06
8.9830543e-06
-2.3620961e-06
8.8719111e-06
-2.1727431e-06
8.7604999e-06
-1.9927958e-06
8.6490591e-06
-1.8218592e-06
8.5377942e-06
-1.6595444e-06
8.4269028e-06
-1.5054954e-06
8.3165408e-06
-1.3593712e-06
8.2068638e-06
-1.2208528e-06
8.0980071e-06
-1.0896307e-06
7.9900805e-06
-9.6544072e-07
7.8832105e-06
-8.479962e-07
7.7774765e-06
-7.3704312e-07
7.6729799e-06
-6.3235186e-07
7.5698128e-06
-5.3369533e-07
7.4680456e-06
-4.4085828e-07
7.3677573e-06
-3.5364272e-07
7.2690192e-06
-2.7184684e-07
7.1718949e-06
-1.9529384e-07
7.0764581e-06
-1.2380725e-07
6.9827714e-06
-5.7217786e-08
6.8909002e-06
4.6451655e-09
6.8008944e-06
6.1925574e-08
6.7128292e-06
1.1477227e-07
6.6267604e-06
1.6333333e-07
6.5427397e-06
2.077531e-07
6.4608249e-06
2.4816755e-07
6.3810765e-06
2.8470895e-07
6.303552e-06
3.1750933e-07
6.2283e-06
3.4669596e-07
6.1553785e-06
3.7239269e-07
6.0848399e-06
3.9472282e-07
6.0167363e-06
4.1380436e-07
5.9511197e-06
4.2975622e-07
5.8880397e-06
4.4269284e-07
5.8275459e-06
4.5272785e-07
5.7696874e-06
4.5997258e-07
5.7145115e-06
4.6453641e-07
5.6620655e-06
4.6652743e-07
5.612395e-06
4.6605172e-07
5.5655459e-06
4.6321359e-07
5.5215627e-06
4.5811619e-07
5.4804894e-06
4.5086118e-07
5.4423695e-06
4.415493e-07
5.4072457e-06
4.302785e-07
5.3751595e-06
4.1714769e-07
5.3461538e-06
4.022527e-07
5.3202708e-06
3.8568998e-07
5.2975511e-06
3.6755315e-07
5.2780356e-06
3.4793637e-07
5.261767e-06
3.2693331e-07
5.2487842e-06
3.0463536e-07
5.2391295e-06
2.8113506e-07
5.232846e-06
2.5652373e-07
5.2299721e-06
2.3089204e-07
5.2305502e-06
2.0433185e-07
5.2346201e-06
1.7693293e-07
5.2422186e-06
1.4878708e-07
5.2533744e-06
1.1998443e-07
5.2681034e-06
9.0616425e-08
5.286395e-06
6.0772859e-08
5.308197e-06
3.0540215e-08
5.3333949e-06
5.3619632e-06
-8.0911906e-06
9.9522842e-06
-7.6576229e-06
9.9413346e-06
-7.2409879e-06
9.9186186e-06
-6.841026e-06
9.8852313e-06
-6.4574245e-06
9.8422098e-06
-6.0898252e-06
9.7905345e-06
-5.7378324e-06
9.7311242e-06
-5.4010177e-06
9.6648373e-06
-5.078932e-06
9.5924748e-06
-4.7711072e-06
9.5147771e-06
-4.4770635e-06
9.4324261e-06
-4.1963159e-06
9.3460506e-06
-3.928376e-06
9.2562242e-06
-3.6727598e-06
9.1634699e-06
-3.4289869e-06
9.068264e-06
-3.1965887e-06
8.9710392e-06
-2.9751073e-06
8.8721819e-06
-2.7640982e-06
8.7720452e-06
-2.5631335e-06
8.6709461e-06
-2.3717993e-06
8.5691659e-06
-2.1896987e-06
8.4669584e-06
-2.0164598e-06
8.3645558e-06
-1.8517162e-06
8.2621586e-06
-1.6951312e-06
8.1599556e-06
-1.5463795e-06
8.0581121e-06
-1.4051559e-06
7.9567836e-06
-1.2711723e-06
7.8560966e-06
-1.1441369e-06
7.7561753e-06
-1.0238067e-06
7.6571461e-06
-9.0993463e-07
7.5591078e-06
-8.0227832e-07
7.4621566e-06
-7.0062467e-07
7.3663919e-06
-6.0475758e-07
7.2718899e-06
-5.1447558e-07
7.1787372e-06
-4.2959537e-07
7.0870146e-06
-3.4993219e-07
6.9967946e-06
-2.7531119e-07
6.9081503e-06
-2.0555764e-07
6.821147e-06
-1.4052312e-07
6.73586e-06
-8.0045776e-08
6.6523521e-06
-2.3970038e-08
6.5706842e-06
2.7845083e-08
6.4909243e-06
7.5534911e-08
6.4131351e-06
1.192386e-07
6.3373729e-06
1.5908517e-07
6.263705e-06
1.9521185e-07
6.1921735e-06
2.2774287e-07
6.1228471e-06
2.5680296e-07
6.0557803e-06
2.8251344e-07
5.9910258e-06
3.0499385e-07
5.9286396e-06
3.2435978e-07
5.8686731e-06
3.4072712e-07
5.8111785e-06
3.5420877e-07
5.756206e-06
3.649153e-07
5.7038053e-06
3.7295567e-07
5.654025e-06
3.7843717e-07
5.6069133e-06
3.8146619e-07
5.5625165e-06
3.8214682e-07
5.5208822e-06
3.8058159e-07
5.4820546e-06
3.7687231e-07
5.4460795e-06
3.7111819e-07
5.412999e-06
3.6341904e-07
5.382859e-06
3.538727e-07
5.3557006e-06
3.4257547e-07
5.3315681e-06
3.2962333e-07
5.3105031e-06
3.1511113e-07
5.292548e-06
2.9913269e-07
5.277745e-06
2.8178183e-07
5.266135e-06
2.6315082e-07
5.257761e-06
2.4333262e-07
5.2526638e-06
2.2241889e-07
5.2508856e-06
2.0050203e-07
5.2524677e-06
1.7767205e-07
5.2574496e-06
1.540222e-07
5.2658683e-06
1.296434e-07
5.277753e-06
1.046277e-07
5.2931191e-06
7.9066581e-08
5.3119562e-06
5.3050794e-08
5.3342128e-06
2.6667102e-08
5.3597784e-06
5.3886305e-06
-8.2251819e-06
9.5129589e-06
-7.8017219e-06
9.5178749e-06
-7.3940017e-06
9.5108986e-06
-7.001835e-06
9.4930645e-06
-6.6249823e-06
9.4653572e-06
-6.263158e-06
9.4287102e-06
-5.9160387e-06
9.3840049e-06
-5.5832685e-06
9.3320674e-06
-5.2644652e-06
9.2736714e-06
-4.9592272e-06
9.209539e-06
-4.6671388e-06
9.1403374e-06
-4.3877715e-06
9.0666834e-06
-4.1206978e-06
8.9891504e-06
-3.8654839e-06
8.9082562e-06
-3.6217005e-06
8.8244807e-06
-3.3889234e-06
8.7382622e-06
-3.1667364e-06
8.6499947e-06
-2.9547324e-06
8.5600414e-06
-2.7525186e-06
8.4687323e-06
-2.5597117e-06
8.3763588e-06
-2.3759462e-06
8.283193e-06
-2.200868e-06
8.1894771e-06
-2.034138e-06
8.0954289e-06
-1.8754368e-06
8.0012544e-06
-1.7244591e-06
7.9071344e-06
-1.5808995e-06
7.8132241e-06
-1.4444907e-06
7.7196877e-06
-1.3149659e-06
7.6266505e-06
-1.1920748e-06
7.5342554e-06
-1.075575e-06
7.4426081e-06
-9.6524146e-07
7.3518229e-06
-8.6086008e-07
7.2620104e-06
-7.6222188e-07
7.1732518e-06
-6.6913111e-07
7.0856462e-06
-5.8140043e-07
6.9992843e-06
-4.9884899e-07
6.914243e-06
-4.2130337e-07
6.8306049e-06
-3.486026e-07
6.7484461e-06
-2.8058367e-07
6.667841e-06
-2.17092e-07
6.5888601e-06
-1.5798179e-07
6.5115743e-06
-1.0310861e-07
6.4360511e-06
-5.2328116e-08
6.3623549e-06
-5.5009015e-09
6.2905456e-06
3.7491305e-08
6.2207128e-06
7.6787954e-08
6.1528769e-06
1.1251036e-07
6.0871249e-06
1.4478241e-07
6.0235078e-06
1.7372747e-07
5.9620805e-06
1.9946313e-07
5.902904e-06
2.2210357e-07
5.8460326e-06
2.4176548e-07
5.7915167e-06
2.5856002e-07
5.7394114e-06
2.7259794e-07
5.689767e-06
2.839871e-07
5.6426357e-06
2.9283504e-07
5.5980655e-06
2.9924629e-07
5.5561052e-06
3.0332605e-07
5.5168029e-06
3.0517535e-07
5.4802052e-06
3.0489621e-07
5.4463584e-06
3.0258818e-07
5.4153076e-06
2.9834955e-07
5.3870973e-06
2.9227825e-07
5.3617719e-06
2.8447151e-07
5.3393747e-06
2.7502488e-07
5.31995e-06
2.6403259e-07
5.3035398e-06
2.5158973e-07
5.2901878e-06
2.3779005e-07
5.279935e-06
2.2272642e-07
5.2728246e-06
2.0649135e-07
5.2688989e-06
1.8917712e-07
5.2681995e-06
1.7087652e-07
5.270768e-06
1.5168151e-07
5.2766445e-06
1.316851e-07
5.2858652e-06
1.1097784e-07
5.2984599e-06
8.9653998e-08
5.3144431e-06
6.7804085e-08
5.3338057e-06
4.5520851e-08
5.3564966e-06
2.2891054e-08
5.3824078e-06
5.4115217e-06
-8.3379369e-06
9.0853277e-06
-7.9249674e-06
9.1049053e-06
-7.5265972e-06
9.1125283e-06
-7.1427052e-06
9.1091726e-06
-6.7731178e-06
9.0957696e-06
-6.4176166e-06
9.0732089e-06
-6.0759417e-06
9.0423303e-06
-5.7478026e-06
9.003928e-06
-5.4328799e-06
8.9587489e-06
-5.1308325e-06
8.9074915e-06
-4.8413025e-06
8.8508078e-06
-4.563921e-06
8.789302e-06
-4.2983069e-06
8.7235364e-06
-4.0440805e-06
8.6540299e-06
-3.8008587e-06
8.5812585e-06
-3.5682579e-06
8.5056613e-06
-3.3459046e-06
8.4276418e-06
-3.1334295e-06
8.3475662e-06
-2.9304661e-06
8.2657685e-06
-2.7366686e-06
8.1825615e-06
-2.5516958e-06
8.09822e-06
-2.3752183e-06
8.0129998e-06
-2.2069229e-06
7.9271336e-06
-2.0465047e-06
7.8408361e-06
-1.893668e-06
7.7542979e-06
-1.748145e-06
7.6677008e-06
-1.6096623e-06
7.5812051e-06
-1.4779728e-06
7.4949611e-06
-1.3528283e-06
7.4091106e-06
-1.2340041e-06
7.3237836e-06
-1.1212814e-06
7.2391001e-06
-1.0144336e-06
7.1551628e-06
-9.1327843e-07
7.0720968e-06
-8.1761942e-07
6.9899875e-06
-7.2726892e-07
6.9089332e-06
-6.4205467e-07
6.8290287e-06
-5.6180495e-07
6.7503553e-06
-4.8635688e-07
6.6729979e-06
-4.1555372e-07
6.5970381e-06
-3.492438e-07
6.5225498e-06
-2.8727813e-07
6.4496092e-06
-2.295153e-07
6.3782879e-06
-1.7581936e-07
6.3086591e-06
-1.2606486e-07
6.2407912e-06
-8.0075548e-08
6.1747236e-06
-3.7767949e-08
6.1105696e-06
9.9740173e-10
6.0483593e-06
3.6333359e-08
5.9881719e-06
6.8369332e-08
5.9300446e-06
9.7218306e-08
5.8740555e-06
1.2299281e-07
5.820258e-06
1.4581338e-07
5.768696e-06
1.6578912e-07
5.7194359e-06
1.8302795e-07
5.6725284e-06
1.9763934e-07
5.6280242e-06
2.0972915e-07
5.5859758e-06
2.1940165e-07
5.5464323e-06
2.2676078e-07
5.5094441e-06
2.319077e-07
5.4750581e-06
2.3494322e-07
5.4433229e-06
2.3596773e-07
5.4142836e-06
2.3507825e-07
5.3879864e-06
2.3237339e-07
5.3644768e-06
2.2794962e-07
5.3437989e-06
2.2190195e-07
5.3259971e-06
2.1432645e-07
5.3111158e-06
2.0531646e-07
5.2991975e-06
1.9496632e-07
5.2902848e-06
1.8336913e-07
5.2844218e-06
1.7061781e-07
5.2816505e-06
1.5680521e-07
5.2820123e-06
1.4202369e-07
5.2855497e-06
1.263662e-07
5.292302e-06
1.0992518e-07
5.3023061e-06
9.2793948e-08
5.315591e-06
7.506494e-08
5.3321723e-06
5.6830701e-08
5.3520402e-06
3.8183514e-08
5.3751433e-06
1.9211907e-08
5.4013798e-06
5.4307335e-06
-8.4308012e-06
8.6696341e-06
-8.0286248e-06
8.7027287e-06
-7.6399596e-06
8.7238631e-06
-7.2647424e-06
8.7339553e-06
-6.9028593e-06
8.7338865e-06
-6.5541498e-06
8.7244993e-06
-6.2184152e-06
8.7065955e-06
-5.8954222e-06
8.6809351e-06
-5.5849089e-06
8.6482356e-06
-5.2865903e-06
8.6091731e-06
-5.0001622e-06
8.5643794e-06
-4.7253062e-06
8.5144462e-06
-4.461693e-06
8.4599226e-06
-4.2089867e-06
8.4013235e-06
-3.9668483e-06
8.3391203e-06
-3.734938e-06
8.2737511e-06
-3.5129167e-06
8.2056204e-06
-3.30045e-06
8.1350992e-06
-3.0972106e-06
8.0625297e-06
-2.9028741e-06
7.988225e-06
-2.7171293e-06
7.912475e-06
-2.5396714e-06
7.8355421e-06
-2.3702067e-06
7.7576689e-06
-2.2084511e-06
7.6790805e-06
-2.0541336e-06
7.5999803e-06
-1.9069858e-06
7.5205532e-06
-1.7667613e-06
7.4409807e-06
-1.6332185e-06
7.3614184e-06
-1.506125e-06
7.282017e-06
-1.3852585e-06
7.2029176e-06
-1.2704067e-06
7.1242485e-06
-1.161372e-06
7.0461281e-06
-1.057952e-06
6.9686771e-06
-9.5996376e-07
6.8919994e-06
-8.6722868e-07
6.8161981e-06
-7.7957071e-07
6.7413706e-06
-6.9682662e-07
6.667611e-06
-6.1883814e-07
6.5950093e-06
-5.4544493e-07
6.5236446e-06
-4.7650281e-07
6.4536082e-06
-4.1186285e-07
6.3849688e-06
-3.5138894e-07
6.3178142e-06
-2.9493911e-07
6.2522093e-06
-2.4237769e-07
6.1882295e-06
-1.9359504e-07
6.125941e-06
-1.4844518e-07
6.0654193e-06
-1.0681032e-07
6.0067251e-06
-6.8553805e-08
5.9499154e-06
-3.3581114e-08
5.8950716e-06
-1.7618055e-09
5.8422365e-06
2.7026123e-08
5.79147e-06
5.2873607e-08
5.7428482e-06
7.5897857e-08
5.6964114e-06
9.6209317e-08
5.652217e-06
1.1391642e-07
5.6103173e-06
1.2912444e-07
5.5707678e-06
1.4193638e-07
5.5336205e-06
1.524553e-07
5.4989248e-06
1.6078293e-07
5.4667308e-06
1.6701951e-07
5.4370859e-06
1.712631e-07
5.4100394e-06
1.7361248e-07
5.3856369e-06
1.7416521e-07
5.3639239e-06
1.7301733e-07
5.3449465e-06
1.7026348e-07
5.3287511e-06
1.659999e-07
5.3153795e-06
1.603199e-07
5.3048775e-06
1.533174e-07
5.2972873e-06
1.4508613e-07
5.2926533e-06
1.357189e-07
5.2910176e-06
1.2530856e-07
5.2924225e-06
1.1394777e-07
5.2969102e-06
1.0173035e-07
5.3045199e-06
8.8748254e-08
5.3152881e-06
7.5095343e-08
5.3292443e-06
6.0864696e-08
5.3464028e-06
4.6149471e-08
5.3667551e-06
3.1041577e-08
5.390251e-06
1.5630179e-08
5.4167918e-06
5.4463637e-06
-8.5050633e-06
8.26605e-06
-8.1139106e-06
8.311576e-06
-7.735233e-06
8.3451857e-06
-7.3690188e-06
8.3677411e-06
-7.0152062e-06
8.380074e-06
-6.6736891e-06
8.382982e-06
-6.3443208e-06
8.3772272e-06
-6.0269216e-06
8.363536e-06
-5.7212826e-06
8.3425962e-06
-5.4271685e-06
8.315059e-06
-5.1443256e-06
8.2815366e-06
-4.8724824e-06
8.2426029e-06
-4.6113564e-06
8.1987971e-06
-4.3606548e-06
8.1506217e-06
-4.1200794e-06
8.0985449e-06
-3.8893291e-06
8.0430005e-06
-3.6681001e-06
7.9843914e-06
-3.4560929e-06
7.9230924e-06
-3.2530097e-06
7.8594458e-06
-3.0585571e-06
7.7937725e-06
-2.8724477e-06
7.7263657e-06
-2.6944014e-06
7.6574956e-06
-2.5241465e-06
7.587414e-06
-2.3614178e-06
7.5163517e-06
-2.2059589e-06
7.4445214e-06
-2.0575258e-06
7.3721199e-06
-1.9158784e-06
7.299333e-06
-1.7807886e-06
7.2263289e-06
-1.6520364e-06
7.1532651e-06
-1.5294093e-06
7.08029e-06
-1.4127055e-06
7.0075445e-06
-1.3017288e-06
6.9351513e-06
-1.1962876e-06
6.8632356e-06
-1.0962058e-06
6.7919175e-06
-1.0013079e-06
6.7213005e-06
-9.1142566e-07
6.6514882e-06
-8.2639569e-07
6.5825815e-06
-7.4606324e-07
6.5146767e-06
-6.7027594e-07
6.4478572e-06
-5.9889074e-07
6.3822232e-06
-5.3176228e-07
6.3178405e-06
-4.6874892e-07
6.2548007e-06
-4.0971909e-07
6.1931792e-06
-3.5454248e-07
6.1330531e-06
-3.0309238e-07
6.0744911e-06
-2.5524097e-07
6.0175681e-06
-2.1086551e-07
5.9623496e-06
-1.6985519e-07
5.908905e-06
-1.3207958e-07
5.857296e-06
-9.7431581e-08
5.8075882e-06
-6.5801667e-08
5.7598399e-06
-3.7063114e-08
5.7141096e-06
-1.1122718e-08
5.6704708e-06
1.2139456e-08
5.6289549e-06
3.2818105e-08
5.5896389e-06
5.1021253e-08
5.5525645e-06
6.6852318e-08
5.5177893e-06
8.0412944e-08
5.4853646e-06
9.1804992e-08
5.4553382e-06
1.0112863e-07
5.4277625e-06
1.084792e-07
5.4026892e-06
1.1395728e-07
5.3801592e-06
1.1765802e-07
5.3602228e-06
1.1967896e-07
5.3429266e-06
1.2011355e-07
5.3283156e-06
1.1905716e-07
5.3164359e-06
1.1660451e-07
5.3073305e-06
1.128475e-07
5.3010441e-06
1.0788119e-07
5.2976198e-06
1.0179775e-07
5.2971006e-06
9.469054e-08
5.2995296e-06
8.6652838e-08
5.3049482e-06
7.7776641e-08
5.3133956e-06
6.8156382e-08
5.3249089e-06
5.788419e-08
5.3395156e-06
4.7054904e-08
5.3572323e-06
3.5761122e-08
5.3780485e-06
2.4095675e-08
5.4019169e-06
1.2146656e-08
5.4287405e-06
5.4585104e-06
-8.561955e-06
7.8746858e-06
-8.1819929e-06
7.9316138e-06
-7.8135204e-06
7.9767131e-06
-7.4565715e-06
8.0107921e-06
-7.1111314e-06
8.0346337e-06
-6.7771407e-06
8.0489913e-06
-6.4545025e-06
8.0545893e-06
-6.1430841e-06
8.0521178e-06
-5.8427237e-06
8.0422359e-06
-5.5532334e-06
8.0255688e-06
-5.2744041e-06
8.0027071e-06
-5.0060094e-06
7.9742079e-06
-4.7478082e-06
7.9405957e-06
-4.4995482e-06
7.902362e-06
-4.26097e-06
7.8599668e-06
-4.0318087e-06
7.8138393e-06
-3.8117956e-06
7.7643787e-06
-3.6006621e-06
7.7119585e-06
-3.3981403e-06
7.6569244e-06
-3.2039647e-06
7.5995967e-06
-3.0178716e-06
7.5402727e-06
-2.8396064e-06
7.4792306e-06
-2.6689172e-06
7.4167247e-06
-2.5055584e-06
7.3529933e-06
-2.3492926e-06
7.2882556e-06
-2.1998892e-06
7.2227166e-06
-2.0571234e-06
7.1565671e-06
-1.9207796e-06
7.089985e-06
-1.7906506e-06
7.0231357e-06
-1.666535e-06
6.9561745e-06
-1.5482313e-06
6.8892408e-06
-1.43556e-06
6.8224804e-06
-1.3283399e-06
6.7560153e-06
-1.2263937e-06
6.6899714e-06
-1.1295542e-06
6.6244608e-06
-1.0376592e-06
6.5595931e-06
-9.5055107e-07
6.4954737e-06
-8.6807449e-07
6.4322e-06
-7.9008996e-07
6.3698731e-06
-7.164367e-07
6.3085693e-06
-6.4699317e-07
6.2483971e-06
-5.8161516e-07
6.1894226e-06
-5.2017463e-07
6.1317391e-06
-4.6254038e-07
6.0754189e-06
-4.085885e-07
6.0205395e-06
-3.5819557e-07
5.9671748e-06
-3.1124083e-07
5.9153949e-06
-2.6760461e-07
5.8652684e-06
-2.2717294e-07
5.8168647e-06
-1.898349e-07
5.7702503e-06
-1.5547751e-07
5.7254825e-06
-1.2399492e-07
5.6826276e-06
-9.5261675e-08
5.6417372e-06
-6.9191834e-08
5.6028847e-06
-4.5665614e-08
5.5661128e-06
-2.4591541e-08
5.5314908e-06
-5.860236e-09
5.4990581e-06
1.0630468e-08
5.4688743e-06
2.4973352e-08
5.4409954e-06
3.7273291e-08
5.4154623e-06
4.7616593e-08
5.3923458e-06
5.6112001e-08
5.3716635e-06
6.2853791e-08
5.3534814e-06
6.7936107e-08
5.3378439e-06
7.145414e-08
5.3247979e-06
7.3501938e-08
5.3143878e-06
7.4172479e-08
5.3066596e-06
7.3560211e-08
5.3016565e-06
7.1757582e-08
5.2994226e-06
6.885828e-08
5.3000003e-06
6.4955319e-08
5.3034331e-06
6.0140592e-08
5.3097626e-06
5.4508589e-08
5.3190281e-06
4.8151504e-08
5.3312658e-06
4.1163666e-08