/*--------------------------------*- C++ -*----------------------------------*\
| =========                 |                                                 |
| \\      /  F ield         | OpenFOAM: The Open Source CFD Toolbox           |
|  \\    /   O peration     | Version:  2306                                  |
|   \\  /    A nd           | Website:  www.openfoam.com                      |
|    \\/     M anipulation  |                                                 |
\*---------------------------------------------------------------------------*/
FoamFile
{
    version     2.0;
    format      ascii;
    arch        "LSB;label=32;scalar=64";
    class       surfaceScalarField;
    location    "0.01";
    object      phi_0;
}
// * * * * * * * * * * * * * * * * * * * * * * * * * * * * * * * * * * * * * //

dimensions      [0 3 -1 0 0 0 0];

oriented        oriented;

internalField   nonuniform List<scalar> 
12640
(
2.391428e-07
1.4105885e-07
2.4098687e-07
1.3316825e-07
2.4250201e-07
1.2530507e-07
2.4370234e-07
1.1747913e-07
2.4460219e-07
1.0970049e-07
2.4521466e-07
1.0197877e-07
2.4555321e-07
9.4321649e-08
2.4563052e-07
8.6736806e-08
2.454592e-07
7.9230722e-08
2.4505116e-07
7.1809338e-08
2.4441824e-07
6.4477705e-08
2.4357177e-07
5.7240185e-08
2.4252286e-07
5.0101101e-08
2.4128232e-07
4.3063754e-08
2.3985981e-07
3.6130924e-08
2.3826569e-07
2.9304741e-08
2.3650292e-07
2.2586526e-08
2.3459675e-07
1.5972959e-08
2.3253678e-07
9.4782338e-09
2.3034547e-07
3.0951794e-09
2.2802905e-07
-3.1579217e-09
2.2558865e-07
-9.3052796e-09
2.2303284e-07
-1.5341148e-08
2.203697e-07
-2.1263903e-08
2.1760557e-07
-2.7073722e-08
2.1474632e-07
-3.2770548e-08
2.1179792e-07
-3.8354501e-08
2.0876579e-07
-4.3827513e-08
2.0565536e-07
-4.91891e-08
2.024712e-07
-5.4441589e-08
1.9921808e-07
-5.9586262e-08
1.9590033e-07
-6.4623519e-08
1.9252172e-07
-6.9554775e-08
1.8908653e-07
-7.438226e-08
1.8559832e-07
-7.9106514e-08
1.8206086e-07
-8.3729721e-08
1.7847684e-07
-8.8253335e-08
1.7484903e-07
-9.2678693e-08
1.7118053e-07
-9.7007903e-08
1.6747335e-07
-1.0124176e-07
1.6373019e-07
-1.0538266e-07
1.5995285e-07
-1.0943163e-07
1.5614414e-07
-1.1339069e-07
1.5230518e-07
-1.1726144e-07
1.4843791e-07
-1.2104504e-07
1.4454405e-07
-1.2474364e-07
1.4062505e-07
-1.2835826e-07
1.366817e-07
-1.3189079e-07
1.3271544e-07
-1.3534231e-07
1.2872654e-07
-1.3871441e-07
1.2471699e-07
-1.4200863e-07
1.2068644e-07
-1.4522559e-07
1.1663618e-07
-1.4836789e-07
1.125672e-07
-1.5143613e-07
1.0847956e-07
-1.5443086e-07
1.0437353e-07
-1.5735427e-07
1.002496e-07
-1.6020648e-07
9.6107886e-08
-1.6298894e-07
9.1948335e-08
-1.6570247e-07
8.7770709e-08
-1.6834854e-07
8.3575186e-08
-1.7092704e-07
7.9361458e-08
-1.7343952e-07
7.5130011e-08
-1.7588679e-07
7.0879932e-08
-1.7826839e-07
6.6611177e-08
-1.8058605e-07
6.2323374e-08
-1.8283959e-07
5.8016276e-08
-1.8502992e-07
5.3689349e-08
-1.8715698e-07
4.934234e-08
-1.8922153e-07
4.4974136e-08
-1.9122288e-07
4.0584722e-08
-1.9316205e-07
3.6173211e-08
-1.9503889e-07
3.1738774e-08
-1.9685286e-07
2.7281182e-08
-1.9860441e-07
2.2799209e-08
-2.0029332e-07
1.8292324e-08
-2.019185e-07
1.3760097e-08
-2.0348074e-07
9.2005236e-09
-2.0497912e-07
4.6143052e-09
-2.0641271e-07
-2.0778311e-07
2.2955947e-07
1.3873738e-07
2.3154646e-07
1.3118121e-07
2.3321285e-07
1.2363868e-07
2.3457138e-07
1.1612067e-07
2.3563485e-07
1.0863707e-07
2.3641604e-07
1.0119765e-07
2.3692708e-07
9.3810556e-08
2.3718057e-07
8.6483318e-08
2.3718812e-07
7.9223113e-08
2.3696143e-07
7.2036058e-08
2.365114e-07
6.4927569e-08
2.3584879e-07
5.7902872e-08
2.3498438e-07
5.0965547e-08
2.3392803e-07
4.4120067e-08
2.3268972e-07
3.7369178e-08
2.3127881e-07
3.0715784e-08
2.2970389e-07
2.4161414e-08
2.2797078e-07
1.7706112e-08
2.2609183e-07
1.1357225e-08
2.2407798e-07
5.1090425e-09
2.2193843e-07
-1.0183791e-09
2.1967078e-07
-7.0375309e-09
2.1728608e-07
-1.2956083e-08
2.1479122e-07
-1.8769134e-08
2.121926e-07
-2.4474945e-08
2.0949631e-07
-3.0073935e-08
2.0670787e-07
-3.5566108e-08
2.0383282e-07
-4.0952564e-08
2.0087692e-07
-4.6233341e-08
1.9784443e-07
-5.1409187e-08
1.9473973e-07
-5.6481393e-08
1.9156711e-07
-6.1450872e-08
1.8833095e-07
-6.6318819e-08
1.8503491e-07
-7.1086273e-08
1.8168306e-07
-7.5754626e-08
1.7827825e-07
-8.0325056e-08
1.7482411e-07
-8.4799374e-08
1.7132354e-07
-8.9178212e-08
1.677792e-07
-9.3463331e-08
1.6419318e-07
-9.7655839e-08
1.6056822e-07
-1.0175778e-07
1.5690683e-07
-1.0577014e-07
1.5321058e-07
-1.0969455e-07
1.494816e-07
-1.1353235e-07
1.4572223e-07
-1.1728569e-07
1.4193329e-07
-1.2095477e-07
1.381167e-07
-1.2454166e-07
1.3427361e-07
-1.2804765e-07
1.3040472e-07
-1.3147371e-07
1.2651206e-07
-1.3482171e-07
1.2259543e-07
-1.380921e-07
1.1865653e-07
-1.4128664e-07
1.1469558e-07
-1.4440696e-07
1.1071366e-07
-1.4745412e-07
1.0671119e-07
-1.5042863e-07
1.0268855e-07
-1.5333164e-07
9.8646042e-08
-1.5616401e-07
9.4584041e-08
-1.5892686e-07
9.0503353e-08
-1.6162133e-07
8.6402611e-08
-1.6424807e-07
8.2283067e-08
-1.6680731e-07
7.8144249e-08
-1.6930084e-07
7.3985769e-08
-1.7172819e-07
6.9807986e-08
-1.7409051e-07
6.5610385e-08
-1.7638838e-07
6.1392801e-08
-1.7862215e-07
5.7155146e-08
-1.8079219e-07
5.2896494e-08
-1.8289874e-07
4.8617185e-08
-1.8494196e-07
4.4316042e-08
-1.8692196e-07
3.9993535e-08
-1.8883911e-07
3.5648155e-08
-1.906935e-07
3.1279677e-08
-1.9248457e-07
2.6887437e-08
-1.9421236e-07
2.2471108e-08
-1.9587685e-07
1.8029613e-08
-1.9747738e-07
1.3562431e-08
-1.9901378e-07
9.0689586e-09
-2.0048557e-07
4.5482108e-09
-2.0189205e-07
-2.032347e-07
2.2033723e-07
1.3629925e-07
2.2244983e-07
1.2906853e-07
2.242501e-07
1.2183846e-07
2.2574971e-07
1.1462098e-07
2.2696061e-07
1.0742625e-07
2.2789463e-07
1.0026346e-07
2.2856373e-07
9.3141672e-08
2.2897846e-07
8.6068552e-08
2.2915054e-07
7.9050923e-08
2.2909109e-07
7.2095591e-08
2.2881035e-07
6.5208205e-08
2.2831925e-07
5.8394047e-08
2.2762709e-07
5.1657727e-08
2.2674361e-07
4.5003411e-08
2.2567815e-07
3.8434648e-08
2.2443954e-07
3.1954277e-08
2.2303559e-07
2.556524e-08
2.2147738e-07
1.9264327e-08
2.1976827e-07
1.3066496e-08
2.1791863e-07
6.9586245e-09
2.1595242e-07
9.4775947e-10
2.1384751e-07
-4.9325995e-09
2.1162545e-07
-1.0734171e-08
2.0929159e-07
-1.6435178e-08
2.0685189e-07
-2.2035582e-08
2.0431245e-07
-2.7534541e-08
2.0167859e-07
-3.293206e-08
1.9895524e-07
-3.8229199e-08
1.9614783e-07
-4.3426003e-08
1.9326142e-07
-4.8522578e-08
1.9030023e-07
-5.3520168e-08
1.8726865e-07
-5.8419372e-08
1.8417096e-07
-6.3221015e-08
1.8101047e-07
-6.7925698e-08
1.777911e-07
-7.2535063e-08
1.7451631e-07
-7.7050068e-08
1.7118875e-07
-8.1471966e-08
1.6781193e-07
-8.580152e-08
1.6438837e-07
-9.0039691e-08
1.6092094e-07
-9.4188239e-08
1.5741229e-07
-9.8248881e-08
1.5386437e-07
-1.0222243e-07
1.5027957e-07
-1.0610947e-07
1.4665958e-07
-1.0991267e-07
1.4300608e-07
-1.1363195e-07
1.3932075e-07
-1.1726939e-07
1.3560483e-07
-1.2082557e-07
1.3186004e-07
-1.2430301e-07
1.2808839e-07
-1.2770172e-07
1.2428982e-07
-1.3102304e-07
1.2046615e-07
-1.3426813e-07
1.1661778e-07
-1.3743866e-07
1.1274635e-07
-1.4053537e-07
1.0885126e-07
-1.4355906e-07
1.0493394e-07
-1.4651141e-07
1.0099421e-07
-1.4939221e-07
9.7033053e-08
-1.5220296e-07
9.3050983e-08
-1.5494466e-07
8.9048249e-08
-1.5761842e-07
8.502463e-08
-1.6022432e-07
8.0980701e-08
-1.627635e-07
7.6916413e-08
-1.652363e-07
7.2831652e-08
-1.6764349e-07
6.8726579e-08
-1.6998545e-07
6.4600424e-08
-1.7226211e-07
6.0453571e-08
-1.7447539e-07
5.6285627e-08
-1.7662409e-07
5.2096464e-08
-1.7870927e-07
4.7885102e-08
-1.8073084e-07
4.3652137e-08
-1.8268888e-07
3.9396394e-08
-1.8458359e-07
3.511772e-08
-1.8641489e-07
3.0815689e-08
-1.8818264e-07
2.6489484e-08
-1.8988628e-07
2.2139002e-08
-1.9152639e-07
1.7763713e-08
-1.9310184e-07
1.3362462e-08
-1.9461269e-07
8.9354373e-09
-1.9605825e-07
4.4818507e-09
-1.9743852e-07
-1.9875297e-07
2.1146808e-07
1.3376106e-07
2.1369025e-07
1.268463e-07
2.1560809e-07
1.1992046e-07
2.1723319e-07
1.1299597e-07
2.1857588e-07
1.0608341e-07
2.1964802e-07
9.9191489e-08
2.2045978e-07
9.2329771e-08
2.2102232e-07
8.5506087e-08
2.2134571e-07
7.8727445e-08
2.2144064e-07
7.2000696e-08
2.2131698e-07
6.5331885e-08
2.2098444e-07
5.8726611e-08
2.2045254e-07
5.2189489e-08
2.1973056e-07
4.5725408e-08
2.1882746e-07
3.9337904e-08
2.1775164e-07
3.3030131e-08
2.1651192e-07
2.6805135e-08
2.1511243e-07
2.0663663e-08
2.1356872e-07
1.4610244e-08
2.1187949e-07
8.6476887e-09
2.1006142e-07
2.7656777e-09
2.081191e-07
-2.9904294e-09
2.060545e-07
-8.6694775e-09
2.0387524e-07
-1.4256197e-08
2.0158814e-07
-1.9748346e-08
1.9919877e-07
-2.5145106e-08
1.9671301e-07
-3.044654e-08
1.9413606e-07
-3.5652144e-08
1.9147248e-07
-4.0762305e-08
1.8872727e-07
-4.5777361e-08
1.8590473e-07
-5.0697822e-08
1.8300932e-07
-5.5524163e-08
1.8004522e-07
-6.025667e-08
1.7701589e-07
-6.4896398e-08
1.7392551e-07
-6.9444642e-08
1.7077699e-07
-7.390159e-08
1.6757319e-07
-7.8268241e-08
1.6431762e-07
-8.2545798e-08
1.6101299e-07
-8.6735086e-08
1.5766194e-07
-9.0837093e-08
1.5426708e-07
-9.4854123e-08
1.5083053e-07
-9.8785844e-08
1.4735457e-07
-1.0263377e-07
1.4384088e-07
-1.0639887e-07
1.4029155e-07
-1.1008255e-07
1.3670825e-07
-1.136861e-07
1.3309259e-07
-1.1720995e-07
1.2944582e-07
-1.2065604e-07
1.257694e-07
-1.2402549e-07
1.220646e-07
-1.2731834e-07
1.1833217e-07
-1.3053604e-07
1.145738e-07
-1.3368009e-07
1.107899e-07
-1.3675146e-07
1.0698111e-07
-1.3975062e-07
1.0314813e-07
-1.4267826e-07
9.9291413e-08
-1.4553545e-07
9.5412035e-08
-1.4832333e-07
9.150994e-08
-1.5104273e-07
8.7585736e-08
-1.536942e-07
8.3639489e-08
-1.5627811e-07
7.9671316e-08
-1.5879533e-07
7.5681824e-08
-1.6124666e-07
7.1670385e-08
-1.6363222e-07
6.7637646e-08
-1.6595247e-07
6.3583194e-08
-1.6820801e-07
5.9507085e-08
-1.7039915e-07
5.5408983e-08
-1.7252632e-07
5.1288797e-08
-1.7458931e-07
4.7146535e-08
-1.7658836e-07
4.2981323e-08
-1.7852399e-07
3.8793516e-08
-1.8039576e-07
3.4582159e-08
-1.8220363e-07
3.0347166e-08
-1.8394754e-07
2.6087922e-08
-1.8562724e-07
2.1804248e-08
-1.8724237e-07
1.7495498e-08
-1.8879319e-07
1.316138e-08
-1.9027839e-07
8.8008947e-09
-1.9169812e-07
4.4139448e-09
-1.9305157e-07
-1.9433895e-07
2.0294394e-07
1.311391e-07
2.052601e-07
1.2453021e-07
2.0728057e-07
1.1789995e-07
2.090159e-07
1.1126063e-07
2.1047649e-07
1.0462296e-07
2.1167219e-07
9.7995855e-08
2.1261322e-07
9.1388635e-08
2.1330991e-07
8.4809365e-08
2.1377199e-07
7.8265379e-08
2.1400879e-07
7.176392e-08
2.1402991e-07
6.5310825e-08
2.1384431e-07
5.8912025e-08
2.1346151e-07
5.2572614e-08
2.1289002e-07
4.6296865e-08
2.1213858e-07
4.0089481e-08
2.1121516e-07
3.3953373e-08
2.1012765e-07
2.7892478e-08
2.0888294e-07
2.1908408e-08
2.0749056e-07
1.6002654e-08
2.0595719e-07
1.0181052e-08
2.04283e-07
4.440024e-09
2.0249246e-07
-1.1998559e-09
2.0057686e-07
-6.7537609e-09
1.9854536e-07
-1.2224461e-08
1.9640418e-07
-1.7607129e-08
1.9415909e-07
-2.29001e-08
1.9181566e-07
-2.8102987e-08
1.8937884e-07
-3.3215265e-08
1.8685373e-07
-3.8237207e-08
1.8424466e-07
-4.3168444e-08
1.815565e-07
-4.8009678e-08
1.7879323e-07
-5.2760846e-08
1.7595834e-07
-5.7422068e-08
1.7305669e-07
-6.199479e-08
1.7009116e-07
-6.6479172e-08
1.6706533e-07
-7.0875657e-08
1.6398231e-07
-7.5185296e-08
1.6084475e-07
-7.9408384e-08
1.5765608e-07
-8.3546227e-08
1.5441893e-07
-8.7600172e-08
1.5113527e-07
-9.1570503e-08
1.4780783e-07
-9.5458513e-08
1.4443849e-07
-9.9264269e-08
1.4102962e-07
-1.0299004e-07
1.3758275e-07
-1.0663591e-07
1.3409974e-07
-1.1020326e-07
1.3058265e-07
-1.1369308e-07
1.2703246e-07
-1.1710604e-07
1.2345056e-07
-1.2044355e-07
1.1983818e-07
-1.2370594e-07
1.1619664e-07
-1.2689456e-07
1.1252703e-07
-1.3001053e-07
1.0883024e-07
-1.3305471e-07
1.0510668e-07
-1.3602695e-07
1.0135738e-07
-1.3892887e-07
9.7583204e-08
-1.417614e-07
9.3784956e-08
-1.4452535e-07
8.9962742e-08
-1.4722046e-07
8.6116737e-08
-1.4984827e-07
8.2247571e-08
-1.52409e-07
7.835521e-08
-1.5490335e-07
7.4440382e-08
-1.5733166e-07
7.0502516e-08
-1.5969431e-07
6.654202e-08
-1.6199221e-07
6.2559457e-08
-1.6422545e-07
5.855441e-08
-1.6639411e-07
5.4526308e-08
-1.6849834e-07
5.0476166e-08
-1.7053883e-07
4.6402553e-08
-1.7251466e-07
4.2306049e-08
-1.7442734e-07
3.8185995e-08
-1.7627567e-07
3.4042546e-08
-1.7806019e-07
2.9875066e-08
-1.7978018e-07
2.5682952e-08
-1.814353e-07
2.1466603e-08
-1.8302607e-07
1.7225124e-08
-1.8455152e-07
1.2958202e-08
-1.8601148e-07
8.6651438e-09
-1.8740513e-07
4.3460762e-09
-1.887323e-07
-1.8999303e-07
1.947558e-07
1.2844753e-07
1.9715174e-07
1.2213447e-07
1.9926061e-07
1.1579105e-07
2.0109244e-07
1.0942868e-07
2.0265714e-07
1.0305825e-07
2.0396362e-07
9.6689505e-08
2.050212e-07
9.0331148e-08
2.0583921e-07
8.3991237e-08
2.0642717e-07
7.7677754e-08
2.0679365e-07
7.139736e-08
2.0694807e-07
6.5156417e-08
2.0689854e-07
5.8961307e-08
2.0665414e-07
5.2817035e-08
2.062229e-07
4.672808e-08
2.0561308e-07
4.0699415e-08
2.0483212e-07
3.4734358e-08
2.0388806e-07
2.8836528e-08
2.0278752e-07
2.3008977e-08
2.0153891e-07
1.7251144e-08
2.0014782e-07
1.1572111e-08
1.9861799e-07
5.9698477e-09
1.9697148e-07
4.4683304e-10
1.9519612e-07
-4.9784432e-09
1.9330494e-07
-1.0333346e-08
1.9130308e-07
-1.5605387e-08
1.8919588e-07
-2.0792923e-08
1.8698887e-07
-2.5896048e-08
1.8468691e-07
-3.0913283e-08
1.8229492e-07
-3.5845085e-08
1.7981742e-07
-4.0690928e-08
1.7725884e-07
-4.5451081e-08
1.7462289e-07
-5.0124887e-08
1.7191376e-07
-5.4713109e-08
1.6913557e-07
-5.9216584e-08
1.6629136e-07
-6.3634753e-08
1.6338483e-07
-6.7969026e-08
1.6041872e-07
-7.2219346e-08
1.5739656e-07
-7.6386265e-08
1.5432108e-07
-8.0470767e-08
1.5119483e-07
-8.4473984e-08
1.4802015e-07
-8.8395698e-08
1.447992e-07
-9.2237631e-08
1.4153456e-07
-9.5999862e-08
1.3822862e-07
-9.9683753e-08
1.3488243e-07
-1.0328983e-07
1.3149812e-07
-1.0681881e-07
1.2807765e-07
-1.1027254e-07
1.2462254e-07
-1.1365089e-07
1.2113371e-07
-1.1695459e-07
1.176129e-07
-1.2018522e-07
1.1406106e-07
-1.2334286e-07
1.1047964e-07
-1.2642893e-07
1.0686891e-07
-1.2944398e-07
1.0323029e-07
-1.3238843e-07
9.9564599e-08
-1.352632e-07
9.5872476e-08
-1.3806941e-07
9.215448e-08
-1.4080719e-07
8.8410794e-08
-1.4347736e-07
8.4642764e-08
-1.4608017e-07
8.0850358e-08
-1.4861655e-07
7.7033469e-08
-1.5108675e-07
7.3193081e-08
-1.53491e-07
6.932891e-08
-1.5583027e-07
6.5441376e-08
-1.5810474e-07
6.1530823e-08
-1.6031488e-07
5.7596889e-08
-1.6246012e-07
5.3639494e-08
-1.6454106e-07
4.9658326e-08
-1.6655786e-07
4.5654338e-08
-1.6851076e-07
4.1626645e-08
-1.7039941e-07
3.7575046e-08
-1.7222433e-07
3.3499527e-08
-1.7398464e-07
2.939959e-08
-1.7568022e-07
2.5275703e-08
-1.7731144e-07
2.1126657e-08
-1.7887718e-07
1.6952811e-08
-1.8037779e-07
1.2753341e-08
-1.8181212e-07
8.5284147e-09
-1.8318003e-07
4.2773366e-09
-1.8448144e-07
-1.857155e-07
1.868952e-07
1.257e-07
1.89357e-07
1.1967244e-07
1.9154155e-07
1.1360654e-07
1.9345736e-07
1.075129e-07
1.9511319e-07
1.0140243e-07
1.9651761e-07
9.5285182e-08
1.9767915e-07
8.9169362e-08
1.9860694e-07
8.3063655e-08
1.9930901e-07
7.697571e-08
1.997941e-07
7.0912122e-08
2.0007047e-07
6.4880243e-08
2.0014639e-07
5.888551e-08
2.0002984e-07
5.29334e-08
1.9972881e-07
4.7029265e-08
1.9925074e-07
4.1177295e-08
1.9860334e-07
3.538165e-08
1.9779371e-07
2.9646237e-08
1.9682895e-07
2.3973704e-08
1.9571488e-07
1.8365223e-08
1.9446007e-07
1.2826993e-08
1.9306897e-07
7.360946e-09
1.9155225e-07
1.9634573e-09
1.8991323e-07
-3.3394599e-09
1.8815632e-07
-8.5764139e-09
1.8628749e-07
-1.373654e-08
1.8431239e-07
-1.8817794e-08
1.8223609e-07
-2.3819547e-08
1.8006366e-07
-2.8740783e-08
1.7779957e-07
-3.3581069e-08
1.754484e-07
-3.8339828e-08
1.7301447e-07
-4.3016958e-08
1.7050174e-07
-4.7612145e-08
1.6791428e-07
-5.2125562e-08
1.6525542e-07
-5.6557565e-08
1.6252919e-07
-6.0908838e-08
1.597383e-07
-6.5178136e-08
1.5688618e-07
-6.9367342e-08
1.5397626e-07
-7.3476229e-08
1.5101097e-07
-7.7505336e-08
1.479927e-07
-8.1455635e-08
1.449242e-07
-8.5327552e-08
1.4180788e-07
-8.912126e-08
1.3864595e-07
-9.283783e-08
1.3544048e-07
-9.6478139e-08
1.3219319e-07
-1.0004258e-07
1.2890613e-07
-1.0353168e-07
1.2558085e-07
-1.0694723e-07
1.2221908e-07
-1.102892e-07
1.1882219e-07
-1.135577e-07
1.1539149e-07
-1.1675437e-07
1.119282e-07
-1.1987953e-07
1.0843328e-07
-1.2293423e-07
1.0490821e-07
-1.2591875e-07
1.013537e-07
-1.2883392e-07
9.7770394e-08
-1.3168008e-07
9.415975e-08
-1.3445834e-07
9.0521554e-08
-1.3716904e-07
8.6856929e-08
-1.3981253e-07
8.316604e-08
-1.4238932e-07
7.9449899e-08
-1.4490037e-07
7.5708754e-08
-1.4734547e-07
7.1942771e-08
-1.4972505e-07
6.8152109e-08
-1.5203973e-07
6.4337387e-08
-1.5428996e-07
6.0498527e-08
-1.5647576e-07
5.6635392e-08
-1.585969e-07
5.274838e-08
-1.6065409e-07
4.8837494e-08
-1.6264687e-07
4.4902809e-08
-1.6457599e-07
4.0943901e-08
-1.6644048e-07
3.6961055e-08
-1.6824124e-07
3.2953548e-08
-1.6997733e-07
2.8922105e-08
-1.7164864e-07
2.486604e-08
-1.7325531e-07
2.0785032e-08
-1.7479634e-07
1.6679092e-08
-1.7627181e-07
1.2547808e-08
-1.776811e-07
8.3911579e-09
-1.7902356e-07
4.2086e-09
-1.8029869e-07
-1.8150713e-07
1.7935251e-07
1.229088e-07
1.8186843e-07
1.1715666e-07
1.8411651e-07
1.1135848e-07
1.8610385e-07
1.055255e-07
1.8783881e-07
9.9667561e-08
1.8932936e-07
9.3794513e-08
1.9058345e-07
8.791517e-08
1.9160932e-07
8.2037867e-08
1.9241468e-07
7.6170195e-08
1.9300736e-07
7.0319535e-08
1.9339543e-07
6.4492153e-08
1.9358641e-07
5.8694542e-08
1.9358791e-07
5.2932033e-08
1.9340728e-07
4.720972e-08
1.9305207e-07
4.1532698e-08
1.925292e-07
3.5904685e-08
1.9184546e-07
3.032978e-08
1.9100753e-07
2.481169e-08
1.9002086e-07
1.9351999e-08
1.8889417e-07
1.3953624e-08
1.8763387e-07
8.6212529e-09
1.8624182e-07
3.3556018e-09
1.8473137e-07
-1.8292313e-09
1.83102e-07
-6.9467282e-09
1.8136e-07
-1.1994658e-08
1.7951097e-07
-1.6968788e-08
1.7755981e-07
-2.186845e-08
1.7551119e-07
-2.6692278e-08
1.7336997e-07
-3.1439562e-08
1.7114033e-07
-3.6110246e-08
1.688265e-07
-4.0703103e-08
1.6643263e-07
-4.5218173e-08
1.6396228e-07
-4.9655348e-08
1.6141949e-07
-5.4014757e-08
1.5880715e-07
-5.8296524e-08
1.5612877e-07
-6.2499944e-08
1.5338749e-07
-6.6626014e-08
1.5058652e-07
-7.0675104e-08
1.4772833e-07
-7.4647303e-08
1.4481568e-07
-7.854295e-08
1.4185083e-07
-8.2362659e-08
1.3883646e-07
-8.610704e-08
1.357747e-07
-8.9775827e-08
1.3266776e-07
-9.337124e-08
1.2951746e-07
-9.6892411e-08
1.2632579e-07
-1.0034022e-07
1.2309427e-07
-1.0371599e-07
1.1982443e-07
-1.070192e-07
1.1651801e-07
-1.1025133e-07
1.1317591e-07
-1.1341232e-07
1.0979996e-07
-1.165036e-07
1.0639114e-07
-1.1952555e-07
1.0295046e-07
-1.2247824e-07
9.9479195e-08
-1.2536242e-07
9.5977668e-08
-1.2817888e-07
9.244746e-08
-1.30928e-07
8.8888732e-08
-1.3361041e-07
8.5302233e-08
-1.3622607e-07
8.1688766e-08
-1.3877597e-07
7.8048413e-08
-1.4126008e-07
7.4382248e-08
-1.4367911e-07
7.0690582e-08
-1.4603322e-07
6.6973247e-08
-1.4832247e-07
6.323081e-08
-1.505479e-07
5.9463387e-08
-1.5270852e-07
5.5671544e-08
-1.5480504e-07
5.1854894e-08
-1.5683773e-07
4.8014048e-08
-1.5880592e-07
4.4148728e-08
-1.6071059e-07
4.0258872e-08
-1.6255084e-07
3.634463e-08
-1.6432706e-07
3.2405969e-08
-1.6603844e-07
2.8442533e-08
-1.6768531e-07
2.4454916e-08
-1.6926719e-07
2.0442021e-08
-1.7078356e-07
1.6404223e-08
-1.722342e-07
1.2341603e-08
-1.736184e-07
8.25354e-09
-1.7493544e-07
4.139478e-09
-1.7618483e-07
-1.7736759e-07
1.7211914e-07
1.200849e-07
1.7467719e-07
1.1459841e-07
1.7697712e-07
1.0905861e-07
1.7902487e-07
1.0347785e-07
1.8082767e-07
9.7864763e-08
1.8239346e-07
9.2228778e-08
1.8372924e-07
8.6579405e-08
1.8484247e-07
8.0924632e-08
1.8574068e-07
7.5272064e-08
1.8643088e-07
6.9629222e-08
1.8692066e-07
6.4002396e-08
1.8721704e-07
5.839817e-08
1.873272e-07
5.2821822e-08
1.8725802e-07
4.7278888e-08
1.8701644e-07
4.1774154e-08
1.8660931e-07
3.6311917e-08
1.860428e-07
3.0896229e-08
1.8532366e-07
2.5530836e-08
1.8445695e-07
2.0218691e-08
1.8345312e-07
1.4957445e-08
1.8231109e-07
9.7632429e-09
1.8104106e-07
4.6256552e-09
1.7965249e-07
-4.406107e-10
1.7814376e-07
-5.4381449e-09
1.765223e-07
-1.037318e-08
1.747935e-07
-1.5240007e-08
1.7296182e-07
-2.0036742e-08
1.710322e-07
-2.476257e-08
1.6900886e-07
-2.9416414e-08
1.6689589e-07
-3.3997284e-08
1.6469793e-07
-3.8505153e-08
1.6241843e-07
-4.2938651e-08
1.6006143e-07
-4.7298219e-08
1.5763011e-07
-5.1583308e-08
1.5512801e-07
-5.5794315e-08
1.5255879e-07
-5.9930788e-08
1.4992486e-07
-6.3992356e-08
1.4722981e-07
-6.7979716e-08
1.4447579e-07
-7.1893467e-08
1.4166592e-07
-7.5733096e-08
1.3880251e-07
-7.9499249e-08
1.3588773e-07
-8.3192388e-08
1.3292406e-07
-8.6812597e-08
1.299134e-07
-9.036065e-08
1.2685815e-07
-9.3837154e-08
1.2376002e-07
-9.7241852e-08
1.2062006e-07
-1.0057617e-07
1.174406e-07
-1.0383988e-07
1.142228e-07
-1.0703366e-07
1.1096872e-07
-1.1015804e-07
1.0767889e-07
-1.1321392e-07
1.0435488e-07
-1.1620146e-07
1.0099767e-07
-1.1912098e-07
9.7608496e-08
-1.2197339e-07
9.418816e-08
-1.2475829e-07
9.0737534e-08
-1.2747729e-07
8.7257266e-08
-1.3012994e-07
8.3748492e-08
-1.3271727e-07
8.0211501e-08
-1.3523905e-07
7.6647132e-08
-1.3769561e-07
7.3055567e-08
-1.400874e-07
6.9437064e-08
-1.4241503e-07
6.579309e-08
-1.4467833e-07
6.2122933e-08
-1.4687757e-07
5.8427055e-08
-1.4901269e-07
5.4706133e-08
-1.5108396e-07
5.0959903e-08
-1.5309145e-07
4.7188938e-08
-1.5503507e-07
4.3392957e-08
-1.5691477e-07
3.9572258e-08
-1.5873026e-07
3.572692e-08
-1.6048154e-07
3.1856864e-08
-1.6216857e-07
2.7962011e-08
-1.6379038e-07
2.4042593e-08
-1.6534771e-07
2.0098201e-08
-1.6683911e-07
1.6128625e-08
-1.6826477e-07
1.21344e-08
-1.6962409e-07
8.1147611e-09
-1.7091604e-07
4.0701756e-09
-1.7213998e-07
-1.7329752e-07
1.6518446e-07
1.1723899e-07
1.6777481e-07
1.1200808e-07
1.7011567e-07
1.0671776e-07
1.7221326e-07
1.0138031e-07
1.7407359e-07
9.6004357e-08
1.7570431e-07
9.0598172e-08
1.7711151e-07
8.5172165e-08
1.7830238e-07
7.9733907e-08
1.7928356e-07
7.4291012e-08
1.8006176e-07
6.88512e-08
1.806436e-07
6.3420481e-08
1.8103605e-07
5.8005634e-08
1.8124579e-07
5.2612044e-08
1.8127945e-07
4.7245476e-08
1.8114318e-07
4.1910455e-08
1.8084351e-07
3.6611506e-08
1.8038677e-07
3.1353074e-08
1.7977898e-07
2.6138788e-08
1.7902595e-07
2.0971681e-08
1.781321e-07
1.5851424e-08
1.7710626e-07
1.0789134e-08
1.7594967e-07
5.7823849e-09
1.7467772e-07
8.3118506e-10
1.7328304e-07
-4.043431e-09
1.7177645e-07
-8.8664554e-09
1.7016231e-07
-1.3625674e-08
1.6844474e-07
-1.8319293e-08
1.6662881e-07
-2.29464e-08
1.6471807e-07
-2.7505902e-08
1.6271748e-07
-3.1996813e-08
1.6063047e-07
-3.6418158e-08
1.5846118e-07
-4.0769134e-08
1.5621309e-07
-4.5050158e-08
1.5388989e-07
-4.9260219e-08
1.5149477e-07
-5.3399256e-08
1.4903061e-07
-5.7466484e-08
1.4650095e-07
-6.1462942e-08
1.439085e-07
-6.538741e-08
1.4125602e-07
-6.924109e-08
1.3854597e-07
-7.3023016e-08
1.3578113e-07
-7.6734224e-08
1.3296375e-07
-8.0375006e-08
1.3009591e-07
-8.3944555e-08
1.2717985e-07
-8.7444522e-08
1.2421743e-07
-9.0874549e-08
1.2121052e-07
-9.4235112e-08
1.1816083e-07
-9.7526556e-08
1.1507009e-07
-1.0074914e-07
1.1194016e-07
-1.0390364e-07
1.0877177e-07
-1.0698993e-07
1.0556694e-07
-1.1000909e-07
1.0232621e-07
-1.1296083e-07
9.9051762e-08
-1.1584652e-07
9.574371e-08
-1.1866502e-07
9.2403258e-08
-1.2141808e-07
8.9031607e-08
-1.2410559e-07
8.562947e-08
-1.2672779e-07
8.2197425e-08
-1.2928504e-07
7.8736227e-08
-1.3177778e-07
7.5246676e-08
-1.3420611e-07
7.1729485e-08
-1.3657026e-07
6.8184748e-08
-1.3887032e-07
6.4613011e-08
-1.4110665e-07
6.1014978e-08
-1.4327935e-07
5.7390664e-08
-1.4538849e-07
5.3740403e-08
-1.4743368e-07
5.0064594e-08
-1.4941567e-07
4.6363137e-08
-1.513337e-07
4.2636603e-08
-1.531882e-07
3.8885039e-08
-1.5497861e-07
3.5108413e-08
-1.5670496e-07
3.1306852e-08
-1.5836703e-07
2.7480597e-08
-1.5996415e-07
2.3629341e-08
-1.6149643e-07
1.975335e-08
-1.6296303e-07
1.5852554e-08
-1.6436394e-07
1.1926603e-08
-1.6569833e-07
7.9759491e-09
-1.6696527e-07
4.000716e-09
-1.6816478e-07
-1.692967e-07
1.58539e-07
1.1438038e-07
1.6115175e-07
1.093954e-07
1.6352394e-07
1.0434555e-07
1.6566139e-07
9.9242674e-08
1.675702e-07
9.4095507e-08
1.6925609e-07
8.8912198e-08
1.7072539e-07
8.370286e-08
1.7198444e-07
7.8474895e-08
1.7303909e-07
7.3236306e-08
1.7389604e-07
6.7994219e-08
1.7456135e-07
6.275522e-08
1.7504131e-07
5.7525714e-08
1.7534202e-07
5.2311422e-08
1.7546988e-07
4.7117497e-08
1.7543101e-07
4.1949375e-08
1.7523098e-07
3.6811312e-08
1.748761e-07
3.1708007e-08
1.7437179e-07
2.6642953e-08
1.7372435e-07
2.1619267e-08
1.7293708e-07
1.6638824e-08
1.7201755e-07
1.1708739e-08
1.7097286e-07
6.8268511e-09
1.6980411e-07
2.000078e-09
1.6852067e-07
-2.7600337e-09
1.6712336e-07
-7.469419e-09
1.6561806e-07
-1.212053e-08
1.6400971e-07
-1.6710892e-08
1.6230192e-07
-2.123875e-08
1.6049984e-07
-2.5703787e-08
1.586064e-07
-3.0103393e-08
1.5662616e-07
-3.4437785e-08
1.545629e-07
-3.8705953e-08
1.5241999e-07
-4.2907446e-08
1.5020091e-07
-4.7040932e-08
1.4790869e-07
-5.1106876e-08
1.4554673e-07
-5.5104523e-08
1.4311806e-07
-5.9034072e-08
1.4062512e-07
-6.2894486e-08
1.3807109e-07
-6.668725e-08
1.3545834e-07
-7.0410277e-08
1.3278941e-07
-7.4065627e-08
1.3006666e-07
-7.7652327e-08
1.2729225e-07
-8.1170308e-08
1.2446861e-07
-8.46207e-08
1.2159697e-07
-8.8003021e-08
1.1867988e-07
-9.131775e-08
1.1571844e-07
-9.4565331e-08
1.1271487e-07
-9.7745623e-08
1.0967062e-07
-1.0085941e-07
1.0658721e-07
-1.0390629e-07
1.0346565e-07
-1.068875e-07
1.0030779e-07
-1.0980296e-07
9.7114257e-08
-1.1265274e-07
9.3886464e-08
-1.1543726e-07
9.0625058e-08
-1.1815649e-07
8.7331399e-08
-1.2081187e-07
8.4005983e-08
-1.2340248e-07
8.0650535e-08
-1.2592947e-07
7.7264668e-08
-1.2839216e-07
7.3849597e-08
-1.3079092e-07
7.0405795e-08
-1.3312646e-07
6.6933955e-08
-1.3539827e-07
6.3434673e-08
-1.3760725e-07
5.990813e-08
-1.3975297e-07
5.6354807e-08
-1.4183485e-07
5.2774934e-08
-1.4385379e-07
4.9168885e-08
-1.4580971e-07
4.5537146e-08
-1.4770173e-07
4.188018e-08
-1.4953097e-07
3.8197465e-08
-1.512959e-07
3.4489616e-08
-1.5299722e-07
3.0756558e-08
-1.5463408e-07
2.6998889e-08
-1.5620611e-07
2.3216067e-08
-1.5771361e-07
1.9408473e-08
-1.5915566e-07
1.5576091e-08
-1.605317e-07
1.1718999e-08
-1.6184107e-07
7.8373961e-09
-1.6308352e-07
3.9309503e-09
-1.6425848e-07
-1.6536578e-07
1.5217329e-07
1.1151829e-07
1.5479963e-07
1.0676912e-07
1.5719421e-07
1.0195105e-07
1.5936267e-07
9.7074122e-08
1.6131083e-07
9.2147477e-08
1.6304292e-07
8.7180012e-08
1.6456553e-07
8.2180378e-08
1.6588359e-07
7.7156707e-08
1.6700348e-07
7.2116567e-08
1.6793053e-07
6.7067115e-08
1.6867065e-07
6.2015154e-08
1.6922969e-07
5.6966772e-08
1.6961344e-07
5.1927558e-08
1.6982772e-07
4.6903315e-08
1.698783e-07
4.1898767e-08
1.6977054e-07
3.6919157e-08
1.6951031e-07
3.1968357e-08
1.6910285e-07
2.7050412e-08
1.6855353e-07
2.2168575e-08
1.6786572e-07
1.7326318e-08
1.6704753e-07
1.2526761e-08
1.6610566e-07
7.7689691e-09
1.6503854e-07
3.0671065e-09
1.6385804e-07
-1.5793006e-09
1.6256456e-07
-6.1758552e-09
1.6116306e-07
-1.0719237e-08
1.5965809e-07
-1.5205742e-08
1.5805436e-07
-1.9634924e-08
1.5635511e-07
-2.4004612e-08
1.5456488e-07
-2.8313027e-08
1.5268704e-07
-3.2559979e-08
1.507257e-07
-3.6744694e-08
1.4868367e-07
-4.0865537e-08
1.4656504e-07
-4.4922173e-08
1.4437222e-07
-4.8914334e-08
1.4210896e-07
-5.2841265e-08
1.3977777e-07
-5.6702847e-08
1.3738156e-07
-6.0498559e-08
1.3492291e-07
-6.4228483e-08
1.3240502e-07
-6.7892654e-08
1.2982966e-07
-7.1490017e-08
1.2719899e-07
-7.5021624e-08
1.2451554e-07
-7.8486882e-08
1.2178169e-07
-8.1886794e-08
1.189993e-07
-8.5220401e-08
1.1616974e-07
-8.8488157e-08
1.1329512e-07
-9.1690721e-08
1.1037689e-07
-9.4827592e-08
1.0741677e-07
-9.7899178e-08
1.0441639e-07
-1.0090604e-07
1.0137718e-07
-1.0384829e-07
9.8300321e-08
-1.0672578e-07
9.518665e-08
-1.0953924e-07
9.203776e-08
-1.1228821e-07
8.8854627e-08
-1.1497351e-07
8.5638115e-08
-1.1759519e-07
8.2389401e-08
-1.2015381e-07
7.9108915e-08
-1.2264919e-07
7.5797757e-08
-1.2508083e-07
7.2456464e-08
-1.2744992e-07
6.9086031e-08
-1.2975586e-07
6.568633e-08
-1.3199883e-07
6.2258837e-08
-1.3417965e-07
5.8802754e-08
-1.362973e-07
5.5320703e-08
-1.3835254e-07
5.1810922e-08
-1.4034441e-07
4.8275057e-08
-1.4227354e-07
4.4712835e-08
-1.4413955e-07
4.1124528e-08
-1.4594282e-07
3.7510559e-08
-1.4768197e-07
3.3870996e-08
-1.4935787e-07
3.0206634e-08
-1.5096975e-07
2.6517099e-08
-1.5251671e-07
2.2802605e-08
-1.539992e-07
1.9063373e-08
-1.5541637e-07
1.5299672e-08
-1.5676788e-07
1.1511449e-08
-1.5805287e-07
7.6986518e-09
-1.5927093e-07
3.8614151e-09
-1.6042128e-07
-1.6150431e-07
1.4607761e-07
1.0866012e-07
1.4870944e-07
1.0413723e-07
1.5111835e-07
9.9542196e-08
1.5330977e-07
9.4882694e-08
1.5528859e-07
9.0168695e-08
1.5705896e-07
8.5409727e-08
1.5862616e-07
8.0613121e-08
1.599956e-07
7.5787276e-08
1.6117215e-07
7.0940033e-08
1.6216125e-07
6.6078007e-08
1.6296828e-07
6.1208137e-08
1.6359862e-07
5.6336274e-08
1.6405779e-07
5.1468315e-08
1.6435104e-07
4.6609969e-08
1.6448351e-07
4.1766257e-08
1.6446094e-07
3.6941855e-08
1.642881e-07
3.2141243e-08
1.6397013e-07
2.7368379e-08
1.6351232e-07
2.2626591e-08
1.6291895e-07
1.7919697e-08
1.6219833e-07
1.3247549e-08
1.6134659e-07
8.6205087e-09
1.6037803e-07
4.0357333e-09
1.5929604e-07
-4.973428e-10
1.5810048e-07
-4.9805124e-09
1.5679732e-07
-9.4160528e-09
1.5539137e-07
-1.3799582e-08
1.5388623e-07
-1.8129814e-08
1.5228587e-07
-2.2404133e-08
1.505938e-07
-2.6621079e-08
1.4881464e-07
-3.0780682e-08
1.4695083e-07
-3.4880874e-08
1.4500603e-07
-3.8920699e-08
1.4298379e-07
-4.2899855e-08
1.4088711e-07
-4.6817727e-08
1.3871893e-07
-5.0673107e-08
1.3648246e-07
-5.4466233e-08
1.3417976e-07
-5.8195897e-08
1.3181428e-07
-6.1862838e-08
1.293876e-07
-6.546604e-08
1.2690296e-07
-6.9005333e-08
1.2436218e-07
-7.2481023e-08
1.2176817e-07
-7.58928e-08
1.1912187e-07
-7.9240659e-08
1.1642569e-07
-8.2524302e-08
1.1368226e-07
-8.5744295e-08
1.1089209e-07
-8.8900641e-08
1.0805756e-07
-9.199303e-08
1.0518044e-07
-9.5021816e-08
1.0226173e-07
-9.7987537e-08
9.9303179e-08
-1.008898e-07
9.6305758e-08
-1.0372854e-07
9.3271144e-08
-1.0650437e-07
9.0200149e-08
-1.0921713e-07
8.709394e-08
-1.118675e-07
8.3953784e-08
-1.1445521e-07
8.0780269e-08
-1.1698037e-07
7.7574386e-08
-1.1944312e-07
7.4337149e-08
-1.2184337e-07
7.1068965e-08
-1.2418167e-07
6.7770787e-08
-1.2645753e-07
6.4443072e-08
-1.2867155e-07
6.1086674e-08
-1.3082316e-07
5.7701948e-08
-1.3291262e-07
5.4289371e-08
-1.3493992e-07
5.084969e-08