/*--------------------------------*- C++ -*----------------------------------*\
| =========                 |                                                 |
| \\      /  F ield         | OpenFOAM: The Open Source CFD Toolbox           |
|  \\    /   O peration     | Version:  2306                                  |
|   \\  /    A nd           | Website:  www.openfoam.com                      |
|    \\/     M anipulation  |                                                 |
\*---------------------------------------------------------------------------*/
FoamFile
{
    version     2.0;
    format      ascii;
    arch        "LSB;label=32;scalar=64";
    class       volVectorField;
    location    "0.01";
    object      U_0;
}
// * * * * * * * * * * * * * * * * * * * * * * * * * * * * * * * * * * * * * //

dimensions      [0 1 -1 0 0 0 0];

internalField   nonuniform List<vector> 
6400
(
(9.4623376e-05 5.6510654e-05 1.4858537e-21)
(9.4253131e-05 5.2651994e-05 -2.8276167e-23)
(9.3761928e-05 4.8900198e-05 -2.9129488e-22)
(9.3158914e-05 4.5255246e-05 6.9329829e-22)
(9.2453839e-05 4.1717143e-05 -5.3854385e-22)
(9.1655296e-05 3.8285591e-05 5.8028628e-22)
(9.0771399e-05 3.4959714e-05 2.5157059e-23)
(8.9809839e-05 3.1738662e-05 2.5444828e-22)
(8.8777874e-05 2.8621137e-05 1.4828503e-22)
(8.7682232e-05 2.5605678e-05 2.0620183e-22)
(8.6529188e-05 2.2690673e-05 -1.889005e-22)
(8.53247e-05 1.9874297e-05 3.9133842e-22)
(8.4074352e-05 1.7154757e-05 1.5408182e-22)
(8.278334e-05 1.4530084e-05 -1.5188277e-22)
(8.1456396e-05 1.199824e-05 -8.9998209e-23)
(8.0097966e-05 9.5569925e-06 1.4537059e-22)
(7.8711348e-05 7.2043788e-06 -1.4226961e-22)
(7.7301943e-05 4.9380982e-06 4.0799239e-22)
(7.5872868e-05 2.7557847e-06 -9.5414537e-23)
(7.4426738e-05 6.5443951e-07 -1.2416542e-22)
(7.2968569e-05 -1.3689034e-06 1.8719397e-22)
(7.1499903e-05 -3.3141853e-06 -2.3384981e-22)
(7.0022464e-05 -5.1846571e-06 1.7302128e-22)
(6.8539112e-05 -6.9827186e-06 -2.2403727e-23)
(6.7052303e-05 -8.7106756e-06 -1.6080716e-22)
(6.5563998e-05 -1.0370643e-05 1.4524568e-22)
(6.4075951e-05 -1.1964642e-05 3.1602617e-23)
(6.2589826e-05 -1.3495014e-05 1.6684513e-22)
(6.1107201e-05 -1.4963579e-05 1.1085437e-22)
(5.962946e-05 -1.6372733e-05 -2.0119861e-22)
(5.8157816e-05 -1.7724524e-05 -1.1662619e-22)
(5.6693402e-05 -1.9020654e-05 3.2547697e-22)
(5.5237182e-05 -2.0263097e-05 2.9369878e-22)
(5.3790061e-05 -2.145363e-05 -6.675069e-23)
(5.2352883e-05 -2.2594055e-05 -9.2501998e-23)
(5.0926438e-05 -2.368613e-05 7.5791866e-23)
(4.9511353e-05 -2.4731716e-05 6.4045646e-23)
(4.8108062e-05 -2.5732383e-05 1.8863519e-22)
(4.6717031e-05 -2.6689823e-05 7.3710676e-23)
(4.5338636e-05 -2.7605477e-05 -2.6602295e-22)
(4.3973203e-05 -2.848092e-05 -3.0838726e-24)
(4.2621013e-05 -2.9317527e-05 2.1571444e-22)
(4.1282359e-05 -3.0116642e-05 6.3983977e-23)
(3.9957414e-05 -3.0879616e-05 2.9039291e-23)
(3.864622e-05 -3.1607706e-05 -3.9705983e-23)
(3.7348908e-05 -3.2302273e-05 -1.5956152e-25)
(3.6065553e-05 -3.2964462e-05 1.640982e-22)
(3.4796114e-05 -3.3595609e-05 2.7268362e-22)
(3.3540568e-05 -3.4196617e-05 -7.574014e-23)
(3.2298824e-05 -3.4768665e-05 -8.7072732e-23)
(3.1070783e-05 -3.5312693e-05 3.0251115e-23)
(2.9856293e-05 -3.5829627e-05 3.781977e-23)
(2.8655231e-05 -3.6320472e-05 1.7845764e-22)
(2.7467608e-05 -3.6786138e-05 1.2576204e-22)
(2.6293205e-05 -3.722733e-05 -7.0838354e-23)
(2.5131723e-05 -3.7645062e-05 4.0049663e-23)
(2.3982988e-05 -3.8039996e-05 6.7407412e-23)
(2.284683e-05 -3.8412937e-05 6.0703601e-23)
(2.172299e-05 -3.8764575e-05 5.7325257e-23)
(2.0611143e-05 -3.9095796e-05 -1.0987903e-22)
(1.9510991e-05 -3.9406933e-05 2.4857338e-23)
(1.842229e-05 -3.9698733e-05 5.0369212e-23)
(1.7344886e-05 -3.9971833e-05 1.28235e-22)
(1.6278459e-05 -4.0226563e-05 5.4447512e-23)
(1.5222602e-05 -4.0463504e-05 -2.569017e-23)
(1.4177108e-05 -4.0683216e-05 5.9041864e-23)
(1.3141718e-05 -4.0886039e-05 4.5034058e-23)
(1.2116138e-05 -4.1072426e-05 1.0789895e-22)
(1.1100091e-05 -4.1242804e-05 8.2819505e-23)
(1.009318e-05 -4.1397544e-05 -5.9824274e-23)
(9.0951455e-06 -4.1537024e-05 9.2061067e-23)
(8.1057286e-06 -4.1661589e-05 7.3202221e-23)
(7.1245459e-06 -4.1771434e-05 1.3788599e-23)
(6.1513429e-06 -4.186691e-05 4.2890021e-23)
(5.1858084e-06 -4.1948225e-05 6.9627615e-23)
(4.2276459e-06 -4.2015482e-05 1.6434334e-22)
(3.2766255e-06 -4.2069121e-05 2.6533579e-23)
(2.3321858e-06 -4.2109146e-05 -8.3158451e-24)
(1.3940073e-06 -4.2135663e-05 1.9592731e-23)
(4.6240254e-07 -4.2149239e-05 -1.6444765e-24)
(9.0787645e-05 5.5614105e-05 -2.8502272e-23)
(9.0518829e-05 5.1899369e-05 3.3760902e-22)
(9.0129799e-05 4.8282793e-05 2.8778122e-22)
(8.9629828e-05 4.4764589e-05 -5.8153964e-22)
(8.9027356e-05 4.1345022e-05 -5.2370934e-22)
(8.8331055e-05 3.8024354e-05 1.3790609e-22)
(8.7548709e-05 3.4802058e-05 2.7447343e-23)
(8.6687753e-05 3.1677599e-05 4.1392422e-22)
(8.5755266e-05 2.8650165e-05 -4.8975274e-22)
(8.4757792e-05 2.5718664e-05 -9.6542053e-23)
(8.3701449e-05 2.2881738e-05 -8.8474726e-23)
(8.2591983e-05 2.0137916e-05 4.3172558e-22)
(8.1434877e-05 1.7485522e-05 1.8764009e-22)
(8.0235178e-05 1.4922974e-05 -5.4264299e-22)
(7.8997572e-05 1.244842e-05 -1.5568094e-22)
(7.7726508e-05 1.0060019e-05 5.7025184e-23)
(7.6425929e-05 7.7558538e-06 6.9394557e-23)
(7.5099166e-05 5.5346325e-06 6.9168362e-23)
(7.3749982e-05 3.3929083e-06 -2.6795368e-22)
(7.2382789e-05 1.3293353e-06 2.7819503e-23)
(7.1001414e-05 -6.5892406e-07 2.9767086e-23)
(6.9607231e-05 -2.5720174e-06 4.647886e-23)
(6.8201903e-05 -4.413563e-06 1.5647563e-22)
(6.6788589e-05 -6.1854778e-06 -8.7751696e-23)
(6.5369638e-05 -7.8896617e-06 -1.7269815e-23)
(6.3947106e-05 -9.5281408e-06 1.1804586e-22)
(6.2522765e-05 -1.1102801e-05 -3.4876577e-24)
(6.1098272e-05 -1.2615891e-05 1.5829729e-22)
(5.9675316e-05 -1.4069066e-05 -3.0999261e-23)
(5.825536e-05 -1.5464429e-05 1.0542181e-22)
(5.6839598e-05 -1.6803906e-05 2.1532407e-22)
(5.5429158e-05 -1.8089172e-05 1.0875158e-22)
(5.4025091e-05 -1.9322057e-05 1.7563569e-22)
(5.2628326e-05 -2.0504446e-05 -5.7533853e-23)
(5.1239763e-05 -2.1637972e-05 1.7856845e-23)
(4.9860211e-05 -2.2724368e-05 1.3142473e-22)
(4.8490349e-05 -2.3765248e-05 9.9292111e-23)
(4.7130766e-05 -2.476199e-05 1.4899917e-22)
(4.5781907e-05 -2.5716203e-05 2.1569837e-24)
(4.4444154e-05 -2.6629227e-05 -9.7445282e-24)
(4.3117919e-05 -2.75027e-05 5.2535702e-23)
(4.1803628e-05 -2.8337893e-05 1.1826645e-22)
(4.0501494e-05 -2.9136238e-05 8.3520265e-23)
(3.9211679e-05 -2.9899043e-05 3.0353006e-23)
(3.7934449e-05 -3.0627592e-05 7.847772e-23)
(3.6669923e-05 -3.1322976e-05 9.9276149e-23)
(3.5418161e-05 -3.1986325e-05 1.6523921e-22)
(3.4179236e-05 -3.2618761e-05 1.7389687e-22)
(3.2953106e-05 -3.3221251e-05 8.0224042e-23)
(3.173982e-05 -3.3794943e-05 1.0296652e-22)
(3.0539244e-05 -3.4340772e-05 6.6165316e-24)
(2.9351239e-05 -3.485971e-05 -3.0465951e-23)
(2.8175833e-05 -3.5352909e-05 1.018616e-22)
(2.7012952e-05 -3.5821135e-05 1.4935525e-22)
(2.5862423e-05 -3.6265036e-05 1.091183e-22)
(2.4724018e-05 -3.6685506e-05 1.5449269e-22)
(2.3597573e-05 -3.7083155e-05 7.5537664e-23)
(2.248295e-05 -3.7458769e-05 1.2858359e-22)
(2.1380064e-05 -3.7813044e-05 8.1377295e-23)
(2.0288553e-05 -3.8146686e-05 5.4303063e-23)
(1.9208097e-05 -3.8460158e-05 1.1202805e-22)
(1.8138599e-05 -3.8754309e-05 -6.2332962e-24)
(1.7079782e-05 -3.9029622e-05 8.8582013e-23)
(1.6031368e-05 -3.9286567e-05 1.2010388e-22)
(1.4993113e-05 -3.9525772e-05 1.4167611e-22)
(1.3964754e-05 -3.9747604e-05 6.2990236e-23)
(1.2946081e-05 -3.9952523e-05 3.4790123e-23)
(1.1936784e-05 -4.0140903e-05 9.9885816e-23)
(1.0936557e-05 -4.0313192e-05 3.2986584e-23)
(9.9451485e-06 -4.0469666e-05 1.0294538e-22)
(8.962338e-06 -4.0610786e-05 9.312164e-23)
(7.9878518e-06 -4.0736827e-05 6.1487094e-23)
(7.0213238e-06 -4.0847953e-05 1.0175625e-22)
(6.0624739e-06 -4.094451e-05 5.0548802e-23)
(5.1110559e-06 -4.1026778e-05 9.8297908e-23)
(4.1668453e-06 -4.109486e-05 7.5947814e-23)
(3.2295536e-06 -4.1149056e-05 4.8916644e-23)
(2.2987554e-06 -4.1189485e-05 1.1166576e-22)
(1.3740994e-06 -4.1216281e-05 1.1553285e-22)
(4.5576669e-07 -4.1230077e-05 -8.7642926e-25)
(8.709877e-05 5.4668007e-05 8.9903745e-23)
(8.692299e-05 5.1094449e-05 -5.5847349e-23)
(8.6627597e-05 4.7610142e-05 -5.2065336e-22)
(8.622247e-05 4.4216479e-05 -2.5843904e-22)
(8.5714913e-05 4.0914054e-05 1.7323914e-23)
(8.5113518e-05 3.7703148e-05 -6.1479866e-23)
(8.4425882e-05 3.4583685e-05 -1.7995758e-22)
(8.3659026e-05 3.1555288e-05 -4.5692292e-22)
(8.2819663e-05 2.8617459e-05 -3.7526128e-22)
(8.1914284e-05 2.576954e-05 1.0347588e-22)
(8.0948846e-05 2.3010524e-05 1.1263026e-22)
(7.9929046e-05 2.033931e-05 -1.9862354e-22)
(7.8860184e-05 1.775442e-05 -9.3714853e-22)
(7.774709e-05 1.5254545e-05 -5.3170104e-22)
(7.6594367e-05 1.2838086e-05 5.1158411e-22)
(7.5406268e-05 1.0503475e-05 1.2435977e-22)
(7.418666e-05 8.2491008e-06 -3.2747212e-22)
(7.2939579e-05 6.0733365e-06 -5.0614765e-22)
(7.1668296e-05 3.9741792e-06 -3.9093248e-22)
(7.0375806e-05 1.9503791e-06 1.1749204e-22)
(6.9068122e-05 -1.2172991e-09 1.9438589e-22)
(6.7745928e-05 -1.8826257e-06 -1.4221103e-22)
(6.6409522e-05 -3.6944727e-06 -3.8679307e-22)
(6.5063558e-05 -5.4390947e-06 5.4399365e-23)
(6.371012e-05 -7.1183412e-06 -3.6312934e-23)
(6.235122e-05 -8.7340839e-06 6.2813433e-23)
(6.0988646e-05 -1.0288176e-05 -1.3335396e-22)
(5.9623979e-05 -1.178271e-05 -2.6957194e-22)
(5.8258841e-05 -1.3219347e-05 -8.8531376e-23)
(5.6894854e-05 -1.4599761e-05 1.1358968e-22)
(5.5533362e-05 -1.5925793e-05 7.3603398e-23)
(5.4175492e-05 -1.7199105e-05 -2.2980477e-22)
(5.2822307e-05 -1.8421425e-05 -2.1723817e-22)
(5.1474725e-05 -1.9594398e-05 9.9410321e-23)
(5.0133677e-05 -2.0719781e-05 8.5654391e-23)
(4.8800088e-05 -2.1799091e-05 -1.2091587e-22)
(4.7474591e-05 -2.2833891e-05 -2.5544278e-22)
(4.6157727e-05 -2.3825471e-05 -3.3740662e-23)
(4.4850052e-05 -2.4775285e-05 2.3133031e-24)
(4.3552122e-05 -2.5684774e-05 -1.002791e-22)
(4.2264498e-05 -2.6555454e-05 1.7325724e-22)
(4.098752e-05 -2.7388526e-05 -9.1608776e-24)
(3.9721429e-05 -2.8185216e-05 -1.1916051e-22)
(3.8466457e-05 -2.894695e-05 7.4676445e-23)
(3.7222804e-05 -2.9674849e-05 3.2672427e-24)
(3.5990655e-05 -3.0369994e-05 1.2393232e-23)
(3.47701e-05 -3.1033468e-05 -2.8110047e-23)
(3.3561236e-05 -3.1666466e-05 -9.182268e-23)
(3.2364273e-05 -3.2269815e-05 4.7125546e-23)
(3.1179165e-05 -3.2844606e-05 1.615743e-22)
(3.0005785e-05 -3.3391731e-05 7.2214772e-23)
(2.8844146e-05 -3.3912258e-05 -1.1453587e-22)
(2.7694328e-05 -3.4407072e-05 -8.1051525e-23)
(2.6556212e-05 -3.4876967e-05 2.7878546e-23)
(2.5429541e-05 -3.5322752e-05 4.9247689e-23)
(2.4314152e-05 -3.5745073e-05 1.1359097e-22)
(2.3209942e-05 -3.6144718e-05 -1.3995227e-23)
(2.2116913e-05 -3.6522423e-05 2.5780407e-23)
(2.1034921e-05 -3.6878906e-05 1.0179861e-23)
(1.9963662e-05 -3.7214709e-05 5.5024169e-24)
(1.8902902e-05 -3.7530436e-05 1.3969738e-22)
(1.785254e-05 -3.7826765e-05 -5.9455885e-23)
(1.6812359e-05 -3.8104139e-05 3.8111432e-23)
(1.5782123e-05 -3.8363121e-05 1.083848e-23)
(1.4761561e-05 -3.8604148e-05 4.8229831e-23)
(1.3750448e-05 -3.8827838e-05 7.3906573e-23)
(1.2748608e-05 -3.9034465e-05 -1.7929703e-23)
(1.1755724e-05 -3.9224522e-05 1.8599977e-23)
(1.077149e-05 -3.9398357e-05 4.0883874e-23)
(9.7957501e-06 -3.9556313e-05 6.1377988e-23)
(8.8282807e-06 -3.9698755e-05 5.7788396e-23)
(7.8687982e-06 -3.9825985e-05 -3.2739933e-24)
(6.9170249e-06 -3.9938227e-05 6.8212055e-23)
(5.9726394e-06 -4.0035731e-05 -2.0160635e-24)
(5.0354412e-06 -4.0118835e-05 3.4659027e-23)
(4.1053213e-06 -4.0187626e-05 3.0783047e-23)
(3.1819228e-06 -4.0242368e-05 3.7792961e-23)
(2.2649021e-06 -4.028321e-05 3.7608659e-23)
(1.3539305e-06 -4.031035e-05 5.8915431e-23)
(4.491645e-07 -4.0324209e-05 6.0109988e-23)
(8.3553609e-05 5.3678468e-05 2.3782541e-22)
(8.3462495e-05 5.0243023e-05 -2.5981438e-22)
(8.325313e-05 4.6888823e-05 2.2191654e-22)
(8.2934886e-05 4.3617561e-05 1.5918084e-22)
(8.2515053e-05 4.043023e-05 1.869038e-22)
(8.2001583e-05 3.7327309e-05 -2.9586712e-22)
(8.1401849e-05 3.4309417e-05 -3.6198996e-22)
(8.0722673e-05 3.1376414e-05 -2.7823121e-22)
(7.9970568e-05 2.8527827e-05 1.9233393e-22)
(7.9151665e-05 2.5763199e-05 -1.0893597e-22)
(7.8271817e-05 2.3081827e-05 -2.8924522e-22)
(7.7336476e-05 2.0482968e-05 -3.9471851e-22)
(7.6350786e-05 1.7965642e-05 1.6417047e-22)
(7.5319587e-05 1.5528818e-05 5.961318e-23)
(7.4247378e-05 1.3171099e-05 -1.0070052e-22)
(7.3138329e-05 1.0890954e-05 -9.0920219e-23)
(7.1996397e-05 8.687046e-06 -3.1554028e-23)
(7.0824805e-05 6.557909e-06 3.0663865e-22)
(6.9627673e-05 4.5017863e-06 -1.3291328e-23)
(6.8408073e-05 2.51763e-06 1.8237994e-22)
(6.716907e-05 6.0398845e-07 -1.6197793e-22)
(6.5914504e-05 -1.2444222e-06 -1.4803247e-22)
(6.4645929e-05 -3.0253015e-06 1.5169595e-22)
(6.3365278e-05 -4.7414486e-06 7.3655505e-23)
(6.2075158e-05 -6.3947195e-06 -5.1205481e-25)
(6.077765e-05 -7.9867082e-06 -2.8593312e-23)
(5.9474604e-05 -9.5191851e-06 -1.8654477e-22)
(5.816781e-05 -1.0993937e-05 9.9489207e-23)
(5.6858884e-05 -1.2412638e-05 9.0214451e-23)
(5.5549366e-05 -1.3776874e-05 7.2005489e-23)
(5.4240612e-05 -1.508837e-05 2.8849477e-22)
(5.2933766e-05 -1.634872e-05 -8.8303121e-23)
(5.1629925e-05 -1.7559458e-05 -1.4866952e-22)
(5.0330127e-05 -1.8722115e-05 6.8626053e-23)
(4.9035443e-05 -1.9838322e-05 2.3950836e-23)
(4.7746767e-05 -2.0909417e-05 1.1073191e-22)
(4.6464656e-05 -2.1936894e-05 -1.1283193e-22)
(4.5189707e-05 -2.292219e-05 2.8369345e-23)
(4.3922597e-05 -2.3866663e-05 -1.0823122e-23)
(4.266395e-05 -2.4771698e-05 3.2906694e-23)
(4.1414298e-05 -2.5638773e-05 7.9427699e-23)
(4.0173974e-05 -2.6468853e-05 -1.549974e-23)
(3.8943249e-05 -2.7263116e-05 1.5054451e-22)
(3.7722419e-05 -2.8022898e-05 1.7070409e-23)
(3.6511786e-05 -2.8749202e-05 8.4992351e-23)
(3.5311595e-05 -2.9443254e-05 6.4284796e-23)
(3.4121997e-05 -3.0105976e-05 -1.2892007e-23)
(3.2943117e-05 -3.0738691e-05 -3.0701144e-23)
(3.177505e-05 -3.1342251e-05 -4.1838984e-23)
(3.0617813e-05 -3.1917497e-05 2.1725186e-22)
(2.9471366e-05 -3.2465374e-05 1.804294e-22)
(2.8335843e-05 -3.2986875e-05 3.2077096e-23)
(2.7211341e-05 -3.3482772e-05 8.0459968e-23)
(2.6097685e-05 -3.3953779e-05 2.8506728e-23)
(2.499469e-05 -3.4400749e-05 5.1149187e-23)
(2.3902243e-05 -3.4824364e-05 4.0169195e-23)
(2.282037e-05 -3.5225464e-05 -8.226779e-24)
(2.1749029e-05 -3.5604756e-05 5.2105319e-23)
(2.0688011e-05 -3.5962897e-05 4.0120445e-23)
(1.9637093e-05 -3.6300403e-05 5.1187812e-23)
(1.8596096e-05 -3.6617944e-05 9.3052493e-23)
(1.7564932e-05 -3.6916055e-05 2.2784399e-24)
(1.6543387e-05 -3.7195202e-05 1.3420838e-22)
(1.553125e-05 -3.7455857e-05 1.1243608e-22)
(1.4528374e-05 -3.7698472e-05 3.8232127e-23)
(1.3534567e-05 -3.7923685e-05 1.4517835e-23)
(1.2549544e-05 -3.8131789e-05 6.1544097e-24)
(1.1573028e-05 -3.8323239e-05 1.1723152e-22)
(1.0604897e-05 -3.8498384e-05 7.3473817e-23)
(9.6449122e-06 -3.8657595e-05 4.1497849e-23)
(8.6929021e-06 -3.8801153e-05 7.3488274e-23)
(7.7486055e-06 -3.8929357e-05 4.4760064e-23)
(6.8116951e-06 -3.904251e-05 6.3576173e-23)
(5.8819361e-06 -3.9140832e-05 1.0878432e-22)
(4.9591933e-06 -3.9224616e-05 -1.4441072e-25)
(4.0433138e-06 -3.9294039e-05 2.4261911e-23)
(3.1339439e-06 -3.9349248e-05 1.2379349e-22)
(2.2308353e-06 -3.9390474e-05 1.0429925e-22)
(1.3335162e-06 -3.9417922e-05 -1.2766113e-24)
(4.422578e-07 -3.9431842e-05 5.5077176e-23)
(8.0148674e-05 5.2652445e-05 9.2701464e-22)
(8.0134278e-05 4.935161e-05 4.9304373e-22)
(8.0003643e-05 4.6124517e-05 -4.4705686e-22)
(7.976482e-05 4.297327e-05 4.6847904e-22)
(7.9425846e-05 3.9899179e-05 6.294185e-22)
(7.8993714e-05 3.6902787e-05 -1.1408296e-22)
(7.8475501e-05 3.3984932e-05 3.0864513e-22)
(7.7877926e-05 3.1145816e-05 -1.0781799e-22)
(7.7207278e-05 2.8385371e-05 4.2644772e-22)
(7.6469402e-05 2.5703493e-05 1.6530049e-22)
(7.5669885e-05 2.3099688e-05 -1.3864943e-22)
(7.481401e-05 2.0573415e-05 4.7352988e-22)
(7.3906811e-05 1.8123833e-05 3.4066016e-22)
(7.2953005e-05 1.5750035e-05 1.2887826e-22)
(7.1956966e-05 1.3451019e-05 -8.5485831e-23)
(7.0922804e-05 1.1225492e-05 -6.7295155e-23)
(6.9854359e-05 9.0723988e-06 7.1283239e-22)
(6.8755133e-05 6.9901986e-06 3.2407914e-22)
(6.7628773e-05 4.9780378e-06 -4.1438202e-22)
(6.6478644e-05 3.0339931e-06 1.257886e-22)
(6.5306492e-05 1.1570316e-06 -9.5027225e-23)
(6.4116867e-05 -6.5570239e-07 7.4923252e-23)
(6.2912786e-05 -2.4040633e-06 3.4053756e-22)
(6.169481e-05 -4.0906181e-06 -1.6209212e-22)
(6.0465654e-05 -5.7167336e-06 4.8904382e-23)
(5.9227373e-05 -7.2838977e-06 -4.7373374e-23)
(5.7981886e-05 -8.7937763e-06 1.3242246e-22)
(5.6731e-05 -1.0247803e-05 6.4524101e-23)
(5.5476435e-05 -1.1647582e-05 -6.4819436e-23)
(5.4219715e-05 -1.2994584e-05 9.7768596e-23)
(5.2962169e-05 -1.4290454e-05 -8.4600196e-23)
(5.1704978e-05 -1.5536676e-05 5.3518858e-23)
(5.0449174e-05 -1.673465e-05 2.1340371e-22)
(4.9195995e-05 -1.7885977e-05 9.1775464e-23)
(4.7946557e-05 -1.8992043e-05 1.0534595e-22)
(4.6701631e-05 -2.0054098e-05 -3.8098874e-23)
(4.546189e-05 -2.1073573e-05 -6.538894e-24)
(4.4227934e-05 -2.2051785e-05 2.7734296e-22)
(4.3000527e-05 -2.2990063e-05 -5.0034536e-23)
(4.1780414e-05 -2.3889713e-05 1.3008931e-22)
(4.0568003e-05 -2.4752038e-05 1.3678827e-22)
(3.9363625e-05 -2.5578108e-05 -8.2951961e-23)
(3.816766e-05 -2.6369024e-05 1.419011e-22)
(3.6980506e-05 -2.7126049e-05 7.4486256e-23)
(3.5802481e-05 -2.7850167e-05 3.3623921e-23)
(3.4633783e-05 -2.8542495e-05 1.1413186e-23)
(3.3474693e-05 -2.9203971e-05 7.4032342e-23)
(3.2325404e-05 -2.9835662e-05 2.0137304e-22)
(3.1185934e-05 -3.0438591e-05 -4.3247318e-23)
(3.0056293e-05 -3.1013486e-05 6.7232313e-23)
(2.8936597e-05 -3.1561329e-05 6.0746159e-23)
(2.7827038e-05 -3.2083038e-05 -5.8327278e-23)
(2.6727653e-05 -3.2579409e-05 2.3209849e-22)
(2.5638259e-05 -3.3051057e-05 5.5942963e-23)
(2.4558728e-05 -3.3498829e-05 8.082501e-23)
(2.348911e-05 -3.3923486e-05 4.0843934e-23)
(2.2429476e-05 -3.4325748e-05 -1.0303387e-23)
(2.1379731e-05 -3.4706165e-05 1.197064e-22)
(2.033962e-05 -3.5065463e-05 4.3611324e-24)
(1.9308988e-05 -3.540418e-05 3.0131047e-23)
(1.8287747e-05 -3.5722924e-05 1.1392929e-22)
(1.7275788e-05 -3.6022232e-05 -3.229496e-23)
(1.6272902e-05 -3.6302571e-05 1.4865236e-22)
(1.5278898e-05 -3.65645e-05 1.0454622e-22)
(1.4293757e-05 -3.6808486e-05 5.8594519e-23)
(1.3317288e-05 -3.7034946e-05 7.0069729e-23)
(1.2349113e-05 -3.7244302e-05 -1.9603857e-23)
(1.1389136e-05 -3.7436954e-05 1.4059352e-22)
(1.043718e-05 -3.7613153e-05 2.9047636e-23)
(9.4930421e-06 -3.7773433e-05 -3.2991947e-24)
(8.5565716e-06 -3.7917938e-05 7.1514453e-23)
(7.6274846e-06 -3.8047046e-05 4.040682e-23)
(6.7055427e-06 -3.8160989e-05 6.7925009e-23)
(5.7905037e-06 -3.8259982e-05 8.9893575e-23)
(4.8823298e-06 -3.8344332e-05 1.1750781e-22)
(3.9807703e-06 -3.8414247e-05 7.0198587e-23)
(3.0855391e-06 -3.8469871e-05 -1.9713737e-24)
(2.1964119e-06 -3.8511436e-05 8.3798136e-23)
(1.3129388e-06 -3.8539075e-05 -1.4903567e-23)
(4.3546642e-07 -3.8553102e-05 -1.8878383e-23)
(7.6880201e-05 5.1596e-05 1.6114513e-22)
(7.6935152e-05 4.8426309e-05 9.2292167e-22)
(7.6876164e-05 4.5323424e-05 -2.3641044e-23)
(7.6710048e-05 4.2289486e-05 6.4816929e-23)
(7.6445243e-05 3.9326148e-05 1.2037178e-22)
(7.6088226e-05 3.6434387e-05 6.0455625e-22)
(7.5645654e-05 3.3615043e-05 5.703198e-22)
(7.5123903e-05 3.0868589e-05 -2.9548012e-22)
(7.4529052e-05 2.8195345e-05 -3.3267516e-22)
(7.3866786e-05 2.5595372e-05 1.2534039e-22)
(7.3142535e-05 2.3068419e-05 3.0907618e-22)
(7.2361402e-05 2.0614233e-05 2.4713921e-22)
(7.1528199e-05 1.8232169e-05 5.7972771e-23)
(7.0647502e-05 1.5921391e-05 2.9221991e-22)
(6.9723552e-05 1.368129e-05 -4.8510739e-23)
(6.8760357e-05 1.1510738e-05 1.0723767e-22)
(6.7761744e-05 9.4088977e-06 3.3132647e-22)
(6.6731221e-05 7.3745711e-06 -7.6101748e-23)
(6.5672173e-05 5.4066977e-06 1.0668421e-22)
(6.4587669e-05 3.503773e-06 3.6659207e-24)
(6.3479933e-05 1.6643713e-06 -6.0779407e-23)
(6.2353761e-05 -1.1196772e-07 4.8470255e-23)
(6.1211304e-05 -1.8278905e-06 6.3687807e-24)
(6.0053152e-05 -3.4842479e-06 -1.0049834e-22)
(5.8882489e-05 -5.0825008e-06 1.3251429e-22)
(5.7701208e-05 -6.6239694e-06 9.0720565e-23)
(5.6511239e-05 -8.1102474e-06 -6.8838986e-23)
(5.5314439e-05 -9.5425582e-06 5.9600029e-23)
(5.4112499e-05 -1.0922496e-05 1.1752423e-22)
(5.2906923e-05 -1.225139e-05 -9.4869263e-23)
(5.1699018e-05 -1.3530809e-05 -1.023355e-22)
(5.0489954e-05 -1.4761992e-05 2.7201998e-22)
(4.9280929e-05 -1.5946329e-05 1.867739e-22)
(4.8073229e-05 -1.7085347e-05 -7.5889808e-23)
(4.6867861e-05 -1.8180177e-05 -5.7144309e-23)
(4.566559e-05 -1.9232248e-05 -5.3606895e-23)
(4.4467116e-05 -2.0242825e-05 2.2413252e-22)
(4.3273226e-05 -2.1213075e-05 2.8157309e-22)
(4.2084768e-05 -2.2144304e-05 -9.8497037e-23)
(4.0902358e-05 -2.303781e-05 -2.4372723e-22)
(3.9726411e-05 -2.3894557e-05 6.1073988e-23)
(3.8557295e-05 -2.4715862e-05 2.9910345e-22)
(3.7395492e-05 -2.5502614e-05 5.1037937e-23)
(3.6241513e-05 -2.6256105e-05 -2.9704941e-23)
(3.5095594e-05 -2.697721e-05 -6.7837239e-23)
(3.3957933e-05 -2.766698e-05 -2.2923668e-23)
(3.2828901e-05 -2.8326525e-05 1.4364144e-22)
(3.1708741e-05 -2.8956624e-05 1.2478669e-22)
(3.059746e-05 -2.9558235e-05 8.8465058e-24)
(2.9495131e-05 -3.013225e-05 -2.7243699e-23)
(2.8401977e-05 -3.0679465e-05 -4.5859617e-23)
(2.7318182e-05 -3.1200788e-05 2.3039038e-23)
(2.6243688e-05 -3.1696991e-05 1.1733878e-22)
(2.5178373e-05 -3.2168692e-05 1.6002065e-23)
(2.4122282e-05 -3.2616745e-05 -3.569481e-23)
(2.3075461e-05 -3.3041897e-05 8.7084626e-23)
(2.2037909e-05 -3.3444749e-05 8.8235988e-23)
(2.1009477e-05 -3.3825856e-05 8.8402325e-23)
(1.9990081e-05 -3.4185906e-05 -4.9094492e-23)
(1.8979702e-05 -3.4525476e-05 -2.9717016e-23)
(1.7978165e-05 -3.4845099e-05 7.7661415e-23)
(1.698534e-05 -3.5145263e-05 -1.9653126e-23)
(1.6001105e-05 -3.5426546e-05 5.9509417e-23)
(1.5025364e-05 -3.5689476e-05 4.6654472e-23)
(1.4058053e-05 -3.5934495e-05 -1.4426482e-23)
(1.309891e-05 -3.6161924e-05 8.6084699e-23)
(1.2147691e-05 -3.6372199e-05 -3.1715833e-24)
(1.1204227e-05 -3.6565749e-05 8.6628048e-23)
(1.0268461e-05 -3.6742825e-05 8.8518948e-23)
(9.3403015e-06 -3.690388e-05 2.0749326e-24)
(8.419423e-06 -3.7049179e-05 7.8471007e-23)
(7.5056258e-06 -3.7179007e-05 5.0159461e-23)
(6.5986719e-06 -3.7293571e-05 8.2947565e-23)
(5.6985198e-06 -3.7393157e-05 3.494311e-23)
(4.8049868e-06 -3.7477998e-05 8.2069569e-23)
(3.9177738e-06 -3.754833e-05 8.3925676e-23)
(3.0367689e-06 -3.7604319e-05 3.3305548e-23)
(2.1616857e-06 -3.7646122e-05 2.6505496e-23)
(1.2921854e-06 -3.7673957e-05 1.1991676e-23)
(4.286476e-07 -3.7688051e-05 -1.5337247e-24)
(7.3744505e-05 5.0514844e-05 -1.6801319e-22)
(7.3861838e-05 4.7472545e-05 6.4405754e-22)
(7.3867681e-05 4.4490655e-05 -1.2643503e-22)
(7.3768341e-05 4.1571205e-05 -9.9967748e-22)
(7.3571371e-05 3.8716143e-05 -2.2408497e-22)
(7.3283354e-05 3.5926914e-05 3.9459909e-22)
(7.2910563e-05 3.3204311e-05 1.3766168e-22)
(7.2459144e-05 3.0549148e-05 6.5486521e-24)
(7.193489e-05 2.7961984e-05 -6.9972707e-22)
(7.1343238e-05 2.5442919e-05 4.6821448e-23)
(7.068942e-05 2.2992117e-05 2.962219e-22)
(6.9978356e-05 2.060939e-05 2.9546582e-22)
(6.9214706e-05 1.8294329e-05 -1.6876388e-22)
(6.8402879e-05 1.6046452e-05 -5.1713436e-22)
(6.754703e-05 1.3865207e-05 -5.2773661e-24)
(6.6651104e-05 1.1749786e-05 3.1555221e-22)
(6.5718819e-05 9.6994222e-06 2.1099858e-22)
(6.4753593e-05 7.7131334e-06 -4.107595e-22)
(6.3758491e-05 5.7900586e-06 -3.1084829e-22)
(6.2736722e-05 3.9286284e-06 5.0136906e-23)
(6.1691191e-05 2.1281715e-06 2.9141164e-22)
(6.0625015e-05 3.8820052e-07 1.4411784e-22)
(5.9540988e-05 -1.2948405e-06 -1.7552158e-22)
(5.844079e-05 -2.9203523e-06 -1.1831351e-22)
(5.732643e-05 -4.4899762e-06 4.6265705e-23)
(5.6200074e-05 -6.0049702e-06 3.2438604e-22)
(5.5063703e-05 -7.4668181e-06 6.5694612e-23)
(5.3919149e-05 -8.8766384e-06 -5.4172385e-23)
(5.2768053e-05 -1.0235908e-05 -6.701375e-23)
(5.161187e-05 -1.1545898e-05 -1.9738185e-23)
(5.0451967e-05 -1.2807983e-05 2.8041321e-22)
(4.9289625e-05 -1.4023284e-05 1.5650085e-22)
(4.8126131e-05 -1.5193141e-05 5.9256385e-23)
(4.6962638e-05 -1.6318921e-05 1.0938285e-23)
(4.5800132e-05 -1.7401823e-05 6.6770109e-23)
(4.4639412e-05 -1.844302e-05 9.0178743e-23)
(4.3481236e-05 -1.944384e-05 1.595865e-22)
(4.232656e-05 -2.0405334e-05 5.2262243e-23)
(4.1176173e-05 -2.1328688e-05 3.2401407e-23)
(4.0030577e-05 -2.2215147e-05 -5.0272411e-23)
(3.8890254e-05 -2.306567e-05 3.4545342e-23)
(3.7755759e-05 -2.3881388e-05 2.0918784e-22)
(3.6627607e-05 -2.4663288e-05 1.8998146e-23)
(3.5506181e-05 -2.5412479e-05 8.1365819e-23)
(3.4391769e-05 -2.6129875e-05 6.3933858e-23)
(3.3284718e-05 -2.6816412e-05 1.3275852e-22)
(3.2185367e-05 -2.7473296e-05 2.1913503e-22)
(3.1093904e-05 -2.8101195e-05 -2.5245223e-23)
(3.0010431e-05 -2.8700887e-05 3.8686568e-23)
(2.8935118e-05 -2.9273401e-05 1.2701068e-22)
(2.7868206e-05 -2.9819401e-05 1.1760574e-22)
(2.6809794e-05 -3.0339796e-05 2.0450291e-23)
(2.5759892e-05 -3.0835294e-05 -5.8435024e-24)
(2.4718507e-05 -3.1306613e-05 9.7386567e-23)
(2.3685646e-05 -3.1754427e-05 1.6414099e-23)
(2.2661428e-05 -3.2179509e-05 1.6810355e-22)
(2.1645818e-05 -3.2582421e-05 1.2449471e-22)
(2.0638686e-05 -3.2963794e-05 7.5552418e-23)
(1.9639999e-05 -3.3324177e-05 2.6721031e-23)
(1.8649756e-05 -3.3664226e-05 4.150941e-23)
(1.7667886e-05 -3.3984373e-05 1.7746024e-22)
(1.6694203e-05 -3.4285129e-05 1.2394031e-23)
(1.5728619e-05 -3.4567083e-05 -3.0225112e-23)
(1.4771117e-05 -3.4830704e-05 9.5112412e-23)
(1.3821548e-05 -3.5076425e-05 9.9915324e-23)
(1.2879672e-05 -3.5304527e-05 1.3757787e-22)
(1.1945367e-05 -3.5515504e-05 2.6393298e-23)
(1.1018534e-05 -3.5709664e-05 -8.0151987e-25)
(1.0099092e-05 -3.5887451e-05 1.1664176e-22)
(9.1868328e-06 -3.6049067e-05 1.0658738e-22)
(8.2815853e-06 -3.6194993e-05 1.3946523e-22)
(7.3831181e-06 -3.6325345e-05 1.1256676e-22)
(6.491303e-06 -3.6440383e-05 1.9723653e-23)
(5.6060974e-06 -3.6540473e-05 1.0768058e-22)
(4.7271856e-06 -3.6625697e-05 4.5787812e-23)
(3.8544717e-06 -3.6696403e-05 2.1823256e-23)
(2.9877555e-06 -3.6752667e-05 9.2055443e-23)
(2.1268493e-06 -3.6794666e-05 9.0986734e-23)
(1.271429e-06 -3.6822621e-05 7.4077251e-23)
(4.2177328e-07 -3.6836809e-05 -1.3509007e-25)
(7.0737722e-05 4.9413942e-05 -8.2392042e-23)
(7.0911073e-05 4.649522e-05 -1.495515e-21)
(7.097544e-05 4.3630859e-05 1.4535835e-22)
(7.0936985e-05 4.0823094e-05 4.0254861e-22)
(7.0801837e-05 3.8073882e-05 2.6331327e-22)
(7.0577117e-05 3.5384909e-05 1.5505269e-22)
(7.0268685e-05 3.275717e-05 -1.3980647e-21)
(6.9882329e-05 3.0191723e-05 -1.7750554e-22)
(6.9423618e-05 2.7689225e-05 2.3934238e-22)
(6.8897745e-05 2.5250053e-05 1.9148958e-22)
(6.8309721e-05 2.2874495e-05 1.1548545e-22)
(6.7664298e-05 2.0562536e-05 -1.0819253e-21)
(6.696596e-05 1.831399e-05 -4.3015563e-22)
(6.6218979e-05 1.6128639e-05 8.3070264e-23)
(6.5427449e-05 1.4006076e-05 5.5544158e-22)
(6.4595198e-05 1.1945658e-05 2.8521173e-23)
(6.3725746e-05 9.9467785e-06 -1.1179602e-21)
(6.2822402e-05 8.008625e-06 -2.6551044e-22)
(6.1888156e-05 6.130326e-06 1.0919432e-22)
(6.0926278e-05 4.3108972e-06 2.4670802e-22)
(5.9940013e-05 2.5498503e-06 1.02643e-22)
(5.8931388e-05 8.4571067e-07 -7.6038439e-22)
(5.7903404e-05 -8.0309843e-07 -2.3111267e-22)
(5.6858567e-05 -2.3968856e-06 3.3057135e-22)
(5.5798269e-05 -3.9372413e-06 1.561633e-23)
(5.4724771e-05 -5.4250943e-06 -8.5094074e-24)
(5.3640031e-05 -6.8617873e-06 -6.0683396e-22)
(5.2545789e-05 -8.2484369e-06 -1.3225166e-22)
(5.1443703e-05 -9.5863101e-06 1.4106872e-22)
(5.0335279e-05 -1.0876669e-05 -2.9271869e-23)
(4.9221886e-05 -1.2120589e-05 7.6926899e-23)
(4.8104884e-05 -1.331924e-05 -4.9765153e-22)
(4.6985531e-05 -1.4473835e-05 -2.7280425e-22)
(4.5864976e-05 -1.5585636e-05 2.4486906e-22)
(4.474415e-05 -1.6655911e-05 -6.8107387e-24)
(4.3623882e-05 -1.7685473e-05 -1.4988872e-22)
(4.2505096e-05 -1.8675736e-05 -3.8368865e-22)
(4.1388701e-05 -1.9627707e-05 -9.347352e-23)
(4.0275415e-05 -2.0542444e-05 1.066243e-22)
(3.9165799e-05 -2.1421075e-05 -9.8695427e-23)
(3.8060409e-05 -2.2264636e-05 6.7067237e-23)
(3.6959839e-05 -2.3074085e-05 -3.4524637e-22)
(3.5864606e-05 -2.3850354e-05 -1.5856808e-22)
(3.4775083e-05 -2.459466e-05 1.460658e-22)
(3.3691644e-05 -2.5307728e-05 -5.8832964e-23)
(3.2614711e-05 -2.5990488e-05 -3.5424606e-23)
(3.1544596e-05 -2.6644053e-05 -1.7934019e-22)
(3.048143e-05 -2.7269029e-05 -1.1515253e-22)
(2.9425407e-05 -2.7866264e-05 8.7869677e-23)
(2.8376764e-05 -2.843659e-05 -7.4089741e-24)
(2.7335737e-05 -2.8980845e-05 6.0476213e-23)
(2.6302457e-05 -2.9499826e-05 -1.5716456e-22)
(2.5276931e-05 -2.9994152e-05 -1.4105685e-22)
(2.4259251e-05 -3.0464562e-05 4.7972882e-23)
(2.3249459e-05 -3.0911696e-05 -4.354615e-23)
(2.2247626e-05 -3.1336255e-05 1.3247407e-23)
(2.1253765e-05 -3.173886e-05 -1.5000241e-22)
(2.0267797e-05 -3.2120027e-05 -7.3401922e-23)
(1.9289781e-05 -3.2480381e-05 3.050001e-23)
(1.8319645e-05 -3.282047e-05 -5.6897283e-23)
(1.735727e-05 -3.3140794e-05 6.1722583e-23)
(1.6402645e-05 -3.3441845e-05 -1.4898636e-22)
(1.5455704e-05 -3.372411e-05 -5.6778906e-23)
(1.451634e-05 -3.398814e-05 1.5859825e-23)
(1.3584423e-05 -3.4234214e-05 -1.4426438e-23)
(1.2659867e-05 -3.4462744e-05 2.3149724e-23)
(1.1742529e-05 -3.4674185e-05 -6.5610605e-23)
(1.083233e-05 -3.4868765e-05 -4.0900646e-23)
(9.9291614e-06 -3.5047018e-05 2.2783537e-23)
(9.0328312e-06 -3.5209084e-05 -2.4291469e-23)
(8.1432382e-06 -3.5355422e-05 5.0686604e-25)
(7.2601889e-06 -3.5486137e-05 -1.3811569e-23)
(6.3835822e-06 -3.5601568e-05 -4.9746355e-23)
(5.5132704e-06 -3.5701995e-05 -2.8875553e-23)
(4.6490848e-06 -3.5787553e-05 -2.1652438e-23)
(3.7909018e-06 -3.5858511e-05 -7.4438816e-24)
(2.9385505e-06 -3.5914996e-05 8.6857438e-24)
(2.0919419e-06 -3.5957135e-05 -6.1889427e-24)
(1.250605e-06 -3.5985102e-05 5.2057465e-23)
(4.1481811e-07 -3.5999396e-05 2.2066829e-23)
(6.7855994e-05 4.8297656e-05 1.0979846e-21)
(6.8079501e-05 4.5498837e-05 -2.7582859e-23)
(6.8196261e-05 4.2748579e-05 6.3883241e-22)
(6.8212846e-05 4.0049671e-05 -2.6915988e-22)
(6.8134122e-05 3.7403784e-05 -6.746603e-22)
(6.796735e-05 3.4812691e-05 -2.8099664e-22)
(6.771814e-05 3.2277872e-05 -5.5019677e-23)
(6.7391868e-05 2.9800389e-05 2.7920734e-22)
(6.6993899e-05 2.7381039e-05 -1.8668999e-22)