/*--------------------------------*- C++ -*----------------------------------*\
| =========                 |                                                 |
| \\      /  F ield         | OpenFOAM: The Open Source CFD Toolbox           |
|  \\    /   O peration     | Version:  2106                                  |
|   \\  /    A nd           | Website:  www.openfoam.com                      |
|    \\/     M anipulation  |                                                 |
\*---------------------------------------------------------------------------*/
FoamFile
{
    version     2.0;
    format      ascii;
    arch        "LSB;label=32;scalar=64";
    class       surfaceScalarField;
    location    "0.007";
    object      phi_0;
}
// * * * * * * * * * * * * * * * * * * * * * * * * * * * * * * * * * * * * * //

dimensions      [0 3 -1 0 0 0 0];

oriented        oriented;

internalField   nonuniform List<scalar> 
8064
(
9.9517689e-05
-9.9517689e-05
0.00019800599
-9.8488303e-05
0.00029444941
-9.6443422e-05
0.00038785974
-9.3410328e-05
0.00047728862
-8.9428883e-05
0.00056183871
-8.4550091e-05
0.00064067333
-7.8834616e-05
0.00071302468
-7.2351345e-05
0.0007782002
-6.5175526e-05
0.00083558803
-5.7387825e-05
0.00088466031
-4.9072286e-05
0.00092497667
-4.031636e-05
0.00095618644
-3.1209765e-05
0.00097803034
-2.18439e-05
0.00099034228
-1.2311938e-05
0.00099305004
-2.7077678e-06
0.00098617585
6.8741901e-06
0.00096983606
1.6339798e-05
0.00094423937
2.5596685e-05
0.00090968423
3.4555141e-05
0.00086655453
4.31297e-05
0.00081531393
5.1240602e-05
0.0007564985
5.8815431e-05
0.00069070913
6.5789373e-05
0.00061860251
7.2106618e-05
0.0005408827
7.7719806e-05
0.00045829191
8.2590789e-05
0.00037160289
8.6689021e-05
0.00028161124
8.9991655e-05
0.00018912965
9.2481592e-05
9.498215e-05
9.4147495e-05
1.9987516e-14
9.498215e-05
-9.498215e-05
9.498215e-05
-0.00018912965
9.4147495e-05
-0.00028161124
9.2481592e-05
-0.00037160289
8.9991655e-05
-0.00045829191
8.6689021e-05
-0.0005408827
8.2590789e-05
-0.00061860251
7.7719806e-05
-0.00069070913
7.2106618e-05
-0.0007564985
6.5789373e-05
-0.00081531393
5.8815431e-05
-0.00086655453
5.1240602e-05
-0.00090968423
4.31297e-05
-0.00094423937
3.4555141e-05
-0.00096983606
2.5596685e-05
-0.00098617585
1.6339798e-05
-0.00099305004
6.8741901e-06
-0.00099034228
-2.7077678e-06
-0.00097803034
-1.2311938e-05
-0.00095618644
-2.18439e-05
-0.00092497667
-3.1209765e-05
-0.00088466031
-4.031636e-05
-0.00083558803
-4.9072286e-05
-0.0007782002
-5.7387825e-05
-0.00071302468
-6.5175526e-05
-0.00064067333
-7.2351345e-05
-0.00056183871
-7.8834616e-05
-0.00047728862
-8.4550091e-05
-0.00038785974
-8.9428883e-05
-0.00029444941
-9.3410328e-05
-0.00019800599
-9.6443422e-05
-9.9517689e-05
-9.8488303e-05
-9.9517689e-05
0.00010034767
-0.00019986536
0.00019965308
-0.00019779371
0.0002968885
-0.00019367884
0.00039105455
-0.00018757638
0.00048119285
-0.00017956718
0.00056639789
-0.00016975513
0.00064582653
-0.00015826326
0.00071870614
-0.00014523095
0.00078434072
-0.00013081011
0.00084211613
-0.00011516323
0.00089150323
-9.845939e-05
0.00093206083
-8.0873959e-05
0.00096343768
-6.2586613e-05
0.00098537433
-4.3780551e-05
0.00099770466
-2.4642267e-05
0.0010003571
-5.3601755e-06
0.00099335456
1.3876691e-05
0.00097681583
3.2878535e-05
0.00095095312
5.1459393e-05
0.0009160692
6.943906e-05
0.00087255382
8.6645084e-05
0.00082087772
0.0001029167
0.00076158441
0.00011810874
0.00069528286
0.00013209092
0.00062263806
0.00014475142
0.00054436076
0.00015599711
0.00046120002
0.00016575152
0.00037393327
0.00017395577
0.00028336031
0.00018056462
0.00019029586
0.00018554604
9.5565212e-05
0.00018887814
1.9357467e-14
0.00019054736
-9.5565212e-05
0.00019054736
-0.00019029586
0.00018887814
-0.00028336031
0.00018554604
-0.00037393327
0.00018056462
-0.00046120002
0.00017395577
-0.00054436076
0.00016575152
-0.00062263806
0.00015599711
-0.00069528286
0.00014475142
-0.00076158441
0.00013209092
-0.00082087772
0.00011810874
-0.00087255382
0.0001029167
-0.0009160692
8.6645084e-05
-0.00095095312
6.943906e-05
-0.00097681583
5.1459393e-05
-0.00099335456
3.2878535e-05
-0.0010003571
1.3876691e-05
-0.00099770466
-5.3601755e-06
-0.00098537433
-2.4642267e-05
-0.00096343768
-4.3780551e-05
-0.00093206083
-6.2586613e-05
-0.00089150323
-8.0873959e-05
-0.00084211613
-9.845939e-05
-0.00078434072
-0.00011516323
-0.00071870614
-0.00013081011
-0.00064582653
-0.00014523095
-0.00056639789
-0.00015826326
-0.00048119285
-0.00016975513
-0.00039105455
-0.00017956718
-0.0002968885
-0.00018757638
-0.00019965308
-0.00019367884
-0.00010034767
-0.00019779371
-0.00019986536
0.00010180683
-0.00030167219
0.00020254923
-0.00029853611
0.00030117809
-0.00029230771
0.00039667444
-0.00028307272
0.0004880631
-0.00027095584
0.00057442398
-0.00025611601
0.00065490284
-0.00023874213
0.00072871843
-0.00021904654
0.00079516912
-0.0001972608
0.00085363643
-0.00017363054
0.00090358863
-0.00014841159
0.00094458285
-0.00012186818
0.00097626648
-9.427024e-05
0.00099837911
-6.5893186e-05
0.0010107542
-3.7017339e-05
0.0010133202
-7.9262271e-06
0.001006102
2.1094914e-05
0.0009892213
4.9759249e-05
0.00096289584
7.778485e-05
0.00092743644
0.00010489847
0.00088324277
0.00013083875
0.00083079757
0.0001553619
0.00077065873
0.00017824759
0.00070344907
0.00019930057
0.00062984713
0.00021835336
0.00055057778
0.00023526645
0.00046640056
0.00024992875
0.00037810285
0.00026225348
0.00028649067
0.00027217679
0.00019238345
0.00027965326
9.660909e-05
0.0002846525
1.9736788e-14
0.00028715645
-9.660909e-05
0.00028715645
-0.00019238345
0.0002846525
-0.00028649067
0.00027965326
-0.00037810285
0.00027217679
-0.00046640056
0.00026225348
-0.00055057778
0.00024992875
-0.00062984713
0.00023526645
-0.00070344907
0.00021835336
-0.00077065873
0.00019930057
-0.00083079757
0.00017824759
-0.00088324277
0.0001553619
-0.00092743644
0.00013083875
-0.00096289584
0.00010489847
-0.0009892213
7.778485e-05
-0.001006102
4.9759249e-05
-0.0010133202
2.1094914e-05
-0.0010107542
-7.9262271e-06
-0.00099837911
-3.7017339e-05
-0.00097626648
-6.5893186e-05
-0.00094458285
-9.427024e-05
-0.00090358863
-0.00012186818
-0.00085363643
-0.00014841159
-0.00079516912
-0.00017363054
-0.00072871843
-0.0001972608
-0.00065490284
-0.00021904654
-0.00057442398
-0.00023874213
-0.0004880631
-0.00025611601
-0.00039667444
-0.00027095584
-0.00030117809
-0.00028307272
-0.00020254923
-0.00029230771
-0.00010180683
-0.00029853611
-0.00030167219
0.00010416395
-0.00040583614
0.0002072288
-0.00040160096
0.00030811223
-0.00039319115
0.00040576465
-0.00038072514
0.00049918384
-0.00036437503
0.00058742751
-0.00034435968
0.00066962322
-0.00032093784
0.00074497624
-0.00029439955
0.00081277456
-0.00026505913
0.00087239293
-0.00023324891
0.0009232946
-0.00019931325
0.00096503277
-0.00016360635
0.00099725148
-0.00012648895
0.0010196877
-8.832937e-05
0.0010321726
-4.9502244e-05
0.0010346342
-1.038786e-05
0.0010270984
2.8630754e-05
0.001009691
6.7166569e-05
0.00098263743
0.00010483847
0.00094626036
0.00014127553
0.00090097593
0.00017612318
0.0008472855
0.00020905233
0.00078576821
0.00023976488
0.00071707028
0.0002679985
0.00064189345
0.0002935302
0.00056098294
0.00031617696
0.00047511801
0.00033579368
0.00038510102
0.00035227047
0.0002917505
0.00036552732
0.00019589418
0.00037550958
9.8365435e-05
0.00038218125
2.0034646e-14
0.00038552189
-9.8365434e-05
0.00038552189
-0.00019589418
0.00038218125
-0.0002917505
0.00037550958
-0.00038510102
0.00036552732
-0.00047511801
0.00035227047
-0.00056098294
0.00033579368
-0.00064189345
0.00031617696
-0.00071707028
0.0002935302
-0.00078576821
0.0002679985
-0.0008472855
0.00023976488
-0.00090097593
0.00020905233
-0.00094626036
0.00017612318
-0.00098263743
0.00014127553
-0.001009691
0.00010483847
-0.0010270984
6.7166569e-05
-0.0010346342
2.8630754e-05
-0.0010321726
-1.038786e-05
-0.0010196877
-4.9502244e-05
-0.00099725148
-8.832937e-05
-0.00096503277
-0.00012648895
-0.0009232946
-0.00016360635
-0.00087239293
-0.00019931325
-0.00081277456
-0.00023324891
-0.00074497624
-0.00026505913
-0.00066962322
-0.00029439955
-0.00058742751
-0.00032093784
-0.00049918384
-0.00034435968
-0.00040576465
-0.00036437503
-0.00030811223
-0.00038072514
-0.0002072288
-0.00039319115
-0.00010416395
-0.00040160096
-0.00040583614
0.00010767235
-0.00051350849
0.00021419536
-0.00050812396
0.00031843846
-0.00049743425
0.00041930797
-0.00048159465
0.00051576249
-0.00046082955
0.00060682718
-0.00043542437
0.00069160295
-0.00040571361
0.00076927474
-0.00037207135
0.00083911592
-0.0003349003
0.00090048981
-0.0002946228
0.00095285126
-0.00025167471
0.0009957464
-0.0002065015
0.0010288134
-0.00015955592
0.0010517831
-0.00011129914
0.0010644818
-6.220089e-05
0.0010668341
-1.2740144e-05
0.0010588657
3.6599111e-05
0.0010407075
8.5324821e-05
0.001012595
0.00013295095
0.00097486775
0.00017900275
0.00092796379
0.00022302714
0.0008724132
0.00026460293
0.00080882723
0.00030335085
0.00073788598
0.00033893975
0.0006603253
0.00037109088
0.0005769231
0.00039957916
0.00048848685
0.00042422992
0.00039584372
0.00044491361
0.00029983092
0.00046154011
0.00020129086
0.00047404964
0.00010106631
0.0004824058
2.1666307e-14
0.0004865882
-0.00010106631
0.0004865882
-0.00020129086
0.0004824058
-0.00029983092
0.00047404964
-0.00039584372
0.00046154011
-0.00048848685
0.00044491361
-0.0005769231
0.00042422992
-0.0006603253
0.00039957916
-0.00073788598
0.00037109088
-0.00080882723
0.00033893975
-0.0008724132
0.00030335085
-0.00092796379
0.00026460293
-0.00097486775
0.00022302714
-0.001012595
0.00017900275
-0.0010407075
0.00013295095
-0.0010588657
8.5324821e-05
-0.0010668341
3.659911e-05
-0.0010644818
-1.2740144e-05
-0.0010517831
-6.220089e-05
-0.0010288134
-0.00011129914
-0.0009957464
-0.00015955592
-0.00095285126
-0.0002065015
-0.00090048981
-0.00025167471
-0.00083911592
-0.0002946228
-0.00076927474
-0.0003349003
-0.00069160295
-0.00037207135
-0.00060682718
-0.00040571361
-0.00051576249
-0.00043542437
-0.00041930797
-0.00046082955
-0.00031843846
-0.00048159465
-0.00021419536
-0.00049743425
-0.00010767235
-0.00050812396
-0.00051350849
0.00011258714
-0.00062609563
0.00022395599
-0.00061949282
0.00033290985
-0.00060638811
0.00043829406
-0.00058697885
0.00053901407
-0.00056154957
0.00063404951
-0.00053045981
0.00072246543
-0.00049412952
0.00080341898
-0.00045302491
0.00087616222
-0.00040764354
0.00094004295
-0.00035850353
0.00099450327
-0.00030613503
0.0010390784
-0.00025107659
0.0010733954
-0.00019387297
0.0010971748
-0.00013507855
0.0011102332
-7.5259256e-05
0.0011124879
-1.4994882e-05
0.0011039625
4.5124548e-05
0.0010847913
0.00010449605
0.0010552223
0.0001625199
0.0010156171
0.00021860797
0.00096644543
0.00027219881
0.00090827674
0.00032277161
0.00084176765
0.00036985994
0.00076764682
0.00041306058
0.00068669854
0.00045203915
0.00059974706
0.00048653065
0.0005076417
0.00051633528
0.00041124417
0.00054131113
0.00031142027
0.00056136402
0.00020903331
0.0005764366
0.00010494203
0.00058649707
2.359361e-14
0.00059153023
-0.00010494203
0.00059153023
-0.00020903331
0.00058649707
-0.00031142027
0.0005764366
-0.00041124417
0.00056136402
-0.0005076417
0.00054131113
-0.00059974706
0.00051633528
-0.00068669854
0.00048653065
-0.00076764682
0.00045203915
-0.00084176765
0.00041306058
-0.00090827674
0.00036985994
-0.00096644543
0.00032277161
-0.0010156171
0.00027219881
-0.0010552223
0.00021860797
-0.0010847913
0.0001625199
-0.0011039625
0.00010449605
-0.0011124879
4.5124548e-05
-0.0011102332
-1.4994882e-05
-0.0010971748
-7.5259256e-05
-0.0010733954
-0.00013507855
-0.0010390784
-0.00019387297
-0.00099450327
-0.00025107659
-0.00094004295
-0.00030613503
-0.00087616222
-0.00035850353
-0.00080341898
-0.00040764354
-0.00072246543
-0.00045302491
-0.00063404951
-0.00049412952
-0.00053901407
-0.00053045981
-0.00043829406
-0.00056154957
-0.00033290985
-0.00058697885
-0.00022395599
-0.00060638811
-0.00011258714
-0.00061949282
-0.00062609563
0.00011919469
-0.00074529032
0.0002370798
-0.00073737793
0.00035237079
-0.00072167911
0.00046383273
-0.00069844078
0.00057030034
-0.00066801718
0.0006706943
-0.00063085377
0.00076403217
-0.00058746739
0.00084943428
-0.00053842701
0.00092612531
-0.00048433458
0.00099343189
-0.0004258101
0.0010507789
-0.000363482
0.0010976845
-0.00029798223
0.0011337596
-0.00022994807
0.0011587068
-0.00016002576
0.0011723257
-8.8878102e-05
0.0011745197
-1.71889e-05
0.0011653042
5.4340003e-05
0.0011448163
0.00012498402
0.0011133185
0.0001940177
0.0010712007
0.00026072571
0.0010189751
0.00032442445
0.00095726473
0.00038448196
0.00088678862
0.00044033605
0.00080834254
0.00049150667
0.00072277819
0.0005376035
0.00063098361
0.00057832522
0.00053386548
0.00061345341
0.00043233428
0.00064284234
0.00032729478
0.00066640351
0.00021964059
0.00068409079
0.0001102524
0.00069588526
2.5029158e-14
0.00070178264
-0.0001102524
0.00070178264
-0.00021964059
0.00069588526
-0.00032729478
0.00068409079
-0.00043233428
0.00066640351
-0.00053386548
0.00064284234
-0.00063098361
0.00061345341
-0.00072277819
0.00057832522
-0.00080834254
0.0005376035
-0.00088678862
0.00049150667
-0.00095726473
0.00044033605
-0.0010189751
0.00038448196
-0.0010712007
0.00032442445
-0.0011133185
0.00026072571
-0.0011448163
0.0001940177
-0.0011653042
0.00012498402
-0.0011745197
5.4340003e-05
-0.0011723257
-1.71889e-05
-0.0011587068
-8.8878102e-05
-0.0011337596
-0.00016002576
-0.0010976845
-0.00022994807
-0.0010507789
-0.00029798223
-0.00099343189
-0.000363482
-0.00092612531
-0.0004258101
-0.00084943428
-0.00048433458
-0.00076403217
-0.00053842701
-0.0006706943
-0.00058746739
-0.00057030034
-0.00063085377
-0.00046383273
-0.00066801718
-0.00035237079
-0.00069844078
-0.0002370798
-0.00072167911
-0.00011919469
-0.00073737793
-0.00074529032
0.00012785006
-0.00087314038
0.00025427212
-0.00086379998
0.00037786854
-0.00084527553
0.00049730068
-0.00081787292
0.0006113123
-0.0007820288
0.00071874852
-0.00073829
0.00081856666
-0.00068728552
0.00090984088
-0.00062970124
0.00099176137
-0.00056625506
0.0010636274
-0.00049767616
0.0011248402
-0.00042469477
0.0011748951
-0.00034803711
0.0012133767
-0.00026842973
0.0012399603
-0.00018660937
0.0012544171
-0.00010333482
0.0012566255
-1.9397348e-05
0.0012465851
6.4380393e-05
0.0012244306
0.00014713858
0.0011904405
0.00022800771
0.0011450411
0.0003061252
0.0010887999
0.0003806656
0.001022413
0.00045086889
0.00094668458
0.00051606445
0.00086250119
0.00057569005
0.00077080584
0.00062929886
0.00067257309
0.00067655797
0.00056878674
0.00071723975
0.00046042304
0.00075120605
0.0003484397
0.00077838684
0.00023377067
0.00079875982
0.0001173266
0.00081232934
2.6152359e-14
0.00081910924
-0.0001173266
0.00081910924
-0.00023377067
0.00081232934
-0.0003484397
0.00079875982
-0.00046042304
0.00077838684
-0.00056878674
0.00075120605
-0.00067257309
0.00071723975
-0.00077080584
0.00067655797
-0.00086250119
0.00062929886
-0.00094668458
0.00057569005
-0.001022413
0.00051606445
-0.0010887999
0.00045086889
-0.0011450411
0.0003806656
-0.0011904405
0.0003061252
-0.0012244306
0.00022800771
-0.0012465851
0.00014713858
-0.0012566255
6.4380393e-05
-0.0012544171
-1.9397348e-05
-0.0012399603
-0.00010333482
-0.0012133767
-0.00018660937
-0.0011748951
-0.00026842973
-0.0011248402
-0.00034803711
-0.0010636274
-0.00042469477
-0.00099176137
-0.00049767616
-0.00090984088
-0.00056625506
-0.00081856666
-0.00062970124
-0.00071874852
-0.00068728552
-0.0006113123
-0.00073829
-0.00049730068
-0.0007820288
-0.00037786854
-0.00081787292
-0.00025427212
-0.00084527553
-0.00012785006
-0.00086379998
-0.00087314038
0.00013902424
-0.0010121646
0.0002764693
-0.001001245
0.00041079393
-0.00097960016
0.00054052697
-0.00094760597
0.00066429809
-0.00090579991
0.00078085675
-0.00085484866
0.00088908565
-0.00079551442
0.00098800192
-0.00072861751
0.0010767528
-0.00065500592
0.001154604
-0.00057552737
0.0012209258
-0.00049101661
0.0012751809
-0.00040229221
0.0013169161
-0.00031016492
0.0013457632
-0.00021545649
0.0013614479
-0.0001190195
0.0013638071
-2.1756558e-05
0.0013528102
7.5377312e-05
0.0013285821
0.0001713667
0.0012914177
0.00026517214
0.0012417883
0.00035575452
0.0011803357
0.00044211825
0.0011078542
0.00052335041
0.0010252611
0.00059865749
0.00093356664
0.00066738455
0.00083383705
0.00072902845
0.00072716194
0.00078323308
0.00061462816
0.00082977353
0.00049729892
0.00086853529
0.00037620138
0.00089948438
0.00025232336
0.00092263784
0.0001266153
0.00093803739
2.7015507e-14
0.00094572453
-0.0001266153
0.00094572453
-0.00025232336
0.00093803739
-0.00037620138
0.00092263784
-0.00049729892
0.00089948438
-0.00061462816
0.00086853529
-0.00072716194
0.00082977353
-0.00083383705
0.00078323308
-0.00093356664
0.00072902845
-0.0010252611
0.00066738455
-0.0011078542
0.00059865749
-0.0011803357
0.00052335041
-0.0012417883
0.00044211825
-0.0012914177
0.00035575452
-0.0013285821
0.00026517214
-0.0013528102
0.0001713667
-0.0013638071
7.5377312e-05
-0.0013614479
-2.1756558e-05
-0.0013457632
-0.0001190195
-0.0013169161
-0.00021545649
-0.0012751809
-0.00031016492
-0.0012209258
-0.00040229221
-0.001154604
-0.00049101661
-0.0010767528
-0.00057552737
-0.00098800192
-0.00065500592
-0.00088908565
-0.00072861751
-0.00078085675
-0.00079551442
-0.00066429809
-0.00085484866
-0.00054052697
-0.00090579991
-0.00041079393
-0.00094760597
-0.0002764693
-0.00097960016
-0.00013902424
-0.001001245
-0.0010121646
0.0001533628
-0.0011655274
0.00030495577
-0.001152838
0.00045305461
-0.001127699
0.00059602311
-0.0010905745
0.00073234622
-0.001042123
0.0008606556
-0.00098315805
0.00097974113
-0.00091459994
0.0010885508
-0.00083742723
0.0011861803
-0.00075263542
0.0012718536
-0.00066120063
0.0013449009
-0.00056406389
0.001404739
-0.0004621303
0.0014508593
-0.00035628529
0.0014828276
-0.00024742477
0.0015002975
-0.0001364894
0.0015030385
-2.4497541e-05
0.0014909678
8.7448037e-05
0.0014641871
0.0001981474
0.001423006
0.00030635319
0.0013679533
0.00041080719
0.0012997693
0.00051030232
0.0012193786
0.00060374112
0.001127855
0.000690181
0.0010263734
0.00076886614
0.00091616455
0.00083923735
0.00079847186
0.00090092577
0.00067451819
0.0009537272
0.00054548056
0.00099757293
0.00041247818
0.0010324868
0.00027656835
0.0010585477
0.00013875463
0.0010758511
2.6687243e-14
0.0010844792
-0.00013875463
0.0010844792
-0.00027656835
0.0010758511
-0.00041247818
0.0010585477
-0.00054548056
0.0010324868
-0.00067451819
0.00099757293
-0.00079847186
0.0009537272
-0.00091616455
0.00090092577
-0.0010263734
0.00083923735
-0.001127855
0.00076886614
-0.0012193786
0.000690181
-0.0012997693
0.00060374112
-0.0013679533
0.00051030232
-0.001423006
0.00041080719
-0.0014641871
0.00030635319
-0.0014909678
0.0001981474
-0.0015030385
8.7448037e-05
-0.0015002975
-2.4497541e-05
-0.0014828276
-0.0001364894
-0.0014508593
-0.00024742477
-0.001404739
-0.00035628529
-0.0013449009
-0.0004621303
-0.0012718536
-0.00056406389
-0.0011861803
-0.00066120063
-0.0010885508
-0.00075263542
-0.00097974113
-0.00083742723
-0.0008606556
-0.00091459994
-0.00073234622
-0.00098315805
-0.00059602311
-0.001042123
-0.00045305461
-0.0010905745
-0.00030495577
-0.001127699
-0.0001533628
-0.001152838
-0.0011655274
0.00017175869
-0.0013372861
0.000341507
-0.0013225863
0.0005072909
-0.0012934829
0.00066726502
-0.0012505486
0.0008197351
-0.0011945931
0.00096318544
-0.0011266084
0.0010962925
-0.001047707
0.0012179205
-0.00095905525
0.0013271027
-0.00086181762
0.0014230122
-0.00075711014
0.001504928
-0.00064597963
0.0015722035
-0.00052940577
0.0016242486
-0.00040833039
0.0016605286
-0.00028370481
0.0016805867
-0.0001565475
0.0016840841
-2.7994906e-05
0.0016708513
0.00010068078
0.0016409457
0.00022805304
0.0015946879
0.00035261094
0.0015326794
0.00047281577
0.001455791
0.0005871907
0.0013651279
0.00069440416
0.0012619734
0.00079333555
0.0011477256
0.0008831139
0.0010238355
0.00096312742
0.00089175088
0.0010330104
0.00075287242
0.0010926057
0.0006085269
0.0011419184
0.000459953
0.0011810607
0.00030830108
0.0012101996
0.00015464442
0.0012295078
2.5411884e-14
0.0012391236
-0.00015464442
0.0012391236
-0.00030830108
0.0012295078
-0.000459953
0.0012101996
-0.0006085269
0.0011810607
-0.00075287242
0.0011419184
-0.00089175088
0.0010926057
-0.0010238355
0.0010330104
-0.0011477256
0.00096312742
-0.0012619734
0.0008831139
-0.0013651279
0.00079333555
-0.001455791
0.00069440416
-0.0015326794
0.0005871907
-0.0015946879
0.00047281577
-0.0016409457
0.00035261094
-0.0016708513
0.00022805304
-0.0016840841
0.00010068078
-0.0016805867
-2.7994906e-05
-0.0016605286
-0.0001565475
-0.0016242486
-0.00028370481
-0.0015722035
-0.00040833039
-0.001504928
-0.00052940577
-0.0014230122
-0.00064597963
-0.0013271027
-0.00075711014
-0.0012179205
-0.00086181762
-0.0010962925
-0.00095905525
-0.00096318545
-0.001047707
-0.0008197351
-0.0011266084
-0.00066726502
-0.0011945931
-0.0005072909
-0.0012505486
-0.000341507
-0.0012934829
-0.00017175869
-0.0013225863
-0.0013372861
0.00019543887
-0.001532725
0.00038856329
-0.0015157107
0.00057713045
-0.0014820501
0.0007590324
-0.0014324505
0.00093234911
-0.0013679098
0.0010953825
-0.0012896417
0.0012466684
-0.001198993
0.0013849703
-0.0010973571
0.001509247
-0.00098609427
0.0016186099
-0.00086647308
0.0017122711
-0.00073964086
0.0017894973
-0.00060663193
0.0018495806
-0.00046841366
0.0018918375
-0.00032596177
0.00191564
-0.00018034994
0.0019204798
-3.2834753e-05
0.0019060491
0.00011511148
0.0018723256
0.00026177657
0.001819633
0.00040530354
0.0017486671
0.00054378166
0.0016604783
0.00067537955
0.0015564168
0.00079846561
0.0014380533
0.00091169911
0.0013070886
0.0010140786
0.0011652679
0.0011049481
0.0010143084
0.0011839699
0.00085584643
0.0012510677
0.00069140341
0.0013063615
0.00052237453
0.0013500895
0.00035003127
0.0013825429
0.00017554236
0.0014039967
2.4983273e-14
0.0014146659
-0.00017554236
0.0014146659
-0.00035003127
0.0014039967
-0.00052237453
0.0013825429
-0.00069140341
0.0013500895
-0.00085584643
0.0013063615
-0.0010143084
0.0012510677
-0.0011652679
0.0011839699
-0.0013070886
0.0011049481
-0.0014380533
0.0010140786
-0.0015564168
0.00091169911
-0.0016604783
0.00079846561
-0.0017486671
0.00067537955
-0.001819633
0.00054378166
-0.0018723256
0.00040530354
-0.0019060491
0.00026177657
-0.0019204798
0.00011511148
-0.00191564
-3.2834753e-05
-0.0018918375
-0.00018034994
-0.0018495806
-0.00032596177
-0.0017894973
-0.00046841366
-0.0017122711
-0.00060663193
-0.0016186099
-0.00073964086
-0.001509247
-0.00086647308
-0.0013849703
-0.00098609427
-0.0012466684
-0.0010973571
-0.0010953825
-0.001198993
-0.00093234911
-0.0012896417
-0.0007590324
-0.0013679098
-0.00057713045
-0.0014324505
-0.00038856329
-0.0014820501
-0.00019543887
-0.0015157107
-0.001532725
0.0002260641
-0.0017587891
0.00044943012
-0.0017390768
0.0006674883
-0.0017001082
0.00087780057
-0.0016427628
0.0010781622
-0.0015682715
0.0012666459
-0.0014781255
0.0014416158
-0.0013739628
0.0016017107
-0.0012574521
0.0017458018
-0.0011301854
0.001872926
-0.00099359725
0.0019822113
-0.00084892615
0.0020728059
-0.00069722653
0.0021438343
-0.00053944209
0.0021943916
-0.00037651904
0.0022235921
-0.00020955044
0.0022306652
-3.990784e-05
0.0022150835
0.0001306932
0.0021766922
0.00030016787
0.002115805
0.00046619065
0.0020332425
0.00062634416
0.0019303029
0.00077831923
0.001808677
0.00092009149
0.0016703304
0.0010500457
0.0015173744
0.0011670345
0.0013519487
0.0012703738
0.0011761275
0.0013597911
0.00099185253
0.0014353426
0.00080090032
0.0014973137
0.0006048696
0.0015461203
0.00040519469
0.0015822178
0.00020317138
0.00160602
2.5621454e-14
0.0016178373
-0.00020317138
0.0016178373
-0.00040519469
0.00160602
-0.0006048696
0.0015822178
-0.00080090032
0.0015461203
-0.00099185253
0.0014973137
-0.0011761275
0.0014353426
-0.0013519487
0.0013597911
-0.0015173744
0.0012703738
-0.0016703304
0.0011670345
-0.001808677
0.0010500457
-0.0019303029
0.00092009149
-0.0020332425
0.00077831923
-0.002115805
0.00062634416
-0.0021766922
0.00046619065
-0.0022150835
0.00030016787
-0.0022306652
0.0001306932
-0.0022235921
-3.990784e-05
-0.0021943916
-0.00020955044
-0.0021438343
-0.00037651904
-0.0020728059
-0.00053944209
-0.0019822113
-0.00069722653
-0.001872926
-0.00084892615
-0.0017458018
-0.00099359725
-0.0016017107
-0.0011301854
-0.0014416158
-0.0012574521
-0.0012666459
-0.0013739628
-0.0010781622
-0.0014781255
-0.00087780057
-0.0015682715
-0.0006674883
-0.0016427628
-0.00044943012
-0.0017001082
-0.0002260641
-0.0017390768
-0.0017587891
0.00026584061
-0.0020246297
0.0005284956
-0.0020017317
0.0007848913
-0.0019565039
0.0010321682
-0.0018900397
0.0012677623
-0.0018038656
0.0014894575
-0.0016998207
0.0016954018
-0.001579907
0.0018840837
-0.001446134
0.00205427
-0.0013003716
0.0022049113
-0.0011442386
0.0023350303
-0.00097904522
0.0024436193
-0.00080581553
0.0025295654
-0.00062538821
0.0025916426
-0.00043859621
0.0026285792
-0.00024648702
0.0026392034
-5.053206e-05
0.002622645
0.00014725166
0.0025785349
0.0003442779
0.0025071568
0.00053756884
0.0024095007
0.00072400025
0.002287213
0.00090060687
0.0021424624
0.0010648421
0.0019777604
0.0012147477
0.0017957771
0.0013490179
0.0015991786
0.0014669723
0.0013905075
0.0015684622
0.001172105
0.0016537451
0.00094607517
0.0017233435
0.00071428303
0.0017779124
0.00047837745
0.0018181233
0.00023983305
0.0018445644
2.6797134e-14
0.0018576704
-0.00023983305
0.0018576704
-0.00047837745
0.0018445644
-0.00071428303
0.0018181233
-0.00094607517
0.0017779124
-0.001172105
0.0017233435
-0.0013905075
0.0016537451
-0.0015991786
0.0015684622
-0.0017957771
0.0014669723
-0.0019777604
0.0013490179
-0.0021424624
0.0012147477
-0.002287213
0.0010648421
-0.0024095007
0.00090060687
-0.0025071568
0.00072400025
-0.0025785349
0.00053756884
-0.002622645
0.0003442779
-0.0026392034
0.00014725166
-0.0026285792
-5.053206e-05
-0.0025916426
-0.00024648702
-0.0025295654
-0.00043859621
-0.0024436193
-0.00062538821
-0.0023350303
-0.00080581553
-0.0022049113
-0.00097904522
-0.00205427
-0.0011442386
-0.0018840837
-0.0013003716
-0.0016954018
-0.001446134
-0.0014894575
-0.001579907
-0.0012677623
-0.0016998207
-0.0010321682
-0.0018038656
-0.0007848913
-0.0018900397
-0.0005284956
-0.0019565039
-0.00026584061
-0.0020017317
-0.0020246297
0.00031762856
-0.0023422583
0.00063145051
-0.0023155537
0.00093780094
-0.0022628544
0.0012332832
-0.002185522
0.0015148739
-0.0020854563
0.0017799891
-0.0019649358
0.0020265049
-0.0018264229
0.0022527257
-0.0016723548
0.0024572972
-0.0015049431
0.0026390728
-0.0013260142
0.0027969535
-0.0011369258
0.0029297282
-0.00093859028
0.0030359607
-0.00073162067
0.0031139634
-0.00051659898
0.0031618929
-0.00029441648
0.0031779716
-6.6610779e-05
0.0031607974
0.00016442589
0.0031096636
0.00039541167
0.0030247926
0.00062243988
0.0029074128
0.00084138001
0.0027596687
0.001048351
0.0025844042
0.0012401066
0.0023848897
0.0014142622
0.0021645535
0.0015693541
0.0019267628
0.001704763
0.0016746704
0.0018205546
0.0014111298
0.0019172857
0.0011386665
0.0019958068
0.00085948872
0.0020570902
0.000575532
0.0021020801
0.00028851277
0.0021315836
3.1929026e-14
0.0021461831
-0.00028851277
0.0021461831
-0.000575532
0.0021315836
-0.00085948872
0.0021020801
-0.0011386665
0.0020570902
-0.0014111298
0.0019958068
-0.0016746704
0.0019172857
-0.0019267628
0.0018205546
-0.0021645535
0.001704763
-0.0023848897
0.0015693541
-0.0025844042
0.0014142622
-0.0027596687
0.0012401066
-0.0029074128
0.001048351
-0.0030247926
0.00084138001
-0.0031096636
0.00062243988
-0.0031607974
0.00039541167
-0.0031779716
0.00016442589
-0.0031618929
-6.6610779e-05
-0.0031139634
-0.00029441648
-0.0030359607
-0.00051659898
-0.0029297282
-0.00073162067
-0.0027969535
-0.00093859028
-0.0026390728
-0.0011369258
-0.0024572972
-0.0013260142
-0.0022527257
-0.0015049431
-0.0020265049
-0.0016723548
-0.0017799891
-0.0018264229
-0.0015148739
-0.0019649358
-0.0012332832
-0.0020854563
-0.00093780094
-0.002185522
-0.00063145051
-0.0022628544
-0.00031762856
-0.0023155537
-0.0023422583
0.00038503401
-0.0027272923
0.00076546924
-0.0026959889
0.0011368838
-0.002634269
0.0014951931
-0.0025438312
0.0018367836
-0.0024270468
0.0021585986
-0.0022867509
0.0024581692
-0.0021259935
0.0027335728
-0.0019477584
0.0029833178
-0.0017546882
0.0032061593
-0.0015488557
0.0034008664
-0.0013316329
0.0035659811
-0.001103705
0.0036996363
-0.00086527583
0.0037994951
-0.00061645776
0.0038628786
-0.00035780003
0.0038870968
-9.0828951e-05
0.0038699346
0.00018158806
0.0038101574
0.00045518885
0.0037078819
0.00072471543
0.0035646824
0.0009845795
0.0033834259
0.0012296075
0.0031679194
0.0014556131
0.0029224882
0.0016596934
0.0026515882
0.0018402541
0.0023595095
0.0019968416
0.0020501905
0.0021298736
0.0017271339
0.0022403423
0.001393395
0.0023295457
0.0010516232
0.002398862
0.00070412756
0.0024495757
0.00035296012
0.0024827511
4.0420386e-14
0.0024991433
-0.00035296012
0.0024991433
-0.00070412756
0.0024827511
-0.0010516232
0.0024495757
-0.001393395
0.002398862
-0.0017271339
0.0023295457
-0.0020501905
0.0022403423
-0.0023595095
0.0021298736
-0.0026515882
0.0019968416
-0.0029224882
0.0018402541
-0.0031679194
0.0016596934
-0.0033834259
0.0014556131
-0.0035646824
0.0012296075
-0.0037078819
0.0009845795
-0.0038101574
0.00072471543
-0.0038699346
0.00045518885
-0.0038870968
0.00018158806
-0.0038628786
-9.082895e-05
-0.0037994951
-0.00035780003
-0.0036996363
-0.00061645776
-0.0035659811
-0.00086527583
-0.0034008664
-0.001103705
-0.0032061593
-0.0013316329
-0.0029833178
-0.0015488557
-0.0027335728
-0.0017546882
-0.0024581692
-0.0019477584
-0.0021585986
-0.0021259935
-0.0018367836
-0.0022867509
-0.0014951931
-0.0024270468
-0.0011368838
-0.0025438312
-0.00076546924
-0.002634269
-0.00038503401
-0.0026959889
-0.0027272923
0.00047245253
-0.0031997448
0.00093929464
-0.003162831
0.0013951352
-0.0030901095
0.0018350064
-0.0029837025
0.0022545317
-0.0028465721
0.0026500443
-0.0026822635
0.0030186313
-0.0024945805
0.00335809
-0.0022872171
0.0036667801
-0.0020633783
0.0039433734
-0.0018254489
0.0041865192
-0.0015747787
0.0043944853
-0.0013116711
0.0045648543
-0.0010356448
0.0046943972
-0.00074600065
0.0047792291
-0.00044263197
0.0048152985
-0.00012689837
0.0047991475
0.00019773913
0.0047287268
0.00052560954
0.0046039857
0.00084945655
0.0044270156
0.0011615496
0.0042017471
0.001454876
0.003933367