/*--------------------------------*- C++ -*----------------------------------*\
| =========                 |                                                 |
| \\      /  F ield         | OpenFOAM: The Open Source CFD Toolbox           |
|  \\    /   O peration     | Version:  2306                                  |
|   \\  /    A nd           | Website:  www.openfoam.com                      |
|    \\/     M anipulation  |                                                 |
\*---------------------------------------------------------------------------*/
FoamFile
{
    version     2.0;
    format      ascii;
    arch        "LSB;label=32;scalar=64";
    class       volVectorField;
    location    "0.27";
    object      U;
}
// * * * * * * * * * * * * * * * * * * * * * * * * * * * * * * * * * * * * * //

dimensions      [0 1 -1 0 0 0 0];

internalField   nonuniform List<vector> 
51200
(
(-1.3589185e-05 -1.8195463e-06 5.3464876e-20)
(-3.6952282e-05 3.865872e-06 -3.4666559e-21)
(-6.5081921e-05 4.5776749e-06 -1.768413e-20)
(-9.3220204e-05 5.6744504e-06 1.2933429e-20)
(-0.00012315681 6.2854076e-06 2.3415028e-20)
(-0.00015325987 6.5072817e-06 -6.8120219e-21)
(-0.00018326199 6.6147399e-06 7.2456051e-22)
(-0.00021308837 6.6646262e-06 2.0441371e-20)
(-0.00024270437 6.6833626e-06 1.4372984e-20)
(-0.00027208968 6.6853119e-06 -2.9116423e-20)
(-0.0003012315 6.6771556e-06 -2.6477332e-20)
(-0.00033011856 6.6615231e-06 4.6302311e-20)
(-0.00035873846 6.6393128e-06 1.7573497e-20)
(-0.00038707697 6.6106009e-06 -3.340268e-20)
(-0.00041511808 6.5749378e-06 -2.0739215e-20)
(-0.00044284421 6.5314057e-06 1.6743603e-20)
(-0.00047023639 6.4785487e-06 5.1753499e-20)
(-0.00049727444 6.4141946e-06 -5.8404367e-21)
(-0.00052393719 6.3352167e-06 -4.8031787e-20)
(-0.0005502038 6.2375448e-06 -2.6243136e-21)
(-0.00057606103 6.1177606e-06 3.8816071e-21)
(-0.00060150223 5.985897e-06 1.4375967e-20)
(-0.00062649956 5.8681474e-06 6.9994232e-20)
(-0.00065101363 5.7675975e-06 1.1880903e-19)
(-0.00067501842 5.6792888e-06 1.4427516e-19)
(-0.00069849361 5.5986219e-06 -1.0956518e-19)
(-0.00072141968 5.5222912e-06 -3.6172582e-19)
(-0.00074377699 5.4480529e-06 -9.6489603e-20)
(-0.00076554577 5.3743731e-06 1.4458646e-19)
(-0.00078670641 5.3001896e-06 1.9324459e-19)
(-0.00080723965 5.22476e-06 1.4933012e-19)
(-0.0008271268 5.1475375e-06 -5.2921497e-20)
(-0.00084634988 5.0681245e-06 -3.0765051e-20)
(-0.00086489175 4.9862296e-06 -1.8121839e-19)
(-0.00088273616 4.9016481e-06 -1.7851253e-19)
(-0.0008998679 4.8142324e-06 2.5130851e-19)
(-0.00091627285 4.723895e-06 -4.7492359e-21)
(-0.00093193805 4.6305913e-06 -5.0897845e-19)
(-0.00094685176 4.5343202e-06 1.6141907e-19)
(-0.00096100353 4.4351203e-06 7.0686909e-19)
(-0.00097438422 4.3330502e-06 1.2642534e-19)
(-0.00098698606 4.2282099e-06 -3.2753858e-19)
(-0.00099880267 4.1207252e-06 -3.3726143e-19)
(-0.0010098291 4.0107399e-06 -2.1528433e-19)
(-0.0010200618 3.898421e-06 2.4662822e-19)
(-0.0010294987 3.7839552e-06 7.8355424e-19)
(-0.0010381391 3.6675417e-06 -9.7627239e-20)
(-0.0010459838 3.5494002e-06 -3.214337e-19)
(-0.0010530349 3.4297582e-06 -2.5768386e-19)
(-0.0010592962 3.3088571e-06 -9.0343747e-19)
(-0.0010647724 3.1869356e-06 4.4726985e-19)
(-0.00106947 3.0642405e-06 6.5374106e-19)
(-0.0010733966 2.9410355e-06 9.8277917e-21)
(-0.0010765609 2.817569e-06 2.9166554e-19)
(-0.001078973 2.6941022e-06 -7.5666301e-19)
(-0.0010806442 2.5708781e-06 -5.9117635e-19)
(-0.0010815867 2.4481544e-06 6.2825276e-19)
(-0.0010818139 2.3261765e-06 2.2188441e-19)
(-0.0010813401 2.2051893e-06 -9.25774e-20)
(-0.0010801805 2.085419e-06 9.9159651e-20)
(-0.0010783512 1.9670916e-06 -4.9411562e-20)
(-0.001075869 1.8504309e-06 4.1993614e-20)
(-0.0010727513 1.7356518e-06 -3.2703654e-20)
(-0.0010690164 1.6229458e-06 -3.3853556e-19)
(-0.0010646828 1.5125144e-06 -4.9280837e-19)
(-0.0010597698 1.4045365e-06 2.8678944e-20)
(-0.0010542968 1.2991922e-06 8.6744212e-19)
(-0.0010482839 1.1966579e-06 -8.7945809e-21)
(-0.0010417512 1.0970914e-06 -3.5303775e-19)
(-0.001034719 1.0006568e-06 5.9834947e-19)
(-0.0010272079 9.0753082e-07 -9.240197e-20)
(-0.0010192387 8.1788068e-07 -4.1843518e-19)
(-0.0010108319 7.3190752e-07 1.2393732e-19)
(-0.0010020085 6.4983253e-07 1.8820807e-19)
(-0.00099278923 5.7192677e-07 2.2145398e-19)
(-0.00098319486 4.9861663e-07 -4.1840495e-19)
(-0.00097324647 4.3062896e-07 -4.1465622e-19)
(-0.00096296524 3.6923797e-07 3.4933893e-19)
(-0.00095237137 3.1572106e-07 4.5882533e-19)
(-0.0009414782 2.7103802e-07 -2.069432e-19)
(-0.00093028213 2.291845e-07 -7.3948239e-19)
(-0.00091880847 1.5506245e-07 3.0113368e-19)
(-0.00090710958 5.0771026e-08 5.7586112e-19)
(-0.00089520352 -5.5721357e-08 5.259437e-21)
(-0.00088309421 -1.5773882e-07 1.641041e-19)
(-0.00087079525 -2.537618e-07 -2.3734323e-19)
(-0.00085832239 -3.4377967e-07 1.5306664e-20)
(-0.00084569141 -4.2823795e-07 -5.6114861e-22)
(-0.00083291775 -5.0762116e-07 -4.124749e-19)
(-0.00082001629 -5.8234678e-07 1.2772517e-19)
(-0.00080700135 -6.5274561e-07 -2.729901e-19)
(-0.0007938867 -7.1910019e-07 -1.8138577e-19)
(-0.00078068555 -7.8163155e-07 4.2583383e-19)
(-0.00076741052 -8.4053906e-07 2.2453652e-19)
(-0.00075407373 -8.9599458e-07 -6.3850613e-20)
(-0.00074068672 -9.4816252e-07 -4.240597e-19)
(-0.00072726049 -9.9718537e-07 3.8355129e-20)
(-0.00071380554 -1.0432001e-06 3.3713886e-19)
(-0.00070033183 -1.086342e-06 2.047421e-19)
(-0.0006868488 -1.1267273e-06 -1.0485218e-19)
(-0.00067336539 -1.1644801e-06 -4.8503205e-19)
(-0.00065989006 -1.199719e-06 1.2206348e-19)
(-0.00064643076 -1.2325539e-06 2.2491908e-19)
(-0.00063299501 -1.26309e-06 1.2974599e-19)
(-0.00061958983 -1.2914346e-06 -2.8140782e-20)
(-0.00060622182 -1.3176811e-06 -4.8193277e-19)
(-0.00059289713 -1.3419339e-06 1.1321067e-19)
(-0.0005796215 -1.3642859e-06 3.1538839e-19)
(-0.00056640027 -1.3848269e-06 5.5340332e-20)
(-0.00055323836 -1.403639e-06 3.0271753e-20)
(-0.00054014034 -1.4208167e-06 -3.4636119e-19)
(-0.00052711042 -1.4364371e-06 -1.3770942e-19)
(-0.00051415242 -1.4505883e-06 2.1984361e-19)
(-0.00050126987 -1.4633458e-06 6.4282142e-20)
(-0.00048846594 -1.4748036e-06 3.7671635e-20)
(-0.00047574351 -1.485028e-06 -6.6097955e-20)
(-0.00046310516 -1.494097e-06 1.0938874e-20)
(-0.00045055318 -1.5020836e-06 9.7714181e-20)
(-0.00043808959 -1.5090587e-06 -9.5406259e-21)
(-0.00042571616 -1.515081e-06 2.2415024e-20)
(-0.0004134344 -1.5202169e-06 -8.4561872e-20)
(-0.0004012456 -1.5245219e-06 -1.9116387e-20)
(-0.00038915082 -1.5280593e-06 9.0082182e-20)
(-0.00037715092 -1.5308766e-06 5.536342e-20)
(-0.00036524656 -1.5330249e-06 -1.325396e-20)
(-0.0003534382 -1.5345581e-06 -1.7758275e-19)
(-0.00034172614 -1.5355208e-06 -3.7795924e-20)
(-0.00033011049 -1.5359575e-06 1.2968794e-19)
(-0.00031859124 -1.5359092e-06 5.6945751e-20)
(-0.0003071682 -1.5354147e-06 -3.9278936e-20)
(-0.00029584106 -1.5345169e-06 -8.3863021e-20)
(-0.00028460936 -1.5332453e-06 1.297977e-20)
(-0.00027347255 -1.5316383e-06 4.6037849e-20)
(-0.00026242994 -1.529725e-06 -2.8299341e-20)
(-0.00025148077 -1.5275324e-06 -7.4435498e-20)
(-0.00024062415 -1.5250974e-06 -1.0939573e-20)
(-0.00022985911 -1.5224389e-06 7.8349186e-20)
(-0.00021918462 -1.5195849e-06 3.196855e-20)
(-0.00020859955 -1.5165562e-06 3.1283341e-21)
(-0.00019810272 -1.5133794e-06 -5.2863268e-21)
(-0.00018769289 -1.5100662e-06 -3.2478218e-20)
(-0.00017736874 -1.5066421e-06 2.7225626e-20)
(-0.00016712895 -1.5031202e-06 1.6287784e-20)
(-0.00015697212 -1.4995135e-06 -7.7510064e-21)
(-0.00014689685 -1.4958396e-06 1.4507695e-20)
(-0.00013690169 -1.4921032e-06 -5.2948593e-20)
(-0.00012698521 -1.4883137e-06 -2.0118216e-20)
(-0.00011714597 -1.4844687e-06 5.564106e-20)
(-0.00010738259 -1.4805502e-06 2.5359946e-20)
(-9.7693757e-05 -1.4765126e-06 -1.6962638e-20)
(-8.8078398e-05 -1.4722478e-06 -3.7920231e-20)
(-7.8535851e-05 -1.4674749e-06 -8.6123525e-21)
(-6.9066387e-05 -1.4615416e-06 2.6859146e-20)
(-5.9672275e-05 -1.4529038e-06 8.930042e-21)
(-5.0359951e-05 -1.4381415e-06 -6.5700086e-21)
(-4.1143787e-05 -1.4106666e-06 -1.059437e-20)
(-3.2050764e-05 -1.3625259e-06 -3.6664714e-21)
(-2.3117078e-05 -1.3078256e-06 4.5874495e-21)
(-1.4284426e-05 -1.4365798e-06 8.7689408e-22)
(-4.9312659e-06 -2.3959451e-06 -4.3919926e-21)
(-4.6898617e-05 9.1882881e-05 5.7300977e-20)
(-0.00011008355 0.00010142384 -1.097125e-20)
(-0.00018289902 0.00010460375 2.2501204e-22)
(-0.00025451773 0.00010802163 5.1294083e-20)
(-0.00032908644 0.00010995132 4.2241285e-20)
(-0.00040385228 0.00011075934 -9.7212385e-21)
(-0.00047842386 0.00011103006 5.586972e-20)
(-0.00055266291 0.00011099774 3.6245172e-20)
(-0.00062645773 0.00011077397 -2.4300307e-20)
(-0.00069970945 0.00011041793 -9.5234156e-21)
(-0.00077233724 0.00010996081 1.5222866e-20)
(-0.0008442707 0.00010941874 4.2345768e-20)
(-0.00091544429 0.00010880026 9.2594506e-20)
(-0.00098579484 0.00010810997 1.3563874e-19)
(-0.0010552604 0.00010735032 5.2244918e-20)
(-0.0011237801 0.00010652242 5.0689825e-20)
(-0.0011912936 0.00010562648 1.6228736e-19)
(-0.0012577416 0.0001046619 2.74333e-20)
(-0.001323066 0.00010362734 -1.8666506e-19)
(-0.0013872091 0.00010252081 -1.2576071e-19)
(-0.0014501066 0.0001013408 3.2533544e-21)
(-0.0015116875 0.00010009485 6.0875836e-20)
(-0.0015718982 9.8802125e-05 1.4106067e-19)
(-0.0016306984 9.7467032e-05 2.649191e-19)
(-0.0016880393 9.6087663e-05 1.7440427e-19)
(-0.0017438703 9.4661828e-05 -3.8113183e-19)
(-0.001798142 9.3188273e-05 -5.0085916e-19)
(-0.0018508076 9.1666655e-05 -1.8747425e-19)
(-0.0019018227 9.0097297e-05 -1.0638223e-19)
(-0.0019511455 8.8481033e-05 5.0830922e-19)
(-0.0019987368 8.6819096e-05 6.5724055e-19)
(-0.0020445602 8.511299e-05 -2.9161945e-19)
(-0.002088582 8.3364497e-05 -6.3028523e-19)
(-0.0021307712 8.1575599e-05 -2.5847145e-19)
(-0.0021711002 7.9748459e-05 4.1416357e-19)
(-0.002209544 7.7885427e-05 3.6182348e-19)
(-0.0022460811 7.5988995e-05 -5.5342977e-19)
(-0.0022806931 7.4061779e-05 -8.2303259e-19)
(-0.0023133647 7.2106525e-05 6.5386453e-19)
(-0.0023440843 7.0126083e-05 9.1037303e-19)
(-0.0023728432 6.8123364e-05 -1.0496731e-18)
(-0.0023996364 6.6101377e-05 -4.0570574e-19)
(-0.0024244622 6.4063176e-05 1.4744295e-18)
(-0.002447322 6.2011846e-05 1.9022766e-18)
(-0.0024682207 5.9950509e-05 3.2156407e-21)
(-0.0024871665 5.7882283e-05 -2.9978309e-18)
(-0.0025041707 5.581029e-05 -1.7534476e-18)
(-0.0025192476 5.3737635e-05 1.4187321e-18)
(-0.0025324148 5.1667387e-05 1.3968168e-18)
(-0.0025436926 4.9602582e-05 -7.857595e-19)
(-0.0025531043 4.7546168e-05 -1.2985198e-18)
(-0.0025606759 4.5501058e-05 1.3695829e-18)
(-0.0025664359 4.3470068e-05 1.8411483e-18)
(-0.0025704153 4.145592e-05 -2.6704572e-19)
(-0.0025726474 3.9461244e-05 -1.1684346e-18)
(-0.0025731678 3.7488556e-05 -1.2980466e-18)
(-0.002572014 3.5540252e-05 -1.4725597e-19)
(-0.0025692254 3.3618615e-05 1.4473649e-18)
(-0.002564843 3.1725791e-05 5.5544663e-19)
(-0.0025589096 2.9863792e-05 -1.418013e-18)
(-0.0025514692 2.8034492e-05 -5.2786111e-19)
(-0.0025425671 2.6239633e-05 1.5064073e-18)
(-0.0025322495 2.4480819e-05 4.3205826e-19)
(-0.0025205637 2.2759486e-05 -1.75409e-18)
(-0.0025075578 2.1076963e-05 -9.7473671e-19)
(-0.0024932802 1.943442e-05 1.024534e-18)
(-0.0024777801 1.7832892e-05 1.2020635e-18)
(-0.0024611068 1.6273298e-05 3.3144047e-19)
(-0.0024433097 1.475643e-05 -6.3047131e-19)
(-0.0024244384 1.3282968e-05 -1.3480092e-18)
(-0.0024045425 1.1853523e-05 1.5328453e-19)
(-0.0023836712 1.0468621e-05 9.8896601e-19)
(-0.0023618736 9.128743e-06 -2.4206028e-20)
(-0.0023391984 7.8343291e-06 1.7577674e-19)
(-0.0023156938 6.5857948e-06 4.957978e-19)
(-0.0022914074 5.3836448e-06 1.3959445e-19)
(-0.0022663859 4.2286083e-06 -7.5886273e-19)
(-0.0022406754 3.1215231e-06 -8.2307052e-19)
(-0.0022143194 2.061665e-06 1.8638532e-19)
(-0.0021873611 1.0403626e-06 3.547604e-19)
(-0.0021598583 2.7810868e-08 2.197489e-20)
(-0.0021318547 -9.8211743e-07 2.1678648e-19)
(-0.0021033612 -1.9636589e-06 2.8427202e-19)
(-0.0020744101 -2.9013806e-06 -5.4402497e-19)
(-0.002045054 -3.7940259e-06 -6.4749769e-20)
(-0.0020153344 -4.6428252e-06 5.3800705e-19)
(-0.0019852883 -5.4495964e-06 -4.09556e-19)
(-0.0019549507 -6.2161343e-06 1.7671092e-19)
(-0.0019243549 -6.9440697e-06 2.5495222e-19)
(-0.001893533 -7.634894e-06 -4.8118439e-19)
(-0.0018625157 -8.2899808e-06 -3.6347814e-19)
(-0.0018313324 -8.9106378e-06 -1.9797716e-19)
(-0.0018000113 -9.4981084e-06 4.2297173e-19)
(-0.0017685794 -1.0053609e-05 1.8534235e-19)
(-0.0017370623 -1.0578314e-05 -1.5702501e-19)
(-0.0017054845 -1.1073391e-05 -3.4705977e-20)
(-0.0016738692 -1.1539966e-05 7.5207382e-20)
(-0.0016422384 -1.1979161e-05 3.5030018e-19)
(-0.0016106131 -1.2392072e-05 -1.4395245e-19)
(-0.0015790129 -1.2779768e-05 -5.0875987e-19)
(-0.0015474564 -1.3143302e-05 -7.5867955e-20)
(-0.0015159612 -1.3483723e-05 3.6878302e-19)
(-0.0014845436 -1.3802036e-05 3.512724e-19)
(-0.001453219 -1.4099232e-05 -4.5076637e-20)
(-0.0014220018 -1.4376282e-05 -3.6237661e-19)
(-0.0013909054 -1.4634121e-05 -2.9370252e-19)
(-0.0013599423 -1.4873685e-05 1.9799265e-19)
(-0.001329124 -1.5095862e-05 5.4942024e-19)
(-0.0012984611 -1.5301534e-05 5.8429381e-20)
(-0.0012679634 -1.5491539e-05 -4.0598836e-19)
(-0.00123764 -1.5666701e-05 -1.6892385e-19)
(-0.0012074991 -1.5827817e-05 -7.9019951e-20)
(-0.001177548 -1.5975662e-05 3.3572739e-19)
(-0.0011477935 -1.6110956e-05 4.100166e-19)
(-0.0011182418 -1.6234429e-05 -2.4386423e-19)
(-0.001088898 -1.6346758e-05 -3.7731228e-19)
(-0.001059767 -1.6448601e-05 -6.8109874e-20)
(-0.0010308529 -1.6540594e-05 3.5020602e-19)
(-0.0010021593 -1.6623362e-05 1.2520927e-19)
(-0.00097368911 -1.6697482e-05 -4.1723132e-19)
(-0.00094544494 -1.6763524e-05 -1.2912576e-19)
(-0.00091742876 -1.682202e-05 3.6104481e-19)
(-0.00088964212 -1.6873499e-05 2.9852108e-19)
(-0.00086208613 -1.6918453e-05 -1.7086454e-19)
(-0.00083476148 -1.6957354e-05 -4.4534113e-19)
(-0.00080766847 -1.6990662e-05 -4.9248731e-20)
(-0.00078080703 -1.7018807e-05 3.0744753e-19)
(-0.00075417676 -1.7042203e-05 1.7627831e-19)
(-0.00072777692 -1.7061241e-05 -6.2681435e-20)
(-0.00070160646 -1.7076291e-05 -2.1828934e-19)
(-0.00067566407 -1.7087717e-05 -8.0328451e-20)
(-0.00064994816 -1.7095849e-05 2.3683982e-19)
(-0.0006244569 -1.7101018e-05 2.1794792e-19)
(-0.00059918823 -1.7103516e-05 -8.7427479e-20)
(-0.00057413987 -1.7103625e-05 -2.9191997e-19)
(-0.00054930936 -1.710163e-05 -4.5019992e-20)
(-0.00052469406 -1.7097772e-05 2.03912e-19)
(-0.00050029117 -1.7092299e-05 8.8015738e-20)
(-0.00047609772 -1.7085432e-05 -2.7398894e-20)
(-0.00045211064 -1.7077385e-05 -6.1552098e-20)
(-0.00042832672 -1.7068343e-05 -2.2296678e-20)
(-0.00040474265 -1.7058494e-05 2.3577985e-20)
(-0.00038135503 -1.7048001e-05 4.3922598e-20)
(-0.00035816038 -1.7037009e-05 -2.7458473e-20)
(-0.00033515519 -1.7025657e-05 -8.4064811e-20)
(-0.00031233586 -1.7014045e-05 -1.8023759e-20)
(-0.00028969881 -1.7002253e-05 6.3816982e-20)
(-0.00026724046 -1.6990318e-05 7.7096711e-20)
(-0.00024495727 -1.6978194e-05 -2.3811665e-20)
(-0.00022284585 -1.696571e-05 -8.4582152e-20)
(-0.00020090299 -1.6952432e-05 -8.4001475e-21)
(-0.00017912589 -1.69374e-05 4.8999488e-20)
(-0.00015751238 -1.6918593e-05 3.1599739e-20)
(-0.00013606126 -1.6891943e-05 -1.280076e-20)
(-0.0001147724 -1.684988e-05 -2.7237128e-20)
(-9.3645491e-05 -1.678105e-05 -3.4752383e-21)
(-7.2673522e-05 -1.6679222e-05 1.2357857e-20)
(-5.1825558e-05 -1.6583277e-05 7.7795495e-21)
(-3.1031906e-05 -1.6687056e-05 -1.3048117e-21)
(-1.0283297e-05 -1.7483722e-05 -2.7910823e-21)
(-6.9768509e-05 0.00027774385 -7.6963035e-20)
(-0.00015899631 0.00028710351 -3.263262e-20)
(-0.00026048963 0.00029172029 -4.0180924e-20)
(-0.00035909038 0.00029590993 -3.5375203e-21)
(-0.00046087333 0.000298294 8.87973e-21)
(-0.00056260993 0.00029922527 -5.8531979e-20)
(-0.00066401019 0.00029929101 3.718872e-20)
(-0.00076496585 0.00029879135 -6.3776525e-22)
(-0.0008653385 0.00029789061 5.1083559e-20)
(-0.000964983 0.00029668219 1.726654e-19)
(-0.0010637706 0.00029521948 1.1781593e-19)
(-0.0011615859 0.00029353322 1.0727735e-19)
(-0.0012583216 0.00029164176 1.5083451e-20)
(-0.0013538761 0.00028955667 1.4785373e-19)
(-0.001448152 0.00028728582 2.2634898e-19)
(-0.0015410553 0.00028483505 2.4782077e-20)
(-0.0016324946 0.00028220914 4.5707469e-20)
(-0.0017223813 0.0002794125 -4.4719742e-20)
(-0.0018106289 0.00027644965 -1.216595e-19)
(-0.0018971532 0.00027332549 5.2457341e-20)
(-0.0019818719 0.0002700451 5.5279522e-20)
(-0.0020647058 0.00026660814 6.4121755e-20)
(-0.0021455812 0.0002630072 1.842909e-19)
(-0.0022244274 0.00025924533 2.0476913e-19)
(-0.0023011742 0.00025532923 -4.4703646e-20)
(-0.0023757537 0.00025126541 -1.5056974e-19)
(-0.0024481021 0.00024705998 -8.5558597e-20)
(-0.0025181591 0.00024271888 -2.0016789e-19)
(-0.0025858686 0.00023824802 -2.7465394e-19)
(-0.0026511786 0.00023365351 8.4851544e-20)
(-0.0027140409 0.00022894164 2.7517053e-19)
(-0.0027744117 0.00022411893 -6.2052657e-20)
(-0.0028322512 0.00021919217 -3.4913593e-19)
(-0.002887524 0.00021416838 -2.9154671e-19)
(-0.002940199 0.00020905484 2.4737763e-19)
(-0.0029902497 0.00020385905 3.41486e-19)
(-0.0030376538 0.00019858872 -1.2398127e-19)
(-0.0030823939 0.00019325173 -1.7181616e-19)
(-0.003124457 0.00018785613 1.3617125e-20)
(-0.0031638345 0.00018241007 -2.5721361e-19)
(-0.0032005227 0.00017692178 -4.7146515e-19)
(-0.0032345222 0.00017139959 3.6186281e-19)
(-0.0032658381 0.00016585178 9.4433702e-19)
(-0.00329448 0.00016028666 8.2667787e-19)
(-0.0033204619 0.00015471247 -1.1745438e-19)
(-0.0033438018 0.00014913739 -1.7785843e-18)
(-0.0033645221 0.00014356946 -7.9047025e-19)
(-0.0033826491 0.00013801661 5.7577426e-19)
(-0.003398213 0.00013248658 6.9100591e-19)
(-0.0034112475 0.00012698693 5.5237705e-19)
(-0.0034217902 0.00012152495 -8.3722587e-19)
(-0.0034298818 0.00011610775 -1.5742419e-20)
(-0.0034355663 0.00011074213 9.1563789e-19)
(-0.0034388907 0.00010543461 -9.049482e-20)
(-0.0034399047 0.00010019138 -1.5065879e-19)
(-0.0034386606 9.501835e-05 -3.5729102e-19)
(-0.0034352132 8.9921058e-05 -3.2334693e-19)
(-0.0034296194 8.4904703e-05 5.5318331e-19)
(-0.003421938 7.9974122e-05 1.648855e-19)
(-0.0034122295 7.5133799e-05 -7.5994427e-19)
(-0.0034005561 7.0387834e-05 -2.2074436e-19)
(-0.0033869812 6.5739964e-05 5.7285862e-19)
(-0.0033715693 6.119355e-05 8.6178221e-20)
(-0.0033543858 5.6751579e-05 -3.8914666e-19)
(-0.0033354968 5.2416673e-05 1.8085994e-19)
(-0.0033149689 4.8191101e-05 3.265702e-19)
(-0.003292869 4.4076757e-05 -1.2690845e-19)
(-0.0032692641 4.0075218e-05 -1.1714892e-21)
(-0.0032442212 3.6187736e-05 -9.6175561e-20)
(-0.0032178071 3.2415244e-05 -5.7749502e-19)
(-0.0031900883 2.875842e-05 -2.1307198e-20)
(-0.0031611307 2.5217664e-05 3.3980855e-19)
(-0.0031309996 2.1793127e-05 -1.9075608e-20)
(-0.0030997594 1.8484708e-05 2.1582052e-19)
(-0.0030674739 1.529202e-05 2.2501471e-19)
(-0.0030342054 1.2214389e-05 1.8876866e-19)
(-0.003000016 9.2508867e-06 -1.6877299e-19)
(-0.0029649681 6.4002517e-06 -6.8695376e-19)
(-0.0029291285 3.6594052e-06 -1.8739168e-19)
(-0.0028925731 1.0225506e-06 5.1003194e-19)
(-0.0028553283 -1.5170092e-06 3.6511691e-19)
(-0.0028174095 -3.9383009e-06 -3.9279706e-19)
(-0.0027788894 -6.2411753e-06 -3.0349082e-19)
(-0.002739839 -8.439406e-06 -2.0054785e-19)
(-0.0027003091 -1.053798e-05 -1.3252153e-19)
(-0.0026603471 -1.2540094e-05 2.6555128e-19)
(-0.0026199985 -1.4448419e-05 -1.3856013e-19)
(-0.0025793076 -1.6265431e-05 1.319804e-19)
(-0.0025383171 -1.7993609e-05 4.4160728e-19)
(-0.0024970679 -1.9635493e-05 -1.8836111e-19)
(-0.0024555994 -2.1193659e-05 -2.5712236e-19)
(-0.002413949 -2.2670719e-05 -4.3026242e-20)
(-0.0023721529 -2.4069315e-05 1.0214664e-19)
(-0.0023302451 -2.5392088e-05 -9.5719387e-20)
(-0.0022882584 -2.6641695e-05 -6.3026843e-21)
(-0.0022462238 -2.7820782e-05 3.4920564e-19)
(-0.0022041706 -2.8931977e-05 -3.7413493e-20)
(-0.0021621267 -2.9977893e-05 -1.7813084e-19)
(-0.0021201184 -3.0961109e-05 -2.4816371e-19)
(-0.0020781704 -3.1884184e-05 -1.0793361e-19)
(-0.0020363062 -3.2749613e-05 3.1041803e-19)
(-0.0019945476 -3.3559884e-05 1.5261903e-19)
(-0.0019529152 -3.4317408e-05 4.8127679e-20)
(-0.0019114282 -3.5024566e-05 -1.9972641e-19)
(-0.0018701044 -3.568368e-05 -1.2116599e-19)
(-0.0018289604 -3.6297014e-05 2.4979916e-19)
(-0.0017880117 -3.6866784e-05 4.6544358e-20)
(-0.0017472725 -3.7395142e-05 3.6605668e-20)
(-0.0017067558 -3.7884191e-05 -7.5203291e-20)
(-0.0016664738 -3.8335965e-05 -2.5986146e-19)
(-0.0016264373 -3.8752427e-05 7.4872213e-20)
(-0.0015866562 -3.9135487e-05 1.1914474e-19)
(-0.0015471397 -3.9486998e-05 8.7458439e-20)
(-0.0015078957 -3.9808725e-05 1.5739897e-19)
(-0.0014689314 -4.0102382e-05 -1.1871528e-19)
(-0.0014302532 -4.0369621e-05 -2.2785297e-19)
(-0.0013918666 -4.0612027e-05 -9.1768653e-20)
(-0.0013537764 -4.0831124e-05 1.2754172e-19)
(-0.0013159867 -4.1028395e-05 8.1223881e-20)
(-0.0012785008 -4.1205246e-05 -1.1511224e-19)
(-0.0012413215 -4.1363032e-05 1.9836393e-20)
(-0.0012044507 -4.1503051e-05 1.3222984e-19)
(-0.0011678901 -4.1626549e-05 5.549917e-20)
(-0.0011316406 -4.1734713e-05 -1.2846788e-19)
(-0.0010957027 -4.1828689e-05 -1.6700552e-19)
(-0.0010600762 -4.1909559e-05 7.7818178e-20)
(-0.0010247606 -4.1978362e-05 1.474633e-19)
(-0.000989755 -4.2036086e-05 5.4567583e-20)
(-0.00095505804 -4.2083673e-05 -7.4975623e-20)
(-0.00092066796 -4.2122018e-05 -8.0402013e-20)
(-0.00088658268 -4.2151971e-05 4.0586542e-20)
(-0.00085279976 -4.2174343e-05 6.9221073e-20)
(-0.00081931648 -4.21899e-05 6.5129801e-20)
(-0.00078612982 -4.2199368e-05 1.8020934e-22)
(-0.00075323652 -4.2203427e-05 -7.1388972e-20)
(-0.00072063305 -4.2202728e-05 -3.6538341e-20)
(-0.00068831568 -4.2197882e-05 3.7615313e-20)
(-0.00065628048 -4.2189462e-05 3.8773822e-20)
(-0.00062452333 -4.2178005e-05 -2.2207625e-20)
(-0.00059303995 -4.2164021e-05 -2.610687e-20)
(-0.00056182591 -4.2147973e-05 8.9222852e-21)
(-0.00053087666 -4.2130299e-05 -2.4651821e-20)
(-0.00050018755 -4.2111397e-05 9.3692622e-21)
(-0.0004697538 -4.2091625e-05 2.0308313e-21)
(-0.0004395706 -4.2071312e-05 -2.9719044e-20)
(-0.00040963306 -4.2050731e-05 2.5597153e-20)
(-0.00037993626 -4.20301e-05 1.561685e-20)
(-0.00035047525 -4.2009547e-05 3.1791702e-22)
(-0.00032124515 -4.1989085e-05 -7.5635792e-21)
(-0.00029224109 -4.1968537e-05 -1.1699193e-20)
(-0.00026345832 -4.1947367e-05 2.9571777e-20)
(-0.00023489217 -4.1924489e-05 2.2299662e-20)
(-0.00020653803 -4.1897801e-05 1.7272606e-21)
(-0.00017839092 -4.1863792e-05 -2.3744999e-20)
(-0.00015044462 -4.1817585e-05 -1.1421812e-20)
(-0.00012268955 -4.1755869e-05 2.1914538e-20)
(-9.5107722e-05 -4.1690387e-05 9.2614469e-21)
(-6.7663452e-05 -4.1686812e-05 3.5320593e-21)
(-4.0316025e-05 -4.1940411e-05 7.1423233e-21)
(-1.3292416e-05 -4.2757374e-05 1.6638906e-20)
(-8.1233554e-05 0.00050583564 -4.8087822e-19)
(-0.00018499965 0.00051221343 -1.3765745e-19)
(-0.0003022303 0.00051614254 -2.2285497e-20)
(-0.00041530061 0.00051956759 -1.3780239e-19)
(-0.0005315984 0.00052139192 1.5320521e-20)
(-0.00064756774 0.00052180408 -1.4812025e-19)
(-0.00076303326 0.00052122478 -1.0459589e-19)
(-0.00087794344 0.00051990952 -1.6846696e-20)
(-0.00099216985 0.00051801628 1.165684e-19)
(-0.0011055557 0.00051564224 1.9929519e-19)
(-0.0012179531 0.00051284729 1.3821115e-19)
(-0.0013292246 0.0005096688 1.4713928e-19)
(-0.0014392413 0.00050613105 -3.1922853e-20)
(-0.0015478805 0.00050225059 8.0836903e-20)
(-0.0016550252 0.00049803951 1.3165988e-19)
(-0.0017605627 0.00049350732 -6.5486225e-20)
(-0.0018643844 0.00048866205 1.0343861e-19)
(-0.0019663856 0.00048351093 2.9539698e-20)
(-0.0020664648 0.00047806084 -6.5940647e-20)
(-0.0021645241 0.00047231857 4.9109264e-20)
(-0.0022604691 0.00046629094 4.1442443e-20)
(-0.0023542092 0.00045998449 5.9606098e-20)
(-0.0024456585 0.00045340591 1.1995465e-19)
(-0.0025347349 0.00044656429 2.4788214e-21)
(-0.0026213595 0.00043946955 -7.9804824e-20)
(-0.0027054572 0.00043213158 -8.1508806e-20)
(-0.0027869567 0.00042456031 -1.9202601e-19)
(-0.0028657916 0.00041676585 -5.1205907e-20)
(-0.0029419 0.00040875872 3.2919721e-20)
(-0.0030152248 0.0004005499 -4.5702446e-20)
(-0.0030857139 0.00039215081 -1.246588e-19)
(-0.0031533201 0.00038357335 -4.5757714e-20)
(-0.0032180012 0.00037482982 1.5543202e-19)
(-0.0032797204 0.00036593293 1.0223047e-20)
(-0.0033384456 0.00035689575 -1.9641403e-19)
(-0.0033941506 0.00034773168 -7.0304243e-20)
(-0.0034468138 0.00033845439 1.5244552e-19)
(-0.0034964193 0.00032907777 1.646419e-19)
(-0.0035429564 0.00031961593 -5.1376925e-20)
(-0.0035864196 0.00031008305 -1.7259161e-19)
(-0.0036268087 0.00030049342 -7.2012404e-20)
(-0.0036641285 0.00029086135 1.4054754e-19)
(-0.003698389 0.00028120106 2.1178359e-19)
(-0.0037296051 0.00027152673 -4.2204578e-20)
(-0.0037577968 0.00026185235 2.7192134e-22)
(-0.0037829886 0.00025219172 -2.5428057e-19)
(-0.0038052098 0.00024255839 -2.8852988e-19)
(-0.0038244938 0.00023296562 6.1956925e-20)
(-0.0038408787 0.0002234263 6.9707694e-20)
(-0.0038544064 0.00021395297 3.2532918e-19)
(-0.0038651227 0.00020455771 4.1628726e-20)
(-0.0038730771 0.00019525214 -3.0846028e-19)
(-0.0038783227 0.0001860474 1.0827468e-19)
(-0.0038809154 0.00017695409 1.4449065e-19)
(-0.0038809147 0.00016798227 -2.9622603e-20)
(-0.0038783822 0.00015914141 -1.3017989e-19)
(-0.0038733825 0.00015044038 -1.3213919e-19)
(-0.0038659821 0.00014188746 1.4943202e-19)
(-0.0038562499 0.00013349031 3.1034145e-20)
(-0.0038442562 0.00012525594 -3.158002e-19)
(-0.0038300732 0.00011719074 -4.9441595e-20)
(-0.003813774 0.00010930046 2.3914798e-19)
(-0.003795433 0.00010159021 6.200862e-20)
(-0.0037751255 9.4064506e-05 -6.9097639e-20)
(-0.0037529273 8.6727197e-05 7.9271742e-20)
(-0.0037289145 7.9581566e-05 5.6874325e-20)
(-0.0037031635 7.2630271e-05 -2.1302949e-19)
(-0.0036757508 6.5875429e-05 -8.2687869e-20)
(-0.0036467524 5.9318581e-05 8.0941466e-21)
(-0.0036162442 5.2960751e-05 -2.5654661e-20)
(-0.0035843015 4.680246e-05 1.7802473e-20)
(-0.0035509986 4.0843738e-05 1.8458715e-20)
(-0.0035164092 3.5084131e-05 -8.256884e-20)
(-0.003480606 2.9522709e-05 -5.8810353e-20)
(-0.0034436603 2.4158032e-05 1.717435e-19)
(-0.0034056424 1.8988159e-05 1.2616184e-19)
(-0.0033666214 1.4010704e-05 -2.0896442e-19)
(-0.0033266665 9.2231802e-06 -3.5992755e-19)
(-0.0032858451 4.6238486e-06 -7.8428502e-20)
(-0.003244223 2.1608192e-07 1.4169961e-19)
(-0.0032018523 -3.9649612e-06 1.3819222e-21)
(-0.0031587932 -7.954512e-06 -1.7944137e-19)
(-0.003115111 -1.1774438e-05 -1.9450389e-20)
(-0.0030708586 -1.5428384e-05 6.8619677e-20)
(-0.0030260919 -1.8919237e-05 2.7458072e-21)
(-0.0029808649 -2.2250293e-05 -2.2915811e-20)
(-0.0029352294 -2.5425131e-05 -1.8430831e-19)
(-0.002889235 -2.8447604e-05 -6.3927024e-20)
(-0.0028429291 -3.1321761e-05 1.560065e-19)
(-0.0027963572 -3.4051811e-05 1.4776275e-19)
(-0.0027495626 -3.6642051e-05 -3.9808345e-20)
(-0.0027025868 -3.909686e-05 -1.9891086e-19)
(-0.0026554696 -4.1420657e-05 4.9436547e-21)
(-0.0026082485 -4.3617876e-05 9.5895697e-20)
(-0.0025609594 -4.5692978e-05 8.6550842e-20)
(-0.0025136364 -4.7650392e-05 8.6732623e-20)
(-0.0024663117 -4.9494543e-05 -1.4535026e-19)
(-0.0024190158 -5.1229788e-05 -1.0734787e-19)
(-0.0023717774 -5.2860477e-05 -8.4401204e-21)
(-0.0023246235 -5.439089e-05 5.0625055e-21)
(-0.0022775798 -5.5825225e-05 1.3242848e-19)
(-0.0022306699 -5.7167623e-05 3.1546818e-20)
(-0.0021839163 -5.8422138e-05 -2.6471633e-20)
(-0.0021373398 -5.9592754e-05 -1.6218395e-20)
(-0.0020909597 -6.0683348e-05 7.3411899e-20)
(-0.0020447941 -6.1697716e-05 9.9275154e-20)
(-0.0019988595 -6.2639542e-05 -6.4050848e-20)
(-0.0019531714 -6.3512432e-05 -5.4107361e-20)
(-0.0019077437 -6.4319878e-05 -7.1400318e-20)
(-0.0018625894 -6.5065269e-05 -1.1722149e-19)
(-0.0018177203 -6.575189e-05 7.7307593e-21)
(-0.0017731469 -6.6382921e-05 9.9063409e-20)
(-0.0017288787 -6.6961447e-05 7.3052835e-20)
(-0.0016849244 -6.7490439e-05 2.4545458e-20)
(-0.0016412914 -6.7972771e-05 -4.8948249e-20)
(-0.0015979865 -6.8411206e-05 -6.82447e-20)
(-0.0015550154 -6.880841e-05 -7.874105e-20)
(-0.0015123831 -6.9166943e-05 4.7438201e-21)
(-0.0014700936 -6.9489273e-05 4.8312968e-20)
(-0.0014281504 -6.9777758e-05 5.4121755e-20)
(-0.0013865561 -7.0034667e-05 3.4543814e-20)
(-0.0013453128 -7.026217e-05 -4.3444989e-20)
(-0.0013044217 -7.046235e-05 -2.2574473e-20)
(-0.0012638837 -7.0637188e-05 2.992676e-20)
(-0.0012236988 -7.0788593e-05 5.8914227e-20)
(-0.0011838668 -7.0918379e-05 3.3994156e-20)
(-0.0011443867 -7.1028276e-05 -1.7634381e-20)
(-0.0011052572 -7.1119931e-05 4.6431043e-21)
(-0.0010664767 -7.1194918e-05 -2.6772756e-20)
(-0.0010280427 -7.1254728e-05 8.1464632e-21)
(-0.00098995288 -7.1300775e-05 6.0368615e-20)
(-0.0009522042 -7.1334414e-05 1.9718973e-20)
(-0.00091479342 -7.1356911e-05 1.8248193e-20)
(-0.00087771696 -7.1369484e-05 -6.9449945e-21)
(-0.00084097098 -7.1373273e-05 -3.1906364e-20)
(-0.00080455137 -7.1369349e-05 -3.6345433e-20)
(-0.00076845378 -7.1358737e-05 7.8057564e-21)
(-0.00073267365 -7.1342386e-05 7.6578442e-21)
(-0.00069720621 -7.1321197e-05 -2.0844244e-20)
(-0.00066204653 -7.1296012e-05 -1.0418145e-20)
(-0.00062718953 -7.1267602e-05 1.5788035e-20)
(-0.00059262997 -7.1236711e-05 3.4538514e-21)
(-0.00055836249 -7.120399e-05 1.4152801e-20)
(-0.00052438167 -7.1170062e-05 2.2936816e-21)
(-0.00049068195 -7.1135468e-05 -6.9550932e-21)
(-0.00045725773 -7.1100693e-05 1.5171098e-20)
(-0.00042410337 -7.1066136e-05 -1.7869158e-20)
(-0.00039121317 -7.1032082e-05 -2.6849009e-21)
(-0.00035858141 -7.0998683e-05 2.6448133e-20)
(-0.00032620233 -7.0965892e-05 2.817477e-20)
(-0.00029407011 -7.0933341e-05 2.0428475e-20)
(-0.00026217878 -7.090021e-05 4.7372098e-21)
(-0.00023052192 -7.0864998e-05 7.0915565e-21)
(-0.00019909218 -7.0825517e-05 -2.4237829e-20)
(-0.00016788031 -7.077961e-05 -5.3283744e-21)
(-0.00013687408 -7.0728458e-05 2.1273199e-20)
(-0.00010605678 -7.0687156e-05 5.9137814e-21)
(-7.5402951e-05 -7.0708198e-05 1.3246928e-20)
(-4.4896792e-05 -7.0917038e-05 1.5915873e-20)
(-1.4793497e-05 -7.1448911e-05 2.5629669e-20)
(-8.6118598e-05 0.00075589707 -6.3592757e-19)
(-0.00019663937 0.00075957727 -4.3453994e-19)
(-0.00032154206 0.00076219514 -1.290963e-19)
(-0.0004416814 0.00076432699 7.3162246e-20)
(-0.00056513195 0.00076514875 -2.7058122e-19)