/*--------------------------------*- C++ -*----------------------------------*\
| =========                 |                                                 |
| \\      /  F ield         | OpenFOAM: The Open Source CFD Toolbox           |
|  \\    /   O peration     | Version:  2306                                  |
|   \\  /    A nd           | Website:  www.openfoam.com                      |
|    \\/     M anipulation  |                                                 |
\*---------------------------------------------------------------------------*/
FoamFile
{
    version     2.0;
    format      ascii;
    arch        "LSB;label=32;scalar=64";
    class       volVectorField;
    location    "0.41";
    object      U;
}
// * * * * * * * * * * * * * * * * * * * * * * * * * * * * * * * * * * * * * //

dimensions      [0 1 -1 0 0 0 0];

internalField   nonuniform List<vector> 
6400
(
(0.00053541292 0.0031974267 2.3000407e-19)
(0.00062791629 0.0030791933 8.6964672e-20)
(0.00071184645 0.0029625675 -1.4846668e-19)
(0.00078775726 0.0028477539 -3.9156635e-20)
(0.00085617309 0.0027349229 -6.0724689e-20)
(0.00091758887 0.0026242151 1.3569167e-19)
(0.00097247119 0.0025157443 5.0908037e-20)
(0.0010212591 0.0024096009 1.8092746e-19)
(0.0010643649 0.002305855 1.0713306e-19)
(0.0011021757 0.0022045587 1.0918419e-19)
(0.0011350547 0.0021057486 1.184902e-19)
(0.0011633417 0.0020094481 1.7172435e-19)
(0.0011873553 0.0019156687 1.302823e-20)
(0.0012073934 0.0018244121 -6.0684682e-20)
(0.0012237347 0.0017356716 -3.1395554e-20)
(0.0012366398 0.001649433 2.5268287e-20)
(0.0012463527 0.0015656763 3.8799806e-22)
(0.0012531011 0.0014843758 3.1673624e-20)
(0.0012570984 0.0014055021 -4.7182465e-20)
(0.0012585438 0.0013290216 -1.9940762e-20)
(0.0012576237 0.001254898 5.3046163e-20)
(0.0012545126 0.0011830919 -2.1286637e-20)
(0.0012493734 0.0011135629 -7.5502334e-21)
(0.0012423588 0.0010462683 -4.510122e-20)
(0.0012336116 0.00098116389 -2.1600731e-20)
(0.0012232652 0.00091820521 4.737342e-20)
(0.0012114445 0.00085734651 6.5479722e-21)
(0.0011982666 0.00079854185 1.0095905e-21)
(0.001183841 0.00074174496 1.2839032e-20)
(0.0011682697 0.00068690904 -6.2511972e-21)
(0.0011516485 0.0006339881 3.9735653e-21)
(0.0011340671 0.00058293546 8.3317063e-20)
(0.0011156092 0.00053370545 8.3069622e-20)
(0.0010963526 0.00048625238 1.114155e-20)
(0.0010763706 0.00044053125 -5.3835621e-22)
(0.0010557317 0.00039649659 1.2502522e-20)
(0.0010344995 0.000354105 7.047827e-21)
(0.001012733 0.00031331342 4.2442936e-20)
(0.00099048776 0.00027407932 8.0293866e-21)
(0.0009678157 0.00023636067 -5.2619684e-20)
(0.00094476551 0.00020011661 -1.1162951e-20)
(0.00092138158 0.00016530632 4.3611163e-20)
(0.00089770352 0.00013189101 2.0842959e-20)
(0.00087377149 9.9831302e-05 -4.4975805e-22)
(0.00084962193 6.9092019e-05 -1.7892734e-20)
(0.00082528703 3.9634881e-05 -9.3124425e-21)
(0.00080079824 1.1424967e-05 3.0947351e-20)
(0.00077618372 -1.5573428e-05 3.0264297e-20)
(0.00075146917 -4.1391957e-05 -2.26885e-20)
(0.00072667846 -6.6063893e-05 -1.5086557e-20)
(0.00070183404 -8.9621024e-05 3.4127326e-21)
(0.00067695642 -0.00011209385 4.1921757e-21)
(0.00065206424 -0.00013351208 2.7744368e-20)
(0.00062717463 -0.00015390393 2.4204165e-20)
(0.00060230327 -0.00017329728 -9.2565845e-21)
(0.0005774643 -0.00019171849 3.4462992e-21)
(0.00055267068 -0.00020919324 1.4030719e-20)
(0.00052793406 -0.00022574599 2.7294526e-20)
(0.00050326499 -0.0002414004 5.4766728e-21)
(0.00047867295 -0.00025617913 -2.6650962e-20)
(0.00045416648 -0.00027010391 -2.7584037e-21)
(0.00042975314 -0.00028319544 1.3349917e-21)
(0.00040543971 -0.0002954734 1.5119116e-20)
(0.00038123215 -0.00030695671 6.2417908e-21)
(0.00035713568 -0.00031766321 -1.1331147e-20)
(0.0003331549 -0.00032761001 -4.5661644e-22)
(0.00030929374 -0.00033681303 3.0389868e-21)
(0.00028555562 -0.00034528763 1.5293044e-20)
(0.00026194347 -0.00035304799 4.6674984e-21)
(0.00023845974 -0.00036010765 -1.1724799e-20)
(0.00021510648 -0.00036647927 7.4639114e-21)
(0.00019188526 -0.00037217437 6.2314573e-21)
(0.00016879747 -0.00037720413 3.151151e-21)
(0.0001458442 -0.00038157889 2.5437626e-21)
(0.00012302625 -0.00038530926 4.4705975e-21)
(0.00010034496 -0.0003884062 1.2461472e-20)
(7.7801412e-05 -0.00039088354 -6.8346358e-22)
(5.5387276e-05 -0.00039276132 -7.4920227e-21)
(3.3085507e-05 -0.00039407057 -1.6619246e-20)
(1.0951308e-05 -0.00039483744 -2.6431006e-20)
(0.00042020363 0.0030937892 -1.6985966e-20)
(0.00051398047 0.0029832255 1.1341316e-19)
(0.00059941703 0.0028738479 -9.5240794e-20)
(0.0006770313 0.0027658779 -2.7287442e-19)
(0.00074731551 0.0026595033 -2.4386147e-19)
(0.00081073625 0.0025548825 -5.7399192e-20)
(0.00086773493 0.002452147 -6.826921e-20)
(0.00091872845 0.0023514048 6.7644189e-20)
(0.00096410983 0.0022527436 -8.9346386e-20)
(0.0010042492 0.002156232 -5.2017867e-20)
(0.0010394947 0.0020619232 4.0998235e-20)
(0.0010701736 0.0019698561 1.089701e-19)
(0.001096593 0.0018800574 -5.8489402e-20)
(0.0011190413 0.0017925432 -2.0188097e-19)
(0.001137789 0.0017073203 -1.0640054e-19)
(0.0011530897 0.0016243875 -1.9828943e-20)
(0.0011651812 0.0015437369 -2.9538831e-20)
(0.0011742861 0.0014653547 -3.0469102e-20)
(0.0011806134 0.0013892219 -1.008127e-19)
(0.0011843587 0.0013153154 -5.7291637e-20)
(0.0011857054 0.0012436085 1.1634843e-20)
(0.0011848252 0.001174071 -3.9360412e-21)
(0.0011818793 0.0011066709 -2.3837177e-20)
(0.0011770184 0.0010413734 -4.9817613e-20)
(0.0011703839 0.00097814221 -2.5317044e-20)
(0.0011621083 0.00091693966 1.5358003e-20)
(0.0011523158 0.00085772685 2.7730381e-21)
(0.0011411227 0.000800464 -2.793836e-22)
(0.0011286381 0.00074511084 -2.2707927e-20)
(0.0011149641 0.00069162632 1.7179894e-20)
(0.0011001962 0.00063996963 5.0540452e-20)
(0.0010844242 0.00059009915 4.8030323e-20)
(0.0010677319 0.0005419737 2.7941683e-20)
(0.0010501978 0.00049555222 -8.1733342e-21)
(0.0010318951 0.00045079398 -2.5841822e-21)
(0.0010128928 0.00040765812 8.7048313e-21)
(0.00099325559 0.00036610449 2.5954694e-21)
(0.00097304301 0.00032609288 5.2970877e-21)
(0.00095231099 0.00028758474 -1.5065857e-20)
(0.0009311124 0.00025054177 -3.5006364e-20)
(0.0009094952 0.00021492577 -2.2901252e-21)
(0.00088750481 0.00018069759 2.2967132e-20)
(0.00086518435 0.00014782283 6.9433179e-21)
(0.00084257466 0.00011626643 -7.6274945e-21)
(0.00081971072 8.5990232e-05 -4.7618221e-21)
(0.00079662545 5.6962898e-05 5.5389018e-21)
(0.00077335202 2.9149982e-05 2.6059782e-20)
(0.0007499204 2.5190262e-06 1.437204e-20)
(0.00072635699 -2.2961624e-05 3.7295049e-21)
(0.00070268575 -4.7321574e-05 1.2983614e-20)
(0.00067893059 -7.0591573e-05 4.8780604e-21)
(0.00065511288 -9.2800477e-05 -1.2371695e-20)
(0.00063125218 -0.00011397626 5.1683474e-21)
(0.00060736669 -0.00013414588 2.2633308e-20)
(0.00058347302 -0.00015333559 2.035406e-20)
(0.00055958623 -0.00017157061 2.8929975e-20)
(0.00053572017 -0.00018887529 1.9824555e-20)
(0.00051188757 -0.00020527299 2.6391794e-20)
(0.00048809992 -0.0002207862 7.7622599e-21)
(0.00046436766 -0.00023543656 -7.1879637e-21)
(0.00044070023 -0.00024924488 5.9111613e-21)
(0.00041710604 -0.00026223098 -5.5526269e-21)
(0.00039359281 -0.00027441352 9.3509497e-21)
(0.0003701674 -0.00028581096 1.4207092e-20)
(0.00034683594 -0.00029644013 1.0460297e-20)
(0.00032360391 -0.00030631757 5.4782719e-21)
(0.00030047616 -0.00031545856 -3.6434193e-21)
(0.00027745694 -0.0003238779 4.8365152e-21)
(0.00025455003 -0.00033158929 1.2728188e-21)
(0.00023175879 -0.00033860573 5.8941598e-21)
(0.00020908598 -0.00034493931 1.2683975e-20)
(0.00018653408 -0.00035060144 7.5915912e-21)
(0.00016410535 -0.00035560271 9.1192296e-21)
(0.00014180162 -0.00035995332 5.9037791e-21)
(0.0001196245 -0.00036366349 8.676008e-21)
(9.7576058e-05 -0.00036674399 7.1368325e-21)
(7.56582e-05 -0.0003692086 2.0015653e-21)
(5.3863511e-05 -0.00037107708 2.1528859e-21)
(3.2176063e-05 -0.0003723803 -6.0687156e-21)
(1.0650399e-05 -0.00037314396 -2.2590448e-20)
(0.00031274537 0.0029906127 6.8551059e-20)
(0.00040738409 0.0028874285 8.3719051e-20)
(0.00049393004 0.002785044 -9.6422047e-20)
(0.00057286618 0.0026836944 -1.6665855e-19)
(0.00064465324 0.0025835819 -1.2186928e-19)
(0.00070972983 0.0024848794 -9.6070472e-20)
(0.0007685122 0.0023877336 -1.2828075e-19)
(0.00082139498 0.002292268 -4.5717034e-20)
(0.00086875162 0.0021985847 -7.5258658e-20)
(0.00091093474 0.0021067677 -6.7665696e-20)
(0.00094827729 0.0020168843 -2.9445159e-21)
(0.00098109305 0.0019289876 -4.5730384e-20)
(0.0010096774 0.0018431179 -1.8276754e-19)
(0.0010343086 0.0017593041 -1.4477812e-19)
(0.001055248 0.0016775656 1.676614e-21)
(0.0010727416 0.0015979131 -3.0507638e-20)
(0.0010870204 0.00152035 -1.2380064e-19)
(0.0010983014 0.001444873 -1.2381878e-19)
(0.0011067887 0.0013714736 -6.9911252e-20)
(0.0011126736 0.0013001379 -1.5249838e-20)
(0.0011161358 0.0012308486 6.526465e-21)
(0.0011173439 0.0011635841 -4.7864658e-20)
(0.0011164565 0.00109832 -9.517557e-20)
(0.0011136223 0.0010350297 -1.0449838e-20)
(0.0011089808 0.00097368402 -1.4771069e-20)
(0.0011026631 0.00091425178 -9.8060807e-21)
(0.0010947921 0.00085670079 -3.3687255e-20)
(0.0010854832 0.0008009973 -5.9508399e-20)
(0.0010748448 0.0007471065 -3.1356722e-20)
(0.0010629786 0.00069499314 1.2727228e-20)
(0.0010499796 0.00064462132 1.5552287e-20)
(0.0010359373 0.00059595428 -2.8849627e-20)
(0.0010209357 0.00054895556 -2.8991114e-20)
(0.0010050532 0.0005035883 1.0581954e-20)
(0.00098836363 0.00045981575 5.675938e-21)
(0.00097093574 0.00041760137 -3.5176295e-20)
(0.00095283378 0.00037690854 -4.6771112e-20)
(0.00093411855 0.00033770057 -2.1953645e-20)
(0.00091484738 0.00029994204 -7.9090348e-21)
(0.00089507234 0.00026359734 -2.080107e-20)
(0.00087484173 0.00022863131 8.3656235e-21)
(0.00085420378 0.00019501015 -1.3703084e-20)
(0.00083320169 0.00016269908 -8.7756619e-21)
(0.00081187265 0.00013166645 -3.7565322e-22)
(0.00079025622 0.00010187625 -1.2123523e-20)
(0.00076838806 7.33003e-05 -5.0809339e-21)
(0.00074629922 4.590644e-05 -9.091304e-21)
(0.00072402039 1.966285e-05 -2.0222174e-20)
(0.00070157998 -5.4580966e-06 9.3680161e-21)
(0.00067900293 -2.9487006e-05 2.8941402e-20)
(0.0006563126 -5.245059e-05 1.1031356e-20)
(0.00063353202 -7.4376796e-05 -2.590863e-20)
(0.0006106817 -9.5291919e-05 -1.9892901e-20)
(0.00058778062 -0.00011522173 4.2068685e-21)
(0.00056484624 -0.00013419083 9.891489e-21)
(0.00054189452 -0.00015222322 1.8463809e-20)
(0.00051894029 -0.00016934209 2.5768253e-21)
(0.00049599705 -0.00018556961 8.6144277e-21)
(0.00047307711 -0.00020092713 -9.3865573e-22)
(0.00045019188 -0.00021543531 -7.7878829e-21)
(0.0004273516 -0.00022911395 5.8453581e-21)
(0.00040456561 -0.00024198197 -1.2995142e-20)
(0.00038184243 -0.00025405737 2.6328093e-21)
(0.00035918983 -0.00026535761 3.6179134e-21)
(0.00033661478 -0.00027589889 2.6089365e-21)
(0.00031412353 -0.00028569707 9.1030464e-22)
(0.00029172177 -0.00029476687 -1.4209079e-20)
(0.0002694146 -0.00030312236 -3.8691615e-21)
(0.00024720663 -0.00031077691 -2.8710543e-21)
(0.00022510192 -0.00031774285 9.5707309e-22)
(0.00020310408 -0.00032403195 5.6898876e-21)
(0.00018121648 -0.00032965516 -3.1618873e-21)
(0.00015944207 -0.00033462276 4.5907563e-22)
(0.0001377834 -0.00033894463 -2.5341164e-21)
(0.00011624288 -0.0003426307 -1.6230754e-21)
(9.482328e-05 -0.00034569154 -2.3381754e-21)
(7.3527252e-05 -0.00034814077 -2.8436105e-21)
(5.2348352e-05 -0.00034999797 -5.1161063e-21)
(3.1271765e-05 -0.00035129375 -1.1739368e-20)
(1.0351173e-05 -0.00035205343 -1.8497515e-20)
(0.00021272436 0.0028882019 2.1581209e-19)
(0.00030784969 0.0027921004 1.8741426e-20)
(0.00039514105 0.0026964462 -9.2639138e-20)
(0.00047504746 0.0026014851 -9.0545663e-20)
(0.00054799903 0.0025074305 -4.2507488e-20)
(0.00061440664 0.0024144675 -1.179415e-19)
(0.0006746618 0.0023227555 -1.8530424e-19)
(0.00072913699 0.0022324306 -7.5790804e-20)
(0.0007781859 0.0021436079 -1.9362253e-21)
(0.00082214365 0.0020563844 -6.2692344e-20)
(0.00086132744 0.00197084 -9.3475845e-20)
(0.00089603729 0.0018870404 -1.1478936e-19)
(0.00092655651 0.0018050377 -2.4728205e-20)
(0.00095315244 0.0017248728 3.2567849e-20)
(0.00097607725 0.0016465764 -6.0583289e-21)
(0.00099556859 0.0015701699 -7.1920283e-20)
(0.0010118503 0.001495667 -8.5521231e-20)
(0.001025133 0.0014230744 7.0880842e-21)
(0.0010356152 0.001352393 -8.2184263e-21)
(0.0010434836 0.0012836178 5.6424235e-21)
(0.0010489138 0.0012167401 -4.0430543e-20)
(0.0010520711 0.0011517462 -6.012066e-20)
(0.0010531107 0.0010886195 -1.7671896e-20)
(0.0010521789 0.0010273405 8.4129404e-21)
(0.0010494129 0.00096788687 -5.4141171e-21)
(0.0010449421 0.00091023408 -3.906797e-20)
(0.0010388878 0.00085435582 -5.279133e-20)
(0.0010313642 0.00080022441 -1.4103955e-20)
(0.0010224785 0.00074781036 4.0064892e-21)
(0.0010123314 0.0006970836 2.0683332e-20)
(0.0010010178 0.00064801328 2.5179211e-20)
(0.00098862658 0.00060056726 -2.0925e-20)
(0.00097524113 0.00055471368 -1.6971824e-20)
(0.00096094002 0.00051041981 2.0149354e-20)
(0.00094579678 0.00046765282 8.2344303e-21)
(0.00092988033 0.00042637951 -4.2709462e-21)
(0.00091325537 0.00038656729 -3.5873492e-20)
(0.00089598274 0.00034818349 -6.8559985e-21)
(0.00087811922 0.00031119516 -1.8975469e-21)
(0.00085971802 0.00027556961 4.4506615e-21)
(0.00084082911 0.00024127512 1.7971418e-20)
(0.0008214983 0.00020828135 -3.4196381e-21)
(0.00080177068 0.00017655474 1.983557e-20)
(0.00078168594 0.0001460649 7.4179684e-21)
(0.00076128262 0.00011678373 7.1012759e-21)
(0.00074059736 8.8678774e-05 2.9641574e-21)
(0.00071965976 6.172293e-05 -1.1639207e-20)
(0.0006985043 3.5888015e-05 -7.7544371e-21)
(0.00067715881 1.1143217e-05 8.5678788e-22)
(0.00065564802 -1.2537712e-05 3.8381875e-20)
(0.00063399835 -3.5176518e-05 2.7175582e-20)
(0.00061223164 -5.6802555e-05 -2.6951626e-21)
(0.00059036999 -7.7440284e-05 5.6972948e-21)
(0.00056843309 -9.7113887e-05 4.3396237e-21)
(0.00054643915 -0.0001158466 7.5338456e-21)
(0.00052440499 -0.00013366107 8.8885354e-21)
(0.00050234602 -0.00015057937 2.2755584e-22)
(0.00048027664 -0.0001666225 1.3567215e-20)
(0.00045821011 -0.0001818107 -6.8354859e-22)
(0.00043615859 -0.0001961637 -1.2525934e-21)
(0.00041413305 -0.00020970024 8.2985204e-21)
(0.00039214367 -0.00022243847 -7.6546395e-21)
(0.0003701999 -0.00023439554 1.5606086e-20)
(0.00034831015 -0.00024558797 1.4993752e-20)
(0.00032648212 -0.00025603143 3.6247516e-21)
(0.00030472294 -0.000265741 -5.5018052e-21)
(0.00028303914 -0.00027473093 -1.0946044e-20)
(0.00026143653 -0.00028301455 8.3839943e-21)
(0.00023992047 -0.00029060472 5.1027693e-21)
(0.00021849582 -0.00029751336 2.4835651e-21)
(0.00019716692 -0.00030375182 4.0253742e-21)
(0.00017593785 -0.00030933051 5.6494474e-22)
(0.00015481227 -0.00031425952 6.7757408e-21)
(0.00013379352 -0.00031854838 8.4888264e-21)
(0.00011288479 -0.00032220667 -6.2692922e-22)
(9.208953e-05 -0.00032524472 -3.1751385e-21)
(7.1410971e-05 -0.00032767608 5.3055764e-21)
(5.0843536e-05 -0.0003295201 2.0248221e-21)
(3.0373575e-05 -0.00033080709 -1.695414e-20)
(1.0053972e-05 -0.00033156205 -1.9907497e-20)
(0.00011982425 0.002786828 4.0445786e-19)
(0.00021509431 0.0026975087 2.2724448e-19)
(0.00030279893 0.0026083173 -1.4284662e-19)
(0.00038335289 0.0025195064 5.6982437e-20)
(0.00045715665 0.0024312984 1.0166356e-19)
(0.00052459411 0.002343888 9.2276686e-20)
(0.00058603259 0.0022574449 5.2299758e-20)
(0.00064182264 0.0021721159 5.1641359e-20)
(0.00069229824 0.0020880274 1.4822312e-19)
(0.00073777693 0.0020052872 5.4885368e-20)
(0.00077856017 0.0019239863 7.7612753e-20)
(0.00081493389 0.0018442013 1.0981243e-19)
(0.00084716893 0.0017659951 7.0326671e-20)
(0.00087552163 0.001689419 9.2470531e-20)
(0.00090023431 0.0016145138 3.8050665e-20)
(0.00092153594 0.001541311 6.4063262e-20)
(0.00093964272 0.0014698334 1.3198514e-19)
(0.00095475864 0.0014000971 4.5874082e-20)
(0.00096707628 0.0013321112 -2.4222351e-20)
(0.00097677716 0.0012658795 3.344877e-20)
(0.00098403238 0.0012014009 2.0431526e-20)
(0.00098900327 0.0011386694 3.6982083e-20)
(0.00099184168 0.0010776755 3.7805838e-20)
(0.00099269081 0.0010184063 -1.3766757e-21)
(0.00099168561 0.00096084631 3.1968142e-20)
(0.00098895295 0.00090497701 9.1259303e-21)
(0.00098461241 0.00085077775 1.934269e-20)
(0.00097877669 0.00079822659 -3.6124898e-22)
(0.00097155167 0.00074729927 -4.6381593e-21)
(0.0009630369 0.00069797072 1.0098553e-20)
(0.00095332632 0.00065021482 -3.73172e-21)
(0.00094250819 0.00060400385 3.4065791e-20)
(0.00093066545 0.00055931038 5.7788653e-20)
(0.00091787606 0.00051610547 3.8519362e-20)
(0.00090421329 0.00047436044 1.5325976e-20)
(0.00088974614 0.00043404563 3.2778489e-21)
(0.00087453932 0.0003951319 1.2306586e-20)
(0.00085865355 0.00035758971 3.7865131e-20)
(0.00084214572 0.00032138952 7.2039836e-21)
(0.00082506948 0.0002865021 2.1393721e-20)
(0.00080747551 0.00025289815 8.8590367e-21)
(0.00078940988 0.00022054801 3.1229654e-21)
(0.00077091607 0.00018942473 3.3862301e-20)
(0.00075203628 0.00015949755 1.9969111e-20)
(0.00073280836 0.00013074129 5.4710756e-21)
(0.00071326939 0.00010312639 -2.1210571e-22)
(0.00069345406 7.6625304e-05 1.4922162e-20)
(0.00067338946 5.1214969e-05 3.5246696e-20)
(0.00065310613 2.6864976e-05 -7.5935191e-22)
(0.00063263815 3.5540373e-06 1.4857796e-20)
(0.00061200555 -1.8746883e-05 9.7681296e-21)
(0.00059122857 -4.0057305e-05 5.0226603e-22)
(0.0005703333 -6.0402207e-05 3.2414431e-20)
(0.00054933981 -7.9804405e-05 9.7178464e-21)
(0.00052826673 -9.8285958e-05 9.4356999e-21)
(0.00050713173 -0.00011586835 9.6366447e-21)
(0.00048595109 -0.00013257229 6.3510964e-21)
(0.00046473982 -0.00014841779 2.4522264e-20)
(0.00044351183 -0.00016342398 -4.0351688e-21)
(0.00042228002 -0.00017760962 -2.936849e-21)
(0.00040105624 -0.00019099251 4.454885e-21)
(0.00037985146 -0.00020358989 -9.6760624e-21)
(0.00035867567 -0.00021541801 1.6557073e-20)
(0.00033753804 -0.0002264928 1.4224193e-20)
(0.00031644722 -0.00023682911 6.4061316e-21)
(0.000295411 -0.00024644136 7.7914765e-22)
(0.00027443647 -0.00025534312 -8.5010761e-21)
(0.00025353031 -0.00026354737 1.7147497e-20)
(0.00023269858 -0.00027106614 6.6293341e-21)
(0.00021194683 -0.0002779111 5.3612019e-22)
(0.00019128017 -0.00028409299 4.6617514e-21)
(0.00017070329 -0.00028962192 4.3649243e-21)
(0.00015022056 -0.00029450768 1.2491021e-20)
(0.00012983612 -0.00029875948 1.2912183e-20)
(0.00010955371 -0.00030238644 1.4668155e-20)
(8.9377433e-05 -0.00030539887 5.6244635e-21)
(6.931127e-05 -0.00030781001 -3.2966634e-21)
(4.9350485e-05 -0.00030963907 -2.9789184e-21)
(2.9482446e-05 -0.00031091602 -2.3964666e-20)
(9.7591299e-06 -0.00031166545 -3.0190663e-20)
(3.373772e-05 0.00268672 1.8856022e-19)
(0.00012883181 0.0026038917 3.5782525e-19)
(0.00021664797 0.0025208931 -7.4252702e-20)
(0.00029755446 0.0024379902 -9.6199979e-20)
(0.00037192332 0.0023554122 4.0100413e-20)
(0.00044011259 0.0022733614 1.6253374e-19)
(0.00050246581 0.0021920157 1.6516158e-19)
(0.00055931211 0.0021115309 3.3357469e-20)
(0.00061096602 0.0020320425 -1.3687281e-20)
(0.00065772739 0.0019536675 5.7848503e-20)
(0.00069988208 0.0018765068 1.5606696e-19)
(0.00073770199 0.0018006462 1.7285775e-19)
(0.00077144518 0.0017261582 1.2132688e-20)
(0.00080135665 0.0016531032 8.2898203e-21)
(0.00082766868 0.0015815312 2.4173304e-20)
(0.00085060127 0.0015114824 8.9907197e-20)
(0.00087036269 0.0014429884 1.2206443e-19)
(0.0008871499 0.0013760733 -1.2698936e-20)
(0.00090114914 0.0013107543 1.1795323e-21)
(0.00091253643 0.0012470428 1.362849e-20)
(0.0009214781 0.0011849449 4.4365936e-20)
(0.00092813108 0.0011244619 6.6029851e-20)
(0.00093264361 0.0010655908 -3.6906735e-21)
(0.00093515557 0.0010083251 -2.8303087e-20)
(0.00093579899 0.00095265523 3.7786497e-20)
(0.00093469835 0.00089856876 3.4961821e-20)
(0.00093197101 0.0008460505 1.3650527e-20)
(0.00092772781 0.00079508357 -8.9551681e-21)
(0.00092207303 0.00074564895 1.8624894e-21)
(0.00091510501 0.0006977263 -1.5479157e-20)
(0.00090691643 0.00065129399 -1.3264693e-20)
(0.00089759469 0.0006063286 7.3083859e-20)
(0.00088722201 0.00056280671 6.9833171e-20)
(0.00087587566 0.00052070333 4.9605861e-21)
(0.00086362856 0.00047999357 -1.0956051e-20)
(0.00085054937 0.00044065146 -1.1000479e-20)
(0.00083670255 0.00040265103 5.8498334e-20)
(0.00082214877 0.00036596584 5.836662e-20)
(0.00080694499 0.00033056961 -2.8783288e-20)
(0.00079114469 0.00029643586 -4.327347e-20)
(0.00077479783 0.00026353807 -5.5031237e-21)
(0.00075795214 0.0002318488 5.0978361e-20)
(0.00074065164 0.00020134318 2.1571135e-20)
(0.00072293788 0.000171995 -4.3831619e-21)
(0.00070485029 0.00014377831 -1.1171889e-20)
(0.00068642384 0.00011666955 -5.2050463e-22)
(0.00066769434 9.0641438e-05 3.3000257e-20)
(0.00064869335 6.5668988e-05 3.2248739e-20)
(0.00062945027 4.173143e-05 6.3668138e-21)
(0.00060999134 1.8804259e-05 -4.0686116e-21)
(0.00059034501 -3.140579e-06 -1.483615e-20)
(0.00057053695 -2.4120646e-05 -1.6563988e-21)
(0.00055058611 -4.4158157e-05 2.1562071e-20)
(0.00053051489 -6.3274914e-05 3.2326081e-21)
(0.00051034295 -8.1491684e-05 -2.745773e-21)
(0.00049008858 -9.8828724e-05 1.0295454e-20)
(0.00046976869 -0.00011530564 1.622102e-20)
(0.00044939902 -0.00013094123 2.2691979e-20)
(0.00042899426 -0.00014575362 -7.2366625e-21)
(0.00040856786 -0.00015976052 -1.4340458e-20)
(0.00038813236 -0.00017297897 -1.3814419e-21)
(0.00036769932 -0.00018542511 -1.436555e-20)
(0.00034727958 -0.00019711458 3.020182e-21)
(0.0003268831 -0.00020806242 6.5659606e-21)
(0.00030651904 -0.00021828282 -4.1407141e-21)
(0.00028619588 -0.00022778951 3.3132049e-21)
(0.00026592151 -0.00023659547 -7.5559833e-21)
(0.00024570317 -0.00024471307 7.1246855e-21)
(0.00022554758 -0.00025215397 9.8250551e-21)
(0.00020546102 -0.00025892915 1.8561756e-21)
(0.00018544925 -0.000265049 9.813692e-21)
(0.00016551764 -0.00027052328 8.5596828e-21)
(0.00014567126 -0.00027536136 9.1707985e-21)
(0.0001259148 -0.00027957217 6.0403898e-21)
(0.00010625264 -0.00028316451 6.7457833e-21)
(8.6689623e-05 -0.00028614867 5.370763e-21)
(6.7230261e-05 -0.00028853739 -3.2700153e-21)
(4.7870588e-05 -0.00029034981 -8.6274849e-21)
(2.8599067e-05 -0.00029161555 -2.3148041e-20)
(9.4668046e-06 -0.00029235874 -3.1661341e-20)
(-4.5868366e-05 0.002588098 2.9085317e-20)
(4.8786405e-05 0.00251146 1.8851455e-19)
(0.00013643101 0.002434385 -3.4117317e-20)
(0.00021742057 0.0023571457 -3.4278096e-19)
(0.00029209148 0.0022799777 -1.6039466e-19)
(0.00036077658 0.002203089 -1.1947097e-20)
(0.00042379644 0.002126664 -9.4153277e-21)
(0.00048145892 0.0020508659 9.0282841e-21)
(0.00053405945 0.0019758374 -1.9348787e-19)
(0.00058188078 0.0019017035 -5.0606465e-20)
(0.00062519299 0.0018285731 7.0269376e-20)
(0.00066425377 0.0017565401 1.0375151e-19)
(0.00069930853 0.0016856852 -1.1804867e-20)
(0.0007305909 0.0016160771 -1.7783853e-19)
(0.00075832288 0.0015477737 -6.6813328e-20)
(0.00078271535 0.001480823 4.8271395e-20)
(0.00080396835 0.0014152645 2.7118707e-20)
(0.00082227146 0.0013511296 -6.0577062e-20)
(0.00083780448 0.001288443 -1.0773119e-19)
(0.00085073762 0.0012272228 -6.1771986e-20)
(0.00086123197 0.0011674819 4.5967383e-20)
(0.00086943999 0.0011092281 3.2541852e-20)
(0.00087550589 0.0010524648 -2.8003886e-20)
(0.00087956599 0.00099719133 -5.5396139e-20)
(0.00088174912 0.00094340367 -1.9762756e-21)
(0.00088217699 0.00089109506 3.7135518e-20)
(0.00088096468 0.00084025547 8.7661014e-21)
(0.00087822069 0.00079087289 -1.4316006e-20)
(0.00087404771 0.00074293317 -4.8267208e-20)
(0.00086854254 0.00069642041 -1.9291557e-20)
(0.00086179642 0.00065131727 2.7152354e-20)
(0.00085389562 0.0006076047 2.6140114e-20)
(0.00084492139 0.00056526282 1.9597168e-20)
(0.00083495045 0.00052427066 -1.4783814e-20)
(0.0008240549 0.00048460667 -9.1044469e-21)
(0.00081230275 0.00044624856 -4.0955381e-21)
(0.00079975829 0.00040917337 1.6421815e-20)
(0.00078648189 0.00037335785 -3.8094935e-23)
(0.0007725303 0.00033877852 -3.2256513e-20)
(0.00075795701 0.0003054116 -4.3141013e-20)
(0.00074281212 0.00027323341 -8.8287646e-21)
(0.00072714295 0.00024222028 1.6296802e-20)
(0.00071099404 0.00021234794 -2.191198e-21)
(0.00069440714 0.00018359367 -1.1306787e-22)
(0.00067742245 0.00015593336 5.4551432e-24)
(0.00066007562 0.00012934293 1.314426e-20)
(0.00064239997 0.00010380138 1.8866667e-20)
(0.0006244292 7.9283882e-05 -1.1300705e-20)
(0.00060619413 5.5769766e-05 -2.7860003e-21)
(0.00058772174 3.3235855e-05 6.5157519e-21)
(0.00056903893 1.166354e-05 3.3906354e-21)
(0.00055017179 -8.9716703e-06 -7.934626e-21)
(0.00053114239 -2.8688413e-05 -3.7055895e-21)
(0.00051197192 -4.7506733e-05 2.586616e-21)
(0.00049268079 -6.544619e-05 7.2045235e-22)
(0.00047328792 -8.2525691e-05 1.7430979e-20)
(0.00045381085 -9.8763814e-05 1.3118927e-20)
(0.00043426596 -0.00011417815 1.2309286e-20)
(0.00041466848 -0.00012878578 -4.0019689e-21)
(0.00039503255 -0.00014260347 -7.6060505e-21)
(0.00037537131 -0.00015564736 1.0077337e-20)
(0.00035569701 -0.00016793272 -1.5879608e-20)
(0.00033602107 -0.00017947437 -1.6595033e-20)
(0.00031635407 -0.00019028658 2.7979174e-21)
(0.00029670576 -0.0002003829 4.6787633e-21)
(0.00027708538 -0.00020977633 6.9403849e-21)
(0.00025750135 -0.00021847933 -9.2301377e-21)
(0.00023796159 -0.00022650361 -9.4270374e-21)
(0.00021847346 -0.00023386038 8.3682736e-21)
(0.00019904382 -0.00024056012 1.1764351e-20)
(0.00017967912 -0.00024661283 1.6201371e-20)
(0.00016038538 -0.00025202785 9.1637147e-21)
(0.00014116821 -0.00025681414 -1.1596003e-23)
(0.00012203291 -0.00026098035 5.0635318e-21)
(0.00010298453 -0.00026453505 -1.7714288e-21)
(8.4028423e-05 -0.00026748828 -4.224737e-21)
(6.5169628e-05 -0.00026985249 1.103125e-21)
(4.6405137e-05 -0.00027164667 -3.511402e-21)
(2.7724341e-05 -0.00027290013 -1.1343597e-20)
(9.1773626e-06 -0.00027363644 -2.5206332e-20)
(-0.00011931161 0.0024911633 1.3273364e-20)
(-2.5337173e-05 0.0024203958 -1.3695543e-19)
(6.189042e-05 0.0023489798 -5.3626736e-20)
(0.00014271718 0.0022771601 -6.3037198e-20)
(0.00021745051 0.0022051799 -1.369543e-20)
(0.00028639706 0.0021332531 -1.8627148e-20)
(0.00034985487 0.0020615689 -2.2481587e-19)
(0.00040811144 0.0019902956 -2.5700213e-24)
(0.00046144358 0.0019195822 -1.5683037e-20)
(0.00051011695 0.0018495601 -1.124858e-20)
(0.00055438615 0.0017803447 5.2391254e-20)
(0.00059449498 0.0017120369 -1.1589962e-19)
(0.00063067618 0.0016447246 -3.7031482e-20)
(0.00066315187 0.0015784835 -4.9388325e-21)
(0.00069213373 0.0015133783 6.8943354e-20)
(0.00071782332 0.0014494643 1.1297942e-20)
(0.00074041231 0.0013867877 -1.899741e-19)
(0.0007600829 0.0013253867 -6.5876713e-20)
(0.00077700801 0.0012652925 1.0055567e-20)
(0.00079135183 0.0012065296 2.7076461e-20)
(0.00080327014 0.0011491171 2.217639e-20)
(0.00081291055 0.0010930687 -1.1147205e-19)
(0.00082041298 0.0010383935 -4.2987531e-20)
(0.00082590995 0.00098509641 4.4249463e-20)
(0.000829527 0.00093317882 9.3243798e-21)
(0.00083138287 0.00088263901 -1.0551726e-20)
(0.00083158991 0.00083347176 -9.72652e-20)
(0.00083025445 0.0007856699 -2.5982904e-20)
(0.000827477 0.00073922354 1.5827147e-21)
(0.00082335258 0.00069412126 1.3069708e-21)
(0.00081797106 0.00065034962 1.0111623e-20)
(0.00081141725 0.00060789375 -9.4202435e-20)
(0.00080377124 0.00056673736 -3.4304696e-20)
(0.00079510882 0.0005268631 3.4593842e-20)
(0.00078550152 0.00048825278 -1.3208186e-21)
(0.00077501673 0.00045088734 -2.7567266e-20)
(0.00076371789 0.00041474695 -8.3535638e-20)
(0.00075166494 0.00037981147 -2.4425862e-20)
(0.00073891447 0.00034606013 9.5959194e-21)
(0.00072551982 0.00031347179 -2.7930966e-20)
(0.00071153109 0.00028202547 -1.2040711e-20)
(0.0006969955 0.00025169993 -6.7069902e-20)
(0.00068195777 0.00022247356 -1.965632e-20)
(0.00066645974 0.00019432502 2.2916779e-20)
(0.00065053977 0.00016723317 -1.0178578e-20)
(0.00063423546 0.00014117523 -1.7618167e-20)
(0.00061758205 0.00011613203 -4.9161446e-20)
(0.00060061171 9.2082417e-05 -3.4456474e-20)
(0.00058335528 6.9005535e-05 8.8907635e-21)
(0.00056584105 4.6880805e-05 5.1789133e-21)
(0.00054809603 2.5689584e-05 1.660347e-21)
(0.0005301461 5.4115628e-06 -3.5182085e-20)
(0.0005120147 -1.3972906e-05 -2.4788565e-20)
(0.0004937231 -3.2480823e-05 3.6574323e-21)
(0.00047529202 -5.0131479e-05 -8.7963765e-21)
(0.00045674119 -6.6942475e-05 -6.91552e-21)
(0.00043808872 -8.2930944e-05 -2.8403722e-20)
(0.00041935137 -9.8113518e-05 -7.7371556e-21)
(0.00040054493 -0.00011250633 3.1508736e-22)
(0.00038168418 -0.00012612512 -1.392058e-20)
(0.00036278282 -0.00013898511 -7.1238869e-21)
(0.00034385365 -0.00015110074 -3.6280545e-20)
(0.00032490861 -0.00016248609 -2.0372252e-20)
(0.00030595896 -0.00017315465 -7.7600141e-21)
(0.00028701505 -0.00018311928 -1.0472128e-20)
(0.00026808656 -0.00019239234 -9.8636115e-21)
(0.00024918267 -0.00020098566 -2.7246709e-20)
(0.00023031183 -0.00020891038 -1.4842798e-20)
(0.00021148193 -0.00021617724 -1.2693427e-21)
(0.00019270055 -0.00022279628 -3.708016e-21)
(0.00017397463 -0.00022877702 -3.2257079e-21)
(0.00015531076 -0.00023412844 -1.1329773e-20)
(0.00013671522 -0.00023885916 -1.1712229e-20)
(0.0001181938 -0.0002429774 -8.127951e-21)
(9.9752118e-05 -0.0002464916 -1.0325758e-20)
(8.1396033e-05 -0.00024941141 -1.2350027e-20)
(6.3131301e-05 -0.00025174921 -9.8329174e-21)
(4.4955513e-05 -0.00025352363 -1.0501158e-20)
(2.6858951e-05 -0.00025476373 -1.3683648e-20)
(8.8909902e-06 -0.00025549249 -2.2494427e-20)
(-0.00018691118 0.0023960648 2.832548e-19)
(-9.3829898e-05 0.0023308747 -5.9022126e-20)
(-7.2257264e-06 0.0022648369 -2.7791931e-19)
(7.3211714e-05 0.0021981999 -1.6062985e-19)
(0.00014778819 0.0021311851 -1.2349777e-19)
(0.00021678212 0.0020640185 -6.8205236e-20)
(0.00028046825 0.0019968926 -2.1343091e-19)
(0.00033911425 0.0019299796 -1.2092538e-19)
(0.00039297878 0.0018634329 -3.2676644e-20)
(0.00044231094 0.0017973892 -1.0392775e-19)
(0.00048735026 0.0017319693 -1.9758878e-20)
(0.00052832661 0.00166728 -9.0137485e-20)
(0.0005654602 0.001603415 -3.1109139e-20)
(0.00059896175 0.001540456 2.0444033e-20)
(0.00062903265 0.001478474 -5.2791521e-20)
(0.00065586503 0.0014175303 -5.0280322e-20)
(0.00067964211 0.0013576772 -8.2846782e-20)
(0.00070053842 0.0012989589 8.0119562e-21)
(0.00071872011 0.0012414126 -1.2001347e-20)
(0.00073434519 0.0011850684 -4.8864723e-20)