/*--------------------------------*- C++ -*----------------------------------*\
| =========                 |                                                 |
| \\      /  F ield         | OpenFOAM: The Open Source CFD Toolbox           |
|  \\    /   O peration     | Version:  2106                                  |
|   \\  /    A nd           | Website:  www.openfoam.com                      |
|    \\/     M anipulation  |                                                 |
\*---------------------------------------------------------------------------*/
FoamFile
{
    version     2.0;
    format      ascii;
    arch        "LSB;label=32;scalar=64";
    class       volScalarField;
    location    "0.014";
    object      p;
}
// * * * * * * * * * * * * * * * * * * * * * * * * * * * * * * * * * * * * * //

dimensions      [1 -1 -2 0 0 0 0];

internalField   nonuniform List<scalar> 
4096
(
-4.2443841
-4.204451
-4.1246123
-4.0055723
-3.8483837
-3.654441
-3.4254721
-3.1635269
-2.8709637
-2.5504332
-2.2048595
-1.8374162
-1.4514987
-1.0507108
-0.63892495
-0.21990174
0.2024245
0.62377445
1.0401348
1.4474441
1.8416831
2.2189358
2.5754319
2.9075865
3.212041
3.4857009
3.725772
3.9297936
4.0956669
4.2216813
4.3065341
4.3493471
4.3496767
4.3075199
4.223314
4.0979311
3.9326676
3.7292287
3.4897071
3.2165582
2.9125713
2.580836
2.2247069
1.8477649
1.4537773
1.0466574
0.63042257
0.20913296
-0.21319866
-0.63229279
-1.0442141
-1.4452005
-1.831377
-2.1991372
-2.5450821
-2.8660342
-3.1590651
-3.4215194
-3.6510337
-3.8455528
-4.0033436
-4.1230059
-4.2034813
-4.2440599
-4.2737884
-4.233596
-4.1532377
-4.033422
-3.8752073
-3.6799961
-3.4495263
-3.1858598
-2.8913689
-2.5687204
-2.220856
-1.8509704
-1.4624858
-1.0590315
-0.64443427
-0.22254368
0.20257579
0.62678466
1.0459848
1.4560772
1.8530161
2.2328589
2.5918083
2.9262538
3.2328123
3.5083667
3.7501025
3.9555406
4.122567
4.2494583
4.3349021
4.3780138
4.3783466
4.3358972
4.2511064
4.1248526
3.958442
3.7535922
3.5124113
3.2373731
2.9312869
2.597265
2.2386862
1.8591574
1.4624724
1.0525714
0.63349798
0.20934994
-0.21577514
-0.63773758
-1.0524719
-1.4561269
-1.8448735
-2.2150793
-2.5633188
-2.8863934
-3.1813567
-3.4455372
-3.6765576
-3.8723507
-4.0311732
-4.1516169
-4.2326176
-4.2734612
-4.3478812
-4.307019
-4.2253209
-4.1035063
-3.9426505
-3.7441782
-3.5098548
-3.2417751
-2.9423496
-2.6142881
-2.2605805
-1.884474
-1.4894489
-1.0791919
-0.65756816
-0.22854951
0.2037496
0.63515045
1.0614673
1.4785274
1.8822167
2.2685248
2.6335888
2.9737356
3.2855234
3.5657808
3.8116444
4.0205919
4.1904726
4.3195328
4.4064376
4.4502868
4.4506257
4.4074514
4.3212119
4.1928012
4.0235482
3.8152004
3.5699027
3.2901717
2.9788657
2.6391512
2.2744654
1.8884777
1.4850476
1.0681827
0.64199494
0.2106559
-0.22164929
-0.65074166
-1.0725058
-1.482968
-1.8782609
-2.2546945
-2.6087853
-2.9372814
-3.2371888
-3.5057926
-3.7406772
-3.9397423
-4.1012171
-4.2236711
-4.3060232
-4.3475483
-4.4655133
-4.4235839
-4.3397515
-4.2147536
-4.0496923
-3.8460278
-3.6055701
-3.3304668
-3.0231895
-2.6865172
-2.3235162
-1.9375179
-1.5320927
-1.1110221
-0.67826712
-0.23792269
0.20579797
0.64861211
1.0862177
1.5143296
1.9287236
2.3252821
2.7000382
3.0492199
3.3692928
3.6570003
3.9094016
4.1239066
4.2983065
4.4308007
4.5200181
4.5650344
4.5653828
4.52106
4.4325265
4.3007002
4.1269457
3.9130577
3.6612387
3.3740733
3.0544966
2.7057602
2.331394
1.9351657
1.5210388
1.0931279
0.6556552
0.21290436
-0.2308231
-0.67124415
-1.1041445
-1.5254274
-1.9311292
-2.3174653
-2.6808612
-3.0179816
-3.325755
-3.6013977
-3.8424326
-4.0467064
-4.2124036
-4.3380581
-4.4225618
-4.4651717
-4.6268426
-4.5834492
-4.4966894
-4.3673252
-4.1964954
-3.9857095
-3.736838
-3.4521012
-3.1340545
-2.7855716
-2.4098242
-2.0102584
-1.5905684
-1.1546672
-0.70665321
-0.25077126
0.20861874
0.66708502
1.1201712
1.5634389
1.9925127
2.4031273
2.7911736
3.1527441
3.4841774
3.7820998
4.0434649
4.2655894
4.4461854
4.5833874
4.6757753
4.7223915
4.7227525
4.6768551
4.585176
4.4486664
4.2687399
4.0472555
3.7864951
3.4891358
3.1582183
2.7971109
2.4094702
1.9991992
1.5704033
1.1273447
0.67439633
0.21599538
-0.24340242
-0.69936499
-1.1475312
-1.5836543
-2.003633
-2.4035508
-2.7797096
-3.1286584
-3.4472208
-3.7325176
-3.9819878
-4.1934052
-4.3648935
-4.4949374
-4.582392
-4.6264892
-4.8334364
-4.7881695
-4.6976638
-4.5627126
-4.3845016
-4.1646027
-3.9049639
-3.607898
-3.2760678
-2.9124678
-2.5204041
-2.1034698
-1.6655175
-1.2106285
-0.74307875
-0.26729994
0.21215773
0.69066935
1.163582
1.6262609
2.074137
2.5027558
2.9078256
3.2852655
3.631251
3.9422585
4.2151061
4.4469914
4.6355245
4.7787573
4.8752064
4.9238719
4.9242489
4.8763339
4.7806251
4.6381158
4.4502825
4.2190669
3.9468522
3.6364346
3.2909899
2.9140359
2.5093918
2.0811338
1.6335494
1.1710898
0.69832149
0.2198778
-0.25958899
-0.73545361
-1.2031645
-1.6582877
-2.0965443
-2.5138491
-2.906345
-3.270434
-3.6028047
-3.9004567
-4.1607214
-4.38128
-4.5601782
-4.6958382
-4.787068
-4.8330682
-5.0873434
-5.0397772
-4.9446742
-4.8028659
-4.6155954
-4.3845104
-4.111654
-3.7994518
-3.4506976
-3.068534
-2.6564316
-2.2181636
-1.7577766
-1.2795592
-0.78800513
-0.28777433
0.21634878
0.7195006
1.2167866
1.7033306
2.1743251
2.6250826
3.0510867
3.4480424
3.811925
4.1390259
4.4259964
4.669887
4.8681828
5.0188334
5.1202779
5.1714639
5.1718602
5.1214632
5.0207973
4.870908
4.6733491
4.430164
4.1438611
3.817383
3.454072
3.0576302
2.6320767
2.1817012
1.7110156
1.2247036
0.72757003
0.22448935
-0.27964459
-0.77996771
-1.2716941
-1.7501612
-2.2108717
-2.6495331
-3.0620936
-3.4447746
-3.7940998
-4.1069202
-4.3804358
-4.6122147
-4.8002073
-4.9427597
-5.0386223
-5.0869574
-5.391
-5.3406894
-5.2400991
-5.0901059
-4.8920207
-4.6475813
-4.358943
-4.0286656
-3.6596981
-3.2553593
-2.8193154
-2.3555538
-1.868353
-1.3622483
-0.84199415
-0.31252244
0.22110203
0.75372949
1.2801761
1.7952764
2.293937
2.771191
3.2222525
3.64257
4.027878
4.3742463
4.6781259
4.936391
5.1463762
5.3059088
5.4133346
5.4675385
5.4679575
5.4145882
5.3079862
5.1492595
4.9400551
4.6825385
4.379368
4.0336619
3.6489623
3.2291926
2.7786117
2.3017655
1.8034346
1.2885819
0.76229752
0.22974506
-0.30389239
-0.83346448
-1.3539046
-1.8602779
-2.347826
-2.8120087
-3.2485421
-3.6534327
-4.0230077
-4.3539416
-4.6432788
-4.8884526
-5.0873012
-5.23808
-5.3394716
-5.3905931
-5.7473063
-5.6937833
-5.5867704
-5.4271966
-5.2164513
-4.9563767
-4.6492583
-4.2978115
-3.9051657
-3.4748446
-3.0107426
-2.5170971
-1.9984573
-1.4596473
-0.9057268
-0.34194653
0.2262996
0.79352545
1.354207
1.9028386
2.4339902
2.9423661
3.4228628
3.8706266
4.2811084
4.6501167
4.9738665
5.2490242
5.4727472
5.6427184
5.7571738
5.8149242
5.8153696
5.7585063
5.6449271
5.4758137
5.2529228
4.9785638
4.6555716
4.287272
3.8774422
3.4302663
2.9502861
2.4423489
1.9115521
1.3631868
0.80267926
0.235533
-0.3327288
-0.89661929
-1.4507424
-1.9898439
-2.5088596
-3.0029596
-3.4675885
-3.8985021
-4.2917986
-4.6439471
-4.9518108
-5.2126671
-5.4242234
-5.5846308
-5.6924932
-5.7468752
-6.1596653
-6.102436
-5.9880129
-5.8173846
-5.5920297
-5.3139093
-4.9854572
-4.6095666
-4.1895734
-3.7292358
-3.2327101
-2.7045211
-2.1495293
-1.5728924
-0.9800223
-0.3765384
0.23178429
0.83906965
1.439399
2.0268716
2.5956665
3.1401056
3.6547163
4.1342933
4.5739576
4.9692137
5.316002
5.6107471
5.8504001
6.032476
6.155083
6.2169458
6.2174211
6.1565053
6.0348342
5.8536756
5.6149135
5.321025
4.9750507
4.5805574
4.1415963
3.6626546
3.1486028
2.604639
2.0362289
1.4490449
0.84890359
0.24170323
-0.3666385
-0.97024458
-1.5633374
-2.1402934
-2.6956952
-3.2243785
-3.7214755
-4.1824534
-4.6031479
-4.9797926
-5.3090435
-5.5879999
-5.8142204
-5.9857369
-6.1010641
-6.159207
-6.6320154
-6.5705562
-6.4476764
-6.2644312
-6.0223993
-5.7236754
-5.3708601
-4.9670468
-4.5158044
-4.0211566
-3.4875563
-2.919855
-2.3232677
-1.703332
-1.0658628
-0.41690117
0.23734104
0.89054005
1.5363238
2.168337
2.780309
3.3661214
3.9198764
4.4359633
4.9091232
5.33451
5.7077474
6.0249811
6.2829248
6.4788997
6.6108666
6.6774512
6.6779602
6.6123899
6.4814262
6.2864358
6.0294498
5.7131387
5.3407799
4.9162187
4.4438216
3.9284254
3.3752795
2.7899857
2.178434
1.5467359
0.90115705
0.24804938
-0.40621607
-1.0553144
-1.6930306
-2.3133185
-2.9103566
-3.4785994
-4.0128232
-4.5081672
-4.9601696
-5.3647974
-5.7184728
-6.0180943
-6.2610534
-6.4452481
-6.5690931
-6.6315267
-7.1688692
-7.102624
-6.9701758
-6.7726535
-6.5117467
-6.1896981
-5.8092937
-5.3738499
-4.8871958
-4.3536521
-3.7780046
-3.1654722
-2.5216698
-1.8525649
-1.1644286
-0.46378097
0.24266916
0.94808806
1.6455863
2.3282899
2.9894139
3.6223365
4.2206732
4.7783495
5.2896712
5.7493907
6.1527694
6.4956335
6.7744245
6.9862416
7.1288773
7.2008434
7.2013898
7.1305127
6.9889552
6.7781977
6.5004396
6.1585729
5.7561467
5.2973248
4.7868351
4.2299143
3.6322457
2.9998932
2.3392317
1.6568749
0.95960139
0.25428126
-0.45219737
-1.1529994
-1.8414119
-2.5109088
-3.1552106
-3.7683404
-4.3446727
-4.878978
-5.3664599
-5.8027873
-6.1841213
-6.5071369
-6.7690397
-6.9675796
-7.1010604
-7.168347
-7.7753639
-7.7037413
-7.5605421
-7.3469762
-7.0648542
-6.7165809
-6.3051465
-5.8341125
-5.3075959
-4.7302464
-4.1072202
-3.444146
-2.7470866
-2.0224918
-1.2771466
-0.51811158
0.24734252
1.0118041
1.7677966
2.5078569
3.2246149
3.9108759
4.5597012
5.1644879
5.7190458
6.2176697
6.6552077
7.0271219
7.3295435
7.5593191
7.7140486
7.7921147
7.792702
7.7158072
7.5622384
7.3336056
7.0323007
6.6614681
6.2249666
5.7273229
5.1736772
4.5697218
3.9216341
3.2360042
2.5197591
1.7800835
1.0243395
0.25998548
-0.50550373
-1.2647147
-2.0103717
-2.7354063
-3.4330234
-4.0967611
-4.7205444
-5.2987315
-5.826154
-6.2981503
-6.7105929
-7.0599104
-7.3431046
-7.557763
-7.7020684
-7.7748054
-8.4573212
-8.3796921
-8.2244844
-7.9929949
-7.6871651
-7.3095758
-6.863438
-6.3525813
-5.7814369
-5.1550164
-4.4788842
-3.7591233
-3.0022939
-2.2153847
-1.4057559
-0.5810751
0.25075437
1.0816688
1.903528
2.7082015
3.4876566
4.2340484
4.9398091
5.5977358
6.2010746
6.7436006
7.2196922
7.6243978
7.953496
8.2035459
8.371929
8.456881
8.4575127
8.3738211
8.2066887
7.957873
7.6299844
7.2264546
6.7514945
6.2100434
5.6077095
4.9507028
4.2457618
3.5000739
2.7211923
1.9169491
1.0953672
0.26457071
-0.56730225
-1.3921857
-2.2021698
-2.9895768
-3.7470336
-4.467537
-5.1445112
-5.7718579
-6.343998
-6.8559066
-7.3031404
-7.6818599
-7.9888452
-8.2215084
-8.3779019
-8.4567238
-9.2213212
-9.1370173
-8.9684652
-8.7170541
-8.3848649
-7.974666
-7.4899058
-6.934702
-6.3138266
-5.6326847
-4.8972875
-4.1142176
-3.2905851
-2.4339764
-1.5523931
-0.65418202
0.25204373
1.1574867
2.0532587
2.9304755
3.780355
4.5943163
5.3640789
6.0817598
6.739966
7.3318832
7.8513569
8.2929664
8.65209
8.924961
9.1087131
9.2014152
9.2020944
9.1107482
8.9283439
8.6568063
8.2989943
7.8586655
7.3404304
6.7496965
6.0926027
5.3759461
4.6071007
3.7939307
2.944698
2.0679671
1.1725074
0.26719483
-0.63908512
-1.537532
-2.419524
-3.2767014
-4.1010459
-4.8849526
-5.6212922
-6.3034634
-6.9254377
-7.4817947
-7.9677492
-8.3791728
-8.7126082
-8.9652804
-9.1351029
-9.2206825
-10.074792
-9.9831053
-9.7997938
-9.5263429
-9.1649794
-8.7186691
-8.1911111
-7.5867297
-6.9106614
-6.1687355
-5.3674481
-4.5139266
-3.6158857
-2.6815722
-1.7196998
-0.73937277
0.2500013
1.2388012
2.2172965
3.1757533
4.1045428
4.9942519
5.8357935
6.6205143
7.3402975
7.9876607
8.5558457
9.0388998
9.4317478
9.7302536
9.9312698
10.032676
10.033406
9.9334559
9.7338907
9.4368251
9.0453999
8.5637425
7.9969166
7.3508604
6.6323145
5.8487409
5.0082333
4.1194213
3.1913682
2.2334658
1.255326
0.26667166
-0.72277039
-1.7033748
-2.6657226
-3.6006921
-4.499548
-5.3540198
-6.1563687
-6.8994444
-7.5767302
-8.1823793
-8.7112407
-9.1588789
-9.5215862
-9.7963907
-9.9810615
-10.07411
-11.026119
-10.926303
-10.72674
-10.429012
-10.035496
-9.5493621
-8.9745692
-8.3158628
-7.5787644
-6.7695552
-5.8952521
-4.9635735
-3.982894
-2.9621867
-1.9109534
-0.83914132
0.24295439
1.3247887
2.3956842
3.4449491
4.4619988
5.4364793
6.3583908
7.2182075
8.006993
8.7165077
9.3393094
9.8688423
10.299517
10.626779
10.847162
10.958331
10.959113
10.849505
10.630681
10.304973
9.8758407
9.3478319
8.7265243
8.018458
7.2310554
6.3725315
5.4517948
4.4783407
3.4621384
2.4135134
1.3430274
0.26135746
-0.82082413
-1.8929667
-2.9447593
-3.9662315
-4.9478529
-5.8806193
-6.7561258
-7.5666258
-8.305078
-8.9651809
-9.5413977
-10.028971
-10.423934
-10.723113
-10.924127
-11.025393
-12.084781
-11.976053
-11.75867
-11.434314
-11.005509
-10.475631
-9.848904
-9.1304022
-8.3260476
-7.4425968
-6.4876205
-5.4694722
-4.3972427
-3.2807008
-2.1302179
-0.95667729
0.22863478
1.4141382
2.5880908
3.7387211
4.854365
5.9236046
6.9354064
7.8792565
8.7452891
9.524407
10.208392
10.790005
11.263073
11.622566
11.864657
11.986767
11.987601
11.867159
11.626739
11.268918
10.79752
10.21757
9.5352299
8.7577219
7.8932419
6.9508584
5.9404026
4.8723494
3.757692
2.60781
1.434336
0.24902069
-0.93640081
-2.1103404
-3.2614901
-4.3789345
-5.4522635
-6.4716677
-7.4280174
-8.3129244
-9.118789
-9.838832
-10.467115
-10.998552
-11.428912
-11.754819
-11.973745
-12.084012
-13.261511
-13.143054
-12.906216
-12.552772
-12.085391
-11.507648
-10.824026
-10.039932
-9.1616957
-8.1965648
-7.1526924
-6.0391081
-4.8656755
-3.643031
-2.3825039
-1.0960161
0.20404003
1.5049246
2.793698
4.0573709
5.2830593
6.458141
7.5704111
8.6082354
9.5606944
10.417718
11.170207
11.810148
12.330706
12.72631
12.992722
13.127088
13.127973
12.995381
12.730751
12.336941
11.818188
11.18006
10.429382
9.5741522
8.6234445
7.5872952
6.4765809
5.302886
4.0783614
2.8155769
1.527372
0.22670623
-1.0734908
-2.3604678
-3.6218014
-4.8455244
-6.0202548
-7.1353021
-8.1807527
-9.1475342
-10.02746
-10.813256
-11.498576
-12.078005
-12.547053
-12.902146
-13.140619
-13.260701
-14.568485
-14.43945
-14.181458
-13.796369
-13.286983
-12.657058
-11.911326
-11.055515
-10.096359
-9.0416054
-7.9000108
-6.6813177
-5.3962177
-4.0562904
-2.6739179
-1.2621749
0.16531046
1.594499
3.0111031
4.4007583
5.7492015
7.042446
8.2669577
9.4098309
10.458951
11.403143
12.232311
12.937559
13.5113
13.947351
14.241006
14.389097
14.390032
14.243816
13.952051
13.517914
12.946115
12.242839
11.415666
10.473476
9.4263401
8.2853929
7.0626969
5.7710932
4.4240436
3.0354613
1.6195454
0.19061652
-1.2370527
-2.649406
-4.0327699
-5.3740047
-6.6606546
-7.8810677
-9.024488
-10.08112
-11.042169
-11.899861
-12.647445
-13.279187
-13.790351
-14.177186
-14.436897
-14.567636
-16.019523
-15.879033
-15.598133
-15.17875
-14.623793
-13.937179
-13.123863
-12.189871
-11.142326
-9.9894724
-8.7406789
-7.4064325
-5.9983064
-4.528902
-3.0117589
-1.461234
0.10766188
1.6794339
3.2382759
4.7682692
6.2535902
7.6787046
9.0285675
10.28883
11.446022
12.487717
13.402686
14.181033
14.814318
15.295661
15.619824
15.78328
15.784259
15.622767
15.300594
14.821281
14.190076
13.413867
12.501091
11.461634
10.306697
9.0486639
7.700941
6.2777942
4.7941697
3.2654977
1.7075074
0.13605102
-1.4330885
-2.9843902
-4.5027745
-5.9737889
-7.3837897
-8.7200773
-9.9709964
-11.125997
-12.175666
-13.111733
-13.927061
-14.615623
-15.172466
-15.593683
-15.876379
-16.018641
-17.630283
-17.477434
-17.171814
-16.715394
-16.111161
-15.363153
-14.476506
-13.457508
-12.313638
-11.053618
-9.6874299
-8.2263272
-6.6828144
-5.0705992
-3.4044957
-1.7002943
0.025442827
1.7555944
3.4726415
5.1589038
6.7967918
8.3690153
9.8588103
11.250191
12.528153
13.678852
14.689776
15.549899
16.249812
16.781842
17.140149
17.320798
17.321812
17.143202
16.78697
16.257074
15.559373
14.701554
13.693034
12.544834
11.269442
9.8806574
8.3934097
6.8235787
5.1877943
3.5031962
1.7872308
0.057473901
-1.6685927
-3.3738059
-5.0414957
-6.6557277
-8.2015379
-9.6650857
-11.033762
-12.29624
-13.442492
-14.463773
-15.352595
-16.102678
-16.708896
-17.167226
-17.474703
-17.629376
-19.41839
-19.252244
-18.920023
-18.423713
-17.766334
-16.951995
-15.985956
-14.874708
-13.626042
-12.249118
-10.754519
-9.1542747
-7.4618696
-5.6922092
-3.8615172
-1.9872013
-0.087566009
1.8184632
3.7114207
5.5716058
7.379445
9.1156743
10.761566
12.299278
13.712074
14.984513
16.102637
17.05414
17.828522
18.417214
18.813692
19.013556
19.014593
18.816819
18.422479
17.836005
17.063952
16.114913
14.999409
13.729753
12.319888
10.785212
9.1423812
7.4091035
5.603925
3.74589
1.8543488
-0.05116932
-1.9512617
-3.8269319
-5.6596995
-7.4319331
-9.127191
-10.730388
-12.227912
-13.607652
-14.858981
-15.972726
-16.9411
-17.757629
-18.417074
-18.915351
-19.24947
-19.41747
-21.403413
-21.222982
-20.86218
-20.322969
-19.60835
-18.722434
-17.670536
-16.459276
-15.096684
-13.59231
-11.957305
-10.204481
-8.3483465
-6.4051068
-4.3925264
-2.3298795
-0.23744875
1.8638642
3.9523424
6.0059217
8.0028797
9.921774
11.741586
13.442376
15.005467
16.41363
17.65129
18.704708
19.562156
20.214058
20.65312
20.874418
20.875462
20.656272
20.219379
19.569749
18.714721
17.663908
16.429078
15.023994
13.464239
11.76701
9.9509023
8.0357003
6.0421795
3.9914591
1.9049033
-0.19571899
-2.2888047
-4.3533244
-6.3686931
-8.3152801
-10.175002
-11.931417
-13.569864
-15.077453
-16.443004
-17.656972
-18.711348
-19.599546
-20.316287
-20.857495
-21.220206
-21.402493
-23.606564
-23.410781
-23.019256
-22.433887
-21.657591
-20.694408
-19.549617
-18.229879
-16.743379
-15.099988
-13.311389
-11.391171
-9.3549147
-7.2202062
-5.0064061
-2.7351232
-0.42901592
1.888905
4.1943877
6.4627813
8.6700994
10.792266
12.805522
14.687639
16.417824
17.976875
19.347426
20.514148
21.463948
22.186131
22.672546
22.917679
22.918709
22.675661
22.191404
21.471506
20.524174
19.360162
17.992625
16.436945
14.710529
12.832579
10.823828
8.7063366
6.5035552
4.2390863
1.9363276
-0.38060833
-2.6876959
-4.9616715
-7.179329
-9.3184779
-11.359294
-13.283891
-15.076529
-16.723564
-18.213314
-19.535946
-20.683327
-21.648849
-22.427286
-23.014646
-23.408057
-23.605663
-26.050036
-25.837697
-25.413041
-24.777856
-23.934907
-22.888083
-21.642534
-20.204865
-18.583322
-16.788025
-14.831163
-12.727068
-10.492315
-8.1458805
-5.7090518
-3.2067528
-0.66452825
1.8925043
4.4378243
6.9454549
9.3877007
11.735848
13.963642
16.046669
17.961893
19.687977
21.205602
22.497697
23.549675
24.349612
24.88842
25.159932
25.160924
24.891422
24.35471
23.557014
22.507493
21.218153
19.703671
17.981213
16.070189
13.991997
11.769674
9.427493
6.9913553
4.4893027
1.9480466
-0.60747917
-3.1512607
-5.6576182
-8.0999564
-10.452388
-12.692972
-14.802393
-16.76395
-18.563314
-20.188363
-21.629062
-22.877259
-23.926426
-24.771487
-25.408611
-25.835086
-26.049173
-28.755946
-28.52563
-28.065005
-27.375708
-26.460285
-25.322406
-23.966996
-22.400524
-20.631194
-18.669317
-16.527538
-14.220606
-11.765422
-9.1827945
-6.4991549
-3.742554
-0.94049183
1.8828977
4.6978235
7.4718397
10.172141
12.768474
15.232537
17.536895
19.655856
21.565733
23.245106
24.675018
25.839282
26.724637
27.32101
27.621544
27.622469
27.323816
26.729412
25.846183
24.684287
23.257085
21.580889
19.674803
17.56041
15.261559
12.804066
10.215348
7.5233949
4.7575915
1.9491107
-0.87174155
-3.6764938
-6.4395672
-9.1313347
-11.722169
-14.184799
-16.498127
-18.645252
-20.611556
-22.384558
-23.954109
-25.312142
-26.452299
-27.369744
-28.060873
-28.523203
-28.755146
-31.744787
-31.49473
-30.994633
-30.245968
-29.250986
-28.013109
-26.53695
-24.828792
-22.896683
-20.750993
-18.404568
-15.871689
-13.171215
-10.327802
-7.3705878
-4.3304543
-1.2404021
1.8791159
4.9917671
8.0585599
11.043476
13.913718
16.637374
19.184195
21.525932
23.63649
25.492293
27.072385
28.358931
29.337266
29.996377
30.328749
30.32958
29.998896
29.341557
28.365151
27.080781
25.503232
23.650496
21.543731
19.206768
16.666005
13.950032
11.089366
8.1159048
5.0615863
1.9598962
-1.154739
-4.2500316
-7.3011801
-10.270728
-13.125395
-15.83522
-18.375565
-20.727858
-22.878168
-24.813957
-26.525104
-28.00375
-29.243751
-30.240595
-30.990929
-31.492562
-31.744074
-35.03252
-34.760478
-34.216473
-33.401839
-32.318456
-30.969546
-29.35934
-27.493978
-25.381211
-23.031164
-20.456232
-17.673246
-14.703735
-11.57134
-8.3059076
-4.9478282
-1.5444739
1.9038451
5.3475146
8.7393971
12.038479
15.208635
18.215097
21.02517
23.608178
25.93561
27.981783
29.723661
31.141811
32.220134
32.946987
33.31459
33.315296
32.94913
32.22378
31.147099
29.730814
27.991158
25.947742
23.623855
21.045521
18.241719
15.243777
12.085179
8.801515
5.4288907
2.0052534
-1.4318382
-4.8472088
-8.2253376
-11.509743
-14.657251
-17.638005
-20.42923
-23.010202
-25.364756
-27.480964
-29.349039
-30.961458
-32.312238
-33.397249
-34.213328
-34.758649
-35.031919
-38.628352
-38.331541
-37.737962
-36.848898
-35.66586
-34.192008
-32.431234
-30.389741
-28.075141
-25.497874
-22.670836
-19.610924
-16.337902
-12.874987
-9.2562303
-5.538624
-1.8143771
2.0010681
5.8159467
9.5670331
13.208762
16.703619
20.014728
23.107281
25.948355
28.507089
30.755834
32.669457
34.227025
35.410931
36.209106
36.614862
36.61542
36.210795
35.413787
34.231145
32.675006
30.763109
28.516566
25.960789
23.123822
20.03711
16.734546
13.252423
9.6300954
5.9080991
2.1319272
-1.651826
-5.4094708
-9.1655651
-12.812778
-16.294615
-19.579931
-22.64802
-25.480615
-28.061806
-30.379281
-32.422983
-34.185544
-35.660908
-36.845271
-37.735501
-38.330129
-38.627889
-42.552248
-42.227159
-41.576437
-40.601685
-39.303772
-37.686509
-35.753235
-33.510955
-30.967034
-28.132761
-25.021194
-21.649096
-18.035489
-14.198825
-10.167166
-6.0106136
-2.0282712
2.2285094
6.4698387
10.616835
14.628823
18.471797
22.107661
25.499922
28.613726
31.415898
33.877237
35.970381
37.673202
38.965939
39.834183
40.269641
40.270029
39.835364
38.9679
37.675974
35.974024
33.881931
31.421971
28.621781
25.510928
22.123128
18.494298
14.662785
10.671176
6.5631724
2.3962279
-1.7520338
-5.8466039
-10.0766
-14.145645
-18.002013
-21.626497
-25.005159
-28.120834
-30.957861
-33.503715
-35.747463
-37.68195
-39.30028
-40.599174
-41.574778
-42.226246
-42.551949
-41.832198
-41.566261
-41.031721
-40.224387
-39.132575
-37.751456
-36.066508
-34.072553
-31.756079
-29.114036
-26.139257
-22.83254
-19.198453
-15.225887
-10.904049
-6.0818938
-2.3152262
2.6978844
7.4348818
12.015762
16.422181
20.639005
24.619953
28.329251
31.73096
34.787012
37.471414
39.749793
41.604639
43.010209
43.956326
44.426322
44.426523
43.957038
43.011248
41.606028
39.75135
37.473204
34.789058
31.73364
28.333201
24.62588
20.648671
16.437514
12.042762
7.4941669
2.8677893
-1.7034013
-5.9224931
-10.849204
-15.1995
-19.183826
-22.822753
-26.132577
-29.108952
-31.752005
-34.069193
-36.063598
-37.749142
-39.130727
-40.223233
-41.030978
-41.566009
-41.832053
44.434572
43.96523
43.019797
41.61525
39.761512
37.483937
34.800386
31.744758
28.343226
24.634396
20.652469
16.436274
12.02712
7.4434293
2.7004719
-2.3369572
-6.1052033
-10.906667
-15.225986
-19.199148
-22.833755
-26.144105
-29.120782
-31.765804
-34.084809
-36.081152
-37.76869
-39.151973
-40.245998
-41.055112
-41.590863
-41.857633
-41.857757
-41.591447
-41.055881
-40.2471
-39.153118
-37.770082
-36.082674
-34.086969
-31.769063
-29.125983
-26.152842
-22.848089
-19.224972
-15.283896
-11.074781
-6.7143447
-2.4976342
2.6451846
7.4168678
12.012478
16.426509
20.645919
24.629396
28.339308
31.741458
34.797585
37.481637
39.759731
41.614103
43.019113
43.964986
44.434459
40.275014
39.840319
38.972908
37.681073
35.979134
33.886725
31.425973
28.624129
25.510411
22.11799
18.481454
14.637492
10.623231
6.4727808
2.2259551
-2.0399185
-6.023938
-10.174797
-14.204361
-18.040883
-21.655395
-25.029586
-28.143335
-30.980128
-33.526564
-35.771347
-37.707114
-39.326719
-40.626824
-41.603465
-42.255659
-42.581834
-42.582186
-42.256733
-41.605243
-40.629343
-39.330031
-37.7114
-35.77693
-33.534054
-30.990498
-28.158094
-25.051314
-21.688495
-18.094247
-14.296593
-10.341311
-6.2990594
-2.2039587
2.1353328
6.4196628
10.589899
14.615104
18.465658
22.106326
25.501504
28.617149
31.420442
33.882377
35.975815
37.678689
38.971334
39.839451
40.274732
36.61733
36.212514
35.415251
34.232227
32.675457
30.762476
28.514191
25.955667
23.11453
20.021604
16.709651
13.213497
9.5695754
5.8154757
1.996638
-1.8229608
-5.5489267
-9.2658597
-12.884106
-16.347375
-19.621453
-22.683171
-25.512291
-28.0919
-30.408916
-32.452839
-34.216013
-35.692149
-36.877315
-37.768265
-38.363429
-38.661524
-38.662043
-38.365003
-37.770933
-36.881173
-35.69736
-34.222876
-32.461831
-30.420796
-28.107819
-25.533986
-22.713346
-19.664296
-16.409553
-12.975329
-9.3958083
-5.7107377
-1.951784
1.9061837
5.7534764
9.526526
13.182768
16.687114
20.004631
23.101477
25.945474
28.506184
30.756224
32.670679
34.228734
35.412883
36.211154
36.616885
33.314273
32.947806
32.221968
31.144548
29.727161
27.985865
25.940067
23.612754
21.029576
18.219006
15.211622
12.040112
8.7390556
5.3446928
1.8981648
-1.5528408
-4.9579839
-8.3169517
-11.583064
-14.716431
-17.687292
-20.472111
-23.049131
-25.401473
-27.516621
-29.384385
-30.996963
-32.348146
-33.433663
-34.250235
-34.795947
-35.06947
-35.070138
-34.797974
-34.25369
-33.438684
-32.354958
-31.005924
-29.396034
-27.531747
-25.42121
-23.07508
-20.506526
-17.733216
-14.777737
-11.663619
-8.4175802
-5.0699583
-1.6529824
1.8179704
5.2834324
8.6928988
12.005197
15.184945
18.198362
21.013426
23.600024
25.930022
27.978
29.721128
31.1401
32.218924
32.946036
33.313691
30.32595
29.994879
29.336881
28.359484
27.073691
25.494143
23.638656
21.52815
19.186174
16.638789
13.914195
11.04263
8.0559557
4.987061
1.8721159
-1.2496049
-4.3415153
-7.3831501
-10.341727
-13.186616
-15.888798
-18.423663
-20.77226
-22.920278
-24.854792
-26.565373
-28.043922
-29.284101
-30.28126
-31.031939
-31.533868
-31.785581
-31.786373
-31.536269
-31.036036
-30.28721
-29.292152
-28.054444
-26.578894
-24.872042
-22.942241
-20.800227
-18.459267
-15.933941
-13.243192
-10.41078
-7.4632003
-4.426524
-1.3294726
1.8031881
4.9304215
8.0105437
11.006551
13.885567
16.616011
19.167995
21.513624
23.627086
25.485024
27.066654
28.354266
29.333288
29.992778
30.325258
27.61665
27.317546
26.722366
25.837982
24.67447
23.245077
21.565976
19.656102
17.536854
15.231893
12.766892
10.169282
7.4673612
4.6914637
1.8745051
-0.95092878
-3.7549349
-6.5133607
-9.1987885
-11.783282
-14.240474
-16.549577
-18.693669
-20.657967
-22.429774
-23.998731
-25.356585
-26.496824
-27.414491
-28.105888
-28.568459
-28.800578
-28.801464
-28.571146
-28.110465
-27.421117
-26.505743
-25.368142
-24.013397
-22.448168
-20.680871
-18.72203
-16.584466
-14.282947
-11.834087
-9.2578099
-6.5788532
-3.8230133
-1.0163784
1.8154727
4.6405162
7.4245874
10.133928
12.737909
15.20823
17.517588
19.640476
21.553391
23.235074
24.6667
25.832187
26.718357
27.315192
27.615873
25.15338
24.883388
24.345829
23.546888
22.495657
21.204058
19.686667
17.960543
16.044989
13.961327
11.732587
9.3831814
6.9393914
4.4299917
1.8827332
-0.67632956
-3.2206069
-5.7249624
-8.1638801
-10.512476
-12.749488
-14.855961
-16.815302
-18.613151
-20.237278
-21.677522
-22.925597
-23.974859
-24.820131
-25.457503
-25.884205
-26.098458
-26.099409
-25.887085
-25.462399
-24.827189
-23.984299
-22.937719
-21.692719
-20.256038
-18.636053
-16.842992
-14.88908
-12.788546
-10.557627
-8.2146086
-5.7797714
-3.2769545
-0.73116133
1.8319177
4.3846472
6.9000097
9.3495998
11.7043
13.937702
16.025396
17.944416
19.673529
21.193521
22.487415
23.540707
24.341534
24.880859
25.152544
22.909933
22.666375
22.181238
21.460057
20.510991
19.344736
17.974378
16.415239
14.684678
12.801886
10.787658
8.6642291
6.4553828
4.1852272
1.8777949
-0.44221037
-2.7504946
-5.0240273
-7.2401519
-9.3772685
-11.416022
-13.338827
-15.130085
-16.776181
-18.265396
-19.587821
-20.735237
-21.700949
-22.479652
-23.06729
-23.460941
-23.658719
-23.659707
-23.46393
-23.072355
-22.486921
-21.710607
-20.747532
-19.603061
-18.283943
-16.79844
-15.156463
-13.36967
-11.451511
-9.4172767
-7.2840808
-5.0706892
-2.7981624
-0.48892705
1.8337375
4.144993
6.4195547
8.6329261
10.760698
12.778928
14.665322
16.39909
17.961075
19.333972
20.502513
21.453663
22.176777
22.66374
22.909062
20.865956
20.64625
20.208469
19.557556
18.700814
17.647821
16.410302
15.001994
13.438466
11.736944
9.9161071
7.9959047
5.997374
3.9419831
1.8514883
-0.2520095
-2.3467615
-4.4118447
-6.4269649
-8.3728399
-10.231696
-11.987317
-13.625169
-15.132415
-16.497868
-17.711945
-18.766579
-19.655121
-20.372233
-20.913786
-21.276777
-21.459249
-21.46025
-21.279798
-20.918891
-20.379526
-19.664753
-18.778741
-17.726865
-16.515802
-15.153626
-13.649891
-12.015702
-10.263743
-8.4083037
-6.4652791
-4.4520843
-2.3877052
-0.29231968
1.8130235
3.9062755
5.9649798
7.9670617
9.8908155
11.715053
13.419744
14.986181
16.397144
17.637084
18.6923
19.551102
20.203949
20.643573
20.86507
19.004856
18.80657
18.41135
17.823613
17.04989
16.098753
14.980704
13.708046
12.294734
10.756208
9.1092094
7.3715887
5.5620889
3.6999956
1.8049085
-0.1034434
-2.0055669
-3.8825131
-5.7159584
-7.4884772
-9.1838263
-10.787078
-12.284722
-13.664695
-14.916382
-16.030586
-16.999481
-17.81655
-18.476504
-18.975222
-19.309675
-19.477884
-19.478875
-19.312665
-18.98026
-18.483674
-17.825964
-17.01128
-16.04493
-14.933441
-13.684625
-12.307635
-10.813008
-9.2126743
-7.5199626
-5.7495814
-3.9175504
-2.0411232
-0.13855901
1.7711239
3.6682577
5.5328905
7.345205
9.0857369
10.735614
12.276904
13.692825
14.967922
16.088244
17.041504
17.817225
18.40686
18.803905
19.003972
17.312335
17.133223
16.776126
16.244994
15.545674
14.685841
13.674905
12.523892
11.245313
9.8530108
8.3619963
6.7882628
5.148588
3.4602802
1.7409511
0.008306062
-1.7201102
-3.4271513
-5.0962304
-6.7115322
-8.2582162
-9.7225456
-11.091984
-12.355243
-13.502302
-14.524406
-15.414037
-16.164879
-16.77177
-17.230653
-17.538534
-17.693443
-17.694409
-17.541443
-17.235543
-16.778702
-16.173934
-15.425313
-14.538007
-13.51833
-12.373777
-11.113058
-9.7461201
-8.284146
-6.7395386
-5.1258845
-3.4578811
-1.7512384
-0.022505234
1.711131
3.4320188
5.1223095
6.764242
8.3403755
9.8338281
11.228533
12.509434
13.662665
14.675709
15.537543
16.238773
16.771739
17.130612
17.311469
15.775525
15.613541
15.290519
14.809998
14.177218
13.399063
12.483975
11.441848
10.283911
9.0225914
7.6713647
6.2445873
4.7573164
3.225103
1.663791
0.08932302
-1.4824691
-3.0360632
-4.5564198
-6.0291516
-7.4406871
-8.7783901
-10.030651
-11.186943
-12.237858
-13.175113
-13.991548
-14.681104
-15.238799
-15.660695