/*--------------------------------*- C++ -*----------------------------------*\
| =========                 |                                                 |
| \\      /  F ield         | OpenFOAM: The Open Source CFD Toolbox           |
|  \\    /   O peration     | Version:  2106                                  |
|   \\  /    A nd           | Website:  www.openfoam.com                      |
|    \\/     M anipulation  |                                                 |
\*---------------------------------------------------------------------------*/
FoamFile
{
    version     2.0;
    format      ascii;
    arch        "LSB;label=32;scalar=64";
    class       volVectorField;
    location    "0.031";
    object      U_0;
}
// * * * * * * * * * * * * * * * * * * * * * * * * * * * * * * * * * * * * * //

dimensions      [0 1 -1 0 0 0 0];

internalField   nonuniform List<vector> 
256
(
(0.0060404428 -0.0029120257 0)
(0.017202514 -0.0024765254 0)
(0.025782425 -0.0016703759 0)
(0.030453756 -0.0006052884 0)
(0.030512263 0.00055786072 0)
(0.025925195 0.0016571252 0)
(0.017344322 0.0025112299 0)
(0.0061038485 0.0029790499 0)
(-0.0060951853 0.0029792293 0)
(-0.01733722 0.0025119914 0)
(-0.025920738 0.0016579716 0)
(-0.0305108 0.00055890314 0)
(-0.030455466 -0.00060442197 0)
(-0.025787045 -0.0016694613 0)
(-0.017209693 -0.0024760485 0)
(-0.0060485809 -0.0029118322 0)
(0.0067247381 -0.020759914 0)
(0.019151423 -0.01762174 0)
(0.028708334 -0.011818676 0)
(0.033918827 -0.0042079077 0)
(0.034006211 0.0040510561 0)
(0.028918714 0.011746758 0)
(0.019359815 0.01766554 0)
(0.0068150546 0.020881489 0)
(-0.0068060414 0.020882544 0)
(-0.019352535 0.017669291 0)
(-0.028914283 0.011751387 0)
(-0.034004824 0.004056516 0)
(-0.033920544 -0.0042028329 0)
(-0.028713006 -0.011813753 0)
(-0.019158826 -0.017618937 0)
(-0.0067329665 -0.02075889 0)
(0.010238921 -0.028107521 0)
(0.029158188 -0.023874539 0)
(0.043687704 -0.01604434 0)
(0.051587762 -0.0057618231 0)
(0.051701362 0.0054214922 0)
(0.043959019 0.015914749 0)
(0.029426217 0.024034406 0)
(0.010354787 0.028461777 0)
(-0.010342725 0.0284633 0)
(-0.029416727 0.024039908 0)
(-0.043953619 0.015921116 0)
(-0.051699693 0.0054287542 0)
(-0.051589685 -0.0057552948 0)
(-0.043693754 -0.016037613 0)
(-0.029168053 -0.023870891 0)
(-0.010249462 -0.028106282 0)
(0.01281371 -0.062109942 0)
(0.036481809 -0.052716689 0)
(0.054645363 -0.03534407 0)
(0.064528987 -0.012606809 0)
(0.064764136 0.012052029 0)
(0.055211091 0.035108104 0)
(0.037044178 0.052909049 0)
(0.013050987 0.06258802 0)
(-0.013036801 0.062591245 0)
(-0.037033624 0.052919957 0)
(-0.055205925 0.035120681 0)
(-0.064762882 0.012065406 0)
(-0.064530732 -0.012593748 0)
(-0.05465174 -0.035330478 0)
(-0.03649306 -0.052709559 0)
(-0.012824914 -0.062107879 0)
(0.023864584 -0.074605901 0)
(0.067938204 -0.063322518 0)
(0.1016522 -0.042487793 0)
(0.11988834 -0.015306961 0)
(0.12025531 0.01418173 0)
(0.10253528 0.042045555 0)
(0.068831072 0.063823454 0)
(0.024249272 0.075748816 0)
(-0.024222334 0.075753328 0)
(-0.068811693 0.063837917 0)
(-0.10252718 0.042060551 0)
(-0.12025297 0.014195457 0)
(-0.11988981 -0.015293593 0)
(-0.10166425 -0.042471836 0)
(-0.067959981 -0.063314779 0)
(-0.023884791 -0.074604455 0)
(0.038186284 -0.15989787 0)
(0.10867404 -0.13555613 0)
(0.16244631 -0.090630522 0)
(0.19143483 -0.032369028 0)
(0.19223346 0.030526576 0)
(0.16439487 0.089841363 0)
(0.11066695 0.1362363 0)
(0.039040908 0.16160839 0)
(-0.038993971 0.1616182 0)
(-0.11063443 0.13626695 0)
(-0.16438338 0.089871946 0)
(-0.19223097 0.030550404 0)
(-0.19143618 -0.032339929 0)
(-0.16246578 -0.0905949 0)
(-0.10871094 -0.13554114 0)
(-0.038219664 -0.15989673 0)
(0.079786366 -0.21245534 0)
(0.22703447 -0.17991844 0)
(0.33885953 -0.12007345 0)
(0.39855348 -0.043234496 0)
(0.39907936 0.039412475 0)
(0.34018416 0.11849186 0)
(0.22839623 0.18154771 0)
(0.080423268 0.21639528 0)
(-0.08032258 0.21641251 0)
(-0.2283252 0.18159703 0)
(-0.34016011 0.11853564 0)
(-0.39906739 0.039436945 0)
(-0.39854999 -0.043200872 0)
(-0.33890907 -0.12002343 0)
(-0.22712046 -0.17989865 0)
(-0.07985879 -0.21245671 0)
(0.077578839 -0.48565897 0)
(0.2203034 -0.41058408 0)
(0.32753558 -0.27247215 0)
(0.38324092 -0.09607019 0)
(0.38128073 0.092242158 0)
(0.32278832 0.27072621 0)
(0.21556034 0.41187182 0)
(0.075654219 0.48917101 0)
(-0.075565638 0.48920608 0)
(-0.2154916 0.41198073 0)
(-0.3227581 0.27082027 0)
(-0.38126217 0.0922868 0)
(-0.38323712 -0.095971088 0)
(-0.32758709 -0.27234166 0)
(-0.22038677 -0.41054879 0)
(-0.077650505 -0.4856697 0)
(-0.074854644 -0.48215008 0)
(-0.21344824 -0.40610446 0)
(-0.3197747 -0.26710411 0)
(-0.3778714 -0.091272147 0)
(-0.3799881 0.094340946 0)
(-0.32490203 0.26843147 0)
(-0.21864413 0.40489963 0)
(-0.077054165 0.47918701 0)
(0.076965034 0.47922115 0)
(0.21857634 0.4050059 0)
(0.32487494 0.26852302 0)
(0.37997335 0.094383841 0)
(0.3778708 -0.091173727 0)
(0.31982715 -0.26697308 0)
(0.21353063 -0.4060688 0)
(0.074924772 -0.48216092 0)
(-0.080657851 -0.22611438 0)
(-0.22925763 -0.18984961 0)
(-0.34163319 -0.1241256 0)
(-0.40096489 -0.041489883 0)
(-0.40061598 0.0450711 0)
(-0.34075224 0.12556266 0)
(-0.228405 0.18824042 0)
(-0.080337462 0.22233007 0)
(0.080238004 0.22234681 0)
(0.22833486 0.18828872 0)
(0.34072869 0.12560623 0)
(0.40060447 0.045097409 0)
(0.400962 -0.041452966 0)
(0.34168379 -0.12407159 0)
(0.22934523 -0.18982755 0)
(0.080732035 -0.22611504 0)
(-0.036871297 -0.15175488 0)
(-0.10458864 -0.12791443 0)
(-0.15536233 -0.084308756 0)
(-0.18166187 -0.028632034 0)
(-0.18094466 0.030340448 0)
(-0.1536212 0.085008062 0)
(-0.10281939 0.12720322 0)
(-0.036161526 0.15009 0)
(0.036118453 0.150099 0)
(0.1027898 0.12723175 0)
(0.15361106 0.085036207 0)
(0.18094232 0.030362209 0)
(0.18166255 -0.028604464 0)
(0.15538109 -0.0842739 0)
(0.10462503 -0.12790005 0)
(0.036903936 -0.15175402 0)
(-0.026135774 -0.096536688 0)
(-0.074273895 -0.081438319 0)
(-0.11075152 -0.053796774 0)
(-0.13003163 -0.018276404 0)
(-0.12975596 0.019468409 0)
(-0.11009031 0.054250774 0)
(-0.073622008 0.080888441 0)
(-0.025883555 0.095312563 0)
(0.025855268 0.095317574 0)
(0.073601241 0.080904948 0)
(0.11008095 0.05426884 0)
(0.12975306 0.019486618 0)
(0.13003356 -0.018258539 0)
(0.11076518 -0.053776393 0)
(0.074298242 -0.081427948 0)
(0.026158976 -0.096534151 0)
(-0.0074697024 -0.04100954 0)
(-0.021179898 -0.034581256 0)
(-0.031497259 -0.022803486 0)
(-0.036831053 -0.0076637233 0)
(-0.036636795 0.008368612 0)
(-0.031033969 0.023086111 0)
(-0.020727826 0.034289142 0)
(-0.0072901903 0.040336819 0)
(0.0072821063 0.040339012 0)
(0.020722366 0.034297203 0)
(0.031032085 0.023094579 0)
(0.03663665 0.0083773964 0)
(0.036831615 -0.0076551611 0)
(0.031500518 -0.022793567 0)
(0.021186654 -0.034576628 0)
(0.0074755183 -0.041008367 0)
(-0.014241276 -0.07680955 0)
(-0.040525565 -0.06496739 0)
(-0.06059103 -0.043179201 0)
(-0.071345247 -0.014882344 0)
(-0.071255097 0.015473084 0)
(-0.060378215 0.043403684 0)
(-0.040324053 0.064688058 0)
(-0.014170224 0.076190171 0)
(0.014154327 0.07619324 0)
(0.040311251 0.06469952 0)
(0.060370481 0.043418044 0)
(0.071252549 0.01549075 0)
(0.071347966 -0.014866086 0)
(0.060599452 -0.043163385 0)
(0.040538991 -0.064958325 0)
(0.014256035 -0.076805914 0)
(0.0078172109 0.022904926 0)
(0.022307641 0.019493743 0)
(0.033462044 0.013147496 0)
(0.0396045 0.0047672459 0)
(0.039736091 -0.004429037 0)
(0.03377873 -0.013003707 0)
(0.022621056 -0.019620176 0)
(0.0079500523 -0.0232172 0)
(-0.0079431555 -0.023217871 0)
(-0.022614896 -0.019621917 0)
(-0.033774256 -0.013006839 0)
(-0.039734346 -0.004432996 0)
(-0.039605922 0.0047632195 0)
(-0.033466307 0.013144438 0)
(-0.022313568 0.019491487 0)
(-0.0078246998 0.022903956 0)
(-0.022643476 -0.11754957 0)
(-0.064448278 -0.099591254 0)
(-0.096369229 -0.066456521 0)
(-0.11350728 -0.023224491 0)
(-0.11335575 0.023422006 0)
(-0.096006093 0.066521723 0)
(-0.064096081 0.099472777 0)
(-0.022515493 0.11730798 0)
(0.022489196 0.11731218 0)
(0.064074059 0.099488184 0)
(0.095991665 0.066542287 0)
(0.1133507 0.023448062 0)
(0.11351245 -0.02320014 0)
(0.096383833 -0.066434036 0)
(0.064470506 -0.099577797 0)
(0.022669384 -0.11754379 0)
)
;

boundaryField
{
    leftWall
    {
        type            cyclic;
    }
    rightWall
    {
        type            cyclic;
    }
    lowerWall
    {
        type            slip;
    }
    atmosphere
    {
        type            slip;
    }
    defaultFaces
    {
        type            empty;
    }
}


// ************************************************************************* //
