/*--------------------------------*- C++ -*----------------------------------*\
| =========                 |                                                 |
| \\      /  F ield         | OpenFOAM: The Open Source CFD Toolbox           |
|  \\    /   O peration     | Version:  2106                                  |
|   \\  /    A nd           | Website:  www.openfoam.com                      |
|    \\/     M anipulation  |                                                 |
\*---------------------------------------------------------------------------*/
FoamFile
{
    version     2.0;
    format      ascii;
    arch        "LSB;label=32;scalar=64";
    class       volScalarField;
    location    "0.032";
    object      p;
}
// * * * * * * * * * * * * * * * * * * * * * * * * * * * * * * * * * * * * * //

dimensions      [1 -1 -2 0 0 0 0];

internalField   nonuniform List<scalar> 
16384
(
0.62319607
0.62167139
0.61862594
0.61406756
0.60800795
0.60046268
0.5914511
0.58099629
0.569125
0.55586755
0.54125773
0.52533274
0.508133
0.4897021
0.47008662
0.44933602
0.42750246
0.40464071
0.38080792
0.35606352
0.33046902
0.30408783
0.27698516
0.24922775
0.22088377
0.19202261
0.16271472
0.13303141
0.10304473
0.072827228
0.042451733
0.011990974
-0.01848149
-0.048891765
-0.079168086
-0.10923926
-0.13903284
-0.16847813
-0.19750545
-0.22604619
-0.25403297
-0.28139985
-0.30808239
-0.33401787
-0.35914541
-0.38340605
-0.40674294
-0.42910143
-0.4504292
-0.47067637
-0.48979561
-0.50774227
-0.52447441
-0.53995299
-0.55414185
-0.56700791
-0.57852112
-0.58865464
-0.59738483
-0.60469131
-0.61055706
-0.61496838
-0.61791499
-0.61939001
-0.61939001
-0.61791499
-0.61496838
-0.61055706
-0.60469131
-0.59738483
-0.58865464
-0.57852112
-0.56700791
-0.55414185
-0.53995299
-0.52447441
-0.50774227
-0.48979561
-0.47067637
-0.4504292
-0.42910143
-0.40674294
-0.38340605
-0.35914541
-0.33401787
-0.30808239
-0.28139984
-0.25403297
-0.22604619
-0.19750545
-0.16847813
-0.13903284
-0.10923926
-0.079168085
-0.048891765
-0.018481489
0.011990974
0.042451733
0.072827228
0.10304473
0.13303141
0.16271472
0.19202261
0.22088377
0.24922775
0.27698516
0.30408783
0.33046902
0.35606352
0.38080792
0.40464071
0.42750246
0.44933602
0.47008662
0.4897021
0.508133
0.52533274
0.54125773
0.55586755
0.569125
0.58099629
0.5914511
0.60046269
0.60800795
0.61406756
0.61862594
0.62167139
0.62319607
0.62385789
0.62233169
0.61928322
0.61472031
0.60865468
0.60110191
0.59208135
0.58161612
0.56973298
0.55646227
0.54183783
0.52589686
0.50867983
0.49023036
0.47059507
0.44982345
0.42796773
0.40508269
0.38122555
0.35645577
0.33083492
0.30442647
0.27729567
0.24950932
0.22113565
0.1922441
0.16290519
0.13319029
0.10317149
0.072921427
0.042513054
0.012019435
-0.018486513
-0.048930842
-0.079241191
-0.10934593
-0.13917313
-0.16865198
-0.19771267
-0.22628649
-0.25430598
-0.2817051
-0.30841935
-0.33438591
-0.3595438
-0.38383399
-0.40719953
-0.42958568
-0.45094005
-0.47121265
-0.49035608
-0.50832559
-0.52507918
-0.54057771
-0.55478498
-0.56766781
-0.5791961
-0.58934295
-0.59808466
-0.60540082
-0.61127435
-0.61569154
-0.61864207
-0.62011906
-0.62011906
-0.61864207
-0.61569154
-0.61127435
-0.60540082
-0.59808466
-0.58934295
-0.5791961
-0.56766781
-0.55478498
-0.54057771
-0.52507918
-0.50832559
-0.49035608
-0.47121265
-0.45094004
-0.42958568
-0.40719953
-0.38383399
-0.3595438
-0.33438591
-0.30841935
-0.2817051
-0.25430598
-0.22628649
-0.19771267
-0.16865198
-0.13917313
-0.10934593
-0.079241191
-0.048930842
-0.018486513
0.012019436
0.042513054
0.072921427
0.10317149
0.13319029
0.16290519
0.1922441
0.22113565
0.24950932
0.27729567
0.30442647
0.33083492
0.35645577
0.38122555
0.40508269
0.42796773
0.44982345
0.47059507
0.49023036
0.50867983
0.52589686
0.54183783
0.55646227
0.56973298
0.58161612
0.59208135
0.60110191
0.60865468
0.61472031
0.61928322
0.62233169
0.62385789
0.62627096
0.6247388
0.62167841
0.61709767
0.61100834
0.60342606
0.59437029
0.58386421
0.57193472
0.55861227
0.54393085
0.5279278
0.51064378
0.49212256
0.47241097
0.45155868
0.42961813
0.40664433
0.38269471
0.35782896
0.33210889
0.30559822
0.27836243
0.25046859
0.22198516
0.19298186
0.16352945
0.13369957
0.10356458
0.073197355
0.042671133
0.012059304
-0.018564778
-0.049127494
-0.079555972
-0.10977794
-0.13972146
-0.16931547
-0.19848989
-0.22717574
-0.25530531
-0.28281228
-0.30963191
-0.33570112
-0.36095868
-0.38534532
-0.40880385
-0.4312793
-0.45271903
-0.47307285
-0.49229315
-0.51033496
-0.5271561
-0.54271724
-0.556982
-0.56991704
-0.58149214
-0.59168023
-0.60045752
-0.6078035
-0.61370098
-0.61813619
-0.62109877
-0.6225818
-0.6225818
-0.62109877
-0.61813619
-0.61370098
-0.6078035
-0.60045752
-0.59168023
-0.58149214
-0.56991704
-0.556982
-0.54271724
-0.5271561
-0.51033496
-0.49229315
-0.47307285
-0.45271903
-0.4312793
-0.40880385
-0.38534532
-0.36095868
-0.33570112
-0.30963191
-0.28281228
-0.25530531
-0.22717574
-0.19848989
-0.16931547
-0.13972146
-0.10977794
-0.079555971
-0.049127493
-0.018564777
0.012059304
0.042671133
0.073197355
0.10356458
0.13369957
0.16352945
0.19298186
0.22198516
0.25046859
0.27836243
0.30559822
0.33210889
0.35782896
0.38269471
0.40664433
0.42961813
0.45155868
0.47241097
0.49212256
0.51064378
0.5279278
0.54393085
0.55861227
0.57193472
0.58386421
0.59437029
0.60342607
0.61100834
0.61709767
0.62167841
0.6247388
0.62627096
0.63025937
0.62871723
0.62563693
0.62102638
0.61489745
0.60726588
0.59815127
0.58757698
0.57557009
0.56216129
0.54738478
0.5312782
0.51388246
0.49524167
0.47540295
0.45441633
0.4323346
0.40921314
0.38510977
0.36008457
0.33419975
0.30751943
0.28010953
0.25203753
0.22337234
0.1941841
0.164544
0.13452415
0.10419731
0.073636829
0.042916375
0.012109806
-0.018709
-0.049466215
-0.080088461
-0.11050289
-0.14063719
-0.17041989
-0.19978047
-0.22864952
-0.25695892
-0.28464195
-0.31163342
-0.33786989
-0.36328972
-0.38783324
-0.41144289
-0.43406333
-0.45564158
-0.47612709
-0.49547192
-0.51363078
-0.53056121
-0.54622357
-0.56058124
-0.57360063
-0.58525128
-0.59550594
-0.60434063
-0.61173467
-0.61767077
-0.62213504
-0.62511704
-0.62660978
-0.62660978
-0.62511704
-0.62213504
-0.61767077
-0.61173467
-0.60434063
-0.59550594
-0.58525128
-0.57360063
-0.56058124
-0.54622357
-0.53056121
-0.51363078
-0.49547192
-0.47612709
-0.45564158
-0.43406333
-0.41144289
-0.38783324
-0.36328972
-0.33786989
-0.31163342
-0.28464194
-0.25695892
-0.22864952
-0.19978047
-0.17041989
-0.14063719
-0.11050289
-0.08008846
-0.049466214
-0.018709
0.012109807
0.042916375
0.07363683
0.10419731
0.13452415
0.16454401
0.1941841
0.22337234
0.25203753
0.28010953
0.30751943
0.33419975
0.36008457
0.38510977
0.40921315
0.4323346
0.45441633
0.47540295
0.49524167
0.51388246
0.5312782
0.54738478
0.56216129
0.57557009
0.58757698
0.59815127
0.60726588
0.61489745
0.62102638
0.62563693
0.62871723
0.63025937
0.6357555
0.63419956
0.6310917
0.62643991
0.62025618
0.61255641
0.6033604
0.59269174
0.5805778
0.56704955
0.55214155
0.5358918
0.51834161
0.49953552
0.4795211
0.45834887
0.4360721
0.41274669
0.38843098
0.36318563
0.33707339
0.31015897
0.28250885
0.25419112
0.22527528
0.19583208
0.16593332
0.13565169
0.10506061
0.074234013
0.043246183
0.012171603
-0.018915232
-0.049939949
-0.080828545
-0.11150752
-0.141904
-0.17194592
-0.20156216
-0.23068275
-0.25923898
-0.28716357
-0.31439079
-0.34085663
-0.36649891
-0.39125746
-0.41507418
-0.43789326
-0.45966121
-0.48032704
-0.49984234
-0.51816142
-0.53524138
-0.55104224
-0.565527
-0.57866174
-0.59041571
-0.60076139
-0.60967455
-0.6171343
-0.62312319
-0.62762717
-0.6306357
-0.63214173
-0.63214173
-0.6306357
-0.62762717
-0.62312319
-0.6171343
-0.60967455
-0.60076139
-0.59041571
-0.57866174
-0.565527
-0.55104224
-0.53524138
-0.51816142
-0.49984234
-0.48032704
-0.45966121
-0.43789326
-0.41507418
-0.39125746
-0.36649891
-0.34085663
-0.31439079
-0.28716357
-0.25923898
-0.23068275
-0.20156216
-0.17194592
-0.141904
-0.11150752
-0.080828544
-0.049939948
-0.018915232
0.012171603
0.043246184
0.074234013
0.10506061
0.13565169
0.16593332
0.19583208
0.22527528
0.25419112
0.28250885
0.31015897
0.33707339
0.36318563
0.38843099
0.41274669
0.4360721
0.45834887
0.4795211
0.49953552
0.51834162
0.5358918
0.55214155
0.56704955
0.5805778
0.59269174
0.6033604
0.61255641
0.62025618
0.62643991
0.6310917
0.63419956
0.6357555
0.64277614
0.64120252
0.63805935
0.63335474
0.62710081
0.6193137
0.61001344
0.59922395
0.58697291
0.57329172
0.55821538
0.54178234
0.52403446
0.5050168
0.48477754
0.46336779
0.44084148
0.41725516
0.39266787
0.36714097
0.34073793
0.31352421
0.28556703
0.25693524
0.22769911
0.19793016
0.16770097
0.13708502
0.1061565
0.074990135
0.043660992
0.012244334
-0.019184563
-0.050550574
-0.081778918
-0.11279532
-0.14352614
-0.17389855
-0.20384072
-0.23328192
-0.26215272
-0.29038512
-0.31791268
-0.34467069
-0.37059632
-0.39562869
-0.4197091
-0.44278107
-0.46479051
-0.48568585
-0.50541812
-0.52394108
-0.54121133
-0.5571884
-0.57183485
-0.58511634
-0.59700174
-0.60746319
-0.61647616
-0.62401949
-0.63007551
-0.63463
-0.63767228
-0.6391952
-0.6391952
-0.63767228
-0.63463
-0.63007551
-0.62401949
-0.61647616
-0.60746319
-0.59700174
-0.58511634
-0.57183485
-0.5571884
-0.54121133
-0.52394108
-0.50541812
-0.48568585
-0.46479051
-0.44278107
-0.4197091
-0.39562869
-0.37059632
-0.34467069
-0.31791268
-0.29038512
-0.26215272
-0.23328192
-0.20384072
-0.17389855
-0.14352614
-0.11279532
-0.081778918
-0.050550573
-0.019184562
0.012244335
0.043660993
0.074990136
0.1061565
0.13708502
0.16770097
0.19793016
0.22769911
0.25693524
0.28556703
0.31352421
0.34073793
0.36714097
0.39266788
0.41725516
0.44084148
0.46336779
0.48477754
0.5050168
0.52403446
0.54178234
0.55821538
0.57329172
0.58697291
0.59922395
0.61001344
0.6193137
0.62710082
0.63335474
0.63805935
0.64120252
0.64277614
0.65134377
0.64974853
0.64656218
0.64179296
0.6354532
0.62755926
0.61813151
0.60719424
0.59477558
0.5809074
0.56562523
0.54896814
0.53097859
0.51170235
0.49118829
0.4694883
0.44665708
0.422752
0.39783296
0.37196216
0.34520398
0.31762477
0.28929268
0.26027748
0.23065039
0.20048386
0.16985145
0.13882757
0.10748738
0.075906542
0.044161098
0.012327257
-0.01951876
-0.05130089
-0.082943415
-0.11437112
-0.14550944
-0.17628464
-0.20662397
-0.23645583
-0.26570988
-0.29431726
-0.32221067
-0.34932457
-0.37559528
-0.40096113
-0.42536263
-0.44874254
-0.47104603
-0.4922208
-0.51221722
-0.53098838
-0.54849028
-0.56468185
-0.57952511
-0.59298522
-0.6050306
-0.61563295
-0.62476739
-0.63241245
-0.63855017
-0.64316613
-0.64624948
-0.64779297
-0.64779297
-0.64624948
-0.64316613
-0.63855017
-0.63241245
-0.62476739
-0.61563295
-0.6050306
-0.59298522
-0.57952511
-0.56468185
-0.54849028
-0.53098838
-0.51221722
-0.4922208
-0.47104603
-0.44874254
-0.42536263
-0.40096113
-0.37559528
-0.34932457
-0.32221067
-0.29431726
-0.26570988
-0.23645583
-0.20662397
-0.17628464
-0.14550944
-0.11437112
-0.082943414
-0.05130089
-0.019518759
0.012327257
0.044161098
0.075906543
0.10748738
0.13882757
0.16985145
0.20048387
0.23065039
0.26027748
0.28929268
0.31762477
0.34520398
0.37196217
0.39783296
0.422752
0.44665708
0.4694883
0.49118829
0.51170235
0.53097859
0.54896814
0.56562523
0.5809074
0.59477558
0.60719425
0.61813151
0.62755926
0.6354532
0.64179296
0.64656218
0.64974853
0.65134377
0.66147938
0.65985851
0.65662097
0.65177517
0.64533365
0.6373131
0.62773425
0.61662184
0.60400452
0.58991474
0.57438869
0.55746612
0.53919026
0.51960769
0.49876813
0.47672437
0.45353205
0.42924952
0.40393766
0.37765973
0.35048115
0.32246934
0.29369355
0.26422465
0.23413496
0.20349808
0.17238867
0.14088229
0.10905522
0.07698425
0.044746555
0.012419467
-0.019919675
-0.052193699
-0.08432578
-0.1162396
-0.14785951
-0.1791107
-0.20991935
-0.24021279
-0.26991966
-0.29897006
-0.32729569
-0.35483
-0.38150836
-0.40726814
-0.43204892
-0.45579255
-0.47844335
-0.49994818
-0.52025658
-0.5393209
-0.55709638
-0.57354128
-0.58861698
-0.60228806
-0.61452236
-0.62529113
-0.63456903
-0.64233423
-0.64856844
-0.65325699
-0.65638884
-0.65795662
-0.65795662
-0.65638884
-0.65325699
-0.64856844
-0.64233423
-0.63456903
-0.62529113
-0.61452236
-0.60228806
-0.58861698
-0.57354128
-0.55709638
-0.53932089
-0.52025658
-0.49994818
-0.47844335
-0.45579255
-0.43204891
-0.40726814
-0.38150836
-0.35483
-0.32729569
-0.29897006
-0.26991966
-0.24021279
-0.20991935
-0.1791107
-0.14785951
-0.1162396
-0.08432578
-0.052193699
-0.019919674
0.012419468
0.044746555
0.07698425
0.10905522
0.14088229
0.17238867
0.20349808
0.23413496
0.26422465
0.29369355
0.32246934
0.35048115
0.37765973
0.40393766
0.42924952
0.45353205
0.47672437
0.49876813
0.51960769
0.53919026
0.55746612
0.57438869
0.58991474
0.60400452
0.61662184
0.62773425
0.6373131
0.64533365
0.65177517
0.65662097
0.65985851
0.66147938
0.67320716
0.67155658
0.6682597
0.66332511
0.65676563
0.64859829
0.63884429
0.62752887
0.61468128
0.60033468
0.58452598
0.56729577
0.54868817
0.52875067
0.50753402
0.48509205
0.46148148
0.43676181
0.41099508
0.38424574
0.35658044
0.32806785
0.29877848
0.26878448
0.23815948
0.20697835
0.17531707
0.14325251
0.11086223
0.078224368
0.045417369
0.012519872
-0.020389493
-0.053232274
-0.085930369
-0.11840619
-0.15058285
-0.18238427
-0.21373541
-0.2445624
-0.27479266
-0.30435512
-0.33318031
-0.36120053
-0.38835004
-0.4145651
-0.43978423
-0.46394825
-0.48700046
-0.50888675
-0.52955573
-0.54895886
-0.56705055
-0.58378826
-0.59913263
-0.61304753
-0.62550021
-0.63646133
-0.64590505
-0.6538091
-0.66015485
-0.66492731
-0.66811523
-0.66971107
-0.66971107
-0.66811523
-0.66492731
-0.66015485
-0.6538091
-0.64590505
-0.63646133
-0.62550021
-0.61304753
-0.59913263
-0.58378826
-0.56705055
-0.54895886
-0.52955573
-0.50888675
-0.48700046
-0.46394825
-0.43978423
-0.4145651
-0.38835003
-0.36120053
-0.3331803
-0.30435512
-0.27479266
-0.2445624
-0.21373541
-0.18238427
-0.15058284
-0.11840619
-0.085930369
-0.053232274
-0.020389492
0.012519873
0.04541737
0.078224368
0.11086223
0.14325251
0.17531707
0.20697836
0.23815948
0.26878448
0.29877848
0.32806785
0.35658044
0.38424574
0.41099508
0.43676181
0.46148148
0.48509205
0.50753402
0.52875067
0.54868817
0.56729577
0.58452598
0.60033468
0.61468128
0.62752887
0.63884429
0.64859829
0.65676563
0.66332511
0.6682597
0.67155658
0.67320716
0.68655554
0.68487106
0.6815065
0.67647065
0.66977664
0.66144192
0.65148818
0.63994128
0.62683116
0.61219175
0.59606083
0.57847994
0.5594942
0.53915221
0.51750584
0.49461012
0.47052304
0.44530537
0.41902051
0.39173427
0.3635147
0.33443189
0.3045578
0.27396604
0.2427317
0.21093114
0.17864181
0.14594207
0.11291099
0.079628155
0.046173509
0.012627156
-0.020930809
-0.054420479
-0.087762307
-0.12087727
-0.15368705
-0.18611419
-0.21808223
-0.24951592
-0.28034133
-0.31048604
-0.33987926
-0.36845202
-0.39613726
-0.42287004
-0.44858764
-0.47322969
-0.49673837
-0.51905846
-0.54013751
-0.55992597
-0.57837728
-0.59544801
-0.61109794
-0.62529017
-0.63799123
-0.64917113
-0.65880347
-0.66686548
-0.67333809
-0.67820601
-0.6814577
-0.68308547
-0.68308547
-0.6814577
-0.67820601
-0.67333809
-0.66686548
-0.65880347
-0.64917113
-0.63799123
-0.62529017
-0.61109794
-0.59544801
-0.57837728
-0.55992597
-0.54013751
-0.51905846
-0.49673837
-0.47322969
-0.44858764
-0.42287004
-0.39613726
-0.36845202
-0.33987926
-0.31048604
-0.28034133
-0.24951592
-0.21808223
-0.18611419
-0.15368705
-0.12087727
-0.087762306
-0.054420479
-0.020930808
0.012627157
0.046173509
0.079628156
0.11291099
0.14594207
0.17864181
0.21093114
0.2427317
0.27396604
0.3045578
0.33443189
0.3635147
0.39173427
0.41902051
0.44530537
0.47052304
0.49461012
0.51750584
0.53915221
0.55949421
0.57847994
0.59606083
0.61219175
0.62683116
0.63994128
0.65148818
0.66144192
0.66977664
0.67647065
0.6815065
0.68487106
0.68655554
0.70155697
0.69983432
0.69639354
0.69124365
0.68439814
0.67587492
0.66569626
0.65388871
0.640483
0.62551394
0.6090203
0.59104468
0.57163336
0.55083615
0.52870623
0.50529999
0.48067683
0.454899
0.42803139
0.40014136
0.37129854
0.34157464
0.31104323
0.27977956
0.24786039
0.21536372
0.18236869
0.14895532
0.11520433
0.081196986
0.047014878
0.012739761
-0.021546632
-0.055762767
-0.089827479
-0.12366015
-0.15718085
-0.19031056
-0.22297127
-0.25508618
-0.28657984
-0.31737832
-0.34740936
-0.37660253
-0.40488936
-0.43220349
-0.45848084
-0.48365974
-0.50768106
-0.53048834
-0.55202796
-0.57224921
-0.59110447
-0.60854927
-0.62454245
-0.63904623
-0.65202632
-0.66345201
-0.67329626
-0.68153573
-0.68815089
-0.69312604
-0.69644939
-0.69811304
-0.69811304
-0.69644939
-0.69312604
-0.68815089
-0.68153573
-0.67329626
-0.66345201
-0.65202632
-0.63904622
-0.62454245
-0.60854927
-0.59110447
-0.57224921
-0.55202796
-0.53048834
-0.50768106
-0.48365974
-0.45848084
-0.43220349
-0.40488936
-0.37660253
-0.34740936
-0.31737832
-0.28657984
-0.25508618
-0.22297127
-0.19031056
-0.15718085
-0.12366014
-0.089827478
-0.055762766
-0.021546632
0.012739762
0.047014878
0.081196986
0.11520433
0.14895532
0.18236869
0.21536372
0.24786039
0.27977956
0.31104323
0.34157464
0.37129854
0.40014136
0.42803139
0.454899
0.48067683
0.50529999
0.52870623
0.55083615
0.57163336
0.59104468
0.6090203
0.62551394
0.640483
0.65388871
0.66569626
0.67587492
0.68439814
0.69124365
0.69639354
0.69983432
0.70155697
0.71824798
0.71648276
0.71295698
0.70767992
0.70066548
0.69193208
0.68150264
0.66940449
0.65566925
0.64033272
0.62343479
0.60501924
0.58513366
0.56382923
0.54116059
0.51718564
0.49196539
0.4655637
0.43804718
0.4094849
0.37994827
0.34951078
0.31824781
0.28623645
0.25355529
0.2202842
0.18650415
0.15229701
0.11774537
0.082932319
0.047941293
0.012855869
-0.022240405
-0.057264194
-0.092132542
-0.12676305
-0.16107406
-0.19498477
-0.22841546
-0.26128762
-0.29352412
-0.32504938
-0.35578948
-0.38567237
-0.41462801
-0.44258849
-0.46948822
-0.49526405
-0.51985542
-0.54320449
-0.56525631
-0.5859589
-0.60526344
-0.62312432
-0.63949932
-0.65434967
-0.66764018
-0.67933933
-0.68941933
-0.69785624
-0.70463
-0.70972448
-0.71312755
-0.71483112
-0.71483112
-0.71312755
-0.70972448
-0.70463
-0.69785624
-0.68941933
-0.67933933
-0.66764018
-0.65434967
-0.63949932
-0.62312432
-0.60526344
-0.5859589
-0.56525631
-0.54320449
-0.51985542
-0.49526405
-0.46948822
-0.44258849
-0.41462801
-0.38567237
-0.35578948
-0.32504938
-0.29352412
-0.26128762
-0.22841546
-0.19498477
-0.16107406
-0.12676305
-0.092132542
-0.057264193
-0.022240405
0.01285587
0.047941294
0.08293232
0.11774537
0.15229701
0.18650415
0.2202842
0.25355529
0.28623645
0.31824781
0.34951078
0.37994827
0.4094849
0.43804718
0.4655637
0.49196539
0.51718564
0.54116059
0.56382923
0.58513366
0.60501924
0.62343479
0.64033272
0.65566925
0.66940449
0.68150264
0.69193208
0.70066548
0.70767992
0.71295698
0.71648276
0.71824798
0.73666927
0.73485696
0.73123713
0.72581938
0.71861804
0.70965212
0.69894528
0.68652571
0.672426
0.6566831
0.6393381
0.62043614
0.60002625
0.57816115
0.55489709
0.53029368
0.50441367
0.47732278
0.44908946
0.41978472
0.38948192
0.35825653
0.32618595
0.29334928
0.25982714
0.22570145
0.19105521
0.15597235
0.12053746
0.084835683
0.048952461
0.012973377
-0.023016031
-0.058930448
-0.094684958
-0.13019522
-0.16537762
-0.20014948
-0.23442917
-0.26813631
-0.30119193
-0.33351858
-0.36504058
-0.3956841
-0.42537734
-0.45405069
-0.48163689
-0.50807116
-0.53329137
-0.55723814
-0.57985507
-0.60108876
-0.62088906
-0.63920909
-0.65600546
-0.67123831
-0.68487143
-0.69687241
-0.70721265
-0.71586752
-0.72281635
-0.72804256
-0.73153365
-0.73328128
-0.73328128
-0.73153365
-0.72804256
-0.72281635
-0.71586752
-0.70721265
-0.69687241
-0.68487143
-0.67123831
-0.65600546
-0.63920909
-0.62088906
-0.60108876
-0.57985507
-0.55723814
-0.53329137
-0.50807116
-0.48163689
-0.45405069
-0.42537734
-0.3956841
-0.36504058
-0.33351858
-0.30119193
-0.26813631
-0.23442917
-0.20014948
-0.16537762
-0.13019522
-0.094684957
-0.058930447
-0.023016031
0.012973377
0.048952461
0.084835684
0.12053746
0.15597235
0.19105521
0.22570145
0.25982714
0.29334928
0.32618595
0.35825653
0.38948192
0.41978472
0.44908946
0.47732278
0.50441367
0.53029368
0.55489709
0.57816115
0.60002625
0.62043614
0.6393381
0.6566831
0.672426
0.68652571
0.69894528
0.70965212
0.71861804
0.72581938
0.73123713
0.73485696
0.73666927
0.75686585
0.75500176
0.75127855
0.74570614
0.73829935
0.72907786
0.71806614
0.70529331
0.69079311
0.67460368
0.65676752
0.63733124
0.61634547
0.59386462
0.56994676
0.54465336
0.51804914
0.49020181
0.4611819
0.43106255
0.39991925
0.36782967
0.3348734
0.30113177
0.26668763
0.23162513
0.19602951
0.15998692
0.12358418
0.086908642
0.050047946
0.013089862
-0.023877904
-0.060767882
-0.09749302
-0.13396686
-0.17010368
-0.20581873
-0.24102831
-0.27565001
-0.30960281
-0.34280731
-0.37518583
-0.4066626
-0.43716393
-0.46661834
-0.49495673
-0.52211254
-0.5480219
-0.57262377
-0.59586011
-0.61767599
-0.63801978
-0.65684323
-0.67410162
-0.68975388
-0.70376273
-0.71609472
-0.72672038
-0.7356143
-0.74275516
-0.74812586
-0.7517135
-0.75350947
-0.75350947
-0.7517135
-0.74812586
-0.74275516
-0.7356143
-0.72672038
-0.71609472
-0.70376273
-0.68975388
-0.67410162
-0.65684323
-0.63801978
-0.61767599
-0.59586011
-0.57262377
-0.5480219
-0.52211254
-0.49495673
-0.46661834
-0.43716393
-0.4066626
-0.37518583
-0.34280731
-0.30960281
-0.27565001
-0.24102831
-0.20581873
-0.17010368
-0.13396686
-0.09749302
-0.060767882
-0.023877904
0.013089862
0.050047947
0.086908643
0.12358418
0.15998692
0.19602951
0.23162513
0.26668763
0.30113177
0.3348734
0.36782967
0.39991925
0.43106255
0.4611819
0.49020181
0.51804914
0.54465336
0.56994676
0.59386462
0.61634547
0.63733124
0.65676752
0.67460369
0.69079311
0.70529331
0.71806614
0.72907786
0.73829935
0.74570614
0.75127855
0.75500176
0.75686585
0.77888713
0.77696642
0.77313016
0.76738863
0.7597572
0.75025628
0.73891123
0.72575224
0.71081426
0.69413682
0.6757639
0.65574379
0.63412887
0.61097543
0.58634352
0.56029668
0.53290176
0.5042287
0.47435032
0.44334204
0.41128175
0.37824947
0.34432723
0.30959878
0.27414939
0.23806564
0.20143522
0.16434669
0.12688929
0.089152766
0.05122714
0.013202549
-0.024830948
-0.062783553
-0.1005659
-0.13808924
-0.17526559
-0.21200792
-0.24823032
-0.28384816
-0.31877824
-0.35293898
-0.38625058
-0.41863516
-0.45001694
-0.48032242
-0.50948051
-0.53742268
-0.56408318
-0.58939914
-0.61331075
-0.63576139
-0.6566978
-0.67607021
-0.69383248
-0.70994221
-0.72436088
-0.73705395
-0.74799099
-0.7571457
-0.76449608
-0.77002442
-0.7737174
-0.77556612
-0.77556612
-0.7737174
-0.77002442
-0.76449608
-0.7571457
-0.74799099
-0.73705395
-0.72436088
-0.70994221
-0.69383248
-0.67607021
-0.6566978
-0.63576139
-0.61331075
-0.58939915
-0.56408318
-0.53742268
-0.50948051
-0.48032242
-0.45001694
-0.41863516
-0.38625058
-0.35293898
-0.31877824
-0.28384816
-0.24823032
-0.21200792
-0.17526559
-0.13808924
-0.1005659
-0.062783553
-0.024830948
0.013202549
0.05122714
0.089152766
0.12688929
0.16434669
0.20143522
0.23806564
0.27414939
0.30959878
0.34432723
0.37824947
0.41128175
0.44334204
0.47435032
0.5042287
0.53290176
0.56029668
0.58634352
0.61097543
0.63412887
0.65574379
0.6757639
0.69413682
0.71081426
0.72575224
0.73891123
0.75025628
0.7597572
0.76738863
0.77313016
0.77696642
0.77888713
0.80278709
0.80080474
0.79684539
0.79091973
0.78304375
0.77323865
0.76153077
0.74795149
0.73253709
0.71532863
0.69637175
0.67571654
0.65341733
0.62953249
0.60412421
0.57725833
0.54900404
0.51943371
0.48862263
0.45664878
0.42359261
0.38953674
0.35456583
0.31876627
0.28222595
0.24503411
0.20728106
0.16905797
0.13045671
0.091569587
0.052489211
0.013308266
-0.025880662
-0.064985268
-0.1039137
-0.14257474
-0.18087796
-0.2187339
-0.25605426
-0.29275201
-0.32874161
-0.36393914
-0.39826248
-0.43163147
-0.46396811
-0.49519667
-0.52524389
-0.55403915
-0.58151463
-0.60760545
-0.63224988
-0.65538945
-0.67696913
-0.6969375
-0.71524682
-0.73185326
-0.74671697
-0.75980218
-0.77107738
-0.78051537
-0.78809332
-0.7937929
-0.79760032
-0.79950633
-0.79950633
-0.79760032
-0.7937929
-0.78809332
-0.78051537
-0.77107738
-0.75980218
-0.74671697
-0.73185326
-0.71524682
-0.6969375
-0.67696913
-0.65538945
-0.63224988
-0.60760545
-0.58151463
-0.55403916
-0.52524389
-0.49519667
-0.46396811
-0.43163147
-0.39826248
-0.36393914
-0.32874161
-0.29275201
-0.25605426
-0.2187339
-0.18087796
-0.14257474
-0.1039137
-0.064985268
-0.025880662
0.013308266
0.052489211
0.091569587
0.13045671
0.16905797
0.20728106
0.24503411
0.28222595
0.31876627
0.35456583
0.38953674
0.42359261
0.45664878
0.48862263
0.51943371
0.54900404
0.57725833
0.60412421
0.62953249
0.65341733
0.67571654
0.69637175
0.71532863
0.73253709
0.74795149
0.76153077
0.77323865
0.78304375
0.79091973
0.79684539
0.80080474
0.80278709
0.82862445
0.82657522
0.82248234
0.81635695
0.8082157
0.79808068
0.78597931
0.77194427
0.75601332
0.73822917
0.7186393
0.6972958
0.67425511
0.64957787
0.62332867
0.5955758
0.56639105
0.53584942
0.50402892
0.47101029
0.43687675
0.4017138
0.3656089
0.32865129
0.29093175
0.25254234
0.2135762
0.17412735
0.13429043
0.094160546
0.05383306
0.013403388
-0.027033175
-0.067381637
-0.10754748
-0.14743686
-0.18695671
-0.22601501
-0.26452084
-0.30238464
-0.33951833
-0.37583548
-0.4112515
-0.44568378
-0.47905187
-0.51127768
-0.54228561
-0.57200273
-0.600359
-0.62728738
-0.65272402
-0.67660846
-0.69888374
-0.71949661
-0.73839763
-0.75554138
-0.77088653
-0.78439601
-0.79603712
-0.80578162
-0.81360584
-0.81949074
-0.823422
-0.82539003
-0.82539003
-0.823422
-0.81949074
-0.81360584
-0.80578162
-0.79603712
-0.78439601
-0.77088653
-0.75554138
-0.73839763
-0.71949661
-0.69888374
-0.67660846
-0.65272402
-0.62728738
-0.600359
-0.57200273
-0.54228561
-0.51127768
-0.47905188
-0.44568378
-0.4112515
-0.37583548
-0.33951833
-0.30238464
-0.26452084
-0.22601501
-0.18695671
-0.14743686
-0.10754748
-0.067381637
-0.027033175
0.013403388
0.05383306
0.094160546
0.13429043
0.17412735
0.2135762
0.25254234
0.29093175
0.32865129
0.3656089
0.4017138
0.43687675
0.47101029
0.50402892
0.53584942
0.56639105
0.5955758
0.62332867
0.64957787
0.67425511
0.6972958
0.7186393
0.73822917
0.75601332
0.77194427
0.78597931
0.79808068
0.8082157
0.81635695
0.82248234
0.82657522
0.82862445
0.85646278
0.85434122
0.85010393
0.84376254
0.83533443
0.82484266
0.81231586
0.79778811
0.78129881
0.76289248
0.74261864
0.72053151
0.6966899
0.67115693
0.64399976
0.6152894
0.58510045
0.5535108
0.5206014
0.48645597
0.45116079
0.4148044
0.37747734
0.33927194
0.30028203
0.26060274
0.22033026
0.17956163
0.1383945
0.096926934
0.055257249
0.013483774
-0.028295306
-0.069982136
-0.11147937
-0.15269033
-0.19351918
-0.23387112
-0.27365249
-0.31277101
-0.35113587
-0.38865798
-0.42525006
-0.4608269
-0.49530543
-0.52860499
-0.56064747
-0.59135747
-0.62066252
-0.64849324
-0.67478351
-0.69947067
-0.72249569
-0.74380331
-0.76334227
-0.78106537
-0.7969297
-0.81089675
-0.82293252
-0.83300766
-0.84109755
-0.84718238
-0.85124724
-0.85328217
-0.85328217
-0.85124724
-0.84718238
-0.84109755
-0.83300766
-0.82293252
-0.81089675
-0.7969297
-0.78106537
-0.76334227
-0.74380332
-0.72249569
-0.69947067
-0.67478351
-0.64849324
-0.62066252
-0.59135747
-0.56064747
-0.528605
-0.49530543
-0.4608269
-0.42525007
-0.38865798
-0.35113587
-0.31277101
-0.27365249
-0.23387112
-0.19351918
-0.15269033
-0.11147937
-0.069982137
-0.028295306
0.013483773
0.055257248
0.096926933
0.13839449
0.17956163
0.22033026
0.26060274
0.30028202
0.33927194
0.37747734
0.4148044
0.45116079
0.48645597
0.5206014
0.5535108
0.58510045
0.6152894
0.64399975
0.67115693
0.6966899
0.72053151
0.74261864
0.76289248
0.78129881
0.79778811
0.81231586
0.82484266
0.83533443
0.84376254
0.85010393
0.85434122
0.85646278
0.88637076
0.88417117
0.8797781
0.8732037
0.86446618
0.85358964
0.84060404
0.82554502
0.80845376
0.78937677
0.76836577
0.74547737
0.72077294
0.69431827
0.66618339
0.63644227
0.60517252
0.57245518
0.5383744
0.50301716
0.466473
0.42883376
0.39019331
0.35064728
0.3102928
0.26922829
0.2275532
0.18536779
0.14277291
0.099869814
0.056759929
0.013544693
-0.029674643
-0.072797186
-0.11572258
-0.15835116
-0.20058414
-0.24232376
-0.28347347
-0.32393805
-0.36362385
-0.40243889
-0.44029306
-0.47709832
-0.51276884
-0.54722118
-0.58037453
-0.61215082
-0.64247498
-0.67127509
-0.69848257
-0.7240324
-0.74786327
-0.76991778
-0.79014261
-0.80848871
-0.82491141
-0.83937061
-0.85183093
-0.86226177
-0.87063747
-0.87693741
-0.88114604
-0.88325296
-0.88325296
-0.88114604
-0.87693741
-0.87063747
-0.86226177
-0.85183093
-0.83937061
-0.82491141
-0.80848871
-0.79014261
-0.76991778
-0.74786327
-0.7240324
-0.69848257
-0.67127509
-0.64247498
-0.61215082
-0.58037453
-0.54722118
-0.51276884
-0.47709832
-0.44029306
-0.40243889
-0.36362385
-0.32393805
-0.28347347
-0.24232376
-0.20058414
-0.15835116
-0.11572258
-0.072797187
-0.029674644
0.013544692
0.056759928
0.099869813
0.14277291
0.18536779
0.2275532
0.26922829
0.3102928
0.35064727
0.39019331
0.42883376
0.466473
0.50301716
0.5383744
0.57245518
0.60517252
0.63644227
0.66618339
0.69431827
0.72077294
0.74547737
0.76836577
0.78937677
0.80845376
0.82554502
0.84060404
0.85358964
0.86446618
0.8732037
0.8797781
0.88417117
0.88637076
0.91842232
0.91613874
0.91157796
0.90475275
0.89568219
0.88439157
0.87091226
0.85528163
0.83754279
0.81774447
0.79594076
0.7721909
0.74655903
0.71911391
0.68992864
0.65908039
0.62665012
0.59272225
0.55738439
0.52072702
0.48284325
0.44382846
0.40378008
0.36279729
0.32098077
0.27843244
0.23525524
0.19155285
0.14742955
0.10298993
0.058338751
0.013580732
-0.031179631
-0.075838235
-0.12029154
-0.16443673
-0.2081719
-0.25139616
-0.29400988
-0.33591477
-0.37701412
-0.4172129
-0.45641799
-0.49453833
-0.53148511
-0.56717196
-0.60151515
-0.63443375
-0.66584988
-0.69568888
-0.72387953
-0.75035422
-0.77504921
-0.79790473
-0.81886529
-0.83787975
-0.85490157
-0.86988892
-0.88280487
-0.89361751
-0.90230003
-0.90883089
-0.91319385
-0.91537806
-0.91537806
-0.91319385
-0.90883089
-0.90230003
-0.89361751
-0.88280487
-0.86988892
-0.85490157
-0.83787975
-0.81886529
-0.79790474
-0.77504921
-0.75035422
-0.72387953
-0.69568888
-0.66584988
-0.63443375
-0.60151515
-0.56717196
-0.53148511
-0.49453833
-0.45641799
-0.4172129
-0.37701412
-0.33591478
-0.29400988
-0.25139616
-0.2081719
-0.16443673
-0.12029154
-0.075838236
-0.031179633
0.01358073
0.05833875
0.10298993
0.14742955
0.19155285
0.23525524
0.27843244