/*--------------------------------*- C++ -*----------------------------------*\
| =========                 |                                                 |
| \\      /  F ield         | OpenFOAM: The Open Source CFD Toolbox           |
|  \\    /   O peration     | Version:  2306                                  |
|   \\  /    A nd           | Website:  www.openfoam.com                      |
|    \\/     M anipulation  |                                                 |
\*---------------------------------------------------------------------------*/
FoamFile
{
    version     2.0;
    format      ascii;
    arch        "LSB;label=32;scalar=64";
    class       surfaceScalarField;
    location    "0.51";
    object      phi_0;
}
// * * * * * * * * * * * * * * * * * * * * * * * * * * * * * * * * * * * * * //

dimensions      [0 3 -1 0 0 0 0];

oriented        oriented;

internalField   nonuniform List<scalar> 
12640
(
7.9392257e-07
2.8142803e-08
7.6600688e-07
2.7915689e-08
7.3837923e-07
2.762765e-08
7.1108723e-07
2.7292e-08
6.8417391e-07
2.6913325e-08
6.5768007e-07
2.649383e-08
6.3164341e-07
2.603667e-08
6.060985e-07
2.5544905e-08
5.8107467e-07
2.5023841e-08
5.5659866e-07
2.4476002e-08
5.3269378e-07
2.3904884e-08
5.0938004e-07
2.3313734e-08
4.8667439e-07
2.2705655e-08
4.6459041e-07
2.208398e-08
4.4313889e-07
2.1451516e-08
4.2232794e-07
2.0810948e-08
4.0216313e-07
2.0164815e-08
3.8264757e-07
1.9515553e-08
3.6378217e-07
1.8865401e-08
3.4556586e-07
1.8216321e-08
3.2799577e-07
1.7570075e-08
3.1106761e-07
1.6928162e-08
2.9477572e-07
1.6291893e-08
2.791133e-07
1.5662416e-08
2.6407269e-07
1.504062e-08
2.4964437e-07
1.4428315e-08
2.3581764e-07
1.3826734e-08
2.225806e-07
1.3237034e-08
2.099204e-07
1.2660198e-08
1.9782364e-07
1.2096769e-08
1.8627646e-07
1.1547179e-08
1.7526344e-07
1.1013015e-08
1.6476424e-07
1.04992e-08
1.5476404e-07
1.0000211e-08
1.452485e-07
9.5155375e-09
1.3620297e-07
9.0455259e-09
1.2761304e-07
8.5899395e-09
1.1946573e-07
8.1473047e-09
1.1175118e-07
7.7145585e-09
1.0446042e-07
7.2907527e-09
9.7556397e-08
6.9040345e-09
9.1019991e-08
6.5364049e-09
8.4840741e-08
6.1792428e-09
7.9006608e-08
5.8341287e-09
7.350418e-08
5.5024227e-09
6.8319592e-08
5.1845973e-09
6.343891e-08
4.8806872e-09
5.8848405e-08
4.5904973e-09
5.4534627e-08
4.3137645e-09
5.0484484e-08
4.0501548e-09
4.6685177e-08
3.7993125e-09
4.3124278e-08
3.5608902e-09
3.9789675e-08
3.334599e-09
3.6669728e-08
3.1199298e-09
3.3753117e-08
2.9166052e-09
3.1028995e-08
2.7241313e-09
2.8486839e-08
2.5421557e-09
2.6114771e-08
2.3720675e-09
2.390455e-08
2.210232e-09
2.1844646e-08
2.0599043e-09
1.99273e-08
1.9173431e-09
1.8143212e-08
1.7840725e-09
1.6483529e-08
1.6597002e-09
1.493757e-08
1.5459532e-09
1.349867e-08
1.4388943e-09
1.2157327e-08
1.3413514e-09
1.0905409e-08
1.2519181e-09
9.733775e-09
1.1716278e-09
8.6326608e-09
1.1011138e-09
7.5907653e-09
1.0419016e-09
6.5921822e-09
9.9859097e-10
5.6189419e-09
9.7323418e-10
4.6416065e-09
9.7734622e-10
3.6150049e-09
1.0266011e-09
2.4738089e-09
1.1411844e-09
1.1427414e-09
1.3310673e-09
-4.0875199e-10
1.5514906e-09
-2.0017271e-09
1.5929807e-09
-2.568122e-09
5.6639553e-10
-2.5681199e-09
4.647726e-08
8.2789058e-08
-6.8230453e-09
8.1215986e-08
-5.8709773e-08
7.951438e-08
-1.0910274e-07
7.7684974e-08
-1.5793063e-07
7.5741213e-08
-2.0513182e-07
7.3695022e-08
-2.5065315e-07
7.1557992e-08
-2.9444926e-07
6.9341025e-08
-3.3648187e-07
6.7056442e-08
-3.7671981e-07
6.471395e-08
-4.1513867e-07
6.2323741e-08
-4.5172041e-07
5.9895478e-08
-4.8645309e-07
5.7438328e-08
-5.1933038e-07
5.4961272e-08
-5.5035136e-07
5.247249e-08
-5.7952012e-07
4.9979713e-08
-6.0684544e-07
4.7490129e-08
-6.3234039e-07
4.5010504e-08
-6.5602188e-07
4.2546883e-08
-6.7791034e-07
4.0104778e-08
-6.9802942e-07
3.7689172e-08
-7.1640547e-07
3.5304212e-08
-7.3306713e-07
3.2953549e-08
-7.4804536e-07
3.0640647e-08
-7.6137216e-07
2.8367423e-08
-7.7308331e-07
2.6139457e-08
-7.8321679e-07
2.3960218e-08
-7.918118e-07
2.1832035e-08
-7.9890798e-07
1.9756378e-08
-8.0454509e-07
1.773388e-08
-8.087617e-07
1.5763775e-08
-8.1159134e-07
1.3842665e-08
-8.1309553e-07
1.2003388e-08
-8.1331116e-07
1.0215836e-08
-8.122766e-07
8.4809726e-09
-8.1003126e-07
6.8001785e-09
-8.066148e-07
5.1734837e-09
-8.0206648e-07
3.5989938e-09
-7.9642276e-07
2.0708276e-09
-7.8969478e-07
5.6275906e-10
-7.8198784e-07
-8.0290216e-10
-7.733274e-07
-2.124034e-09
-7.637336e-07
-3.4145726e-09
-7.532392e-07
-4.6602577e-09
-7.4187877e-07
-5.8580025e-09
-7.2968647e-07
-7.0077126e-09
-7.166955e-07
-8.1102766e-09
-7.0293809e-07
-9.1669251e-09
-6.8844536e-07
-1.0178951e-08
-6.7324745e-07
-1.114776e-08
-6.5737338e-07
-1.2074761e-08
-6.4085115e-07
-1.2961327e-08
-6.2370772e-07
-1.3808859e-08
-6.0596901e-07
-1.4618775e-08
-5.8766002e-07
-1.53924e-08
-5.6880474e-07
-1.6131136e-08
-5.4942638e-07
-1.6836218e-08
-5.2954617e-07
-1.7508152e-08
-5.0918627e-07
-1.8149657e-08
-4.8836606e-07
-1.8760306e-08
-4.6710602e-07
-1.9342672e-08
-4.4542499e-07
-1.9896964e-08
-4.2334122e-07
-2.0424057e-08
-4.0087122e-07
-2.0924048e-08
-3.7803346e-07
-2.1398869e-08
-3.5484427e-07
-2.1847828e-08
-3.3132104e-07
-2.2271314e-08
-3.0748121e-07
-2.2668207e-08
-2.8334349e-07
-2.3036606e-08
-2.5892896e-07
-2.3372632e-08
-2.3426136e-07
-2.3669018e-08
-2.0937298e-07
-2.3915156e-08
-1.8430296e-07
-2.4092678e-08
-1.5909845e-07
-2.4177887e-08
-1.3380689e-07
-2.4150379e-08
-1.0844947e-07
-2.402635e-08
-8.2945968e-08
-2.3952015e-08
-5.69206e-08
-2.4432393e-08
-2.9646844e-08
-2.6707369e-08
-3.2214974e-08
-1.3469364e-06
1.4853938e-07
-1.4102618e-06
1.4454142e-07
-1.471069e-06
1.4032159e-07
-1.5292842e-06
1.3590015e-07
-1.5848424e-06
1.3129942e-07
-1.6376884e-06
1.2654097e-07
-1.6877764e-06
1.2164604e-07
-1.7350705e-06
1.1663514e-07
-1.7795428e-06
1.1152869e-07
-1.8211743e-06
1.0634553e-07
-1.8599545e-06
1.011039e-07
-1.8958802e-06
9.5821184e-08
-1.9289557e-06
9.051386e-08
-1.959192e-06
8.5197499e-08
-1.9866062e-06
7.9886672e-08
-2.0112214e-06
7.4594969e-08
-2.0330664e-06
6.933509e-08
-2.0521745e-06
6.4118658e-08
-2.0685838e-06
5.895616e-08
-2.0823364e-06
5.3857375e-08
-2.0934777e-06
4.8830425e-08
-2.1020559e-06
4.3882475e-08
-2.1081218e-06
3.9019442e-08
-2.1117292e-06
3.424798e-08
-2.1129303e-06
2.9568568e-08
-2.1117825e-06
2.4991694e-08
-2.1083464e-06
2.0524049e-08
-2.1026822e-06
1.6167856e-08
-2.0948505e-06
1.1924692e-08
-2.0849096e-06
7.7929483e-09
-2.0729081e-06
3.7623459e-09
-2.058911e-06
-1.5450909e-10
-2.0430528e-06
-3.854768e-09
-2.025339e-06
-7.4979494e-09
-2.0058253e-06
-1.1032785e-08
-1.9845713e-06
-1.4453788e-08
-1.9616365e-06
-1.7761294e-08
-1.93708e-06
-2.0957466e-08
-1.9109635e-06
-2.4045731e-08
-1.8833729e-06
-2.7027867e-08
-1.8542975e-06
-2.9878239e-08
-1.8238045e-06
-3.26171e-08
-1.7919618e-06
-3.5257183e-08
-1.7588223e-06
-3.7799851e-08
-1.7244341e-06
-4.0246191e-08
-1.6888437e-06
-4.2598068e-08
-1.6520962e-06
-4.4857835e-08
-1.6142348e-06
-4.7028219e-08
-1.5753018e-06
-4.9112042e-08
-1.5353373e-06
-5.111221e-08
-1.4943803e-06
-5.3031733e-08
-1.4524682e-06
-5.4873515e-08
-1.4096365e-06
-5.6640503e-08
-1.3659197e-06
-5.8335631e-08
-1.3213503e-06
-5.9961722e-08
-1.2759599e-06
-6.152156e-08
-1.2297783e-06
-6.3017808e-08
-1.1828336e-06
-6.4452888e-08
-1.1351535e-06
-6.5829764e-08
-1.0867634e-06
-6.7150414e-08
-1.0376885e-06
-6.841754e-08
-9.8795248e-07
-6.9632983e-08
-9.3757791e-07
-7.079862e-08
-8.8658603e-07
-7.1915937e-08
-8.3499831e-07
-7.2986582e-08
-7.8283488e-07
-7.4011253e-08
-7.3011604e-07
-7.4990151e-08
-6.768619e-07
-7.5922352e-08
-6.2309325e-07
-7.6805253e-08
-5.6883203e-07
-7.7633848e-08
-5.1410187e-07
-7.8399175e-08
-4.5892928e-07
-7.9087754e-08
-4.0334139e-07
-7.9680555e-08
-3.4736132e-07
-8.0157973e-08
-2.9099485e-07
-8.0516839e-08
-2.3420507e-07
-8.0816136e-08
-1.7687435e-07
-8.1282751e-08
-1.1879258e-07
-8.2514141e-08
-5.9791817e-08
-8.5708132e-08
-9.200679e-08
-2.6246463e-06
2.1822108e-07
-2.6910557e-06
2.1095076e-07
-2.7541124e-06
2.0337829e-07
-2.8137499e-06
1.9553764e-07
-2.8699129e-06
1.8746246e-07
-2.9225574e-06
1.7918547e-07
-2.9716499e-06
1.7073854e-07
-3.0171672e-06
1.6215244e-07
-3.0590955e-06
1.5345699e-07
-3.0974304e-06
1.4468041e-07
-3.1321762e-06
1.3584973e-07
-3.1633455e-06
1.2699047e-07
-3.1909586e-06
1.1812689e-07
-3.2150428e-06
1.0928174e-07
-3.2356323e-06
1.0047614e-07
-3.2527675e-06
9.1730165e-08
-3.2664942e-06
8.3061838e-08
-3.2768635e-06
7.4487999e-08
-3.2839319e-06
6.6024487e-08
-3.2877565e-06
5.7681954e-08
-3.288402e-06
4.9475988e-08
-3.2859335e-06
4.1413986e-08
-3.2804191e-06
3.350502e-08
-3.2719302e-06
2.5759023e-08
-3.2605283e-06
1.8166757e-08
-3.246289e-06
1.0752406e-08
-3.2292906e-06
3.5255933e-09
-3.2096115e-06
-3.5112124e-09
-3.1873296e-06
-1.0357246e-08
-3.1625227e-06
-1.7013996e-08
-3.1352789e-06
-2.3481392e-08
-3.1056822e-06
-2.9751242e-08
-3.0737361e-06
-3.5800857e-08
-3.0395654e-06
-4.1668651e-08
-3.0032457e-06
-4.7352419e-08
-2.9648484e-06
-5.2851085e-08
-2.9244439e-06
-5.8165804e-08
-2.8821023e-06
-6.3299118e-08
-2.8378942e-06
-6.8253822e-08
-2.7918908e-06
-7.3031296e-08
-2.7441407e-06
-7.7628348e-08
-2.6947047e-06
-8.2053044e-08
-2.6436479e-06
-8.6313964e-08
-2.5910312e-06
-9.041658e-08
-2.5369121e-06
-9.4365329e-08
-2.4813455e-06
-9.8164665e-08
-2.4243842e-06
-1.0181917e-07
-2.3660788e-06
-1.053336e-07
-2.306478e-06
-1.0871283e-07
-2.2456285e-06
-1.1196174e-07
-2.1835749e-06
-1.1508532e-07
-2.12036e-06
-1.180884e-07
-2.0560246e-06
-1.2097588e-07
-1.9906077e-06
-1.2375253e-07
-1.9241464e-06
-1.2642306e-07
-1.8566759e-06
-1.28992e-07
-1.7882299e-06
-1.3146384e-07
-1.71884e-06
-1.3384279e-07
-1.6485366e-06
-1.3613311e-07
-1.5773484e-06
-1.3833868e-07
-1.5053025e-06
-1.4046338e-07
-1.4324249e-06
-1.4251057e-07
-1.3587401e-06
-1.4448346e-07
-1.2842711e-06
-1.4638487e-07
-1.2090405e-06
-1.4821726e-07
-1.1330694e-06
-1.4998235e-07
-1.0563784e-06
-1.5168109e-07
-9.7898761e-07
-1.5331319e-07
-9.0091627e-07
-1.548766e-07
-8.2218331e-07
-1.5636679e-07
-7.4280654e-07
-1.5777594e-07
-6.6280151e-07
-1.5909279e-07
-5.821781e-07
-1.6030397e-07
-5.0093439e-07
-1.6140169e-07
-4.1904769e-07
-1.6240354e-07
-3.3646631e-07
-1.633975e-07
-2.5311985e-07
-1.646292e-07
-1.6899869e-07
-1.666353e-07
-8.4367557e-08
-1.7033927e-07
-1.7637436e-07
-3.5553185e-06
2.8893718e-07
-3.6221838e-06
2.7781609e-07
-3.6851281e-06
2.6632258e-07
-3.744094e-06
2.545035e-07
-3.7990361e-06
2.4240461e-07
-3.849921e-06
2.3007032e-07
-3.8967261e-06
2.175436e-07
-3.9394395e-06
2.0486589e-07
-3.9780595e-06
1.9207694e-07
-4.0125937e-06
1.7921462e-07
-4.0430589e-06
1.6631491e-07
-4.0694802e-06
1.5341177e-07
-4.0918905e-06
1.4053726e-07
-4.1103301e-06
1.2772135e-07
-4.1248459e-06
1.1499188e-07
-4.1354903e-06
1.0237464e-07
-4.1423221e-06
8.989362e-08
-4.1454044e-06
7.7570311e-08
-4.1448049e-06
6.5424958e-08
-4.1405975e-06
5.3474543e-08
-4.132857e-06
4.1735441e-08
-4.1216637e-06
3.0220738e-08
-4.1070905e-06
1.8931839e-08
-4.0892456e-06
7.9140639e-09
-4.0681544e-06
-2.9244102e-09
-4.0439183e-06
-1.3483724e-08
-4.0166449e-06
-2.3747796e-08
-3.9864195e-06
-3.3736595e-08
-3.9533269e-06
-4.34498e-08
-3.9174544e-06
-5.2886466e-08
-3.8788907e-06
-6.2045111e-08
-3.8377199e-06
-7.0922062e-08
-3.7940066e-06
-7.951413e-08
-3.7478429e-06
-8.783242e-08
-3.699314e-06
-9.5881292e-08
-3.6485013e-06
-1.036638e-07
-3.5954836e-06
-1.1118352e-07
-3.5403381e-06
-1.1844463e-07
-3.4831404e-06
-1.254515e-07
-3.4239634e-06
-1.3220825e-07
-3.362873e-06
-1.3871876e-07
-3.2999357e-06
-1.4499038e-07
-3.2352184e-06
-1.5103129e-07
-3.1687859e-06
-1.5684905e-07
-3.1007005e-06
-1.6245074e-07
-3.0310217e-06
-1.6784348e-07
-2.9598066e-06
-1.7303425e-07
-2.88711e-06
-1.7803023e-07
-2.8129842e-06
-1.8283859e-07
-2.7374794e-06
-1.8746653e-07
-2.6606435e-06
-1.9192123e-07
-2.5825222e-06
-1.9620976e-07
-2.5031589e-06
-2.0033918e-07
-2.422595e-06
-2.043164e-07
-2.3408699e-06
-2.0814814e-07
-2.2580209e-06
-2.1184103e-07
-2.1740832e-06
-2.1540145e-07
-2.0890904e-06
-2.1883562e-07
-2.003074e-06
-2.221495e-07
-1.9160639e-06
-2.2534882e-07
-1.8280883e-06
-2.2843898e-07
-1.7391738e-06
-2.3142507e-07
-1.6493454e-06
-2.3431183e-07
-1.5586269e-06
-2.3710344e-07
-1.4670404e-06
-2.3980371e-07
-1.3746071e-06
-2.4241566e-07
-1.2813467e-06
-2.4494145e-07
-1.1872779e-06
-2.4738205e-07
-1.0924175e-06
-2.4973696e-07
-9.9678064e-07
-2.5200366e-07
-9.0037909e-07
-2.541775e-07
-8.0321962e-07
-2.5625224e-07
-7.0530063e-07
-2.5822296e-07
-6.0660821e-07
-2.6009408e-07
-5.0711412e-07
-2.6189764e-07
-4.0678334e-07
-2.6372829e-07
-3.0561114e-07
-2.658014e-07
-2.0372591e-07
-2.6852055e-07
-1.0157476e-07
-2.7249042e-07
-2.7794912e-07
-4.1510222e-06
3.5975067e-07
-4.2176135e-06
3.4440736e-07
-4.2799198e-06
3.2862894e-07
-4.3378915e-06
3.1247519e-07
-4.3914912e-06
2.9600431e-07
-4.4406935e-06
2.7927267e-07
-4.4854846e-06
2.6233466e-07
-4.5258612e-06
2.4524253e-07
-4.5618305e-06
2.2804624e-07
-4.5934093e-06
2.1079336e-07
-4.6206233e-06
1.9352892e-07
-4.6435068e-06
1.7629526e-07
-4.6621018e-06
1.5913229e-07
-4.6764577e-06
1.4207725e-07
-4.6866305e-06
1.2516463e-07
-4.6926821e-06
1.084263e-07
-4.69468e-06
9.189151e-08
-4.6926977e-06
7.5588019e-08
-4.6868112e-06
5.953841e-08
-4.6771041e-06
4.3767461e-08
-4.6636659e-06
2.8297253e-08
-4.6465863e-06
1.3141205e-08
-4.6259064e-06
-1.748089e-09
-4.6016815e-06
-1.6310814e-08
-4.5741108e-06
-3.0495164e-08
-4.5432641e-06
-4.4330416e-08
-4.5092128e-06
-5.7799112e-08
-4.4720496e-06
-7.0899763e-08
-4.4318683e-06
-8.363115e-08
-4.3887623e-06
-9.5992446e-08
-4.3428242e-06
-1.0798316e-07
-4.2941433e-06
-1.1960301e-07
-4.2428036e-06
-1.3085381e-07
-4.1888944e-06
-1.4174158e-07
-4.1325038e-06
-1.5227191e-07
-4.0737174e-06
-1.6245021e-07
-4.0126186e-06
-1.7228236e-07
-3.9492885e-06
-1.8177469e-07
-3.8838061e-06
-1.9093394e-07
-3.8162472e-06
-1.9976711e-07
-3.7466842e-06
-2.0828174e-07
-3.6751878e-06
-2.1648683e-07
-3.6018271e-06
-2.2439195e-07
-3.5266693e-06
-2.3200687e-07
-3.4497789e-06
-2.3934119e-07
-3.3712178e-06
-2.4640455e-07
-3.2910454e-06
-2.532066e-07
-3.2093187e-06
-2.59757e-07
-3.1260918e-06
-2.6606548e-07
-3.0414167e-06
-2.7214161e-07
-2.9553428e-06
-2.7799506e-07
-2.8679174e-06
-2.8363523e-07
-2.7791851e-06
-2.8907148e-07
-2.6891885e-06
-2.9431302e-07
-2.5979678e-06
-2.993688e-07
-2.5055613e-06
-3.0424758e-07
-2.4120049e-06
-3.0895787e-07
-2.3173326e-06
-3.1350789e-07
-2.2215765e-06
-3.1790553e-07
-2.1247669e-06
-3.2215842e-07
-2.0269321e-06
-3.262738e-07
-1.9280987e-06
-3.3025848e-07
-1.8282917e-06
-3.3411882e-07
-1.7275345e-06
-3.3786066e-07
-1.6258489e-06
-3.414893e-07
-1.5232552e-06
-3.4500931e-07
-1.4197722e-06
-3.4842446e-07
-1.3154168e-06
-3.5173749e-07
-1.2102038e-06
-3.5494995e-07
-1.1041453e-06
-3.5806219e-07
-9.972493e-07
-3.6107345e-07
-8.8951841e-07
-3.6398314e-07
-7.8094749e-07
-3.6679387e-07
-6.7152287e-07
-3.695187e-07
-5.6122571e-07
-3.721948e-07
-4.5004736e-07
-3.7490664e-07
-3.380308e-07
-3.7781797e-07
-2.2535589e-07
-3.8119546e-07
-1.1245937e-07
-3.8538693e-07
-3.9040849e-07
-4.5023661e-06
4.3049586e-07
-4.568651e-06
4.1069227e-07
-4.6304186e-06
3.9039657e-07
-4.6876251e-06
3.696817e-07
-4.7402393e-06
3.4861853e-07
-4.7882422e-06
3.2727556e-07
-4.8316263e-06
3.0571876e-07
-4.8703952e-06
2.8401137e-07
-4.9045626e-06
2.6221368e-07
-4.9341522e-06
2.4038299e-07
-4.9591967e-06
2.1857343e-07
-4.9797374e-06
1.9683588e-07
-4.9958229e-06
1.7521788e-07
-5.0075095e-06
1.5376376e-07
-5.0148596e-06
1.3251483e-07
-5.0179424e-06
1.1150901e-07
-5.0168325e-06
9.0781636e-08
-5.0116094e-06
7.0364903e-08
-5.002358e-06
5.0287017e-08
-4.9891702e-06
3.05797e-08
-4.9721387e-06
1.1265782e-08
-4.951255e-06
-7.7425583e-09
-4.9267167e-06
-2.6286396e-08
-4.8986262e-06
-4.4401232e-08
-4.8670528e-06
-6.2068643e-08
-4.8320994e-06
-7.9283791e-08
-4.7938595e-06
-9.6038988e-08
-4.752429e-06
-1.1233024e-07
-4.7079047e-06
-1.2815543e-07
-4.6603831e-06
-1.4351405e-07
-4.6099596e-06
-1.584067e-07
-4.5567273e-06
-1.7283531e-07
-4.5007774e-06
-1.8680368e-07
-4.4422012e-06
-2.0031777e-07
-4.3810888e-06
-2.1338438e-07
-4.317528e-06
-2.2601101e-07
-4.2516047e-06
-2.3820568e-07
-4.1834023e-06
-2.499771e-07
-4.1130016e-06
-2.6133459e-07
-4.0404808e-06
-2.722879e-07
-3.9659151e-06
-2.8284749e-07
-3.8893773e-06
-2.9302462e-07
-3.8109381e-06
-3.0283113e-07
-3.7306659e-06
-3.1227911e-07
-3.6486263e-06
-3.2138078e-07
-3.5648825e-06
-3.3014835e-07
-3.4794949e-06
-3.385942e-07
-3.3925213e-06
-3.4673061e-07
-3.3040169e-06
-3.5456985e-07
-3.2140344e-06
-3.6212411e-07
-3.1226239e-06
-3.6940553e-07
-3.0298331e-06
-3.7642604e-07
-2.9357072e-06
-3.8319742e-07
-2.840289e-06
-3.8973118e-07
-2.7436192e-06
-3.9603861e-07
-2.645736e-06
-4.0213074e-07
-2.5466757e-06
-4.0801823e-07
-2.4464722e-06
-4.1371139e-07
-2.3451575e-06
-4.1922019e-07
-2.2427617e-06
-4.2455419e-07
-2.139313e-06
-4.2972253e-07
-2.0348376e-06
-4.3473384e-07
-1.9293602e-06
-4.3959623e-07
-1.8229036e-06
-4.443173e-07
-1.7154889e-06
-4.4890402e-07
-1.6071355e-06
-4.5336265e-07
-1.4978613e-06
-4.5769874e-07
-1.3876817e-06
-4.6191705e-07
-1.2766103e-06
-4.660214e-07
-1.1646573e-06
-4.7001511e-07
-1.0518297e-06
-4.7390114e-07
-9.381292e-07
-4.776836e-07
-8.2355271e-07
-4.8137038e-07
-7.0809278e-07
-4.8497863e-07
-5.9174396e-07
-4.8854361e-07
-4.7451881e-07
-4.9213179e-07
-3.5648164e-07
-4.9585514e-07
-2.3780482e-07
-4.9987227e-07
-1.1883219e-07
-5.0435956e-07
-5.0924068e-07
-4.7017143e-06
5.0124017e-07
-4.7678345e-06
4.7681244e-07
-4.8292781e-06
4.5184019e-07
-4.8860062e-06
4.2640976e-07
-4.9379926e-06
4.0060493e-07
-4.9852236e-06
3.7450657e-07
-5.0276972e-06
3.4819233e-07
-5.0654223e-06
3.2173654e-07
-5.0984186e-06
2.9520995e-07
-5.1267152e-06
2.686796e-07
-5.1503504e-06
2.4220867e-07
-5.1693711e-06
2.1585654e-07
-5.1838317e-06
1.8967852e-07
-5.1937948e-06
1.6372685e-07
-5.1993287e-06
1.3804864e-07
-5.2005053e-06
1.1268567e-07
-5.1974082e-06
8.7684484e-08
-5.1901193e-06
6.3076037e-08
-5.1787303e-06
3.8898012e-08
-5.1633285e-06
1.5177886e-08
-5.1439347e-06
-8.1279827e-09
-5.1207566e-06
-3.0920668e-08
-5.0938526e-06
-5.3190407e-08
-5.0633252e-06
-7.4928618e-08
-5.0292705e-06
-9.6123409e-08
-4.9917888e-06
-1.1676547e-07
-4.9509799e-06
-1.3684789e-07
-4.9069437e-06
-1.5636646e-07
-4.8597798e-06
-1.7531929e-07
-4.8095874e-06
-1.9370646e-07
-4.7564642e-06
-2.1152993e-07
-4.7005063e-06
-2.2879324e-07
-4.6418081e-06
-2.4550184e-07
-4.5804629e-06
-2.6166298e-07
-4.5165622e-06
-2.7728511e-07
-4.4501954e-06
-2.9237772e-07
-4.38145e-06
-3.0695116e-07
-4.3104105e-06
-3.210166e-07
-4.2371591e-06
-3.3458595e-07
-4.1617753e-06
-3.4767173e-07
-4.0843356e-06
-3.6028717e-07
-4.0049141e-06
-3.7244609e-07
-3.9235824e-06
-3.8416285e-07
-3.8404094e-06
-3.9545214e-07
-3.7554613e-06
-4.0632885e-07
-3.6688017e-06
-4.1680793e-07
-3.5804915e-06
-4.2690443e-07
-3.4905888e-06
-4.3663331e-07
-3.3991491e-06
-4.4600957e-07
-3.3062251e-06
-4.5504804e-07
-3.2118672e-06
-4.6376341e-07
-3.1161231e-06
-4.7217017e-07
-3.019038e-06
-4.8028255e-07
-2.9206546e-06
-4.8811453e-07
-2.8210134e-06
-4.9567979e-07
-2.7201526e-06
-5.0299158e-07
-2.618108e-06
-5.1006283e-07
-2.5149134e-06
-5.1690604e-07
-2.4106003e-06
-5.2353322e-07
-2.3051986e-06
-5.2995595e-07
-2.1987358e-06
-5.3618535e-07
-2.0912377e-06
-5.422319e-07
-1.9827284e-06
-5.4810559e-07
-1.8732299e-06
-5.5381572e-07
-1.7627629e-06
-5.5937108e-07
-1.6513458e-06
-5.6477971e-07
-1.5389955e-06
-5.7004903e-07
-1.4257268e-06
-5.7518576e-07
-1.3115522e-06
-5.8019602e-07
-1.1964816e-06
-5.8508571e-07
-1.0805219e-06
-5.8986087e-07
-9.6367655e-07
-5.9452891e-07
-8.459463e-07
-5.9910064e-07
-7.2733109e-07
-6.0359383e-07
-6.0783648e-07
-6.080382e-07
-4.8748665e-07
-6.1248164e-07
-3.6634736e-07
-6.1699441e-07
-2.4455765e-07
-6.2166199e-07
-1.223561e-07
-6.2656112e-07
-6.3159677e-07
-4.8175335e-06
5.7207867e-07
-4.8836183e-06
5.4289723e-07
-4.9449012e-06
5.131231e-07
-5.0013477e-06
4.8285633e-07
-5.0529366e-06
4.521938e-07
-5.0996589e-06
4.2122888e-07
-5.1415177e-06
3.9005115e-07
-5.1785273e-06
3.587461e-07
-5.2107123e-06
3.27395e-07
-5.2381075e-06
2.9607474e-07
-5.2607566e-06
2.6485781e-07
-5.2787116e-06
2.3381155e-07
-5.2920328e-06
2.0299973e-07
-5.3007864e-06
1.7248046e-07
-5.3050451e-06
1.4230729e-07
-5.3048932e-06
1.1253383e-07
-5.300402e-06
8.3193254e-08
-5.2916732e-06
5.43472e-08
-5.2788075e-06
2.6032356e-08
-5.261832e-06
-1.7976206e-09
-5.2409146e-06
-2.9045446e-08
-5.2161491e-06
-5.5686124e-08
-5.18763e-06
-8.1709513e-08
-5.1554587e-06
-1.0709987e-07
-5.119738e-06
-1.3184414e-07
-5.0805709e-06
-1.5593253e-07
-5.0380607e-06
-1.7935812e-07
-4.9923101e-06
-2.0211702e-07
-4.9434215e-06
-2.2420791e-07
-4.8914961e-06
-2.456319e-07
-4.8366338e-06
-2.663922e-07
-4.7789329e-06
-2.8649407e-07
-4.7184901e-06
-3.059447e-07
-4.6554e-06
-3.2475303e-07
-4.5897556e-06
-3.4292954e-07
-4.5216474e-06
-3.6048588e-07
-4.4511637e-06
-3.7743483e-07
-4.3783902e-06
-3.937901e-07
-4.3034099e-06
-4.0956629e-07
-4.2263029e-06
-4.247787e-07
-4.1471468e-06
-4.3944332e-07
-4.0660161e-06
-4.5357673e-07
-3.982983e-06
-4.6719604e-07
-3.8981164e-06
-4.8031866e-07
-3.8114831e-06
-4.9296224e-07
-3.7231465e-06
-5.051445e-07
-3.6331676e-06
-5.1688332e-07
-3.5416045e-06
-5.2819638e-07
-3.4485126e-06
-5.3910145e-07
-3.3539447e-06
-5.4961603e-07
-3.2579506e-06
-5.5975746e-07
-3.160578e-06
-5.6954281e-07
-3.0618716e-06
-5.7898888e-07
-2.9618741e-06
-5.881121e-07
-2.8606254e-06
-5.9692853e-07
-2.7581631e-06
-6.054538e-07
-2.6545229e-06
-6.1370309e-07
-2.5497378e-06
-6.2169109e-07
-2.4438391e-06
-6.2943195e-07
-2.3368557e-06
-6.3693932e-07
-2.2288148e-06
-6.4422627e-07
-2.1197415e-06
-6.5130519e-07
-2.0096591e-06
-6.5818797e-07
-1.8985891e-06
-6.648857e-07
-1.7865512e-06
-6.71409e-07
-1.6735633e-06
-6.7776766e-07
-1.5596414e-06
-6.8397093e-07
-1.4447997e-06
-6.9002745e-07
-1.3290503e-06
-6.9594541e-07
-1.2124032e-06
-7.0173279e-07
-1.0948661e-06
-7.0739798e-07
-9.7644463e-07
-7.1295038e-07
-8.5714325e-07
-7.1840201e-07
-7.369678e-07
-7.237693e-07
-6.1593043e-07
-7.2907556e-07
-4.9405887e-07
-7.3435319e-07
-3.7141012e-07
-7.3964316e-07
-2.4808521e-07
-7.4498691e-07
-1.2423593e-07
-7.504104e-07
-7.5583269e-07
-4.8928246e-06
6.4307554e-07
-4.9589488e-06
6.090215e-07
-5.0201567e-06
5.7433096e-07
-5.0764183e-06
5.3911795e-07
-5.1277173e-06
5.0349273e-07
-5.1740498e-06
4.6756143e-07
-5.2154243e-06
4.3142561e-07
-5.2518603e-06
3.9518214e-07
-5.2833883e-06
3.5892299e-07
-5.3100481e-06
3.2273457e-07
-5.3318895e-06
2.8669915e-07
-5.3489703e-06
2.5089241e-07
-5.3613543e-06
2.1538373e-07
-5.3691145e-06
1.8024058e-07
-5.372333e-06
1.4552579e-07
-5.3710835e-06
1.1128435e-07
-5.3654683e-06
7.7578071e-08
-5.35557e-06
4.4448893e-08
-5.341465e-06
1.1927393e-08
-5.3232815e-06
-1.9981167e-08
-5.301127e-06
-5.1199884e-08
-5.2750967e-06
-8.1716463e-08
-5.2452953e-06
-1.1151093e-07
-5.2118288e-06
-1.4056633e-07
-5.1748038e-06
-1.6886923e-07
-5.1343266e-06
-1.9640968e-07
-5.0905035e-06
-2.2318119e-07
-5.0434402e-06
-2.4918037e-07
-4.9932412e-06
-2.7440689e-07
-4.9400101e-06
-2.9886301e-07
-4.8838489e-06
-3.2255348e-07
-4.8248576e-06
-3.4548535e-07
-4.7631346e-06
-3.6766769e-07
-4.6987761e-06
-3.8911153e-07
-4.6318761e-06
-4.098295e-07
-4.5625263e-06
-4.2983568e-07
-4.4908158e-06
-4.4914539e-07
-4.4168309e-06
-4.6777498e-07
-4.3406553e-06
-4.8574188e-07
-4.2623698e-06
-5.0306421e-07
-4.1820523e-06
-5.1976083e-07
-4.0997777e-06
-5.3585125e-07
-4.0156184e-06
-5.5135535e-07
-3.9296436e-06
-5.6629344e-07
-3.8419198e-06
-5.8068605e-07
-3.7525105e-06
-5.9455384e-07
-3.6614764e-06
-6.0791738e-07
-3.5688755e-06
-6.207973e-07
-3.4747628e-06
-6.3321412e-07
-3.3791908e-06
-6.4518811e-07
-3.2822089e-06
-6.5673927e-07
-3.1838644e-06
-6.6788734e-07
-3.0842016e-06
-6.7865168e-07
-2.9832625e-06
-6.8905123e-07
-2.8810865e-06
-6.9910451e-07
-2.7777108e-06
-7.0882952e-07
-2.6731702e-06
-7.1824371e-07
-2.5674973e-06
-7.27364e-07
-2.4607225e-06
-7.3620673e-07
-2.3528742e-06
-7.4478759e-07
-2.2439788e-06
-7.5312167e-07
-2.1340607e-06
-7.6122332e-07
-2.0231424e-06
-7.6910624e-07
-1.9112447e-06
-7.7678344e-07
-1.7983864e-06
-7.8426724e-07
-1.6845848e-06
-7.9156926e-07
-1.5698553e-06
-7.9870044e-07
-1.4542115e-06
-8.0567123e-07
-1.3376653e-06
-8.1249159e-07
-1.2202269e-06
-8.1917122e-07
-1.1019048e-06
-8.257201e-07
-9.827064e-07
-8.321488e-07
-8.6263896e-07
-8.3846944e-07
-7.4171176e-07
-8.446965e-07
-6.1993972e-07
-8.5084761e-07
-4.9734906e-07
-8.5694384e-07
-3.7398464e-07
-8.6300758e-07
-2.4991518e-07
-8.6905638e-07
-1.2523126e-07
-8.750943e-07
-8.8106397e-07
-4.9516738e-06
7.142595e-07
-5.017864e-06
6.7521172e-07
-5.0790215e-06
6.3548844e-07
-5.1351215e-06
5.95218e-07
-5.1861531e-06
5.5452433e-07
-5.2321182e-06
5.1352648e-07
-5.2730309e-06
4.7233829e-07
-5.3089167e-06
4.31068e-07
-5.339812e-06
3.8981822e-07
-5.365763e-06
3.4868563e-07
-5.3868247e-06
3.077608e-07
-5.4030605e-06
2.671283e-07
-5.4145427e-06
2.2686584e-07
-5.4213507e-06
1.8704859e-07
-5.4235606e-06
1.4773574e-07
-5.4212715e-06
1.0899522e-07
-5.4145738e-06
7.0880351e-08
-5.4035598e-06
3.343492e-08
-5.3883201e-06
-3.3123333e-09
-5.3689891e-06
-3.9312117e-08
-5.3456622e-06
-7.4526816e-08
-5.3184462e-06
-1.0893242e-07
-5.2874502e-06
-1.4250698e-07
-5.2527838e-06
-1.7523269e-07
-5.2145572e-06
-2.0709584e-07
-5.1728801e-06
-2.3808676e-07
-5.1278619e-06
-2.6819945e-07
-5.0796108e-06
-2.9743147e-07
-5.028234e-06
-3.2578364e-07
-4.9738374e-06
-3.5325964e-07
-4.9165248e-06
-3.7986604e-07
-4.8563984e-06
-4.0561178e-07
-4.793558e-06
-4.305081e-07
-4.7281012e-06
-4.5456828e-07
-4.6601234e-06
-4.7780739e-07
-4.5897169e-06
-5.002421e-07
-4.5169719e-06
-5.2189045e-07
-4.4419752e-06
-5.4277163e-07
-4.3648112e-06
-5.6290589e-07
-4.2855611e-06
-5.8231436e-07
-4.204303e-06
-6.0101891e-07
-4.1211122e-06
-6.1904199e-07
-4.0360611e-06
-6.364065e-07
-3.9492188e-06
-6.5313577e-07
-3.8606516e-06
-6.6925319e-07
-3.770423e-06
-6.8478243e-07
-3.6785934e-06
-6.9974701e-07
-3.5852203e-06
-7.1417047e-07
-3.4903583e-06
-7.2807611e-07
-3.3940593e-06
-7.4148705e-07
-3.2963726e-06
-7.5442603e-07
-3.1973444e-06
-7.6691546e-07
-3.0970188e-06
-7.7897733e-07
-2.9954368e-06
-7.9063317e-07
-2.8926375e-06
-8.0190389e-07
-2.7886571e-06
-8.1280991e-07
-2.6835297e-06
-8.2337106e-07
-2.5772872e-06
-8.3360646e-07
-2.4699593e-06
-8.4353464e-07
-2.3615735e-06
-8.5317341e-07
-2.2521554e-06
-8.6253981e-07
-2.1417285e-06
-8.7165019e-07
-2.0303146e-06
-8.8052012e-07
-1.9179336e-06
-8.8916444e-07
-1.8046037e-06
-8.9759723e-07
-1.6903411e-06
-9.0583179e-07
-1.5751608e-06
-9.1388076e-07
-1.4590758e-06
-9.217562e-07
-1.3420979e-06
-9.2946956e-07
-1.224237e-06
-9.3703205e-07
-1.1055025e-06
-9.4445467e-07
-9.8590257e-07
-9.5174867e-07
-8.6544612e-07
-9.589259e-07
-7.4414372e-07
-9.6599887e-07
-6.2201034e-07
-9.7298101e-07
-4.9906843e-07
-9.7988575e-07
-3.7535117e-07
-9.8672483e-07
-2.509033e-07
-9.9350426e-07
-1.2577646e-07
-1.0002211e-06
-1.0068404e-06
-5.0064229e-06
7.8563249e-07
-5.0726722e-06
7.4146108e-07
-5.1337644e-06
6.9658059e-07
-5.1896804e-06
6.5113406e-07
-5.2404155e-06
6.0525937e-07
-5.2859778e-06
5.5908875e-07
-5.3263879e-06
5.1274843e-07
-5.3616782e-06
4.663583e-07
-5.3918915e-06
4.200315e-07
-5.4170812e-06
3.7387532e-07
-5.4373083e-06
3.279879e-07
-5.4526431e-06
2.8246317e-07
-5.4631668e-06
2.3738949e-07
-5.4689566e-06
1.9283841e-07
-5.4701099e-06
1.48889e-07
-5.4667192e-06
1.0560452e-07
-5.4588773e-06
6.3038521e-08
-5.446701e-06
2.1258542e-08
-5.4302812e-06
-1.9732087e-08
-5.409744e-06
-5.9849344e-08
-5.3851963e-06
-9.907448e-08
-5.3567502e-06
-1.3737856e-07
-5.3245189e-06
-1.7473827e-07
-5.2886163e-06
-2.111353e-07
-5.2491561e-06
-2.4655598e-07
-5.2062517e-06
-2.8099114e-07
-5.1600156e-06
-3.1443563e-07
-5.1105589e-06
-3.4688813e-07
-5.0579917e-06
-3.7835089e-07
-5.0024219e-06
-4.0882941e-07
-4.9439557e-06
-4.3833221e-07
-4.8826971e-06
-4.6687037e-07
-4.8187477e-06
-4.9445755e-07
-4.7522064e-06
-5.2110956e-07
-4.6831697e-06
-5.4684408e-07
-4.6117312e-06
-5.716806e-07
-4.5379816e-06
-5.9564001e-07
-4.4620087e-06
-6.1874455e-07
-4.3838971e-06
-6.4101749e-07
-4.3037284e-06
-6.6248305e-07
-4.2215812e-06
-6.8316618e-07
-4.1375307e-06
-7.0309248e-07
-4.0516492e-06
-7.2228798e-07
-3.9640059e-06
-7.4077904e-07
-3.8746669e-06
-7.5859223e-07
-3.7836952e-06
-7.7575413e-07
-3.6911508e-06
-7.9229139e-07
-3.5970908e-06
-8.0823048e-07
-3.5015694e-06
-8.2359756e-07
-3.4046377e-06
-8.3841866e-07
-3.3063445e-06
-8.527193e-07
-3.2067353e-06
-8.6652467e-07
-3.1058532e-06
-8.7985934e-07
-3.003739e-06
-8.9274745e-07
-2.9004304e-06
-9.0521244e-07
-2.7959632e-06
-9.1727716e-07
-2.6903705e-06
-9.2896376e-07
-2.5836833e-06
-9.4029365e-07
-2.4759304e-06
-9.5128753e-07
-2.3671385e-06
-9.6196533e-07
-2.2573322e-06
-9.7234611e-07
-2.1465342e-06
-9.824482e-07
-2.0347652e-06
-9.9228902e-07
-1.9220445e-06
-1.0018852e-06
-1.8083891e-06
-1.0112526e-06
-1.6938147e-06
-1.0204062e-06
-1.5783354e-06
-1.0293601e-06
-1.4619636e-06
-1.0381279e-06
-1.3447107e-06
-1.0467225e-06
-1.2265865e-06
-1.0551562e-06
-1.1076002e-06
-1.0634409e-06
-9.877606e-07
-1.0715883e-06
-8.6707672e-07
-1.0796098e-06
-7.455591e-07
-1.0875165e-06
-6.232212e-07
-1.0953189e-06
-5.0008101e-07
-1.1030259e-06
-3.7616218e-07
-1.1106437e-06
-2.51493e-07
-1.1181734e-06
-1.2610198e-07
-1.1256122e-06
-1.1329424e-06
-5.0629627e-06
8.5717807e-07
-5.1292428e-06
8.0774114e-07
-5.19023e-06
7.575678e-07
-5.2459121e-06
7.0681614e-07
-5.296291e-06
6.5563827e-07
-5.3413822e-06
6.0417996e-07
-5.3812136e-06
5.5257981e-07
-5.4158248e-06
5.0096957e-07
-5.4452667e-06
4.4947335e-07
-5.469599e-06
3.9820767e-07
-5.4888926e-06
3.4728146e-07
-5.5032245e-06
2.967951e-07
-5.5126773e-06
2.4684232e-07
-5.5173477e-06
1.9750872e-07
-5.5173291e-06
1.4887047e-07
-5.5127244e-06
1.0099979e-07
-5.5036398e-06
5.395391e-08
-5.4901767e-06
7.7954907e-09
-5.4724647e-06
-3.7444138e-08
-5.4506118e-06
-8.1702195e-08
-5.4247353e-06
-1.2495102e-07
-5.3949527e-06
-1.6716111e-07
-5.3613824e-06
-2.0830858e-07
-5.3241426e-06
-2.4837511e-07
-5.2833512e-06
-2.8734745e-07
-5.2391252e-06
-3.2521716e-07
-5.1915805e-06
-3.6198028e-07
-5.1408317e-06
-3.9763699e-07
-5.0869913e-06
-4.3219129e-07
-5.03017e-06
-4.6565072e-07
-4.9704762e-06
-4.9802597e-07
-4.9080159e-06
-5.2933071e-07
-4.8428923e-06
-5.5958112e-07
-4.7752061e-06
-5.887958e-07
-4.7050547e-06
-6.1699539e-07
-4.632533e-06
-6.4420232e-07
-4.5577325e-06
-6.7044058e-07
-4.4807414e-06