/*--------------------------------*- C++ -*----------------------------------*\
| =========                 |                                                 |
| \\      /  F ield         | OpenFOAM: The Open Source CFD Toolbox           |
|  \\    /   O peration     | Version:  2306                                  |
|   \\  /    A nd           | Website:  www.openfoam.com                      |
|    \\/     M anipulation  |                                                 |
\*---------------------------------------------------------------------------*/
FoamFile
{
    version     2.0;
    format      ascii;
    arch        "LSB;label=32;scalar=64";
    class       surfaceScalarField;
    location    "0.39";
    object      phi;
}
// * * * * * * * * * * * * * * * * * * * * * * * * * * * * * * * * * * * * * //

dimensions      [0 3 -1 0 0 0 0];

oriented        oriented;

internalField   nonuniform List<scalar> 
12640
(
-1.251783e-06
1.231997e-08
-1.263044e-06
1.1261021e-08
-1.2732442e-06
1.0200153e-08
-1.2823845e-06
9.1402905e-09
-1.2904686e-06
8.0840655e-09
-1.2975021e-06
7.0335297e-09
-1.3034913e-06
5.9892018e-09
-1.3084392e-06
4.9478811e-09
-1.3123403e-06
3.9011587e-09
-1.3152021e-06
2.8617422e-09
-1.3170396e-06
1.8375717e-09
-1.3178402e-06
8.005981e-10
-1.3176048e-06
-2.3547895e-10
-1.3164816e-06
-1.1231173e-09
-1.3144307e-06
-2.0509429e-09
-1.311455e-06
-2.975662e-09
-1.3075692e-06
-3.8858504e-09
-1.3027917e-06
-4.7774495e-09
-1.2971429e-06
-5.6488568e-09
-1.2906435e-06
-6.4993527e-09
-1.283315e-06
-7.3285424e-09
-1.2751788e-06
-8.1362106e-09
-1.2662566e-06
-8.9221897e-09
-1.2565701e-06
-9.6864341e-09
-1.2461412e-06
-1.0428932e-08
-1.2349914e-06
-1.1149777e-08
-1.2231424e-06
-1.1849076e-08
-1.2106153e-06
-1.2527032e-08
-1.1974315e-06
-1.3183885e-08
-1.1836116e-06
-1.3819884e-08
-1.1691762e-06
-1.4435394e-08
-1.1541454e-06
-1.5030797e-08
-1.1385389e-06
-1.5606483e-08
-1.122376e-06
-1.6162881e-08
-1.1056756e-06
-1.6700448e-08
-1.0884559e-06
-1.7219707e-08
-1.0707347e-06
-1.7721174e-08
-1.0525294e-06
-1.8205333e-08
-1.0338566e-06
-1.8672737e-08
-1.0147327e-06
-1.9123979e-08
-9.9517306e-07
-1.9559595e-08
-9.7519293e-07
-1.9980141e-08
-9.5480668e-07
-2.0386222e-08
-9.340283e-07
-2.0778397e-08
-9.1287108e-07
-2.1157207e-08
-8.9134779e-07
-2.1523285e-08
-8.6947064e-07
-2.1877168e-08
-8.4725124e-07
-2.2219405e-08
-8.2470065e-07
-2.2550565e-08
-8.0182946e-07
-2.2871192e-08
-7.7864762e-07
-2.3181833e-08
-7.5516463e-07
-2.3483003e-08
-7.3138942e-07
-2.3775198e-08
-7.0733045e-07
-2.4058992e-08
-6.8299568e-07
-2.433476e-08
-6.583926e-07
-2.460309e-08
-6.335282e-07
-2.4864367e-08
-6.0840911e-07
-2.5119082e-08
-5.8304148e-07
-2.5367646e-08
-5.5743102e-07
-2.5610455e-08
-5.3158311e-07
-2.5847911e-08
-5.0550276e-07
-2.6080334e-08
-4.7919473e-07
-2.6308045e-08
-4.5266346e-07
-2.6531284e-08
-4.2591315e-07
-2.67503e-08
-3.9894786e-07
-2.6965267e-08
-3.7177158e-07
-2.7176281e-08
-3.4438838e-07
-2.7383224e-08
-3.1680274e-07
-2.7585624e-08
-2.8902033e-07
-2.7782435e-08
-2.6104905e-07
-2.7971289e-08
-2.3290162e-07
-2.8147427e-08
-2.0460022e-07
-2.8301386e-08
-1.7618501e-07
-2.8415215e-08
-1.4772701e-07
-2.8457986e-08
-1.1933899e-07
-2.8388019e-08
-9.1143267e-08
-2.81957e-08
-6.3051818e-08
-2.809147e-08
-3.3909711e-08
-2.9142111e-08
-3.3909706e-08
-3.9223126e-06
3.2531193e-08
-3.9397226e-06
2.8671059e-08
-3.9543463e-06
2.4823823e-08
-3.9662031e-06
2.0997141e-08
-3.9753166e-06
1.7197525e-08
-3.9817117e-06
1.3428664e-08
-3.9854135e-06
9.6910248e-09
-3.9864318e-06
5.9661152e-09
-3.9847705e-06
2.2399074e-09
-3.9805331e-06
-1.3756574e-09
-3.9738478e-06
-4.8477767e-09
-3.9647311e-06
-8.3161025e-09
-3.9532149e-06
-1.1751603e-08
-3.9392305e-06
-1.5107589e-08
-3.9228899e-06
-1.8391474e-08
-3.9042619e-06
-2.1603663e-08
-3.8834049e-06
-2.4742883e-08
-3.8603747e-06
-2.7807686e-08
-3.8352267e-06
-3.079686e-08
-3.8080165e-06
-3.3709487e-08
-3.7788002e-06
-3.654491e-08
-3.7476335e-06
-3.9302876e-08
-3.7145724e-06
-4.1983313e-08
-3.6796723e-06
-4.4586465e-08
-3.6429885e-06
-4.7112749e-08
-3.6045755e-06
-4.9562785e-08
-3.5644871e-06
-5.1937434e-08
-3.5227765e-06
-5.4237707e-08
-3.4794956e-06
-5.6464754e-08
-3.4346956e-06
-5.861986e-08
-3.3884265e-06
-6.0704475e-08
-3.3407372e-06
-6.2720157e-08
-3.2916751e-06
-6.4668524e-08
-3.2412867e-06
-6.6551286e-08
-3.1896169e-06
-6.8370269e-08
-3.1367092e-06
-7.0127356e-08
-3.0826059e-06
-7.182447e-08
-3.0273477e-06
-7.3463535e-08
-2.9709739e-06
-7.5046578e-08
-2.9135222e-06
-7.6575639e-08
-2.8550291e-06
-7.8052696e-08
-2.7955294e-06
-7.9479859e-08
-2.7350565e-06
-8.0859138e-08
-2.6736423e-06
-8.2192613e-08
-2.6113172e-06
-8.3482289e-08
-2.5481103e-06
-8.4730201e-08
-2.4840491e-06
-8.5938343e-08
-2.4191598e-06
-8.7108694e-08
-2.3534672e-06
-8.8243163e-08
-2.2869948e-06
-8.9343689e-08
-2.2197645e-06
-9.0412139e-08
-2.1517971e-06
-9.1450318e-08
-2.0831123e-06
-9.2460066e-08
-2.0137281e-06
-9.3443115e-08
-1.9436618e-06
-9.4401114e-08
-1.8729291e-06
-9.5335775e-08
-1.8015448e-06
-9.6248655e-08
-1.7295226e-06
-9.7141308e-08
-1.656875e-06
-9.8015249e-08
-1.5836136e-06
-9.8871881e-08
-1.509749e-06
-9.9712521e-08
-1.4352911e-06
-1.0053823e-07
-1.3602492e-06
-1.0134992e-07
-1.2846319e-06
-1.0214856e-07
-1.2084469e-06
-1.0293523e-07
-1.1317016e-06
-1.0371065e-07
-1.0544027e-06
-1.0447515e-07
-9.7655725e-07
-1.0522869e-07
-8.9817258e-07
-1.0597028e-07
-8.1925747e-07
-1.0669753e-07
-7.398233e-07
-1.0740546e-07
-6.5988607e-07
-1.0808465e-07
-5.7946901e-07
-1.0871844e-07
-4.9860432e-07
-1.0927992e-07
-4.1732894e-07
-1.097334e-07
-3.3566051e-07
-1.1005646e-07
-2.5352309e-07
-1.1033314e-07
-1.7058793e-07
-1.1102663e-07
-8.6208726e-08
-1.1352133e-07
-1.2011843e-07
-5.9643558e-06
5.3940112e-08
-5.9817657e-06
4.6080958e-08
-5.9952102e-06
3.8268337e-08
-6.0047292e-06
3.0516104e-08
-6.0103682e-06
2.2836586e-08
-6.012181e-06
1.5241401e-08
-6.0102347e-06
7.7447273e-09
-6.0046329e-06
3.6438565e-10
-5.9953272e-06
-7.0657954e-09
-5.982395e-06
-1.4307854e-08
-5.9658598e-06
-2.1382994e-08
-5.9458619e-06
-2.8314061e-08
-5.9225047e-06
-3.5108779e-08
-5.8958488e-06
-4.1763511e-08
-5.8659657e-06
-4.8274521e-08
-5.8329321e-06
-5.4637319e-08
-5.7968263e-06
-6.0848606e-08
-5.757728e-06
-6.6906014e-08
-5.7157171e-06
-7.280783e-08
-5.6708735e-06
-7.8553018e-08
-5.6232774e-06
-8.4141041e-08
-5.5730083e-06
-8.9571968e-08
-5.5201454e-06
-9.4846283e-08
-5.4647669e-06
-9.9964949e-08
-5.4069503e-06
-1.0492935e-07
-5.3467719e-06
-1.0974115e-07
-5.2843068e-06
-1.144025e-07
-5.2196288e-06
-1.1891576e-07
-5.15281e-06
-1.2328358e-07
-5.083921e-06
-1.275089e-07
-5.0130307e-06
-1.3159479e-07
-4.9402061e-06
-1.3554467e-07
-4.8655126e-06
-1.3936201e-07
-4.7890135e-06
-1.4305043e-07
-4.7107701e-06
-1.4661374e-07
-4.6308416e-06
-1.5005582e-07
-4.5492854e-06
-1.5338068e-07
-4.4661567e-06
-1.5659225e-07
-4.3815085e-06
-1.5969474e-07
-4.2953919e-06
-1.6269219e-07
-4.2078559e-06
-1.6558878e-07
-4.1189471e-06
-1.6838867e-07
-4.0287103e-06
-1.7109595e-07
-3.9371881e-06
-1.7371476e-07
-3.8444212e-06
-1.7624923e-07
-3.7504481e-06
-1.787033e-07
-3.6553054e-06
-1.8108109e-07
-3.5590277e-06
-1.8338644e-07
-3.4616475e-06
-1.8562327e-07
-3.3631958e-06
-1.8779539e-07
-3.2637014e-06
-1.8990651e-07
-3.1631915e-06
-1.9196026e-07
-3.0616914e-06
-1.9396016e-07
-2.9592247e-06
-1.9590978e-07
-2.8558135e-06
-1.9781237e-07
-2.751478e-06
-1.9967121e-07
-2.6462372e-06
-2.0148946e-07
-2.5401084e-06
-2.0327013e-07
-2.4331075e-06
-2.0501615e-07
-2.3252491e-06
-2.0673028e-07
-2.2165465e-06
-2.0841511e-07
-2.1070117e-06
-2.1007303e-07
-1.9966554e-06
-2.1170623e-07
-1.8854872e-06
-2.1331675e-07
-1.773516e-06
-2.149065e-07
-1.6607497e-06
-2.1647694e-07
-1.5471957e-06
-2.1802909e-07
-1.4328612e-06
-2.1956322e-07
-1.317753e-06
-2.2107846e-07
-1.2018784e-06
-2.2257207e-07
-1.0852456e-06
-2.2403832e-07
-9.678633e-07
-2.2546692e-07
-8.4974051e-07
-2.2684123e-07
-7.3088176e-07
-2.2813866e-07
-6.1127597e-07
-2.2933918e-07
-4.9087273e-07
-2.304597e-07
-3.6955231e-07
-2.3165357e-07
-2.4714744e-07
-2.3343148e-07
-1.2367711e-07
-2.3699164e-07
-2.4379552e-07
-7.2821906e-06
7.4482114e-08
-7.2980039e-06
6.1894274e-08
-7.309137e-06
4.9401424e-08
-7.3156458e-06
3.7024876e-08
-7.3175938e-06
2.4784611e-08
-7.3150478e-06
1.2695403e-08
-7.3081656e-06
8.6255309e-10
-7.2967181e-06
-1.108314e-08
-7.281062e-06
-2.2721828e-08
-7.2612348e-06
-3.4135064e-08
-7.2372919e-06
-4.532592e-08
-7.2093124e-06
-5.629351e-08
-7.1773895e-06
-6.703166e-08
-7.1416183e-06
-7.7534744e-08
-7.102094e-06
-8.7798791e-08
-7.0589117e-06
-9.7819661e-08
-7.0121664e-06
-1.0759386e-07
-6.9619537e-06
-1.1711876e-07
-6.9083689e-06
-1.2639264e-07
-6.8515073e-06
-1.3541461e-07
-6.7914637e-06
-1.4418462e-07
-6.7283323e-06
-1.527034e-07
-6.6622062e-06
-1.6097233e-07
-6.5931777e-06
-1.6899348e-07
-6.5213375e-06
-1.7676946e-07
-6.4467752e-06
-1.8430356e-07
-6.3695782e-06
-1.9159943e-07
-6.2898327e-06
-1.9866126e-07
-6.2076227e-06
-2.054936e-07
-6.1230302e-06
-2.1210137e-07
-6.0361352e-06
-2.1848985e-07
-5.9470153e-06
-2.2466455e-07
-5.855746e-06
-2.3063126e-07
-5.7624005e-06
-2.3639598e-07
-5.6670494e-06
-2.4196482e-07
-5.5697611e-06
-2.4734415e-07
-5.4706014e-06
-2.5254034e-07
-5.3696337e-06
-2.5755996e-07
-5.2669188e-06
-2.6240956e-07
-5.1625153e-06
-2.6709575e-07
-5.0564789e-06
-2.7162514e-07
-4.9488632e-06
-2.7600436e-07
-4.8397191e-06
-2.8024003e-07
-4.7290952e-06
-2.8433868e-07
-4.6170376e-06
-2.8830682e-07
-4.50359e-06
-2.9215085e-07
-4.388794e-06
-2.9587714e-07
-4.2726885e-06
-2.9949192e-07
-4.1553105e-06
-3.0300129e-07
-4.0366946e-06
-3.064113e-07
-3.9168733e-06
-3.0972782e-07
-3.7958769e-06
-3.1295658e-07
-3.6737339e-06
-3.1610321e-07
-3.5504706e-06
-3.1917312e-07
-3.4261113e-06
-3.2217162e-07
-3.3006787e-06
-3.2510385e-07
-3.1741935e-06
-3.2797472e-07
-3.0466746e-06
-3.30789e-07
-2.9181395e-06
-3.3355131e-07
-2.7886037e-06
-3.3626598e-07
-2.6580817e-06
-3.3893716e-07
-2.526586e-06
-3.415687e-07
-2.394128e-06
-3.4416424e-07
-2.2607177e-06
-3.4672711e-07
-2.1263639e-06
-3.492603e-07
-1.9910744e-06
-3.5176639e-07
-1.854856e-06
-3.5424743e-07
-1.7177148e-06
-3.567045e-07
-1.5796557e-06
-3.5913755e-07
-1.4406829e-06
-3.6154485e-07
-1.3007992e-06
-3.6392202e-07
-1.1600047e-06
-3.6626142e-07
-1.0182939e-06
-3.6855208e-07
-8.7565019e-07
-3.707824e-07
-7.3203691e-07
-3.7295247e-07
-5.8738949e-07
-3.7510712e-07
-4.4162906e-07
-3.7741399e-07
-2.9476113e-07
-3.8029942e-07
-1.471638e-07
-3.8458899e-07
-3.9095933e-07
-8.0395252e-06
9.3847139e-08
-8.0537534e-06
7.6122495e-08
-8.0629029e-06
5.855088e-08
-8.0670397e-06
4.1161695e-08
-8.0662427e-06
2.3987636e-08
-8.0606443e-06
7.0970264e-09
-8.0500714e-06
-9.7104414e-09
-8.0348844e-06
-2.62701e-08
-8.0150838e-06
-4.2522393e-08
-7.9907569e-06
-5.8461979e-08
-7.9619978e-06
-7.4085025e-08
-7.9289047e-06
-8.9386658e-08
-7.8915767e-06
-1.0435967e-07
-7.8501147e-06
-1.1899669e-07
-7.8046219e-06
-1.3329164e-07
-7.7552021e-06
-1.4723944e-07
-7.7019598e-06
-1.6083617e-07
-7.6449994e-06
-1.7407912e-07
-7.5844255e-06
-1.8696662e-07
-7.5203418e-06
-1.9949826e-07
-7.4528518e-06
-2.1167466e-07
-7.3820578e-06
-2.2349741e-07
-7.308061e-06
-2.3496906e-07
-7.2309614e-06
-2.4609309e-07
-7.1508572e-06
-2.5687365e-07
-7.0678451e-06
-2.6731568e-07
-6.9820198e-06
-2.7742478e-07
-6.8934739e-06
-2.8720713e-07
-6.802298e-06
-2.9666947e-07
-6.7085804e-06
-3.0581903e-07
-6.6124068e-06
-3.1466336e-07
-6.5138609e-06
-3.2321052e-07
-6.4130234e-06
-3.3146879e-07
-6.3099726e-06
-3.3944671e-07
-6.2047844e-06
-3.4715311e-07
-6.0975316e-06
-3.5459691e-07
-5.9882846e-06
-3.6178731e-07
-5.8771111e-06
-3.6873347e-07
-5.764076e-06
-3.7544471e-07
-5.6492414e-06
-3.8193034e-07
-5.5326669e-06
-3.8819969e-07
-5.4144091e-06
-3.9426206e-07
-5.2945224e-06
-4.0012677e-07
-5.1730582e-06
-4.0580295e-07
-5.0500652e-06
-4.1129976e-07
-4.9255899e-06
-4.1662613e-07
-4.7996761e-06
-4.21791e-07
-4.6723649e-06
-4.2680307e-07
-4.5436953e-06
-4.316709e-07
-4.4137037e-06
-4.3640289e-07
-4.2824243e-06
-4.4100723e-07
-4.149889e-06
-4.4549194e-07
-4.0161273e-06
-4.4986482e-07
-3.8811669e-06
-4.5413351e-07
-3.7450332e-06
-4.5830536e-07
-3.6077496e-06
-4.6238748e-07
-3.4693375e-06
-4.6638677e-07
-3.3298166e-06
-4.7030989e-07
-3.1892047e-06
-4.7416322e-07
-3.0475179e-06
-4.7795283e-07
-2.9047705e-06
-4.8168452e-07
-2.7609754e-06
-4.8536381e-07
-2.6161439e-06
-4.8899579e-07
-2.4702857e-06
-4.9258529e-07
-2.3234094e-06
-4.961366e-07
-2.1755221e-06
-4.9965369e-07
-2.0266298e-06
-5.0313973e-07
-1.8767371e-06
-5.0659725e-07
-1.725847e-06
-5.1002765e-07
-1.5739608e-06
-5.1343104e-07
-1.421077e-06
-5.168058e-07
-1.2671897e-06
-5.2014874e-07
-1.1122856e-06
-5.2345612e-07
-9.5634046e-07
-5.2672757e-07
-7.9931551e-07
-5.2997739e-07
-6.4116291e-07
-5.3325971e-07
-4.8186025e-07
-5.3671664e-07
-3.2151769e-07
-5.4064198e-07
-1.6059264e-07
-5.4551405e-07
-5.5155196e-07
-8.4406263e-06
1.1219504e-07
-8.4536215e-06
8.911769e-08
-8.4613289e-06
6.6258311e-08
-8.4638216e-06
4.3654394e-08
-8.4611824e-06
2.1348482e-08
-8.4534703e-06
-6.1512443e-10
-8.4407283e-06
-2.2452415e-08
-8.4231341e-06
-4.3864276e-08
-8.4007651e-06
-6.489142e-08
-8.3737087e-06
-8.5518368e-08
-8.3420615e-06
-1.0573222e-07
-8.3059264e-06
-1.2552178e-07
-8.265409e-06
-1.44877e-07
-8.2206167e-06
-1.63789e-07
-8.171658e-06
-1.8225039e-07
-8.1186421e-06
-2.0025535e-07
-8.0616787e-06
-2.1779954e-07
-8.0008776e-06
-2.3488019e-07
-7.9363483e-06
-2.5149598e-07
-7.8681995e-06
-2.6764704e-07
-7.7965393e-06
-2.8333481e-07
-7.7214747e-06
-2.9856201e-07
-7.6431113e-06
-3.1333247e-07
-7.5615532e-06
-3.2765118e-07
-7.4769028e-06
-3.4152409e-07
-7.3892605e-06
-3.5495794e-07
-7.2987248e-06
-3.6796048e-07
-7.2053919e-06
-3.8054007e-07
-7.1093556e-06
-3.9270575e-07
-7.0107075e-06
-4.0446716e-07
-6.9095364e-06
-4.1583447e-07
-6.8059286e-06
-4.2681829e-07
-6.6999678e-06
-4.3742956e-07
-6.5917349e-06
-4.4767962e-07
-6.4813079e-06
-4.5758005e-07
-6.3687622e-06
-4.6714262e-07
-6.2541703e-06
-4.7637922e-07
-6.1376018e-06
-4.8530201e-07
-6.0191234e-06
-4.9392308e-07
-5.8987991e-06
-5.0225463e-07
-5.77669e-06
-5.1030874e-07
-5.6528544e-06
-5.1809765e-07
-5.5273479e-06
-5.2563332e-07
-5.4002231e-06
-5.3292773e-07
-5.2715301e-06
-5.3999273e-07
-5.1413163e-06
-5.4683994e-07
-5.0096265e-06
-5.534809e-07
-4.8765026e-06
-5.5992693e-07
-4.7419844e-06
-5.6618908e-07
-4.606109e-06
-5.7227827e-07
-4.4689112e-06
-5.7820508e-07
-4.3304233e-06
-5.8397985e-07
-4.1906753e-06
-5.8961277e-07
-4.0496953e-06
-5.9511358e-07
-3.9075088e-06
-6.0049185e-07
-3.7641395e-06
-6.0575682e-07
-3.6196089e-06
-6.1091733e-07
-3.4739368e-06
-6.1598202e-07
-3.3271408e-06
-6.2095914e-07
-3.1792371e-06
-6.2585659e-07
-3.0302398e-06
-6.306819e-07
-2.8801614e-06
-6.3544218e-07
-2.7290129e-06
-6.4014423e-07
-2.5768038e-06
-6.447944e-07
-2.423542e-06
-6.4939844e-07
-2.269234e-06
-6.5396172e-07
-2.1138847e-06
-6.5848901e-07
-1.9574976e-06
-6.6298433e-07
-1.8000744e-06
-6.674509e-07
-1.6416143e-06
-6.7189107e-07
-1.4821137e-06
-6.7630641e-07
-1.3215643e-06
-6.806981e-07
-1.1599519e-06
-6.8506848e-07
-9.9725468e-07
-6.8942484e-07
-8.3344444e-07
-6.9378766e-07
-6.6849793e-07
-6.9820624e-07
-5.0243128e-07
-7.0278328e-07
-3.3537774e-07
-7.0769555e-07
-1.6770716e-07
-7.1318465e-07
-7.1925912e-07
-8.6450744e-06
1.2968931e-07
-8.6571002e-06
1.0114358e-07
-8.6637261e-06
7.2884193e-08
-8.6650286e-06
4.4956898e-08
-8.6611058e-06
1.7425688e-08
-8.6519288e-06
-9.7921117e-09
-8.6377398e-06
-3.6641438e-08
-8.6185886e-06
-6.3015504e-08
-8.5945714e-06
-8.8908568e-08
-8.5657867e-06
-1.1430315e-07
-8.5323368e-06
-1.3918206e-07
-8.4943283e-06
-1.6353028e-07
-8.4518702e-06
-1.8733507e-07
-8.4050735e-06
-2.1058574e-07
-8.3540502e-06
-2.3327371e-07
-8.2989131e-06
-2.5539247e-07
-8.2397752e-06
-2.7693742e-07
-8.1767495e-06
-2.9790587e-07
-8.1099486e-06
-3.1829687e-07
-8.0394843e-06
-3.3811134e-07
-7.9654675e-06
-3.5735164e-07
-7.8880078e-06
-3.7602172e-07
-7.8072133e-06
-3.9412688e-07
-7.7231907e-06
-4.1167382e-07
-7.6360445e-06
-4.2867026e-07
-7.5458774e-06
-4.4512507e-07
-7.4527898e-06
-4.6104814e-07
-7.3568797e-06
-4.7645016e-07
-7.2582428e-06
-4.9134262e-07
-7.1569722e-06
-5.0573776e-07
-7.0531583e-06
-5.1964835e-07
-6.9468889e-06
-5.3308776e-07
-6.8382488e-06
-5.4606967e-07
-6.7273201e-06
-5.586083e-07
-6.614182e-06
-5.7071811e-07
-6.498911e-06
-5.824137e-07
-6.3815802e-06
-5.9371001e-07
-6.2622602e-06
-6.0462203e-07
-6.1410184e-06
-6.1516482e-07
-6.0179196e-06
-6.2535344e-07
-5.8930253e-06
-6.3520302e-07
-5.7663945e-06
-6.4472851e-07
-5.6380829e-06
-6.5394485e-07
-5.5081439e-06
-6.6286678e-07
-5.3766277e-06
-6.7150894e-07
-5.243582e-06
-6.7988569e-07
-5.1090516e-06
-6.8801125e-07
-4.9730789e-06
-6.9589957e-07
-4.8357037e-06
-7.0356431e-07
-4.6969631e-06
-7.1101889e-07
-4.5568918e-06
-7.1827633e-07
-4.4155223e-06
-7.2534942e-07
-4.2728844e-06
-7.3225061e-07
-4.129006e-06
-7.3899199e-07
-3.9839126e-06
-7.4558526e-07
-3.8376276e-06
-7.5204175e-07
-3.6901725e-06
-7.5837247e-07
-3.5415665e-06
-7.6458796e-07
-3.3918273e-06
-7.7069842e-07
-3.2409703e-06
-7.7671353e-07
-3.0890096e-06
-7.8264266e-07
-2.9359571e-06
-7.8849464e-07
-2.7818234e-06
-7.9427789e-07
-2.6266175e-06
-8.000003e-07
-2.4703466e-06
-8.0566931e-07
-2.3130166e-06
-8.1129175e-07
-2.1546317e-06
-8.1687396e-07
-1.9951944e-06
-8.2242162e-07
-1.8347054e-06
-8.2793983e-07
-1.6731633e-06
-8.3343325e-07
-1.5105635e-06
-8.3890615e-07
-1.3468984e-06
-8.4436319e-07
-1.182156e-06
-8.4981088e-07
-1.0163207e-06
-8.5526018e-07
-8.493765e-07
-8.6073185e-07
-6.8131821e-07
-8.6626453e-07
-5.1217701e-07
-8.7192447e-07
-3.420658e-07
-8.7780671e-07
-1.7123366e-07
-8.8401675e-07
-8.9049279e-07
-8.7535376e-06
1.4638477e-07
-8.764696e-06
1.1230196e-07
-8.7703888e-06
7.8576977e-08
-8.7706956e-06
4.526376e-08
-8.7656955e-06
1.2425562e-08
-8.7554439e-06
-2.0043689e-08
-8.7401063e-06
-5.1979007e-08
-8.7197623e-06
-8.3359536e-08
-8.6945088e-06
-1.1416207e-07
-8.6644488e-06
-1.4436316e-07
-8.6296892e-06
-1.7394171e-07
-8.5903398e-06
-2.0287969e-07
-8.5465127e-06
-2.3116209e-07
-8.4983218e-06
-2.5877667e-07
-8.4458818e-06
-2.8571376e-07
-8.389308e-06
-3.1196627e-07
-8.328716e-06
-3.3752944e-07
-8.2642211e-06
-3.6240075e-07
-8.1959381e-06
-3.8657988e-07
-8.123981e-06
-4.1006846e-07
-8.0484625e-06
-4.3287009e-07
-7.9694943e-06
-4.5498997e-07
-7.8871861e-06
-4.7643507e-07
-7.8016461e-06
-4.9721383e-07
-7.7129804e-06
-5.1733599e-07
-7.6212928e-06
-5.368126e-07
-7.5266852e-06
-5.5565581e-07
-7.4292565e-06
-5.738788e-07
-7.3291035e-06
-5.9149561e-07
-7.2263201e-06
-6.0852113e-07
-7.1209976e-06
-6.2497088e-07
-7.0132244e-06
-6.4086098e-07
-6.9030859e-06
-6.5620815e-07
-6.7906648e-06
-6.7102941e-07
-6.6760408e-06
-6.8534215e-07
-6.5592904e-06
-6.9916403e-07
-6.4404875e-06
-7.1251299e-07
-6.3197025e-06
-7.2540695e-07
-6.1970034e-06
-7.3786398e-07
-6.0724547e-06
-7.4990214e-07
-5.9461182e-06
-7.6153953e-07
-5.8180527e-06
-7.7279399e-07
-5.6883141e-06
-7.836834e-07
-5.5569556e-06
-7.9422532e-07
-5.4240273e-06
-8.0443723e-07
-5.2895767e-06
-8.1433629e-07
-5.1536485e-06
-8.2393942e-07
-5.0162849e-06
-8.3326322e-07
-4.8775252e-06
-8.4232399e-07
-4.7374065e-06
-8.5113763e-07
-4.5959631e-06
-8.5971974e-07
-4.4532271e-06
-8.6808545e-07
-4.309228e-06
-8.7624964e-07
-4.1639934e-06
-8.842266e-07
-4.0175484e-06
-8.9203029e-07
-3.8699159e-06
-8.9967421e-07
-3.721117e-06
-9.0717137e-07
-3.5711706e-06
-9.1453441e-07
-3.4200936e-06
-9.2177535e-07
-3.2679013e-06
-9.2890581e-07
-3.114607e-06
-9.3593694e-07
-2.9602224e-06
-9.4287929e-07
-2.8047573e-06
-9.4974296e-07
-2.6482201e-06
-9.565375e-07
-2.4906176e-06
-9.6327185e-07
-2.3319548e-06
-9.6995452e-07
-2.1722354e-06
-9.7659332e-07
-2.0114614e-06
-9.8319568e-07
-1.8496327e-06
-9.897685e-07
-1.6867477e-06
-9.9631823e-07
-1.5228024e-06
-1.0028515e-06
-1.3577901e-06
-1.0093755e-06
-1.1917023e-06
-1.0158987e-06
-1.0245291e-06
-1.0224333e-06
-8.5626352e-07
-1.0289974e-06
-6.8690933e-07
-1.0356187e-06
-5.1649752e-07
-1.0423363e-06
-3.4510831e-07
-1.0491959e-06
-1.728907e-07
-1.0562344e-06
-1.0633835e-06
-8.8210953e-06
1.6224459e-07
-8.8313685e-06
1.225752e-07
-8.8361294e-06
8.3337837e-08
-8.8354582e-06
4.4592569e-08
-8.829435e-06
6.4024024e-09
-8.8181587e-06
-3.132003e-08
-8.8017525e-06
-6.8385242e-08
-8.7803091e-06
-1.0480284e-07
-8.7539313e-06
-1.4053988e-07
-8.7227265e-06
-1.7556793e-07
-8.6868056e-06
-2.098627e-07
-8.6462816e-06
-2.4340367e-07
-8.6012698e-06
-2.7617394e-07
-8.5518865e-06
-3.0815988e-07
-8.4982493e-06
-3.3935102e-07
-8.4404757e-06
-3.6973979e-07
-8.3786838e-06
-3.9932141e-07
-8.3129908e-06
-4.2809375e-07
-8.2435135e-06
-4.5605712e-07
-8.1703678e-06
-4.8321418e-07
-8.0936682e-06
-5.0956969e-07
-8.0135277e-06
-5.3513045e-07
-7.9300576e-06
-5.5990516e-07
-7.8433674e-06
-5.8390411e-07
-7.7535641e-06
-6.0713922e-07
-7.6607529e-06
-6.2962383e-07
-7.5650362e-06
-6.5137253e-07
-7.466514e-06
-6.72401e-07
-7.3652836e-06
-6.9272603e-07
-7.2614395e-06
-7.1236517e-07
-7.1550735e-06
-7.3133688e-07
-7.0462743e-06
-7.4966018e-07
-6.9351278e-06
-7.6735471e-07
-6.8217167e-06
-7.8444047e-07
-6.7061209e-06
-8.0093797e-07
-6.588417e-06
-8.1686793e-07
-6.4686788e-06
-8.322512e-07
-6.3469768e-06
-8.4710888e-07
-6.2233787e-06
-8.6146209e-07
-6.097949e-06
-8.7533187e-07
-5.9707492e-06
-8.8873931e-07
-5.8418379e-06
-9.0170529e-07
-5.7112707e-06
-9.1425059e-07
-5.5791003e-06
-9.263957e-07
-5.4453767e-06
-9.3816089e-07
-5.3101468e-06
-9.4956617e-07
-5.173455e-06
-9.6063116e-07
-5.035343e-06
-9.7137521e-07
-4.8958498e-06
-9.8181722e-07
-4.7550118e-06
-9.9197566e-07
-4.6128629e-06
-1.0018686e-06
-4.4694348e-06
-1.0115137e-06
-4.3247564e-06
-1.020928e-06
-4.1788546e-06
-1.0301283e-06
-4.0317542e-06
-1.0391307e-06
-3.8834775e-06
-1.0479509e-06
-3.734045e-06
-1.0566039e-06
-3.5834749e-06
-1.0651044e-06
-3.4317838e-06
-1.0734664e-06
-3.2789863e-06
-1.0817034e-06
-3.125095e-06
-1.0898282e-06
-2.970121e-06
-1.0978533e-06
-2.8140736e-06
-1.1057904e-06
-2.6569605e-06
-1.1136506e-06
-2.4987879e-06
-1.1214445e-06
-2.3395602e-06
-1.1291822e-06
-2.1792805e-06
-1.136873e-06
-2.0179502e-06
-1.144526e-06
-1.8555691e-06
-1.1521496e-06
-1.6921354e-06
-1.1597519e-06
-1.5276456e-06
-1.1673414e-06
-1.3620946e-06
-1.1749265e-06
-1.1954763e-06
-1.182517e-06
-1.0277851e-06
-1.1901246e-06
-8.590184e-07
-1.1977642e-06
-6.8918274e-07
-1.2054544e-06
-5.1830201e-07
-1.213217e-06
-3.4642675e-07
-1.2210712e-06
-1.7363764e-07
-1.2290235e-06
-1.2370211e-06
-8.8746964e-06
1.7717339e-07
-8.8839943e-06
1.3187309e-07
-8.8877414e-06
8.7084951e-08
-8.8860257e-06
4.287685e-08
-8.878898e-06
-7.2529087e-10
-8.8665331e-06
-4.3684859e-08
-8.8489995e-06
-8.5918875e-08
-8.8264047e-06
-1.2739759e-07
-8.7988582e-06
-1.6808637e-07
-8.7664721e-06
-2.0795404e-07
-8.729361e-06
-2.4697379e-07
-8.6876416e-06
-2.8512308e-07
-8.6414321e-06
-3.223834e-07
-8.590852e-06
-3.5874001e-07
-8.5360213e-06
-3.9418175e-07
-8.4770603e-06
-4.2870083e-07
-8.414089e-06
-4.6229263e-07
-8.3472273e-06
-4.9495552e-07
-8.2765938e-06
-5.2669066e-07
-8.2023061e-06
-5.5750185e-07
-8.1244805e-06
-5.873953e-07
-8.0432315e-06
-6.1637941e-07
-7.9586718e-06
-6.444648e-07
-7.8709121e-06
-6.7166388e-07
-7.7800605e-06
-6.9799076e-07
-7.6862231e-06
-7.2346127e-07
-7.5895031e-06
-7.4809249e-07
-7.4900013e-06
-7.7190287e-07
-7.3878154e-06
-7.9491191e-07
-7.2830405e-06
-8.171401e-07
-7.1757685e-06
-8.3860881e-07
-7.0660886e-06
-8.5934009e-07
-6.9540867e-06
-8.793566e-07
-6.8398457e-06
-8.9868152e-07
-6.7234453e-06
-9.1733838e-07
-6.6049622e-06
-9.3535101e-07
-6.4844699e-06
-9.5274348e-07
-6.3620389e-06
-9.6953994e-07
-6.2377364e-06
-9.8576462e-07
-6.1116266e-06
-1.0014416e-06
-5.9837707e-06
-1.0165952e-06
-5.854227e-06
-1.0312491e-06
-5.7230504e-06
-1.0454271e-06
-5.5902934e-06
-1.0591527e-06
-5.4560052e-06
-1.0724491e-06
-5.3202324e-06
-1.085339e-06
-5.1830188e-06
-1.0978448e-06
-5.0444054e-06
-1.1099886e-06
-4.9044306e-06
-1.121792e-06
-4.7631304e-06
-1.1332759e-06
-4.6205379e-06
-1.1444611e-06
-4.4766841e-06
-1.1553674e-06
-4.3315975e-06
-1.1660146e-06
-4.1853043e-06
-1.1764216e-06
-4.0378284e-06
-1.1866066e-06
-3.8891917e-06
-1.1965877e-06
-3.7394138e-06
-1.2063818e-06
-3.5885125e-06
-1.2160057e-06
-3.4365035e-06
-1.2254754e-06
-3.2834007e-06
-1.2348062e-06
-3.1292162e-06
-1.2440127e-06
-2.9739603e-06
-1.2531092e-06
-2.8176416e-06
-1.262109e-06
-2.6602673e-06
-1.2710249e-06
-2.5018427e-06
-1.2798691e-06
-2.3423718e-06
-1.2886531e-06
-2.181857e-06
-1.2973878e-06
-2.0202992e-06
-1.3060837e-06
-1.857698e-06
-1.3147507e-06
-1.6940515e-06
-1.3233985e-06
-1.5293566e-06
-1.3320363e-06
-1.3636091e-06
-1.340674e-06
-1.1968046e-06
-1.3493215e-06
-1.0289394e-06
-1.3579898e-06
-8.6001273e-07
-1.3666908e-06
-6.9002989e-07
-1.3754372e-06
-5.1900632e-07
-1.3842406e-06
-3.4697042e-07
-1.3931071e-06
-1.7396138e-07
-1.4020325e-06
-1.4109825e-06
-8.9263509e-06
1.9104363e-07
-8.9345455e-06
1.400677e-07
-8.9371485e-06
8.9688053e-08
-8.934248e-06
3.9976276e-08
-8.925934e-06
-9.0393213e-09
-8.9123338e-06
-5.7285005e-08
-8.8935449e-06
-1.0470782e-07
-8.8696769e-06
-1.5126554e-07
-8.8408436e-06
-1.9691969e-07
-8.8071613e-06
-2.4163634e-07
-8.7687487e-06
-2.8538648e-07
-8.7257259e-06
-3.281458e-07
-8.6782149e-06
-3.6989444e-07
-8.6263381e-06
-4.1061679e-07
-8.5702186e-06
-4.5030124e-07
-8.5099794e-06
-4.8893999e-07
-8.4457433e-06
-5.2652879e-07
-8.3776321e-06
-5.6306671e-07
-8.3057669e-06
-5.985559e-07
-8.2302672e-06
-6.3300155e-07
-8.151251e-06
-6.6641145e-07
-8.0688345e-06
-6.9879587e-07
-7.9831318e-06
-7.3016747e-07
-7.8942548e-06
-7.6054087e-07
-7.8023129e-06
-7.8993271e-07
-7.7074129e-06
-8.1836126e-07
-7.609659e-06
-8.4584645e-07
-7.5091524e-06
-8.7240946e-07
-7.4059916e-06
-8.9807269e-07
-7.300272e-06
-9.2285972e-07
-7.1920859e-06
-9.4679492e-07
-7.0815224e-06
-9.699035e-07
-6.9686678e-06
-9.9221125e-07
-6.8536048e-06
-1.0137445e-06
-6.7364131e-06
-1.0345301e-06
-6.6171692e-06
-1.0545949e-06
-6.4959463e-06
-1.0739663e-06
-6.3728146e-06
-1.0926717e-06
-6.247841e-06
-1.1107382e-06
-6.1210892e-06
-1.1281934e-06
-5.99262e-06
-1.1450644e-06
-5.8624911e-06
-1.1613781e-06
-5.7307569e-06
-1.1771613e-06
-5.5974692e-06
-1.1924404e-06
-5.4626767e-06
-1.2072415e-06
-5.3264253e-06
-1.2215903e-06
-5.1887582e-06
-1.235512e-06
-5.0497156e-06
-1.2490312e-06
-4.9093352e-06
-1.2621723e-06
-4.7676523e-06
-1.2749588e-06
-4.6246994e-06
-1.287414e-06
-4.4805066e-06
-1.2995603e-06
-4.3351016e-06
-1.3114196e-06
-4.1885099e-06
-1.3230132e-06
-4.0407548e-06
-1.3343618e-06
-3.8918572e-06
-1.3454852e-06
-3.7418362e-06
-1.3564029e-06
-3.5907085e-06
-1.3671334e-06
-3.4384893e-06
-1.3776946e-06
-3.2851917e-06
-1.3881038e-06
-3.1308269e-06
-1.3983776e-06
-2.9754045e-06
-1.4085316e-06
-2.8189325e-06
-1.418581e-06
-2.6614171e-06
-1.4285403e-06
-2.5028631e-06
-1.4384231e-06
-2.3432737e-06
-1.4482425e-06
-2.1826508e-06
-1.4580108e-06
-2.0209947e-06
-1.4677398e-06
-1.8583046e-06
-1.4774408e-06
-1.6945785e-06
-1.4871246e-06
-1.5298132e-06
-1.4968015e-06
-1.3640052e-06
-1.506482e-06
-1.1971505e-06
-1.5161762e-06
-1.0292461e-06
-1.5258943e-06
-8.6029068e-07
-1.5356462e-06
-6.9028712e-07
-1.5454408e-06
-5.1924337e-07
-1.5552843e-06
-3.4717291e-07
-1.5651775e-06
-1.7409146e-07
-1.575114e-06
-1.585074e-06
-8.9809967e-06
2.0371083e-07
-8.9879407e-06
1.4701174e-07
-8.9892504e-06
9.0997706e-08
-8.9850225e-06
3.5748402e-08
-8.9753569e-06
-1.8704905e-08
-8.9603707e-06
-7.2271234e-08
-8.9401733e-06
-1.2490516e-07
-8.9148798e-06
-1.7655909e-07
-8.8846083e-06
-2.2719112e-07
-8.8494799e-06
-2.7676477e-07
-8.8096174e-06
-3.2524903e-07
-8.7651451e-06
-3.7261804e-07
-8.7161887e-06
-4.1885087e-07
-8.6628742e-06
-4.6393127e-07
-8.6053279e-06
-5.0784752e-07
-8.543676e-06
-5.5059196e-07
-8.4780438e-06
-5.9216093e-07
-8.408556e-06
-6.3255449e-07
-8.3353359e-06
-6.7177607e-07
-8.2585051e-06
-7.0983234e-07
-8.1781836e-06
-7.467329e-07
-8.0944894e-06
-7.8249012e-07
-8.007538e-06
-8.1711885e-07
-7.9174427e-06
-8.5063622e-07
-7.824314e-06
-8.8306142e-07
-7.7282597e-06
-9.1441552e-07
-7.6293849e-06
-9.4472126e-07
-7.5277915e-06
-9.7400285e-07
-7.4235784e-06
-1.0022857e-06
-7.3168415e-06
-1.0295966e-06
-7.2076733e-06
-1.0559631e-06
-7.0961632e-06
-1.0814136e-06
-6.9823972e-06
-1.1059772e-06
-6.8664583e-06
-1.1296835e-06
-6.7484258e-06
-1.1525626e-06
-6.6283761e-06
-1.1746447e-06
-6.506382e-06
-1.1959604e-06
-6.3825133e-06
-1.2165403e-06
-6.2568365e-06
-1.2364151e-06
-6.1294147e-06
-1.2556152e-06
-6.0003082e-06
-1.2741709e-06
-5.869574e-06
-1.2921123e-06
-5.737266e-06
-1.3094693e-06
-5.6034352e-06
-1.3262713e-06
-5.4681295e-06
-1.3425472e-06
-5.3313943e-06
-1.3583256e-06
-5.1932716e-06
-1.3736346e-06
-5.0538013e-06
-1.3885016e-06
-4.9130201e-06
-1.4029535e-06
-4.7709623e-06
-1.4170166e-06
-4.6276596e-06
-1.4307166e-06
-4.4831415e-06
-1.4440784e-06
-4.3374347e-06
-1.4571264e-06
-4.1905639e-06
-1.469884e-06
-4.0425514e-06
-1.4823743e-06
-3.8934174e-06
-1.4946193e-06
-3.7431799e-06
-1.5066403e-06
-3.5918552e-06
-1.5184581e-06
-3.4394572e-06
-1.5300926e-06
-3.2859983e-06
-1.5415628e-06
-3.1314889e-06
-1.552887e-06
-2.9759377e-06
-1.5640827e-06
-2.8193519e-06
-1.5751668e-06
-2.6617369e-06
-1.5861553e-06
-2.5030967e-06
-1.5970633e-06
-2.3434338e-06
-1.6079054e-06
-2.1827493e-06
-1.6186953e-06
-2.021043e-06
-1.6294461e-06
-1.8583136e-06
-1.6401702e-06
-1.6945587e-06
-1.6508795e-06
-1.5297749e-06
-1.6615853e-06
-1.3639583e-06
-1.6722985e-06
-1.197105e-06
-1.6830294e-06
-1.0292115e-06
-1.6937878e-06
-8.602754e-07
-1.7045823e-06
-6.9029637e-07
-1.7154198e-06
-5.1927673e-07
-1.726304e-06
-3.4722041e-07
-1.7372339e-06
-1.741306e-07
-1.7482038e-06
-1.7592046e-06
-9.040531e-06
2.1502045e-07
-9.0460654e-06
1.5254618e-07
-9.0459226e-06
9.085491e-08
-9.0401999e-06
3.0025662e-08
-9.0290133e-06
-2.9891512e-08
-9.0124744e-06
-8.881013e-08
-8.9907012e-06
-1.4667837e-07
-8.9638144e-06
-2.0344587e-07
-8.9319377e-06
-2.5906786e-07
-8.8951968e-06
-3.1350566e-07
-8.8537194e-06
-3.6672645e-07
-8.8076343e-06
-4.1870309e-07
-8.7570713e-06
-4.6941392e-07
-8.7021602e-06
-5.1884236e-07
-8.643031e-06
-5.6697669e-07
-8.5798132e-06
-6.1380983e-07
-8.5126351e-06
-6.5933894e-07
-8.4416244e-06
-7.0356527e-07
-8.3669067e-06
-7.4649376e-07
-8.2886061e-06
-7.8813289e-07
-8.2068447e-06
-8.2849434e-07
-8.1217422e-06
-8.6759263e-07
-8.0334158e-06
-9.0544521e-07
-7.9419803e-06
-9.4207175e-07