/*--------------------------------*- C++ -*----------------------------------*\
| =========                 |                                                 |
| \\      /  F ield         | OpenFOAM: The Open Source CFD Toolbox           |
|  \\    /   O peration     | Version:  2106                                  |
|   \\  /    A nd           | Website:  www.openfoam.com                      |
|    \\/     M anipulation  |                                                 |
\*---------------------------------------------------------------------------*/
FoamFile
{
    version     2.0;
    format      ascii;
    arch        "LSB;label=32;scalar=64";
    class       volScalarField;
    location    "0.16";
    object      p;
}
// * * * * * * * * * * * * * * * * * * * * * * * * * * * * * * * * * * * * * //

dimensions      [1 -1 -2 0 0 0 0];

internalField   nonuniform List<scalar> 
32768
(
317.62155
317.64354
317.62717
317.57753
317.48903
317.35952
317.18885
316.97713
316.72478
316.43216
316.0995
315.72697
315.31471
314.86293
314.37182
313.84162
313.27248
312.66439
312.01756
311.33173
310.60753
309.84408
309.04236
308.20224
307.32038
306.40774
305.43947
304.45915
303.40594
302.3411
301.23194
300.05498
298.88694
297.64226
296.34995
295.06479
293.69827
292.28234
290.8744
289.39591
287.85973
286.31751
284.72601
283.08751
281.41769
279.69741
277.95082
276.18399
274.35418
272.48043
270.60179
268.69099
266.72629
264.73628
262.72815
260.68003
258.60013
256.52111
254.40515
252.24729
250.08616
247.90382
245.70244
243.48882
241.25383
239.01048
236.75763
234.4728
232.19817
229.92781
227.61664
225.32706
223.04259
220.72592
218.42469
216.11591
213.79009
211.50147
209.21696
206.89326
204.60275
202.34483
200.04167
197.75431
195.51183
193.23618
190.99082
188.79597
186.54636
184.31719
182.1675
179.9812
177.78138
175.65207
173.52347
171.37537
169.29028
167.22795
165.12939
163.0705
161.07795
159.06628
157.03804
155.07159
153.15364
151.20988
149.27359
147.41704
145.58051
143.69534
141.84622
140.09574
138.34947
136.55684
134.8226
133.17222
131.50495
129.82235
128.21569
126.66107
125.07392
123.47712
121.95356
120.49239
119.01401
117.52361
116.09597
114.71415
113.30656
111.89698
110.54818
109.24852
107.93104
106.59796
105.3215
104.10199
102.88287
101.6537
100.45394
99.30606
98.174305
97.037996
95.927939
94.85448
93.803944
92.763879
91.710275
90.654192
89.636973
88.651003
87.677014
86.73384
85.821912
84.934176
84.068654
83.201027
82.330064
81.471374
80.617075
79.787232
78.999523
78.219662
77.44565
76.717027
76.033528
75.369029
74.67593
74.031069
73.467491
72.89421
72.316579
71.741713
71.152693
70.533883
70.025886
69.710055
69.436371
68.997949
68.585598
68.384783
68.093103
67.647937
67.042629
66.584949
66.252319
66.025922
65.994082
66.035254
65.890077
65.896951
66.078211
66.308934
66.435222
66.456236
66.492929
66.48046
66.310598
66.000547
65.532677
64.902303
64.195178
63.441476
62.609278
61.79683
61.190182
60.68206
60.031759
59.118281
57.984453
56.727277
55.400518
54.044619
52.526614
50.716783
48.806393
46.86711
44.908676
43.172768
42.317616
41.830487
40.771978
39.162655
36.526105
32.280758
27.732762
25.763091
25.538297
24.976742
24.669691
26.804217
30.459101
23.309731
19.333923
3.1890537
1.1634424
1.1828263
1.1463942
0.98225128
0.85180044
0.76217651
0.69396465
0.6415937
0.6002759
0.56697552
0.53972935
0.51721457
0.49849816
0.48291036
0.46993837
0.45922514
0.45048898
0.44351331
0.43814616
0.4342637
0.43179659
0.43072072
308.86648
308.8866
308.87085
308.82244
308.73349
308.60368
308.43291
308.22131
307.96918
307.67664
307.34377
306.97082
306.55807
306.10579
305.61422
305.08343
304.51363
303.90482
303.2574
302.57079
301.8462
301.08184
300.27996
299.43872
298.55714
297.6423
296.67597
295.69136
294.64049
293.57565
292.46063
291.29026
290.11807
288.86537
287.58756
286.29197
284.91648
283.51984
282.09971
280.60841
279.0915
277.54405
275.93663
274.30894
272.63893
270.9114
269.16792
267.39514
265.55999
263.69627
261.81484
259.88862
257.92655
255.94525
253.92901
251.87352
249.79938
247.71881
245.59165
243.43589
241.28182
239.09389
236.88517
234.66714
232.44002
230.19694
227.92761
225.64978
223.3875
221.09726
218.78505
216.5113
214.2089
211.89165
209.60514
207.28294
204.95832
202.68082
200.37735
198.05136
195.78186
193.50723
191.19275
188.93377
186.6796
184.38337
182.16395
179.96166
177.6918
175.49021
173.33763
171.1252
168.94715
166.8295
164.67249
162.52732
160.46605
158.38806
156.273
154.23744
152.25314
150.2184
148.18738
146.24835
144.32627
142.34974
140.42406
138.59705
136.73922
134.83541
133.02291
131.28096
129.48732
127.69816
126.01111
124.34757
122.63705
120.97052
119.39373
117.8245
116.22196
114.64978
113.14708
111.66131
110.16225
108.69396
107.28293
105.88538
104.47242
103.07089
101.72447
100.4203
99.100044
97.773336
96.510025
95.293269
94.067453
92.832984
91.637263
90.487287
89.339811
88.197116
87.089294
86.016014
84.969206
83.938439
82.900577
81.862184
80.846539
79.842634
78.855273
77.903722
76.981684
76.094703
75.232916
74.371814
73.52216
72.676876
71.820959
70.986543
70.182449
69.385853
68.619338
67.900993
67.210854
66.53712
65.881689
65.25659
64.636419
64.018792
63.429157
62.863873
62.315064
61.809929
61.36042
60.959375
60.557476
60.120082
59.80952
59.583545
59.205409
58.60029
58.131611
57.802771
57.599667
57.501794
57.423381
57.354582
57.353547
57.438012
57.577897
57.703206
57.782514
57.829861
57.836742
57.718898
57.485094
57.172894
56.720374
56.101919
55.406412
54.64973
53.797162
52.925473
52.154558
51.505111
50.876622
50.121422
49.133871
47.882657
46.433657
44.842884
43.205055
41.479457
39.792578
38.329618
36.905938
35.079444
33.768609
32.454083
30.151088
28.764642
27.35466
24.281503
19.703458
16.876048
14.566641
14.379991
14.81421
11.533816
13.702361
22.904466
27.148687
0.98828693
0.6940581
0.95613634
0.96974769
0.8725074
0.78954679
0.72124497
0.66488615
0.61887905
0.5812341
0.55020703
0.52445466
0.50295902
0.48496048
0.46988513
0.45730749
0.446888
0.43836838
0.43155728
0.4263037
0.42250443
0.42009135
0.41903982
300.08879
300.10845
300.09289
300.04448
299.95516
299.82495
299.65377
299.44179
299.18921
298.89634
298.56335
298.19047
297.77795
297.32592
296.83453
296.30387
295.73416
295.12531
294.4779
293.79096
293.0665
292.30118
291.50017
290.65666
289.77752
288.85872
287.89607
286.90609
285.85827
284.7917
283.67184
282.50953
281.32742
280.07625
278.80551
277.49495
276.12412
274.73561
273.29663
271.81109
270.30263
268.73508
267.13426
265.51294
263.82219
262.10034
260.36595
258.57408
256.7334
254.88379
252.99166
251.05341
249.09985
247.11526
245.08446
243.02966
240.96535
238.8747
236.73025
234.58242
232.43144
230.2312
228.01996
225.8053
223.57929
221.31825
219.04055
216.78605
214.51726
212.19944
209.91158
207.63879
205.30432
203.00754
200.72165
198.37453
196.07401
193.80455
191.46594
189.15273
186.90209
184.58645
182.28293
180.05605
177.75678
175.473
173.29663
171.04053
168.7659
166.61148
164.42005
162.19399
160.06196
157.92276
155.73843
153.63386
151.57318
149.45617
147.36341
145.3509
143.33461
141.28862
139.28884
137.35753
135.39668
133.41541
131.53725
129.71002
127.79667
125.89944
124.14853
122.39706
120.54977
118.7808
117.14033
115.44483
113.69461
112.06746
110.52413
108.91008
107.27763
105.76126
104.29464
102.75238
101.21989
99.807921
98.423406
96.965565
95.528758
94.191307
92.871018
91.517486
90.174131
88.892402
87.64793
86.401215
85.159437
83.94776
82.778581
81.620028
80.44859
79.302881
78.206525
77.139003
76.085064
75.037516
74.002003
73.004001
72.021434
71.015429
70.02174
69.060375
68.122978
67.22526
66.348585
65.477036
64.624591
63.775456
62.935029
62.130928
61.343715
60.555975
59.790289
59.045431
58.314751
57.624277
56.981467
56.355434
55.734108
55.136058
54.569368
54.03369
53.49191
52.934225
52.450062
52.038686
51.649721
51.282029
50.942869
50.567263
50.151652
49.769439
49.429177
49.108414
48.937944
48.862062
48.747362
48.685577
48.828532
48.970316
49.081486
49.147077
49.154069
49.193054
49.222853
49.103991
48.809483
48.361833
47.802315
47.232714
46.65622
45.942454
45.104447
44.3096
43.591998
42.650898
41.606421
40.652496
39.785099
38.903876
37.878292
36.573546
34.936895
32.938222
30.810394
28.923744
27.720947
25.715584
24.734661
24.297366
22.156439
21.66809
20.124608
11.507183
6.2067371
6.9768409
6.3524473
3.0412182
4.0340083
-0.26095594
23.499375
11.843641
0.73275976
0.1264295
0.49359433
0.71995645
0.76631511
0.74639326
0.70620521
0.66262358
0.62165367
0.58532653
0.55387717
0.52695429
0.50401033
0.48449243
0.46792332
0.45389991
0.44210678
0.43227683
0.42420568
0.4177315
0.41272447
0.40909509
0.4067875
0.40577461
291.28936
291.30859
291.29291
291.2443
291.15454
291.02375
290.85193
290.63925
290.38594
290.09225
289.75838
289.38452
288.97087
288.51765
288.02502
287.4931
286.92212
286.31198
285.66322
284.97499
284.2491
283.48249
282.68013
281.83487
280.95544
280.03295
279.07255
278.07663
277.03105
275.96119
274.8364
273.67938
272.48866
271.23662
269.96908
268.64859
267.27667
265.89195
264.44276
262.9541
261.44761
259.87263
258.26954
256.64344
254.94451
253.22639
251.4881
249.68062
247.83776
245.99547
244.08867
242.14322
240.19
238.19652
236.1591
234.10264
232.03925
229.93459
227.7773
225.63738
223.48153
221.27
219.05769
216.83924
214.61058
212.33274
210.05415
207.81562
205.52747
203.19606
200.93132
198.64036
196.28578
194.01244
191.71361
189.35303
187.07753
184.79834
182.43348
180.14067
177.89106
175.54191
173.2604
171.04163
168.70862
166.45211
164.28806
161.98936
159.73293
157.59802
155.36842
153.1459
151.04419
148.88156
146.68009
144.61206
142.55273
140.38898
138.31145
136.34732
134.30324
132.21096
130.25673
128.36235
126.33434
124.33508
122.52535
120.68886
118.71838
116.86099
115.1456
113.33699
111.48909
109.78648
108.1314
106.38209
104.64733
103.05823
101.50512
99.86521
98.246442
96.761578
95.284607
93.716701
92.186892
90.782661
89.404146
87.954956
86.499096
85.143928
83.859235
82.529364
81.156609
79.871703
78.657212
77.413817
76.148073
74.934917
73.787723
72.642582
71.475758
70.334073
69.23801
68.168092
67.117314
66.069189
65.01611
64.000708
63.02107
62.033933
61.055509
60.103105
59.177809
58.272376
57.37348
56.514035
55.679398
54.808713
53.950778
53.151159
52.352576
51.570903
50.846202
50.113322
49.351359
48.6457
48.008337
47.363953
46.727582
46.154644
45.602551
45.051806
44.542762
44.070756
43.610883
43.158908
42.725302
42.32459
41.94002
41.505438
41.089214
40.773053
40.448216
40.164793
40.069023
40.011443
39.993877
40.118382
40.249613
40.343819
40.496971
40.633591
40.638618
40.559898
40.48748
40.462336
40.29563
39.842476
39.180483
38.407968
37.587084
36.693275
35.759305
34.990499
34.626086
33.807995
32.762638
31.719506
30.686691
29.785231
28.577467
26.806361
25.325842
23.682678
21.398444
19.361327
19.979636
17.261175
15.344542
12.94029
12.683267
10.756238
11.725117
9.3291324
2.8658645
1.9595312
-0.62086994
-0.3253674
-0.19236124
0.70513505
0.11006488
-0.25102161
-0.078298619
0.12723003
0.38183571
0.54429771
0.61153397
0.62799529
0.61756994
0.59563166
0.56987945
0.54408675
0.51999869
0.49826883
0.47903636
0.46222589
0.44765152
0.43512447
0.42446228
0.41549397
0.40807843
0.40209753
0.3974551
0.39408142
0.39193443
0.39098989
282.46825
282.48712
282.47112
282.42199
282.33159
282.20002
282.02734
281.81372
281.55938
281.26459
280.92957
280.55453
280.13968
279.68521
279.19131
278.65812
278.08585
277.47444
276.82437
276.13486
275.4076
274.63961
273.8359
272.98896
272.10854
271.18365
270.22298
269.22385
268.1778
267.10538
265.97689
264.82193
263.62371
262.37155
261.1049
259.77275
258.40438
257.01819
255.55736
254.06933
252.56152
250.97706
249.37045
247.74081
246.03365
244.3146
242.56908
240.74999
238.9058
237.06103
235.14151
233.19282
231.22936
229.22921
227.19114
225.12455
223.05609
220.9382
218.77557
216.63832
214.46935
212.2529
210.03518
207.80666
205.57828
203.2847
201.01058
198.77838
196.46356
194.13204
191.87964
189.56195
187.20569
184.95065
182.62818
180.26373
178.00891
175.70803
173.32594
171.06242
168.79968
166.42392
164.17649
161.9463
159.5824
157.35917
155.18406
152.85884
150.63043
148.49211
146.24395
144.04294
141.94327
139.76091
137.56717
135.50368
133.42944
131.27259
129.19899
127.22048
125.18129
123.09383
121.14066
119.24336
117.21659
115.23239
113.42043
111.55684
109.57812
107.75956
106.07041
104.21837
102.33828
100.68849
99.064664
97.259393
95.519391
93.996583
92.419019
90.715192
89.143109
87.712619
86.188025
84.595572
83.129753
81.733903
80.274831
78.818048
77.443549
76.091394
74.74469
73.416528
72.105531
70.835669
69.58365
68.334338
67.091498
65.89442
64.737236
63.569125
62.413426
61.295705
60.196409
59.115002
58.063658
57.031017
56.010295
55.009406
54.001617
52.985164
52.006004
51.053976
50.12185
49.223843
48.342559
47.49162
46.668611
45.829509
44.994788
44.205099
43.38975
42.538322
41.758405
41.041045
40.314802
39.629752
38.985189
38.30349
37.64434
37.089518
36.587819
36.068713
35.55001
35.096807
34.687316
34.261632
33.814683
33.354356
32.88566
32.424165
32.050218
31.735904
31.431002
31.269023
31.240914
31.202221
31.281654
31.52086
31.686046
31.774119
31.906492
32.036791
32.100964
32.043661
31.932577
31.957385
31.548885
30.891057
30.330254
29.528241
28.635559
27.685213
26.699694
25.879921
25.489046
24.396652
22.636146
21.939615
21.327993
20.986842
20.193923
18.06531
16.915804
13.637888
10.789361
8.7624087
7.4794151
7.3413725
6.5834496
1.5238441
6.8225972
12.487974
6.3761958
0.46772717
-0.0088149332
-0.20943599
-0.10091027
-0.080322267
-0.18943524
-0.31699455
-0.3627733
-0.24166738
-0.041970204
0.13790187
0.30323279
0.42770568
0.49584244
0.52694658
0.53433265
0.52817275
0.51505349
0.4989434
0.48212362
0.46582126
0.4506588
0.43690783
0.42467447
0.41395029
0.40466681
0.39676028
0.39016139
0.38479972
0.38061958
0.37757152
0.37563115
0.37478102
273.62563
273.6441
273.62761
273.57774
273.48649
273.35394
273.18017
272.96536
272.70976
272.41362
272.07718
271.70068
271.28432
270.8283
270.33281
269.798
269.22405
268.61095
267.95909
267.26786
266.53863
265.76897
264.96306
264.11437
263.23182
262.30458
261.34247
260.34001
259.29252
258.21725
257.08481
255.92982
254.72484
253.47196
252.20274
250.86155
249.49611
248.10181
246.63375
245.14672
243.62913
242.03778
240.43092
238.78822
237.07489
235.35726
233.59499
231.76503
229.92663
228.06619
226.13396
224.18632
222.20635
220.19895
218.1576
216.08059
214.00323
211.86532
209.70884
207.56742
205.37583
203.16015
200.93223
198.69315
196.46219
194.15559
191.88599
189.64526
187.3078
184.99066
182.72841
180.38575
178.04981
175.78864
173.44419
171.0894
168.83419
166.50917
164.12322
161.88536
159.60804
157.21579
154.98672
152.743
150.36965
148.16062
145.96616
143.63086
141.41898
139.27465
137.01072
134.826
132.73908
130.53006
128.34056
126.30647
124.194
122.01558
120.00135
118.03134
115.92018
113.84293
111.95365
110.00329
107.93135
106.02719
104.24107
102.29487
100.3256
98.567299
96.841888
94.991121
93.150674
91.455416
89.816178
88.056424
86.316498
84.791884
83.228621
81.505805
79.925827
78.516319
76.987441
75.379767
73.92636
72.566895
71.114043
69.604678
68.205063
66.917913
65.599136
64.19097
62.872402
61.695831
60.467832
59.161121
57.903599
56.741845
55.600993
54.415239
53.247184
52.158456
51.075095
49.956627
48.889363
47.876665
46.854208
45.874015
44.924826
43.904138
42.892028
41.972587
41.036148
40.060178
39.170676
38.356998
37.52551
36.68207
35.893604
35.133489
34.333353
33.533438
32.736926
31.894004
31.099619
30.457512
29.855398
29.172224
28.522352
27.969509
27.446482
26.954278
26.486997
26.008873
25.547644
25.13021
24.745108
24.291063
23.781766
23.331409
23.00229
22.740571
22.405734
22.174106
22.186523
22.165549
22.326158
22.78068
23.109144
23.328895
23.648519
23.632777
23.570655
23.559053
23.605138
23.622277
23.301556
22.556903
21.668059
20.551365
19.345598
17.98272
16.532219
16.25353
16.446988
16.817226
14.735508
12.308322
10.536018
10.470339
11.425662
8.3595836
5.4810494
3.1089098
2.4490376
7.0687872
5.9631869
0.23835293
-0.31593041
-0.087819064
-0.25980872
-0.35982204
-0.18347268
-0.074024191
-0.09719367
-0.12632408
-0.086313319
-0.11829127
-0.2581965
-0.29500856
-0.22210047
-0.12638719
0.0014702585
0.13033257
0.25018413
0.34415407
0.40668289
0.44301239
0.46012549
0.46442236
0.4608026
0.45268415
0.44232181
0.43113637
0.41999244
0.40939545
0.39962704
0.39083085
0.38306447
0.37634895
0.37067668
0.36602715
0.36237772
0.35970605
0.35800466
0.35726337
264.76175
264.77976
264.76262
264.7118
264.61948
264.48574
264.31064
264.09441
263.83729
263.53954
263.20142
262.82317
262.40501
261.94714
261.44975
260.913
260.33706
259.72195
259.06798
258.37472
257.64321
256.87154
256.06304
255.21243
254.32704
253.39762
252.43301
251.42725
250.37812
249.29864
248.1633
247.00646
245.79387
244.54206
243.26634
241.91786
240.55462
239.14905
237.67455
236.18795
234.65825
233.0589
231.45181
229.79172
228.07732
226.35302
224.57124
222.73571
220.90348
219.01436
217.07275
215.127
213.12968
211.11293
209.06112
206.97389
204.88736
202.72635
200.58261
198.42867
196.20681
193.9944
191.758
189.51226
187.2656
184.95751
182.68689
180.41913
178.07191
175.77395
173.49058
171.13468
168.81735
166.53211
164.1729
161.83217
159.57446
157.22053
154.83826
152.62665
150.31255
147.91862
145.71732
143.43177
141.0633
138.88673
136.66129
134.31843
132.1259
129.97287
127.69191
125.51255
123.42981
121.2032
119.01729
117.00123
114.87647
112.68447
110.68812
108.73679
106.60607
104.51494
102.64423
100.69441
98.60253
96.701968
94.935947
92.965615
90.99227
89.282287
87.528004
85.637002
83.872157
82.212908
80.483323
78.701395
77.050792
75.520298
73.893754
72.234483
70.711546
69.213323
67.639689
66.122132
64.677918
63.237528
61.825413
60.412674
58.966224
57.617876
56.359065
54.970074
53.584787
52.377423
51.207858
49.951945
48.692312
47.520894
46.374449
45.199276
44.032094
42.931784
41.863234
40.76028
39.672028
38.646331
37.623754
36.623675
35.69905
34.740806
33.731654
32.803669
31.912911
30.977597
30.060754
29.191971
28.342687
27.473513
26.668025
25.928115
25.10889
24.304274
23.61043
22.840594
22.002775
21.295163
20.666477
19.968664
19.313609
18.803148
18.318545
17.80649
17.3658
16.945146
16.514134
16.101786
15.636805
15.12659
14.619154
14.147764
13.771757
13.486958
13.212636
13.0382
13.260797
13.277518
13.468751
13.924143
14.326521
14.683711
15.067374
15.250344
15.255149
15.167785
14.904005
14.889845
15.061946
14.366955
13.424983
11.447895
10.18643
9.3031092
7.2728045
4.5094419
3.8733082
3.5123749
4.6495149
4.0911591
1.9228184
1.7284848
5.3335269
6.8958848
1.5908805
-0.41522055
-0.46736273
-0.43091129
-0.30993922
-0.20207146
-0.14539215
-0.15654342
-0.2553576
-0.30901328
-0.23672465
-0.16084732
-0.14485473
-0.13530181
-0.10746672
-0.11259001
-0.15605742
-0.17878824
-0.13477306
-0.063840929
0.025212093
0.11972414
0.20875592
0.2825823
0.3372345
0.37376362
0.39547829
0.40616747
0.40919808
0.40722505
0.40220153
0.39549699
0.38803906
0.38044149
0.37309255
0.36623857
0.36003331
0.35456202
0.34987041
0.34598237
0.34290468
0.34064207
0.33920022
0.33857614
255.87686
255.89435
255.87642
255.82445
255.73085
255.59568
255.41903
255.20112
254.94222
254.6426
254.30252
253.92223
253.50196
253.04193
252.54232
252.0033
251.42503
250.80757
250.15115
249.45549
248.72134
247.94729
247.13586
246.28287
245.39433
244.46219
243.49476
242.48526
241.43391
240.3499
239.21149
238.05085
236.83212
235.57975
234.29503
232.94285
231.57704
230.1587
228.68131
227.19098
225.64703
224.04025
222.43262
220.75052
219.03771
217.2987
215.50204
213.66171
211.82481
209.90648
207.96464
206.00966
203.99477
201.96654
199.90335
197.80342
195.70494
193.52654
191.38457
189.21194
186.96836
184.75438
182.51216
180.25418
177.98722
175.68765
173.39441
171.10872
168.77356
166.46609
164.16072
161.81495
159.48654
157.17304
154.82968
152.47819
150.2195
147.8534
145.45917
143.27905
140.93077
138.50031
136.34417
134.05834
131.64114
129.48868
127.28177
124.91477
122.72821
120.57831
118.27868
116.10504
114.02357
111.77832
109.61165
107.59826
105.43918
103.26755
101.3075
99.302326
97.147194
95.122448
93.233132
91.226453
89.19453
87.337565
85.485265
83.508145
81.627262
79.876572
78.083097
76.231715
74.435916
72.803665
71.139079
69.294313
67.624435
66.140711
64.452009
62.783947
61.393977
59.901064
58.2256
56.723915
55.336766
53.837526
52.378093
51.033803
49.657477
48.29808
47.009797
45.649404
44.280631
43.015137
41.791644
40.565749
39.371514
38.217553
37.073934
35.916199
34.759281
33.651641
32.537474
31.420161
30.394598
29.391092
28.316082
27.332448
26.40065
25.350592
24.417487
23.600087
22.595615
21.680322
20.945008
20.069525
19.145067
18.282794
17.464164
16.674738
15.810006
14.96386
14.223547
13.394797
12.676173
12.146251
11.471379
10.66744
10.008853
9.5641685
9.1064121
8.6329204
8.2309453
7.8305169
7.3804825
7.0595951
6.6271815
6.0502234
5.460477
4.929466
4.4934822
3.9871493
3.480859
3.2009801
3.1822418
3.6569697
4.3655307
5.0222079
5.5504452
6.0041536
6.6748288
7.2615027
7.151978
6.8263763
6.3199893
6.478957
6.8537514
6.1620821
5.4825503
4.0709041
2.6524427
1.7174099
0.84096708
0.23146519
0.075894916
-0.3029019
-0.33344089
-0.34329407
-0.39742166
-0.44111569
-0.44166476
-0.37231968
-0.30032995
-0.28640359
-0.32270291
-0.35660803
-0.31811694
-0.24497612
-0.20198033
-0.21881841
-0.24928483
-0.24899857
-0.21368796
-0.17821471
-0.15784868
-0.14244487
-0.12653459
-0.12413312
-0.12904033
-0.12169436
-0.085789586
-0.031312911
0.035572223
0.1070424
0.17546441
0.23474067
0.28176047
0.31622084
0.33951659
0.35377327
0.36118628
0.36369122
0.36285256
0.35986585
0.35561054
0.35071436
0.34561908
0.34062649
0.33594279
0.33170306
0.32799606
0.32487894
0.32238906
0.32054918
0.31937634
0.31887647
246.97128
246.98818
246.96932
246.916
246.82091
246.68408
246.50563
246.2858
246.02486
245.72308
245.38075
244.99813
244.57545
244.11293
243.61078
243.06916
242.48823
241.86808
241.20889
240.51048
239.77338
238.99657
238.1819
237.32616
236.43405
235.49894
234.52813
233.51452
232.46093
231.37103
230.23051
229.06403
227.83946
226.58627
225.29017
223.93589
222.56495
221.13231
219.65488
218.15496
216.59769
214.98428
213.37111
211.66786
209.95447
208.19841
206.38621
204.54142
202.69118
200.74833
198.80759
196.82952
194.80748
192.75967
190.68189
188.57041
186.45521
184.27116
182.10882
179.91834
177.66704
175.43962
173.1892
170.92284
168.62456
166.33449
164.03539
161.71407
159.39449
157.07499
154.74518
152.40884
150.06509
147.73019
145.39535
143.04594
140.77605
138.38488
135.99636
133.82883
131.44861
129.0187
126.87427
124.57165
122.15126
120.00383
117.7739
115.40323
113.25532
111.08243
108.75912
106.61304
104.51546
102.24813
100.12346
98.101757
95.914871
93.764086
91.807484
89.787087
87.622546
85.608254
83.738569
81.696748
79.637345
77.857813
75.983811
73.939269
72.150852
70.402734
68.529096
66.742203
64.94273
63.224405
61.626942
59.866715
58.172378
56.650122
54.954341
53.273432
51.868287
50.398449
48.804789
47.335192
45.899569
44.375034
42.905071
41.525822
40.156355
38.865749
37.586356
36.228071
34.911135
33.668732
32.371458
31.107492
29.958186
28.789155
27.628676
26.495914
25.39591
24.360147
23.198925
21.996387
20.983149
20.069083
18.973758
17.918686
17.060072
16.019578
14.950198
14.268958
13.313426
12.237679
11.543538
10.824346
9.8957213
8.9843993
8.2069458
7.4948514
6.5750655
5.603723
4.8464774
3.9109447
3.4020162
3.170196
2.9126417
2.4980052
2.1680435
1.9588381
1.7792056
1.6242161
1.4898167
1.350104
1.212194
1.065589
0.86876272
0.63823878
0.41209754
0.20957675
0.035183804
-0.096819752
-0.17762877
-0.20334315
-0.21653599
-0.13100357
0.0073195787
0.18241984
0.38006238
0.54783277
0.71807105
0.8891027
1.0003383
0.91456801
0.69643
0.53364425
0.36320839
-0.11024282
-0.26911457
-0.30708497
-0.3359535
-0.34768
-0.32929057
-0.27333206
-0.22094175
-0.18890219
-0.19481392
-0.24879726
-0.32341149
-0.39682006
-0.4346333
-0.41748113
-0.35268272
-0.33607409
-0.36160467
-0.34330347
-0.30290508
-0.25676029
-0.2277302
-0.22685605
-0.23339935
-0.22539318
-0.20475303
-0.18179297
-0.16288768
-0.14654737
-0.13236021
-0.12205747
-0.11203092
-0.093444912
-0.060526446
-0.015823145
0.037076519
0.093050867
0.14723747
0.19572164
0.2361139
0.26768812
0.29090285
0.30688382
0.31700753
0.32262599
0.32493062
0.32490306
0.32331618
0.32076248
0.31767817
0.31438685
0.31112507
0.30805788
0.30530197
0.30293933
0.30102799
0.29960586
0.29870041
0.29832736
238.04538
238.0616
238.04168
237.98682
237.89003
237.75131
237.57082
237.3488
237.08554
236.78133
236.43645
236.05118
235.62577
235.16046
234.65544
234.11089
233.52698
232.9038
232.2415
231.53999
230.79962
230.01968
229.20147
228.34256
227.44663
226.50807
225.53355
224.51549
223.459
222.36318
221.21991
220.04674
218.81711
217.56016
216.2533
214.89722
213.51794
212.07128
210.59545
209.07956
207.51016
205.89292
204.26362
202.5479
200.82496
199.05147
197.22502
195.3745
193.49826
191.54301
189.60015
187.5868
185.56168
183.49013
181.40177
179.27591
177.13519
174.95188
172.75239
170.55475
168.30566
166.05135
163.78859
161.5088
159.18313
156.90979
154.59481
152.22695
149.9307
147.59534
145.25736
142.90337
140.54112
138.23427
135.85773
133.5128
131.25272
128.81331
126.45158
124.29026
121.84054
119.45222
117.35861
114.95673
112.54379
110.46237
108.16675
105.77074
103.67946
101.49837
99.149461
97.019378
94.913314
92.619977
90.525806
88.504487
86.27057
84.174164
82.21665
80.137874
78.021534
76.01151
74.115426
72.107954
70.024321
68.214841
66.37071
64.344648
62.53487
60.777912
58.93475
57.153982
55.34856
53.616512
51.969835
50.24017
48.631319
47.091324
45.377902
43.75641
42.285721
40.683143
39.154577
37.836952
36.39591
34.874402
33.445013
32.006546
30.564329
29.287415
28.022135
26.615381
25.355643
24.247468
22.939769
21.604257
20.484891
19.345025
18.148308
16.944041
15.789061
14.86703
13.777999
12.491271
11.419927
10.655917
9.5824781
8.4292368
7.6714588
6.5606007
5.2067884
4.6202465
3.8827559
3.4017968
3.0348239
2.7194533
2.3381962
1.9193765
1.5640405
1.2464409
0.86162787
0.47520376
0.11946841
-0.19880909
-0.28067259
-0.32627141
-0.36206341
-0.39651253
-0.4213498
-0.43020863
-0.41269987
-0.37252224
-0.32769198
-0.28619502
-0.25123047
-0.22695028
-0.22018365
-0.23140445
-0.25079456
-0.26961082
-0.28343421
-0.28734323
-0.28499315
-0.28286391
-0.27729784
-0.27418656
-0.28073036
-0.29484574
-0.31661678
-0.34157258
-0.36312554
-0.37604274
-0.3773293
-0.36431076
-0.34171048
-0.32367918
-0.28938942
-0.26306051
-0.2633162
-0.30419071
-0.35664161
-0.37732417
-0.35868273
-0.29515044
-0.22090485
-0.18706324
-0.22281654
-0.29390178
-0.35284366
-0.37292867
-0.37652384
-0.3623226
-0.33758817
-0.32877746
-0.33161666
-0.31964696
-0.29418855
-0.26597187
-0.2449604
-0.23457954
-0.22780255
-0.2166285
-0.20013825
-0.18189656
-0.16436135
-0.14772052
-0.13234272
-0.11791737
-0.10129405
-0.078725964
-0.048263902
-0.010446742
0.032748086
0.078085662
0.12218566
0.16256801
0.19743618
0.2260035
0.24829181
0.26485048
0.27651283
0.28419514
0.28877293
0.29101935
0.2915819
0.29098252
0.28963274
0.28784969
0.28587487
0.28388674
0.28201865
0.28036929
0.27900796
0.27798605
0.27733802
0.27708773
229.09955
229.11501
229.09389
229.03732
228.9386
228.79776
228.61497
228.39049
228.12463
227.81768
227.46996
227.08174
226.65329
226.18485
225.67663
225.12883
224.54161
223.91506
223.24933
222.54437
221.80043
221.01699
220.19497
219.33252
218.43243
217.49016
216.51135
215.48882
214.42868
213.32664
212.18059
210.99959
209.76552
208.5024
207.18559
205.82677
204.4366
202.97846
201.50035
199.96718
198.3855
196.76554
195.11297
193.38693
191.65227
189.86009
188.01736
186.15268
184.25994
182.29735
180.32361
178.2877
176.2531
174.16574
172.06374
169.90914
167.74916
165.56752
163.32037
161.12493
158.87085
156.57707
154.32428
152.01499
149.66176
147.41777
145.05078
142.66556
140.4115
138.00467
135.65879
133.34494
130.92731
128.62684
126.25825
123.87686
121.60913
119.17866
116.82301
114.63382
112.16722
109.79473
107.70079
105.27924
102.86415
100.77688
98.47047
96.092373
93.979127
91.798388
89.483931
87.306936
85.190463
82.950763
80.817531
78.790935
76.578219
74.450928
72.503419
70.43363
68.303946
66.305536
64.397619
62.364182
60.339915
58.511721
56.597168
54.663698
52.865874
51.013765
49.256164
47.503559
45.623641
43.95491
42.278189
40.465931
38.943139
37.422555
35.679913
34.163005
32.702737
30.963879
29.436437
28.173407
26.66927
25.2149
23.9271
22.468386
20.955243
19.704328
18.488396
16.946811
15.554953
14.563203
13.309949
12.065366
10.981414
9.7722475
8.710654
7.5289557
5.9948262
5.2285655
4.0769908
3.3621381
2.8915523
2.4965003
2.073059
1.6605439
1.2469302
0.79242842
0.3682036
-0.042918566
-0.11713332
-0.11840415
-0.10827265
-0.10326114
-0.10048132
-0.099049144
-0.10065987
-0.10502984
-0.1181893
-0.14215688
-0.17599768
-0.22224212
-0.27612178
-0.33348713
-0.38388592
-0.42653535
-0.45014109
-0.4501142
-0.426339
-0.37670744
-0.31958205
-0.27351204
-0.24026771
-0.2229709
-0.22726149
-0.24202221
-0.26201517
-0.28189697
-0.2971541
-0.30518163
-0.30403082
-0.29547632
-0.28507064
-0.27860436
-0.28330437
-0.30244992
-0.32970681
-0.35846333
-0.38044252
-0.39056491
-0.38533848
-0.36696429
-0.3453685
-0.3248461
-0.29651966
-0.27332856
-0.28312696
-0.32239814
-0.36226983
-0.37701027
-0.35737414
-0.31002289
-0.25702288
-0.22873862
-0.23689783
-0.2703187
-0.31018711
-0.33979379
-0.34850577
-0.34259069
-0.33119785
-0.32310419
-0.31683345
-0.3049441
-0.28719614
-0.26790345
-0.25115125
-0.23807405
-0.22627122
-0.21311268
-0.19797673
-0.18157407
-0.16493496
-0.14832188
-0.13171554
-0.11474331
-0.095740967
-0.072580765
-0.04440077
-0.011583042
0.024631442
0.06247309
0.099227848
0.13344041
0.16377736
0.18952475
0.21050648
0.22695979
0.23936928
0.24833938
0.25449764
0.25843632
0.26067867
0.26166741
0.26177284
0.26128625
0.26044015
0.25941502
0.25835168
0.25735538
0.25650375
0.25585499
0.25544805
0.25531216
220.13426
220.14886
220.12641
220.06793
219.96708
219.82387
219.63852
219.4113
219.14254
218.83256
218.48167
218.09017
217.65835
217.18646
216.67473
216.12335
215.53248
214.90224
214.23276
213.52402
212.77619
211.98892
211.16278
210.29646
209.39193
208.44561
207.46216
206.4349
205.37052
204.26221
203.11263
201.92378
200.68499
199.41396
198.08798
196.72529
195.32082
193.85583
192.36856