/*--------------------------------*- C++ -*----------------------------------*\
| =========                 |                                                 |
| \\      /  F ield         | OpenFOAM: The Open Source CFD Toolbox           |
|  \\    /   O peration     | Version:  2106                                  |
|   \\  /    A nd           | Website:  www.openfoam.com                      |
|    \\/     M anipulation  |                                                 |
\*---------------------------------------------------------------------------*/
FoamFile
{
    version     2.0;
    format      ascii;
    arch        "LSB;label=32;scalar=64";
    class       volScalarField;
    location    "0.002";
    object      p;
}
// * * * * * * * * * * * * * * * * * * * * * * * * * * * * * * * * * * * * * //

dimensions      [1 -1 -2 0 0 0 0];

internalField   nonuniform List<scalar> 
256
(
-32.342076
-28.378037
-21.07632
-11.453271
-1.0398396
8.7697773
16.306027
20.426682
20.426682
16.306027
8.7697773
-1.0398396
-11.453271
-21.07632
-28.378037
-32.342076
-35.359905
-30.944753
-22.825092
-12.101334
-0.5584595
10.411239
18.81866
23.437827
23.437827
18.81866
10.411239
-0.5584595
-12.101334
-22.825092
-30.944753
-35.359905
-43.90318
-38.201186
-27.754042
-13.91731
0.83472444
15.103795
25.960983
31.963604
31.963604
25.960983
15.103795
0.83472444
-13.91731
-27.754042
-38.201186
-43.90318
-55.3096
-47.878187
-34.371152
-16.438934
2.4240498
21.083906
35.231616
43.196857
43.196857
35.231616
21.083906
2.4240498
-16.438934
-34.371152
-47.878187
-55.3096
-79.235387
-68.171186
-48.182435
-21.584317
5.7302428
34.09956
55.091544
66.967763
66.967763
55.091544
34.09956
5.7302428
-21.584317
-48.182435
-68.171186
-79.235387
-102.80901
-88.164086
-62.000599
-27.235518
7.6126779
44.808865
72.72321
89.363435
89.363435
72.72321
44.808865
7.6126779
-27.235518
-62.000599
-88.164086
-102.80901
-163.16791
-139.16868
-96.409392
-40.177393
12.279502
76.891363
122.33315
148.26266
148.26266
122.33315
76.891363
12.279502
-40.177393
-96.409392
-139.16868
-163.16791
-162.37841
-143.17044
-106.09979
-48.82471
10.474784
88.681184
145.86344
180.3212
180.3212
145.86344
88.681184
10.474784
-48.82471
-106.09979
-143.17044
-162.37841
181.74086
148.84569
92.985164
23.940589
-35.448499
-100.70253
-138.62636
-158.47344
-158.47344
-138.62636
-100.70253
-35.448499
23.940589
92.985164
148.84569
181.74086
152.99981
127.78577
82.715972
24.506045
-28.94933
-92.437086
-136.64464
-161.67175
-161.67175
-136.64464
-92.437086
-28.94933
24.506045
82.715972
127.78577
152.99981
88.759874
73.490999
47.710666
14.623936
-18.227714
-53.105298
-78.451436
-92.859989
-92.859989
-78.451436
-53.105298
-18.227714
14.623936
47.710666
73.490999
88.759874
78.411342
65.958247
43.710275
14.30553
-15.454698
-45.651056
-67.908845
-80.284878
-80.284878
-67.908845
-45.651056
-15.454698
14.30553
43.710275
65.958247
78.411342
34.079585
28.534133
18.772116
6.02119
-7.0733881
-19.994986
-29.534585
-34.81567
-34.81567
-29.534585
-19.994986
-7.0733881
6.02119
18.772116
28.534133
34.079585
56.152268
47.439245
31.560037
10.74719
-11.279657
-32.19118
-48.051257
-56.721078
-56.721078
-48.051257
-32.19118
-11.279657
10.74719
31.560037
47.439245
56.152268
-8.613952
-7.3426056
-4.9524289
-1.8973229
1.3816047
4.5254191
7.1080775
8.532123
8.532123
7.1080775
4.5254191
1.3816047
-1.8973229
-4.9524289
-7.3426056
-8.613952
72.592493
61.371286
40.806803
14.048597
-14.424999
-41.118407
-61.556071
-72.667945
-72.667945
-61.556071
-41.118407
-14.424999
14.048597
40.806803
61.371286
72.592493
)
;

boundaryField
{
    leftWall
    {
        type            cyclic;
    }
    rightWall
    {
        type            cyclic;
    }
    lowerWall
    {
        type            calculated;
        value           nonuniform List<scalar> 
16
(
-32.342076
-28.378037
-21.07632
-11.453271
-1.0398396
8.7697773
16.306027
20.426682
20.426682
16.306027
8.7697773
-1.0398396
-11.453271
-21.07632
-28.378037
-32.342076
)
;
    }
    atmosphere
    {
        type            calculated;
        value           nonuniform List<scalar> 
16
(
0
0
0
0
-0.45328885
-0.32884846
-0.1478051
-0.018298709
-0.018298709
-0.1478051
-0.32884846
-0.45328885
0
0
0
0
)
;
    }
    defaultFaces
    {
        type            empty;
    }
}


// ************************************************************************* //
