/*--------------------------------*- C++ -*----------------------------------*\
| =========                 |                                                 |
| \\      /  F ield         | OpenFOAM: The Open Source CFD Toolbox           |
|  \\    /   O peration     | Version:  2106                                  |
|   \\  /    A nd           | Website:  www.openfoam.com                      |
|    \\/     M anipulation  |                                                 |
\*---------------------------------------------------------------------------*/
FoamFile
{
    version     2.0;
    format      ascii;
    arch        "LSB;label=32;scalar=64";
    class       surfaceScalarField;
    location    "0.002";
    object      phi_0;
}
// * * * * * * * * * * * * * * * * * * * * * * * * * * * * * * * * * * * * * //

dimensions      [0 3 -1 0 0 0 0];

oriented        oriented;

internalField   nonuniform List<scalar> 
480
(
-0.012371646
0.012371646
-0.022812551
0.010440905
-0.029725817
0.0069132662
-0.032091505
0.0023656882
-0.02963361
-0.0024578949
-0.022676977
-0.0069566334
-0.012275015
-0.010401962
-1.1390371e-13
-0.012275015
0.012275015
-0.012275015
0.022676977
-0.010401962
0.02963361
-0.0069566334
0.032091505
-0.0024578949
0.029725817
0.0023656882
0.022812551
0.0069132662
0.012371646
0.010440905
0.012371646
-0.014277984
0.02664963
-0.02629875
0.022461671
-0.034225523
0.014840039
-0.03690371
0.0050438754
-0.034078621
-0.0052829842
-0.026084019
-0.014951235
-0.014123855
-0.022362126
-4.5416178e-14
-0.02639887
0.014123855
-0.02639887
0.026084019
-0.022362126
0.034078621
-0.014951235
0.03690371
-0.0052829842
0.034225523
0.0050438754
0.02629875
0.014840039
0.014277984
0.022461671
0.02664963
-0.018256311
0.044905941
-0.033583971
0.037789331
-0.043632441
0.02488851
-0.046967769
0.0083792034
-0.043407477
-0.0088432767
-0.033241282
-0.02511743
-0.018008554
-0.037594854
-5.2195897e-14
-0.044407424
0.018008554
-0.044407424
0.033241282
-0.037594854
0.043407477
-0.02511743
0.046967769
-0.0088432767
0.043632441
0.0083792034
0.033583971
0.02488851
0.018256311
0.037789331
0.044905941
-0.024588009
0.06949395
-0.045087203
0.058288525
-0.058332718
0.038134024
-0.0625621
0.012608585
-0.057871444
-0.013533932
-0.04438036
-0.038608514
-0.02408063
-0.057894584
-1.6256471e-14
-0.068488054
0.02408063
-0.068488054
0.04438036
-0.057894584
0.057871444
-0.038608514
0.0625621
-0.013533932
0.058332718
0.012608585
0.045087203
0.038134024
0.024588009
0.058288525
0.06949395
-0.035196119
0.10469007
-0.0644098
0.087502206
-0.083032926
0.05675715
-0.08870172
0.018277379
-0.082368684
-0.019866968
-0.063253311
-0.057723887
-0.034339021
-0.086808874
-2.6808321e-14
-0.10282708
0.034339021
-0.10282708
0.063253311
-0.086808874
0.082368684
-0.057723887
0.08870172
-0.019866968
0.083032926
0.018277379
0.0644098
0.05675715
0.035196119
0.087502206
0.10469007
-0.048693784
0.15338385
-0.088613055
0.12742148
-0.11331318
0.081457271
-0.12021828
0.025182481
-0.11219194
-0.027893307
-0.086642524
-0.083273302
-0.047239662
-0.12621174
-8.9675644e-16
-0.15006674
0.047239662
-0.15006674
0.086642524
-0.12621174
0.11219194
-0.083273302
0.12021828
-0.027893307
0.11331318
0.025182481
0.088613055
0.081457271
0.048693784
0.12742148
0.15338385
-0.06573205
0.2191159
-0.12001021
0.18169964
-0.15331319
0.11476025
-0.16237
0.034239288
-0.15381023
-0.036453076
-0.11911312
-0.11797042
-0.064692876
-0.18063198
2.7389805e-14
-0.21475961
0.064692876
-0.21475961
0.11911312
-0.18063198
0.15381023
-0.11797042
0.16237
-0.036453076
0.15331319
0.034239288
0.12001021
0.11476025
0.06573205
0.18169964
0.2191159
-0.04789695
0.26701285
-0.089399191
0.22320188
-0.11712895
0.14249002
-0.12711718
0.044227512
-0.12404531
-0.039524944
-0.097426082
-0.14458964
-0.053285058
-0.224773
5.4551638e-14
-0.26804467
0.053285058
-0.26804467
0.097426082
-0.224773
0.12404531
-0.14458964
0.12711718
-0.039524944
0.11712895
0.044227512
0.089399191
0.14249002
0.04789695
0.22320188
0.26701285
0.05230493
0.21470792
0.09524263
0.18026418
0.12047142
0.11726122
0.12553336
0.039165569
0.11788927
-0.031880847
0.089385378
-0.11608575
0.047714871
-0.1831025
4.939211e-14
-0.2203298
-0.047714871
-0.2203298
-0.089385378
-0.1831025
-0.11788927
-0.11608575
-0.12553336
-0.031880847
-0.12047142
0.039165569
-0.09524263
0.11726122
-0.05230493
0.18026418
0.21470792
0.064340804
0.15036712
0.11818425
0.12642073
0.1519873
0.083458184
0.16202272
0.029130149
0.15443778
-0.024295908
0.12047137
-0.082119348
0.065822039
-0.12845316
2.2601897e-14
-0.15450776
-0.065822039
-0.15450776
-0.12047137
-0.12845316
-0.15443778
-0.082119348
-0.16202272
-0.024295908
-0.1519873
0.029130149
-0.11818425
0.083458184
-0.064340804
0.12642073
0.15036712
0.045699362
0.10466776
0.083741065
0.088379027
0.10834539
0.05885386
0.11667864
0.020796894
0.11057612
-0.018193383
0.086472082
-0.058015311
0.047502541
-0.089483623
4.7737646e-14
-0.10700522
-0.047502541
-0.10700522
-0.086472082
-0.089483623
-0.11057612
-0.058015311
-0.11667864
-0.018193383
-0.10834539
0.020796894
-0.083741065
0.05885386
-0.045699362
0.088379027
0.10466776
0.034593586
0.07007417
0.06371483
0.059257783
0.082963271
0.039605419
0.089615301
0.014144864
0.084105224
-0.012683307
0.065188131
-0.039098218
0.035587734
-0.059883226
5.6690606e-14
-0.071417485
-0.035587734
-0.071417485
-0.065188131
-0.059883226
-0.084105224
-0.039098218
-0.089615301
-0.012683307
-0.082963271
0.014144864
-0.06371483
0.039605419
-0.034593586
0.059257783
0.07007417
0.020684087
0.049390082
0.038094389
0.041847481
0.049671173
0.028028636
0.053814128
0.010001909
0.050359078
-0.0092282574
0.038996326
-0.027735466
0.021290104
-0.042177004
9.2094238e-14
-0.050127381
-0.021290104
-0.050127381
-0.038996326
-0.042177004
-0.050359078
-0.027735466
-0.053814128
-0.0092282574
-0.049671173
0.010001909
-0.038094389
0.028028636
-0.020684087
0.041847481
0.049390082
0.019806432
0.029583651
0.03657601
0.025077903
0.047796237
0.016808409
0.051783874
0.0060142722
0.048140948
-0.005585331
0.037046915
-0.016641433
0.020130265
-0.025260355
3.135284e-14
-0.029997116
-0.020130265
-0.029997116
-0.037046915
-0.025260355
-0.048140948
-0.016641433
-0.051783874
-0.005585331
-0.047796237
0.0060142722
-0.03657601
0.016808409
-0.019806432
0.025077903
0.029583651
0.0067320838
0.022851567
0.012427859
0.019382127
0.016249693
0.012986575
0.017641681
0.0046222848
0.016386234
-0.0043298843
0.012612128
-0.012867327
0.0068571705
-0.019505397
2.29863e-13
-0.023139945
-0.0068571705
-0.023139945
-0.012612128
-0.019505397
-0.016386234
-0.012867327
-0.017641681
-0.0043298843
-0.016249693
0.0046222848
-0.012427859
0.012986575
-0.0067320838
0.019382127
0.022851567
0.022754762
0.042055048
0.054987204
0.059590754
0.055279502
0.042466569
0.023043063
-1.2464776e-13
-0.023043063
-0.042466569
-0.055279502
-0.059590754
-0.054987204
-0.042055048
-0.022754762
)
;

boundaryField
{
    leftWall
    {
        type            cyclic;
        value           nonuniform List<scalar> 
16
(
-8.1124289e-14
-1.5331171e-13
-9.9531589e-14
-5.8120151e-14
-6.6768758e-14
-7.0665006e-14
-9.5062355e-14
-1.6210869e-13
-2.2808568e-13
-1.1302881e-13
-8.2904397e-14
-5.1045134e-14
5.0602053e-15
9.2549183e-14
-9.6653456e-14
6.9118382e-14
)
;
    }
    rightWall
    {
        type            cyclic;
        value           nonuniform List<scalar> 
16
(
8.1124289e-14
1.5331171e-13
9.9531589e-14
5.8120151e-14
6.6768758e-14
7.0665006e-14
9.5062355e-14
1.6210869e-13
2.2808568e-13
1.1302881e-13
8.2904397e-14
5.1045134e-14
-5.0602053e-15
-9.2549183e-14
9.6653456e-14
-6.9118382e-14
)
;
    }
    lowerWall
    {
        type            calculated;
        value           uniform 0;
    }
    atmosphere
    {
        type            calculated;
        value           nonuniform List<scalar> 
16
(
9.6805122e-05
8.1841559e-05
5.4418313e-05
1.8735381e-05
-1.8632231e-05
-5.4395018e-05
-8.1891145e-05
-9.6881982e-05
-9.6881982e-05
-8.1891145e-05
-5.4395018e-05
-1.8632231e-05
1.8735381e-05
5.4418313e-05
8.1841559e-05
9.6805122e-05
)
;
    }
    defaultFaces
    {
        type            empty;
        value           nonuniform List<scalar> 0();
    }
}


// ************************************************************************* //
