/*--------------------------------*- C++ -*----------------------------------*\
| =========                 |                                                 |
| \\      /  F ield         | OpenFOAM: The Open Source CFD Toolbox           |
|  \\    /   O peration     | Version:  2106                                  |
|   \\  /    A nd           | Website:  www.openfoam.com                      |
|    \\/     M anipulation  |                                                 |
\*---------------------------------------------------------------------------*/
FoamFile
{
    version     2.0;
    format      ascii;
    arch        "LSB;label=32;scalar=64";
    class       volScalarField;
    location    "0.039";
    object      p;
}
// * * * * * * * * * * * * * * * * * * * * * * * * * * * * * * * * * * * * * //

dimensions      [1 -1 -2 0 0 0 0];

internalField   nonuniform List<scalar> 
4096
(
2.0069434
1.9875792
1.9490386
1.8916956
1.8161064
1.7230041
1.6132909
1.4880298
1.3484336
1.195853
1.0317635
0.85775066
0.67549514
0.48675556
0.29334896
0.097143601
-0.099968753
-0.29609705
-0.48935209
-0.67787522
-0.85985465
-1.0335421
-1.1972697
-1.3494655
-1.4886689
-1.6135442
-1.7228934
-1.8156679
-1.890978
-1.9481016
-1.9864909
-2.005778
-2.005778
-1.9864909
-1.9481016
-1.890978
-1.8156679
-1.7228934
-1.6135442
-1.4886689
-1.3494655
-1.1972697
-1.0335421
-0.85985465
-0.67787522
-0.48935209
-0.29609705
-0.099968752
0.097143602
0.29334896
0.48675557
0.67549514
0.85775066
1.0317635
1.195853
1.3484336
1.4880298
1.6132909
1.7230041
1.8161064
1.8916956
1.9490386
1.9875792
2.0069434
2.0283277
2.0087575
1.969807
1.9118541
1.8354609
1.741368
1.6304874
1.5038933
1.3628111
1.208606
1.0427689
0.86690223
0.68270428
0.49195225
0.29648455
0.098187283
-0.10103069
-0.29925316
-0.49457253
-0.68511059
-0.86903612
-1.0445821
-1.2100626
-1.3638889
-1.5045844
-1.6307989
-1.7413216
-1.8350921
-1.911211
-1.9689482
-2.0077501
-2.0272445
-2.0272445
-2.0077501
-1.9689482
-1.911211
-1.8350921
-1.7413216
-1.6307989
-1.5045843
-1.3638889
-1.2100626
-1.0445821
-0.86903612
-0.68511059
-0.49457253
-0.29925316
-0.10103069
0.098187285
0.29648455
0.49195225
0.68270428
0.86690223
1.0427689
1.208606
1.3628111
1.5038933
1.6304874
1.741368
1.8354609
1.9118541
1.969807
2.0087575
2.0283277
2.0686244
2.048665
2.0089399
1.9498346
1.8719223
1.7759586
1.6628735
1.5337627
1.389876
1.2326056
1.0634723
0.88411015
0.69625101
0.50170742
0.30235498
0.10011538
-0.10306418
-0.3052286
-0.504433
-0.69876202
-0.88634801
-1.0653888
-1.2341648
-1.3910555
-1.5345547
-1.6632853
-1.7760119
-1.8716528
-1.9492903
-2.0081798
-2.047756
-2.0676396
-2.0676396
-2.047756
-2.0081798
-1.9492903
-1.8716528
-1.7760119
-1.6632853
-1.5345547
-1.3910555
-1.2341648
-1.0653888
-0.88634801
-0.69876202
-0.504433
-0.3052286
-0.10306418
0.10011538
0.30235498
0.50170743
0.69625101
0.88411015
1.0634723
1.2326056
1.389876
1.5337627
1.6628735
1.7759586
1.8719223
1.9498346
2.0089399
2.048665
2.0686244
2.1285746
2.1080357
2.0671572
2.0063358
1.9261618
1.8274128
1.7110459
1.5781887
1.4301277
1.2682954
1.0942567
0.90969322
0.71638682
0.51620252
0.31107027
0.10296673
-0.10610445
-0.31413147
-0.51911343
-0.71907965
-0.91210838
-1.0963452
-1.2700206
-1.431467
-1.5791342
-1.7116048
-1.8276072
-1.9260281
-2.0059228
-2.0665246
-2.1072518
-2.1277136
-2.1277136
-2.1072518
-2.0665246
-2.0059228
-1.9260281
-1.8276072
-1.7116048
-1.5791342
-1.4314669
-1.2700206
-1.0963452
-0.91210838
-0.71907964
-0.51911343
-0.31413146
-0.10610444
0.10296673
0.31107028
0.51620252
0.71638682
0.90969322
1.0942567
1.2682954
1.4301277
1.5781887
1.7110459
1.8274128
1.9261618
2.0063358
2.0671572
2.1080357
2.1285746
2.2089338
2.1876177
2.1451924
2.0820699
1.998863
1.8963789
1.7756115
1.6377312
1.4840733
1.3161249
1.1355101
0.94397388
0.74336554
0.53562033
0.32274088
0.10677798
-0.1101893
-0.32607348
-0.53879844
-0.74631932
-0.946642
-1.1378421
-1.3180831
-1.4856343
-1.6388869
-1.7763692
-1.8967615
-1.9989077
-2.0818271
-2.1447235
-2.186993
-2.2082297
-2.2082297
-2.186993
-2.1447235
-2.0818271
-1.9989077
-1.8967615
-1.7763692
-1.6388869
-1.4856343
-1.3180831
-1.1378421
-0.946642
-0.74631932
-0.53879844
-0.32607348
-0.1101893
0.10677798
0.32274088
0.53562033
0.74336554
0.94397388
1.1355101
1.3161249
1.4840733
1.6377312
1.7756115
1.8963789
1.998863
2.0820699
2.1451924
2.1876177
2.2089338
2.3104685
2.2881699
2.2437894
2.1777582
2.0907177
1.9835128
1.8571837
1.712955
1.5522241
1.3765468
1.187622
0.98727527
0.77744076
0.56014254
0.33747498
0.11158269
-0.11536015
-0.34117052
-0.56367732
-0.78074206
-0.99027918
-1.1902759
-1.3788114
-1.554075
-1.7143835
-1.8581975
-1.9841356
-2.0909882
-2.1777289
-2.2435243
-2.2877424
-2.3099581
-2.3099581
-2.2877424
-2.2435243
-2.1777289
-2.0909882
-1.9841356
-1.8581975
-1.7143835
-1.554075
-1.3788114
-1.1902759
-0.99027918
-0.78074206
-0.56367732
-0.34117052
-0.11536015
0.11158269
0.33747498
0.56014254
0.77744076
0.98727527
1.187622
1.3765468
1.5522241
1.712955
1.8571837
1.9835128
2.0907177
2.1777582
2.2437894
2.2881699
2.3104685
2.4341398
2.4106441
2.3638811
2.2943056
2.2025939
2.0896369
1.9565313
1.8045683
1.6352205
1.4501278
1.2510804
1.0400018
0.81892963
0.58999614
0.3554074
0.11742222
-0.12166946
-0.35956839
-0.59398787
-0.82267545
-1.0434343
-1.2541441
-1.4527811
-1.6374375
-1.8063397
-1.9578652
-2.090558
-2.203143
-2.294538
-2.3638645
-2.4104559
-2.4338642
-2.4338642
-2.4104559
-2.3638645
-2.294538
-2.203143
-2.090558
-1.9578652
-1.8063397
-1.6374375
-1.4527811
-1.2541441
-1.0434343
-0.82267545
-0.59398787
-0.35956839
-0.12166946
0.11742222
0.3554074
0.58999614
0.81892963
1.0400018
1.2510804
1.4501278
1.6352205
1.8045683
1.9565313
2.0896369
2.2025939
2.2943056
2.3638811
2.4106441
2.4341398
2.5811339
2.5562144
2.5066181
2.4328279
2.3355616
2.2157652
2.0746025
1.9134439
1.7338521
1.5375665
1.3264864
1.1026515
0.86822268
0.62546054
0.37670385
0.1243471
-0.12918233
-0.38144722
-0.6300236
-0.8725237
-1.1066186
-1.3300601
-1.5407023
-1.7365221
-1.9156381
-2.0763292
-2.2170506
-2.3364493
-2.4333768
-2.5069007
-2.5563133
-2.5811391
-2.5811391
-2.5563133
-2.5069007
-2.4333768
-2.3364493
-2.2170506
-2.0763292
-1.9156381
-1.7365221
-1.5407023
-1.3300601
-1.1066186
-0.8725237
-0.6300236
-0.38144722
-0.12918233
0.1243471
0.37670385
0.62546054
0.86822268
1.1026515
1.3264864
1.5375665
1.7338521
1.9134439
2.0746025
2.2157652
2.3355616
2.4328279
2.5066181
2.5562144
2.5811339
2.7528623
2.7262786
2.6733703
2.5946533
2.4908945
2.3631041
2.2125249
2.0406199
1.8490572
1.6396932
1.4145541
1.1758161
0.92578347
0.66686705
0.40156046
0.13241651
-0.13797705
-0.40702204
-0.67213434
-0.93076829
-1.1804407
-1.4187542
-1.6434204
-1.8522811
-2.0433293
-2.2147284
-2.36483
-2.4921896
-2.5955814
-2.6740097
-2.7267188
-2.753201
-2.753201
-2.7267188
-2.6740097
-2.5955814
-2.4921896
-2.36483
-2.2147284
-2.0433293
-1.8522811
-1.6434204
-1.4187542
-1.1804407
-0.93076829
-0.67213434
-0.40702204
-0.13797705
0.13241651
0.40156046
0.66686705
0.92578347
1.1758161
1.4145541
1.6396932
1.8490572
2.0406199
2.2125249
2.3631041
2.4908945
2.5946533
2.6733703
2.7262786
2.7528623
2.950974
2.9224688
2.865737
2.7813326
2.6700792
2.5330616
2.3716142
2.1873071
1.9819304
1.7574755
1.5161158
1.2601843
0.99215137
0.71460076
0.43020459
0.14169808
-0.14814631
-0.43654502
-0.72072947
-0.99797208
-1.265612
-1.5210799
-1.7619229
-1.9858272
-2.1906407
-2.3743935
-2.5353173
-2.6718623
-2.7827128
-2.8668002
-2.9233133
-2.9517068
-2.9517068
-2.9233133
-2.8668002
-2.7827128
-2.6718623
-2.5353173
-2.3743935
-2.1906407
-1.9858272
-1.7619229
-1.5210799
-1.265612
-0.99797208
-0.72072947
-0.43654502
-0.14814632
0.14169808
0.43020459
0.71460076
0.99215137
1.2601843
1.5161158
1.7574755
1.9819304
2.1873071
2.3716142
2.5330616
2.6700792
2.7813326
2.865737
2.9224688
2.950974
3.1773713
3.1466685
3.0855636
2.9946545
2.8748302
2.7272611
2.5533867
2.3549003
2.1337317
1.8920273
1.6321285
1.356548
1.0679459
0.76910332
0.46289617
0.15226775
-0.15979882
-0.47030852
-0.77628239
-1.0747854
-1.3629537
-1.6380221
-1.8973494
-2.1384442
-2.3589884
-2.5568598
-2.7301527
-2.8771965
-2.9965728
-3.0871291
-3.1479906
-3.1785692
-3.1785692
-3.1479906
-3.0871291
-2.9965728
-2.8771965
-2.7301527
-2.5568598
-2.3589884
-2.1384442
-1.8973494
-1.6380221
-1.3629537
-1.0747854
-0.77628239
-0.47030852
-0.15979882
0.15226775
0.46289617
0.76910332
1.0679459
1.356548
1.6321285
1.8920273
2.1337317
2.3549003
2.5533867
2.7272611
2.8748302
2.9946545
3.0855636
3.1466685
3.1773713
3.4342289
3.4010301
3.3349586
3.2366625
3.1071055
2.9475558
2.759573
2.5449907
2.3058982
2.0446178
1.7636822
1.4658083
1.1538712
0.83087584
0.49992893
0.16420937
-0.17306129
-0.50864873
-0.83933585
-1.1619526
-1.4734057
-1.7707072
-2.0510031
-2.3116002
-2.549992
-2.7638831
-2.9512117
-3.1101699
-3.2392221
-3.3371204
-3.4029173
-3.4359759
-3.4359759
-3.4029173
-3.3371204
-3.2392221
-3.1101699
-2.9512117
-2.7638831
-2.549992
-2.3116002
-2.0510031
-1.7707072
-1.4734057
-1.1619526
-0.83933585
-0.50864873
-0.17306129
0.16420937
0.49992893
0.83087583
1.1538712
1.4658083
1.7636822
2.0446178
2.3058982
2.5449907
2.759573
2.9475558
3.1071055
3.2366625
3.3349586
3.4010301
3.4342289
3.7240144
3.687996
3.6163142
3.5096744
3.3691253
3.1960464
2.9921335
2.75938
2.5000555
2.2166821
1.9120084
1.5889822
1.2507209
0.90048193
0.54163166
0.17761412
-0.18808093
-0.55194995
-0.91050794
-1.2603205
-1.5980355
-1.9204147
-2.2243638
-2.506962
-2.7654902
-2.9974571
-3.2006243
-3.3730285
-3.5130012
-3.6191864
-3.6905544
-3.7264124
-3.7264124
-3.6905544
-3.6191864
-3.5130012
-3.3730285
-3.2006243
-2.9974571
-2.7654902
-2.506962
-2.2243638
-1.9204147
-1.5980355
-1.2603205
-0.91050794
-0.55194995
-0.18808093
0.17761412
0.54163166
0.90048193
1.2507209
1.5889822
1.9120084
2.2166821
2.5000555
2.75938
2.9921335
3.1960464
3.3691253
3.5096744
3.6163142
3.687996
3.7240144
4.0495124
4.0103221
3.9323292
3.8163043
3.6633923
3.4750994
3.2532758
3.0000953
2.7180317
2.4098323
2.0784894
1.7272098
1.3593835
0.97855088
0.58836931
0.1925796
-0.20502826
-0.60064947
-0.99049907
-1.3708465
-1.7380498
-2.0885898
-2.4191027
-2.726412
-3.0075593
-3.2598332
-3.4807961
-3.6683092
-3.8205543
-3.936053
-4.0136824
-4.052687
-4.052687
-4.0136824
-3.936053
-3.8205543
-3.6683092
-3.4807961
-3.2598332
-3.0075593
-2.726412
-2.4191027
-2.0885898
-1.7380498
-1.3708465
-0.99049907
-0.60064947
-0.20502826
0.1925796
0.58836931
0.97855088
1.3593835
1.7272098
2.0784894
2.4098323
2.7180317
3.0000953
3.2532758
3.4750994
3.6633923
3.8163043
3.9323292
4.0103221
4.0495124
4.4138517
4.3711043
4.2860343
4.1594865
3.9927149
3.787369
3.5454736
3.2694067
2.9618721
2.6258705
2.264668
1.8817622
1.4808477
1.0657809
0.64054408
0.20920877
-0.2241005
-0.65524313
-1.0800997
-1.4946093
-1.8948064
-2.276858
-2.6370988
-2.9720663
-3.278534
-3.5535431
-3.7944325
-3.9988659
-4.1648561
-4.290787
-4.3754304
-4.4179599
-4.4179599
-4.3754304
-4.290787
-4.1648561
-3.9988659
-3.7944325
-3.5535431
-3.278534
-2.9720663
-2.6370988
-2.276858
-1.8948064
-1.4946093
-1.0800997
-0.65524313
-0.2241005
0.20920877
0.64054408
1.0657809
1.4808477
1.8817622
2.264668
2.6258705
2.9618721
3.2694067
3.5454736
3.787369
3.9927149
4.1594865
4.2860343
4.3711043
4.4138517
4.8205349
4.7738081
4.6808216
4.5425038
4.3602329
4.1358203
3.8714886
3.5698457
3.233855
2.866802
2.4722594
2.0540499
1.6162083
1.1629429
0.69859671
0.22760876
-0.24552508
-0.71629134
-1.180199
-1.6328196
-2.0698279
-2.487041
-2.8804579
-3.2462965
-3.5810307
-3.8814248
-4.1445668
-4.3678985
-4.5492431
-4.6868288
-4.7793089
-4.8257769
-4.8257769
-4.7793089
-4.6868288
-4.5492431
-4.3678985
-4.1445668
-3.8814248
-3.5810307
-3.2462965
-2.8804579
-2.487041
-2.0698279
-1.6328196
-1.180199
-0.71629134
-0.24552508
0.22760876
0.69859671
1.1629429
1.6162083
2.0540499
2.4722594
2.866802
3.233855
3.5698457
3.8714886
4.1358203
4.3602329
4.5425038
4.6808216
4.7738081
4.8205349
5.2734737
5.222303
5.1204766
4.9690181
4.7694463
4.5237561
4.2343937
3.9042267
3.5365103
3.13485
2.7031621
2.245632
1.7666731
1.2708841
0.76300795
0.24788993
-0.26956323
-0.78442534
-1.2917936
-1.7868321
-2.264816
-2.7211743
-3.1515321
-3.5517518
-3.9179729
-4.2466501
-4.5345903
-4.7789864
-4.977448
-5.1280283
-5.2292469
-5.2801069
-5.2801069
-5.2292469
-5.1280283
-4.977448
-4.7789864
-4.5345903
-4.2466501
-3.9179729
-3.5517518
-3.1515321
-2.7211743
-2.264816
-1.7868321
-1.2917936
-0.78442534
-0.26956323
0.24788993
0.76300795
1.2708841
1.7666731
2.245632
2.7031621
3.13485
3.5365103
3.9042267
4.2343937
4.5237561
4.7694463
4.9690181
5.1204766
5.222303
5.2734737
5.7770268
5.7208998
5.6092155
5.4431055
5.2242482
4.9548467
4.6376001
4.2756695
3.8726388
3.4324729
2.9594722
2.4582268
1.9335703
1.3905337
0.83430114
0.27016583
-0.29651276
-0.86035297
-1.4159967
-1.9581573
-2.4816672
-2.9815254
-3.4529422
-3.8913847
-4.2926197
-4.6527564
-4.968287
-5.2361247
-5.4536389
-5.6186858
-5.7296341
-5.7853847
-5.7853847
-5.7296341
-5.6186858
-5.4536389
-5.2361247
-4.968287
-4.6527564
-4.2926197
-3.8913847
-3.4529422
-2.9815254
-2.4816672
-1.9581573
-1.4159967
-0.86035297
-0.29651276
0.27016583
0.83430114
1.3905337
1.9335703
2.4582268
2.9594722
3.4324729
3.8726388
4.2756695
4.6376001
4.9548467
5.2242482
5.4431055
5.6092155
5.7208998
5.7770268
6.3360445
6.2743947
6.1517269
5.9692958
5.7289614
5.4331632
5.0848871
4.6876261
4.2453351
3.7623822
3.243498
2.6937234
2.1183577
1.5229091
0.91304655
0.29455496
-0.32670921
-0.94486302
-1.554046
-2.1484731
-2.7224876
-3.2706125
-3.7875994
-4.2684764
-4.7085957
-5.1036805
-5.4498705
-5.743765
-5.9824629
-6.1635979
-6.2853679
-6.3465586
-6.3465586
-6.2853679
-6.1635979
-5.9824629
-5.743765
-5.4498705
-5.1036805
-4.7085957
-4.2684764
-3.7875994
-3.2706125
-2.7224876
-2.1484731
-1.554046
-0.94486302
-0.32670921
0.29455496
0.91304655
1.5229091
2.1183577
2.6937234
3.243498
3.7623822
4.2453351
4.6876261
5.0848871
5.4331632
5.7289614
5.9692958
6.1517269
6.2743947
6.3360445
6.9559199
6.8881191
6.7532202
6.5526185
6.288381
5.9632164
5.5804368
5.1439109
4.6580126
4.1275644
3.5577783
2.9541968
2.3226351
1.6691258
0.99986912
0.32118618
-0.36052345
-1.0388267
-1.7073089
-2.3596342
-2.9896059
-3.5912222
-4.1587275
-4.6866635
-5.1699216
-5.6037937
-5.9840245
-6.3068599
-6.5690936
-6.7681075
-6.9019062
-6.9691443
-6.9691443
-6.9019062
-6.7681075
-6.5690936
-6.3068599
-5.9840245
-5.6037937
-5.1699216
-4.6866635
-4.1587275
-3.5912222
-2.9896059
-2.3596342
-1.7073089
-1.0388267
-0.36052345
0.32118618
0.99986912
1.6691258
2.3226351
2.9541968
3.5577783
4.1275644
4.6580126
5.1439109
5.5804368
5.9632164
6.288381
6.5526185
6.7532202
6.8881191
6.9559199
7.6426481
7.5679981
7.4194823
7.1986566
6.9078247
6.5500029
6.1288745
5.6487358
5.1144352
4.5313071
3.9051036
3.2419261
2.5481598
1.8304125
1.0954619
0.35021023
-0.39835328
-1.1431932
-1.8772832
-2.5936777
-3.2855843
-3.946424
-4.5698822
-5.149963
-5.681045
-6.1579386
-6.5759442
-6.9309095
-7.2192825
-7.4381592
-7.5853245
-7.6592836
-7.6592836
-7.5853245
-7.4381592
-7.2192825
-6.9309095
-6.5759442
-6.1579386
-5.681045
-5.149963
-4.5698822
-3.946424
-3.2855843
-2.5936777
-1.8772832
-1.1431932
-0.39835328
0.35021023
1.0954619
1.8304125
2.5481598
3.2419261
3.9051036
4.5313071
5.1144352
5.6487358
6.1288745
6.5500029
6.9078247
7.1986566
7.4194823
7.5679981
7.6426481
8.4028979
8.3206211
8.1569452
7.9136105
7.5931923
7.1990589
6.7353182
6.206754
5.6187536
4.9772306
4.2885441
3.559419
2.7968696
2.0081323
1.2006077
0.38182113
-0.44060488
-1.2589773
-2.0655911
-2.8528228
-3.6132223
-4.3395793
-5.024966
-5.6627929
-6.2468684
-6.7714636
-7.2313788
-7.6220104
-7.9394134
-8.180358
-8.3423779
-8.4238075
-8.4238075
-8.3423779
-8.180358
-7.9394134
-7.6220104
-7.2313788
-6.7714636
-6.2468684
-5.6627929
-5.024966
-4.3395793
-3.6132223
-2.8528228
-2.0655911
-1.2589773
-0.44060488
0.38182113
1.2006077
2.0081323
2.7968696
3.559419
4.2885441
4.9772306
5.6187536
6.206754
6.7353182
7.1990589
7.5931923
7.9136105
8.1569452
8.3206211
8.4028979
9.2440974
9.1533258
8.9727677
8.704376
8.3510382
7.9165272
7.4054381
6.823112
6.1755514
5.4693272
4.7114833
3.9094415
3.0709116
2.2038135
1.316213
0.4162912
-0.48766207
-1.3872391
-2.2739697
-3.1394649
-3.9755534
-4.7743426
-5.528235
-6.2299866
-6.8727716
-7.4502552
-7.956672
-8.3869046
-8.7365588
-9.0020314
-9.1805672
-9.2703044
-9.2703044
-9.1805672
-9.0020314
-8.7365588
-8.3869046
-7.956672
-7.4502552
-6.8727716
-6.2299866
-5.528235
-4.7743426
-3.9755534
-3.1394649
-2.2739697
-1.3872391
-0.48766207
0.4162912
1.316213
2.2038135
3.0709116
3.9094415
4.7114833
5.4693272
6.1755514
6.823112
7.4054381
7.9165272
8.3510382
8.704376
8.9727677
9.1533258
9.2440974
10.174538
10.0743
9.8749343
9.5786381
9.1886595
8.7092379
8.1455286
7.5035139
6.7899002
6.0120085
5.1776587
4.2950547
3.3726769
2.4191893
1.4433547
0.45402111
-0.53984703
-1.5290686
-2.504263
-3.4561571
-4.3758289
-5.2546503
-6.0842944
-6.8567975
-7.5646267
-8.2007641
-8.7587998
-9.2330279
-9.6185374
-9.9112938
-10.108209
-10.207193
-10.207193
-10.108209
-9.9112938
-9.6185374
-9.2330279
-8.7587998
-8.2007641
-7.5646267
-6.8567975
-6.0842944
-5.2546503
-4.3758289
-3.4561571
-2.504263
-1.5290686
-0.53984703
0.45402111
1.4433547
2.4191893
3.3726769
4.2950547
5.1776587
6.0120085
6.7899002
7.5035139
8.1455286
8.7092379
9.1886595
9.5786381
9.8749343
10.0743
10.174538
11.203497
11.092705
10.872373
10.544983
10.114201
9.5848038
8.9625953
8.2542965
7.467424
6.6101591
5.6912068
4.7196556
3.7048478
2.6562586
1.5833624
0.49562169
-0.59733595
-1.6854433
-2.758257
-3.8055259
-4.8174784
-5.7846931
-6.6980793
-7.5488902
-8.3288034
-9.0300244
-9.6454041
-10.168557
-10.593972
-10.917114
-11.134506
-11.243796
-11.243796
-11.134506
-10.917114
-10.593972
-10.168557
-9.6454041
-9.0300244
-8.3288034
-7.5488902
-6.6980793
-5.7846931
-4.8174784
-3.8055259
-2.758257
-1.6854433
-0.59733595
0.4956217
1.5833624
2.6562586
3.7048478
4.7196556
5.6912068
6.6101591
7.467424
8.2542965
8.9625953
9.5848038
10.114201
10.544983
10.872373
11.092705
11.203497
12.341387
12.218817
11.975095
11.613033
11.136778
10.551734
9.8644543
9.0825156
8.2143709
7.2691946
6.2567116
5.1870273
4.070471
2.9173755
1.7379153
0.5420938
-0.65995526
-1.8572634
-3.0379378
-4.1904284
-5.3041304
-6.3688945
-7.3748289
-8.3123252
-9.1721683
-9.9456717
-10.624829
-11.202461
-11.672356
-12.029393
-12.269639
-12.390433
-12.390433
-12.269639
-12.029393
-11.672356
-11.202461
-10.624829
-9.9456717
-9.1721683
-8.3123252
-7.3748289
-6.3688945
-5.3041304
-4.1904284
-3.0379378
-1.8572634
-0.65995526
0.5420938
1.7379153
2.9173755
4.070471
5.1870273
6.2567116
7.2691946
8.2143709
9.0825156
9.8644543
10.551734
11.136778
11.613033
11.975095
12.218817
12.341387
13.599947
13.464221
13.194379
12.793615
12.266638
11.619577
10.859857
9.9960504
9.037694
7.9951172
6.8792338
5.7013438
4.472871
3.2051053
1.9089566
0.59478083
-0.72726552
-2.0453665
-3.3453185
-4.6137657
-5.8395279
-7.0118595
-8.1200543
-9.1535474
-10.1021
-10.955984
-11.706186
-12.34459
-12.86416
-13.259081
-13.524886
-13.658547
-13.658547
-13.524886
-13.259081
-12.86416
-12.34459
-11.706186
-10.955984
-10.1021
-9.1535474
-8.1200543
-7.0118595
-5.8395279
-4.6137657
-3.3453185
-2.0453665
-0.72726552
0.59478083
1.9089566
3.2051053
4.472871
5.7013438
6.8792338
7.9951172
9.037694
9.9960504
10.859857
11.619577
12.266638
12.793615
13.194379
13.464221
13.599947
14.992435
14.841996
14.54295
14.098934
13.51531
12.799055
11.958604
11.00369
9.9451069
8.7945304
7.564253
6.2669731
4.9154771
3.522311
2.0991021
0.65599667
-0.79796733
-2.2502559
-3.682486
-5.0785788
-6.4275196
-7.7183296
-8.9395018
-10.079377
-11.126512
-12.069934
-12.899435
-13.605781
-14.180957
-14.618322
-14.912777
-15.06086
-15.06086
-14.912777
-14.618322
-14.180957
-13.605781
-12.899435
-12.069934
-11.126512
-10.079377
-8.9395018
-7.7183296
-6.4275196
-5.0785788
-3.682486
-2.2502559
-0.79796733
0.65599667
2.0991021
3.522311
4.9154771
6.2669731
7.564253
8.7945304
9.9451069
11.00369
11.958604
12.799055
13.51531
14.098934
14.54295
14.841996
14.992435
16.533431
16.366517
16.034777
15.542365
14.895399
14.101849
13.171322
12.114913
10.944868
9.6744346
8.3175189
6.8885221
5.4019749
3.8721019
2.3113146
0.72869359
-0.87006671
-2.4722766
-4.0517957
-5.588112
-7.0719339
-8.4929634
-9.8389145
-11.096774
-12.253624
-13.296975
-14.215178
-14.997655
-15.635223
-16.120258
-16.446906
-16.61118
-16.61118
-16.446906
-16.120258
-15.635223
-14.997655
-14.215178
-13.296975
-12.253624
-11.096774
-9.8389145
-8.4929634
-7.0719339
-5.588112
-4.0517957
-2.4722766
-0.87006672
0.72869359
2.3113146
3.8721019
5.4019749
6.8885221
8.3175189
9.6744346
10.944868
12.114913
13.171322
14.101849
14.895399
15.542365
16.034777
16.366517
16.533431
18.238145
18.052766
17.684388
17.137767
16.419909
15.539944
14.508841
13.339293
12.04521
10.64167
9.1444428
7.5700171
5.9352966
4.257224
2.5494512
0.8182343
-0.93933089
-2.712939
-4.4585307
-6.1470047
-7.7765901
-9.3399884
-10.823596
-12.212374
-13.491481
-14.646526
-15.66412
-16.532057
-17.239766
-17.778449
-18.141368
-18.323925
-18.323925
-18.141368
-17.778449
-17.239766
-16.532057
-15.66412
-14.646526
-13.491481
-12.212374
-10.823596
-9.3399884
-7.7765901
-6.1470047
-4.4585307
-2.712939
-0.93933089
0.8182343
2.5494512
4.257224
5.9352966
7.5700171
9.1444428
10.64167
12.04521
13.339293
14.508841
15.539944
16.419909
17.137767
17.684388
18.052766
18.238145
20.127595
19.921439
19.511855
18.904262
18.10676
17.12982
15.985952
14.689854
13.2572
11.705259
10.051786
8.3157404
6.5171708
4.6783181
2.8182687
0.94195753
-0.98732125
-2.9814611
-4.9245375
-6.7643809
-8.5467269
-10.265113
-11.900961
-13.435627
-14.851614
-16.132085
-17.261572
-18.225873
-19.012788
-19.612104
-20.016068
-20.219371
-20.219371
-20.016068
-19.612104
-19.012788
-18.225873
-17.261572
-16.132085
-14.851614
-13.435627
-11.900961
-10.265113
-8.5467269
-6.7643809
-4.9245375
-2.9814611
-0.98732125
0.94195753
2.8182687
4.6783181
6.5171708
8.3157404
10.051786
11.705259
13.2572
14.689854
15.985952
17.12982
18.10676
18.904262
19.511855
19.921439
20.127595
22.250097
22.020238
21.563365
20.886154
19.997295
18.909591
17.637028
16.196867
14.606649
12.886428
11.055292
9.1348477
7.1470988
5.1250246
3.1089674
1.139002
-1.174609
-3.4914786
-5.4152574
-7.2998903
-9.1655968
-10.961469
-12.662831
-14.249666
-15.705684
-17.01519
-18.164911
-19.142219
-19.936994
-20.540397
-20.946296
-21.15034
-21.15034
-20.946296
-20.540397
-19.936994
-19.142219
-18.164911
-17.01519
-15.705684
-14.249666
-12.662831
-10.961469
-9.1655968
-7.2998903
-5.4152574
-3.4914786
-1.174609
1.139002
3.1089674
5.1250246
7.1470988
9.1348477
11.055292
12.886428
14.606649
16.196867
17.637028
18.909591
19.997295
20.886154
21.563365
22.020238
22.250097
-21.124029
-20.920238
-20.514821
-19.912143
-19.11833
-18.142213
-16.993893
-15.685999
-14.231778
-12.646929
-10.947702
-9.1540875
-7.2907504
-5.4085283
-3.487286
-1.1730797
1.1379342
3.1053139
5.1187993
7.1383634
9.123611
11.041623
12.870619
14.588813
16.177146
17.615608
18.886671
19.973104
20.860936
21.53736
21.993693
22.223293
22.223293
21.993693
21.53736
20.860936
19.973104
18.886671
17.615608
16.177146
14.588813
12.870619
11.041623
9.123611
7.1383634
5.1187993
3.1053139
1.1379342
-1.1730797
-3.487286
-5.4085283
-7.2907504
-9.1540875
-10.947702
-12.646929
-14.231778
-15.685999
-16.993893
-18.142213
-19.11833
-19.912143
-20.514821
-20.920238
-21.124029
-20.192797
-19.989744
-19.586274
-18.987694
-18.201754
-17.238657
-16.110592
-14.831751
-13.417587
-11.884919
-10.251222
-8.535124
-6.755178
-4.9178183
-2.9773059
-0.98579377
0.94084671
2.814532
4.6719769
6.5082715
8.304397
10.038137
11.689336
13.239191
14.669944
15.964331
17.106698
18.082361
18.878818
19.485616
19.89467
20.10056
20.10056
19.89467
19.485616
18.878818
18.082361
17.106698
15.964331
14.669944
13.239191
11.689336
10.038137
8.304397
6.5082715
4.6719769
2.814532
0.94084671
-0.98579377
-2.9773059
-4.9178183
-6.755178
-8.535124
-10.251222
-11.884919
-13.417587
-14.831751
-16.110592
-17.238657
-18.201754
-18.987694
-19.586274
-19.989744
-20.192797
-18.296822
-18.114521
-17.752108
-17.21418
-16.50747
-15.640765
-14.624626
-13.471247
-12.194002
-10.807263
-9.3258524
-7.7647895
-6.1376549
-4.451725
-2.708751
-0.93781046
0.81706832
2.5456064
4.2507305
5.9262122
7.558435
9.1304747
10.625428
12.026851
13.318997
14.486806
15.516383
16.395051
17.111851
17.657669
18.025507
18.210616
18.210616
18.025507
17.657669
17.111851
16.395051
15.516383
14.486806
13.318997
12.026851
10.625428
9.1304747
7.558435
5.9262122
4.2507305
2.5456064
0.81706832
-0.93781046
-2.708751
-4.451725
-6.1376549
-7.7647895
-9.3258524
-10.807263
-12.194002
-13.471247
-14.624626
-15.640765
-16.50747
-17.21418
-17.752108
-18.114521
-18.296822
-16.583291
-16.419281
-16.093157
-15.608902
-14.972365
-14.19116
-13.274458
-12.232824
-11.077892
-9.8221334
-8.4784456
-7.0598214
-5.5785237
-4.0448279
-2.4680027
-0.86853493
0.72746401
2.3073313
3.8653981
5.3926112
6.8765885
8.303128
9.6577146
10.925978
12.094037
13.148662
14.077622
14.869842
15.515725
16.007316
16.338503
16.50514
16.50514
16.338503
16.007316
15.515725
14.869842
14.077622
13.148662
12.094037
10.925978
9.6577146
8.303128
6.8765885
5.3926112
3.8653981
2.3073313
0.72746401
-0.86853493
-2.4680027
-4.0448279
-5.5785237
-7.0598214
-8.4784456
-9.8221334
-11.077892
-12.232824
-13.274458
-14.19116
-14.972365
-15.608902
-16.093157
-16.419281
-16.583291
-15.031922
-14.884114
-14.590204
-14.153651
-13.579548
-12.874524
-12.046584
-11.104945
-10.059803
-8.9221101
-7.7032885
-6.4149762
-5.0686567
-3.6752846
-2.2458497
-0.79640475
0.65469604
2.0949467
3.5153358
4.9057455
6.2545768
7.5493085
8.7771753
9.9255068
10.982033
11.9351
12.773931
13.488809
14.071314
14.51448
14.812954
14.963107
14.963107
14.812954
14.51448
14.071314
13.488809
12.773931
11.9351
10.982033
9.9255068
8.7771753
7.5493085
6.2545768
4.9057455
3.5153358
2.0949467
0.65469604
-0.79640475
-2.2458497
-3.6752846
-5.0686567
-6.4149762
-7.7032885
-8.9221101
-10.059803
-11.104945
-12.046584
-12.874524
-13.579548
-14.153651
-14.590204
-14.884114
-15.031922
-13.628286
-13.494912
-13.229679
-12.835609
-12.317162
-11.680142
-10.931575
-10.07956
-9.133093
-8.1018834
-6.9961487
-5.8264308
-4.6034114
-3.3378105
-2.0407817
-0.72565311
0.59340067
1.9045928
3.197795
4.4626812
5.6883692
6.8635961
7.9769631
9.0171965
9.9734064
10.835285
11.593314
12.238938
12.764748
13.164626
13.433871
13.569298
13.569298
13.433871
13.164626
12.764748
12.238938
11.593314
10.835285
9.9734064
9.0171965
7.9769631
6.8635961
5.6883692
4.4626812
3.197795
1.9045928
0.59340067
-0.72565311
-2.0407817
-3.3378105
-4.6034114
-5.8264308
-6.9961487
-8.1018834
-9.133093
-10.07956
-10.931575
-11.680142
-12.317162
-12.835609
-13.229679
-13.494912
-13.628286
-12.358558
-12.238068
-11.998424
-11.642286
-11.173575
-10.597404
-9.9199701
-9.1484368
-8.2907924
-7.3557031
-6.3523614
-5.2903517
-4.1795397
-3.0300479
-1.8524527
-0.65827448
0.54062366
1.7333032
2.9096622
4.0597266
5.1733515
6.2402333
7.2500694
8.1927809
9.0586679
9.8385785
10.52408
11.107614
11.582642
11.943772
12.186868
12.309123
12.309123
12.186868
11.943772
11.582642
11.107614
10.52408
9.8385785
9.0586679
8.1927809
7.2500694
6.2402333
5.1733515
4.0597266
2.9096622
1.7333032
0.54062366
-0.65827448
-1.8524527
-3.0300479
-4.1795397
-5.2903517
-6.3523614
-7.3557031
-8.2907924
-9.1484368
-9.9199701
-10.597404
-11.173575
-11.642286
-11.998424
-12.238068
-12.358558
-11.210003
-11.101035
-10.884283
-10.562094
-10.137936
-9.6163339
-9.0027828
-8.3036521
-7.5260715
-6.6778138
-5.7671777
-4.8028841
-3.7939964
-2.7499072
-1.6803581
-0.59556872
0.49404908
1.5784603
2.6480704
3.6934478
4.7051501
5.6737323
6.5898811
7.4445358
8.2290175
8.9351689
9.5554948
10.083293
10.512776
10.83918
11.058849
11.169308
11.169308
11.058849
10.83918
10.512776
10.083293
9.5554948
8.9351689
8.2290175
7.4445358
6.5898811
5.6737323
4.7051501
3.6934478
2.6480704
1.5784603
0.49404908
-0.59556872
-1.6803581
-2.7499072
-3.7939964
-4.8028841
-5.7671777
-6.6778138
-7.5260715
-8.3036521
-9.0027828
-9.6163339
-10.137936
-10.562094
-10.884283
-11.101035
-11.210003
-10.171157
-10.072517
-9.8762854
-9.5845463
-9.2003788
-8.7278049
-8.1717205
-7.5378135
-6.832473
-6.0626938
-5.2359834
-4.360278
-3.4438752
-2.4953719
-1.5236582
-0.53797435
0.45233339
1.4381183
2.4104495
3.3605139
4.2795819
5.1590219
5.9903845
6.7654954
7.4765622
8.1162895
8.6779935
9.1557123
9.5443075
9.8395537
10.038214
10.138096
10.138096
10.038214
9.8395537
9.5443075
9.1557123
8.6779935
8.1162895
7.4765622
6.7654954
5.9903845
5.1590219
4.2795819
3.3605139
2.4104495
1.4381183
0.45233339
-0.53797435
-1.5236582
-2.4953719
-3.4438752
-4.360278
-5.2359834
-6.0626938
-6.832473
-7.5378135
-8.1717205
-8.7278049
-9.2003788
-9.5845463
-9.8762854
-10.072517
-10.171157
-9.2316805
-9.1423116
-8.9645088
-8.7001276
-8.3519128
-7.9234544
-7.4191304
-6.8440386
-6.2039224
-5.5050915
-4.7543445
-3.9588959
-3.1263117
-2.2644512
-1.3814514
-0.48566557
0.4144724
1.3105916
2.1944388
3.0578696
3.8928539
4.6915065
5.4461509
6.1493968
6.7942301
7.3741067
7.8830488
8.3157366
8.6675933
8.9348609
9.1146633
9.2050551
9.2050551
9.1146633
8.9348609
8.6675933
8.3157366
7.8830488
7.3741067
6.7942301
6.1493968
5.4461509
4.6915065
3.8928539
3.0578696
2.1944388
1.3105916
0.4144724
-0.48566557
-1.3814514
-2.2644512
-3.1263117
-3.9588959
-4.7543445
-5.5050915
-6.2039224
-6.8440386
-7.4191304
-7.9234544
-8.3519128
-8.7001276
-8.9645088
-9.1423116
-9.2316805
-8.3822232
-8.3011904
-8.1399603
-7.9001914
-7.5843392
-7.1956191
-6.7379582
-6.2159395
-5.6347385
-5.0000573
-4.318058
-3.5952983
-2.8386721
-2.055354
-1.2527567
-0.43846552
0.37985369
1.1945475
1.9980327
2.7828235
3.5415576
4.267036
4.9522802
5.5905993
6.1756658
6.7015952
7.1630265
7.5551989
7.8740243
8.1161501
8.2790133
8.3608816
8.3608816
8.2790133
8.1161501
7.8740243
7.5551989
7.1630265
6.7015952
6.1756658
5.5905993
4.9522802
4.267036
3.5415576
2.7828235
1.9980327
1.1945475
0.37985369
-0.43846552
-1.2527567
-2.055354
-2.8386721
-3.5952983
-4.318058
-5.0000573
-5.6347385
-6.2159395
-6.7379582
-7.1956191
-7.5843392
-7.9001914
-8.1399603
-8.3011904
-8.3822232
-7.6143385
-7.5408085
-7.3944975
-7.1768924
-6.8901966
-6.5372983
-6.1217306
-5.647623
-5.1196491
-4.5429693
-3.9231733
-3.2662224