/*--------------------------------*- C++ -*----------------------------------*\
| =========                 |                                                 |
| \\      /  F ield         | OpenFOAM: The Open Source CFD Toolbox           |
|  \\    /   O peration     | Version:  2106                                  |
|   \\  /    A nd           | Website:  www.openfoam.com                      |
|    \\/     M anipulation  |                                                 |
\*---------------------------------------------------------------------------*/
FoamFile
{
    version     2.0;
    format      ascii;
    arch        "LSB;label=32;scalar=64";
    class       surfaceScalarField;
    location    "0.039";
    object      phi;
}
// * * * * * * * * * * * * * * * * * * * * * * * * * * * * * * * * * * * * * //

dimensions      [0 3 -1 0 0 0 0];

oriented        oriented;

internalField   nonuniform List<scalar> 
8064
(
-7.7611655e-05
7.7611655e-05
-0.00015448455
7.6872893e-05
-0.00022988667
7.5402119e-05
-0.00030309946
7.321279e-05
-0.00037342443
7.0324969e-05
-0.00044018961
6.6765187e-05
-0.00050275586
6.2566243e-05
-0.00056052282
5.7766963e-05
-0.00061293471
5.2411887e-05
-0.00065948563
4.6550923e-05
-0.00069972455
4.0238921e-05
-0.00073325976
3.3535213e-05
-0.00075976285
2.6503086e-05
-0.00077897204
1.9209188e-05
-0.00079069484
1.1722805e-05
-0.00079481079
4.115948e-06
-0.00079127211
-3.5386804e-06
-0.00078010474
-1.1167374e-05
-0.00076140841
-1.8696324e-05
-0.00073535599
-2.6052426e-05
-0.00070219198
-3.3164009e-05
-0.00066223045
-3.9961524e-05
-0.00061585222
-4.6378235e-05
-0.00056350131
-5.2350909e-05
-0.00050568085
-5.7820462e-05
-0.00044294826
-6.2732585e-05
-0.00037590993
-6.7038332e-05
-0.00030521527
-7.0694655e-05
-0.00023155039
-7.3664888e-05
-0.00015563122
-7.5919168e-05
-7.8196436e-05
-7.7434782e-05
1.4480806e-14
-7.8196436e-05
7.8196436e-05
-7.8196436e-05
0.00015563122
-7.7434782e-05
0.00023155039
-7.5919168e-05
0.00030521527
-7.3664888e-05
0.00037590993
-7.0694655e-05
0.00044294826
-6.7038332e-05
0.00050568085
-6.2732585e-05
0.00056350131
-5.7820462e-05
0.00061585222
-5.2350909e-05
0.00066223045
-4.6378235e-05
0.00070219198
-3.9961524e-05
0.00073535599
-3.3164009e-05
0.00076140841
-2.6052426e-05
0.00078010474
-1.8696324e-05
0.00079127211
-1.1167374e-05
0.00079481079
-3.5386804e-06
0.00079069484
4.115948e-06
0.00077897204
1.1722805e-05
0.00075976285
1.9209188e-05
0.00073325976
2.6503086e-05
0.00069972455
3.3535213e-05
0.00065948563
4.0238921e-05
0.00061293471
4.6550923e-05
0.00056052282
5.2411887e-05
0.00050275586
5.7766963e-05
0.00044018961
6.2566243e-05
0.00037342443
6.6765187e-05
0.00030309946
7.0324969e-05
0.00022988667
7.321279e-05
0.00015448455
7.5402119e-05
7.7611655e-05
7.6872893e-05
7.7611655e-05
-7.841568e-05
0.00015602734
-0.00015608508
0.00015454229
-0.00023226873
0.00015158577
-0.00030624074
0.0001471848
-0.00037729545
0.00014137968
-0.00044475399
0.00013422373
-0.00050797058
0.00012578284
-0.00056633864
0.00011613503
-0.00061929656
0.00010536981
-0.00066633313
9.3587489e-05
-0.00070699253
8.0898316e-05
-0.00074087886
6.7421553e-05
-0.0007676602
5.3284418e-05
-0.00078707193
3.8620921e-05
-0.00079891975
2.3570628e-05
-0.00080308143
8.2776298e-06
-0.00079950871
-7.1114098e-06
-0.00078822777
-2.2448314e-05
-0.00076933935
-3.7584744e-05
-0.00074301801
-5.2373758e-05
-0.00070951076
-6.6671263e-05
-0.00066913486
-8.0337428e-05
-0.000622275
-9.3238088e-05
-0.00056937981
-0.00010524611
-0.00051095758
-0.00011624269
-0.00044757154
-0.00012611863
-0.00037983436
-0.00013477551
-0.00030840228
-0.00014212674
-0.00023396857
-0.0001480986
-0.00015725673
-0.00015263101
-7.9013224e-05
-0.00015567828
1.5328196e-14
-0.00015720966
7.9013224e-05
-0.00015720966
0.00015725673
-0.00015567828
0.00023396857
-0.00015263101
0.00030840228
-0.0001480986
0.00037983436
-0.00014212674
0.00044757154
-0.00013477551
0.00051095758
-0.00012611863
0.00056937981
-0.00011624269
0.000622275
-0.00010524611
0.00066913486
-9.3238088e-05
0.00070951076
-8.0337428e-05
0.00074301801
-6.6671263e-05
0.00076933935
-5.2373758e-05
0.00078822777
-3.7584744e-05
0.00079950871
-2.2448314e-05
0.00080308143
-7.1114097e-06
0.00079891975
8.2776298e-06
0.00078707193
2.3570628e-05
0.0007676602
3.8620921e-05
0.00074087886
5.3284418e-05
0.00070699253
6.7421553e-05
0.00066633313
8.0898316e-05
0.00061929656
9.3587489e-05
0.00056633864
0.00010536981
0.00050797058
0.00011613503
0.00044475399
0.00012578284
0.00037729545
0.00013422373
0.00030624074
0.00014137968
0.00023226873
0.0001471848
0.00015608508
0.00015158577
7.841568e-05
0.00015454229
0.00015602734
-7.9660957e-05
0.00023568829
-0.00015856393
0.00023344527
-0.00023595785
0.00022897969
-0.0003111054
0.00022233234
-0.0003832898
0.00021356408
-0.00045182142
0.00020275534
-0.00051604421
0.00019000563
-0.00057534191
0.00017543273
-0.00062914389
0.00015917179
-0.0006769307
0.0001413743
-0.00071823915
0.00012220676
-0.00075266693
0.00010184933
-0.00077987671
8.0494192e-05
-0.0007995996
5.8343812e-05
-0.00081163807
3.5609106e-05
-0.00081586797
1.2507528e-05
-0.00081224017
-1.0739215e-05
-0.00080078128
-3.3907206e-05
-0.00078159363
-5.6772389e-05
-0.00075485457
-7.9112815e-05
-0.00072081501
-0.00010071082
-0.00067979723
-0.00012135521
-0.00063219202
-0.0001408433
-0.00057845507
-0.00015898305
-0.00051910275
-0.00017559501
-0.00045470718
-0.0001905142
-0.00038589078
-0.0002035919
-0.00031332023
-0.00021469729
-0.00023769988
-0.00022371895
-0.00015976481
-0.00023056608
-8.0273453e-05
-0.00023516964
1.580786e-14
-0.00023748311
8.0273453e-05
-0.00023748311
0.00015976481
-0.00023516964
0.00023769988
-0.00023056608
0.00031332023
-0.00022371895
0.00038589078
-0.00021469729
0.00045470718
-0.0002035919
0.00051910275
-0.0001905142
0.00057845507
-0.00017559501
0.00063219202
-0.00015898305
0.00067979723
-0.0001408433
0.00072081501
-0.00012135521
0.00075485457
-0.00010071082
0.00078159363
-7.9112815e-05
0.00080078128
-5.6772389e-05
0.00081224017
-3.3907206e-05
0.00081586797
-1.0739215e-05
0.00081163807
1.2507528e-05
0.0007995996
3.5609106e-05
0.00077987671
5.8343812e-05
0.00075266693
8.0494192e-05
0.00071823915
0.00010184933
0.0006769307
0.00012220676
0.00062914389
0.0001413743
0.00057534191
0.00015917179
0.00051604421
0.00017543273
0.00045182142
0.00019000563
0.0003832898
0.00020275534
0.0003111054
0.00021356408
0.00023595785
0.00022233234
0.00015856393
0.00022897969
7.9660957e-05
0.00023344527
0.00023568829
-8.1368478e-05
0.00031705677
-0.00016196291
0.0003140397
-0.00024101627
0.00030803305
-0.00031777558
0.00029909166
-0.00039150877
0.00028729726
-0.00046151144
0.00027275801
-0.00052711344
0.00025560764
-0.00058768521
0.00023600449
-0.00064264374
0.00021413032
-0.00069145827
0.00019018883
-0.00073365552
0.00016440401
-0.00076882438
0.0001370182
-0.00079662014
0.00010828995
-0.00081676806
7.849173e-05
-0.00082906628
4.7907327e-05
-0.00083338801
1.6829258e-05
-0.00082968309
-1.4444139e-05
-0.00081797874
-4.561155e-05
-0.00079837958
-7.6371556e-05
-0.0007710668
-0.00010642559
-0.00073629674
-0.00013548088
-0.00069439863
-0.00016325332
-0.00064577161
-0.00018947032
-0.00059088112
-0.00021387354
-0.00053025455
-0.00023622159
-0.00046447624
-0.00025629251
-0.00039418193
-0.00027388621
-0.00032005257
-0.00028882666
-0.00024280763
-0.00030096389
-0.00016319801
-0.0003101757
-8.1998504e-05
-0.00031636915
1.5908255e-14
-0.00031948162
8.1998504e-05
-0.00031948162
0.00016319801
-0.00031636915
0.00024280763
-0.0003101757
0.00032005257
-0.00030096389
0.00039418193
-0.00028882666
0.00046447624
-0.00027388621
0.00053025455
-0.00025629251
0.00059088112
-0.00023622159
0.00064577161
-0.00021387354
0.00069439863
-0.00018947032
0.00073629674
-0.00016325332
0.0007710668
-0.00013548088
0.00079837958
-0.00010642559
0.00081797874
-7.6371556e-05
0.00082968309
-4.561155e-05
0.00083338801
-1.4444139e-05
0.00082906628
1.6829258e-05
0.00081676806
4.7907327e-05
0.00079662014
7.849173e-05
0.00076882438
0.00010828995
0.00073365552
0.0001370182
0.00069145827
0.00016440401
0.00064264374
0.00019018883
0.00058768521
0.00021413032
0.00052711344
0.00023600449
0.00046151144
0.00025560764
0.00039150877
0.00027275801
0.00031777558
0.00028729726
0.00024101627
0.00029909166
0.00016196291
0.00030803305
8.1368478e-05
0.0003140397
0.00031705677
-8.3574505e-05
0.00040063128
-0.0001663542
0.00039681939
-0.00024755147
0.00038923033
-0.00032639307
0.00037793325
-0.00040212715
0.00036303134
-0.00047403023
0.0003446611
-0.00054141394
0.00032299134
-0.00060363148
0.00029822202
-0.00066008383
0.00027058268
-0.00071022562
0.00024033062
-0.00075357047
0.00020774886
-0.00078969592
0.00017314364
-0.00081824772
0.00013684175
-0.00083894355
9.9187569e-05
-0.00085157606
6.053983e-05
-0.00085601505
2.1268249e-05
-0.00085220911
-1.825008e-05
-0.00084018634
-5.7634316e-05
-0.00082005434
-9.6503555e-05
-0.00079199939
-0.00013448055
-0.00075628488
-0.00017119538
-0.00071324906
-0.00020628915
-0.00066330191
-0.00023941747
-0.00060692146
-0.00027025398
-0.00054464936
-0.00029849369
-0.00047708571
-0.00032385615
-0.00040488343
-0.0003460885
-0.00032874185
-0.00036496824
-0.00024939996
-0.00038030578
-0.00016762902
-0.00039194664
-8.4224889e-05
-0.00039977327
1.5708002e-14
-0.00040370651
8.422489e-05
-0.00040370651
0.00016762902
-0.00039977327
0.00024939996
-0.00039194664
0.00032874185
-0.00038030578
0.00040488343
-0.00036496824
0.00047708571
-0.0003460885
0.00054464936
-0.00032385615
0.00060692146
-0.00029849369
0.00066330191
-0.00027025398
0.00071324906
-0.00023941747
0.00075628488
-0.00020628915
0.00079199939
-0.00017119538
0.00082005434
-0.00013448055
0.00084018634
-9.6503555e-05
0.00085220911
-5.7634316e-05
0.00085601505
-1.825008e-05
0.00085157606
2.1268249e-05
0.00083894355
6.053983e-05
0.00081824772
9.9187569e-05
0.00078969592
0.00013684175
0.00075357047
0.00017314364
0.00071022562
0.00020774886
0.00066008383
0.00024033062
0.00060363148
0.00027058268
0.00054141394
0.00029822202
0.00047403023
0.00032299134
0.00040212715
0.0003446611
0.00032639307
0.00036303134
0.00024755147
0.00037793325
0.0001663542
0.00038923033
8.3574505e-05
0.00039681939
0.00040063128
-8.6332052e-05
0.00048696333
-0.00017184336
0.0004823307
-0.00025572056
0.00047310754
-0.0003371651
0.00045937778
-0.00041540042
0.00044126666
-0.00048967916
0.00041893984
-0.00055929011
0.0003926023
-0.00062356493
0.00036249684
-0.00068188456
0.0003289023
-0.00073368527
0.00029213134
-0.00077846431
0.0002525279
-0.00081578495
0.00021046428
-0.00084528103
0.00016633783
-0.00086666079
0.00012056732
-0.00087970996
7.3589007e-05
-0.00088429419
2.5852477e-05
-0.00088036055
-2.2183721e-05
-0.00086793832
-7.0056542e-05
-0.00084713894
-0.00011730294
-0.00081815509
-0.00016346439
-0.00078125911
-0.00020809137
-0.00073680053
-0.00025074773
-0.00068520295
-0.00029101504
-0.00062696019
-0.00032849675
-0.00056263166
-0.00036282221
-0.0004928372
-0.00039365061
-0.00041825112
-0.00042067457
-0.00033959576
-0.00044362361
-0.00025763438
-0.00046226716
-0.00017316368
-0.00047641734
-8.7005797e-05
-0.00048593116
1.5302725e-14
-0.0004907123
8.7005797e-05
-0.0004907123
0.00017316368
-0.00048593116
0.00025763438
-0.00047641734
0.00033959576
-0.00046226716
0.00041825112
-0.00044362361
0.0004928372
-0.00042067457
0.00056263166
-0.00039365061
0.00062696019
-0.00036282221
0.00068520295
-0.00032849675
0.00073680053
-0.00029101504
0.00078125911
-0.00025074773
0.00081815509
-0.00020809137
0.00084713894
-0.00016346439
0.00086793832
-0.00011730294
0.00088036055
-7.0056542e-05
0.00088429419
-2.2183721e-05
0.00087970996
2.5852477e-05
0.00086666079
7.3589007e-05
0.00084528103
0.00012056732
0.00081578495
0.00016633783
0.00077846431
0.00021046428
0.00073368527
0.0002525279
0.00068188456
0.00029213134
0.00062356493
0.0003289023
0.00055929011
0.00036249684
0.00048967916
0.0003926023
0.00041540042
0.00041893984
0.0003371651
0.00044126666
0.00025572056
0.00045937778
0.00017184336
0.00047310754
8.6332052e-05
0.0004823307
0.00048696333
-8.9713954e-05
0.00057667728
-0.00017857538
0.00057119213
-0.00026573941
0.00056027156
-0.00035037642
0.00054401479
-0.00043167956
0.00052256981
-0.0005088722
0.00049613247
-0.00058121508
0.00046494518
-0.00064801338
0.00042929514
-0.00070862339
0.00038951231
-0.00076245883
0.00034596678
-0.00080899676
0.00029906584
-0.00084778294
0.00024925046
-0.00087843652
0.00019699141
-0.00090065413
0.00014278493
-0.00091421311
8.7147987e-05
-0.00091897399
3.0613361e-05
-0.00091488209
-2.6275621e-05
-0.00090196825
-8.2970388e-05
-0.00088034869
-0.00013892249
-0.00085022411
-0.00019358897
-0.00081187788
-0.00024643761
-0.00076567348
-0.00029695213
-0.00071205127
-0.00034463725
-0.00065152442
-0.0003890236
-0.00058467421
-0.00042967243
-0.00051214459
-0.00046618023
-0.00043463612
-0.00049818304
-0.00035289926
-0.00052536047
-0.00026772704
-0.00054743938
-0.00017994726
-0.00056419712
-9.0414198e-05
-0.00057546422
1.4794382e-14
-0.0005811265
9.0414198e-05
-0.0005811265
0.00017994726
-0.00057546422
0.00026772704
-0.00056419712
0.00035289926
-0.00054743938
0.00043463612
-0.00052536047
0.00051214459
-0.00049818304
0.00058467421
-0.00046618023
0.00065152442
-0.00042967243
0.00071205127
-0.0003890236
0.00076567348
-0.00034463725
0.00081187788
-0.00029695213
0.00085022411
-0.00024643761
0.00088034869
-0.00019358897
0.00090196825
-0.00013892249
0.00091488209
-8.2970388e-05
0.00091897399
-2.6275621e-05
0.00091421311
3.0613361e-05
0.00090065413
8.7147987e-05
0.00087843652
0.00014278493
0.00084778294
0.00019699141
0.00080899676
0.00024925046
0.00076245883
0.00029906584
0.00070862339
0.00034596678
0.00064801338
0.00038951231
0.00058121508
0.00042929514
0.0005088722
0.00046494518
0.00043167956
0.00049613247
0.00035037642
0.00052256981
0.00026573941
0.00054401479
0.00017857538
0.00056027156
8.9713954e-05
0.00057119213
0.00057667728
-9.3817655e-05
0.00067049494
-0.00018674429
0.00066411876
-0.0002778968
0.00065142408
-0.00036640795
0.00063252594
-0.00045143416
0.00060759601
-0.0005321632
0.00057686152
-0.0006078218
0.00054060378
-0.00067768293
0.00049915628
-0.00074107288
0.00045290225
-0.0007973779
0.0004022718
-0.00084605047
0.00034773841
-0.00088661495
0.00028981495
-0.00091867265
0.00022904911
-0.00094190605
0.00016601833
-0.00095608233
0.00010132426
-0.00096105587
3.5586903e-05
-0.00095676995
-3.0561545e-05
-0.00094325741
-9.6482926e-05
-0.00092064049
-0.00016153941
-0.00088912971
-0.00022509975
-0.00084902197
-0.00028654535
-0.00080069781
-0.00034527628
-0.00074461799
-0.00040071708
-0.00068131922
-0.00045232236
-0.00061140929
-0.00049958235
-0.00053556143
-0.00054202809
-0.000454508
-0.00057923647
-0.0003690335
-0.00061083496
-0.00027996702
-0.00063650586
-0.00018817401
-0.00065599013
-9.4547687e-05
-0.00066909054
1.4298514e-14
-0.00067567419
9.4547687e-05
-0.00067567419
0.00018817401
-0.00066909054
0.00027996702
-0.00065599013
0.0003690335
-0.00063650586
0.000454508
-0.00061083496
0.00053556143
-0.00057923647
0.00061140929
-0.00054202809
0.00068131922
-0.00049958235
0.00074461799
-0.00045232236
0.00080069781
-0.00040071708
0.00084902197
-0.00034527628
0.00088912971
-0.00028654535
0.00092064049
-0.00022509975
0.00094325741
-0.00016153941
0.00095676995
-9.6482926e-05
0.00096105587
-3.0561545e-05
0.00095608233
3.5586903e-05
0.00094190605
0.00010132426
0.00091867265
0.00016601833
0.00088661495
0.00022904911
0.00084605047
0.00028981495
0.0007973779
0.00034773841
0.00074107288
0.0004022718
0.00067768293
0.00045290225
0.0006078218
0.00049915628
0.0005321632
0.00054060378
0.00045143416
0.00057686152
0.00036640795
0.00060759601
0.0002778968
0.00063252594
0.00018674429
0.00065142408
9.3817655e-05
0.00066411876
0.00067049494
-9.8771122e-05
0.00076926606
-0.00019660483
0.00076195246
-0.00029257197
0.00074739123
-0.00038575995
0.00072571391
-0.00047528083
0.00069711689
-0.00056027948
0.00066186017
-0.00063994149
0.00062026579
-0.00071350089
0.00057271568
-0.00078024761
0.00051964898
-0.00083953463
0.00046155882
-0.0008907846
0.00039898837
-0.00093349593
0.00033252628
-0.00096724825
0.00026280143
-0.00099170695
0.00019047703
-0.0010066269
0.0001162442
-0.0010118551
4.081514e-05
-0.0010073326
-3.5084092e-05
-0.0009930947
-0.0001107208
-0.00096927115
-0.00018536296
-0.00093608453
-0.00025828637
-0.00089384825
-0.00032878164
-0.00084296358
-0.00039616095
-0.00078391599
-0.00045976467
-0.00071727068
-0.00051896767
-0.00064366745
-0.00057318558
-0.00056381485
-0.0006218807
-0.00047848355
-0.00066456778
-0.00038849911
-0.0007008194
-0.00029473401
-0.00073027096
-0.00019809908
-0.00075262505
-9.9534458e-05
-0.00076765517
1.3884134e-14
-0.00077520865
9.9534458e-05
-0.00077520865
0.00019809908
-0.00076765517
0.00029473401
-0.00075262505
0.00038849911
-0.00073027096
0.00047848355
-0.0007008194
0.00056381485
-0.00066456777
0.00064366745
-0.0006218807
0.00071727068
-0.00057318558
0.00078391599
-0.00051896767
0.00084296358
-0.00045976467
0.00089384825
-0.00039616095
0.00093608453
-0.00032878164
0.00096927115
-0.00025828637
0.0009930947
-0.00018536296
0.0010073326
-0.0001107208
0.0010118551
-3.5084092e-05
0.0010066269
4.081514e-05
0.00099170695
0.0001162442
0.00096724825
0.00019047703
0.00093349593
0.00026280143
0.0008907846
0.00033252628
0.00083953463
0.00039898837
0.00078024761
0.00046155882
0.00071350089
0.00051964898
0.00063994149
0.00057271568
0.00056027948
0.00062026579
0.00047528083
0.00066186017
0.00038575995
0.00069711689
0.00029257197
0.00072571391
0.00019660483
0.00074739123
9.8771122e-05
0.00076195246
0.00076926606
-0.00010473896
0.00087400502
-0.00020848472
0.00086569822
-0.00031025276
0.00084915927
-0.00040907588
0.00082453703
-0.00050401279
0.0007920538
-0.00059415664
0.00075200403
-0.00067864342
0.00070475257
-0.00075666012
0.00065073238
-0.00082745276
0.00059044162
-0.00089033402
0.00052444008
-0.00094469042
0.00045334476
-0.00098998893
0.00037782479
-0.0010257829
0.0002985954
-0.001051717
0.00021641114
-0.0010675313
0.00013205851
-0.0010730641
4.6347908e-05
-0.0010682536
-3.9894614e-05
-0.0010531385
-0.00012583582
-0.0010278579
-0.00021064362
-0.00099264899
-0.00029349527
-0.00094784537
-0.00037358525
-0.00089387348
-0.00045013284
-0.00083124868
-0.00052238947
-0.00076057056
-0.00058964579
-0.00068251752
-0.00065123862
-0.00059784059
-0.00070655762
-0.00050735658
-0.00075505179
-0.00041194039
-0.00079623559
-0.0003125167
-0.00082969465
-0.00021005091
-0.00085509085
-0.0001055395
-0.00087216657
1.3528009e-14
-0.00088074815
0.0001055395
-0.00088074815
0.00021005091
-0.00087216657
0.0003125167
-0.00085509085
0.00041194039
-0.00082969465
0.00050735658
-0.00079623559
0.00059784059
-0.00075505179
0.00068251752
-0.00070655762
0.00076057056
-0.00065123862
0.00083124868
-0.00058964579
0.00089387348
-0.00052238947
0.00094784537
-0.00045013284
0.00099264899
-0.00037358525
0.0010278579
-0.00029349527
0.0010531385
-0.00021064362
0.0010682536
-0.00012583582
0.0010730641
-3.9894614e-05
0.0010675313
4.6347908e-05
0.001051717
0.00013205851
0.0010257829
0.00021641114
0.00098998893
0.0002985954
0.00094469042
0.00037782479
0.00089033402
0.00045334476
0.00082745276
0.00052444008
0.00075666012
0.00059044162
0.00067864342
0.00065073238
0.00059415664
0.00070475257
0.00050401279
0.00075200403
0.00040907588
0.0007920538
0.00031025276
0.00082453703
0.00020848472
0.00084915927
0.00010473896
0.00086569822
0.00087400502
-0.00011192749
0.00098593251
-0.00022279472
0.00097656546
-0.00033155059
0.00095791514
-0.00043716225
0.00093014869
-0.0005386242
0.00089351575
-0.0006349673
0.00084834713
-0.00072526772
0.00079505299
-0.00080865571
0.00073412037
-0.00088432421
0.00066611011
-0.0009515371
0.00059165297
-0.0010096371
0.00051144481
-0.0010580532
0.00042624085
-0.0010963068
0.00033684894
-0.0011240174
0.0002441218
-0.0011409073
0.00014894843
-0.0011468043
5.2244884e-05
-0.0011416435
-4.5055388e-05
-0.0011254681
-0.00014201125
-0.0010984282
-0.00023768349
-0.0010607795
-0.00033114405
-0.0010128798
-0.00042148488
-0.00095518631
-0.00050782636
-0.00088825045
-0.00058932533
-0.00081271332
-0.00066518292
-0.00072929982
-0.00073465212
-0.00063881216
-0.00079704529
-0.0005421226
-0.00085174135
-0.0004401654
-0.00089819279
-0.00033392799
-0.00093593206
-0.00022444135
-0.00096457749
-0.00011276975
-0.00098383817
1.3101565e-14
-0.0009935179
0.00011276975
-0.0009935179
0.00022444135
-0.00098383817
0.00033392799
-0.00096457749
0.0004401654
-0.00093593206
0.0005421226
-0.00089819279
0.00063881216
-0.00085174135
0.00072929982
-0.00079704529
0.00081271332
-0.00073465212
0.00088825045
-0.00066518292
0.00095518631
-0.00058932533
0.0010128798
-0.00050782636
0.0010607795
-0.00042148488
0.0010984282
-0.00033114405
0.0011254681
-0.00023768349
0.0011416435
-0.00014201125
0.0011468043
-4.5055388e-05
0.0011409073
5.2244884e-05
0.0011240174
0.00014894843
0.0010963068
0.0002441218
0.0010580532
0.00033684894
0.0010096371
0.00042624085
0.0009515371
0.00051144481
0.00088432421
0.00059165297
0.00080865571
0.00066611011
0.00072526772
0.00073412037
0.0006349673
0.00079505299
0.0005386242
0.00084834713
0.00043716225
0.00089351575
0.00033155059
0.00093014869
0.00022279472
0.00095791514
0.00011192749
0.00097656546
0.00098593251
-0.000120587
0.0011065195
-0.00024003313
0.0010960116
-0.00035720722
0.0010750892
-0.00047099747
0.0010439389
-0.0005803211
0.0010028394
-0.00068413397
0.00095216
-0.00078144014
0.00089235916
-0.00087130138
0.00082398161
-0.00095284646
0.00074765519
-0.0010252803
0.00066408678
-0.0010878925
0.00057405703
-0.0011400658
0.00047841412
-0.0011812829
0.00037806609
-0.0012111332
0.00027397208
-0.0012293171
0.00016713238
-0.00123565
5.8577735e-05
-0.0012300635
-5.0641882e-05
-0.0012126062
-0.00015946852
-0.0011834425
-0.00026684724
-0.00114285
-0.00037173653
-0.0010912167
-0.0004731182
-0.0010290365
-0.00057000652
-0.00095690479
-0.00066145704
-0.00087551271
-0.000746575
-0.00078564116
-0.00082452367
-0.00068815392
-0.00089453252
-0.00058398999
-0.00095590528
-0.00047415501
-0.0010080278
-0.00035971186
-0.0010503752
-0.00024177039
-0.001082519
-0.0001214764
-0.0011041322
1.2442283e-14
-0.0011149943
0.0001214764
-0.0011149943
0.00024177039
-0.0011041322
0.00035971186
-0.001082519
0.00047415501
-0.0010503752
0.00058398999
-0.0010080278
0.00068815392
-0.00095590528
0.00078564116
-0.00089453252
0.00087551271
-0.00082452367
0.00095690479
-0.000746575
0.0010290365
-0.00066145704
0.0010912167
-0.00057000652
0.00114285
-0.0004731182
0.0011834425
-0.00037173653
0.0012126062
-0.00026684724
0.0012300635
-0.00015946852
0.00123565
-5.0641882e-05
0.0012293171
5.8577735e-05
0.0012111332
0.00016713238
0.0011812829
0.00027397208
0.0011400658
0.00037806609
0.0010878925
0.00047841412
0.0010252803
0.00057405703
0.00095284646
0.00066408678
0.00087130138
0.00074765519
0.00078144014
0.00082398161
0.00068413397
0.00089235916
0.0005803211
0.00095216
0.00047099747
0.0010028394
0.00035720722
0.0010439389
0.00024003313
0.0010750892
0.000120587
0.0010960116
0.0011065195
-0.000131009
0.0012375285
-0.0002607803
0.0012257829
-0.00038808652
0.0012023955
-0.00051172099
0.0011675734
-0.00063050801
0.0011216264
-0.00074331322
0.0010649652
-0.0008490539
0.00099809984
-0.00094670922
0.00092163693
-0.0010353305
0.00083627651
-0.0011140514
0.00074280762
-0.0011820972
0.00064210289
-0.0012387947
0.00053511159
-0.0012835798
0.00042285117
-0.0013160049
0.00030639722
-0.0013357446
0.00018687205
-0.001342599
6.5432147e-05
-0.001336496
-5.6744879e-05
-0.0013174911
-0.0001784734
-0.001285766
-0.00029857233
-0.0012416256
-0.00041587695
-0.0011854941
-0.00052924973
-0.0011179103
-0.00063759033
-0.0010395223
-0.000739845
-0.00095108173
-0.0008350156
-0.0008534368
-0.0009221686
-0.00074752539
-0.0010004439
-0.00063436668
-0.001069064
-0.0005150521
-0.0011273423
-0.00039073522
-0.0011746921
-0.00026262065
-0.0012106335
-0.00013195215
-0.0012348007
1.1403962e-14
-0.0012469464
0.00013195215
-0.0012469464
0.00026262065
-0.0012348007
0.00039073522
-0.0012106335
0.0005150521
-0.0011746921
0.00063436668
-0.0011273423
0.00074752539
-0.001069064
0.0008534368
-0.0010004439
0.00095108173
-0.0009221686
0.0010395223
-0.0008350156
0.0011179103
-0.000739845
0.0011854941
-0.00063759033
0.0012416256
-0.00052924973
0.001285766
-0.00041587695
0.0013174911
-0.00029857233
0.001336496
-0.0001784734
0.001342599
-5.6744879e-05
0.0013357446
6.5432147e-05
0.0013160049
0.00018687205
0.0012835798
0.00030639722
0.0012387947
0.00042285117
0.0011820972
0.00053511159
0.0011140514
0.00064210289
0.0010353305
0.00074280762
0.00094670922
0.00083627651
0.0008490539
0.00092163693
0.00074331322
0.00099809984
0.00063050801
0.0010649652
0.00051172099
0.0011216264
0.00038808652
0.0011675734
0.0002607803
0.0012023955
0.000131009
0.0012257829
0.0012375285
-0.00014351568
0.0013810442
-0.00028567761
0.0013679448
-0.00042514317
0.001341861
-0.00056059196
0.0013030222
-0.00069073692
0.0012517714
-0.00081433549
0.0011885638
-0.00093020076
0.0011139651
-0.0010372127
0.0010286489
-0.0011343296
0.00093339338
-0.001220599
0.00082907699
-0.0012951689
0.00071667277
-0.0013572982
0.00059724091
-0.0014063663
0.00047191931
-0.0014418813
0.00034191223
-0.0014634863
0.00020847698
-0.0014709634
7.2909293e-05
-0.0014642362
-6.3472066e-05
-0.001443369
-0.0001993406
-0.0014085648
-0.00033337657
-0.0013601614
-0.00046428028
-0.0012986272
-0.00059078398
-0.0012245549
-0.00071166258
-0.0011386564
-0.00082574356
-0.0010417554
-0.00093191653
-0.00093478136
-0.0010291427
-0.00081876072
-0.0011164646
-0.00069480884
-0.0011930159
-0.00056411995
-0.0012580312
-0.00042795631
-0.0013108557
-0.00028763612
-0.0013509537
-0.00014452057
-0.0013779162
9.9096826e-15
-0.001391467
0.00014452057
-0.001391467
0.00028763612
-0.0013779162
0.00042795631
-0.0013509537
0.00056411995
-0.0013108557
0.00069480884
-0.0012580312
0.00081876072
-0.0011930159
0.00093478136
-0.0011164646
0.0010417554
-0.0010291427
0.0011386564
-0.00093191653
0.0012245549
-0.00082574356
0.0012986272
-0.00071166258
0.0013601614
-0.00059078398
0.0014085648
-0.00046428028
0.001443369
-0.00033337657
0.0014642362
-0.0001993406
0.0014709634
-6.3472066e-05
0.0014634863
7.2909293e-05
0.0014418813
0.00020847698
0.0014063663
0.00034191223
0.0013572982
0.00047191931
0.0012951689
0.00059724091
0.001220599
0.00071667277
0.0011343296
0.00082907699
0.0010372127
0.00093339338
0.00093020076
0.0010286489
0.00081433549
0.0011139651
0.00069073692
0.0011885638
0.00056059196
0.0012517714
0.00042514317
0.0013030222
0.00028567761
0.001341861
0.00014351568
0.0013679448
0.0013810442
-0.00015843831
0.0015394825
-0.00031538455
0.0015248911
-0.00046935871
0.0014958352
-0.00061890486
0.0014525683
-0.00076260319
0.0013954697
-0.00089908211
0.0013250427
-0.0010270305
0.0012419135
-0.0011452098
0.0011468283
-0.0012524671
0.0010406506
-0.001347747
0.00092435687
-0.0014301047
0.00079903045
-0.0014987178
0.00066585408
-0.0015528979
0.00052609938
-0.0015920996
0.0003811139
-0.0016159283
0.00023230574
-0.0016241452
8.1126158e-05
-0.0016166687
-7.0948547e-05
-0.0015935742
-0.00022243515
-0.0015550905
-0.00037186024
-0.0015015956
-0.00051777519
-0.0014336105
-0.00065876912
-0.0013517928
-0.00079348024
-0.0012569302
-0.00092060612
-0.0011499332
-0.0010389136
-0.0010318273
-0.0011472486
-0.00090374485
-0.001244547
-0.00076691583
-0.0013298449
-0.00062265697
-0.0014022901
-0.00047236007
-0.0014611527
-0.00031747876
-0.001505835
-0.00015951426
-0.0015358807
8.0474861e-15
-0.0015509813
0.00015951426
-0.0015509813
0.00031747876
-0.0015358807
0.00047236007
-0.001505835
0.00062265697
-0.0014611527
0.00076691583
-0.0014022901
0.00090374485
-0.0013298449
0.0010318273
-0.001244547
0.0011499332
-0.0011472486
0.0012569302
-0.0010389136
0.0013517928
-0.00092060612
0.0014336105
-0.00079348024
0.0015015956
-0.00065876912
0.0015550905
-0.00051777519
0.0015935742
-0.00037186024
0.0016166687
-0.00022243515
0.0016241452
-7.0948547e-05
0.0016159283
8.1126158e-05
0.0015920996
0.00023230574
0.0015528979
0.0003811139
0.0014987178
0.00052609938
0.0014301047
0.00066585408
0.001347747
0.00079903045
0.0012524671
0.00092435687
0.0011452098
0.0010406506
0.0010270305
0.0011468283
0.00089908211
0.0012419135
0.00076260319
0.0013250427
0.00061890486
0.0013954697
0.00046935871
0.0014525683
0.00031538455
0.0014958352
0.00015843831
0.0015248911
0.0015394825
-0.00017608136
0.0017155638
-0.00035050717
0.0016993169
-0.00052163504
0.001666963
-0.00068784887
0.0016187822
-0.00084757203
0.0015551928
-0.00099928052
0.0014767512
-0.0011415164
0.0013841493
-0.0012729012
0.0012782131
-0.0013921501
0.0011598995
-0.0014980859
0.0010302927
-0.0015896537
0.00089059826
-0.0016659347
0.00074213506
-0.0017261594
0.0005863241
-0.0017697192
0.00042467369
-0.001796175
0.00025876151
-0.0018052628
9.0213954e-05
-0.0017968957
-7.9315595e-05
-0.0017711626
-0.00024816826
-0.0017283237
-0.00041469918
-0.0016688045
-0.00057729435
-0.0015931889
-0.00073438471
-0.0015022114
-0.00088445779
-0.0013967493
-0.0010260682
-0.0012778152
-0.0011578476
-0.0011465486
-0.0012785153
-0.0010042067
-0.0013868889
-0.00085215481
-0.0014818968
-0.00069185433
-0.0015625906
-0.00052485014
-0.0016281568
-0.00035275593
-0.0016779292
-0.00017723835
-0.0017113983
5.9892806e-15
-0.0017282196
0.00017723835
-0.0017282196
0.00035275593
-0.0017113983
0.00052485014
-0.0016779292
0.00069185433
-0.0016281568
0.00085215481
-0.0015625906
0.0010042067
-0.0014818968
0.0011465486
-0.0013868889
0.0012778152
-0.0012785153
0.0013967493
-0.0011578476
0.0015022114
-0.0010260682
0.0015931889
-0.00088445779
0.0016688045
-0.00073438471
0.0017283237
-0.00057729435
0.0017711626
-0.00041469918
0.0017968957
-0.00024816826
0.0018052628
-7.9315595e-05
0.001796175
9.0213954e-05
0.0017697192
0.00025876151
0.0017261594
0.00042467369
0.0016659347
0.0005863241
0.0015896537
0.00074213506
0.0014980859
0.00089059826
0.0013921501
0.0010302927
0.0012729012
0.0011598995
0.0011415164
0.0012782131
0.00099928052
0.0013841493
0.00084757203
0.0014767512
0.00068784887
0.0015551928
0.00052163504
0.0016187822
0.00035050717
0.001666963
0.00017608136
0.0016993169
0.0017155638
-0.00019666907
0.0019122329
-0.00039149169
0.0018941395
-0.00058263588
0.0018581072
-0.00076829867
0.001804445
-0.00094672046
0.0017336146
-0.0011161996
0.0016462303
-0.0012751069