/*--------------------------------*- C++ -*----------------------------------*\
| =========                 |                                                 |
| \\      /  F ield         | OpenFOAM: The Open Source CFD Toolbox           |
|  \\    /   O peration     | Version:  2106                                  |
|   \\  /    A nd           | Website:  www.openfoam.com                      |
|    \\/     M anipulation  |                                                 |
\*---------------------------------------------------------------------------*/
FoamFile
{
    version     2.0;
    format      ascii;
    arch        "LSB;label=32;scalar=64";
    class       surfaceScalarField;
    location    "0.039";
    object      phi_0;
}
// * * * * * * * * * * * * * * * * * * * * * * * * * * * * * * * * * * * * * //

dimensions      [0 3 -1 0 0 0 0];

oriented        oriented;

internalField   nonuniform List<scalar> 
8064
(
-7.7632181e-05
7.7632181e-05
-0.0001545254
7.6893222e-05
-0.00022994746
7.5422056e-05
-0.0003031796
7.3232143e-05
-0.00037352315
7.0343552e-05
-0.00044030597
6.6782821e-05
-0.00050288874
6.2582761e-05
-0.00056067094
5.7782203e-05
-0.00061309664
5.2425705e-05
-0.00065965983
4.6563185e-05
-0.00069990934
4.0249509e-05
-0.00073345336
3.3544025e-05
-0.0007599634
2.6510037e-05
-0.00077917761
1.9214211e-05
-0.00079090346
1.172585e-05
-0.00079502045
4.1169863e-06
-0.00079148079
-3.5396601e-06
-0.00078031043
-1.1170363e-05
-0.00076160913
-1.8701294e-05
-0.0007355498
-2.6059331e-05
-0.00070237702
-3.3172784e-05
-0.00066240493
-3.9972083e-05
-0.00061601445
-4.639048e-05
-0.00056364973
-5.2364721e-05
-0.00050581402
-5.7835708e-05
-0.00044306491
-6.2749119e-05
-0.00037600891
-6.7055995e-05
-0.00030529564
-7.0713276e-05
-0.00023161135
-7.3684287e-05
-0.00015567219
-7.5939158e-05
-7.8217022e-05
-7.7455169e-05
1.4481457e-14
-7.8217022e-05
7.8217022e-05
-7.8217022e-05
0.00015567219
-7.7455169e-05
0.00023161135
-7.5939158e-05
0.00030529564
-7.3684287e-05
0.00037600891
-7.0713276e-05
0.00044306491
-6.7055995e-05
0.00050581402
-6.2749119e-05
0.00056364973
-5.7835708e-05
0.00061601445
-5.2364721e-05
0.00066240493
-4.639048e-05
0.00070237702
-3.9972083e-05
0.0007355498
-3.3172784e-05
0.00076160913
-2.6059331e-05
0.00078031043
-1.8701294e-05
0.00079148079
-1.1170363e-05
0.00079502045
-3.5396601e-06
0.00079090346
4.1169863e-06
0.00077917761
1.172585e-05
0.0007599634
1.9214211e-05
0.00073345336
2.6510037e-05
0.00069990934
3.3544025e-05
0.00065965983
4.0249509e-05
0.00061309664
4.6563185e-05
0.00056067094
5.2425705e-05
0.00050288874
5.7782203e-05
0.00044030597
6.2582761e-05
0.00037352315
6.6782821e-05
0.0003031796
7.0343552e-05
0.00022994746
7.3232143e-05
0.0001545254
7.5422056e-05
7.7632181e-05
7.6893222e-05
7.7632181e-05
-7.8436421e-05
0.0001560686
-0.00015612636
0.00015458316
-0.00023233016
0.00015162585
-0.00030632172
0.0001472237
-0.00037739521
0.00014141704
-0.00044487157
0.00013425918
-0.00050810485
0.00012581604
-0.00056648831
0.00011616567
-0.0006194602
0.00010539759
-0.00066650915
9.3612141e-05
-0.00070717925
8.0919603e-05
-0.00074107449
6.7439269e-05
-0.00076786285
5.3298393e-05
-0.00078727965
3.8631019e-05
-0.00079913056
2.3576751e-05
-0.00080329329
8.2797174e-06
-0.00079971957
-7.1133791e-06
-0.00078843561
-2.2454323e-05
-0.00076954217
-3.7594737e-05
-0.00074321386
-5.238764e-05
-0.00070969774
-6.6688902e-05
-0.00066931116
-8.0358657e-05
-0.00062243894
-9.3262704e-05
-0.00056952979
-0.00010527387
-0.00051109216
-0.00011627334
-0.0004476894
-0.00012615187
-0.00037993438
-0.00013481102
-0.00030848348
-0.00014216418
-0.00023403017
-0.0001481376
-0.00015729813
-0.0001526712
-7.9034026e-05
-0.00015571927
1.5329025e-14
-0.00015725105
7.9034026e-05
-0.00015725105
0.00015729813
-0.00015571927
0.00023403017
-0.0001526712
0.00030848348
-0.0001481376
0.00037993438
-0.00014216418
0.0004476894
-0.00013481102
0.00051109216
-0.00012615187
0.00056952979
-0.00011627334
0.00062243894
-0.00010527387
0.00066931116
-9.3262704e-05
0.00070969774
-8.0358657e-05
0.00074321386
-6.6688902e-05
0.00076954217
-5.238764e-05
0.00078843561
-3.7594737e-05
0.00079971957
-2.2454323e-05
0.00080329329
-7.113379e-06
0.00079913056
8.2797175e-06
0.00078727965
2.3576751e-05
0.00076786285
3.8631019e-05
0.00074107449
5.3298393e-05
0.00070717925
6.7439269e-05
0.00066650915
8.0919603e-05
0.0006194602
9.3612141e-05
0.00056648831
0.00010539759
0.00050810485
0.00011616567
0.00044487157
0.00012581604
0.00037739521
0.00013425918
0.00030632172
0.00014141704
0.00023233016
0.0001472237
0.00015612636
0.00015162585
7.8436421e-05
0.00015458316
0.0001560686
-7.9682048e-05
0.00023575065
-0.00015860591
0.00023350703
-0.00023602032
0.00022904026
-0.00031118775
0.00022239114
-0.00038339124
0.00021362053
-0.00045194098
0.00020280892
-0.00051618075
0.00019005581
-0.00057549411
0.00017547903
-0.00062931028
0.00015921377
-0.00067710969
0.00014141155
-0.00071842902
0.00012223893
-0.00075286585
0.0001018761
-0.00078008277
8.0515309e-05
-0.00079981082
5.8359071e-05
-0.00081185243
3.5618358e-05
-0.00081608339
1.2510683e-05
-0.00081245458
-1.074219e-05
-0.00080099262
-3.3916286e-05
-0.00078179986
-5.6787488e-05
-0.00075505371
-7.9133791e-05
-0.00072100514
-0.00010073748
-0.00067997651
-0.00012138728
-0.00063235872
-0.0001408805
-0.00057860758
-0.00015902501
-0.00051923959
-0.00017564133
-0.00045482703
-0.00019056443
-0.00038599249
-0.00020364556
-0.00031340281
-0.00021475386
-0.00023776252
-0.00022377788
-0.00015980691
-0.00023062681
-8.0294607e-05
-0.00023523157
1.5808944e-14
-0.00023754565
8.0294607e-05
-0.00023754565
0.00015980691
-0.00023523157
0.00023776252
-0.00023062681
0.00031340281
-0.00022377788
0.00038599249
-0.00021475386
0.00045482703
-0.00020364556
0.00051923959
-0.00019056443
0.00057860758
-0.00017564133
0.00063235872
-0.00015902501
0.00067997651
-0.0001408805
0.00072100514
-0.00012138728
0.00075505371
-0.00010073748
0.00078179986
-7.9133791e-05
0.00080099262
-5.6787488e-05
0.00081245458
-3.3916286e-05
0.00081608339
-1.074219e-05
0.00081185243
1.2510683e-05
0.00079981082
3.5618358e-05
0.00078008277
5.8359071e-05
0.00075286585
8.0515309e-05
0.00071842902
0.0001018761
0.00067710969
0.00012223893
0.00062931028
0.00014141155
0.00057549411
0.00015921377
0.00051618075
0.00017547903
0.00045194098
0.00019005581
0.00038339124
0.00020280892
0.00031118775
0.00021362053
0.00023602032
0.00022239114
0.00015860591
0.00022904026
7.9682048e-05
0.00023350703
0.00023575065
-8.1390065e-05
0.00031714072
-0.00016200587
0.00031412284
-0.0002410802
0.00030811459
-0.00031785987
0.0002991708
-0.00039161259
0.00028737326
-0.0004616338
0.00027283013
-0.00052725318
0.00025567518
-0.00058784097
0.00023606682
-0.00064281403
0.00021418683
-0.00069164145
0.00019023898
-0.00073384983
0.00016444731
-0.00076902796
0.00013705423
-0.00079683103
0.00010831838
-0.00081698422
7.8512268e-05
-0.00082928565
4.791978e-05
-0.00083360847
1.6833504e-05
-0.00082990251
-1.4448144e-05
-0.00081819503
-4.5623772e-05
-0.00079859064
-7.639188e-05
-0.0007712706
-0.00010645383
-0.00073649132
-0.00013551676
-0.0006945821
-0.0001632965
-0.00064594221
-0.00018952039
-0.0005910372
-0.00021393002
-0.0005303946
-0.00023628393
-0.00046459891
-0.00025636012
-0.00039428603
-0.00027395844
-0.00032013708
-0.00028890281
-0.00024287174
-0.00030104322
-0.0001632411
-0.00031025745
-8.2020154e-05
-0.00031645252
1.5909309e-14
-0.00031956581
8.2020154e-05
-0.00031956581
0.0001632411
-0.00031645252
0.00024287174
-0.00031025745
0.00032013708
-0.00030104322
0.00039428603
-0.00028890281
0.00046459891
-0.00027395844
0.0005303946
-0.00025636012
0.0005910372
-0.00023628393
0.00064594221
-0.00021393002
0.0006945821
-0.00018952039
0.00073649132
-0.0001632965
0.0007712706
-0.00013551676
0.00079859064
-0.00010645383
0.00081819503
-7.639188e-05
0.00082990251
-4.5623771e-05
0.00083360847
-1.4448144e-05
0.00082928565
1.6833504e-05
0.00081698422
4.791978e-05
0.00079683103
7.8512268e-05
0.00076902796
0.00010831838
0.00073384983
0.00013705423
0.00069164145
0.00016444731
0.00064281403
0.00019023898
0.00058784097
0.00021418683
0.00052725318
0.00023606682
0.0004616338
0.00025567518
0.00039161259
0.00027283013
0.00031785987
0.00028737326
0.0002410802
0.0002991708
0.00016200587
0.00030811459
8.1390065e-05
0.00031412284
0.00031714072
-8.3596735e-05
0.00040073745
-0.00016639844
0.00039692455
-0.00024761731
0.00038933345
-0.00032647986
0.00037803335
-0.00040223406
0.00036312746
-0.00047415624
0.00034475231
-0.00054155783
0.00032307677
-0.00060379187
0.00029830085
-0.00066025918
0.00027065414
-0.00071041424
0.00024039404
-0.00075377055
0.00020780362
-0.00078990554
0.00017318921
-0.00081846486
0.0001368777
-0.00083916613
9.9213541e-05
-0.00085180193
6.0555578e-05
-0.00085624204
2.1273617e-05
-0.00085243504
-1.8255146e-05
-0.00084040904
-5.7649773e-05
-0.00082027166
-9.6529259e-05
-0.00079220923
-0.00013451625
-0.00075648523
-0.00017124076
-0.00071343797
-0.00020634376
-0.00066347757
-0.00023948079
-0.00060708218
-0.00027032541
-0.00054479357
-0.00029857254
-0.00047721203
-0.00032394166
-0.00040499061
-0.00034617985
-0.00032882887
-0.00036506455
-0.00024946597
-0.00038040612
-0.00016767339
-0.00039205004
-8.4247184e-05
-0.00039987873
1.5709013e-14
-0.00040381299
8.4247184e-05
-0.00040381299
0.00016767339
-0.00039987873
0.00024946597
-0.00039205004
0.00032882887
-0.00038040612
0.00040499061
-0.00036506455
0.00047721203
-0.00034617985
0.00054479357
-0.00032394166
0.00060708218
-0.00029857254
0.00066347757
-0.00027032541
0.00071343797
-0.00023948079
0.00075648523
-0.00020634376
0.00079220923
-0.00017124076
0.00082027166
-0.00013451625
0.00084040904
-9.6529259e-05
0.00085243504
-5.7649773e-05
0.00085624204
-1.8255146e-05
0.00085180193
2.1273617e-05
0.00083916613
6.0555578e-05
0.00081846486
9.9213541e-05
0.00078990554
0.0001368777
0.00075377055
0.00017318921
0.00071041424
0.00020780362
0.00066025918
0.00024039404
0.00060379187
0.00027065414
0.00054155783
0.00029830085
0.00047415624
0.00032307677
0.00040223406
0.00034475231
0.00032647986
0.00036312746
0.00024761731
0.00037803335
0.00016639844
0.00038933345
8.3596735e-05
0.00039692455
0.00040073745
-8.6355069e-05
0.00048709252
-0.00017188917
0.00048245864
-0.00025578873
0.00047323301
-0.00033725496
0.00045949958
-0.00041551111
0.00044138361
-0.00048980962
0.00041905082
-0.00055943909
0.00039270624
-0.00062373099
0.00036259275
-0.0006820661
0.00032898925
-0.00073388056
0.00029220849
-0.00077867145
0.00025259452
-0.00081600197
0.00021051972
-0.00084550583
0.00016638156
-0.00086689121
0.00012059892
-0.00087994379
7.3608163e-05
-0.00088452918
2.5859006e-05
-0.00088059444
-2.2189887e-05
-0.00086816887
-7.0075348e-05
-0.00084736392
-0.00011733421
-0.00081837233
-0.00016350784
-0.00078146652
-0.00020814657
-0.00073699611
-0.00025081417
-0.00068538482
-0.00029109208
-0.00062712658
-0.00032858365
-0.00056278097
-0.00036291815
-0.00049296798
-0.00039375466
-0.0004183621
-0.00042078573
-0.00033968586
-0.00044374079
-0.00025770273
-0.00046238925
-0.00017320962
-0.00047654315
-8.702888e-05
-0.00048605947
1.5303677e-14
-0.00049084187
8.702888e-05
-0.00049084187
0.00017320962
-0.00048605947
0.00025770273
-0.00047654315
0.00033968586
-0.00046238925
0.0004183621
-0.00044374079
0.00049296798
-0.00042078573
0.00056278097
-0.00039375466
0.00062712658
-0.00036291815
0.00068538482
-0.00032858365
0.00073699611
-0.00029109208
0.00078146652
-0.00025081417
0.00081837233
-0.00020814657
0.00084736392
-0.00016350784
0.00086816887
-0.00011733421
0.00088059444
-7.0075348e-05
0.00088452918
-2.2189887e-05
0.00087994379
2.5859006e-05
0.00086689121
7.3608163e-05
0.00084550583
0.00012059892
0.00081600197
0.00016638156
0.00077867145
0.00021051972
0.00073388056
0.00025259452
0.0006820661
0.00029220849
0.00062373099
0.00032898925
0.00055943909
0.00036259275
0.00048980962
0.00039270624
0.00041551111
0.00041905082
0.00033725496
0.00044138361
0.00025578873
0.00045949958
0.00017188917
0.00047323301
8.6355069e-05
0.00048245864
0.00048709252
-8.9737896e-05
0.00057683041
-0.00017862304
0.00057134379
-0.00026581032
0.00056042029
-0.00035046989
0.00054415916
-0.00043179471
0.00052270843
-0.0005090079
0.00049626401
-0.00058137003
0.00046506838
-0.0006481861
0.00042940881
-0.0007088122
0.00038961536
-0.00076266193
0.00034605822
-0.0008092122
0.00029914479
-0.00084800864
0.00024931616
-0.00087867031
0.00019704324
-0.00090089376
0.00014282237
-0.00091445628
8.7170686e-05
-0.00091921837
3.0621095e-05
-0.00091512533
-2.6282931e-05
-0.000902208
-8.2992678e-05
-0.00088058265
-0.00013895956
-0.00085045003
-0.00019364046
-0.00081209357
-0.00024650303
-0.00076587688
-0.00029703087
-0.0007122404
-0.00034472856
-0.00065169746
-0.00038912659
-0.00058482949
-0.00042978613
-0.0005122806
-0.00046630354
-0.00043475154
-0.00049831478
-0.00035299298
-0.00052549936
-0.00026779814
-0.00054758409
-0.00017999504
-0.00056434624
-9.0438206e-05
-0.00057561631
1.4795246e-14
-0.00058128008
9.0438206e-05
-0.00058128008
0.00017999504
-0.00057561631
0.00026779814
-0.00056434624
0.00035299298
-0.00054758409
0.00043475154
-0.00052549936
0.0005122806
-0.00049831478
0.00058482949
-0.00046630354
0.00065169746
-0.00042978613
0.0007122404
-0.00038912659
0.00076587688
-0.00034472856
0.00081209357
-0.00029703087
0.00085045003
-0.00024650303
0.00088058265
-0.00019364046
0.000902208
-0.00013895956
0.00091512533
-8.2992678e-05
0.00091921837
-2.6282931e-05
0.00091445628
3.0621095e-05
0.00090089376
8.7170686e-05
0.00087867031
0.00014282237
0.00084800864
0.00019704324
0.0008092122
0.00024931616
0.00076266193
0.00029914479
0.0007088122
0.00034605822
0.0006481861
0.00038961536
0.00058137003
0.00042940881
0.0005090079
0.00046506838
0.00043179471
0.00049626401
0.00035046989
0.00052270843
0.00026581032
0.00054415916
0.00017862304
0.00056042029
8.9737896e-05
0.00057134379
0.00057683041
-9.3842651e-05
0.00067067307
-0.00018679404
0.00066429517
-0.00027797083
0.00065159708
-0.00036650554
0.00063269387
-0.00045155436
0.00060775725
-0.00053230486
0.00057701452
-0.00060798356
0.00054074707
-0.00067786323
0.00049928848
-0.00074126998
0.0004530221
-0.0007975899
0.00040237814
-0.00084627534
0.00034783022
-0.00088685053
0.00028989135
-0.00091891666
0.00022910937
-0.00094215616
0.00016606187
-0.00095633613
0.00010135066
-0.00096131093
3.5595892e-05
-0.00095702381
-3.0570052e-05
-0.00094350763
-9.6508853e-05
-0.00092088467
-0.00016158252
-0.00088936549
-0.00022515963
-0.00084924709
-0.00028662144
-0.0008009101
-0.00034536785
-0.0007448154
-0.00040082326
-0.00068149984
-0.00045244215
-0.00061157137
-0.00049971459
-0.0005357034
-0.00054217151
-0.00045462848
-0.0005793897
-0.00036913132
-0.00061099652
-0.00028004123
-0.00063667418
-0.00018822388
-0.00065616358
-9.4572749e-05
-0.00066926744
1.4299014e-14
-0.00067585283
9.4572749e-05
-0.00067585283
0.00018822388
-0.00066926744
0.00028004123
-0.00065616358
0.00036913132
-0.00063667418
0.00045462848
-0.00061099652
0.0005357034
-0.0005793897
0.00061157137
-0.00054217151
0.00068149984
-0.00049971459
0.0007448154
-0.00045244215
0.0008009101
-0.00040082326
0.00084924709
-0.00034536785
0.00088936549
-0.00028662144
0.00092088467
-0.00022515963
0.00094350763
-0.00016158252
0.00095702381
-9.6508853e-05
0.00096131093
-3.0570052e-05
0.00095633613
3.5595892e-05
0.00094215616
0.00010135066
0.00091891666
0.00016606187
0.00088685053
0.00022910937
0.00084627534
0.00028989135
0.0007975899
0.00034783022
0.00074126998
0.00040237814
0.00067786323
0.0004530221
0.00060798356
0.00049928848
0.00053230486
0.00054074707
0.00045155436
0.00057701452
0.00036650554
0.00060775725
0.00027797083
0.00063269387
0.00018679404
0.00065159708
9.3842651e-05
0.00066429517
0.00067067307
-9.8797293e-05
0.00076947036
-0.00019665692
0.00076215479
-0.00029264948
0.00074758965
-0.00038586212
0.00072590651
-0.00047540668
0.00069730181
-0.0005604278
0.00066203564
-0.00064011084
0.00062043012
-0.00071368964
0.00057286728
-0.00078045395
0.00051978641
-0.00083975656
0.00046168076
-0.00089101999
0.00039909365
-0.00093374252
0.00033261389
-0.00096750367
0.00026287052
-0.00099196874
0.00019052694
-0.0010068925
0.00011627446
-0.0010121221
4.0825436e-05
-0.0010075983
-3.5093854e-05
-0.00099335659
-0.00011075054
-0.00096952672
-0.00018541239
-0.00093633131
-0.00025835503
-0.00089408387
-0.00032886888
-0.00084318577
-0.00039626595
-0.00078412261
-0.00045988643
-0.00071745973
-0.00051910503
-0.0006438371
-0.00057333722
-0.00056396345
-0.00062204517
-0.00047860966
-0.00066474349
-0.0003886015
-0.00070100467
-0.00029481169
-0.00073046399
-0.0001981513
-0.00075282397
-9.9560693e-05
-0.00076785805
1.3884591e-14
-0.00077541352
9.9560693e-05
-0.00077541352
0.0001981513
-0.00076785805
0.00029481169
-0.00075282397
0.0003886015
-0.00073046399
0.00047860966
-0.00070100467
0.00056396345
-0.00066474349
0.0006438371
-0.00062204517
0.00071745973
-0.00057333722
0.00078412261
-0.00051910503
0.00084318577
-0.00045988643
0.00089408387
-0.00039626595
0.00093633131
-0.00032886888
0.00096952672
-0.00025835503
0.00099335659
-0.00018541239
0.0010075983
-0.00011075054
0.0010121221
-3.5093854e-05
0.0010068925
4.0825436e-05
0.00099196874
0.00011627446
0.00096750367
0.00019052694
0.00093374252
0.00026287052
0.00089101999
0.00033261389
0.00083975656
0.00039909365
0.00078045395
0.00046168076
0.00071368964
0.00051978641
0.00064011084
0.00057286728
0.0005604278
0.00062043012
0.00047540668
0.00066203564
0.00038586212
0.00069730181
0.00029264948
0.00072590651
0.00019665692
0.00074758965
9.8797293e-05
0.00076215479
0.00076947036
-0.00010476643
0.00087423679
-0.0002085394
0.00086592776
-0.00031033412
0.00084938436
-0.00040918312
0.00082475551
-0.00050414488
0.00079226357
-0.00059431231
0.00075220307
-0.00067882116
0.00070493896
-0.00075685821
0.00065090434
-0.0008276693
0.0005905975
-0.00089056692
0.00052457837
-0.00094493743
0.00045346416
-0.00099024768
0.00037792414
-0.0010260509
0.00029867374
-0.0010519917
0.00021646773
-0.00106781
0.0001320928
-0.0010733442
4.635957e-05
-0.0010685323
-3.9905699e-05
-0.0010534133
-0.00012586955
-0.001028126
-0.00021069969
-0.0009929079
-0.00029357315
-0.00094809258
-0.0003736842
-0.0008941066
-0.00045025193
-0.00083146547
-0.00052252756
-0.00076076892
-0.00058980158
-0.00068269552
-0.00065141061
-0.00059799652
-0.00070674417
-0.00050748891
-0.0007552511
-0.00041204784
-0.00079644574
-0.00031259822
-0.00082991361
-0.0002101057
-0.00085531649
-0.00010556703
-0.00087239671
1.3528466e-14
-0.00088098055
0.00010556703
-0.00088098055
0.0002101057
-0.00087239671
0.00031259822
-0.00085531649
0.00041204784
-0.00082991361
0.00050748891
-0.00079644574
0.00059799652
-0.0007552511
0.00068269552
-0.00070674417
0.00076076892
-0.00065141061
0.00083146547
-0.00058980158
0.0008941066
-0.00052252756
0.00094809258
-0.00045025193
0.0009929079
-0.0003736842
0.001028126
-0.00029357315
0.0010534133
-0.00021069969
0.0010685323
-0.00012586955
0.0010733442
-3.9905699e-05
0.00106781
4.635957e-05
0.0010519917
0.0001320928
0.0010260509
0.00021646773
0.00099024768
0.00029867374
0.00094493743
0.00037792414
0.00089056692
0.00045346416
0.0008276693
0.00052457837
0.00075685821
0.0005905975
0.00067882116
0.00065090434
0.00059431231
0.00070493896
0.00050414488
0.00075220307
0.00040918312
0.00079226357
0.00031033412
0.00082475551
0.0002085394
0.00084938436
0.00010476643
0.00086592776
0.00087423679
-0.0001119564
0.00098619319
-0.00022285227
0.00097682363
-0.00033163622
0.00095816831
-0.00043727512
0.00093039441
-0.00053876322
0.00089375167
-0.00063513112
0.00084857097
-0.00072545476
0.0007952626
-0.00080886416
0.00073431374
-0.00088455205
0.00066628539
-0.00095178215
0.00059180847
-0.001009897
0.00051157904
-0.0010583254
0.00042635254
-0.0010965887
0.00033693701
-0.0011243064
0.00024418541
-0.0011412005
0.00014898697
-0.0011470989
5.2257973e-05
-0.0011419368
-4.5067872e-05
-0.0011257571
-0.0001420492
-0.0010987103
-0.00023774654
-0.0010610518
-0.00033123162
-0.0010131399
-0.00042159614
-0.00095543153
-0.00050796027
-0.00088847849
-0.00058948061
-0.00081292198
-0.00066535809
-0.00072948708
-0.00073484551
-0.0006389762
-0.00079725506
-0.00054226182
-0.00085196548
-0.00044027845
-0.00089842911
-0.00033401376
-0.0009361783
-0.00022449899
-0.00096483125
-0.00011279872
-0.00098409699
1.3102266e-14
-0.00099377927
0.00011279872
-0.00099377927
0.00022449899
-0.00098409699
0.00033401376
-0.00096483125
0.00044027845
-0.0009361783
0.00054226182
-0.00089842911
0.0006389762
-0.00085196548
0.00072948708
-0.00079725506
0.00081292198
-0.00073484551
0.00088847849
-0.00066535809
0.00095543153
-0.00058948061
0.0010131399
-0.00050796027
0.0010610518
-0.00042159614
0.0010987103
-0.00033123162
0.0011257571
-0.00023774654
0.0011419368
-0.0001420492
0.0011470989
-4.5067872e-05
0.0011412005
5.2257973e-05
0.0011243064
0.00014898697
0.0010965887
0.00024418541
0.0010583254
0.00033693701
0.001009897
0.00042635254
0.00095178215
0.00051157904
0.00088455205
0.00059180847
0.00080886416
0.00066628539
0.00072545476
0.00073431374
0.00063513112
0.0007952626
0.00053876322
0.00084857097
0.00043727512
0.00089375167
0.00033163622
0.00093039441
0.00022285227
0.00095816831
0.0001119564
0.00097682363
0.00098619319
-0.00012061754
0.0011068107
-0.00024009392
0.0010963
-0.00035729766
0.0010753721
-0.00047111668
0.0010442134
-0.00058046793
0.0010031029
-0.00068430698
0.00095241003
-0.00078163767
0.00089259329
-0.00087152151
0.00082419758
-0.00095308706
0.00074785094
-0.001025539
0.00066426042
-0.0010881669
0.00057420692
-0.0011403532
0.00047853882
-0.0011815806
0.00037816441
-0.0012114382
0.00027404307
-0.0012296266
0.00016717538
-0.001235961
5.8592318e-05
-0.001230373
-5.0655853e-05
-0.0012129113
-0.00015951092
-0.0011837402
-0.00026691767
-0.0011431374
-0.00037183434
-0.0010914911
-0.00047324246
-0.0010292953
-0.00057015606
-0.0009571455
-0.00066163044
-0.00087573297
-0.00074677062
-0.00078583883
-0.00082473965
-0.00068832708
-0.0008947668
-0.00058413696
-0.00095615561
-0.00047427435
-0.0010082917
-0.00035980241
-0.0010506502
-0.00024183126
-0.0010828024
-0.00012150698
-0.0011044213
1.2443021e-14
-0.0011152862
0.00012150698
-0.0011152862
0.00024183126
-0.0011044213
0.00035980241
-0.0010828024
0.00047427435
-0.0010506502
0.00058413696
-0.0010082917
0.00068832708
-0.00095615561
0.00078583883
-0.0008947668
0.00087573297
-0.00082473965
0.0009571455
-0.00074677062
0.0010292953
-0.00066163044
0.0010914911
-0.00057015606
0.0011431374
-0.00047324246
0.0011837402
-0.00037183434
0.0012129113
-0.00026691767
0.001230373
-0.00015951092
0.001235961
-5.0655853e-05
0.0012296266
5.8592318e-05
0.0012114382
0.00016717538
0.0011815806
0.00027404307
0.0011403532
0.00037816441
0.0010881669
0.00047853882
0.001025539
0.00057420692
0.00095308706
0.00066426042
0.00087152151
0.00074785094
0.00078163767
0.00082419758
0.00068430698
0.00089259329
0.00058046793
0.00095241003
0.00047111668
0.0010031029
0.00035729766
0.0010442134
0.00024009392
0.0010753721
0.00012061754
0.0010963
0.0011068107
-0.00013104144
0.0012378522
-0.00026084485
0.0012261034
-0.00038818256
0.0012027098
-0.00051184758
0.0011678785
-0.00063066391
0.0011219192
-0.00074349693
0.001065243
-0.00084926361
0.00099835998
-0.00094694292
0.00092187689
-0.001035586
0.00083649397
-0.0011143261
0.00074300052
-0.0011823885
0.00064226938
-0.0012390998
0.00053525008
-0.0012838957
0.00042296034
-0.0013163287
0.00030647604
-0.0013360731
0.00018691976
-0.0013429291
6.54483e-05
-0.0013368245
-5.6760443e-05
-0.0013178149
-0.00017852053
-0.0012860819
-0.0002986506
-0.0012419306
-0.00041598562
-0.0011857853
-0.00052938777
-0.0011181849
-0.00063775645
-0.0010397778
-0.00074003763
-0.00095131546
-0.00083523292
-0.00085364657
-0.00092240854
-0.00074770915
-0.0010007042
-0.00063452265
-0.0010693421
-0.00051517876
-0.0011276356
-0.00039083132
-0.0011749977
-0.00026268525
-0.0012109485
-0.00013198461
-0.0012351219
1.140444e-14
-0.0012472709
0.00013198461
-0.0012472709
0.00026268525
-0.0012351219
0.00039083132
-0.0012109485
0.00051517876
-0.0011749977
0.00063452265
-0.0011276356
0.00074770915
-0.0010693421
0.00085364657
-0.0010007042
0.00095131546
-0.00092240854
0.0010397778
-0.00083523292
0.0011181849
-0.00074003763
0.0011857853
-0.00063775645
0.0012419306
-0.00052938777
0.0012860819
-0.00041598562
0.0013178149
-0.0002986506
0.0013368245
-0.00017852053
0.0013429291
-5.6760443e-05
0.0013360731
6.54483e-05
0.0013163287
0.00018691976
0.0012838957
0.00030647604
0.0012390998
0.00042296034
0.0011823885
0.00053525008
0.0011143261
0.00064226938
0.001035586
0.00074300052
0.00094694292
0.00083649397
0.00084926361
0.00092187689
0.00074349693
0.00099835998
0.00063066391
0.001065243
0.00051184758
0.0011219192
0.00038818256
0.0011678785
0.00026084485
0.0012027098
0.00013104144
0.0012261034
0.0012378522
-0.0001435504
0.0013814026
-0.00028574671
0.0013682997
-0.00042524597
0.001342209
-0.00056072746
0.0013033599
-0.00069090379
0.0012520956
-0.00081453211
0.0011888714
-0.00093042521
0.0011142531
-0.0010374628
0.0010289145
-0.0011346029
0.00093363407
-0.0012208929
0.00082929047
-0.0012954805
0.00071685701
-0.0013576246
0.00059739415
-0.0014067043
0.00047204009
-0.0014422277
0.0003419994
-0.0014638376
0.00020852972
-0.0014713165
7.2927104e-05
-0.0014645875
-6.3489351e-05
-0.0014437153
-0.00019939282
-0.0014089026
-0.00033346323
-0.0013604877
-0.00046440057
-0.0012989387
-0.00059093677
-0.0012248487
-0.00071184644
-0.0011389295
-0.00082595676
-0.0010420054
-0.00093215704
-0.00093500573
-0.0010294082
-0.00081895729
-0.0011167527
-0.00069497569
-0.0011933237
-0.00056425545
-0.0012583558
-0.00042805912
-0.001311194
-0.00028770523
-0.0013513024
-0.0001445553
-0.0013782718
9.9098089e-15
-0.0013918262
0.0001445553
-0.0013918262
0.00028770523
-0.0013782718
0.00042805912
-0.0013513024
0.00056425545
-0.001311194
0.00069497569
-0.0012583558
0.00081895729
-0.0011933237
0.00093500573
-0.0011167527
0.0010420054
-0.0010294082
0.0011389295
-0.00093215704
0.0012248487
-0.00082595676
0.0012989387
-0.00071184644
0.0013604877
-0.00059093677
0.0014089026
-0.00046440057
0.0014437153
-0.00033346323
0.0014645875
-0.00019939282
0.0014713165
-6.3489351e-05
0.0014638376
7.2927104e-05
0.0014422277
0.00020852972
0.0014067043
0.0003419994
0.0013576246
0.00047204009
0.0012954805
0.00059739415
0.0012208929
0.00071685701
0.0011346029
0.00082929047
0.0010374628
0.00093363407
0.00093042521
0.0010289145
0.00081453211
0.0011142531
0.00069090379
0.0011888714
0.00056072746
0.0012520956
0.00042524597
0.0013033599
0.00028574671
0.001342209
0.0001435504
0.0013682997
0.0013814026
-0.0001584759
0.0015398785
-0.00031545936
0.0015252832
-0.00046947001
0.0014962197
-0.00061905155
0.0014529415
-0.00076278384
0.0013958279
-0.00089929496
0.0013253825
-0.0010272734
0.0012422316
-0.0011454806
0.0011471217
-0.001252763
0.0010409165
-0.0013480651
0.00092459262
-0.001430442
0.00079923388
-0.0014990711
0.00066602325
-0.0015532637
0.00052623269
-0.0015924744
0.00038121009
-0.0016163085
0.00023236389
-0.0016245272
8.114574e-05
-0.0016170488
-7.0967718e-05
-0.0015939487
-0.00022249289
-0.001555456
-0.000371956
-0.0015019485
-0.00051790806
-0.0014339474
-0.00065893786
-0.0013521105
-0.00079368328
-0.0012572258
-0.00092084155
-0.0011502036
-0.0010391792
-0.00103207
-0.0011475419
-0.00090395752
-0.0012448651
-0.00076709636
-0.0013301849
-0.00062280359
-0.0014026486
-0.00047247131
-0.0014615263
-0.00031755355
-0.0015062201
-0.00015955184
-0.0015362735
8.0475977e-15
-0.001551378
0.00015955184
-0.001551378
0.00031755355
-0.0015362735
0.00047247131
-0.0015062201
0.00062280359
-0.0014615263
0.00076709636
-0.0014026486
0.00090395752
-0.0013301849
0.00103207
-0.0012448651
0.0011502036
-0.0011475419
0.0012572258
-0.0010391792
0.0013521105
-0.00092084155
0.0014339474
-0.00079368328
0.0015019485
-0.00065893786
0.001555456
-0.00051790806
0.0015939487
-0.000371956
0.0016170488
-0.00022249289
0.0016245272
-7.0967718e-05
0.0016163085
8.114574e-05
0.0015924744
0.00023236389
0.0015532637
0.00038121009
0.0014990711
0.00052623269
0.001430442
0.00066602325
0.0013480651
0.00079923388
0.001252763
0.00092459262
0.0011454806
0.0010409165
0.0010272734
0.0011471217
0.00089929496
0.0012422316
0.00076278384
0.0013253825
0.00061905155
0.0013958279
0.00046947001
0.0014529415
0.00031545936
0.0014962197
0.0001584759
0.0015252832
0.0015398785
-0.00017612267
0.0017160011
-0.00035058939
0.0016997499
-0.00052175736
0.0016673876
-0.00068801008
0.0016191942
-0.00084777056
0.0015555883
-0.00099951442
0.0014771263
-0.0011417834
0.0013845005
-0.0012731987
0.0012785369
-0.0013924751
0.001160193
-0.0014984354
0.0010305529
-0.0015900243
0.00089082276
-0.0016663228
0.00074232173
-0.0017265613
0.00058647115
-0.0017701309
0.00042477975
-0.0017965926
0.00025882558
-0.0018056823
9.0235453e-05
-0.0017973132
-7.9336863e-05
-0.001771574
-0.00024823208
-0.0017287251
-0.00041480494
-0.0016691921
-0.00057744106
-0.0015935589
-0.00073457098
-0.0015025603
-0.00088468189
-0.0013970738
-0.001026328
-0.0012781122
-0.0011581408
-0.0011468152
-0.0012788389
-0.0010044403
-0.00138724
-0.00085235311
-0.0014822721
-0.00069201538
-0.0015629864
-0.00052497235
-0.0016285693
-0.00035283809
-0.0016783544
-0.00017727964
-0.001711832
5.9895057e-15
-0.0017286576
0.00017727964
-0.0017286576
0.00035283809
-0.001711832
0.00052497235
-0.0016783544
0.00069201538
-0.0016285693
0.00085235311
-0.0015629864
0.0010044403
-0.0014822721
0.0011468152
-0.00138724
0.0012781122
-0.0012788389
0.0013970738
-0.0011581408
0.0015025603
-0.001026328
0.0015935589
-0.00088468189
0.0016691921
-0.00073457098
0.0017287251
-0.00057744106
0.001771574
-0.00041480494
0.0017973132
-0.00024823208
0.0018056823
-7.9336863e-05
0.0017965926
9.0235453e-05
0.0017701309
0.00025882558
0.0017265613
0.00042477975
0.0016663228
0.00058647115
0.0015900243
0.00074232173
0.0014984354
0.00089082276
0.0013924751
0.0010305529
0.0012731987
0.001160193
0.0011417834
0.0012785369
0.00099951442
0.0013845005
0.00084777056
0.0014771263
0.00068801008
0.0015555883
0.00052175736
0.0016191942
0.00035058939
0.0016673876
0.00017612267
0.0016997499
0.0017160011
-0.00019671532
0.0019127165
-0.00039158371
0.0018946183
-0.00058277279
0.0018585767
-0.0007684791
0.0018049005
-0.00094694265
0.0017340519
-0.0011164614
0.001646645
-0.0012754057