/*--------------------------------*- C++ -*----------------------------------*\
| =========                 |                                                 |
| \\      /  F ield         | OpenFOAM: The Open Source CFD Toolbox           |
|  \\    /   O peration     | Version:  2106                                  |
|   \\  /    A nd           | Website:  www.openfoam.com                      |
|    \\/     M anipulation  |                                                 |
\*---------------------------------------------------------------------------*/
FoamFile
{
    version     2.0;
    format      ascii;
    arch        "LSB;label=32;scalar=64";
    class       volScalarField;
    location    "0.044";
    object      p_rgh;
}
// * * * * * * * * * * * * * * * * * * * * * * * * * * * * * * * * * * * * * //

dimensions      [1 -1 -2 0 0 0 0];

internalField   nonuniform List<scalar> 
65536
(
-0.76932136
-0.76885906
-0.76793473
-0.76654894
-0.76470251
-0.76239653
-0.75963238
-0.75641172
-0.75273646
-0.7486088
-0.7440312
-0.73900639
-0.73353738
-0.72762742
-0.72128005
-0.71449905
-0.70728848
-0.69965263
-0.69159608
-0.68312362
-0.67424033
-0.66495151
-0.6552627
-0.64517971
-0.63470856
-0.6238555
-0.61262702
-0.60102984
-0.5890709
-0.57675735
-0.56409655
-0.55109608
-0.53776372
-0.52410745
-0.51013545
-0.49585609
-0.48127791
-0.46640965
-0.45126022
-0.4358387
-0.42015433
-0.40421651
-0.3880348
-0.37161891
-0.35497868
-0.33812411
-0.3210653
-0.30381249
-0.28637605
-0.26876644
-0.25099424
-0.23307014
-0.2150049
-0.19680938
-0.17849452
-0.16007133
-0.14155089
-0.12294436
-0.10426291
-0.085517793
-0.066720296
-0.047881733
-0.029013459
-0.010126871
0.0087667243
0.027655963
0.046529393
0.065375607
0.084183292
0.1029411
0.12163772
0.14026187
0.1588023
0.17724784
0.19558734
0.21380973
0.23190401
0.24985925
0.2676646
0.28530932
0.30278272
0.32007426
0.33717348
0.35407005
0.37075374
0.38721448
0.40344229
0.41942737
0.43516005
0.45063081
0.46583027
0.48074925
0.49537872
0.50970981
0.52373385
0.53744235
0.55082701
0.56387971
0.57659256
0.58895786
0.6009681
0.61261601
0.62389455
0.63479686
0.64531634
0.65544663
0.66518157
0.67451526
0.68344205
0.69195653
0.70005353
0.70772814
0.71497572
0.72179185
0.72817242
0.73411355
0.73961163
0.74466334
0.74926561
0.75341564
0.75711093
0.76034922
0.76312856
0.76544725
0.7673039
0.76869737
0.76962682
0.77009168
0.77009168
0.76962682
0.76869737
0.7673039
0.76544725
0.76312856
0.76034922
0.75711093
0.75341564
0.74926561
0.74466334
0.73961163
0.73411355
0.72817242
0.72179185
0.71497572
0.70772814
0.70005353
0.69195653
0.68344205
0.67451526
0.66518157
0.65544663
0.64531634
0.63479686
0.62389454
0.61261601
0.6009681
0.58895785
0.57659256
0.56387971
0.55082701
0.53744235
0.52373385
0.50970981
0.49537872
0.48074925
0.46583027
0.45063081
0.43516005
0.41942737
0.40344229
0.38721448
0.37075374
0.35407005
0.33717348
0.32007426
0.30278272
0.28530932
0.2676646
0.24985925
0.23190401
0.21380973
0.19558734
0.17724784
0.1588023
0.14026187
0.12163772
0.1029411
0.084183292
0.065375607
0.046529393
0.027655963
0.0087667245
-0.01012687
-0.029013458
-0.047881733
-0.066720296
-0.085517792
-0.10426291
-0.12294436
-0.14155089
-0.16007133
-0.17849452
-0.19680938
-0.2150049
-0.23307014
-0.25099424
-0.26876644
-0.28637605
-0.30381249
-0.3210653
-0.33812411
-0.35497868
-0.37161891
-0.3880348
-0.40421651
-0.42015433
-0.4358387
-0.45126022
-0.46640965
-0.48127791
-0.49585609
-0.51013545
-0.52410745
-0.53776372
-0.55109608
-0.56409655
-0.57675735
-0.5890709
-0.60102984
-0.61262702
-0.6238555
-0.63470856
-0.64517971
-0.6552627
-0.66495151
-0.67424033
-0.68312362
-0.69159608
-0.69965263
-0.70728848
-0.71449905
-0.72128005
-0.72762742
-0.73353738
-0.73900639
-0.7440312
-0.7486088
-0.75273646
-0.75641172
-0.75963238
-0.76239653
-0.76470251
-0.76654894
-0.76793473
-0.76885905
-0.76932135
-0.76988344
-0.7694208
-0.76849579
-0.76710897
-0.76526117
-0.76295349
-0.76018729
-0.75696425
-0.75328627
-0.74915556
-0.74457457
-0.73954605
-0.73407299
-0.72815866
-0.72180659
-0.71502058
-0.70780468
-0.70016319
-0.69210068
-0.68362197
-0.67473211
-0.66543643
-0.65574048
-0.64565004
-0.63517116
-0.62431009
-0.61307334
-0.60146761
-0.58949985
-0.57717723
-0.5645071
-0.55149706
-0.53815488
-0.52448857
-0.51050629
-0.49621642
-0.48162753
-0.46674834
-0.45158779
-0.43615494
-0.42045905
-0.40450954
-0.38831596
-0.37188803
-0.35523561
-0.33836869
-0.32129738
-0.30403195
-0.28658274
-0.26896026
-0.25117507
-0.23323787
-0.21515943
-0.19695062
-0.1786224
-0.16018577
-0.14165183
-0.12303173
-0.10433667
-0.085577906
-0.066766728
-0.047914462
-0.029032462
-0.010132112
0.0087751939
0.027678123
0.046565242
0.065425143
0.084246472
0.10301788
0.12172805
0.14036568
0.15891954
0.17737842
0.19573118
0.21396675
0.2320741
0.25004231
0.26786052
0.28551797
0.30300397
0.32030798
0.33741953
0.35432827
0.37102397
0.38749655
0.40373605
0.41973262
0.43547661
0.45095848
0.46616887
0.48109856
0.49573853
0.5100799
0.524114
0.53783233
0.55122658
0.56428864
0.5770106
0.58938474
0.60140358
0.61305983
0.62434643
0.63525654
0.64578355
0.65592107
0.66566297
0.67500333
0.6839365
0.69245706
0.70055984
0.70823993
0.71549267
0.72231367
0.72869879
0.73464416
0.74014616
0.74520147
0.74980702
0.75396001
0.75765793
0.76089853
0.76367985
0.7660002
0.76785816
0.76925263
0.77018274
0.77064794
0.77064794
0.77018274
0.76925263
0.76785816
0.7660002
0.76367985
0.76089853
0.75765793
0.75396001
0.74980702
0.74520147
0.74014616
0.73464416
0.72869879
0.72231367
0.71549267
0.70823993
0.70055984
0.69245706
0.6839365
0.67500333
0.66566297
0.65592107
0.64578355
0.63525654
0.62434643
0.61305983
0.60140358
0.58938474
0.5770106
0.56428864
0.55122658
0.53783233
0.524114
0.5100799
0.49573853
0.48109856
0.46616887
0.45095848
0.43547661
0.41973262
0.40373605
0.38749655
0.37102397
0.35432827
0.33741953
0.32030798
0.30300397
0.28551797
0.26786052
0.25004231
0.2320741
0.21396675
0.19573118
0.17737842
0.15891954
0.14036568
0.12172805
0.10301788
0.084246472
0.065425143
0.046565242
0.027678123
0.008775194
-0.010132111
-0.029032462
-0.047914461
-0.066766728
-0.085577905
-0.10433667
-0.12303173
-0.14165183
-0.16018577
-0.1786224
-0.19695062
-0.21515943
-0.23323787
-0.25117507
-0.26896026
-0.28658274
-0.30403195
-0.32129738
-0.33836869
-0.35523561
-0.37188803
-0.38831596
-0.40450954
-0.42045905
-0.43615494
-0.45158779
-0.46674834
-0.48162753
-0.49621642
-0.51050629
-0.52448857
-0.53815488
-0.55149706
-0.5645071
-0.57717723
-0.58949985
-0.60146761
-0.61307334
-0.62431009
-0.63517116
-0.64565004
-0.65574048
-0.66543643
-0.67473211
-0.68362197
-0.69210068
-0.70016319
-0.70780468
-0.71502058
-0.72180659
-0.72815866
-0.73407299
-0.73954605
-0.74457457
-0.74915556
-0.75328627
-0.75696425
-0.76018729
-0.76295349
-0.76526117
-0.76710898
-0.76849579
-0.7694208
-0.76988344
-0.77088242
-0.77041918
-0.76949296
-0.76810434
-0.76625413
-0.76394344
-0.76117364
-0.7579464
-0.75426363
-0.75012754
-0.74554058
-0.74050551
-0.73502532
-0.72910329
-0.72274295
-0.71594811
-0.70872281
-0.70107137
-0.69299836
-0.68450861
-0.67560719
-0.6662994
-0.65659083
-0.64648726
-0.63599474
-0.62511954
-0.61386817
-0.60224734
-0.59026402
-0.57792536
-0.56523875
-0.55221179
-0.53885227
-0.52516819
-0.51116773
-0.49685929
-0.48225143
-0.46735291
-0.45217265
-0.43671975
-0.42100348
-0.40503325
-0.38881864
-0.37236938
-0.35569534
-0.33880652
-0.32171305
-0.30442521
-0.28695337
-0.26930802
-0.25149976
-0.23353929
-0.21543741
-0.197205
-0.17885301
-0.16039249
-0.14183453
-0.1231903
-0.10447103
-0.085687968
-0.06685243
-0.047975756
-0.029069314
-0.010144496
0.0087872931
0.027714668
0.046626208
0.065510504
0.084356174
0.10315185
0.12188621
0.14054793
0.15912576
0.17760849
0.19598496
0.21424407
0.23237481
0.25036621
0.26820742
0.28588765
0.30339622
0.32072255
0.33785617
0.35478671
0.37150394
0.38799776
0.40425818
0.42027537
0.43603965
0.45154146
0.46677144
0.48172036
0.49637917
0.51073901
0.52479117
0.53852715
0.55193864
0.5650175
0.57775582
0.59014588
0.60218018
0.61385141
0.62515252
0.63607666
0.64661719
0.65676774
0.66652216
0.67587452
0.68481917
0.69335067
0.70146386
0.70915381
0.71641587
0.72324563
0.72963894
0.73559194
0.74110101
0.74616281
0.75077427
0.75493259
0.75863526
0.76188002
0.7646649
0.76698823
0.76884858
0.77024483
0.77117614
0.77164193
0.77164193
0.77117614
0.77024483
0.76884858
0.76698823
0.7646649
0.76188002
0.75863526
0.75493259
0.75077427
0.74616281
0.74110101
0.73559194
0.72963894
0.72324563
0.71641587
0.70915381
0.70146386
0.69335067
0.68481917
0.67587452
0.66652216
0.65676774
0.64661719
0.63607666
0.62515252
0.61385141
0.60218018
0.59014588
0.57775582
0.5650175
0.55193864
0.53852715
0.52479117
0.51073901
0.49637917
0.48172036
0.46677144
0.45154146
0.43603965
0.42027537
0.40425818
0.38799776
0.37150394
0.35478671
0.33785617
0.32072255
0.30339622
0.28588765
0.26820742
0.25036621
0.23237481
0.21424407
0.19598496
0.17760849
0.15912576
0.14054793
0.12188621
0.10315185
0.084356174
0.065510504
0.046626209
0.027714668
0.0087872932
-0.010144496
-0.029069314
-0.047975756
-0.06685243
-0.085687967
-0.10447103
-0.1231903
-0.14183453
-0.16039249
-0.17885301
-0.197205
-0.21543741
-0.23353929
-0.25149976
-0.26930802
-0.28695337
-0.30442521
-0.32171305
-0.33880652
-0.35569534
-0.37236938
-0.38881864
-0.40503325
-0.42100348
-0.43671975
-0.45217265
-0.46735291
-0.48225143
-0.49685929
-0.51116773
-0.52516819
-0.53885227
-0.55221179
-0.56523875
-0.57792536
-0.59026402
-0.60224734
-0.61386817
-0.62511954
-0.63599474
-0.64648726
-0.65659083
-0.6662994
-0.67560719
-0.68450861
-0.69299836
-0.70107137
-0.70872281
-0.71594811
-0.72274296
-0.72910329
-0.73502532
-0.74050551
-0.74554058
-0.75012754
-0.75426363
-0.7579464
-0.76117364
-0.76394344
-0.76625413
-0.76810434
-0.76949296
-0.77041917
-0.77088242
-0.77233741
-0.77187329
-0.77094533
-0.76955408
-0.76770037
-0.76538532
-0.76261029
-0.75937695
-0.75568722
-0.75154331
-0.7469477
-0.74190311
-0.73641257
-0.73047935
-0.724107
-0.71729932
-0.71006037
-0.70239448
-0.69430623
-0.68580044
-0.6768822
-0.66755684
-0.65782993
-0.64770728
-0.63719494
-0.62629921
-0.61502658
-0.60338381
-0.59137785
-0.5790159
-0.56630534
-0.55325378
-0.53986903
-0.52615911
-0.51213223
-0.49779677
-0.48316134
-0.4682347
-0.45302578
-0.43754372
-0.42179778
-0.40579741
-0.3895522
-0.3730719
-0.35636639
-0.33944571
-0.32231999
-0.30499954
-0.28749473
-0.2698161
-0.25197425
-0.23397991
-0.21584389
-0.19757709
-0.1791905
-0.16069516
-0.14210222
-0.12342284
-0.10466828
-0.085849814
-0.066978776
-0.048066527
-0.029124457
-0.010163977
0.0088034893
0.02776652
0.046713681
0.065633547
0.084514712
0.10334579
0.12211542
0.14081228
0.15942509
0.17794261
0.19635367
0.21464715
0.23281201
0.25083727
0.26871205
0.28642555
0.30396705
0.32132598
0.33849182
0.3554542
0.37220287
0.3887277
0.40501869
0.421066
0.4368599
0.45239085
0.46764945
0.48262646
0.49731282
0.51169964
0.5257782
0.53953998
0.55297666
0.56608009
0.57884233
0.59125565
0.60331254
0.6150057
0.62632802
0.63727266
0.64783298
0.65800258
0.66777531
0.67714522
0.68610665
0.69465416
0.70278257
0.71048695
0.71776263
0.7246052
0.73101051
0.73697468
0.74249408
0.74756537
0.75218548
0.7563516
0.76006121
0.76331205
0.76610216
0.76842984
0.77029369
0.77169256
0.77262561
0.77309228
0.77309228
0.77262561
0.77169256
0.77029369
0.76842984
0.76610216
0.76331205
0.76006121
0.7563516
0.75218548
0.74756537
0.74249408
0.73697468
0.73101051
0.7246052
0.71776263
0.71048695
0.70278257
0.69465416
0.68610665
0.67714522
0.6677753
0.65800258
0.64783298
0.63727266
0.62632802
0.6150057
0.60331254
0.59125565
0.57884233
0.56608009
0.55297666
0.53953998
0.5257782
0.51169964
0.49731282
0.48262646
0.46764945
0.45239085
0.4368599
0.421066
0.40501869
0.3887277
0.37220287
0.3554542
0.33849182
0.32132598
0.30396705
0.28642555
0.26871205
0.25083727
0.23281201
0.21464715
0.19635367
0.17794261
0.15942509
0.14081228
0.12211542
0.10334579
0.084514712
0.065633547
0.046713681
0.02776652
0.0088034894
-0.010163977
-0.029124457
-0.048066526
-0.066978775
-0.085849814
-0.10466828
-0.12342284
-0.14210222
-0.16069516
-0.1791905
-0.19757709
-0.21584389
-0.23397991
-0.25197425
-0.2698161
-0.28749473
-0.30499954
-0.32231999
-0.33944571
-0.35636639
-0.3730719
-0.3895522
-0.40579741
-0.42179778
-0.43754372
-0.45302578
-0.4682347
-0.48316134
-0.49779677
-0.51213223
-0.52615911
-0.53986903
-0.55325378
-0.56630534
-0.5790159
-0.59137785
-0.60338381
-0.61502658
-0.62629921
-0.63719494
-0.64770728
-0.65782993
-0.66755684
-0.6768822
-0.68580044
-0.69430623
-0.70239448
-0.71006037
-0.71729932
-0.724107
-0.73047935
-0.73641257
-0.74190311
-0.7469477
-0.75154331
-0.75568722
-0.75937695
-0.76261029
-0.76538532
-0.76770037
-0.76955408
-0.77094533
-0.77187329
-0.7723374
-0.7742586
-0.77379333
-0.77286306
-0.77146836
-0.76961004
-0.76728923
-0.7645073
-0.76126591
-0.75756701
-0.7534128
-0.74880575
-0.74374862
-0.73824443
-0.73229646
-0.72590826
-0.71908365
-0.71182669
-0.70414174
-0.69603337
-0.68750643
-0.67856601
-0.66921746
-0.65946636
-0.64931854
-0.63878006
-0.62785723
-0.61655657
-0.60488485
-0.59284904
-0.58045635
-0.56771418
-0.55463017
-0.54121214
-0.52746813
-0.51340636
-0.49903526
-0.48436344
-0.46939968
-0.45415295
-0.43863239
-0.42284731
-0.40680715
-0.39052156
-0.37400029
-0.35725325
-0.3402905
-0.32312221
-0.3057587
-0.28821038
-0.2704878
-0.25260161
-0.23456254
-0.21638144
-0.19806925
-0.17963696
-0.16109566
-0.14245651
-0.12373072
-0.10492955
-0.08606433
-0.067146405
-0.048187169
-0.02919804
-0.010190458
0.0088241284
0.027834262
0.046828483
0.06579534
0.084723397
0.10360124
0.12241748
0.14116077
0.15981979
0.17838329
0.19684006
0.21517895
0.2333889
0.25145891
0.26937805
0.28713551
0.30472055
0.32212254
0.33933098
0.35633545
0.37312567
0.3896915
0.4060229
0.42211001
0.43794309
0.45351256
0.468809
0.48382315
0.49854593
0.51296841
0.52708188
0.54087778
0.55434777
0.56748368
0.58027755
0.59272164
0.60480842
0.61653054
0.62788093
0.63885269
0.64943917
0.65963397
0.6694309
0.67882403
0.68780766
0.69637634
0.70452489
0.71224835
0.71954205
0.72640157
0.73282274
0.73880168
0.74433475
0.7494186
0.75405015
0.75822659
0.76194538
0.76520427
0.76800129
0.77033474
0.77220319
0.77360553
0.77454089
0.77500871
0.77500871
0.77454089
0.77360553
0.77220319
0.77033474
0.76800129
0.76520427
0.76194538
0.75822659
0.75405015
0.7494186
0.74433475
0.73880168
0.73282274
0.72640157
0.71954205
0.71224835
0.70452489
0.69637634
0.68780766
0.67882403
0.6694309
0.65963397
0.64943917
0.63885269
0.62788093
0.61653054
0.60480841
0.59272164
0.58027755
0.56748368
0.55434777
0.54087778
0.52708188
0.51296841
0.49854593
0.48382315
0.468809
0.45351256
0.43794309
0.42211001
0.4060229
0.3896915
0.37312567
0.35633545
0.33933098
0.32212254
0.30472055
0.28713551
0.26937805
0.25145891
0.2333889
0.21517895
0.19684006
0.17838329
0.15981979
0.14116077
0.12241748
0.10360124
0.084723397
0.06579534
0.046828483
0.027834262
0.0088241286
-0.010190457
-0.02919804
-0.048187169
-0.067146405
-0.08606433
-0.10492955
-0.12373072
-0.14245651
-0.16109566
-0.17963696
-0.19806925
-0.21638144
-0.23456254
-0.25260161
-0.2704878
-0.28821038
-0.3057587
-0.32312221
-0.3402905
-0.35725325
-0.37400029
-0.39052156
-0.40680715
-0.42284731
-0.43863239
-0.45415295
-0.46939968
-0.48436344
-0.49903526
-0.51340636
-0.52746813
-0.54121214
-0.55463017
-0.56771418
-0.58045635
-0.59284904
-0.60488485
-0.61655657
-0.62785723
-0.63878006
-0.64931854
-0.65946636
-0.66921746
-0.67856601
-0.68750643
-0.69603337
-0.70414174
-0.71182669
-0.71908364
-0.72590826
-0.73229646
-0.73824443
-0.74374862
-0.74880575
-0.7534128
-0.75756701
-0.76126592
-0.7645073
-0.76728923
-0.76961004
-0.77146836
-0.77286306
-0.77379333
-0.7742586
-0.77664695
-0.77618024
-0.77524711
-0.7738481
-0.77198406
-0.76965609
-0.76686559
-0.76361422
-0.75990392
-0.7557369
-0.75111566
-0.74604294
-0.74052179
-0.73455549
-0.7281476
-0.72130195
-0.71402264
-0.706314
-0.69818064
-0.68962742
-0.68065945
-0.67128209
-0.66150093
-0.65132184
-0.64075088
-0.62979438
-0.61845889
-0.6067512
-0.59467829
-0.5822474
-0.56946596
-0.55634162
-0.54288223
-0.52909586
-0.51499075
-0.50057536
-0.48585831
-0.47084843
-0.45555471
-0.43998631
-0.42415257
-0.40806298
-0.39172718
-0.37515499
-0.35835633
-0.3413413
-0.3241201
-0.30670306
-0.28910066
-0.27132346
-0.25338214
-0.23528747
-0.21705034
-0.19868171
-0.18019261
-0.16159418
-0.14289758
-0.12411408
-0.10525498
-0.08633162
-0.067355399
-0.048337742
-0.029290101
-0.01022395
0.0088492238
0.027917928
0.046970669
0.06599596
0.084982329
0.10391833
0.12279253
0.14159356
0.16031006
0.17893073
0.19744435
0.21583973
0.23410576
0.25223141
0.27020573
0.28801787
0.30565706
0.32311264
0.34037406
0.35743088
0.3742728
0.39088962
0.4072713
0.42340792
0.43928973
0.45490712
0.47025064
0.485311
0.50007908
0.51454595
0.52870284
0.54254119
0.55605262
0.56922894
0.58206217
0.59454455
0.6066685
0.61842668
0.62981198
0.64081748
0.65143653
0.66166268
0.67148974
0.68091175
0.68992301
0.69851804
0.70669164
0.71443885
0.72175498
0.72863558
0.7350765
0.74107381
0.74662389
0.75172337
0.75636916
0.76055843
0.76428866
0.76755757
0.77036319
0.7727038
0.774578
0.77598465
0.77692289
0.77739215
0.77739215
0.77692289
0.77598465
0.774578
0.7727038
0.77036319
0.76755757
0.76428866
0.76055843
0.75636916
0.75172337
0.74662389
0.74107381
0.7350765
0.72863558
0.72175498
0.71443885
0.70669164
0.69851804
0.68992301
0.68091175
0.67148974
0.66166268
0.65143653
0.64081748
0.62981198
0.61842668
0.6066685
0.59454455
0.58206217
0.56922894
0.55605262
0.54254119
0.52870284
0.51454595
0.50007908
0.485311
0.47025064
0.45490712
0.43928973
0.42340792
0.4072713
0.39088962
0.3742728
0.35743088
0.34037406
0.32311264
0.30565706
0.28801787
0.27020573
0.25223141
0.23410576
0.21583973
0.19744435
0.17893073
0.16031006
0.14159356
0.12279253
0.10391833
0.08498233
0.06599596
0.046970669
0.027917928
0.008849224
-0.01022395
-0.029290101
-0.048337742
-0.067355399
-0.08633162
-0.10525498
-0.12411408
-0.14289758
-0.16159418
-0.18019261
-0.19868171
-0.21705034
-0.23528747
-0.25338214
-0.27132346
-0.28910066
-0.30670306
-0.3241201
-0.3413413
-0.35835633
-0.37515499
-0.39172718
-0.40806298
-0.42415257
-0.43998631
-0.45555471
-0.47084843
-0.48585831
-0.50057536
-0.51499075
-0.52909586
-0.54288223
-0.55634162
-0.56946596
-0.5822474
-0.59467829
-0.6067512
-0.61845889
-0.62979438
-0.64075088
-0.65132184
-0.66150093
-0.67128209
-0.68065945
-0.68962742
-0.69818064
-0.706314
-0.71402264
-0.72130195
-0.7281476
-0.73455549
-0.74052179
-0.74604294
-0.75111566
-0.7557369
-0.75990392
-0.76361422
-0.76686559
-0.76965609
-0.77198406
-0.7738481
-0.77524711
-0.77618024
-0.77664695
-0.77950323
-0.77903481
-0.77809825
-0.7766941
-0.77482322
-0.7724867
-0.76968595
-0.76642264
-0.76269872
-0.7585164
-0.75387818
-0.74878684
-0.7432454
-0.73725719
-0.73082577
-0.72395498
-0.71664893
-0.70891198
-0.70074875
-0.69216412
-0.68316321
-0.6737514
-0.66393432
-0.65371784
-0.64310805
-0.63211131
-0.62073418
-0.60898348
-0.59686622
-0.58438967
-0.57156127
-0.55838872
-0.54487989
-0.53104286
-0.51688594
-0.50241758
-0.48764647
-0.47258144
-0.45723153
-0.44160593
-0.42571402
-0.40956531
-0.3931695
-0.37653641
-0.35967603
-0.34259848
-0.325314
-0.30783297
-0.29016589
-0.27232337
-0.25431612
-0.23615497
-0.21785083
-0.1994147
-0.18085767
-0.16219089
-0.1434256
-0.12457309
-0.10564469
-0.086651798
-0.067605852
-0.048518319
-0.029400693
-0.01026449
0.0088787604
0.028017524
0.047140263
0.066235451
0.085291573
0.10429714
0.12324068
0.14211077
0.16089602
0.1795851
0.19816673
0.21662967
0.2349628
0.25315502
0.27119537
0.28907292
0.30677689
0.32429658
0.34162139
0.35874085
0.37564461
0.39232244
0.40876427
0.42496015
0.44090027
0.456575
0.47197484
0.48709049
0.50191278
0.51643275
0.53064161
0.54453076
0.55809178
0.57131646
0.58419679
0.59672497
0.60889342
0.62069475
0.63212182
0.64316771
0.65382572
0.66408939
0.67395251
0.68340909
0.6924534
0.70107996
0.70928355
0.71705918
0.72440214
0.73130799
0.73777253
0.74379184
0.74936228
0.75448046
0.75914329
0.76334793
0.76709184
0.77037274
0.77318864
0.77553784
0.77741892
0.77883072
0.7797724
0.78024338
0.78024338
0.7797724
0.77883072
0.77741892
0.77553784
0.77318864
0.77037274
0.76709184
0.76334793
0.75914329
0.75448046
0.74936228
0.74379184
0.73777253
0.73130799
0.72440214
0.71705918
0.70928355
0.70107996
0.6924534
0.68340909
0.67395251
0.66408939
0.65382572
0.64316771
0.63212182
0.62069475
0.60889342
0.59672497
0.58419679
0.57131646
0.55809178
0.54453076
0.53064161
0.51643275
0.50191278
0.48709049
0.47197484
0.456575
0.44090027
0.42496015
0.40876427
0.39232244
0.37564461
0.35874085
0.34162139
0.32429658
0.30677689
0.28907292
0.27119537
0.25315502
0.2349628
0.21662967
0.19816673
0.1795851
0.16089602
0.14211077
0.12324068
0.10429714
0.085291574
0.066235451
0.047140263
0.028017524
0.0088787606
-0.01026449
-0.029400693
-0.048518319
-0.067605852
-0.086651797
-0.10564469
-0.12457309
-0.1434256
-0.16219089
-0.18085767
-0.1994147
-0.21785083
-0.23615497
-0.25431612
-0.27232337
-0.29016589
-0.30783297
-0.325314
-0.34259848
-0.35967603
-0.37653641
-0.39316949
-0.40956531
-0.42571402
-0.44160593
-0.45723153
-0.47258144
-0.48764647
-0.50241758
-0.51688594
-0.53104286
-0.54487989
-0.55838872
-0.57156127
-0.58438967
-0.59686622
-0.60898348
-0.62073418
-0.63211131
-0.64310805
-0.65371784
-0.66393432
-0.6737514
-0.68316321
-0.69216412
-0.70074875
-0.70891198
-0.71664893
-0.72395498
-0.73082577
-0.73725719
-0.7432454
-0.74878684
-0.75387818
-0.7585164
-0.76269872
-0.76642264
-0.76968595
-0.7724867
-0.77482322
-0.7766941
-0.77809825
-0.77903481
-0.77950323
-0.78282913
-0.78235871
-0.78141816
-0.78000804
-0.77812918
-0.77578272
-0.77297004
-0.76969283
-0.76595304
-0.76175291
-0.75709494
-0.75198192
-0.74641688
-0.74040316
-0.73394435
-0.7270443
-0.71970713
-0.71193722
-0.70373922
-0.69511802
-0.68607876
-0.67662686
-0.66676796
-0.65650795
-0.64585297
-0.63480937
-0.62338378
-0.61158301
-0.59941413
-0.58688441
-0.57400136
-0.56077268
-0.54720628
-0.5333103
-0.51909305
-0.50456304
-0.48972898
-0.47459975
-0.45918442
-0.44349223
-0.42753258
-0.41131505
-0.39484935
-0.37814538
-0.36121313
-0.34406279
-0.32670464
-0.3091491
-0.29140671
-0.27348813
-0.25540412
-0.23716556
-0.21878339
-0.20026867
-0.18163253
-0.16288618
-0.1440409
-0.12510801
-0.10609892
-0.087025063
-0.067897925
-0.048729021
-0.029529896
-0.010312115
0.0089127431
0.028133094
0.047337353
0.066513941
0.085651297
0.10473788
0.12376217
0.1427127
0.16157803
0.18034677
0.1990076
0.21754925
0.23596051
0.25423028
0.27234751
0.29030127
0.30808069
0.32567504
0.34307369
0.3602661
0.3772419
0.39399081
0.4105027
0.42676759
0.44277563
0.45851715
0.47398261
0.48916266
0.5040481
0.51862993
0.53289933
0.54684764
0.56046643
0.57374745
0.58668264
0.59926419
0.61148447
0.62333606
0.63481181
0.64590474
0.65660814
0.66691552
0.67682064
0.68631749
0.69540032
0.70406362
0.71230213
0.72011087
0.7274851
0.73442035
0.74091242
0.74695736
0.75255151
0.75769149
0.76237417
0.76659671
0.77035655
0.77365142
0.77647931
0.77883852
0.7807276
0.78214541
0.7830911
0.78356409
0.78356409
0.7830911
0.78214541
0.7807276
0.77883852
0.77647931
0.77365142
0.77035655
0.76659671
0.76237417
0.75769149
0.75255151
0.74695736
0.74091242
0.73442035
0.7274851
0.72011087
0.71230213
0.70406362
0.69540032
0.68631749
0.67682064
0.66691552
0.65660814
0.64590474
0.63481181
0.62333606
0.61148447
0.59926419
0.58668264
0.57374745
0.56046643
0.54684764
0.53289933
0.51862993
0.5040481
0.48916266
0.47398261
0.45851715
0.44277563
0.42676759
0.4105027
0.39399081
0.3772419
0.3602661
0.34307369
0.32567504
0.30808069
0.29030127
0.27234751
0.25423028
0.23596051
0.21754925
0.1990076
0.18034677
0.16157803
0.1427127
0.12376217
0.10473788
0.085651298
0.066513942
0.047337353
0.028133094
0.0089127433
-0.010312115
-0.029529896
-0.048729021
-0.067897925
-0.087025063
-0.10609892
-0.12510801
-0.1440409
-0.16288618
-0.18163253
-0.20026867
-0.21878339
-0.23716556
-0.25540412
-0.27348813
-0.29140671
-0.3091491
-0.32670464
-0.34406279
-0.36121313
-0.37814538
-0.39484935
-0.41131505
-0.42753258
-0.44349223
-0.45918442
-0.47459975
-0.48972898
-0.50456304
-0.51909305
-0.5333103
-0.54720628
-0.56077268
-0.57400136
-0.58688441
-0.59941413
-0.61158301
-0.62338378
-0.63480937
-0.64585297
-0.65650795
-0.66676796
-0.67662686
-0.68607876
-0.69511801
-0.70373922
-0.71193722
-0.71970713
-0.7270443
-0.73394435
-0.74040316
-0.74641688
-0.75198191
-0.75709494
-0.76175291
-0.76595304
-0.76969283
-0.77297004
-0.77578272
-0.77812918
-0.78000804
-0.78141816
-0.78235871
-0.78282913
-0.78662669
-0.78615399
-0.78520889
-0.78379194
-0.78190399
-0.77954617
-0.77671987
-0.7734268
-0.76966891
-0.76544845
-0.76076793
-0.75563015
-0.75003817
-0.74399534
-0.73750525
-0.7305718
-0.7231991
-0.71539158
-0.70715388
-0.69849093
-0.68940791
-0.67991025
-0.67000361
-0.65969391
-0.64898733
-0.63789025
-0.62640932
-0.6145514
-0.60232358
-0.58973318
-0.57678773
-0.56349497
-0.54986286
-0.53589957
-0.52161344
-0.50701304
-0.49210712
-0.4769046
-0.46141458
-0.44564636
-0.42960939
-0.41331328
-0.3967678
-0.37998289
-0.3629686
-0.34573515
-0.32829288
-0.31065226
-0.29282389
-0.27481847
-0.25664683
-0.23831987
-0.21984861
-0.20124415
-0.18251769
-0.16368048
-0.14474385
-0.1257192
-0.10661797
-0.08745166
-0.068231809
-0.04896999
-0.029677802
-0.010366867
0.00895118
0.028264698
0.047562046
0.06683159
0.086061711
0.10524081
0.12435732
0.14339971
0.16235648
0.1812162
0.19996748
0.218599
0.23709951
0.25545783
0.27366287
0.29170365
0.30956924
0.32724887
0.34473184
0.36200758
0.37906564
0.39589572
0.41248764
0.42883134
0.44491696
0.46073476
0.47627516
0.49152877
0.50648634
0.52113883
0.53547736
0.54949326
0.56317803
0.57652339
0.58952125
0.60216375
0.61444323
0.62635224
0.63788357
0.64903024
0.65978549
0.6701428
0.68009589
0.68963874
0.69876556
0.70747082
0.71574924
0.72359579
0.73100574
0.73797457
0.74449808
0.75057229
0.75619354
0.76135841
0.76606376
0.77030675
0.7740848
0.77739562
0.78023721
0.78260784
0.78450607
0.78593075
0.78688101
0.78735629
0.78735629
0.78688101
0.78593075
0.78450607
0.78260784
0.78023721
0.77739562
0.7740848
0.77030675
0.76606376
0.76135841
0.75619354
0.75057229
0.74449808
0.73797457
0.73100574
0.72359579
0.71574924
0.70747082
0.69876556
0.68963874
0.68009589
0.6701428
0.65978549
0.64903024
0.63788357
0.62635224
0.61444323
0.60216375
0.58952125
0.57652339
0.56317803
0.54949326
0.53547736
0.52113883
0.50648634
0.49152877
0.47627516
0.46073476
0.44491696
0.42883134
0.41248764
0.39589572
0.37906564
0.36200758
0.34473184
0.32724887
0.30956924
0.29170365
0.27366287
0.25545783
0.23709951
0.218599
0.19996748
0.1812162
0.16235648
0.14339971
0.12435732
0.10524081
0.086061711
0.06683159
0.047562046
0.028264698
0.0089511802
-0.010366867
-0.029677802
-0.04896999
-0.068231809
-0.08745166
-0.10661797
-0.1257192
-0.14474385
-0.16368048
-0.18251769
-0.20124415
-0.21984861
-0.23831986
-0.25664683
-0.27481847
-0.29282389
-0.31065226
-0.32829288
-0.34573515
-0.3629686
-0.37998289
-0.3967678
-0.41331328
-0.42960939
-0.44564636
-0.46141458
-0.47690459
-0.49210712
-0.50701304
-0.52161344
-0.53589957
-0.54986286
-0.56349497
-0.57678773
-0.58973318
-0.60232358
-0.6145514
-0.62640932
-0.63789025
-0.64898733
-0.65969391
-0.6700036
-0.67991025
-0.68940791
-0.69849093
-0.70715388
-0.71539158
-0.7231991
-0.73057179
-0.73750525
-0.74399534
-0.75003817
-0.75563015
-0.76076793
-0.76544845
-0.76966891
-0.7734268
-0.77671987
-0.77954617
-0.78190399
-0.78379194
-0.78520889
-0.78615399
-0.78662669
-0.79089821
-0.79042295
-0.78947273
-0.78804811
-0.78614993
-0.78377933
-0.78093773
-0.77762681
-0.77384856
-0.76960523
-0.76489936
-0.75973374
-0.75411147
-0.74803589
-0.74151065
-0.73453962
-0.72712698
-0.71927715
-0.71099481
-0.70228492
-0.69315268
-0.68360354
-0.67364321
-0.66327764
-0.65251303
-0.64135581
-0.62981265
-0.61789046
-0.60559636
-0.5929377
-0.57992207
-0.56655725
-0.55285124
-0.53881224
-0.52444866
-0.5097691
-0.49478235
-0.47949739
-0.46392338
-0.44806966
-0.43194572
-0.41556123
-0.39892602
-0.38205007
-0.3649435
-0.34761657
-0.33007969
-0.31234339
-0.29441831
-0.27631522
-0.25804499
-0.23961861
-0.22104714
-0.20234176
-0.18351369
-0.16457428
-0.14553491
-0.12640704
-0.10720217
-0.087931862
-0.068607723
-0.049241387
-0.029844516
-0.010428795
0.0089940788
0.028412399
0.047814463
0.067188572
0.086523045
0.10580622
0.12502647
0.14417219
0.16323183
0.1821939
0.20104693
0.21977955
0.23838045
0.25683839
0.27514223
0.2932809
0.31124344
0.329019
0.34659683
0.36396631
0.38111693
0.39803833
0.41472027
0.43115266
0.44732555
0.46322917
0.47885388
0.49419024
0.50922896
0.52396094
0.53837726
0.55246919
0.5662282
0.57964595
0.59271432
0.6054254
0.61777148
0.62974509
0.64133897
0.65254609
0.66335967
0.67377316
0.68378023
0.69337484
0.70255115
0.71130362
0.71962693
0.72751604
0.73496617
0.74197279
0.74853167
0.75463883
0.76029055
0.76548342
0.77021429
0.77448029
0.77827883
0.7816076
0.78446459
0.78684807
0.78875659
0.790189
0.79114442
0.79162227
0.79162227
0.79114442
0.790189
0.78875659
0.78684807
0.78446459
0.7816076
0.77827883
0.77448029
0.77021429
0.76548342
0.76029055
0.75463883
0.74853167
0.74197279
0.73496617
0.72751604
0.71962693
0.71130362
0.70255115
0.69337484
0.68378023
0.67377316
0.66335967
0.65254609
0.64133897
0.62974509
0.61777148
0.6054254
0.59271432
0.57964595
0.5662282
0.55246919
0.53837726
0.52396094
0.50922896
0.49419024
0.47885388
0.46322917
0.44732555
0.43115266
0.41472027
0.39803833
0.38111693
0.36396631
0.34659683
0.329019
0.31124344
0.2932809
0.27514223
0.25683839
0.23838045
0.21977955
0.20104693
0.1821939
0.16323183
0.14417219
0.12502647
0.10580622
0.086523045
0.067188572
0.047814463
0.028412399
0.0089940788
-0.010428794
-0.029844516
-0.049241387
-0.068607723
-0.087931861
-0.10720217
-0.12640704
-0.14553491
-0.16457428
-0.18351369
-0.20234176
-0.22104714
-0.23961861
-0.25804499
-0.27631522
-0.29441831
-0.31234339
-0.33007969
-0.34761657
-0.36494349
-0.38205007
-0.39892602
-0.41556123
-0.43194572
-0.44806966
-0.46392338
-0.47949739
-0.49478235
-0.5097691
-0.52444866
-0.53881224
-0.55285124
-0.56655725
-0.57992207
-0.5929377
-0.60559636
-0.61789046
-0.62981265
-0.64135581
-0.65251303
-0.66327764