/*--------------------------------*- C++ -*----------------------------------*\
| =========                 |                                                 |
| \\      /  F ield         | OpenFOAM: The Open Source CFD Toolbox           |
|  \\    /   O peration     | Version:  2106                                  |
|   \\  /    A nd           | Website:  www.openfoam.com                      |
|    \\/     M anipulation  |                                                 |
\*---------------------------------------------------------------------------*/
FoamFile
{
    version     2.0;
    format      ascii;
    arch        "LSB;label=32;scalar=64";
    class       volVectorField;
    location    "0.044";
    object      U;
}
// * * * * * * * * * * * * * * * * * * * * * * * * * * * * * * * * * * * * * //

dimensions      [0 1 -1 0 0 0 0];

internalField   nonuniform List<vector> 
65536
(
(0.0004088214 -0.00040870047 0)
(0.0012262113 -0.00040844767 0)
(0.0020428428 -0.00040794223 0)
(0.0028582107 -0.0004071845 0)
(0.0036718108 -0.00040617497 0)
(0.00448314 -0.00040491433 0)
(0.0052916968 -0.00040340341 0)
(0.0060969814 -0.00040164322 0)
(0.0068984965 -0.00039963492 0)
(0.0076957468 -0.00039737987 0)
(0.0084882403 -0.00039487955 0)
(0.009275488 -0.00039213563 0)
(0.010057004 -0.00038914993 0)
(0.010832307 -0.00038592444 0)
(0.01160092 -0.00038246129 0)
(0.012362368 -0.00037876279 0)
(0.013116185 -0.00037483137 0)
(0.013861905 -0.00037066965 0)
(0.014599072 -0.00036628036 0)
(0.015327233 -0.00036166643 0)
(0.016045942 -0.00035683087 0)
(0.016754758 -0.00035177689 0)
(0.017453248 -0.00034650781 0)
(0.018140985 -0.00034102709 0)
(0.018817548 -0.00033533833 0)
(0.019482527 -0.00032944525 0)
(0.020135515 -0.00032335173 0)
(0.020776116 -0.00031706173 0)
(0.02140394 -0.00031057936 0)
(0.022018608 -0.00030390886 0)
(0.022619747 -0.00029705455 0)
(0.023206994 -0.0002900209 0)
(0.023779994 -0.00028281245 0)
(0.024338402 -0.00027543389 0)
(0.024881884 -0.00026788996 0)
(0.025410113 -0.00026018555 0)
(0.025922772 -0.00025232561 0)
(0.026419557 -0.00024431519 0)
(0.02690017 -0.00023615943 0)
(0.027364327 -0.00022786354 0)
(0.027811752 -0.00021943283 0)
(0.028242182 -0.00021087268 0)
(0.028655361 -0.00020218851 0)
(0.029051049 -0.00019338585 0)
(0.029429013 -0.00018447027 0)
(0.029789033 -0.00017544741 0)
(0.030130901 -0.00016632296 0)
(0.030454418 -0.00015710264 0)
(0.030759399 -0.00014779226 0)
(0.03104567 -0.00013839765 0)
(0.031313067 -0.00012892467 0)
(0.03156144 -0.00011937922 0)
(0.03179065 -0.00010976725 0)
(0.03200057 -0.00010009472 0)
(0.032191085 -9.0367602e-05 0)
(0.032362091 -8.0591914e-05 0)
(0.032513497 -7.0773672e-05 0)
(0.032645224 -6.0918907e-05 0)
(0.032757206 -5.1033657e-05 0)
(0.032849387 -4.1123964e-05 0)
(0.032921724 -3.1195868e-05 0)
(0.032974187 -2.1255407e-05 0)
(0.033006757 -1.1308605e-05 0)
(0.033019427 -1.3614339e-06 0)
(0.033012203 8.579833e-06 0)
(0.032985102 1.8509625e-05 0)
(0.032938153 2.8421807e-05 0)
(0.032871398 3.8310378e-05 0)
(0.032784889 4.8169474e-05 0)
(0.032678692 5.7993228e-05 0)
(0.032552883 6.7775806e-05 0)
(0.03240755 7.7511409e-05 0)
(0.032242793 8.7194285e-05 0)
(0.032058723 9.6818726e-05 0)
(0.031855463 0.00010637907 0)
(0.031633147 0.00011586972 0)
(0.031391918 0.00012528512 0)
(0.031131935 0.00013461978 0)
(0.030853363 0.00014386826 0)
(0.03055638 0.00015302521 0)
(0.030241176 0.00016208531 0)
(0.029907948 0.00017104333 0)
(0.029556906 0.00017989413 0)
(0.029188269 0.00018863261 0)
(0.028802269 0.00019725376 0)
(0.028399143 0.00020575267 0)
(0.027979142 0.00021412447 0)
(0.027542524 0.00022236441 0)
(0.027089559 0.00023046781 0)
(0.026620523 0.00023843009 0)
(0.026135704 0.00024624675 0)
(0.025635397 0.00025391338 0)
(0.025119908 0.00026142567 0)
(0.024589548 0.0002687794 0)
(0.024044639 0.00027597048 0)
(0.02348551 0.00028299486 0)
(0.0229125 0.00028984865 0)
(0.022325953 0.00029652803 0)
(0.021726221 0.00030302929 0)
(0.021113665 0.00030934883 0)
(0.020488652 0.00031548316 0)
(0.019851555 0.0003214289 0)
(0.019202756 0.00032718276 0)
(0.01854264 0.00033274159 0)
(0.017871602 0.00033810234 0)
(0.017190041 0.00034326208 0)
(0.016498361 0.00034821797 0)
(0.015796974 0.00035296731 0)
(0.015086294 0.00035750752 0)
(0.014366743 0.00036183612 0)
(0.013638746 0.00036595076 0)
(0.012902734 0.0003698492 0)
(0.012159142 0.00037352934 0)
(0.011408407 0.00037698918 0)
(0.010650974 0.00038022685 0)
(0.0098872867 0.0003832406 0)
(0.0091177962 0.0003860288 0)
(0.0083429549 0.00038858996 0)
(0.0075632184 0.00039092268 0)
(0.0067790449 0.00039302572 0)
(0.005990895 0.00039489794 0)
(0.0051992316 0.00039653834 0)
(0.0044045193 0.00039794603 0)
(0.0036072243 0.00039912027 0)
(0.0028078143 0.00040006041 0)
(0.0020067582 0.00040076596 0)
(0.0012045257 0.00040123654 0)
(0.00040158704 0.00040147189 0)
(-0.00040158704 0.00040147189 0)
(-0.0012045257 0.00040123654 0)
(-0.0020067582 0.00040076596 0)
(-0.0028078143 0.00040006041 0)
(-0.0036072243 0.00039912027 0)
(-0.0044045193 0.00039794603 0)
(-0.0051992316 0.00039653834 0)
(-0.0059908951 0.00039489794 0)
(-0.0067790449 0.00039302572 0)
(-0.0075632184 0.00039092268 0)
(-0.0083429549 0.00038858996 0)
(-0.0091177962 0.0003860288 0)
(-0.0098872867 0.0003832406 0)
(-0.010650974 0.00038022685 0)
(-0.011408407 0.00037698918 0)
(-0.012159142 0.00037352934 0)
(-0.012902735 0.0003698492 0)
(-0.013638746 0.00036595076 0)
(-0.014366743 0.00036183612 0)
(-0.015086294 0.00035750752 0)
(-0.015796974 0.00035296731 0)
(-0.016498361 0.00034821797 0)
(-0.017190041 0.00034326208 0)
(-0.017871602 0.00033810234 0)
(-0.01854264 0.00033274159 0)
(-0.019202756 0.00032718276 0)
(-0.019851555 0.0003214289 0)
(-0.020488652 0.00031548316 0)
(-0.021113665 0.00030934883 0)
(-0.021726221 0.00030302929 0)
(-0.022325953 0.00029652803 0)
(-0.0229125 0.00028984865 0)
(-0.02348551 0.00028299486 0)
(-0.024044639 0.00027597048 0)
(-0.024589548 0.0002687794 0)
(-0.025119908 0.00026142567 0)
(-0.025635397 0.00025391338 0)
(-0.026135704 0.00024624675 0)
(-0.026620523 0.00023843009 0)
(-0.027089559 0.00023046781 0)
(-0.027542524 0.00022236441 0)
(-0.027979142 0.00021412447 0)
(-0.028399143 0.00020575267 0)
(-0.028802269 0.00019725376 0)
(-0.029188269 0.00018863261 0)
(-0.029556906 0.00017989413 0)
(-0.029907948 0.00017104333 0)
(-0.030241176 0.00016208531 0)
(-0.03055638 0.00015302521 0)
(-0.030853363 0.00014386826 0)
(-0.031131935 0.00013461978 0)
(-0.031391918 0.00012528512 0)
(-0.031633147 0.00011586972 0)
(-0.031855463 0.00010637907 0)
(-0.032058723 9.6818726e-05 0)
(-0.032242793 8.7194285e-05 0)
(-0.03240755 7.7511409e-05 0)
(-0.032552883 6.7775806e-05 0)
(-0.032678692 5.7993228e-05 0)
(-0.032784889 4.8169474e-05 0)
(-0.032871398 3.8310378e-05 0)
(-0.032938153 2.8421807e-05 0)
(-0.032985102 1.8509625e-05 0)
(-0.033012203 8.5798329e-06 0)
(-0.033019427 -1.361434e-06 0)
(-0.033006757 -1.1308605e-05 0)
(-0.032974187 -2.1255407e-05 0)
(-0.032921724 -3.1195868e-05 0)
(-0.032849387 -4.1123964e-05 0)
(-0.032757206 -5.1033657e-05 0)
(-0.032645224 -6.0918907e-05 0)
(-0.032513497 -7.0773672e-05 0)
(-0.032362091 -8.0591914e-05 0)
(-0.032191085 -9.0367602e-05 0)
(-0.03200057 -0.00010009472 0)
(-0.03179065 -0.00010976725 0)
(-0.03156144 -0.00011937922 0)
(-0.031313067 -0.00012892467 0)
(-0.03104567 -0.00013839765 0)
(-0.030759399 -0.00014779226 0)
(-0.030454418 -0.00015710264 0)
(-0.030130901 -0.00016632295 0)
(-0.029789033 -0.00017544741 0)
(-0.029429013 -0.00018447027 0)
(-0.029051049 -0.00019338585 0)
(-0.028655361 -0.00020218851 0)
(-0.028242182 -0.00021087268 0)
(-0.027811752 -0.00021943283 0)
(-0.027364327 -0.00022786354 0)
(-0.02690017 -0.00023615943 0)
(-0.026419557 -0.00024431519 0)
(-0.025922772 -0.00025232561 0)
(-0.025410113 -0.00026018555 0)
(-0.024881884 -0.00026788996 0)
(-0.024338402 -0.00027543389 0)
(-0.023779994 -0.00028281245 0)
(-0.023206994 -0.0002900209 0)
(-0.022619747 -0.00029705455 0)
(-0.022018608 -0.00030390886 0)
(-0.02140394 -0.00031057936 0)
(-0.020776116 -0.00031706173 0)
(-0.020135515 -0.00032335173 0)
(-0.019482527 -0.00032944525 0)
(-0.018817548 -0.00033533833 0)
(-0.018140985 -0.00034102709 0)
(-0.017453248 -0.00034650781 0)
(-0.016754758 -0.00035177689 0)
(-0.016045942 -0.00035683087 0)
(-0.015327233 -0.00036166643 0)
(-0.014599072 -0.00036628036 0)
(-0.013861905 -0.00037066965 0)
(-0.013116185 -0.00037483137 0)
(-0.012362368 -0.00037876279 0)
(-0.01160092 -0.00038246129 0)
(-0.010832307 -0.00038592444 0)
(-0.010057004 -0.00038914993 0)
(-0.0092754879 -0.00039213563 0)
(-0.0084882403 -0.00039487955 0)
(-0.0076957468 -0.00039737987 0)
(-0.0068984965 -0.00039963492 0)
(-0.0060969814 -0.00040164322 0)
(-0.0052916968 -0.00040340341 0)
(-0.00448314 -0.00040491433 0)
(-0.0036718108 -0.00040617497 0)
(-0.0028582107 -0.0004071845 0)
(-0.0020428428 -0.00040794223 0)
(-0.0012262113 -0.00040844767 0)
(-0.0004088214 -0.00040870047 0)
(0.00040921289 -0.0012263991 0)
(0.0012273855 -0.0012256405 0)
(0.002044799 -0.0012241238 0)
(0.0028609476 -0.0012218501 0)
(0.0036753267 -0.0012188207 0)
(0.0044874327 -0.0012150379 0)
(0.0052967637 -0.001210504 0)
(0.0061028192 -0.0012052221 0)
(0.0069051015 -0.0011991957 0)
(0.0077031149 -0.0011924289 0)
(0.0084963669 -0.0011849261 0)
(0.0092843679 -0.0011766923 0)
(0.010066632 -0.0011677329 0)
(0.010842677 -0.0011580541 0)
(0.011612024 -0.0011476621 0)
(0.012374201 -0.0011365638 0)
(0.013128738 -0.0011247666 0)
(0.013875172 -0.0011122784 0)
(0.014613044 -0.0010991073 0)
(0.0153419 -0.001085262 0)
(0.016061296 -0.0010707518 0)
(0.016770789 -0.0010555861 0)
(0.017469946 -0.0010397749 0)
(0.018158339 -0.0010233287 0)
(0.018835549 -0.0010062582 0)
(0.019501162 -0.00098857464 0)
(0.020154773 -0.00097028955 0)
(0.020795984 -0.0009514149 0)
(0.021424408 -0.00093196302 0)
(0.022039661 -0.00091194658 0)
(0.022641373 -0.0008913786 0)
(0.023229178 -0.00087027245 0)
(0.023802724 -0.0008486418 0)
(0.024361664 -0.00082650066 0)
(0.024905663 -0.00080386334 0)
(0.025434394 -0.00078074444 0)
(0.025947541 -0.00075715883 0)
(0.026444797 -0.00073312168 0)
(0.026925867 -0.00070864841 0)
(0.027390464 -0.00068375466 0)
(0.027838313 -0.00065845634 0)
(0.028269151 -0.00063276959 0)
(0.028682722 -0.00060671073 0)
(0.029078784 -0.00058029631 0)
(0.029457105 -0.00055354305 0)
(0.029817466 -0.00052646786 0)
(0.030159656 -0.00049908782 0)
(0.030483479 -0.00047142015 0)
(0.030788747 -0.00044348222 0)
(0.031075287 -0.00041529152 0)
(0.031342936 -0.00038686567 0)
(0.031591543 -0.00035822238 0)
(0.031820968 -0.00032937947 0)
(0.032031084 -0.00030035482 0)
(0.032221776 -0.00027116641 0)
(0.032392941 -0.00024183224 0)
(0.032544488 -0.00021237038 0)
(0.032676337 -0.00018279893 0)
(0.032788422 -0.00015313601 0)
(0.032880687 -0.00012339975 0)
(0.032953089 -9.3608274e-05 0)
(0.033005598 -6.3779701e-05 0)
(0.033038195 -3.3932129e-05 0)
(0.033050873 -4.0836272e-06 0)
(0.033043639 2.5747794e-05 0)
(0.033016508 5.5544274e-05 0)
(0.032969511 8.5287857e-05 0)
(0.032902688 0.00011496069 0)
(0.032816093 0.00014454509 0)
(0.032709791 0.00017402343 0)
(0.032583859 0.00020337821 0)
(0.032438384 0.00023259202 0)
(0.032273467 0.00026164762 0)
(0.032089218 0.00029052786 0)
(0.031885761 0.00031921577 0)
(0.03166323 0.00034769453 0)
(0.031421769 0.00037594748 0)
(0.031161535 0.00040395815 0)
(0.030882695 0.00043171023 0)
(0.030585427 0.00045918761 0)
(0.030269919 0.0004863744 0)
(0.029936371 0.0005132549 0)
(0.029584993 0.00053981361 0)
(0.029216004 0.0005660353 0)
(0.028829633 0.00059190492 0)
(0.028426122 0.0006174077 0)
(0.028005719 0.00064252908 0)
(0.027568684 0.00066725478 0)
(0.027115286 0.00069157077 0)
(0.026645803 0.00071546328 0)
(0.026160521 0.00073891881 0)
(0.025659737 0.00076192416 0)
(0.025143756 0.00078446637 0)
(0.02461289 0.00080653282 0)
(0.024067462 0.00082811114 0)
(0.023507801 0.0008491893 0)
(0.022934245 0.00086975553 0)
(0.02234714 0.0008897984 0)
(0.021746838 0.0009093068 0)
(0.021133699 0.00092826991 0)
(0.020508091 0.00094667726 0)
(0.019870389 0.00096451868 0)
(0.019220972 0.00098178435 0)
(0.01856023 0.00099846479 0)
(0.017888554 0.0010145508 0)
(0.017206345 0.0010300337 0)
(0.016514009 0.0010449049 0)
(0.015811955 0.0010591563 0)
(0.015100601 0.0010727801 0)
(0.014380367 0.0010857689 0)
(0.013651679 0.0010981158 0)
(0.012914969 0.0011098139 0)
(0.012170671 0.0011208569 0)
(0.011419224 0.0011312389 0)
(0.010661072 0.0011409542 0)
(0.0098966602 0.0011499975 0)
(0.00912644 0.0011583641 0)
(0.0083508639 0.0011660494 0)
(0.007570388 0.0011730492 0)
(0.006785471 0.0011793598 0)
(0.0059965739 0.0011849778 0)
(0.0052041599 0.0011899001 0)
(0.0044086942 0.0011941242 0)
(0.0036106434 0.0011976477 0)
(0.0028104757 0.0012004688 0)
(0.0020086603 0.001202586 0)
(0.0012056674 0.001203998 0)
(0.00040196768 0.0012047043 0)
(-0.00040196768 0.0012047043 0)
(-0.0012056674 0.001203998 0)
(-0.0020086603 0.001202586 0)
(-0.0028104757 0.0012004688 0)
(-0.0036106434 0.0011976477 0)
(-0.0044086942 0.0011941242 0)
(-0.0052041599 0.0011899001 0)
(-0.0059965739 0.0011849778 0)
(-0.006785471 0.0011793598 0)
(-0.007570388 0.0011730492 0)
(-0.0083508639 0.0011660494 0)
(-0.00912644 0.0011583641 0)
(-0.0098966602 0.0011499975 0)
(-0.010661072 0.0011409542 0)
(-0.011419224 0.0011312389 0)
(-0.012170671 0.0011208569 0)
(-0.012914969 0.0011098139 0)
(-0.013651679 0.0010981158 0)
(-0.014380367 0.0010857689 0)
(-0.015100601 0.0010727801 0)
(-0.015811955 0.0010591563 0)
(-0.016514009 0.0010449049 0)
(-0.017206345 0.0010300337 0)
(-0.017888554 0.0010145508 0)
(-0.01856023 0.00099846479 0)
(-0.019220972 0.00098178435 0)
(-0.019870389 0.00096451868 0)
(-0.020508091 0.00094667726 0)
(-0.021133699 0.00092826991 0)
(-0.021746838 0.0009093068 0)
(-0.02234714 0.0008897984 0)
(-0.022934245 0.00086975553 0)
(-0.023507801 0.0008491893 0)
(-0.024067462 0.00082811114 0)
(-0.02461289 0.00080653282 0)
(-0.025143756 0.00078446637 0)
(-0.025659737 0.00076192416 0)
(-0.026160521 0.00073891881 0)
(-0.026645803 0.00071546328 0)
(-0.027115286 0.00069157077 0)
(-0.027568684 0.00066725478 0)
(-0.028005719 0.00064252908 0)
(-0.028426122 0.0006174077 0)
(-0.028829633 0.00059190492 0)
(-0.029216004 0.0005660353 0)
(-0.029584993 0.00053981361 0)
(-0.029936371 0.0005132549 0)
(-0.030269919 0.0004863744 0)
(-0.030585427 0.00045918761 0)
(-0.030882695 0.00043171023 0)
(-0.031161535 0.00040395815 0)
(-0.031421769 0.00037594748 0)
(-0.03166323 0.00034769453 0)
(-0.031885761 0.00031921577 0)
(-0.032089218 0.00029052786 0)
(-0.032273467 0.00026164762 0)
(-0.032438384 0.00023259202 0)
(-0.032583859 0.00020337821 0)
(-0.032709791 0.00017402343 0)
(-0.032816093 0.00014454509 0)
(-0.032902688 0.00011496069 0)
(-0.032969511 8.5287857e-05 0)
(-0.033016508 5.5544274e-05 0)
(-0.033043639 2.5747794e-05 0)
(-0.033050873 -4.0836273e-06 0)
(-0.033038195 -3.3932129e-05 0)
(-0.033005598 -6.3779701e-05 0)
(-0.032953089 -9.3608274e-05 0)
(-0.032880687 -0.00012339975 0)
(-0.032788422 -0.00015313601 0)
(-0.032676337 -0.00018279893 0)
(-0.032544488 -0.00021237038 0)
(-0.032392941 -0.00024183224 0)
(-0.032221776 -0.00027116641 0)
(-0.032031084 -0.00030035482 0)
(-0.031820968 -0.00032937947 0)
(-0.031591543 -0.00035822238 0)
(-0.031342936 -0.00038686567 0)
(-0.031075287 -0.00041529152 0)
(-0.030788747 -0.00044348222 0)
(-0.030483479 -0.00047142015 0)
(-0.030159656 -0.00049908782 0)
(-0.029817466 -0.00052646786 0)
(-0.029457105 -0.00055354305 0)
(-0.029078784 -0.00058029631 0)
(-0.028682722 -0.00060671073 0)
(-0.028269151 -0.00063276959 0)
(-0.027838313 -0.00065845634 0)
(-0.027390464 -0.00068375466 0)
(-0.026925867 -0.00070864841 0)
(-0.026444797 -0.00073312168 0)
(-0.025947541 -0.00075715883 0)
(-0.025434394 -0.00078074444 0)
(-0.024905663 -0.00080386334 0)
(-0.024361664 -0.00082650066 0)
(-0.023802724 -0.0008486418 0)
(-0.023229178 -0.00087027245 0)
(-0.022641373 -0.0008913786 0)
(-0.022039661 -0.00091194658 0)
(-0.021424408 -0.00093196302 0)
(-0.020795984 -0.0009514149 0)
(-0.020154773 -0.00097028955 0)
(-0.019501162 -0.00098857464 0)
(-0.018835549 -0.0010062582 0)
(-0.018158339 -0.0010233287 0)
(-0.017469946 -0.0010397749 0)
(-0.016770789 -0.0010555861 0)
(-0.016061296 -0.0010707518 0)
(-0.0153419 -0.001085262 0)
(-0.014613044 -0.0010991073 0)
(-0.013875172 -0.0011122784 0)
(-0.013128738 -0.0011247666 0)
(-0.012374201 -0.0011365638 0)
(-0.011612024 -0.0011476621 0)
(-0.010842677 -0.0011580541 0)
(-0.010066632 -0.0011677329 0)
(-0.0092843679 -0.0011766923 0)
(-0.0084963669 -0.0011849261 0)
(-0.0077031149 -0.0011924289 0)
(-0.0069051015 -0.0011991957 0)
(-0.0061028192 -0.0012052221 0)
(-0.0052967637 -0.001210504 0)
(-0.0044874327 -0.0012150379 0)
(-0.0036753267 -0.0012188207 0)
(-0.0028609476 -0.0012218501 0)
(-0.002044799 -0.0012241238 0)
(-0.0012273855 -0.0012256405 0)
(-0.00040921289 -0.0012263991 0)
(0.00040986953 -0.0020452224 0)
(0.0012293551 -0.0020439573 0)
(0.0020480801 -0.002041428 0)
(0.0028655384 -0.0020376361 0)
(0.0036812243 -0.0020325841 0)
(0.0044946334 -0.0020262755 0)
(0.0053052629 -0.0020187145 0)
(0.0061126118 -0.002009906 0)
(0.0069161812 -0.0019998559 0)
(0.007715475 -0.001988571 0)
(0.0085099996 -0.0019760587 0)
(0.0092992647 -0.0019623274 0)
(0.010082784 -0.0019473862 0)
(0.010860073 -0.0019312449 0)
(0.011630655 -0.0019139144 0)
(0.012394054 -0.0018954061 0)
(0.013149802 -0.0018757322 0)
(0.013897432 -0.0018549059 0)
(0.014636487 -0.0018329407 0)
(0.015366513 -0.0018098514 0)
(0.016087062 -0.001785653 0)
(0.016797692 -0.0017603615 0)
(0.01749797 -0.0017339937 0)
(0.018187467 -0.0017065667 0)
(0.018865762 -0.0016780987 0)
(0.019532442 -0.0016486083 0)
(0.0201871 -0.0016181147 0)
(0.020829339 -0.001586638 0)
(0.021458769 -0.0015541986 0)
(0.022075009 -0.0015208177 0)
(0.022677684 -0.0014865171 0)
(0.023266431 -0.0014513189 0)
(0.023840896 -0.0014152461 0)
(0.024400731 -0.001378322 0)
(0.0249456 -0.0013405704 0)
(0.025475178 -0.0013020157 0)
(0.025989146 -0.0012626827 0)
(0.026487199 -0.0012225967 0)
(0.026969038 -0.0011817833 0)
(0.027434379 -0.0011402688 0)
(0.027882945 -0.0010980796 0)
(0.028314472 -0.0010552426 0)
(0.028728704 -0.0010117851 0)
(0.0291254 -0.00096773464 0)
(0.029504326 -0.00092311912 0)
(0.029865263 -0.00087796674 0)
(0.030208 -0.00083230598 0)
(0.03053234 -0.00078616555 0)
(0.030838097 -0.00073957443 0)
(0.031125095 -0.00069256179 0)
(0.031393171 -0.000645157 0)
(0.031642174 -0.00059738962 0)
(0.031871965 -0.00054928933 0)
(0.032082417 -0.00050088599 0)
(0.032273413 -0.00045220955 0)
(0.032444851 -0.00040329005 0)
(0.032596639 -0.00035415762 0)
(0.032728698 -0.00030484244 0)
(0.032840961 -0.00025537473 0)
(0.032933373 -0.00020578472 0)
(0.03300589 -0.00015610264 0)
(0.033058481 -0.0001063587 0)
(0.033091129 -5.6583086e-05 0)
(0.033103827 -6.805913e-06 0)
(0.033096579 4.2942787e-05 0)
(0.033069404 9.2633129e-05 0)
(0.03302233 0.00014223525 0)
(0.032955399 0.00019171941 0)
(0.032868665 0.00024105609 0)
(0.032762191 0.00029021589 0)
(0.032636056 0.00033916961 0)
(0.032490347 0.00038788826 0)
(0.032325165 0.00043634303 0)
(0.03214062 0.00048450537 0)
(0.031936836 0.00053234696 0)
(0.031713948 0.00057983975 0)
(0.031472099 0.00062695596 0)
(0.031211448 0.00067366811 0)
(0.03093216 0.00071994902 0)
(0.030634415 0.00076577183 0)
(0.030318402 0.00081111002 0)
(0.029984319 0.00085593741 0)
(0.029632377 0.00090022818 0)
(0.029262796 0.00094395689 0)
(0.028875806 0.00098709848 0)
(0.028471648 0.0010296283 0)
(0.028050572 0.0010715221 0)
(0.027612837 0.001112756 0)
(0.027158712 0.0011533066 0)
(0.026688476 0.001193151 0)
(0.026202417 0.0012322667 0)
(0.025700831 0.0012706316 0)
(0.025184023 0.0013082242 0)
(0.024652307 0.0013450234 0)
(0.024106005 0.0013810085 0)
(0.023545447 0.0014161595 0)
(0.022970973 0.0014504568 0)
(0.022382927 0.0014838814 0)
(0.021781663 0.0015164146 0)
(0.021167542 0.0015480384 0)
(0.020540932 0.0015787355 0)
(0.019902208 0.0016084887 0)
(0.019251752 0.0016372818 0)
(0.018589951 0.001665099 0)
(0.0179172 0.0016919249 0)
(0.017233898 0.0017177449 0)
(0.016540453 0.0017425448 0)
(0.015837275 0.0017663111 0)
(0.015124781 0.0017890309 0)
(0.014403394 0.0018106918 0)
(0.013673539 0.001831282 0)
(0.012935649 0.0018507903 0)
(0.012190159 0.0018692062 0)
(0.011437509 0.0018865196 0)
(0.010678143 0.0019027214 0)
(0.0099125075 0.0019178025 0)
(0.0091410538 0.001931755 0)
(0.0083642358 0.0019445714 0)
(0.0075825101 0.0019562446 0)
(0.0067963363 0.0019667685 0)
(0.0060061759 0.0019761373 0)
(0.0052124931 0.0019843461 0)
(0.0044157536 0.0019913903 0)
(0.003616425 0.0019972664 0)
(0.002814976 0.002001971 0)
(0.0020118767 0.0020055016 0)
(0.001207598 0.0020078564 0)
(0.00040261133 0.0020090342 0)
(-0.00040261133 0.0020090342 0)
(-0.001207598 0.0020078564 0)
(-0.0020118767 0.0020055016 0)
(-0.002814976 0.002001971 0)
(-0.003616425 0.0019972664 0)
(-0.0044157536 0.0019913903 0)
(-0.0052124931 0.0019843461 0)
(-0.0060061759 0.0019761373 0)
(-0.0067963363 0.0019667685 0)
(-0.0075825102 0.0019562446 0)
(-0.0083642358 0.0019445714 0)
(-0.0091410538 0.001931755 0)
(-0.0099125075 0.0019178025 0)
(-0.010678143 0.0019027214 0)
(-0.011437509 0.0018865196 0)
(-0.012190159 0.0018692062 0)
(-0.012935649 0.0018507903 0)
(-0.013673539 0.001831282 0)
(-0.014403394 0.0018106918 0)
(-0.015124781 0.0017890309 0)
(-0.015837275 0.0017663111 0)
(-0.016540453 0.0017425448 0)
(-0.017233898 0.0017177449 0)
(-0.0179172 0.0016919249 0)
(-0.018589951 0.001665099 0)
(-0.019251752 0.0016372818 0)
(-0.019902208 0.0016084887 0)
(-0.020540932 0.0015787355 0)
(-0.021167542 0.0015480384 0)
(-0.021781663 0.0015164146 0)
(-0.022382927 0.0014838814 0)
(-0.022970973 0.0014504568 0)
(-0.023545447 0.0014161595 0)
(-0.024106005 0.0013810085 0)
(-0.024652307 0.0013450234 0)
(-0.025184023 0.0013082242 0)
(-0.025700831 0.0012706316 0)
(-0.026202417 0.0012322667 0)
(-0.026688476 0.001193151 0)
(-0.027158712 0.0011533066 0)
(-0.027612837 0.001112756 0)
(-0.028050572 0.0010715221 0)
(-0.028471648 0.0010296283 0)
(-0.028875806 0.00098709848 0)
(-0.029262796 0.00094395689 0)
(-0.029632377 0.00090022818 0)
(-0.029984319 0.00085593741 0)
(-0.030318402 0.00081111002 0)
(-0.030634415 0.00076577183 0)
(-0.03093216 0.00071994902 0)
(-0.031211448 0.00067366811 0)
(-0.031472099 0.00062695596 0)
(-0.031713948 0.00057983975 0)
(-0.031936836 0.00053234696 0)
(-0.03214062 0.00048450537 0)
(-0.032325165 0.00043634303 0)
(-0.032490347 0.00038788826 0)
(-0.032636056 0.00033916961 0)
(-0.032762191 0.00029021589 0)
(-0.032868665 0.00024105609 0)
(-0.032955399 0.00019171941 0)
(-0.03302233 0.00014223525 0)
(-0.033069404 9.2633129e-05 0)
(-0.033096579 4.2942787e-05 0)
(-0.033103827 -6.8059131e-06 0)
(-0.033091129 -5.6583086e-05 0)
(-0.033058481 -0.0001063587 0)
(-0.03300589 -0.00015610264 0)
(-0.032933373 -0.00020578472 0)
(-0.032840961 -0.00025537473 0)
(-0.032728698 -0.00030484244 0)
(-0.032596639 -0.00035415762 0)
(-0.032444851 -0.00040329005 0)
(-0.032273413 -0.00045220955 0)
(-0.032082417 -0.00050088599 0)
(-0.031871965 -0.00054928933 0)
(-0.031642174 -0.00059738962 0)
(-0.031393171 -0.000645157 0)
(-0.031125095 -0.00069256179 0)
(-0.030838097 -0.00073957443 0)
(-0.03053234 -0.00078616555 0)
(-0.030208 -0.00083230598 0)
(-0.029865263 -0.00087796674 0)
(-0.029504326 -0.00092311912 0)
(-0.0291254 -0.00096773464 0)
(-0.028728704 -0.0010117851 0)
(-0.028314472 -0.0010552426 0)
(-0.027882945 -0.0010980796 0)
(-0.027434379 -0.0011402688 0)
(-0.026969038 -0.0011817833 0)
(-0.026487199 -0.0012225967 0)
(-0.025989146 -0.0012626827 0)
(-0.025475178 -0.0013020157 0)
(-0.0249456 -0.0013405704 0)
(-0.024400731 -0.001378322 0)
(-0.023840896 -0.0014152461 0)
(-0.023266431 -0.0014513189 0)
(-0.022677684 -0.0014865171 0)
(-0.022075009 -0.0015208177 0)
(-0.021458769 -0.0015541986 0)
(-0.020829339 -0.001586638 0)
(-0.0201871 -0.0016181147 0)
(-0.019532442 -0.0016486083 0)
(-0.018865762 -0.0016780987 0)
(-0.018187467 -0.0017065667 0)
(-0.01749797 -0.0017339937 0)
(-0.016797692 -0.0017603615 0)
(-0.016087062 -0.001785653 0)
(-0.015366513 -0.0018098514 0)
(-0.014636487 -0.0018329407 0)
(-0.013897432 -0.0018549059 0)
(-0.013149802 -0.0018757322 0)
(-0.012394054 -0.0018954061 0)
(-0.011630655 -0.0019139144 0)
(-0.010860073 -0.0019312449 0)
(-0.010082784 -0.0019473862 0)
(-0.0092992647 -0.0019623274 0)
(-0.0085099996 -0.0019760587 0)
(-0.007715475 -0.001988571 0)
(-0.0069161812 -0.0019998559 0)
(-0.0061126118 -0.002009906 0)
(-0.0053052629 -0.0020187145 0)
(-0.0044946334 -0.0020262755 0)
(-0.0036812243 -0.0020325841 0)
(-0.0028655384 -0.0020376361 0)
(-0.0020480801 -0.002041428 0)
(-0.0012293551 -0.0020439573 0)
(-0.00040986953 -0.0020452224 0)
(0.00041079148 -0.0028656279 0)
(0.0012321203 -0.0028638553 0)
(0.002052687 -0.0028603114 0)
(0.0028719841 -0.0028549984 0)
(0.0036895047 -0.0028479199 0)
(0.0045047435 -0.0028390807 0)
(0.0053171963 -0.0028284866 0)
(0.0061263612 -0.0028161446 0)
(0.0069317382 -0.0028020631 0)
(0.0077328297 -0.0027862513 0)
(0.0085291414 -0.0027687199 0)
(0.0093201818 -0.0027494804 0)
(0.010105463 -0.0027285456 0)
(0.010884501 -0.0027059295 0)
(0.011656816 -0.002681647 0)
(0.012421932 -0.0026557142 0)
(0.013179379 -0.0026281484 0)
(0.013928691 -0.0025989678 0)
(0.014669408 -0.0025681916 0)
(0.015401076 -0.0025358402 0)
(0.016123245 -0.0025019349 0)
(0.016835474 -0.0024664981 0)
(0.017537327 -0.0024295531 0)
(0.018228374 -0.0023911241 0)
(0.018908194 -0.0023512365 0)
(0.019576373 -0.0023099163 0)
(0.020232504 -0.0022671907 0)
(0.020876188 -0.0022230875 0)
(0.021507033 -0.0021776355 0)
(0.022124658 -0.0021308643 0)
(0.022728689 -0.0020828044 0)
(0.02331876 -0.0020334871 0)
(0.023894517 -0.0019829441 0)
(0.024455611 -0.0019312084 0)
(0.025001706 -0.0018783133 0)
(0.025532474 -0.001824293 0)
(0.026047599 -0.0017691821 0)
(0.026546771 -0.0017130162 0)
(0.027029695 -0.0016558313 0)
(0.027496082 -0.0015976639 0)
(0.027945657 -0.0015385512 0)
(0.028378154 -0.0014785308 0)
(0.028793319 -0.0014176411 0)
(0.029190907 -0.0013559205 0)
(0.029570686 -0.0012934082 0)
(0.029932434 -0.0012301437 0)
(0.030275943 -0.001166167 0)
(0.030601013 -0.0011015181 0)
(0.030907458 -0.0010362378 0)
(0.031195101 -0.00097036691 0)
(0.031463781 -0.00090394657 0)
(0.031713345 -0.00083701818 0)
(0.031943654 -0.00076962337 0)
(0.03215458 -0.00070180395 0)
(0.032346007 -0.00063360188 0)
(0.032517831 -0.00056505926 0)
(0.032669962 -0.00049621831 0)
(0.032802319 -0.00042712131 0)
(0.032914835 -0.0003578106 0)
(0.033007455 -0.00028832854 0)
(0.033080137 -0.00021871749 0)
(0.033132848 -0.00014901977 0)
(0.033165571 -7.9277671e-05 0)
(0.033178298 -9.5333814e-06 0)
(0.033171035 6.017102e-05 0)
(0.0331438 0.00012979361 0)
(0.033096622 0.00019929257 0)
(0.033029542 0.00026862628 0)
(0.032942614 0.00033775334 0)
(0.032835903 0.00040663257 0)
(0.032709486 0.00047522306 0)
(0.03256345 0.00054348416 0)
(0.032397898 0.00061137554 0)
(0.03221294 0.00067885718 0)
(0.032008699 0.00074588941 0)
(0.031785311 0.00081243293 0)
(0.03154292 0.00087844881 0)
(0.031281683 0.00094389854 0)
(0.031001769 0.001008744 0)
(0.030703356 0.0010729477 0)
(0.030386633 0.0011364723 0)
(0.0300518 0.0011992813 0)
(0.029699068 0.0012613383 0)
(0.029328657 0.0013226079 0)
(0.028940798 0.0013830548 0)
(0.028535731 0.0014426445 0)
(0.028113709 0.001501343 0)
(0.02767499 0.001559117 0)
(0.027219844 0.0016159337 0)
(0.026748552 0.0016717608 0)
(0.0262614 0.0017265669 0)
(0.025758686 0.0017803211 0)
(0.025240716 0.0018329931 0)
(0.024707804 0.0018845535 0)
(0.024160274 0.0019349733 0)
(0.023598455 0.0019842244 0)
(0.023022689 0.0020322793 0)
(0.02243332 0.0020791114 0)
(0.021830703 0.0021246945 0)
(0.021215201 0.0021690036 0)
(0.020587181 0.0022120141 0)
(0.01994702 0.0022537022 0)
(0.0192951 0.0022940451 0)
(0.01863181 0.0023330205 0)
(0.017957545 0.002370607 0)
(0.017272705 0.0024067841 0)
(0.016577699 0.002441532 0)
(0.015872938 0.0024748316 0)
(0.015158841 0.002506665 0)
(0.014435829 0.0025370146 0)
(0.013704332 0.0025658641 0)
(0.01296478 0.0025931978 0)
(0.012217612 0.0026190008 0)
(0.011463267 0.0026432592 0)
(0.010702191 0.0026659599 0)
(0.0099348315 0.0026870905 0)
(0.0091616407 0.0027066398 0)
(0.0083830734 0.0027245971 0)
(0.0075995873 0.0027409528 0)
(0.0068116429 0.0027556981 0)
(0.0060197031 0.002768825 0)
(0.0052242328 0.0027803266 0)
(0.004425699 0.0027901965 0)
(0.0036245701 0.0027984296 0)
(0.002821316 0.0028050213 0)
(0.002016408 0.0028099682 0)
(0.0012103178 0.0028132676 0)
(0.00040351811 0.0028149178 0)
(-0.00040351812 0.0028149178 0)
(-0.0012103178 0.0028132676 0)
(-0.002016408 0.0028099682 0)
(-0.002821316 0.0028050213 0)
(-0.0036245701 0.0027984296 0)
(-0.004425699 0.0027901965 0)
(-0.0052242328 0.0027803266 0)
(-0.0060197031 0.002768825 0)
(-0.0068116429 0.0027556981 0)
(-0.0075995873 0.0027409528 0)
(-0.0083830734 0.0027245971 0)
(-0.0091616407 0.0027066398 0)
(-0.0099348315 0.0026870905 0)
(-0.010702191 0.0026659599 0)
(-0.011463267 0.0026432592 0)
(-0.012217612 0.0026190008 0)
(-0.01296478 0.0025931978 0)
(-0.013704332 0.0025658641 0)
(-0.014435829 0.0025370146 0)
(-0.015158841 0.002506665 0)
(-0.015872938 0.0024748316 0)
(-0.016577699 0.002441532 0)
(-0.017272705 0.0024067841 0)
(-0.017957545 0.002370607 0)
(-0.01863181 0.0023330205 0)
(-0.0192951 0.0022940451 0)
(-0.01994702 0.0022537022 0)
(-0.020587181 0.0022120141 0)
(-0.021215201 0.0021690036 0)
(-0.021830703 0.0021246945 0)
(-0.02243332 0.0020791114 0)
(-0.023022689 0.0020322793 0)
(-0.023598455 0.0019842244 0)
(-0.024160274 0.0019349733 0)
(-0.024707804 0.0018845535 0)
(-0.025240716 0.0018329931 0)
(-0.025758686 0.0017803211 0)
(-0.0262614 0.0017265669 0)
(-0.026748552 0.0016717608 0)
(-0.027219844 0.0016159337 0)
(-0.02767499 0.001559117 0)
(-0.028113709 0.001501343 0)
(-0.028535731 0.0014426445 0)
(-0.028940798 0.0013830548 0)
(-0.029328657 0.0013226079 0)
(-0.029699068 0.0012613383 0)
(-0.0300518 0.0011992813 0)
(-0.030386633 0.0011364723 0)
(-0.030703356 0.0010729477 0)
(-0.031001769 0.001008744 0)
(-0.031281683 0.00094389854 0)
(-0.03154292 0.00087844881 0)
(-0.031785311 0.00081243293 0)
(-0.032008699 0.00074588941 0)
(-0.03221294 0.00067885718 0)
(-0.032397898 0.00061137554 0)
(-0.03256345 0.00054348416 0)
(-0.032709486 0.00047522306 0)
(-0.032835903 0.00040663257 0)