/*--------------------------------*- C++ -*----------------------------------*\
| =========                 |                                                 |
| \\      /  F ield         | OpenFOAM: The Open Source CFD Toolbox           |
|  \\    /   O peration     | Version:  2106                                  |
|   \\  /    A nd           | Website:  www.openfoam.com                      |
|    \\/     M anipulation  |                                                 |
\*---------------------------------------------------------------------------*/
FoamFile
{
    version     2.0;
    format      ascii;
    arch        "LSB;label=32;scalar=64";
    class       volScalarField;
    location    "0.036";
    object      p;
}
// * * * * * * * * * * * * * * * * * * * * * * * * * * * * * * * * * * * * * //

dimensions      [1 -1 -2 0 0 0 0];

internalField   nonuniform List<scalar> 
65536
(
-4.1094253
-4.106952
-4.1020068
-4.0945928
-4.0847144
-4.0723774
-4.0575894
-4.0403591
-4.020697
-3.9986147
-3.9741256
-3.9472443
-3.9179871
-3.8863713
-3.8524161
-3.8161417
-3.7775699
-3.736724
-3.6936284
-3.6483089
-3.6007928
-3.5511086
-3.4992862
-3.4453566
-3.3893522
-3.3313067
-3.2712549
-3.2092329
-3.145278
-3.0794286
-3.0117242
-2.9422055
-2.8709143
-2.7978934
-2.7231868
-2.6468393
-2.5688969
-2.4894064
-2.4084156
-2.3259732
-2.2421288
-2.1569328
-2.0704365
-1.982692
-1.893752
-1.80367
-1.7125002
-1.6202976
-1.5271177
-1.4330164
-1.3380506
-1.2422773
-1.1457542
-1.0485396
-0.95069178
-0.85226986
-0.75333308
-0.65394105
-0.55415363
-0.45403097
-0.35363338
-0.25302136
-0.15225555
-0.051396791
0.04949429
0.15035696
0.2511302
0.35175333
0.45216572
0.55230683
0.65211628
0.75153389
0.85049972
0.9489541
1.0468377
1.1440914
1.2406566
1.3364752
1.4314892
1.5256415
1.6188752
1.7111341
1.8023625
1.8925056
1.9815088
2.0693186
2.1558819
2.2411466
2.3250613
2.4075753
2.4886389
2.5682033
2.6462203
2.7226431
2.7974255
2.8705224
2.9418898
3.0114846
3.0792648
3.1451896
3.2092193
3.2713152
3.33144
3.3895573
3.4456321
3.4996307
3.5515204
3.60127
3.6488495
3.6942303
3.737385
3.7782875
3.8169132
3.8532389
3.8872426
3.9189038
3.9482035
3.9751241
3.9996492
4.0217641
4.0414555
4.0587115
4.0735217
4.0858772
4.0957706
4.1031958
4.1081485
4.1106255
4.1106255
4.1081485
4.1031958
4.0957706
4.0858772
4.0735217
4.0587115
4.0414555
4.0217641
3.9996492
3.9751241
3.9482035
3.9189038
3.8872426
3.8532389
3.8169132
3.7782875
3.737385
3.6942303
3.6488495
3.60127
3.5515204
3.4996307
3.4456321
3.3895573
3.33144
3.2713152
3.2092193
3.1451896
3.0792648
3.0114846
2.9418898
2.8705224
2.7974255
2.7226431
2.6462204
2.5682033
2.4886389
2.4075753
2.3250613
2.2411466
2.1558819
2.0693186
1.9815088
1.8925056
1.8023625
1.7111341
1.6188752
1.5256415
1.4314892
1.3364752
1.2406566
1.1440914
1.0468377
0.9489541
0.85049972
0.75153389
0.65211628
0.55230683
0.45216572
0.35175333
0.2511302
0.15035697
0.049494291
-0.051396791
-0.15225555
-0.25302136
-0.35363338
-0.45403097
-0.55415363
-0.65394105
-0.75333308
-0.85226986
-0.95069178
-1.0485396
-1.1457542
-1.2422773
-1.3380506
-1.4330164
-1.5271177
-1.6202977
-1.7125002
-1.80367
-1.893752
-1.982692
-2.0704365
-2.1569328
-2.2421288
-2.3259732
-2.4084156
-2.4894064
-2.5688969
-2.6468393
-2.7231868
-2.7978934
-2.8709143
-2.9422055
-3.0117242
-3.0794286
-3.145278
-3.2092329
-3.2712549
-3.3313067
-3.3893522
-3.4453566
-3.4992862
-3.5511086
-3.6007928
-3.6483089
-3.6936284
-3.736724
-3.7775699
-3.8161417
-3.8524161
-3.8863713
-3.9179871
-3.9472443
-3.9741256
-3.9986147
-4.020697
-4.0403591
-4.0575894
-4.0723774
-4.0847144
-4.0945928
-4.1020068
-4.106952
-4.1094253
-4.111804
-4.1093292
-4.1043812
-4.0969628
-4.0870786
-4.0747345
-4.0599378
-4.0426975
-4.0230239
-4.0009288
-3.9764254
-3.9495285
-3.9202542
-3.88862
-3.854645
-3.8183495
-3.7797553
-3.7388855
-3.6957648
-3.6504189
-3.6028752
-3.5531621
-3.5013095
-3.4473485
-3.3913115
-3.3332322
-3.2731455
-3.2110874
-3.1470953
-3.0812075
-3.0134637
-2.9439046
-2.8725719
-2.7995086
-2.7247586
-2.6483668
-2.570379
-2.4908423
-2.4098045
-2.3273142
-2.2434211
-2.1581756
-2.0716292
-1.9838337
-1.894842
-1.8047078
-1.7134852
-1.6212291
-1.5279951
-1.4338393
-1.3388184
-1.2429896
-1.1464106
-1.0491396
-0.95123522
-0.85275632
-0.75376228
-0.65431273
-0.5544676
-0.45428703
-0.3538314
-0.25316124
-0.15233723
-0.051420155
0.049529242
0.15045008
0.25128147
0.35196267
0.45243298
0.55263183
0.65249881
0.75197372
0.85099656
0.94950765
1.0474476
1.1447573
1.2413781
1.3372517
1.4323204
1.5265268
1.619814
1.7121259
1.8034068
1.8936016
1.9826559
2.070516
2.157129
2.2424426
2.3264054
2.4089667
2.4900768
2.5696867
2.6477484
2.7242149
2.7990401
2.8721788
2.943587
3.0132215
3.0810405
3.147003
3.2110692
3.2732006
3.3333597
3.3915101
3.447617
3.5016463
3.5535656
3.6033436
3.6509503
3.6963569
3.7395362
3.780462
3.8191097
3.8554561
3.8894791
3.9211584
3.9504748
3.9774107
4.0019497
4.0240772
4.0437798
4.0610457
4.0758643
4.0882269
4.0981258
4.1055553
4.1105108
4.1129892
4.1129892
4.1105108
4.1055553
4.0981258
4.0882269
4.0758643
4.0610457
4.0437798
4.0240772
4.0019497
3.9774107
3.9504748
3.9211584
3.8894791
3.8554561
3.8191097
3.780462
3.7395362
3.6963569
3.6509503
3.6033436
3.5535656
3.5016463
3.447617
3.3915101
3.3333597
3.2732006
3.2110692
3.147003
3.0810405
3.0132215
2.943587
2.8721788
2.7990401
2.7242149
2.6477484
2.5696867
2.4900768
2.4089667
2.3264054
2.2424426
2.157129
2.070516
1.9826559
1.8936016
1.8034068
1.7121259
1.619814
1.5265268
1.4323204
1.3372517
1.2413781
1.1447573
1.0474476
0.94950765
0.85099657
0.75197372
0.65249882
0.55263183
0.45243298
0.35196267
0.25128147
0.15045008
0.049529243
-0.051420154
-0.15233723
-0.25316124
-0.3538314
-0.45428703
-0.5544676
-0.65431273
-0.75376228
-0.85275632
-0.95123522
-1.0491396
-1.1464106
-1.2429896
-1.3388184
-1.4338393
-1.5279951
-1.6212291
-1.7134852
-1.8047078
-1.894842
-1.9838337
-2.0716292
-2.1581756
-2.2434211
-2.3273142
-2.4098045
-2.4908423
-2.570379
-2.6483668
-2.7247586
-2.7995086
-2.872572
-2.9439046
-3.0134637
-3.0812075
-3.1470953
-3.2110874
-3.2731455
-3.3332322
-3.3913115
-3.4473485
-3.5013095
-3.5531621
-3.6028752
-3.6504189
-3.6957648
-3.7388855
-3.7797553
-3.8183495
-3.854645
-3.88862
-3.9202542
-3.9495285
-3.9764254
-4.0009288
-4.0230239
-4.0426975
-4.0599378
-4.0747345
-4.0870786
-4.0969628
-4.1043812
-4.1093292
-4.111804
-4.1166851
-4.1142074
-4.1092535
-4.1018263
-4.0919304
-4.0795716
-4.0647573
-4.0474965
-4.0277995
-4.0056781
-3.9811457
-3.9542168
-3.9249077
-3.8932359
-3.8592205
-3.8228818
-3.7842418
-3.7433234
-3.7001515
-3.6547517
-3.6071514
-3.5573793
-3.505465
-3.4514399
-3.3953363
-3.337188
-3.2770299
-3.214898
-3.1508298
-3.0848638
-3.0170395
-2.9473977
-2.8759802
-2.8028301
-2.7279912
-2.6515086
-2.5734282
-2.4937969
-2.4126628
-2.3300744
-2.2460816
-2.1607349
-2.0740856
-1.9861858
-1.8970884
-1.806847
-1.715516
-1.6231504
-1.5298056
-1.435538
-1.3404042
-1.2444616
-1.1477679
-1.0503814
-0.95236065
-0.85376481
-0.75465322
-0.6550856
-0.55512192
-0.45482243
-0.35424756
-0.25345791
-0.15251424
-0.051477383
0.04959179
0.15063234
0.25158335
0.35238398
0.45297345
0.55329113
0.65327653
0.75286937
0.85200961
0.95063746
1.0486934
1.1461185
1.2428537
1.338841
1.4340223
1.5283402
1.6217379
1.7141591
1.805548
1.8958496
1.9850093
2.0729734
2.1596888
2.2451034
2.3291654
2.4118244
2.4930303
2.5727343
2.6508883
2.7274452
2.8023588
2.8755839
2.9470764
3.0167932
3.0846923
3.1507327
3.2148746
3.2770793
3.3373094
3.3955285
3.4517015
3.5057946
3.5577752
3.6076119
3.6552747
3.7007349
3.743965
3.7849391
3.8236324
3.8600216
3.8940848
3.9258014
3.9551523
3.9821199
4.0066879
4.0288415
4.0485673
4.0658535
4.0806896
4.0930667
4.1029774
4.1104156
4.1153769
4.1178583
4.1178583
4.1153769
4.1104156
4.1029774
4.0930667
4.0806896
4.0658535
4.0485673
4.0288415
4.0066879
3.9821199
3.9551523
3.9258014
3.8940848
3.8600216
3.8236324
3.7849391
3.743965
3.7007349
3.6552747
3.6076119
3.5577752
3.5057946
3.4517015
3.3955285
3.3373094
3.2770793
3.2148746
3.1507327
3.0846923
3.0167932
2.9470764
2.8755839
2.8023588
2.7274452
2.6508883
2.5727343
2.4930303
2.4118244
2.3291654
2.2451034
2.1596888
2.0729734
1.9850093
1.8958496
1.805548
1.7141591
1.6217379
1.5283402
1.4340223
1.338841
1.2428537
1.1461185
1.0486935
0.95063746
0.85200961
0.75286937
0.65327653
0.55329113
0.45297345
0.35238398
0.25158335
0.15063234
0.04959179
-0.051477383
-0.15251424
-0.25345791
-0.35424756
-0.45482243
-0.55512192
-0.6550856
-0.75465322
-0.85376481
-0.95236065
-1.0503814
-1.1477679
-1.2444616
-1.3404042
-1.435538
-1.5298056
-1.6231504
-1.715516
-1.806847
-1.8970884
-1.9861858
-2.0740856
-2.1607349
-2.2460816
-2.3300744
-2.4126628
-2.4937969
-2.5734282
-2.6515086
-2.7279912
-2.8028301
-2.8759802
-2.9473977
-3.0170395
-3.0848638
-3.1508298
-3.214898
-3.2770299
-3.337188
-3.3953363
-3.4514399
-3.505465
-3.5573793
-3.6071514
-3.6547517
-3.7001515
-3.7433234
-3.7842418
-3.8228818
-3.8592205
-3.8932359
-3.9249077
-3.9542168
-3.9811457
-4.0056781
-4.0277995
-4.0474965
-4.0647573
-4.0795716
-4.0919304
-4.1018263
-4.1092535
-4.1142074
-4.1166851
-4.1240502
-4.121568
-4.1166053
-4.1091648
-4.0992512
-4.0868703
-4.0720295
-4.0547379
-4.0350056
-4.0128447
-3.9882683
-3.9612913
-3.9319298
-3.9002013
-3.8661251
-3.8297215
-3.7910123
-3.7500208
-3.7067716
-3.6612906
-3.6136052
-3.5637439
-3.5117368
-3.457615
-3.4014111
-3.3431587
-3.282893
-3.22065
-3.1564671
-3.090383
-3.0224374
-2.9526709
-2.8811257
-2.8078446
-2.7328718
-2.6562523
-2.5780322
-2.4982584
-2.416979
-2.3342429
-2.2500998
-2.1646003
-2.0777958
-1.9897387
-1.9004818
-1.8100789
-1.7185845
-1.6260534
-1.5325416
-1.4381052
-1.3428011
-1.2466868
-1.14982
-1.0522592
-0.95406305
-0.85529074
-0.75600176
-0.65625594
-0.55611336
-0.45563437
-0.35487951
-0.25390951
-0.15278521
-0.05156756
0.049682441
0.15090376
0.25203537
0.35301632
0.45378572
0.55428283
0.65444706
0.75421801
0.85353553
0.95233973
1.050571
1.1481702
1.2450784
1.3412372
1.4365886
1.5310751
1.6246398
1.7172261
1.8087783
1.8992411
1.9885601
2.0766813
2.1635516
2.2491186
2.3333308
2.4161373
2.4974882
2.5773345
2.655628
2.7323214
2.8073687
2.8807245
2.9523445
3.0221857
3.0902058
3.156364
3.2206202
3.2829359
3.3432733
3.4015962
3.4578693
3.5120589
3.5641321
3.6140576
3.6618053
3.7073465
3.7506537
3.7917007
3.8304629
3.866917
3.9010408
3.9328139
3.9622171
3.9892327
4.0138445
4.0360375
4.0557984
4.0731154
4.0879779
4.100377
4.1103053
4.1177568
4.1227269
4.1252127
4.1252127
4.1227269
4.1177568
4.1103053
4.100377
4.0879779
4.0731154
4.0557984
4.0360375
4.0138445
3.9892327
3.9622171
3.9328139
3.9010408
3.866917
3.8304629
3.7917007
3.7506537
3.7073465
3.6618053
3.6140576
3.5641321
3.5120589
3.4578693
3.4015962
3.3432733
3.2829359
3.2206202
3.156364
3.0902058
3.0221857
2.9523445
2.8807245
2.8073687
2.7323214
2.655628
2.5773345
2.4974882
2.4161373
2.3333308
2.2491186
2.1635516
2.0766813
1.9885601
1.8992411
1.8087783
1.7172261
1.6246398
1.5310751
1.4365886
1.3412372
1.2450784
1.1481702
1.050571
0.95233973
0.85353553
0.75421801
0.65444706
0.55428283
0.45378572
0.35301632
0.25203537
0.15090376
0.049682441
-0.051567559
-0.15278521
-0.25390951
-0.35487951
-0.45563437
-0.55611336
-0.65625594
-0.75600176
-0.85529074
-0.95406305
-1.0522592
-1.14982
-1.2466868
-1.3428011
-1.4381052
-1.5325416
-1.6260534
-1.7185845
-1.8100789
-1.9004818
-1.9897387
-2.0777958
-2.1646003
-2.2500998
-2.3342429
-2.416979
-2.4982584
-2.5780322
-2.6562523
-2.7328718
-2.8078446
-2.8811257
-2.9526709
-3.0224374
-3.090383
-3.1564671
-3.22065
-3.282893
-3.3431587
-3.4014111
-3.457615
-3.5117368
-3.5637439
-3.6136052
-3.6612906
-3.7067716
-3.7500208
-3.7910123
-3.8297215
-3.8661251
-3.9002013
-3.9319298
-3.9612913
-3.9882683
-4.0128447
-4.0350056
-4.0547379
-4.0720295
-4.0868703
-4.0992512
-4.1091648
-4.1166053
-4.121568
-4.1240502
-4.1338971
-4.1314091
-4.1264345
-4.1189763
-4.109039
-4.0966285
-4.0817524
-4.0644195
-4.0446402
-4.0224264
-3.9977914
-3.97075
-3.9413184
-3.9095143
-3.8753568
-3.8388663
-3.8000647
-3.7589754
-3.715623
-3.6700335
-3.6222343
-3.5722541
-3.5201229
-3.4658719
-3.4095339
-3.3511425
-3.2907329
-3.2283413
-3.1640053
-3.0977634
-3.0296555
-2.9597225
-2.8880065
-2.8145505
-2.7393986
-2.6625962
-2.5841892
-2.504225
-2.4227515
-2.3398178
-2.2554737
-2.16977
-2.0827583
-1.9944908
-1.9050207
-1.8144019
-1.7226889
-1.6299369
-1.5362017
-1.4415397
-1.346008
-1.249664
-1.1525659
-1.054772
-0.95634127
-0.85733301
-0.75780686
-0.65782276
-0.55744098
-0.45672198
-0.35572646
-0.25451528
-0.15314945
-0.051690046
0.049801771
0.15126483
0.25263796
0.35386005
0.45487008
0.55560716
0.65601054
0.75601969
0.85557432
0.95461439
1.0530802
1.1509123
1.2480518
1.3444401
1.4400191
1.534731
1.6285189
1.7213261
1.8130967
1.9037754
1.9933074
2.0816387
2.1687162
2.2544873
2.3389002
2.4219041
2.503449
2.5834856
2.6619657
2.7388419
2.814068
2.8875986
2.9593892
3.0293968
3.097579
3.1638947
3.228304
3.290768
3.3512491
3.4097109
3.466118
3.5204365
3.5726337
3.6226781
3.6705394
3.716189
3.7595992
3.800744
3.8395984
3.8761391
3.9103442
3.9421929
3.971666
3.9987459
4.0234162
4.045662
4.0654699
4.0828281
4.0977259
4.1101546
4.1201065
4.1275757
4.1325576
4.1350493
4.1350493
4.1325576
4.1275757
4.1201065
4.1101546
4.0977259
4.0828281
4.0654699
4.045662
4.0234162
3.9987459
3.971666
3.9421929
3.9103442
3.8761391
3.8395984
3.800744
3.7595992
3.716189
3.6705394
3.6226781
3.5726337
3.5204365
3.466118
3.4097109
3.3512491
3.290768
3.228304
3.1638947
3.097579
3.0293968
2.9593892
2.8875986
2.814068
2.7388419
2.6619657
2.5834856
2.503449
2.4219041
2.3389002
2.2544873
2.1687162
2.0816387
1.9933074
1.9037754
1.8130967
1.7213261
1.6285189
1.534731
1.4400191
1.3444401
1.2480518
1.1509123
1.0530802
0.95461439
0.85557432
0.75601969
0.65601054
0.55560716
0.45487008
0.35386005
0.25263796
0.15126483
0.049801771
-0.051690046
-0.15314945
-0.25451528
-0.35572646
-0.45672198
-0.55744098
-0.65782276
-0.75780686
-0.85733301
-0.95634127
-1.054772
-1.1525659
-1.249664
-1.346008
-1.4415397
-1.5362017
-1.6299369
-1.7226889
-1.8144019
-1.9050207
-1.9944908
-2.0827583
-2.16977
-2.2554737
-2.3398178
-2.4227515
-2.504225
-2.5841892
-2.6625962
-2.7393986
-2.8145505
-2.8880065
-2.9597225
-3.0296555
-3.0977634
-3.1640053
-3.2283413
-3.2907329
-3.3511425
-3.4095339
-3.4658719
-3.5201229
-3.5722541
-3.6222343
-3.6700335
-3.715623
-3.7589754
-3.8000647
-3.8388663
-3.8753568
-3.9095143
-3.9413184
-3.97075
-3.9977914
-4.0224264
-4.0446402
-4.0644195
-4.0817524
-4.0966285
-4.109039
-4.1189763
-4.1264345
-4.1314091
-4.1338971
-4.1462325
-4.1437371
-4.1387476
-4.1312672
-4.1213003
-4.1088529
-4.0939324
-4.0765479
-4.0567096
-4.0344296
-4.0097212
-3.9825993
-3.95308
-3.9211811
-3.8869217
-3.8503224
-3.8114052
-3.7701935
-3.7267118
-3.6809864
-3.6330447
-3.5829155
-3.5306288
-3.4762161
-3.41971
-3.3611445
-3.3005548
-3.2379771
-3.1734492
-3.1070098
-3.0386988
-2.9685572
-2.8966272
-2.822952
-2.747576
-2.6705444
-2.5919035
-2.5117007
-2.4299841
-2.3468029
-2.2622071
-2.1762476
-2.0889762
-2.0004453
-1.9107082
-1.8198189
-1.7278321
-1.6348032
-1.5407882
-1.4458437
-1.3500268
-1.2533952
-1.1560072
-1.0579214
-0.95919681
-0.85989297
-0.76006969
-0.65978711
-0.55910565
-0.45808596
-0.35678894
-0.25527562
-0.15360718
-0.051844904
0.049949878
0.1517158
0.25339152
0.35491575
0.45622727
0.55726501
0.65796804
0.75827566
0.85812738
0.95746299
1.0562226
1.1543466
1.251776
1.3484518
1.4443159
1.5393104
1.633378
1.726462
1.8185063
1.9094553
1.9992543
2.087849
2.1751861
2.2612129
2.3458774
2.4291288
2.5109166
2.5911917
2.6699057
2.747011
2.8224612
2.8962108
2.9682153
3.0384314
3.1068167
3.1733299
3.237931
3.300581
3.3612422
3.419878
3.476453
3.5309332
3.5832857
3.633479
3.6814828
3.7272682
3.7708076
3.8120748
3.8510448
3.8876943
3.9220011
3.9539445
3.9835053
4.0106658
4.0354094
4.0577214
4.0775883
4.094998
4.1099402
4.1224058
4.1323873
4.1398787
4.1448754
4.1473746
4.1473746
4.1448754
4.1398787
4.1323873
4.1224058
4.1099402
4.094998
4.0775883
4.0577214
4.0354094
4.0106658
3.9835053
3.9539445
3.9220011
3.8876943
3.8510448
3.8120748
3.7708076
3.7272682
3.6814828
3.633479
3.5832857
3.5309332
3.476453
3.419878
3.3612422
3.300581
3.237931
3.1733299
3.1068167
3.0384314
2.9682153
2.8962108
2.8224612
2.747011
2.6699057
2.5911917
2.5109166
2.4291288
2.3458774
2.2612129
2.1751861
2.087849
1.9992543
1.9094553
1.8185063
1.726462
1.633378
1.5393104
1.4443159
1.3484518
1.251776
1.1543466
1.0562226
0.95746299
0.85812738
0.75827566
0.65796804
0.55726501
0.45622727
0.35491575
0.25339152
0.1517158
0.049949877
-0.051844904
-0.15360718
-0.25527562
-0.35678894
-0.45808596
-0.55910565
-0.65978711
-0.76006969
-0.85989297
-0.95919681
-1.0579214
-1.1560072
-1.2533952
-1.3500268
-1.4458437
-1.5407882
-1.6348032
-1.7278321
-1.8198189
-1.9107082
-2.0004453
-2.0889762
-2.1762476
-2.2622071
-2.3468029
-2.4299841
-2.5117007
-2.5919035
-2.6705444
-2.747576
-2.822952
-2.8966272
-2.9685572
-3.0386988
-3.1070098
-3.1734492
-3.2379771
-3.3005548
-3.3611445
-3.41971
-3.4762161
-3.5306288
-3.5829155
-3.6330447
-3.6809864
-3.7267118
-3.7701935
-3.8114052
-3.8503224
-3.8869217
-3.9211811
-3.95308
-3.9825993
-4.0097212
-4.0344296
-4.0567096
-4.0765479
-4.0939324
-4.1088529
-4.1213003
-4.1312672
-4.1387476
-4.1437371
-4.1462325
-4.1610643
-4.15856
-4.1535527
-4.1460456
-4.1360431
-4.1235512
-4.1085775
-4.0911308
-4.0712217
-4.0488621
-4.0240655
-3.9968466
-3.9672219
-3.935209
-3.9008273
-3.8640973
-3.8250411
-3.783682
-3.740045
-3.6941563
-3.6460433
-3.5957349
-3.5432614
-3.4886542
-3.4319462
-3.3731714
-3.312365
-3.2495637
-3.1848051
-3.1181282
-3.0495729
-2.9791806
-2.9069934
-2.8330548
-2.7574092
-2.6801021
-2.60118
-2.5206903
-2.4386814
-2.3552027
-2.2703043
-2.1840374
-2.0964537
-2.0076061
-1.9175479
-1.8263334
-1.7340175
-1.6406557
-1.5463043
-1.45102
-1.3548602
-1.2578829
-1.1601463
-1.0617095
-0.96263156
-0.86297233
-0.76279178
-0.66215029
-0.56110849
-0.45972725
-0.35806769
-0.25619105
-0.15415875
-0.052032271
0.050126819
0.15225694
0.25429653
0.35618407
0.45785813
0.55925742
0.6603208
0.76098733
0.86119632
0.96088733
1.0600003
1.1584753
1.2562532
1.3532749
1.4494818
1.5448161
1.6392201
1.732637
1.8250104
1.9162847
2.0064047
2.0953162
2.1829655
2.2692998
2.3542669
2.4378158
2.519896
2.6004579
2.6794531
2.7568339
2.8325537
2.9065668
2.9788285
3.0492954
3.1179249
3.1846756
3.2495074
3.3123811
3.3732589
3.432104
3.488881
3.5435557
3.5960951
3.6464675
3.6946426
3.7405914
3.7842862
3.8257006
3.8648097
3.9015899
3.9360191
3.9680764
3.9977427
4.025
4.049832
4.0722235
4.0921612
4.1096331
4.1246286
4.1371386
4.1471557
4.1546738
4.1596884
4.1621965
4.1621965
4.1596884
4.1546738
4.1471557
4.1371386
4.1246286
4.1096331
4.0921612
4.0722235
4.049832
4.025
3.9977427
3.9680764
3.9360191
3.9015899
3.8648097
3.8257006
3.7842862
3.7405914
3.6946426
3.6464675
3.5960951
3.5435557
3.488881
3.432104
3.3732589
3.3123811
3.2495074
3.1846756
3.1179249
3.0492954
2.9788285
2.9065668
2.8325537
2.7568339
2.6794531
2.6004579
2.519896
2.4378158
2.3542669
2.2692998
2.1829655
2.0953162
2.0064047
1.9162847
1.8250104
1.732637
1.6392201
1.5448161
1.4494818
1.3532749
1.2562532
1.1584753
1.0600003
0.96088733
0.86119632
0.76098733
0.6603208
0.55925742
0.45785813
0.35618407
0.25429653
0.15225694
0.050126818
-0.052032271
-0.15415875
-0.25619105
-0.35806769
-0.45972725
-0.56110849
-0.66215029
-0.76279178
-0.86297233
-0.96263156
-1.0617095
-1.1601463
-1.2578829
-1.3548602
-1.45102
-1.5463043
-1.6406557
-1.7340175
-1.8263334
-1.9175479
-2.0076061
-2.0964537
-2.1840374
-2.2703043
-2.3552027
-2.4386814
-2.5206903
-2.60118
-2.6801021
-2.7574092
-2.8330548
-2.9069934
-2.9791806
-3.0495729
-3.1181282
-3.1848051
-3.2495637
-3.312365
-3.3731714
-3.4319462
-3.4886542
-3.5432614
-3.5957349
-3.6460433
-3.6941563
-3.740045
-3.783682
-3.8250411
-3.8640973
-3.9008273
-3.935209
-3.9672219
-3.9968466
-4.0240655
-4.0488621
-4.0712217
-4.0911308
-4.1085775
-4.1235512
-4.1360431
-4.1460456
-4.1535527
-4.15856
-4.1610643
-4.1784014
-4.1758867
-4.1708586
-4.1633202
-4.1532761
-4.1407323
-4.1256963
-4.1081771
-4.0881852
-4.0657326
-4.0408328
-4.0135007
-3.9837527
-3.9516067
-3.9170819
-3.8801991
-3.8409804
-3.7994493
-3.7556308
-3.709551
-3.6612378
-3.6107201
-3.5580282
-3.5031938
-3.4462497
-3.3872303
-3.3261708
-3.2631081
-3.1980799
-3.1311253
-3.0622846
-2.9915991
-2.9191114
-2.8448649
-2.7689042
-2.6912752
-2.6120243
-2.5311994
-2.4488489
-2.3650224
-2.2797703
-2.1931439
-2.1051953
-2.0159775
-1.925544
-1.8339494
-1.7412488
-1.6474979
-1.5527533
-1.4570718
-1.3605112
-1.2631297
-1.1649857
-1.0661385
-0.96664762
-0.86657295
-0.76597479
-0.66491375
-0.56345072
-0.46164685
-0.35956348
-0.25726214
-0.15480449
-0.05225227
0.050332694
0.15288856
0.25535351
0.35766577
0.45976366
0.56158561
0.66307023
0.76415635
0.86478299
0.96488949
1.0644155
1.1633009
1.2614862
1.3589122
1.45552
1.5512515
1.6460488
1.7398549
1.8326131
1.9242675
2.0147629
2.1040447
2.192059
2.2787528
2.3640738
2.4479705
2.5303924
2.6112898
2.6906138
2.7683167
2.8443516
2.9186727
2.9912352
3.0619952
3.1309103
3.1979387
3.2630402
3.3261755
3.3873065
3.4463963
3.5034095
3.5583115
3.6110694
3.6616513
3.7100267
3.7561665
3.800043
3.8416295
3.8809012
3.9178343
3.9524066
3.9845972
4.0143868
4.0417574
4.0666925
4.0891771
4.1091977
4.1267421
4.1417999
4.1543619
4.1644207
4.17197
4.1770054
4.1795239
4.1795239
4.1770054
4.17197
4.1644207
4.1543619
4.1417999
4.1267421
4.1091977
4.0891771
4.0666925
4.0417574
4.0143868
3.9845972
3.9524066
3.9178343
3.8809012
3.8416295
3.800043
3.7561665
3.7100267
3.6616513
3.6110694
3.5583115
3.5034095
3.4463963
3.3873065
3.3261755
3.2630402
3.1979387
3.1309103
3.0619952
2.9912352
2.9186727
2.8443516
2.7683167
2.6906138
2.6112898
2.5303924
2.4479705
2.3640738
2.2787528
2.192059
2.1040447
2.0147629
1.9242675
1.8326131
1.7398549
1.6460488
1.5512515
1.45552
1.3589122
1.2614862
1.1633009
1.0644155
0.96488949
0.86478299
0.76415635
0.66307023
0.56158561
0.45976366
0.35766577
0.25535351
0.15288856
0.050332693
-0.05225227
-0.15480449
-0.25726214
-0.35956349
-0.46164685
-0.56345072
-0.66491375
-0.76597479
-0.86657295
-0.96664762
-1.0661385
-1.1649857
-1.2631297
-1.3605112
-1.4570718
-1.5527533
-1.6474979
-1.7412488
-1.8339494
-1.925544
-2.0159775
-2.1051953
-2.1931439
-2.2797703
-2.3650224
-2.4488489
-2.5311994
-2.6120243
-2.6912752
-2.7689042
-2.8448649
-2.9191114
-2.9915991
-3.0622846
-3.1311253
-3.1980799
-3.2631081
-3.3261708
-3.3872303
-3.4462497
-3.5031938
-3.5580282
-3.6107201
-3.6612378
-3.709551
-3.7556308
-3.7994493
-3.8409804
-3.8801991
-3.9170819
-3.9516067
-3.9837527
-4.0135007
-4.0408328
-4.0657326
-4.0881852
-4.1081771
-4.1256963
-4.1407323
-4.1532761
-4.1633202
-4.1708586
-4.1758867
-4.1784014
-4.1982542
-4.1957275
-4.1906756
-4.1831015
-4.1730098
-4.1604065
-4.1452991
-4.1276968
-4.1076101
-4.0850511
-4.0600332
-4.0325715
-4.0026824
-3.9703839
-3.9356954
-3.8986376
-3.8592329
-3.8175047
-3.7734783
-3.72718
-3.6786375
-3.6278801
-3.5749382
-3.5198435
-3.4626292
-3.4033296
-3.3419804
-3.2786183
-3.2132814
-3.146009
-3.0768414
-3.0058204
-2.9329884
-2.8583893
-2.782068
-2.7040702
-2.624443
-2.5432341
-2.4604924
-2.3762677
-2.2906106
-2.2035727
-2.1152063
-2.0255645
-1.9347014
-1.8426715
-1.7495303
-1.6553339
-1.560139
-1.4640028
-1.3669832
-1.2691388
-1.1705283
-1.0712113
-0.97124742
-0.87069702
-0.76962063
-0.66807915
-0.56613377
-0.46384592
-0.36127724
-0.25848955
-0.1555448
-0.052505035
0.050567624
0.15361105
0.25656311
0.35936175
0.46194498
0.56425096
0.666218
0.76778461
0.86888956
0.96947187
1.0694709
1.1688263
1.2674783
1.3653672
1.4624341
1.5586204
1.6538682
1.74812
1.8413189
1.9334087
2.024334
2.1140399
2.2024722
2.2895778
2.3753039
2.4595991
2.5424123
2.6236938
2.7033944
2.7814662
2.857862
2.9325359
3.0054427
3.0765386
3.1457807
3.2131272
3.2785376
3.3419724
3.4033934
3.4627636
3.5200472
3.5752096
3.6282177
3.6790395
3.7276443
3.774003
3.8180874
3.8598712
3.899329
3.9364372
3.9711734
4.0035166
4.0334474
4.0609478
4.0860011
4.1085923
4.1287077
4.1463353
4.1614645
4.174086
4.1841924
4.1917776
4.1968368
4.1993673
4.1993673
4.1968368
4.1917776
4.1841924
4.174086
4.1614645
4.1463353
4.1287077
4.1085923
4.0860011
4.0609478
4.0334474
4.0035166
3.9711734
3.9364372
3.899329
3.8598712
3.8180874
3.774003
3.7276443
3.6790395
3.6282177
3.5752096
3.5200472
3.4627636
3.4033934
3.3419724
3.2785376
3.2131272
3.1457807
3.0765386
3.0054427
2.9325359
2.857862
2.7814662
2.7033944
2.6236938
2.5424123
2.4595991
2.3753039
2.2895778
2.2024722
2.1140399
2.024334
1.9334087
1.8413189
1.74812
1.6538682
1.5586204
1.4624341
1.3653672
1.2674783
1.1688263
1.0694709
0.96947187
0.86888956
0.76778461
0.666218
0.56425096
0.46194498
0.35936175
0.25656311
0.15361104
0.050567623
-0.052505036
-0.1555448
-0.25848955
-0.36127724
-0.46384592
-0.56613377
-0.66807915
-0.76962063
-0.87069702
-0.97124742
-1.0712113
-1.1705283
-1.2691388
-1.3669832
-1.4640028
-1.560139
-1.6553339
-1.7495303
-1.8426715
-1.9347014
-2.0255645
-2.1152063
-2.2035727
-2.2906106
-2.3762677
-2.4604924
-2.5432341
-2.624443
-2.7040702
-2.782068
-2.8583893
-2.9329884
-3.0058204
-3.0768414
-3.146009
-3.2132814
-3.2786183
-3.3419804
-3.4033296
-3.4626292
-3.5198435
-3.5749382
-3.6278801
-3.6786375
-3.72718
-3.7734783
-3.8175047
-3.8592329
-3.8986376
-3.9356954
-3.9703839
-4.0026824
-4.0325715
-4.0600332
-4.0850511
-4.1076101
-4.1276968
-4.1452991
-4.1604065
-4.1730098
-4.1831015
-4.1906756
-4.1957275
-4.1982542
-4.2206346
-4.2180945
-4.2130157
-4.2054013
-4.1952559
-4.1825855
-4.1673978
-4.1497019
-4.1295083
-4.1068292
-4.0816782
-4.0540704
-4.0240223
-3.9915519
-3.9566788
-3.9194239
-3.8798094
-3.8378592
-3.7935984
-3.7470536
-3.6982528
-3.6472252
-3.5940014
-3.5386134
-3.4810945
-3.4214792
-3.3598032
-3.2961037
-3.2304189
-3.1627882
-3.0932522
-3.0218528
-2.9486329
-2.8736364
-2.7969084
-2.7184951
-2.6384435
-2.5568019
-2.4736193
-2.3889457
-2.302832
-2.2153301
-2.1264926
-2.036373
-1.9450254
-1.8525049
-1.7588672
-1.6641685
-1.5684659
-1.4718171
-1.3742801
-1.2759139
-1.1767775
-1.0769307
-0.97643374
-0.87534703
-0.77373152
-0.67164842
-0.56915926
-0.46632579
-0.36321
-0.25987401
-0.15638013
-0.052790728
0.050831744
0.15442482
0.25792604
0.36127302
0.46440343
0.56725509
0.669766
0.77187433
0.87351851
0.97463725
1.0751696
1.1750549
1.2742329
1.3726438
1.4702282
1.5669274
1.662683
1.7574373
1.851133
1.9437138
2.0351237
2.1253077
2.2142114
2.3017811
2.3879641
2.4727084
2.5559629
2.6376774
2.7178027
2.7962903
2.8730931
2.9481647
3.0214598
3.0929343
3.1625451
3.2302502
3.2960089
3.3597814
3.4215294
3.4812156
3.5388041
3.5942602
3.6475504
3.6986426
3.7475061
3.7941114
3.8384304
3.8804365
3.9201043
3.9574099
3.9923309
4.0248462
4.0549362
4.0825828
4.1077693
4.1304807
4.1507031
4.1684245
4.1836341
4.1963228
4.2064829
4.2141084
4.2191946
4.2217385
4.2217385
4.2191946
4.2141084
4.2064829
4.1963228
4.1836341
4.1684245
4.1507031
4.1304807
4.1077693
4.0825828
4.0549362
4.0248462
3.9923309
3.9574099
3.9201043
3.8804365
3.8384304
3.7941114
3.7475061
3.6986426
3.6475504
3.5942602
3.5388041
3.4812156
3.4215294
3.3597814
3.2960089
3.2302502
3.1625451
3.0929343
3.0214598
2.9481647
2.8730931
2.7962903
2.7178027
2.6376774
2.5559629
2.4727084
2.3879641
2.3017811
2.2142114
2.1253077
2.0351237
1.9437138
1.851133
1.7574373
1.662683
1.5669274
1.4702282
1.3726438
1.2742329
1.1750549
1.0751696
0.97463725
0.87351851
0.77187433
0.669766
0.56725509
0.46440343
0.36127302
0.25792604
0.15442482
0.050831743
-0.052790728
-0.15638013
-0.25987401
-0.36321
-0.4663258
-0.56915926
-0.67164842
-0.77373152
-0.87534703
-0.97643374
-1.0769307
-1.1767775
-1.2759139
-1.3742801
-1.4718171
-1.5684659
-1.6641685
-1.7588672
-1.8525049
-1.9450254
-2.036373
-2.1264926
-2.2153301
-2.302832
-2.3889457
-2.4736193
-2.5568019
-2.6384435
-2.7184951
-2.7969084
-2.8736364
-2.9486329
-3.0218528
-3.0932522
-3.1627882
-3.2304189
-3.2961037
-3.3598032
-3.4214792
-3.4810945
-3.5386134
-3.5940014
-3.6472252
-3.6982528
-3.7470536
-3.7935984
-3.8378592
-3.8798094
-3.9194239
-3.9566788
-3.9915519
-4.0240223
-4.0540704
-4.0816782
-4.1068292
-4.1295083
-4.1497019
-4.1673978
-4.1825855
-4.1952559
-4.2054013
-4.2130157
-4.2180945
-4.2206346
-4.2455561
-4.243001
-4.2378922
-4.230233
-4.2200278
-4.2072828
-4.1920056
-4.1742054
-4.1538928
-4.1310801
-4.1057809
-4.0780104
-4.0477852
-4.0151235
-3.9800449
-3.9425703
-3.9027224
-3.8605249
-3.8160032
-3.769184
-3.7200955
-3.668767
-3.6152294
-3.5595149
-3.5016568
-3.4416899
-3.3796502
-3.3155749
-3.2495026
-3.181473
-3.1115268
-3.0397062
-2.9660542
-2.8906152
-2.8134344
-2.7345584
-2.6540344
-2.5719108
-2.4882372
-2.4030638
-2.3164418
-2.2284233
-2.1390613
-2.0484095
-1.9565225
-1.8634557
-1.7692649
-1.6740069
-1.5777391
-1.4805194
-1.3824064
-1.283459
-1.1837371
-1.0833005
-0.98220974
-0.88052582
-0.77830996
-0.67562374
-0.57252904
-0.46908799
-0.36536294
-0.26141639
-0.157311
-0.053109531
0.051125205
0.15533037
0.25944313
0.36340073
0.46714047
0.57059981
0.67371637
0.77642795
0.87867263
0.98038875
1.081515
1.1819903
1.2817541
1.3807463
1.4789072
1.5761775
1.6724986
1.7678124
1.8620615
1.9551889
2.0471386
2.137855
2.2272836
2.3153703
2.402062
2.4873065
2.5710524
2.6532492
2.7338472
2.8127981
2.890054
2.9655685
3.0392961
3.1111922
3.1812136
3.2493181
3.3154646
3.3796132
3.4417254
3.5017635
3.5596916
3.6154746
3.669079
3.7204724
3.769624
3.816504
3.8610842
3.9033379
3.9432395
3.9807649
4.0158917
4.0485986
4.0788659
4.1066754
4.1320104
4.1548555
4.1751971
4.1930229
4.2083221
4.2210855
4.2313055
4.2389759
4.2440921
4.2466509
4.2466509
4.2440921
4.2389759
4.2313055
4.2210855
4.2083221
4.1930229
4.1751971
4.1548555
4.1320104
4.1066754
4.0788659
4.0485986
4.0158917
3.9807649
3.9432395
3.9033379
3.8610842
3.816504
3.769624
3.7204724
3.669079
3.6154746
3.5596916
3.5017635
3.4417254
3.3796132
3.3154646
3.2493181
3.1812136
3.1111922
3.0392961
2.9655685
2.890054
2.8127981
2.7338472
2.6532492
2.5710524
2.4873065
2.402062
2.3153703
2.2272836
2.137855
2.0471386
1.9551889
1.8620615
1.7678124
1.6724986
1.5761775
1.4789072
1.3807463
1.2817541
1.1819903
1.081515
0.98038875
0.87867263
0.77642795
0.67371637
0.57059981
0.46714047
0.36340073
0.25944313
0.15533037
0.051125204
-0.053109531
-0.157311
-0.26141639
-0.36536294
-0.46908799
-0.57252904
-0.67562374