/*--------------------------------*- C++ -*----------------------------------*\
| =========                 |                                                 |
| \\      /  F ield         | OpenFOAM: The Open Source CFD Toolbox           |
|  \\    /   O peration     | Version:  2106                                  |
|   \\  /    A nd           | Website:  www.openfoam.com                      |
|    \\/     M anipulation  |                                                 |
\*---------------------------------------------------------------------------*/
FoamFile
{
    version     2.0;
    format      ascii;
    arch        "LSB;label=32;scalar=64";
    class       surfaceScalarField;
    location    "0.036";
    object      phi_0;
}
// * * * * * * * * * * * * * * * * * * * * * * * * * * * * * * * * * * * * * //

dimensions      [0 3 -1 0 0 0 0];

oriented        oriented;

internalField   nonuniform List<scalar> 
130560
(
-3.5090526e-06
3.5090526e-06
-7.0161266e-06
3.507074e-06
-1.0519244e-05
3.5031175e-06
-1.4016429e-05
3.4971849e-06
-1.7505708e-05
3.4892788e-06
-2.098511e-05
3.4794026e-06
-2.4452671e-05
3.4675608e-06
-2.7906429e-05
3.4537583e-06
-3.1344431e-05
3.4380014e-06
-3.4764728e-05
3.4202969e-06
-3.816538e-05
3.4006526e-06
-4.1544458e-05
3.3790772e-06
-4.4900038e-05
3.3555803e-06
-4.823021e-05
3.3301722e-06
-5.1533074e-05
3.3028643e-06
-5.4806743e-05
3.2736688e-06
-5.8049342e-05
3.2425989e-06
-6.125901e-05
3.2096683e-06
-6.4433903e-05
3.1748922e-06
-6.7572189e-05
3.1382862e-06
-7.0672056e-05
3.0998671e-06
-7.3731708e-05
3.0596524e-06
-7.6749369e-05
3.0176607e-06
-7.972328e-05
2.9739113e-06
-8.2651705e-05
2.9284247e-06
-8.5532927e-05
2.881222e-06
-8.8365252e-05
2.8323255e-06
-9.1147011e-05
2.7817583e-06
-9.3876555e-05
2.7295444e-06
-9.6552264e-05
2.6757087e-06
-9.9172541e-05
2.6202772e-06
-0.00010173582
2.5632766e-06
-0.00010424055
2.5047348e-06
-0.00010668523
2.4446802e-06
-0.00010906838
2.3831426e-06
-0.00011138853
2.3201525e-06
-0.00011364427
2.2557412e-06
-0.00011583421
2.1899411e-06
-0.000117957
2.1227856e-06
-0.0001200113
2.0543087e-06
-0.00012199585
1.9845455e-06
-0.00012390938
1.913532e-06
-0.00012575069
1.8413051e-06
-0.00012751859
1.7679024e-06
-0.00012921195
1.6933627e-06
-0.00013082968
1.6177253e-06
-0.00013237071
1.5410306e-06
-0.00013383403
1.4633197e-06
-0.00013521866
1.3846346e-06
-0.00013652368
1.3050181e-06
-0.00013774819
1.2245137e-06
-0.00013889136
1.1431659e-06
-0.00013995238
1.0610198e-06
-0.0001409305
9.7812117e-07
-0.00014182502
8.9451667e-07
-0.00014263527
8.1025358e-07
-0.00014336065
7.2537988e-07
-0.0001440006
6.3994421e-07
-0.00014455459
5.5399584e-07
-0.00014502218
4.6758466e-07
-0.00014540294
3.8076115e-07
-0.00014569651
2.9357634e-07
-0.00014590259
2.0608175e-07
-0.00014602092
1.1832906e-07
-0.0001460513
3.0371936e-08
-0.00014599356
-5.7737481e-08
-0.00014584761
-1.4594579e-07
-0.00014561341
-2.3419914e-07
-0.00014529097
-3.2244339e-07
-0.00014488035
-4.106241e-07
-0.00014438166
-4.986866e-07
-0.00014379508
-5.8657595e-07
-0.00014312085
-6.7423704e-07
-0.00014235923
-7.6161456e-07
-0.00014151058
-8.4865312e-07
-0.00014057528
-9.3529722e-07
-0.00013955379
-1.0214913e-06
-0.00013844661
-1.1071799e-06
-0.0001372543
-1.1923075e-06
-0.00013597748
-1.2768186e-06
-0.00013461683
-1.360658e-06
-0.00013317306
-1.4437706e-06
-0.00013164695
-1.5261014e-06
-0.00013003936
-1.6075959e-06
-0.00012835116
-1.6881997e-06
-0.0001265833
-1.7678588e-06
-0.00012473678
-1.8465196e-06
-0.00012281265
-1.924129e-06
-0.00012081202
-2.0006342e-06
-0.00011873603
-2.0759831e-06
-0.00011658591
-2.1501242e-06
-0.0001143629
-2.2230065e-06
-0.00011206832
-2.2945798e-06
-0.00010970353
-2.3647944e-06
-0.00010726993
-2.4336015e-06
-0.00010476897
-2.5009532e-06
-0.00010220217
-2.5668023e-06
-9.957107e-05
-2.6311025e-06
-9.6877261e-05
-2.6938085e-06
-9.4122385e-05
-2.7548759e-06
-9.1308124e-05
-2.8142614e-06
-8.8436201e-05
-2.8719227e-06
-8.5508382e-05
-2.9278187e-06
-8.2526473e-05
-2.9819094e-06
-7.9492317e-05
-3.0341558e-06
-7.6407797e-05
-3.0845205e-06
-7.327483e-05
-3.132967e-06
-7.0095369e-05
-3.1794603e-06
-6.6871403e-05
-3.2239667e-06
-6.3604949e-05
-3.2664538e-06
-6.0298058e-05
-3.3068908e-06
-5.695281e-05
-3.345248e-06
-5.3571313e-05
-3.3814974e-06
-5.01557e-05
-3.4156125e-06
-4.6708132e-05
-3.4475683e-06
-4.3230791e-05
-3.4773412e-06
-3.9725881e-05
-3.5049093e-06
-3.6195629e-05
-3.5302523e-06
-3.2642278e-05
-3.5533516e-06
-2.9068088e-05
-3.5741899e-06
-2.5475336e-05
-3.592752e-06
-2.1866312e-05
-3.6090241e-06
-1.8243317e-05
-3.6229941e-06
-1.4608666e-05
-3.6346516e-06
-1.0964678e-05
-3.643988e-06
-7.3136815e-06
-3.6509964e-06
-3.65801e-06
-3.6556715e-06
7.7553788e-16
-3.65801e-06
3.65801e-06
-3.65801e-06
7.3136815e-06
-3.6556715e-06
1.0964678e-05
-3.6509964e-06
1.4608666e-05
-3.643988e-06
1.8243317e-05
-3.6346516e-06
2.1866312e-05
-3.6229941e-06
2.5475336e-05
-3.6090241e-06
2.9068088e-05
-3.592752e-06
3.2642278e-05
-3.5741899e-06
3.6195629e-05
-3.5533516e-06
3.9725881e-05
-3.5302523e-06
4.3230791e-05
-3.5049093e-06
4.6708132e-05
-3.4773412e-06
5.01557e-05
-3.4475683e-06
5.3571313e-05
-3.4156125e-06
5.695281e-05
-3.3814974e-06
6.0298058e-05
-3.345248e-06
6.3604949e-05
-3.3068908e-06
6.6871403e-05
-3.2664538e-06
7.0095369e-05
-3.2239667e-06
7.327483e-05
-3.1794603e-06
7.6407797e-05
-3.132967e-06
7.9492317e-05
-3.0845205e-06
8.2526473e-05
-3.0341558e-06
8.5508382e-05
-2.9819094e-06
8.8436201e-05
-2.9278187e-06
9.1308124e-05
-2.8719227e-06
9.4122385e-05
-2.8142614e-06
9.6877261e-05
-2.7548759e-06
9.957107e-05
-2.6938085e-06
0.00010220217
-2.6311025e-06
0.00010476897
-2.5668023e-06
0.00010726993
-2.5009532e-06
0.00010970353
-2.4336015e-06
0.00011206832
-2.3647944e-06
0.0001143629
-2.2945798e-06
0.00011658591
-2.2230065e-06
0.00011873603
-2.1501242e-06
0.00012081202
-2.0759831e-06
0.00012281265
-2.0006342e-06
0.00012473678
-1.924129e-06
0.0001265833
-1.8465196e-06
0.00012835116
-1.7678588e-06
0.00013003936
-1.6881997e-06
0.00013164695
-1.6075959e-06
0.00013317306
-1.5261014e-06
0.00013461683
-1.4437706e-06
0.00013597748
-1.360658e-06
0.0001372543
-1.2768186e-06
0.00013844661
-1.1923075e-06
0.00013955379
-1.1071799e-06
0.00014057528
-1.0214913e-06
0.00014151058
-9.3529722e-07
0.00014235923
-8.4865312e-07
0.00014312085
-7.6161456e-07
0.00014379508
-6.7423704e-07
0.00014438166
-5.8657595e-07
0.00014488035
-4.986866e-07
0.00014529097
-4.106241e-07
0.00014561341
-3.2244339e-07
0.00014584761
-2.3419914e-07
0.00014599356
-1.4594579e-07
0.0001460513
-5.773748e-08
0.00014602092
3.0371936e-08
0.00014590259
1.1832906e-07
0.00014569651
2.0608175e-07
0.00014540294
2.9357634e-07
0.00014502218
3.8076115e-07
0.00014455459
4.6758466e-07
0.0001440006
5.5399584e-07
0.00014336065
6.3994421e-07
0.00014263527
7.2537988e-07
0.00014182502
8.1025358e-07
0.0001409305
8.9451667e-07
0.00013995238
9.7812117e-07
0.00013889136
1.0610198e-06
0.00013774819
1.1431659e-06
0.00013652368
1.2245137e-06
0.00013521866
1.3050181e-06
0.00013383403
1.3846346e-06
0.00013237071
1.4633197e-06
0.00013082968
1.5410306e-06
0.00012921195
1.6177253e-06
0.00012751859
1.6933627e-06
0.00012575069
1.7679024e-06
0.00012390938
1.8413051e-06
0.00012199585
1.913532e-06
0.0001200113
1.9845455e-06
0.000117957
2.0543087e-06
0.00011583421
2.1227856e-06
0.00011364427
2.1899411e-06
0.00011138853
2.2557412e-06
0.00010906838
2.3201525e-06
0.00010668523
2.3831426e-06
0.00010424055
2.4446802e-06
0.00010173582
2.5047348e-06
9.9172541e-05
2.5632766e-06
9.6552264e-05
2.6202772e-06
9.3876555e-05
2.6757087e-06
9.1147011e-05
2.7295444e-06
8.8365252e-05
2.7817583e-06
8.5532927e-05
2.8323255e-06
8.2651705e-05
2.881222e-06
7.972328e-05
2.9284247e-06
7.6749369e-05
2.9739113e-06
7.3731708e-05
3.0176607e-06
7.0672056e-05
3.0596524e-06
6.7572189e-05
3.0998671e-06
6.4433903e-05
3.1382862e-06
6.125901e-05
3.1748922e-06
5.8049342e-05
3.2096683e-06
5.4806743e-05
3.2425989e-06
5.1533074e-05
3.2736688e-06
4.823021e-05
3.3028643e-06
4.4900038e-05
3.3301722e-06
4.1544458e-05
3.3555803e-06
3.816538e-05
3.3790772e-06
3.4764728e-05
3.4006526e-06
3.1344431e-05
3.4202969e-06
2.7906429e-05
3.4380014e-06
2.4452671e-05
3.4537583e-06
2.098511e-05
3.4675608e-06
1.7505708e-05
3.4794026e-06
1.4016429e-05
3.4892788e-06
1.0519244e-05
3.4971849e-06
7.0161266e-06
3.5031175e-06
3.5090526e-06
3.507074e-06
3.5090526e-06
-3.5109945e-06
7.0200471e-06
-7.0200093e-06
7.0160888e-06
-1.0525066e-05
7.0081739e-06
-1.4024187e-05
6.9963058e-06
-1.7515398e-05
6.9804898e-06
-2.0996728e-05
6.9607327e-06
-2.446621e-05
6.9370432e-06
-2.7921883e-05
6.9094316e-06
-3.1361792e-05
6.87791e-06
-3.4783988e-05
6.8424924e-06
-3.8186529e-05
6.8031942e-06
-4.1567485e-05
6.7600329e-06
-4.4924932e-05
6.7130275e-06
-4.8256959e-05
6.6621989e-06
-5.1561664e-05
6.6075698e-06
-5.483716e-05
6.5491644e-06
-5.808157e-05
6.4870091e-06
-6.1293034e-05
6.4211319e-06
-6.4469704e-05
6.3515624e-06
-6.760975e-05
6.2783323e-06
-7.0711358e-05
6.2014749e-06
-7.3772731e-05
6.1210255e-06
-7.6792091e-05
6.037021e-06
-7.976768e-05
5.9495004e-06
-8.269776e-05
5.8585044e-06
-8.5580613e-05
5.7640753e-06
-8.8414545e-05
5.6662577e-06
-9.1197885e-05
5.5650977e-06
-9.3928984e-05
5.4606433e-06
-9.660622e-05
5.3529446e-06
-9.9227996e-05
5.2420533e-06
-0.00010179274
5.128023e-06
-0.00010429892
5.0109091e-06
-0.00010674501
4.8907691e-06
-0.00010912952
4.7676621e-06
-0.00011145102
4.6416492e-06
-0.00011370807
4.5127931e-06
-0.00011589929
4.3811587e-06
-0.00011802332
4.2468125e-06
-0.00012007883
4.1098227e-06
-0.00012206455
3.9702596e-06
-0.00012397921
3.8281951e-06
-0.00012582161
3.683703e-06
-0.00012759056
3.5368586e-06
-0.00012928494
3.3877393e-06
-0.00013090364
3.236424e-06
-0.0001324456
3.0829933e-06
-0.00013390981
2.9275296e-06
-0.00013529529
2.7701168e-06
-0.00013660112
2.6108405e-06
-0.00013782639
2.449788e-06
-0.00013897027
2.2870479e-06
-0.00014003196
2.1227105e-06
-0.00014101071
1.9568676e-06
-0.00014190581
1.7896123e-06
-0.00014271659
1.6210394e-06
-0.00014344246
1.4512447e-06
-0.00014408284
1.2803256e-06
-0.00014463722
1.1083807e-06
-0.00014510515
9.3550972e-07
-0.0001454862
7.6181365e-07
-0.00014578002
5.8739457e-07
-0.00014598629
4.1235559e-07
-0.00014610476
2.3680077e-07
-0.00014613523
6.0835719e-08
-0.00014607753
-1.1543388e-07
-0.00014593158
-2.9190135e-07
-0.00014569732
-4.6845907e-07
-0.00014537476
-6.4499877e-07
-0.00014496397
-8.2141156e-07
-0.00014446507
-9.9758803e-07
-0.00014387823
-1.1734183e-06
-0.00014320367
-1.348792e-06
-0.00014244169
-1.5235987e-06
-0.00014159262
-1.6977273e-06
-0.00014065685
-1.871067e-06
-0.00013963483
-2.0435066e-06
-0.00013852708
-2.214935e-06
-0.00013733414
-2.3852412e-06
-0.00013605665
-2.5543143e-06
-0.00013469526
-2.7220438e-06
-0.00013325071
-2.8883193e-06
-0.00013172378
-3.0530311e-06
-0.00013011531
-3.2160697e-06
-0.00012842618
-3.3773266e-06
-0.00012665735
-3.5366936e-06
-0.0001248098
-3.6940636e-06
-0.0001228846
-3.8493302e-06
-0.00012088285
-4.0023879e-06
-0.0001188057
-4.1531326e-06
-0.00011665436
-4.3014609e-06
-0.0001144301
-4.447271e-06
-0.00011213421
-4.5904622e-06
-0.00010976807
-4.7309355e-06
-0.00010733308
-4.868593e-06
-0.0001048307
-5.0033389e-06
-0.00010226242
-5.1350787e-06
-9.9629802e-05
-5.2637198e-06
-9.6934439e-05
-5.3891716e-06
-9.417797e-05
-5.5113452e-06
-9.1362077e-05
-5.6301541e-06
-8.8488486e-05
-5.7455136e-06
-8.5558964e-05
-5.8573414e-06
-8.2575316e-05
-5.9655574e-06
-7.9539387e-05
-6.0700839e-06
-7.6453062e-05
-6.1708457e-06
-7.3318259e-05
-6.26777e-06
-7.0136933e-05
-6.3607867e-06
-6.6911071e-05
-6.4498283e-06
-6.3642695e-05
-6.5348301e-06
-6.0333855e-05
-6.6157303e-06
-5.6986634e-05
-6.6924697e-06
-5.3603139e-05
-6.7649922e-06
-5.0185507e-05
-6.8332447e-06
-4.6735898e-05
-6.897177e-06
-4.3256497e-05
-6.9567423e-06
-3.9749509e-05
-7.0118966e-06
-3.6217162e-05
-7.0625993e-06
-3.2661701e-05
-7.1088129e-06
-2.9085388e-05
-7.1505034e-06
-2.54905e-05
-7.1876397e-06
-2.187933e-05
-7.2201945e-06
-1.825418e-05
-7.2481437e-06
-1.4617365e-05
-7.2714664e-06
-1.0971208e-05
-7.2901454e-06
-7.3180373e-06
-7.3041668e-06
-3.6601886e-06
-7.3135202e-06
7.2683934e-16
-7.3181986e-06
3.6601886e-06
-7.3181986e-06
7.3180373e-06
-7.3135202e-06
1.0971208e-05
-7.3041668e-06
1.4617365e-05
-7.2901454e-06
1.825418e-05
-7.2714664e-06
2.187933e-05
-7.2481437e-06
2.54905e-05
-7.2201945e-06
2.9085388e-05
-7.1876397e-06
3.2661701e-05
-7.1505034e-06
3.6217162e-05
-7.1088129e-06
3.9749509e-05
-7.0625993e-06
4.3256497e-05
-7.0118966e-06
4.6735898e-05
-6.9567423e-06
5.0185507e-05
-6.897177e-06
5.3603139e-05
-6.8332447e-06
5.6986634e-05
-6.7649922e-06
6.0333855e-05
-6.6924697e-06
6.3642695e-05
-6.6157303e-06
6.6911071e-05
-6.5348301e-06
7.0136933e-05
-6.4498283e-06
7.3318259e-05
-6.3607867e-06
7.6453062e-05
-6.26777e-06
7.9539387e-05
-6.1708457e-06
8.2575316e-05
-6.0700839e-06
8.5558964e-05
-5.9655574e-06
8.8488486e-05
-5.8573414e-06
9.1362077e-05
-5.7455136e-06
9.417797e-05
-5.6301541e-06
9.6934439e-05
-5.5113452e-06
9.9629802e-05
-5.3891716e-06
0.00010226242
-5.2637198e-06
0.0001048307
-5.1350787e-06
0.00010733308
-5.0033389e-06
0.00010976807
-4.868593e-06
0.00011213421
-4.7309355e-06
0.0001144301
-4.5904622e-06
0.00011665436
-4.447271e-06
0.0001188057
-4.3014609e-06
0.00012088285
-4.1531325e-06
0.0001228846
-4.0023879e-06
0.0001248098
-3.8493302e-06
0.00012665735
-3.6940636e-06
0.00012842618
-3.5366936e-06
0.00013011531
-3.3773266e-06
0.00013172378
-3.2160697e-06
0.00013325071
-3.0530311e-06
0.00013469526
-2.8883193e-06
0.00013605665
-2.7220438e-06
0.00013733414
-2.5543143e-06
0.00013852708
-2.3852412e-06
0.00013963483
-2.214935e-06
0.00014065685
-2.0435066e-06
0.00014159262
-1.871067e-06
0.00014244169
-1.6977273e-06
0.00014320367
-1.5235987e-06
0.00014387823
-1.348792e-06
0.00014446507
-1.1734183e-06
0.00014496397
-9.9758802e-07
0.00014537476
-8.2141156e-07
0.00014569732
-6.4499877e-07
0.00014593158
-4.6845907e-07
0.00014607753
-2.9190135e-07
0.00014613523
-1.1543388e-07
0.00014610476
6.083572e-08
0.00014598629
2.3680077e-07
0.00014578002
4.123556e-07
0.0001454862
5.8739458e-07
0.00014510515
7.6181365e-07
0.00014463722
9.3550972e-07
0.00014408284
1.1083807e-06
0.00014344246
1.2803256e-06
0.00014271659
1.4512447e-06
0.00014190581
1.6210394e-06
0.00014101071
1.7896123e-06
0.00014003196
1.9568676e-06
0.00013897027
2.1227105e-06
0.00013782639
2.2870479e-06
0.00013660112
2.449788e-06
0.00013529529
2.6108405e-06
0.00013390981
2.7701168e-06
0.0001324456
2.9275296e-06
0.00013090364
3.0829933e-06
0.00012928494
3.236424e-06
0.00012759056
3.3877393e-06
0.00012582161
3.5368586e-06
0.00012397921
3.683703e-06
0.00012206455
3.8281951e-06
0.00012007883
3.9702596e-06
0.00011802332
4.1098227e-06
0.00011589929
4.2468125e-06
0.00011370807
4.3811587e-06
0.00011145102
4.5127931e-06
0.00010912952
4.6416492e-06
0.00010674501
4.7676621e-06
0.00010429892
4.8907691e-06
0.00010179274
5.0109091e-06
9.9227996e-05
5.128023e-06
9.660622e-05
5.2420533e-06
9.3928984e-05
5.3529446e-06
9.1197885e-05
5.4606433e-06
8.8414545e-05
5.5650977e-06
8.5580613e-05
5.6662577e-06
8.269776e-05
5.7640753e-06
7.976768e-05
5.8585044e-06
7.6792091e-05
5.9495004e-06
7.3772731e-05
6.037021e-06
7.0711358e-05
6.1210255e-06
6.760975e-05
6.2014749e-06
6.4469704e-05
6.2783323e-06
6.1293034e-05
6.3515624e-06
5.808157e-05
6.4211319e-06
5.483716e-05
6.4870091e-06
5.1561664e-05
6.5491644e-06
4.8256959e-05
6.6075698e-06
4.4924932e-05
6.6621989e-06
4.1567485e-05
6.7130275e-06
3.8186529e-05
6.7600329e-06
3.4783988e-05
6.8031942e-06
3.1361792e-05
6.8424924e-06
2.7921883e-05
6.8779101e-06
2.446621e-05
6.9094316e-06
2.0996728e-05
6.9370432e-06
1.7515398e-05
6.9607327e-06
1.4024187e-05
6.9804898e-06
1.0525066e-05
6.9963058e-06
7.0200093e-06
7.0081739e-06
3.5109945e-06
7.0160888e-06
7.0200471e-06
-3.5139e-06
1.0533947e-05
-7.0258188e-06
1.0528008e-05
-1.0533776e-05
1.0516131e-05
-1.4035794e-05
1.0498323e-05
-1.7529895e-05
1.0474591e-05
-2.1014108e-05
1.0444946e-05
-2.4486465e-05
1.04094e-05
-2.7945002e-05
1.0367969e-05
-3.1387762e-05
1.032067e-05
-3.4812796e-05
1.0267526e-05
-3.8218161e-05
1.0208559e-05
-4.1601924e-05
1.0143796e-05
-4.496216e-05
1.0073264e-05
-4.8296957e-05
9.9969955e-06
-5.1604411e-05
9.9150242e-06
-5.4882634e-05
9.8273868e-06
-5.8129747e-05
9.7341225e-06
-6.1343888e-05
9.6352732e-06
-6.452321e-05
9.5308838e-06
-6.7665879e-05
9.4210014e-06
-7.0770081e-05
9.3056763e-06
-7.3834016e-05
9.1849613e-06
-7.6855907e-05
9.0589118e-06
-7.9833993e-05
8.9275862e-06
-8.2766534e-05
8.7910455e-06
-8.5651812e-05
8.6493535e-06
-8.8488131e-05
8.5025768e-06
-9.1273818e-05
8.3507847e-06
-9.4007224e-05
8.1940493e-06
-9.6686725e-05
8.0324455e-06
-9.9310723e-05
7.866051e-06
-0.00010187765
7.6949463e-06
-0.00010438595
7.5192146e-06
-0.00010683412
7.3389419e-06
-0.00010922068
7.154217e-06
-0.00011154416
6.9651315e-06
-0.00011380315
6.7717797e-06
-0.00011599625
6.5742587e-06
-0.0001181221
6.3726683e-06
-0.00012017939
6.1671111e-06
-0.00012216682
5.9576924e-06
-0.00012408315
5.74452e-06
-0.00012592715
5.5277047e-06
-0.00012769765
5.3073596e-06
-0.00012939351
5.0836006e-06
-0.00013101364
4.8565462e-06
-0.00013255696
4.6263175e-06
-0.00013402247
4.3930378e-06
-0.00013540918
4.1568332e-06
-0.00013671618
3.9178322e-06
-0.00013794255
3.6761656e-06
-0.00013908747
3.4319664e-06
-0.00014015013
3.1853703e-06
-0.00014112978
2.9365147e-06
-0.00014202571
2.6855397e-06
-0.00014283725
2.4325871e-06
-0.00014356381
2.177801e-06
-0.00014420481
1.9213274e-06
-0.00014475975
1.6633142e-06
-0.00014522815
1.4039111e-06
-0.0001456096
1.1432696e-06
-0.00014590375
8.8154299e-07
-0.00014611028
6.1888593e-07
-0.00014622894
3.5545473e-07
-0.00014625951
9.1407314e-08
-0.00014620184
-1.7309736e-07
-0.00014605585
-4.3789914e-07
-0.00014582147
-7.0283659e-07
-0.00014549872
-9.6774728e-07
-0.00014508766
-1.2324678e-06
-0.00014458842
-1.496834e-06
-0.00014400116
-1.760681e-06
-0.0001433261
-2.0238432e-06
-0.00014256355
-2.2861547e-06
-0.00014171383
-2.5474491e-06
-0.00014077733
-2.8075599e-06
-0.00013975452
-3.0663203e-06
-0.00013864589
-3.3235636e-06
-0.00013745201
-3.5791231e-06
-0.00013617349
-3.8328326e-06
-0.00013481101
-4.0845261e-06
-0.00013336529
-4.3340381e-06
-0.00013183712
-4.5812038e-06
-0.00013022733
-4.825859e-06
-0.00012853681
-5.0678408e-06
-0.00012676652
-5.3069869e-06
-0.00012491745
-5.5431365e-06
-0.00012299065
-5.77613e-06
-0.00012098723
-6.0058091e-06
-0.00011890834
-6.2320174e-06
-0.0001167552
-6.4545999e-06
-0.00011452907
-6.6734038e-06
-0.00011223125
-6.8882781e-06
-0.00010986312
-7.0990739e-06
-0.00010742606
-7.3056446e-06
-0.00010492156
-7.5078462e-06
-0.0001023511
-7.7055369e-06
-9.9716241e-05
-7.898578e-06
-9.7018579e-05
-8.0868332e-06
-9.4259755e-05
-8.2701694e-06
-9.1441452e-05
-8.4484565e-06
-8.8565398e-05
-8.6215675e-06
-8.5633361e-05
-8.7893789e-06
-8.2647148e-05
-8.9517705e-06
-7.9608606e-05
-9.1086256e-06
-7.6519621e-05
-9.2598314e-06
-7.3382112e-05
-9.4052787e-06
-7.0198036e-05
-9.5448622e-06
-6.6969384e-05
-9.6784807e-06
-6.3698177e-05
-9.806037e-06
-6.0386469e-05
-9.9274383e-06
-5.7036343e-05
-1.0042596e-05
-5.3649909e-05
-1.0151426e-05
-5.0229306e-05
-1.0253848e-05
-4.6776697e-05
-1.0349787e-05
-4.3294267e-05
-1.0439172e-05
-3.9784224e-05
-1.0521939e-05
-3.6248798e-05
-1.0598025e-05
-3.2690236e-05
-1.0667375e-05
-2.9110802e-05
-1.0729937e-05
-2.5512776e-05
-1.0785666e-05
-2.1898452e-05
-1.0834519e-05
-1.8270136e-05
-1.087646e-05
-1.4630143e-05
-1.0911459e-05
-1.0980799e-05
-1.093949e-05
-7.3244352e-06
-1.0960531e-05
-3.6633887e-06
-1.0974567e-05
6.8361296e-16
-1.0981587e-05
3.6633887e-06
-1.0981587e-05
7.3244352e-06
-1.0974567e-05
1.0980799e-05
-1.0960531e-05
1.4630143e-05
-1.093949e-05
1.8270136e-05
-1.0911459e-05
2.1898452e-05
-1.087646e-05
2.5512776e-05
-1.0834519e-05
2.9110802e-05
-1.0785666e-05
3.2690236e-05
-1.0729937e-05
3.6248798e-05
-1.0667375e-05
3.9784224e-05
-1.0598025e-05
4.3294267e-05
-1.0521939e-05
4.6776697e-05
-1.0439172e-05
5.0229306e-05
-1.0349787e-05
5.3649909e-05
-1.0253848e-05
5.7036343e-05
-1.0151426e-05
6.0386469e-05
-1.0042596e-05
6.3698177e-05
-9.9274383e-06
6.6969384e-05
-9.806037e-06
7.0198036e-05
-9.6784807e-06
7.3382112e-05
-9.5448622e-06
7.6519621e-05
-9.4052787e-06
7.9608606e-05
-9.2598314e-06
8.2647148e-05
-9.1086256e-06
8.5633361e-05
-8.9517705e-06
8.8565398e-05
-8.7893789e-06
9.1441452e-05
-8.6215675e-06
9.4259755e-05
-8.4484565e-06
9.7018579e-05
-8.2701694e-06
9.9716241e-05
-8.0868332e-06
0.0001023511
-7.898578e-06
0.00010492156
-7.7055369e-06
0.00010742606
-7.5078462e-06
0.00010986312
-7.3056446e-06
0.00011223125
-7.0990739e-06
0.00011452907
-6.8882781e-06
0.0001167552
-6.6734038e-06
0.00011890834
-6.4545999e-06
0.00012098723
-6.2320174e-06
0.00012299065
-6.0058091e-06
0.00012491745
-5.77613e-06
0.00012676652
-5.5431365e-06
0.00012853681
-5.3069869e-06
0.00013022733
-5.0678408e-06
0.00013183712
-4.825859e-06
0.00013336529
-4.5812038e-06
0.00013481101
-4.3340381e-06
0.00013617349
-4.0845261e-06
0.00013745201
-3.8328326e-06
0.00013864589
-3.5791231e-06
0.00013975452
-3.3235635e-06
0.00014077733
-3.0663203e-06
0.00014171383
-2.8075599e-06
0.00014256355
-2.5474491e-06
0.0001433261
-2.2861547e-06
0.00014400116
-2.0238432e-06
0.00014458842
-1.760681e-06
0.00014508766
-1.496834e-06
0.00014549872
-1.2324678e-06
0.00014582147
-9.6774728e-07
0.00014605585
-7.0283659e-07
0.00014620184
-4.3789913e-07
0.00014625951
-1.7309736e-07
0.00014622894
9.1407315e-08
0.00014611028
3.5545473e-07
0.00014590375
6.1888593e-07
0.0001456096
8.8154299e-07
0.00014522815
1.1432696e-06
0.00014475975
1.4039111e-06
0.00014420481
1.6633142e-06
0.00014356381
1.9213274e-06
0.00014283725
2.177801e-06
0.00014202571
2.4325871e-06
0.00014112978
2.6855397e-06
0.00014015013
2.9365147e-06
0.00013908747
3.1853703e-06
0.00013794255
3.4319664e-06
0.00013671618
3.6761656e-06
0.00013540918
3.9178322e-06
0.00013402247
4.1568332e-06
0.00013255696
4.3930378e-06
0.00013101364
4.6263175e-06
0.00012939351
4.8565462e-06
0.00012769765
5.0836006e-06
0.00012592715
5.3073596e-06
0.00012408315
5.5277047e-06
0.00012216682
5.74452e-06
0.00012017939
5.9576924e-06
0.0001181221
6.1671111e-06
0.00011599625
6.3726683e-06
0.00011380315
6.5742587e-06
0.00011154416
6.7717797e-06
0.00010922068
6.9651315e-06
0.00010683412
7.154217e-06
0.00010438595
7.3389419e-06
0.00010187765
7.5192146e-06
9.9310723e-05
7.6949463e-06
9.6686725e-05
7.866051e-06
9.4007224e-05
8.0324455e-06
9.1273818e-05
8.1940493e-06
8.8488131e-05
8.3507847e-06
8.5651812e-05
8.5025768e-06
8.2766534e-05
8.6493535e-06
7.9833993e-05
8.7910455e-06
7.6855907e-05
8.9275862e-06
7.3834016e-05
9.0589118e-06
7.0770081e-05
9.1849613e-06
6.7665879e-05
9.3056763e-06
6.452321e-05
9.4210014e-06
6.1343888e-05
9.5308838e-06
5.8129747e-05
9.6352732e-06
5.4882634e-05
9.7341225e-06
5.1604411e-05
9.8273868e-06
4.8296957e-05
9.9150242e-06
4.496216e-05
9.9969955e-06
4.1601924e-05
1.0073264e-05
3.8218161e-05
1.0143796e-05
3.4812796e-05
1.0208559e-05
3.1387762e-05
1.0267526e-05
2.7945002e-05
1.032067e-05
2.4486465e-05
1.0367969e-05
2.1014108e-05
1.04094e-05
1.7529895e-05
1.0444946e-05
1.4035794e-05
1.0474591e-05
1.0533776e-05
1.0498323e-05
7.0258188e-06
1.0516131e-05
3.5139e-06
1.0528008e-05
1.0533947e-05
-3.5177778e-06
1.4051725e-05
-7.0335724e-06
1.4043802e-05
-1.0545401e-05
1.402796e-05
-1.4051285e-05
1.4004206e-05
-1.7549244e-05
1.397255e-05
-2.1037304e-05
1.3933006e-05
-2.4513496e-05
1.3885591e-05
-2.7975853e-05
1.3830326e-05
-3.1422418e-05
1.3767235e-05
-3.4851239e-05
1.3696346e-05
-3.826037e-05
1.361769e-05
-4.1647876e-05
1.3531302e-05
-4.5011832e-05
1.343722e-05
-4.8350322e-05
1.3335485e-05
-5.1661442e-05
1.3226144e-05
-5.4943299e-05
1.3109244e-05
-5.8194015e-05
1.2984838e-05
-6.1411724e-05
1.2852983e-05
-6.4594578e-05
1.2713737e-05
-6.7740741e-05
1.2567165e-05
-7.0848397e-05
1.2413332e-05
-7.3915745e-05
1.2252309e-05
-7.6941004e-05
1.2084171e-05
-7.9922412e-05
1.1908995e-05
-8.2858229e-05
1.1726862e-05
-8.5746732e-05
1.1537857e-05
-8.8586226e-05
1.134207e-05
-9.1375034e-05
1.1139593e-05
-9.4111506e-05
1.0930521e-05
-9.6794016e-05
1.0714956e-05
-9.9420965e-05
1.0493e-05
-0.00010199078
1.026476e-05
-0.00010450191
1.0030349e-05
-0.00010695285
9.7898795e-06
-0.0001093421
9.5434713e-06
-0.00011166822
9.2912462e-06
-0.00011392977
9.03333e-06
-0.00011612536
8.7698522e-06
-0.00011825364
8.5009459e-06
-0.00012031328
8.2267479e-06
-0.00012230298
7.9473986e-06
-0.00012422151
7.663042e-06
-0.00012606763
7.3738256e-06
-0.00012784017
7.0799006e-06
-0.00012953799
6.7814214e-06
-0.00013115999
6.478546e-06
-0.00013270511
6.1714359e-06
-0.00013417232
5.8602558e-06
-0.00013556067
5.5451738e-06
-0.00013686919
5.2263611e-06
-0.00013809702
4.9039924e-06
-0.0001392433
4.5782451e-06
-0.00014030723
4.2493e-06
-0.00014128806
3.9173407e-06
-0.00014218507
3.5825537e-06
-0.00014299761
3.2451284e-06
-0.00014372507
2.905257e-06
-0.00014436687
2.5631342e-06
-0.00014492252
2.2189572e-06
-0.00014539153
1.8729258e-06
-0.0001457735
1.5252421e-06
-0.00014606807
1.1761105e-06
-0.00014627492
8.2573741e-07
-0.0001463938
4.7433131e-07
-0.00014642449
1.2210269e-07
-0.00014636686
-2.3073633e-07
-0.00014622078
-5.8397202e-07
-0.00014598623
-9.3738907e-07
-0.00014566321
-1.2907708e-06
-0.00014525178
-1.6438993e-06
-0.00014475205
-1.9965555e-06
-0.00014416422
-2.3485194e-06
-0.00014348849
-2.6995703e-06
-0.00014272516
-3.0494868e-06
-0.00014187456
-3.398047e-06
-0.00014093709
-3.7450285e-06
-0.0001399132
-4.0902092e-06
-0.0001388034
-4.4333664e-06
-0.00013760824
-4.7742779e-06
-0.00013632835
-5.1127219e-06
-0.0001349644
-5.448477e-06
-0.00013351712
-5.7813223e-06
-0.00013198728
-6.1110381e-06
-0.00013037574
-6.4374054e-06
-0.00012868337
-6.7602066e-06
-0.00012691113
-7.0792255e-06
-0.00012506002
-7.3942474e-06
-0.00012313109
-7.7050594e-06
-0.00012112545
-8.0114504e-06
-0.00011904426
-8.3132117e-06
-0.00011688872
-8.6101366e-06
-0.0001146601
-8.9020211e-06
-0.00011235972
-9.1886637e-06
-0.00010998893
-9.4698659e-06
-0.00010754914
-9.7454323e-06
-0.00010504181
-1.001517e-05
-0.00010246846
-1.0278891e-05
-9.9830628e-05
-1.053641e-05
-9.7129917e-05
-1.0787544e-05
-9.436797e-05
-1.1032117e-05
-9.1546473e-05
-1.1269954e-05
-8.8667154e-05
-1.1500886e-05
-8.5731784e-05
-1.1724749e-05
-8.2742172e-05
-1.1941382e-05
-7.9700168e-05
-1.215063e-05
-7.6607659e-05
-1.2352341e-05
-7.3466567e-05
-1.254637e-05
-7.0278852e-05
-1.2732578e-05
-6.7046505e-05
-1.2910827e-05
-6.3771551e-05
-1.3080991e-05
-6.0456047e-05
-1.3242943e-05
-5.7102077e-05
-1.3396566e-05
-5.3711756e-05
-1.3541747e-05
-5.0287223e-05
-1.3678381e-05
-4.6830643e-05
-1.3806366e-05
-4.3344207e-05
-1.3925609e-05
-3.9830124e-05
-1.4036022e-05
-3.6290626e-05
-1.4137523e-05
-3.2727963e-05
-1.4230038e-05
-2.9144402e-05
-1.4313498e-05
-2.5542227e-05
-1.4387841e-05
-2.1923734e-05
-1.4453012e-05
-1.829123e-05
-1.4508964e-05
-1.4647036e-05
-1.4555653e-05
-1.0993479e-05
-1.4593047e-05
-7.3328932e-06
-1.4621116e-05
-3.6676192e-06
-1.4639841e-05
6.4754822e-16
-1.4649206e-05
3.6676192e-06
-1.4649206e-05
7.3328932e-06
-1.4639841e-05
1.0993479e-05
-1.4621116e-05
1.4647036e-05
-1.4593047e-05
1.829123e-05
-1.4555653e-05
2.1923734e-05
-1.4508964e-05
2.5542227e-05
-1.4453012e-05
2.9144402e-05
-1.4387841e-05
3.2727963e-05
-1.4313498e-05
3.6290626e-05
-1.4230038e-05
3.9830124e-05
-1.4137523e-05
4.3344207e-05
-1.4036022e-05
4.6830643e-05
-1.3925609e-05
5.0287223e-05
-1.3806366e-05
5.3711756e-05
-1.3678381e-05
5.7102077e-05
-1.3541747e-05
6.0456047e-05
-1.3396566e-05
6.3771551e-05
-1.3242943e-05
6.7046505e-05
-1.3080991e-05
7.0278852e-05
-1.2910827e-05
7.3466567e-05
-1.2732578e-05
7.6607659e-05
-1.254637e-05
7.9700168e-05
-1.2352341e-05
8.2742172e-05
-1.215063e-05
8.5731784e-05
-1.1941382e-05
8.8667154e-05
-1.1724749e-05
9.1546473e-05
-1.1500886e-05
9.436797e-05
-1.1269954e-05
9.7129917e-05
-1.1032117e-05
9.9830628e-05
-1.0787544e-05
0.00010246846
-1.053641e-05
0.00010504181
-1.0278891e-05
0.00010754914
-1.001517e-05
0.00010998893
-9.7454323e-06
0.00011235972
-9.4698659e-06
0.0001146601
-9.1886637e-06
0.00011688872
-8.9020211e-06
0.00011904426
-8.6101366e-06
0.00012112545
-8.3132117e-06
0.00012313109
-8.0114504e-06
0.00012506002
-7.7050594e-06
0.00012691113
-7.3942474e-06
0.00012868337
-7.0792255e-06
0.00013037574
-6.7602066e-06
0.00013198728
-6.4374054e-06
0.00013351712
-6.1110381e-06
0.0001349644
-5.7813223e-06
0.00013632835
-5.448477e-06
0.00013760824
-5.1127219e-06
0.0001388034
-4.7742779e-06
0.0001399132
-4.4333664e-06
0.00014093709
-4.0902091e-06
0.00014187456
-3.7450285e-06
0.00014272516
-3.398047e-06
0.00014348849
-3.0494868e-06
0.00014416422
-2.6995703e-06
0.00014475205
-2.3485194e-06
0.00014525178
-1.9965555e-06
0.00014566321
-1.6438993e-06
0.00014598623
-1.2907708e-06
0.00014622078
-9.3738907e-07
0.00014636686
-5.8397202e-07
0.00014642449
-2.3073633e-07
0.0001463938
1.2210269e-07
0.00014627492
4.7433131e-07
0.00014606807
8.2573741e-07
0.0001457735
1.1761105e-06
0.00014539153
1.5252421e-06
0.00014492252
1.8729258e-06
0.00014436687
2.2189572e-06
0.00014372507
2.5631342e-06
0.00014299761
2.905257e-06
0.00014218507
3.2451284e-06
0.00014128806
3.5825537e-06
0.00014030723
3.9173407e-06
0.0001392433
4.2493e-06
0.00013809702
4.5782451e-06
0.00013686919
4.9039924e-06
0.00013556067
5.2263611e-06
0.00013417232
5.5451738e-06
0.00013270511
5.8602558e-06
0.00013115999
6.1714359e-06
0.00012953799
6.478546e-06
0.00012784017
6.7814214e-06
0.00012606763
7.0799006e-06
0.00012422151
7.3738256e-06
0.00012230298
7.663042e-06
0.00012031328
7.9473986e-06
0.00011825364
8.2267479e-06
0.00011612536
8.5009459e-06
0.00011392977
8.7698522e-06
0.00011166822
9.03333e-06
0.0001093421
9.2912462e-06
0.00010695285
9.5434713e-06
0.00010450191
9.7898795e-06
0.00010199078
1.0030349e-05
9.9420965e-05
1.026476e-05
9.6794016e-05
1.0493e-05
9.4111506e-05
1.0714956e-05
9.1375034e-05
1.0930521e-05
8.8586226e-05
1.1139593e-05
8.5746732e-05
1.134207e-05
8.2858229e-05
1.1537857e-05
7.9922412e-05
1.1726862e-05
7.6941004e-05
1.1908995e-05
7.3915745e-05
1.2084171e-05
7.0848397e-05
1.2252309e-05
6.7740741e-05
1.2413332e-05
6.4594578e-05
1.2567165e-05
6.1411724e-05
1.2713737e-05
5.8194015e-05
1.2852983e-05
5.4943299e-05
1.2984838e-05
5.1661442e-05
1.3109244e-05
4.8350322e-05
1.3226144e-05
4.5011832e-05
1.3335485e-05
4.1647876e-05
1.343722e-05
3.826037e-05