/*--------------------------------*- C++ -*----------------------------------*\
| =========                 |                                                 |
| \\      /  F ield         | OpenFOAM: The Open Source CFD Toolbox           |
|  \\    /   O peration     | Version:  2106                                  |
|   \\  /    A nd           | Website:  www.openfoam.com                      |
|    \\/     M anipulation  |                                                 |
\*---------------------------------------------------------------------------*/
FoamFile
{
    version     2.0;
    format      ascii;
    arch        "LSB;label=32;scalar=64";
    class       volVectorField;
    location    "0.036";
    object      U;
}
// * * * * * * * * * * * * * * * * * * * * * * * * * * * * * * * * * * * * * //

dimensions      [0 1 -1 0 0 0 0];

internalField   nonuniform List<vector> 
65536
(
(-0.00044953001 0.00044942718 0)
(-0.0013483366 0.00044917374 0)
(-0.0022463828 0.00044866697 0)
(-0.0031431621 0.0004479071 0)
(-0.0040381685 0.00044689446 0)
(-0.0049308969 0.00044562948 0)
(-0.0058208431 0.00044411272 0)
(-0.006707504 0.00044234484 0)
(-0.0075903781 0.00044032663 0)
(-0.0084689654 0.00043805896 0)
(-0.0093427681 0.00043554284 0)
(-0.01021129 0.00043277938 0)
(-0.011074038 0.0004297698 0)
(-0.011930521 0.00042651544 0)
(-0.01278025 0.00042301774 0)
(-0.013622741 0.00041927828 0)
(-0.014457512 0.00041529872 0)
(-0.015284083 0.00041108087 0)
(-0.016101981 0.00040662663 0)
(-0.016910734 0.00040193801 0)
(-0.017709875 0.00039701717 0)
(-0.018498943 0.00039186636 0)
(-0.01927748 0.00038648794 0)
(-0.020045033 0.0003808844 0)
(-0.020801153 0.00037505836 0)
(-0.0215454 0.00036901253 0)
(-0.022277335 0.00036274976 0)
(-0.022996529 0.000356273 0)
(-0.023702555 0.00034958535 0)
(-0.024394996 0.00034268998 0)
(-0.025073438 0.00033559022 0)
(-0.025737477 0.00032828951 0)
(-0.026386715 0.00032079139 0)
(-0.027020759 0.00031309954 0)
(-0.027639226 0.00030521776 0)
(-0.02824174 0.00029714994 0)
(-0.028827934 0.00028890011 0)
(-0.029397446 0.00028047242 0)
(-0.029949926 0.00027187113 0)
(-0.03048503 0.00026310062 0)
(-0.031002425 0.00025416538 0)
(-0.031501785 0.00024507002 0)
(-0.031982795 0.00023581925 0)
(-0.032445149 0.00022641791 0)
(-0.032888551 0.00021687095 0)
(-0.033312714 0.00020718342 0)
(-0.033717362 0.00019736049 0)
(-0.03410223 0.00018740742 0)
(-0.034467063 0.0001773296 0)
(-0.034811616 0.00016713251 0)
(-0.035135656 0.00015682172 0)
(-0.035438963 0.00014640292 0)
(-0.035721324 0.00013588189 0)
(-0.035982543 0.0001252645 0)
(-0.036222432 0.00011455673 0)
(-0.036440815 0.00010376463 0)
(-0.036637532 9.2894343e-05 0)
(-0.03681243 8.1952101e-05 0)
(-0.036965374 7.0944215e-05 0)
(-0.037096237 5.9877076e-05 0)
(-0.037204908 4.8757147e-05 0)
(-0.037291288 3.7590963e-05 0)
(-0.03735529 2.6385112e-05 0)
(-0.037396842 1.5146185e-05 0)
(-0.037415885 3.8812933e-06 0)
(-0.037412373 -7.4032861e-06 0)
(-0.037386274 -1.8700456e-05 0)
(-0.037337569 -3.0003369e-05 0)
(-0.037266254 -4.1305093e-05 0)
(-0.037172338 -5.259866e-05 0)
(-0.037055845 -6.3877067e-05 0)
(-0.036916811 -7.5133278e-05 0)
(-0.036755289 -8.6360235e-05 0)
(-0.036571343 -9.7550855e-05 0)
(-0.036365054 -0.00010869804 0)
(-0.036136516 -0.00011979469 0)
(-0.035885836 -0.00013083369 0)
(-0.035613138 -0.00014180793 0)
(-0.035318557 -0.0001527103 0)
(-0.035002245 -0.0001635337 0)
(-0.034664367 -0.00017427106 0)
(-0.034305101 -0.00018491532 0)
(-0.033924642 -0.00019545944 0)
(-0.033523196 -0.00020589643 0)
(-0.033100984 -0.00021621933 0)
(-0.032658243 -0.00022642124 0)
(-0.03219522 -0.00023649527 0)
(-0.031712179 -0.00024643463 0)
(-0.031209395 -0.00025623257 0)
(-0.030687158 -0.00026588242 0)
(-0.030145771 -0.00027537756 0)
(-0.02958555 -0.00028471148 0)
(-0.029006823 -0.00029387774 0)
(-0.028409933 -0.00030286998 0)
(-0.027795235 -0.00031168197 0)
(-0.027163094 -0.00032030754 0)
(-0.026513889 -0.00032874067 0)
(-0.025848012 -0.00033697543 0)
(-0.025165865 -0.00034500601 0)
(-0.024467863 -0.00035282673 0)
(-0.02375443 -0.00036043205 0)
(-0.023026004 -0.00036781655 0)
(-0.02228303 -0.00037497496 0)
(-0.021525967 -0.00038190216 0)
(-0.020755282 -0.00038859318 0)
(-0.019971452 -0.00039504319 0)
(-0.019174965 -0.00040124755 0)
(-0.018366315 -0.00040720176 0)
(-0.017546008 -0.00041290151 0)
(-0.016714557 -0.00041834266 0)
(-0.015872484 -0.00042352125 0)
(-0.015020316 -0.00042843349 0)
(-0.014158592 -0.00043307579 0)
(-0.013287853 -0.00043744476 0)
(-0.012408651 -0.00044153718 0)
(-0.011521542 -0.00044535006 0)
(-0.010627086 -0.00044888057 0)
(-0.0097258532 -0.00045212613 0)
(-0.0088184145 -0.00045508434 0)
(-0.0079053473 -0.00045775301 0)
(-0.0069872328 -0.00046013016 0)
(-0.006064656 -0.00046221404 0)
(-0.0051382052 -0.0004640031 0)
(-0.0042084714 -0.00046549602 0)
(-0.0032760483 -0.00046669169 0)
(-0.0023415314 -0.00046758922 0)
(-0.0014055178 -0.00046818794 0)
(-0.0004686058 -0.00046848742 0)
(0.0004686058 -0.00046848742 0)
(0.0014055178 -0.00046818794 0)
(0.0023415314 -0.00046758922 0)
(0.0032760483 -0.00046669169 0)
(0.0042084714 -0.00046549602 0)
(0.0051382052 -0.0004640031 0)
(0.006064656 -0.00046221404 0)
(0.0069872328 -0.00046013016 0)
(0.0079053473 -0.00045775301 0)
(0.0088184145 -0.00045508434 0)
(0.0097258532 -0.00045212613 0)
(0.010627086 -0.00044888057 0)
(0.011521542 -0.00044535006 0)
(0.012408651 -0.00044153718 0)
(0.013287853 -0.00043744476 0)
(0.014158592 -0.00043307579 0)
(0.015020316 -0.00042843349 0)
(0.015872484 -0.00042352125 0)
(0.016714557 -0.00041834266 0)
(0.017546008 -0.00041290151 0)
(0.018366315 -0.00040720176 0)
(0.019174965 -0.00040124755 0)
(0.019971452 -0.00039504319 0)
(0.020755282 -0.00038859318 0)
(0.021525967 -0.00038190216 0)
(0.02228303 -0.00037497496 0)
(0.023026004 -0.00036781655 0)
(0.02375443 -0.00036043205 0)
(0.024467863 -0.00035282673 0)
(0.025165865 -0.00034500601 0)
(0.025848012 -0.00033697543 0)
(0.026513889 -0.00032874067 0)
(0.027163094 -0.00032030754 0)
(0.027795235 -0.00031168197 0)
(0.028409933 -0.00030286998 0)
(0.029006823 -0.00029387774 0)
(0.02958555 -0.00028471148 0)
(0.030145771 -0.00027537756 0)
(0.030687158 -0.00026588242 0)
(0.031209395 -0.00025623257 0)
(0.031712179 -0.00024643463 0)
(0.03219522 -0.00023649527 0)
(0.032658243 -0.00022642124 0)
(0.033100984 -0.00021621933 0)
(0.033523196 -0.00020589643 0)
(0.033924642 -0.00019545944 0)
(0.034305101 -0.00018491532 0)
(0.034664367 -0.00017427106 0)
(0.035002245 -0.0001635337 0)
(0.035318557 -0.0001527103 0)
(0.035613138 -0.00014180793 0)
(0.035885836 -0.00013083369 0)
(0.036136516 -0.00011979469 0)
(0.036365054 -0.00010869804 0)
(0.036571343 -9.7550855e-05 0)
(0.036755289 -8.6360235e-05 0)
(0.036916811 -7.5133278e-05 0)
(0.037055845 -6.3877067e-05 0)
(0.037172338 -5.259866e-05 0)
(0.037266254 -4.1305093e-05 0)
(0.037337569 -3.0003369e-05 0)
(0.037386274 -1.8700456e-05 0)
(0.037412373 -7.4032861e-06 0)
(0.037415885 3.8812933e-06 0)
(0.037396842 1.5146185e-05 0)
(0.03735529 2.6385112e-05 0)
(0.037291288 3.7590963e-05 0)
(0.037204908 4.8757147e-05 0)
(0.037096237 5.9877076e-05 0)
(0.036965374 7.0944215e-05 0)
(0.03681243 8.1952101e-05 0)
(0.036637532 9.2894343e-05 0)
(0.036440815 0.00010376463 0)
(0.036222432 0.00011455673 0)
(0.035982543 0.0001252645 0)
(0.035721324 0.00013588189 0)
(0.035438963 0.00014640292 0)
(0.035135656 0.00015682172 0)
(0.034811616 0.00016713251 0)
(0.034467063 0.0001773296 0)
(0.03410223 0.00018740742 0)
(0.033717362 0.00019736049 0)
(0.033312714 0.00020718342 0)
(0.032888551 0.00021687095 0)
(0.032445149 0.00022641791 0)
(0.031982795 0.00023581925 0)
(0.031501785 0.00024507002 0)
(0.031002425 0.00025416538 0)
(0.03048503 0.00026310062 0)
(0.029949926 0.00027187113 0)
(0.029397446 0.00028047242 0)
(0.028827934 0.00028890011 0)
(0.02824174 0.00029714994 0)
(0.027639226 0.00030521776 0)
(0.027020759 0.00031309954 0)
(0.026386715 0.00032079139 0)
(0.025737477 0.00032828951 0)
(0.025073438 0.00033559022 0)
(0.024394996 0.00034268998 0)
(0.023702555 0.00034958535 0)
(0.022996529 0.000356273 0)
(0.022277335 0.00036274976 0)
(0.0215454 0.00036901253 0)
(0.020801153 0.00037505836 0)
(0.020045033 0.0003808844 0)
(0.01927748 0.00038648794 0)
(0.018498943 0.00039186636 0)
(0.017709875 0.00039701717 0)
(0.016910734 0.00040193801 0)
(0.016101981 0.00040662663 0)
(0.015284083 0.00041108087 0)
(0.014457512 0.00041529872 0)
(0.013622741 0.00041927828 0)
(0.01278025 0.00042301774 0)
(0.011930521 0.00042651544 0)
(0.011074038 0.0004297698 0)
(0.01021129 0.00043277938 0)
(0.0093427681 0.00043554284 0)
(0.0084689654 0.00043805896 0)
(0.0075903781 0.00044032663 0)
(0.006707504 0.00044234484 0)
(0.0058208431 0.00044411272 0)
(0.0049308969 0.00044562948 0)
(0.0040381685 0.00044689446 0)
(0.0031431621 0.0004479071 0)
(0.0022463828 0.00044866697 0)
(0.0013483366 0.00044917374 0)
(0.00044953002 0.00044942718 0)
(-0.00044977888 0.0013484876 0)
(-0.001349083 0.0013477271 0)
(-0.0022476265 0.0013462066 0)
(-0.0031449024 0.0013439267 0)
(-0.0040404046 0.0013408884 0)
(-0.0049336277 0.0013370929 0)
(-0.0058240672 0.001332542 0)
(-0.0067112197 0.0013272377 0)
(-0.0075945837 0.0013211822 0)
(-0.0084736588 0.0013143783 0)
(-0.009347947 0.001306829 0)
(-0.010216952 0.0012985375 0)
(-0.01108018 0.0012895075 0)
(-0.01193714 0.0012797431 0)
(-0.012787343 0.0012692486 0)
(-0.013630304 0.0012580287 0)
(-0.01446554 0.0012460884 0)
(-0.015292574 0.0012334331 0)
(-0.01611093 0.0012200686 0)
(-0.016920136 0.0012060008 0)
(-0.017719726 0.0011912362 0)
(-0.018509238 0.0011757817 0)
(-0.019288213 0.0011596442 0)
(-0.020056198 0.0011428313 0)
(-0.020812746 0.0011253507 0)
(-0.021557414 0.0011072107 0)
(-0.022289764 0.0010884198 0)
(-0.023009366 0.0010689868 0)
(-0.023715794 0.001048921 0)
(-0.02440863 0.001028232 0)
(-0.02508746 0.0010069298 0)
(-0.02575188 0.00098502454 0)
(-0.02640149 0.000962527 0)
(-0.027035899 0.00093944818 0)
(-0.027654723 0.00091579945 0)
(-0.028257586 0.00089159253 0)
(-0.02884412 0.0008668395 0)
(-0.029413964 0.0008415528 0)
(-0.029966766 0.00081574521 0)
(-0.030502184 0.00078942986 0)
(-0.031019883 0.00076262024 0)
(-0.031519538 0.00073533016 0)
(-0.032000833 0.0007075738 0)
(-0.032463463 0.00067936564 0)
(-0.032907129 0.00065072054 0)
(-0.033331547 0.00062165366 0)
(-0.033736439 0.00059218048 0)
(-0.034121541 0.00056231684 0)
(-0.034486596 0.00053207885 0)
(-0.034831361 0.00050148298 0)
(-0.035155602 0.00047054595 0)
(-0.035459097 0.00043928483 0)
(-0.035741637 0.00040771696 0)
(-0.036003021 0.00037585996 0)
(-0.036243064 0.00034373173 0)
(-0.03646159 0.00031135046 0)
(-0.036658437 0.00027873459 0)
(-0.036833454 0.00024590279 0)
(-0.036986503 0.00021287402 0)
(-0.03711746 0.00017966744 0)
(-0.037226212 0.00014630244 0)
(-0.03731266 0.00011279864 0)
(-0.037376718 7.9175844e-05 0)
(-0.037418313 4.5454002e-05 0)
(-0.037437386 1.1653461e-05 0)
(-0.037433891 -2.2205465e-05 0)
(-0.037407795 -5.6102349e-05 0)
(-0.037359082 -9.00165e-05 0)
(-0.037287744 -0.00012392711 0)
(-0.037193793 -0.00015781327 0)
(-0.037077251 -0.00019165395 0)
(-0.036938156 -0.00022542806 0)
(-0.036776559 -0.00025911441 0)
(-0.036592525 -0.00029269175 0)
(-0.036386135 -0.00032613879 0)
(-0.036157482 -0.00035943421 0)
(-0.035906675 -0.00039255666 0)
(-0.035633835 -0.00042548482 0)
(-0.035339101 -0.00045819735 0)
(-0.035022621 -0.00049067296 0)
(-0.034684563 -0.00052289042 0)
(-0.034325104 -0.00055482853 0)
(-0.033944439 -0.00058646621 0)
(-0.033542775 -0.00061778247 0)
(-0.033120332 -0.00064875641 0)
(-0.032677347 -0.0006793673 0)
(-0.032214067 -0.00070959454 0)
(-0.031730757 -0.00073941771 0)
(-0.031227692 -0.00076881656 0)
(-0.030705162 -0.00079777105 0)
(-0.03016347 -0.00082626138 0)
(-0.029602933 -0.00085426797 0)
(-0.029023878 -0.00088177149 0)
(-0.028426649 -0.00090875291 0)
(-0.027811599 -0.00093519345 0)
(-0.027179097 -0.00096107469 0)
(-0.02652952 -0.0009863785 0)
(-0.02586326 -0.0010110871 0)
(-0.02518072 -0.0010351831 0)
(-0.024482314 -0.0010586494 0)
(-0.023768468 -0.0010814693 0)
(-0.023039619 -0.0011036267 0)
(-0.022296213 -0.0011251058 0)
(-0.021538709 -0.0011458911 0)
(-0.020767574 -0.0011659677 0)
(-0.019983285 -0.0011853212 0)
(-0.019186331 -0.0012039375 0)
(-0.018377207 -0.0012218034 0)
(-0.017556418 -0.0012389057 0)
(-0.016724478 -0.0012552321 0)
(-0.015881908 -0.0012707706 0)
(-0.015029238 -0.00128551 0)
(-0.014167005 -0.0012994394 0)
(-0.013295752 -0.0013125487 0)
(-0.012416029 -0.0013248282 0)
(-0.011528394 -0.0013362688 0)
(-0.010633409 -0.0013468623 0)
(-0.0097316406 -0.0013566008 0)
(-0.0088236631 -0.001365477 0)
(-0.0079100534 -0.0013734844 0)
(-0.0069913931 -0.0013806172 0)
(-0.0060682676 -0.00138687 0)
(-0.0051412655 -0.0013922381 0)
(-0.0042109782 -0.0013967177 0)
(-0.0032779999 -0.0014003054 0)
(-0.0023429264 -0.0014029984 0)
(-0.0014063552 -0.0014047949 0)
(-0.00046888499 -0.0014056935 0)
(0.00046888499 -0.0014056935 0)
(0.0014063552 -0.0014047949 0)
(0.0023429264 -0.0014029984 0)
(0.0032779999 -0.0014003054 0)
(0.0042109782 -0.0013967177 0)
(0.0051412655 -0.0013922381 0)
(0.0060682676 -0.00138687 0)
(0.0069913931 -0.0013806172 0)
(0.0079100534 -0.0013734844 0)
(0.0088236631 -0.001365477 0)
(0.0097316406 -0.0013566008 0)
(0.010633409 -0.0013468623 0)
(0.011528394 -0.0013362688 0)
(0.012416029 -0.0013248282 0)
(0.013295752 -0.0013125487 0)
(0.014167005 -0.0012994394 0)
(0.015029238 -0.00128551 0)
(0.015881908 -0.0012707706 0)
(0.016724478 -0.0012552321 0)
(0.017556418 -0.0012389057 0)
(0.018377207 -0.0012218034 0)
(0.019186331 -0.0012039375 0)
(0.019983285 -0.0011853212 0)
(0.020767574 -0.0011659677 0)
(0.021538709 -0.0011458911 0)
(0.022296213 -0.0011251058 0)
(0.023039619 -0.0011036267 0)
(0.023768468 -0.0010814693 0)
(0.024482314 -0.0010586494 0)
(0.02518072 -0.0010351831 0)
(0.02586326 -0.0010110871 0)
(0.02652952 -0.0009863785 0)
(0.027179097 -0.00096107469 0)
(0.027811599 -0.00093519345 0)
(0.028426649 -0.00090875291 0)
(0.029023878 -0.00088177149 0)
(0.029602933 -0.00085426797 0)
(0.03016347 -0.00082626138 0)
(0.030705162 -0.00079777105 0)
(0.031227692 -0.00076881656 0)
(0.031730757 -0.00073941771 0)
(0.032214067 -0.00070959454 0)
(0.032677347 -0.0006793673 0)
(0.033120332 -0.00064875641 0)
(0.033542775 -0.00061778247 0)
(0.033944439 -0.00058646621 0)
(0.034325104 -0.00055482853 0)
(0.034684563 -0.00052289041 0)
(0.035022621 -0.00049067296 0)
(0.035339101 -0.00045819735 0)
(0.035633835 -0.00042548482 0)
(0.035906675 -0.00039255666 0)
(0.036157482 -0.00035943421 0)
(0.036386135 -0.00032613879 0)
(0.036592525 -0.00029269175 0)
(0.036776559 -0.00025911441 0)
(0.036938156 -0.00022542806 0)
(0.037077251 -0.00019165395 0)
(0.037193793 -0.00015781327 0)
(0.037287744 -0.00012392711 0)
(0.037359082 -9.0016499e-05 0)
(0.037407795 -5.6102349e-05 0)
(0.037433891 -2.2205465e-05 0)
(0.037437386 1.1653461e-05 0)
(0.037418313 4.5454002e-05 0)
(0.037376718 7.9175844e-05 0)
(0.03731266 0.00011279864 0)
(0.037226212 0.00014630244 0)
(0.03711746 0.00017966744 0)
(0.036986503 0.00021287402 0)
(0.036833454 0.00024590279 0)
(0.036658437 0.00027873459 0)
(0.03646159 0.00031135046 0)
(0.036243064 0.00034373173 0)
(0.036003021 0.00037585996 0)
(0.035741637 0.00040771696 0)
(0.035459097 0.00043928483 0)
(0.035155602 0.00047054595 0)
(0.034831361 0.00050148298 0)
(0.034486596 0.00053207885 0)
(0.034121541 0.00056231684 0)
(0.033736439 0.00059218048 0)
(0.033331547 0.00062165366 0)
(0.032907129 0.00065072054 0)
(0.032463463 0.00067936564 0)
(0.032000833 0.0007075738 0)
(0.031519538 0.00073533016 0)
(0.031019883 0.00076262024 0)
(0.030502184 0.00078942986 0)
(0.029966766 0.00081574521 0)
(0.029413964 0.0008415528 0)
(0.02884412 0.0008668395 0)
(0.028257586 0.00089159253 0)
(0.027654723 0.00091579945 0)
(0.027035899 0.00093944818 0)
(0.02640149 0.000962527 0)
(0.02575188 0.00098502454 0)
(0.02508746 0.0010069298 0)
(0.02440863 0.001028232 0)
(0.023715794 0.001048921 0)
(0.023009366 0.0010689868 0)
(0.022289764 0.0010884198 0)
(0.021557414 0.0011072107 0)
(0.020812746 0.0011253507 0)
(0.020056198 0.0011428313 0)
(0.019288213 0.0011596442 0)
(0.018509238 0.0011757817 0)
(0.017719726 0.0011912362 0)
(0.016920136 0.0012060008 0)
(0.01611093 0.0012200686 0)
(0.015292574 0.0012334331 0)
(0.01446554 0.0012460884 0)
(0.013630304 0.0012580287 0)
(0.012787343 0.0012692486 0)
(0.01193714 0.0012797431 0)
(0.01108018 0.0012895075 0)
(0.010216952 0.0012985375 0)
(0.009347947 0.001306829 0)
(0.0084736588 0.0013143783 0)
(0.0075945837 0.0013211822 0)
(0.0067112197 0.0013272377 0)
(0.0058240672 0.001332542 0)
(0.0049336277 0.0013370929 0)
(0.0040404046 0.0013408884 0)
(0.0031449024 0.0013439267 0)
(0.0022476265 0.0013462066 0)
(0.001349083 0.0013477271 0)
(0.00044977888 0.0013484875 0)
(-0.00045015127 0.0022482334 0)
(-0.0013502 0.0022469657 0)
(-0.0022494875 0.0022444308 0)
(-0.0031475065 0.0022406298 0)
(-0.0040437504 0.0022355644 0)
(-0.0049377135 0.0022292367 0)
(-0.0058288908 0.0022216496 0)
(-0.0067167788 0.0022128064 0)
(-0.0076008752 0.002202711 0)
(-0.0084806797 0.0021913677 0)
(-0.0093556934 0.0021787816 0)
(-0.01022542 0.0021649583 0)
(-0.011089365 0.0021499038 0)
(-0.011947037 0.0021336249 0)
(-0.012797948 0.0021161288 0)
(-0.013641611 0.0020974232 0)
(-0.014477543 0.0020775167 0)
(-0.015305267 0.0020564182 0)
(-0.016124305 0.0020341372 0)
(-0.016934187 0.0020106837 0)
(-0.017734446 0.0019860687 0)
(-0.018524619 0.0019603031 0)
(-0.019304247 0.0019333991 0)
(-0.020072876 0.0019053689 0)
(-0.02083006 0.0018762257 0)
(-0.021575354 0.0018459831 0)
(-0.022308321 0.0018146552 0)
(-0.023028529 0.0017822568 0)
(-0.023735554 0.0017488035 0)
(-0.024428976 0.001714311 0)
(-0.025108381 0.0016787962 0)
(-0.025773364 0.001642276 0)
(-0.026423526 0.0016047683 0)
(-0.027058476 0.0015662915 0)
(-0.027677828 0.0015268645 0)
(-0.028281207 0.0014865069 0)
(-0.028868243 0.0014452387 0)
(-0.029438576 0.0014030808 0)
(-0.029991854 0.0013600544 0)
(-0.030527733 0.0013161815 0)
(-0.03104588 0.0012714844 0)
(-0.031545968 0.0012259863 0)
(-0.032027682 0.0011797107 0)
(-0.032490715 0.0011326819 0)
(-0.032934769 0.0010849245 0)
(-0.03335956 0.0010364639 0)
(-0.033764809 0.00098732592 0)
(-0.034150251 0.00093753685 0)
(-0.034515631 0.00088712363 0)
(-0.034860704 0.00083611367 0)
(-0.035185236 0.00078453489 0)
(-0.035489006 0.00073241573 0)
(-0.035771803 0.00067978508 0)
(-0.036033427 0.00062667234 0)
(-0.036273692 0.00057310735 0)
(-0.036492422 0.00051912042 0)
(-0.036689455 0.00046474229 0)
(-0.03686464 0.00041000413 0)
(-0.037017839 0.00035493749 0)
(-0.037148927 0.00029957435 0)
(-0.037257792 0.00024394703 0)
(-0.037344334 0.00018808823 0)
(-0.037408467 0.00013203099 0)
(-0.037450118 7.5808631e-05 0)
(-0.037469228 1.9454911e-05 0)
(-0.037465751 -3.699626e-05 0)
(-0.037439655 -9.3510724e-05 0)
(-0.03739092 -0.00015005402 0)
(-0.037319543 -0.00020659148 0)
(-0.037225533 -0.00026308823 0)
(-0.037108912 -0.00031950923 0)
(-0.036969719 -0.00037581929 0)
(-0.036808004 -0.00043198308 0)
(-0.036623834 -0.0004879652 0)
(-0.036417287 -0.00054373013 0)
(-0.036188458 -0.00059924233 0)
(-0.035937456 -0.00065446621 0)
(-0.035664402 -0.0007093662 0)
(-0.035369434 -0.00076390674 0)
(-0.035052702 -0.00081805233 0)
(-0.034714372 -0.00087176756 0)
(-0.034354623 -0.00092501711 0)
(-0.033973649 -0.00097776582 0)
(-0.033571656 -0.0010299787 0)
(-0.033148867 -0.0010816208 0)
(-0.032705517 -0.0011326577 0)
(-0.032241855 -0.0011830551 0)
(-0.031758144 -0.0012327787 0)
(-0.03125466 -0.001281795 0)
(-0.030731694 -0.0013300704 0)
(-0.030189549 -0.001377572 0)
(-0.029628541 -0.0014242671 0)
(-0.029048999 -0.0014701234 0)
(-0.028451266 -0.0015151093 0)
(-0.027835696 -0.0015591935 0)
(-0.027202658 -0.0016023452 0)
(-0.026552529 -0.0016445341 0)
(-0.025885702 -0.0016857307 0)
(-0.025202581 -0.0017259059 0)
(-0.024503578 -0.0017650313 0)
(-0.023789122 -0.0018030791 0)
(-0.023059648 -0.0018400222 0)
(-0.022315604 -0.0018758343 0)
(-0.021557449 -0.0019104898 0)
(-0.02078565 -0.0019439636 0)
(-0.020000686 -0.0019762319 0)
(-0.019203044 -0.0020072712 0)
(-0.018393221 -0.0020370591 0)
(-0.017571722 -0.0020655739 0)
(-0.016739062 -0.0020927951 0)
(-0.015895762 -0.0021187027 0)
(-0.015042352 -0.0021432779 0)
(-0.014179369 -0.0021665026 0)
(-0.013307359 -0.0021883599 0)
(-0.012426871 -0.0022088337 0)
(-0.011538463 -0.002227909 0)
(-0.010642698 -0.0022455717 0)
(-0.009740144 -0.0022618088 0)
(-0.0088313744 -0.0022766083 0)
(-0.0079169674 -0.0022899593 0)
(-0.006997505 -0.0023018519 0)
(-0.0060735732 -0.0023122772 0)
(-0.005145761 -0.0023212277 0)
(-0.0042146607 -0.0023286966 0)
(-0.0032808667 -0.0023346784 0)
(-0.0023449755 -0.0023391686 0)
(-0.0014075853 -0.0023421639 0)
(-0.0004692951 -0.0023436622 0)
(0.0004692951 -0.0023436622 0)
(0.0014075853 -0.0023421639 0)
(0.0023449755 -0.0023391686 0)
(0.0032808667 -0.0023346784 0)
(0.0042146607 -0.0023286966 0)
(0.005145761 -0.0023212277 0)
(0.0060735732 -0.0023122772 0)
(0.006997505 -0.0023018519 0)
(0.0079169674 -0.0022899593 0)
(0.0088313744 -0.0022766083 0)
(0.009740144 -0.0022618088 0)
(0.010642698 -0.0022455717 0)
(0.011538463 -0.002227909 0)
(0.012426871 -0.0022088337 0)
(0.013307359 -0.0021883599 0)
(0.014179369 -0.0021665026 0)
(0.015042352 -0.0021432779 0)
(0.015895762 -0.0021187027 0)
(0.016739062 -0.0020927951 0)
(0.017571722 -0.0020655739 0)
(0.018393221 -0.0020370591 0)
(0.019203044 -0.0020072712 0)
(0.020000686 -0.0019762319 0)
(0.02078565 -0.0019439636 0)
(0.021557449 -0.0019104898 0)
(0.022315604 -0.0018758343 0)
(0.023059648 -0.0018400222 0)
(0.023789122 -0.0018030791 0)
(0.024503578 -0.0017650313 0)
(0.025202581 -0.0017259059 0)
(0.025885702 -0.0016857307 0)
(0.026552529 -0.0016445341 0)
(0.027202658 -0.0016023452 0)
(0.027835696 -0.0015591935 0)
(0.028451266 -0.0015151093 0)
(0.029048999 -0.0014701234 0)
(0.029628541 -0.0014242671 0)
(0.030189549 -0.001377572 0)
(0.030731694 -0.0013300704 0)
(0.03125466 -0.001281795 0)
(0.031758144 -0.0012327787 0)
(0.032241855 -0.0011830551 0)
(0.032705517 -0.0011326577 0)
(0.033148867 -0.0010816208 0)
(0.033571656 -0.0010299787 0)
(0.033973649 -0.00097776581 0)
(0.034354623 -0.00092501711 0)
(0.034714372 -0.00087176756 0)
(0.035052702 -0.00081805233 0)
(0.035369434 -0.00076390674 0)
(0.035664402 -0.0007093662 0)
(0.035937456 -0.00065446621 0)
(0.036188458 -0.00059924233 0)
(0.036417287 -0.00054373013 0)
(0.036623834 -0.0004879652 0)
(0.036808004 -0.00043198308 0)
(0.036969719 -0.00037581929 0)
(0.037108912 -0.00031950923 0)
(0.037225533 -0.00026308823 0)
(0.037319543 -0.00020659148 0)
(0.03739092 -0.00015005402 0)
(0.037439655 -9.3510723e-05 0)
(0.037465751 -3.699626e-05 0)
(0.037469228 1.9454911e-05 0)
(0.037450118 7.5808631e-05 0)
(0.037408467 0.00013203099 0)
(0.037344334 0.00018808823 0)
(0.037257792 0.00024394703 0)
(0.037148927 0.00029957435 0)
(0.037017839 0.00035493749 0)
(0.03686464 0.00041000413 0)
(0.036689455 0.00046474229 0)
(0.036492422 0.00051912042 0)
(0.036273692 0.00057310735 0)
(0.036033427 0.00062667234 0)
(0.035771803 0.00067978508 0)
(0.035489006 0.00073241573 0)
(0.035185236 0.00078453489 0)
(0.034860704 0.00083611367 0)
(0.034515631 0.00088712363 0)
(0.034150251 0.00093753685 0)
(0.033764809 0.00098732592 0)
(0.03335956 0.0010364639 0)
(0.032934769 0.0010849245 0)
(0.032490715 0.0011326819 0)
(0.032027682 0.0011797107 0)
(0.031545968 0.0012259863 0)
(0.03104588 0.0012714844 0)
(0.030527733 0.0013161815 0)
(0.029991854 0.0013600544 0)
(0.029438576 0.0014030808 0)
(0.028868243 0.0014452387 0)
(0.028281207 0.0014865069 0)
(0.027677828 0.0015268645 0)
(0.027058476 0.0015662915 0)
(0.026423526 0.0016047683 0)
(0.025773364 0.001642276 0)
(0.025108381 0.0016787962 0)
(0.024428976 0.001714311 0)
(0.023735554 0.0017488035 0)
(0.023028529 0.0017822568 0)
(0.022308321 0.0018146552 0)
(0.021575354 0.0018459831 0)
(0.02083006 0.0018762257 0)
(0.020072876 0.0019053689 0)
(0.019304247 0.0019333991 0)
(0.018524619 0.0019603031 0)
(0.017734446 0.0019860687 0)
(0.016934187 0.0020106837 0)
(0.016124305 0.0020341372 0)
(0.015305267 0.0020564182 0)
(0.014477543 0.0020775167 0)
(0.013641611 0.0020974232 0)
(0.012797948 0.0021161288 0)
(0.011947037 0.0021336249 0)
(0.011089365 0.0021499038 0)
(0.01022542 0.0021649583 0)
(0.0093556934 0.0021787816 0)
(0.0084806797 0.0021913677 0)
(0.0076008752 0.002202711 0)
(0.0067167788 0.0022128064 0)
(0.0058288908 0.0022216496 0)
(0.0049377135 0.0022292367 0)
(0.0040437504 0.0022355644 0)
(0.0031475065 0.0022406298 0)
(0.0022494875 0.0022444308 0)
(0.0013502 0.0022469657 0)
(0.00045015127 0.0022482334 0)
(-0.0004506483 0.0031488476 0)
(-0.0013516908 0.0031470721 0)
(-0.0022519713 0.0031435218 0)
(-0.003150982 0.0031381984 0)
(-0.0040482158 0.003131104 0)
(-0.0049431664 0.003122242 0)
(-0.0058353284 0.003111616 0)
(-0.0067241977 0.0030992307 0)
(-0.0076092716 0.0030850917 0)
(-0.008490049 0.003069205 0)
(-0.0093660308 0.0030515778 0)
(-0.01023672 0.0030322176 0)
(-0.011101622 0.0030111333 0)
(-0.011960244 0.002988334 0)
(-0.012812098 0.00296383 0)
(-0.013656696 0.0029376322 0)
(-0.014493556 0.0029097523 0)
(-0.015322199 0.0028802029 0)
(-0.016142147 0.0028489973 0)
(-0.01695293 0.0028161498 0)
(-0.01775408 0.0027816753 0)
(-0.018545132 0.0027455895 0)
(-0.019325629 0.0027079092 0)
(-0.020095116 0.0026686516 0)
(-0.020853145 0.0026278352 0)
(-0.021599273 0.0025854788 0)
(-0.02233306 0.0025416026 0)
(-0.023054075 0.002496227 0)
(-0.023761893 0.0024493739 0)
(-0.024456093 0.0024010654 0)
(-0.025136263 0.0023513249 0)
(-0.025801995 0.0023001764 0)
(-0.02645289 0.0022476448 0)
(-0.027088556 0.0021937558 0)
(-0.027708609 0.002138536 0)
(-0.028312671 0.0020820127 0)
(-0.028900373 0.0020242141 0)
(-0.029471354 0.0019651693 0)
(-0.030025262 0.0019049081 0)
(-0.030561753 0.0018434611 0)
(-0.031080492 0.0017808599 0)
(-0.031581153 0.0017171367 0)
(-0.03206342 0.0016523246 0)
(-0.032526986 0.0015864574 0)
(-0.032971553 0.0015195698 0)
(-0.033396835 0.0014516972 0)
(-0.033802555 0.0013828757 0)
(-0.034188447 0.0013131423 0)
(-0.034554254 0.0012425347 0)
(-0.034899732 0.0011710912 0)
(-0.035224647 0.001098851 0)
(-0.035528777 0.0010258539 0)
(-0.03581191 0.00095214026 0)
(-0.036073848 0.00087775136 0)
(-0.036314403 0.00080272898 0)
(-0.0365334 0.00072711555 0)
(-0.036730676 0.00065095413 0)
(-0.036906079 0.00057428837 0)
(-0.037059473 0.00049716246 0)
(-0.03719073 0.00041962119 0)
(-0.03729974 0.00034170983 0)
(-0.037386401 0.00026347418 0)
(-0.037450629 0.0001849605 0)
(-0.03749235 0.00010621552 0)
(-0.037511505 2.728641e-05 0)
(-0.037508047 -5.1779299e-05 0)
(-0.037481944 -0.00013093372 0)
(-0.037433177 -0.00021012861 0)
(-0.037361742 -0.0002893154 0)
(-0.037267649 -0.00036844527 0)
(-0.037150919 -0.00044746913 0)
(-0.037011591 -0.0005263377 0)
(-0.036849716 -0.00060500149 0)
(-0.036665359 -0.00068341092 0)
(-0.036458601 -0.00076151624 0)
(-0.036229534 -0.00083926766 0)
(-0.035978269 -0.00091661536 0)
(-0.035704927 -0.00099350948 0)
(-0.035409645 -0.0010699002 0)
(-0.035092575 -0.0011457379 0)
(-0.034753881 -0.0012209729 0)
(-0.034393743 -0.0012955557 0)
(-0.034012355 -0.0013694371 0)
(-0.033609924 -0.0014425681 0)
(-0.033186672 -0.0015148998 0)
(-0.032742835 -0.0015863839 0)
(-0.032278663 -0.0016569722 0)
(-0.031794418 -0.001726617 0)
(-0.031290377 -0.0017952711 0)
(-0.03076683 -0.0018628876 0)
(-0.030224081 -0.0019294203 0)
(-0.029662447 -0.0019948235 0)
(-0.029082258 -0.002059052 0)
(-0.028483855 -0.0021220613 0)
(-0.027867595 -0.0021838077 0)
(-0.027233844 -0.002244248 0)
(-0.026582984 -0.00230334 0)
(-0.025915405 -0.0023610421 0)
(-0.025231511 -0.0024173136 0)
(-0.024531718 -0.0024721148 0)
(-0.023816451 -0.0025254067 0)
(-0.02308615 -0.0025771513 0)
(-0.02234126 -0.0026273118 0)
(-0.021582242 -0.0026758523 0)
(-0.020809564 -0.0027227378 0)
(-0.020023705 -0.0027679347 0)
(-0.019225152 -0.0028114103 0)
(-0.018414403 -0.0028531331 0)
(-0.017591964 -0.0028930729 0)
(-0.01675835 -0.0029312007 0)
(-0.015914083 -0.0029674886 0)
(-0.015059694 -0.0030019102 0)
(-0.014195721 -0.0030344404 0)
(-0.013322708 -0.0030650552 0)
(-0.012441208 -0.0030937323 0)
(-0.011551778 -0.0031204504 0)
(-0.010654981 -0.00314519 0)
(-0.0097513874 -0.0031679329 0)
(-0.0088415704 -0.0031886621 0)
(-0.007926109 -0.0032073625 0)
(-0.0070055859 -0.0032240201 0)
(-0.0060805879 -0.0032386227 0)
(-0.0051517047 -0.0032511593 0)
(-0.0042195293 -0.0032616208 0)
(-0.0032846569 -0.0032699993 0)
(-0.0023476846 -0.0032762887 0)
(-0.0014092115 -0.0032804842 0)
(-0.0004698373 -0.0032825827 0)
(0.0004698373 -0.0032825827 0)
(0.0014092115 -0.0032804842 0)
(0.0023476846 -0.0032762887 0)
(0.0032846569 -0.0032699993 0)
(0.0042195293 -0.0032616208 0)
(0.0051517047 -0.0032511593 0)
(0.0060805879 -0.0032386227 0)
(0.0070055859 -0.0032240201 0)
(0.007926109 -0.0032073625 0)
(0.0088415704 -0.0031886621 0)
(0.0097513874 -0.0031679329 0)
(0.010654981 -0.00314519 0)
(0.011551778 -0.0031204504 0)
(0.012441208 -0.0030937323 0)
(0.013322708 -0.0030650552 0)
(0.014195721 -0.0030344404 0)
(0.015059694 -0.0030019102 0)
(0.015914083 -0.0029674886 0)
(0.01675835 -0.0029312007 0)
(0.017591964 -0.0028930729 0)
(0.018414403 -0.0028531331 0)
(0.019225152 -0.0028114103 0)
(0.020023705 -0.0027679347 0)
(0.020809564 -0.0027227378 0)
(0.021582242 -0.0026758523 0)
(0.02234126 -0.0026273118 0)
(0.02308615 -0.0025771513 0)
(0.023816451 -0.0025254067 0)
(0.024531718 -0.0024721148 0)
(0.025231511 -0.0024173136 0)
(0.025915405 -0.0023610421 0)
(0.026582984 -0.00230334 0)
(0.027233844 -0.002244248 0)
(0.027867595 -0.0021838077 0)
(0.028483855 -0.0021220613 0)
(0.029082258 -0.002059052 0)
(0.029662447 -0.0019948235 0)
(0.030224081 -0.0019294203 0)
(0.03076683 -0.0018628876 0)
(0.031290377 -0.0017952711 0)
(0.031794418 -0.001726617 0)
(0.032278663 -0.0016569722 0)
(0.032742835 -0.0015863839 0)
(0.033186672 -0.0015148998 0)
(0.033609924 -0.0014425681 0)
(0.034012355 -0.0013694371 0)
(0.034393743 -0.0012955557 0)
(0.034753881 -0.0012209729 0)
(0.035092575 -0.0011457379 0)
(0.035409645 -0.0010699002 0)
(0.035704927 -0.00099350948 0)
(0.035978269 -0.00091661535 0)
(0.036229534 -0.00083926766 0)
(0.036458601 -0.00076151624 0)
(0.036665359 -0.00068341092 0)
(0.036849716 -0.00060500149 0)
(0.037011591 -0.00052633769 0)