/*--------------------------------*- C++ -*----------------------------------*\
| =========                 |                                                 |
| \\      /  F ield         | OpenFOAM: The Open Source CFD Toolbox           |
|  \\    /   O peration     | Version:  2106                                  |
|   \\  /    A nd           | Website:  www.openfoam.com                      |
|    \\/     M anipulation  |                                                 |
\*---------------------------------------------------------------------------*/
FoamFile
{
    version     2.0;
    format      ascii;
    arch        "LSB;label=32;scalar=64";
    class       volScalarField;
    location    "3.9";
    object      p;
}
// * * * * * * * * * * * * * * * * * * * * * * * * * * * * * * * * * * * * * //

dimensions      [1 -1 -2 0 0 0 0];

internalField   nonuniform List<scalar> 
90000
(
0
6.70945e-06
1.96451e-05
3.89098e-05
6.44944e-05
9.63534e-05
0.000134435
0.00017868
0.000229026
0.000285399
0.000347709
0.000415861
0.000489739
0.000569227
0.000654191
0.000744491
0.000839981
0.000940501
0.00104588
0.00115596
0.00127055
0.00138945
0.00151247
0.00163941
0.00177005
0.00190418
0.00204156
0.00218197
0.00232516
0.0024709
0.00261894
0.00276901
0.00292087
0.00307425
0.00322889
0.00338452
0.00354087
0.00369766
0.00385463
0.00401148
0.00416796
0.00432378
0.00447866
0.00463234
0.00478452
0.00493496
0.00508336
0.00522947
0.00537301
0.00551374
0.00565139
0.00578572
0.00591647
0.00604341
0.00616631
0.00628493
0.00639907
0.0065085
0.00661303
0.00671246
0.00680661
0.0068953
0.00697836
0.00705565
0.00712701
0.00719231
0.00725144
0.00730427
0.00735071
0.00739067
0.00742408
0.00745087
0.007471
0.00748442
0.0074911
0.00749111
0.00748443
0.00747102
0.0074509
0.00742412
0.00739072
0.00735077
0.00730434
0.00725152
0.0071924
0.00712711
0.00705576
0.00697848
0.00689543
0.00680675
0.00671261
0.00661319
0.00650867
0.00639924
0.00628512
0.00616651
0.00604362
0.00591669
0.00578595
0.00565164
0.005514
0.00537328
0.00522975
0.00508366
0.00493527
0.00478485
0.00463268
0.00447902
0.00432415
0.00416835
0.00401189
0.00385505
0.0036981
0.00354132
0.003385
0.00322938
0.00307476
0.0029214
0.00276956
0.00261951
0.00247149
0.00232578
0.0021826
0.00204222
0.00190486
0.00177076
0.00164014
0.00151323
0.00139024
0.00127136
0.00115681
0.00104676
0.000941412
0.000840926
0.000745473
0.000655208
0.000570281
0.00049083
0.000416986
0.000348868
0.000286587
0.000230245
0.000179932
0.000135731
9.77115e-05
6.5936e-05
4.04546e-05
2.13068e-05
8.52314e-06
2.12627e-06
-0.00667284
-0.00666634
-0.00665344
-0.00663416
-0.00660854
-0.00657664
-0.0065385
-0.00649418
-0.00644376
-0.00638729
-0.00632487
-0.00625661
-0.0061826
-0.00610298
-0.00601787
-0.00592742
-0.00583177
-0.00573108
-0.00562551
-0.00551525
-0.00540047
-0.00528136
-0.00515813
-0.00503097
-0.00490011
-0.00476575
-0.00462814
-0.00448749
-0.00434405
-0.00419806
-0.00404977
-0.00389943
-0.00374731
-0.00359366
-0.00343876
-0.00328286
-0.00312624
-0.00296917
-0.00281194
-0.00265481
-0.00249806
-0.00234197
-0.00218682
-0.00203287
-0.00188042
-0.00172973
-0.00158107
-0.00143471
-0.00129091
-0.00114994
-0.00101205
-0.000877489
-0.000746509
-0.000619348
-0.000496239
-0.000377409
-0.000263076
-0.000153453
-4.87419e-05
5.08611e-05
0.000145172
0.000234015
0.000317224
0.000394644
0.000466129
0.000531546
0.000590771
0.000643695
0.000690216
0.000730247
0.000763714
0.000790553
0.000810714
0.000824156
0.000830853
0.000830857
0.000824169
0.000810737
0.000790585
0.000763755
0.000730298
0.000690276
0.000643765
0.000590852
0.000531636
0.000466229
0.000394754
0.000317344
0.000234145
0.000145312
5.10102e-05
-4.85838e-05
-0.000153285
-0.000262897
-0.00037722
-0.00049604
-0.000619139
-0.00074629
-0.000877258
-0.0010118
-0.00114968
-0.00129064
-0.00143442
-0.00158077
-0.00172942
-0.0018801
-0.00203253
-0.00218646
-0.0023416
-0.00249767
-0.0026544
-0.00281152
-0.00296874
-0.00312578
-0.00328239
-0.00343827
-0.00359316
-0.00374678
-0.00389889
-0.0040492
-0.00419747
-0.00434344
-0.00448685
-0.00462748
-0.00476507
-0.0048994
-0.00503024
-0.00515737
-0.00528058
-0.00539965
-0.0055144
-0.00562464
-0.00573017
-0.00583082
-0.00592644
-0.00601686
-0.00610193
-0.00618151
-0.00625548
-0.00632371
-0.0063861
-0.00644254
-0.00649294
-0.00653721
-0.0065753
-0.00660712
-0.00663265
-0.00665183
-0.00666463
-0.00667103
-0.0133525
-0.013346
-0.0133331
-0.0133137
-0.0132881
-0.0132561
-0.0132178
-0.0131734
-0.0131228
-0.0130661
-0.0130035
-0.012935
-0.0128607
-0.0127808
-0.0126954
-0.0126046
-0.0125087
-0.0124076
-0.0123017
-0.0121911
-0.0120759
-0.0119564
-0.0118327
-0.0117051
-0.0115738
-0.011439
-0.0113009
-0.0111598
-0.0110158
-0.0108693
-0.0107205
-0.0105697
-0.010417
-0.0102628
-0.0101074
-0.00995096
-0.0097938
-0.00963618
-0.0094784
-0.00932072
-0.00916342
-0.00900679
-0.00885109
-0.00869661
-0.00854363
-0.00839241
-0.00824323
-0.00809636
-0.00795206
-0.00781059
-0.00767222
-0.00753719
-0.00740575
-0.00727814
-0.0071546
-0.00703536
-0.00692063
-0.00681062
-0.00670554
-0.00660559
-0.00651095
-0.00642179
-0.00633829
-0.0062606
-0.00618887
-0.00612322
-0.00606379
-0.00601068
-0.00596399
-0.00592382
-0.00589024
-0.00586331
-0.00584307
-0.00582959
-0.00582287
-0.00582286
-0.00582957
-0.00584305
-0.00586327
-0.0058902
-0.00592377
-0.00596393
-0.00601061
-0.00606371
-0.00612313
-0.00618877
-0.00626049
-0.00633817
-0.00642166
-0.00651081
-0.00660544
-0.00670538
-0.00681045
-0.00692045
-0.00703517
-0.00715441
-0.00727794
-0.00740553
-0.00753696
-0.00767198
-0.00781034
-0.00795179
-0.00809607
-0.00824293
-0.0083921
-0.0085433
-0.00869627
-0.00885074
-0.00900642
-0.00916303
-0.00932031
-0.00947798
-0.00963575
-0.00979334
-0.00995049
-0.0101069
-0.0102623
-0.0104165
-0.0105691
-0.01072
-0.0108687
-0.0110152
-0.0111591
-0.0113002
-0.0114383
-0.0115731
-0.0117044
-0.011832
-0.0119556
-0.0120751
-0.0121902
-0.0123008
-0.0124067
-0.0125077
-0.0126037
-0.0126944
-0.0127798
-0.0128596
-0.0129338
-0.0130023
-0.0130649
-0.0131215
-0.0131721
-0.0132165
-0.0132547
-0.0132867
-0.0133123
-0.0133315
-0.0133444
-0.0133508
-0.0200388
-0.0200323
-0.0200193
-0.0199999
-0.0199741
-0.019942
-0.0199035
-0.0198588
-0.019808
-0.019751
-0.0196881
-0.0196192
-0.0195446
-0.0194643
-0.0193785
-0.0192872
-0.0191908
-0.0190892
-0.0189827
-0.0188715
-0.0187558
-0.0186356
-0.0185113
-0.0183831
-0.0182511
-0.0181156
-0.0179768
-0.0178349
-0.0176902
-0.0175429
-0.0173934
-0.0172417
-0.0170883
-0.0169333
-0.016777
-0.0166198
-0.0164618
-0.0163034
-0.0161448
-0.0159863
-0.0158281
-0.0156707
-0.0155142
-0.0153589
-0.0152051
-0.0150531
-0.0149031
-0.0147555
-0.0146104
-0.0144682
-0.0143291
-0.0141934
-0.0140612
-0.013933
-0.0138088
-0.0136889
-0.0135736
-0.013463
-0.0133573
-0.0132569
-0.0131617
-0.0130721
-0.0129882
-0.0129101
-0.012838
-0.012772
-0.0127122
-0.0126588
-0.0126119
-0.0125715
-0.0125378
-0.0125107
-0.0124903
-0.0124768
-0.01247
-0.01247
-0.0124768
-0.0124903
-0.0125106
-0.0125377
-0.0125715
-0.0126118
-0.0126588
-0.0127121
-0.0127719
-0.0128379
-0.01291
-0.012988
-0.013072
-0.0131616
-0.0132567
-0.0133572
-0.0134628
-0.0135734
-0.0136887
-0.0138086
-0.0139328
-0.014061
-0.0141931
-0.0143289
-0.014468
-0.0146101
-0.0147552
-0.0149028
-0.0150528
-0.0152048
-0.0153585
-0.0155138
-0.0156703
-0.0158277
-0.0159858
-0.0161443
-0.0163029
-0.0164614
-0.0166193
-0.0167766
-0.0169328
-0.0170878
-0.0172412
-0.0173928
-0.0175424
-0.0176896
-0.0178343
-0.0179761
-0.0181149
-0.0182504
-0.0183823
-0.0185106
-0.0186348
-0.0187549
-0.0188707
-0.0189819
-0.0190883
-0.0191898
-0.0192863
-0.0193775
-0.0194633
-0.0195435
-0.0196181
-0.0196869
-0.0197499
-0.0198068
-0.0198576
-0.0199023
-0.0199407
-0.0199728
-0.0199985
-0.0200179
-0.0200308
-0.0200372
-0.0267317
-0.0267252
-0.0267122
-0.0266927
-0.0266667
-0.0266344
-0.0265957
-0.0265507
-0.0264995
-0.0264422
-0.0263788
-0.0263095
-0.0262343
-0.0261535
-0.026067
-0.0259752
-0.0258781
-0.0257758
-0.0256686
-0.0255566
-0.0254401
-0.0253191
-0.025194
-0.0250648
-0.0249319
-0.0247955
-0.0246557
-0.0245129
-0.0243672
-0.0242189
-0.0240683
-0.0239156
-0.0237611
-0.023605
-0.0234477
-0.0232893
-0.0231303
-0.0229707
-0.022811
-0.0226514
-0.0224922
-0.0223336
-0.022176
-0.0220197
-0.0218648
-0.0217117
-0.0215607
-0.021412
-0.021266
-0.0211228
-0.0209827
-0.020846
-0.020713
-0.0205838
-0.0204587
-0.020338
-0.0202219
-0.0201105
-0.0200041
-0.019903
-0.0198072
-0.0197169
-0.0196324
-0.0195537
-0.0194811
-0.0194147
-0.0193545
-0.0193007
-0.0192535
-0.0192128
-0.0191788
-0.0191515
-0.0191311
-0.0191174
-0.0191106
-0.0191106
-0.0191174
-0.019131
-0.0191515
-0.0191788
-0.0192127
-0.0192534
-0.0193007
-0.0193544
-0.0194146
-0.019481
-0.0195536
-0.0196323
-0.0197168
-0.019807
-0.0199028
-0.020004
-0.0201103
-0.0202217
-0.0203378
-0.0204585
-0.0205836
-0.0207127
-0.0208458
-0.0209825
-0.0211225
-0.0212657
-0.0214118
-0.0215604
-0.0217114
-0.0218645
-0.0220193
-0.0221757
-0.0223333
-0.0224918
-0.022651
-0.0228106
-0.0229703
-0.0231298
-0.0232889
-0.0234472
-0.0236045
-0.0237606
-0.0239151
-0.0240677
-0.0242183
-0.0243666
-0.0245122
-0.0246551
-0.0247948
-0.0249312
-0.0250641
-0.0251932
-0.0253183
-0.0254393
-0.0255558
-0.0256677
-0.0257749
-0.0258771
-0.0259742
-0.026066
-0.0261524
-0.0262332
-0.0263084
-0.0263776
-0.026441
-0.0264983
-0.0265495
-0.0265944
-0.0266331
-0.0266654
-0.0266913
-0.0267108
-0.0267238
-0.0267303
-0.0334315
-0.0334249
-0.0334118
-0.0333921
-0.033366
-0.0333333
-0.0332943
-0.033249
-0.0331973
-0.0331395
-0.0330756
-0.0330057
-0.0329299
-0.0328483
-0.0327612
-0.0326685
-0.0325706
-0.0324675
-0.0323594
-0.0322464
-0.0321289
-0.0320069
-0.0318807
-0.0317504
-0.0316164
-0.0314787
-0.0313378
-0.0311937
-0.0310468
-0.0308972
-0.0307453
-0.0305913
-0.0304355
-0.0302781
-0.0301194
-0.0299597
-0.0297992
-0.0296383
-0.0294772
-0.0293162
-0.0291556
-0.0289957
-0.0288367
-0.028679
-0.0285228
-0.0283684
-0.028216
-0.0280661
-0.0279187
-0.0277743
-0.027633
-0.0274951
-0.0273609
-0.0272306
-0.0271044
-0.0269827
-0.0268655
-0.0267532
-0.0266459
-0.0265438
-0.0264472
-0.0263561
-0.0262709
-0.0261915
-0.0261183
-0.0260512
-0.0259906
-0.0259363
-0.0258887
-0.0258476
-0.0258133
-0.0257858
-0.0257652
-0.0257514
-0.0257445
-0.0257445
-0.0257514
-0.0257652
-0.0257858
-0.0258133
-0.0258476
-0.0258886
-0.0259363
-0.0259905
-0.0260512
-0.0261182
-0.0261914
-0.0262708
-0.026356
-0.026447
-0.0265437
-0.0266457
-0.026753
-0.0268653
-0.0269825
-0.0271042
-0.0272304
-0.0273607
-0.0274949
-0.0276327
-0.027774
-0.0279185
-0.0280658
-0.0282157
-0.028368
-0.0285224
-0.0286786
-0.0288363
-0.0289953
-0.0291552
-0.0293158
-0.0294768
-0.0296378
-0.0297987
-0.0299592
-0.0301189
-0.0302776
-0.030435
-0.0305908
-0.0307448
-0.0308966
-0.0310462
-0.0311931
-0.0313371
-0.0314781
-0.0316157
-0.0317497
-0.0318799
-0.0320061
-0.0321281
-0.0322456
-0.0323585
-0.0324666
-0.0325697
-0.0326676
-0.0327602
-0.0328473
-0.0329288
-0.0330046
-0.0330745
-0.0331383
-0.0331961
-0.0332478
-0.0332931
-0.0333321
-0.0333647
-0.0333908
-0.0334105
-0.0334236
-0.0334301
-0.040138
-0.0401314
-0.0401181
-0.0400983
-0.0400719
-0.0400389
-0.0399995
-0.0399537
-0.0399015
-0.0398431
-0.0397785
-0.0397079
-0.0396314
-0.039549
-0.039461
-0.0393674
-0.0392684
-0.0391642
-0.039055
-0.0389409
-0.0388222
-0.038699
-0.0385714
-0.0384399
-0.0383045
-0.0381654
-0.038023
-0.0378775
-0.037729
-0.0375779
-0.0374245
-0.0372689
-0.0371114
-0.0369524
-0.0367921
-0.0366307
-0.0364686
-0.036306
-0.0361432
-0.0359806
-0.0358183
-0.0356567
-0.0354961
-0.0353368
-0.0351789
-0.0350229
-0.034869
-0.0347175
-0.0345686
-0.0344227
-0.0342799
-0.0341406
-0.034005
-0.0338734
-0.0337459
-0.0336229
-0.0335045
-0.033391
-0.0332826
-0.0331794
-0.0330818
-0.0329898
-0.0329036
-0.0328235
-0.0327494
-0.0326817
-0.0326204
-0.0325656
-0.0325174
-0.032476
-0.0324413
-0.0324135
-0.0323926
-0.0323787
-0.0323718
-0.0323718
-0.0323787
-0.0323926
-0.0324135
-0.0324413
-0.0324759
-0.0325174
-0.0325655
-0.0326203
-0.0326816
-0.0327493
-0.0328233
-0.0329035
-0.0329897
-0.0330816
-0.0331793
-0.0332824
-0.0333908
-0.0335043
-0.0336227
-0.0337457
-0.0338731
-0.0340048
-0.0341404
-0.0342797
-0.0344224
-0.0345684
-0.0347172
-0.0348687
-0.0350226
-0.0351786
-0.0353364
-0.0354958
-0.0356564
-0.0358179
-0.0359802
-0.0361428
-0.0363056
-0.0364681
-0.0366302
-0.0367916
-0.0369519
-0.0371109
-0.0372683
-0.0374239
-0.0375774
-0.0377284
-0.0378768
-0.0380224
-0.0381648
-0.0383038
-0.0384392
-0.0385707
-0.0386982
-0.0388214
-0.0389401
-0.0390542
-0.0391634
-0.0392675
-0.0393664
-0.03946
-0.039548
-0.0396303
-0.0397068
-0.0397774
-0.039842
-0.0399004
-0.0399525
-0.0399983
-0.0400377
-0.0400706
-0.040097
-0.0401168
-0.0401301
-0.0401367
-0.0468514
-0.0468447
-0.0468313
-0.0468112
-0.0467845
-0.0467512
-0.0467113
-0.0466649
-0.0466122
-0.0465531
-0.0464877
-0.0464163
-0.0463388
-0.0462555
-0.0461664
-0.0460717
-0.0459716
-0.0458662
-0.0457557
-0.0456403
-0.0455201
-0.0453954
-0.0452664
-0.0451332
-0.0449962
-0.0448555
-0.0447114
-0.0445642
-0.0444139
-0.0442611
-0.0441058
-0.0439483
-0.043789
-0.0436281
-0.0434658
-0.0433025
-0.0431385
-0.0429739
-0.0428092
-0.0426446
-0.0424804
-0.0423169
-0.0421543
-0.0419931
-0.0418333
-0.0416755
-0.0415197
-0.0413664
-0.0412157
-0.041068
-0.0409235
-0.0407825
-0.0406453
-0.040512
-0.040383
-0.0402585
-0.0401387
-0.0400238
-0.0399141
-0.0398097
-0.0397109
-0.0396178
-0.0395306
-0.0394494
-0.0393745
-0.039306
-0.0392439
-0.0391884
-0.0391397
-0.0390977
-0.0390626
-0.0390345
-0.0390134
-0.0389993
-0.0389923
-0.0389923
-0.0389993
-0.0390134
-0.0390345
-0.0390626
-0.0390977
-0.0391396
-0.0391884
-0.0392438
-0.0393059
-0.0393744
-0.0394493
-0.0395304
-0.0396176
-0.0397107
-0.0398096
-0.0399139
-0.0400236
-0.0401385
-0.0402583
-0.0403828
-0.0405118
-0.040645
-0.0407823
-0.0409233
-0.0410677
-0.0412154
-0.0413661
-0.0415194
-0.0416752
-0.041833
-0.0419927
-0.042154
-0.0423165
-0.04248
-0.0426442
-0.0428088
-0.0429735
-0.043138
-0.0433021
-0.0434653
-0.0436276
-0.0437885
-0.0439478
-0.0441052
-0.0442605
-0.0444134
-0.0445635
-0.0447108
-0.0448549
-0.0449955
-0.0451325
-0.0452656
-0.0453946
-0.0455193
-0.0456394
-0.0457549
-0.0458653
-0.0459707
-0.0460708
-0.0461654
-0.0462545
-0.0463378
-0.0464152
-0.0464866
-0.0465519
-0.046611
-0.0466638
-0.0467101
-0.04675
-0.0467833
-0.04681
-0.0468301
-0.0468434
-0.0468501
-0.0535717
-0.0535649
-0.0535514
-0.053531
-0.053504
-0.0534702
-0.0534298
-0.0533828
-0.0533293
-0.0532694
-0.0532032
-0.0531308
-0.0530523
-0.0529679
-0.0528776
-0.0527817
-0.0526802
-0.0525734
-0.0524614
-0.0523444
-0.0522226
-0.0520963
-0.0519655
-0.0518306
-0.0516917
-0.0515491
-0.0514031
-0.0512538
-0.0511016
-0.0509467
-0.0507893
-0.0506297
-0.0504682
-0.0503051
-0.0501406
-0.0499751
-0.0498088
-0.0496421
-0.0494751
-0.0493083
-0.0491418
-0.0489761
-0.0488113
-0.0486478
-0.0484859
-0.0483259
-0.048168
-0.0480126
-0.0478599
-0.0477101
-0.0475637
-0.0474207
-0.0472816
-0.0471465
-0.0470158
-0.0468895
-0.0467681
-0.0466516
-0.0465404
-0.0464346
-0.0463344
-0.04624
-0.0461516
-0.0460694
-0.0459934
-0.0459239
-0.045861
-0.0458048
-0.0457554
-0.0457128
-0.0456773
-0.0456488
-0.0456273
-0.0456131
-0.045606
-0.045606
-0.0456131
-0.0456273
-0.0456487
-0.0456772
-0.0457128
-0.0457553
-0.0458047
-0.0458609
-0.0459238
-0.0459933
-0.0460693
-0.0461515
-0.0462399
-0.0463343
-0.0464345
-0.0465403
-0.0466515
-0.0467679
-0.0468894
-0.0470156
-0.0471463
-0.0472814
-0.0474205
-0.0475634
-0.0477099
-0.0478596
-0.0480123
-0.0481677
-0.0483256
-0.0484856
-0.0486475
-0.048811
-0.0489757
-0.0491415
-0.0493079
-0.0494747
-0.0496417
-0.0498084
-0.0499747
-0.0501402
-0.0503046
-0.0504677
-0.0506292
-0.0507887
-0.0509461
-0.051101
-0.0512532
-0.0514025
-0.0515485
-0.051691
-0.0518299
-0.0519648
-0.0520955
-0.0522219
-0.0523436
-0.0524606
-0.0525725
-0.0526793
-0.0527807
-0.0528767
-0.0529669
-0.0530513
-0.0531298
-0.0532022
-0.0532683
-0.0533282
-0.0533816
-0.0534286
-0.053469
-0.0535028
-0.0535298
-0.0535502
-0.0535637
-0.0535705
-0.0602991
-0.0602922
-0.0602784
-0.0602578
-0.0602303
-0.060196
-0.060155
-0.0601074
-0.0600531
-0.0599923
-0.0599251
-0.0598516
-0.059772
-0.0596863
-0.0595947
-0.0594973
-0.0593943
-0.0592859
-0.0591722
-0.0590535
-0.0589299
-0.0588016
-0.0586689
-0.058532
-0.058391
-0.0582463
-0.0580981
-0.0579465
-0.057792
-0.0576347
-0.057475
-0.057313
-0.0571491
-0.0569835
-0.0568165
-0.0566485
-0.0564797
-0.0563104
-0.0561409
-0.0559716
-0.0558026
-0.0556343
-0.0554671
-0.0553011
-0.0551367
-0.0549743
-0.054814
-0.0546562
-0.0545011
-0.0543491
-0.0542004
-0.0540553
-0.053914
-0.0537769
-0.0536441
-0.053516
-0.0533927
-0.0532744
-0.0531615
-0.053054
-0.0529523
-0.0528565
-0.0527667
-0.0526832
-0.0526061
-0.0525355
-0.0524717
-0.0524146
-0.0523644
-0.0523212
-0.0522851
-0.0522562
-0.0522344
-0.0522199
-0.0522127
-0.0522127
-0.0522199
-0.0522344
-0.0522561
-0.0522851
-0.0523212
-0.0523643
-0.0524145
-0.0524716
-0.0525355
-0.052606
-0.0526831
-0.0527666
-0.0528564
-0.0529522
-0.0530539
-0.0531613
-0.0532743
-0.0533925
-0.0535158
-0.0536439
-0.0537767
-0.0539138
-0.0540551
-0.0542002
-0.0543488
-0.0545008
-0.0546559
-0.0548137
-0.054974
-0.0551364
-0.0553008
-0.0554667
-0.055634
-0.0558022
-0.0559712
-0.0561405
-0.05631
-0.0564793
-0.0566481
-0.0568161
-0.056983
-0.0571486
-0.0573125
-0.0574744
-0.0576342
-0.0577914
-0.0579459
-0.0580974
-0.0582457
-0.0583903
-0.0585313
-0.0586682
-0.0588009
-0.0589291
-0.0590527
-0.0591714
-0.059285
-0.0593934
-0.0594964
-0.0595937
-0.0596853
-0.059771
-0.0598506
-0.0599241
-0.0599912
-0.060052
-0.0601062
-0.0601539
-0.0601949
-0.0602291
-0.0602566
-0.0602772
-0.060291
-0.0602979
-0.0670336
-0.0670266
-0.0670126
-0.0669916
-0.0669637
-0.0669289
-0.0668872
-0.0668387
-0.0667836
-0.0667218
-0.0666535
-0.0665788
-0.0664979
-0.0664107
-0.0663176
-0.0662186
-0.066114
-0.0660038
-0.0658882
-0.0657676
-0.0656419
-0.0655115
-0.0653766
-0.0652374
-0.0650941
-0.064947
-0.0647963
-0.0646423
-0.0644852
-0.0643253
-0.0641629
-0.0639983
-0.0638316
-0.0636633
-0.0634936
-0.0633228
-0.0631511
-0.062979
-0.0628067
-0.0626345
-0.0624627
-0.0622916
-0.0621215
-0.0619528
-0.0617857
-0.0616205
-0.0614575
-0.0612971
-0.0611394
-0.0609848
-0.0608336
-0.0606861
-0.0605425
-0.060403
-0.060268
-0.0601377
-0.0600123
-0.0598921
-0.0597772
-0.059668
-0.0595645
-0.0594671
-0.0593758
-0.0592909
-0.0592125
-0.0591407
-0.0590758
-0.0590177
-0.0589667
-0.0589228
-0.058886
-0.0588566
-0.0588345
-0.0588198
-0.0588124
-0.0588124
-0.0588197
-0.0588345
-0.0588566
-0.058886
-0.0589227
-0.0589666
-0.0590176
-0.0590757
-0.0591406
-0.0592124
-0.0592908
-0.0593757
-0.059467
-0.0595644
-0.0596678
-0.0597771
-0.0598919
-0.0600121
-0.0601375
-0.0602678
-0.0604028
-0.0605422
-0.0606859
-0.0608334
-0.0609846
-0.0611391
-0.0612968
-0.0614572
-0.0616202
-0.0617854
-0.0619525
-0.0621212
-0.0622913
-0.0624623
-0.0626341
-0.0628063
-0.0629786
-0.0631507
-0.0633223
-0.0634931
-0.0636628
-0.0638311
-0.0639977
-0.0641624
-0.0643248
-0.0644847
-0.0646417
-0.0647957
-0.0649464
-0.0650935
-0.0652367
-0.0653759
-0.0655108
-0.0656412
-0.0657668
-0.0658874
-0.0660029
-0.0661131
-0.0662178
-0.0663167
-0.0664098
-0.0664969
-0.0665778
-0.0666525
-0.0667207
-0.0667825
-0.0668376
-0.0668861
-0.0669277
-0.0669626
-0.0669905
-0.0670114
-0.0670254
-0.0670324
-0.0737754
-0.0737682
-0.073754
-0.0737326
-0.0737042
-0.0736688
-0.0736263
-0.073577
-0.0735209
-0.073458
-0.0733885
-0.0733125
-0.0732301
-0.0731414
-0.0730466
-0.0729459
-0.0728393
-0.0727272
-0.0726096
-0.0724867
-0.0723588
-0.0722261
-0.0720888
-0.0719471
-0.0718012
-0.0716515
-0.0714981
-0.0713413
-0.0711813
-0.0710186
-0.0708532
-0.0706856
-0.0705159
-0.0703445
-0.0701717
-0.0699978
-0.0698231
-0.0696478
-0.0694724
-0.0692971
-0.0691221
-0.0689479
-0.0687748
-0.068603
-0.0684328
-0.0682646
-0.0680986
-0.0679352
-0.0677747
-0.0676173
-0.0674633
-0.0673131
-0.0671668
-0.0670248
-0.0668873
-0.0667546
-0.0666269
-0.0665045
-0.0663875
-0.0662763
-0.0661709
-0.0660717
-0.0659787
-0.0658923
-0.0658124
-0.0657393
-0.0656732
-0.065614
-0.0655621
-0.0655174
-0.06548
-0.06545
-0.0654275
-0.0654125
-0.065405
-0.065405
-0.0654125
-0.0654275
-0.06545
-0.0654799
-0.0655173
-0.065562
-0.065614
-0.0656731
-0.0657392
-0.0658123
-0.0658922
-0.0659786
-0.0660716
-0.0661708
-0.0662761
-0.0663874
-0.0665043
-0.0666268
-0.0667544
-0.0668871
-0.0670246
-0.0671666
-0.0673129
-0.0674631
-0.067617
-0.0677744
-0.067935
-0.0680983
-0.0682643
-0.0684325
-0.0686026
-0.0687744
-0.0689476
-0.0691218
-0.0692967
-0.069472
-0.0696474
-0.0698227
-0.0699974
-0.0701713
-0.070344
-0.0705154
-0.070685
-0.0708527
-0.071018
-0.0711808
-0.0713407
-0.0714974
-0.0716508
-0.0718006
-0.0719464
-0.0720881
-0.0722254
-0.0723581
-0.0724859
-0.0726088
-0.0727263
-0.0728385
-0.072945
-0.0730457
-0.0731405
-0.0732291
-0.0733115
-0.0733875
-0.073457
-0.0735198
-0.073576
-0.0736253
-0.0736677
-0.0737031
-0.0737315
-0.0737529
-0.0737671
-0.0737742
-0.0805245
-0.0805173
-0.0805027
-0.080481
-0.080452
-0.0804159
-0.0803726
-0.0803224
-0.0802651
-0.0802011
-0.0801302
-0.0800528
-0.0799688
-0.0798784
-0.0797818
-0.0796791
-0.0795705
-0.0794562
-0.0793363
-0.0792111
-0.0790807
-0.0789454
-0.0788054
-0.078661
-0.0785123
-0.0783596
-0.0782032
-0.0780434
-0.0778804
-0.0777144
-0.0775458
-0.0773749
-0.077202
-0.0770272
-0.0768511
-0.0766738
-0.0764956
-0.0763169
-0.076138
-0.0759593
-0.0757809
-0.0756033
-0.0754267
-0.0752515
-0.075078
-0.0749065
-0.0747373
-0.0745706
-0.0744069
-0.0742464
-0.0740894
-0.0739362
-0.0737871
-0.0736422
-0.073502
-0.0733667
-0.0732365
-0.0731116
-0.0729923
-0.0728789
-0.0727714
-0.0726702
-0.0725754
-0.0724872
-0.0724058
-0.0723313
-0.0722638
-0.0722035
-0.0721505
-0.0721049
-0.0720668
-0.0720362
-0.0720132
-0.0719979
-0.0719903
-0.0719903
-0.0719979
-0.0720132
-0.0720362
-0.0720667
-0.0721048
-0.0721504
-0.0722034
-0.0722637
-0.0723312
-0.0724057
-0.0724871
-0.0725753
-0.0726701
-0.0727713
-0.0728787
-0.0729922
-0.0731115
-0.0732363
-0.0733665
-0.0735018
-0.073642
-0.0737868
-0.073936
-0.0740892
-0.0742462
-0.0744067
-0.0745704
-0.074737
-0.0749062
-0.0750777
-0.0752512
-0.0754264
-0.0756029
-0.0757805
-0.0759589
-0.0761376
-0.0763165
-0.0764952
-0.0766733
-0.0768506
-0.0770268
-0.0772015
-0.0773744
-0.0775453
-0.0777139
-0.0778798
-0.0780428
-0.0782026
-0.078359
-0.0785116
-0.0786603
-0.0788047
-0.0789447
-0.07908
-0.0792103
-0.0793355
-0.0794553
-0.0795697
-0.0796782
-0.0797809
-0.0798775
-0.0799678
-0.0800518
-0.0801293
-0.0802001
-0.0802641
-0.0803213
-0.0803716
-0.0804148
-0.0804509
-0.0804799
-0.0805016
-0.0805161
-0.0805234
-0.0872812
-0.0872738
-0.087259
-0.0872368
-0.0872072
-0.0871703
-0.0871262
-0.0870749
-0.0870165
-0.0869511
-0.0868788
-0.0867998
-0.086714
-0.0866218
-0.0865232
-0.0864184
-0.0863075
-0.0861909
-0.0860685
-0.0859407
-0.0858076
-0.0856695
-0.0855267
-0.0853792
-0.0852274
-0.0850716
-0.084912
-0.0847488
-0.0845824
-0.084413
-0.0842409
-0.0840664
-0.0838898
-0.0837115
-0.0835316
-0.0833506
-0.0831687
-0.0829863
-0.0828036
-0.0826211
-0.082439
-0.0822576
-0.0820774
-0.0818985
-0.0817213
-0.0815462
-0.0813734
-0.0812032
-0.0810361
-0.0808722
-0.0807119
-0.0805554
-0.0804031
-0.0802552
-0.080112
-0.0799738
-0.0798409
-0.0797133
-0.0795915
-0.0794757
-0.079366
-0.0792626
-0.0791658
-0.0790757
-0.0789925
-0.0789164
-0.0788475
-0.0787859
-0.0787318
-0.0786852
-0.0786463
-0.0786151
-0.0785916
-0.078576
-0.0785682
-0.0785682
-0.078576
-0.0785916
-0.078615
-0.0786463
-0.0786852
-0.0787317
-0.0787859
-0.0788474
-0.0789163
-0.0789924
-0.0790756
-0.0791657
-0.0792625
-0.0793658
-0.0794755
-0.0795914
-0.0797132
-0.0798407
-0.0799737
-0.0801119
-0.080255
-0.0804029
-0.0805552
-0.0807116
-0.0808719
-0.0810358
-0.081203
-0.0813731
-0.0815459
-0.081721
-0.0818982
-0.082077
-0.0822573
-0.0824386
-0.0826207
-0.0828033
-0.0829859
-0.0831683
-0.0833502
-0.0835312
-0.083711
-0.0838894
-0.0840659
-0.0842404
-0.0844124
-0.0845818
-0.0847482
-0.0849114
-0.085071
-0.0852268
-0.0853786
-0.085526
-0.0856688
-0.0858069
-0.0859399
-0.0860677
-0.0861901
-0.0863067
-0.0864175
-0.0865223
-0.0866209
-0.0867131
-0.0867988
-0.0868779
-0.0869501
-0.0870155
-0.0870739
-0.0871252
-0.0871693
-0.0872061
-0.0872357
-0.0872579
-0.0872727
-0.0872801
-0.0940456
-0.094038
-0.0940229
-0.0940002
-0.09397
-0.0939323
-0.0938872
-0.0938348
-0.0937751
-0.0937083
-0.0936344
-0.0935536
-0.093466
-0.0933718
-0.093271
-0.0931639
-0.0930506
-0.0929314
-0.0928064
-0.0926757
-0.0925398
-0.0923986
-0.0922526
-0.0921019
-0.0919468
-0.0917875
-0.0916244
-0.0914576
-0.0912875
-0.0911143
-0.0909384
-0.0907601
-0.0905796
-0.0903972
-0.0902134
-0.0900283
-0.0898424
-0.0896559
-0.0894692
-0.0892826
-0.0890964
-0.088911
-0.0887267
-0.0885438
-0.0883627
-0.0881836
-0.088007
-0.087833
-0.0876621
-0.0874945
-0.0873306
-0.0871706
-0.0870149
-0.0868637
-0.0867173
-0.0865759
-0.08644
-0.0863096
-0.086185
-0.0860665
-0.0859543
-0.0858486
-0.0857496
-0.0856575
-0.0855725
-0.0854946
-0.0854242
-0.0853612
-0.0853058
-0.0852582
-0.0852184
-0.0851865
-0.0851625
-0.0851465
-0.0851385
-0.0851385
-0.0851465
-0.0851625
-0.0851864
-0.0852184
-0.0852582
-0.0853058
-0.0853611
-0.0854241
-0.0854946
-0.0855724
-0.0856574
-0.0857495
-0.0858485
-0.0859542
-0.0860664
-0.0861849
-0.0863094
-0.0864398
-0.0865758
-0.0867171
-0.0868635
-0.0870147
-0.0871704
-0.0873304
-0.0874943
-0.0876618
-0.0878327
-0.0880067
-0.0881833
-0.0883624
-0.0885435
-0.0887264
-0.0889107
-0.0890961
-0.0892822
-0.0894688
-0.0896555
-0.089842
-0.0900279
-0.090213
-0.0903968
-0.0905791
-0.0907596
-0.0909379
-0.0911138
-0.0912869
-0.091457
-0.0916238
-0.0917869
-0.0919462
-0.0921013
-0.0922519
-0.0923979
-0.0925391
-0.092675
-0.0928056
-0.0929306
-0.0930498
-0.0931631
-0.0932702
-0.0933709
-0.0934651
-0.0935527
-0.0936335
-0.0937074
-0.0937742
-0.0938338
-0.0938862
-0.0939313
-0.0939689
-0.0939991
-0.0940218
-0.094037
-0.0940445
-0.100818
-0.10081
-0.100795
-0.100771
-0.10074
-0.100702
-0.100656
-0.100602
-0.100541
-0.100473
-0.100397
-0.100315
-0.100225
-0.100128
-0.100025
-0.0999158
-0.0997999
-0.0996779
-0.09955
-0.0994163
-0.0992772
-0.0991328
-0.0989834
-0.0988292
-0.0986704
-0.0985074
-0.0983405
-0.0981698
-0.0979957
-0.0978185
-0.0976385
-0.097456
-0.0972713
-0.0970846
-0.0968965
-0.0967071
-0.0965168
-0.0963259
-0.0961348
-0.0959438
-0.0957532
-0.0955634
-0.0953747
-0.0951875
-0.0950021
-0.0948188
-0.0946379
-0.0944599
-0.0942849
-0.0941133
-0.0939455
-0.0937817
-0.0936223
-0.0934675
-0.0933176
-0.0931729
-0.0930337
-0.0929002
-0.0927727
-0.0926513
-0.0925365
-0.0924282
-0.0923269
-0.0922326
-0.0921455
-0.0920658
-0.0919936
-0.0919291
-0.0918725
-0.0918237
-0.0917829
-0.0917502
-0.0917257
-0.0917093
-0.0917012
-0.0917012
-0.0917093
-0.0917257
-0.0917502
-0.0917829
-0.0918236
-0.0918724
-0.0919291
-0.0919935
-0.0920657
-0.0921454
-0.0922325
-0.0923268
-0.0924281
-0.0925363
-0.0926512
-0.0927725
-0.0929
-0.0930335
-0.0931727
-0.0933174
-0.0934673
-0.0936221
-0.0937815
-0.0939453
-0.0941131
-0.0942846
-0.0944596
-0.0946377
-0.0948185
-0.0950018
-0.0951872
-0.0953744
-0.0955631
-0.0957529
-0.0959434
-0.0961344
-0.0963255
-0.0965164
-0.0967067
-0.096896
-0.0970842
-0.0972708
-0.0974555
-0.097638
-0.097818
-0.0979952
-0.0981693
-0.0983399
-0.0985069
-0.0986698
-0.0988285
-0.0989827
-0.0991321
-0.0992765
-0.0994156
-0.0995492
-0.0996772
-0.0997991
-0.099915
-0.100025
-0.100128
-0.100224
-0.100314
-0.100396
-0.100472
-0.10054
-0.100601
-0.100655
-0.100701
-0.100739
-0.10077
-0.100794
-0.100809
-0.100817
-0.107598
-0.10759
-0.107574
-0.107551
-0.107519
-0.107479
-0.107432
-0.107377
-0.107315
-0.107245
-0.107167
-0.107083
-0.106991
-0.106892
-0.106787
-0.106674
-0.106556
-0.106431
-0.1063
-0.106163
-0.10602
-0.105872
-0.105719
-0.105561
-0.105398
-0.105231
-0.10506
-0.104886
-0.104707
-0.104526
-0.104341
-0.104154
-0.103965
-0.103774
-0.103581
-0.103387
-0.103192
-0.102996
-0.1028
-0.102605
-0.102409
-0.102215
-0.102021
-0.10183
-0.10164
-0.101452
-0.101266
-0.101084
-0.100904
-0.100729
-0.100557
-0.100389
-0.100225
-0.100067
-0.0999129
-0.0997646
-0.0996219
-0.099485
-0.0993543
-0.09923
-0.0991122
-0.0990013
-0.0988973
-0.0988007
-0.0987114
-0.0986297
-0.0985557
-0.0984896
-0.0984315
-0.0983815
-0.0983397
-0.0983062
-0.098281
-0.0982642
-0.0982559
-0.0982559
-0.0982642
-0.098281
-0.0983062
-0.0983397
-0.0983814
-0.0984314
-0.0984895
-0.0985556
-0.0986296
-0.0987113
-0.0988006
-0.0988972
-0.0990011
-0.0991121
-0.0992298
-0.0993542
-0.0994849
-0.0996217
-0.0997644
-0.0999127
-0.100066
-0.100225
-0.100388
-0.100556
-0.100728
-0.100904
-0.101084
-0.101266
-0.101451
-0.101639
-0.101829
-0.102021
-0.102214
-0.102409
-0.102604
-0.1028
-0.102996
-0.103191
-0.103386
-0.10358
-0.103773
-0.103964
-0.104154
-0.104341
-0.104525
-0.104707
-0.104885
-0.10506
-0.105231
-0.105398
-0.10556
-0.105718
-0.105871
-0.106019
-0.106162
-0.106299
-0.10643
-0.106555
-0.106673
-0.106786
-0.106891
-0.10699
-0.107082
-0.107166
-0.107244
-0.107314
-0.107376
-0.107431
-0.107479
-0.107518
-0.10755
-0.107573
-0.107589
-0.107597
-0.114387
-0.114379
-0.114362
-0.114338
-0.114306
-0.114265
-0.114217
-0.11416
-0.114096
-0.114024
-0.113945
-0.113858
-0.113764
-0.113663
-0.113555
-0.113439
-0.113318
-0.11319
-0.113055
-0.112915
-0.112769
-0.112617
-0.11246
-0.112298
-0.112131
-0.11196
-0.111784
-0.111605
-0.111422
-0.111236
-0.111047
-0.110855
-0.110661
-0.110464
-0.110267
-0.110068
-0.109868
-0.109667
-0.109466
-0.109265
-0.109065
-0.108865
-0.108667
-0.10847
-0.108275
-0.108082
-0.107892
-0.107705
-0.107521
-0.10734
-0.107164
-0.106991
-0.106824
-0.106661
-0.106503
-0.106351
-0.106204
-0.106064
-0.10593
-0.105802
-0.105681
-0.105568
-0.105461
-0.105362
-0.10527
-0.105186
-0.10511
-0.105042
-0.104983
-0.104931
-0.104889
-0.104854
-0.104828
-0.104811
-0.104803
-0.104803
-0.104811
-0.104828
-0.104854
-0.104888
-0.104931
-0.104983
-0.105042
-0.10511
-0.105186
-0.10527
-0.105362
-0.105461
-0.105567
-0.105681
-0.105802
-0.10593
-0.106064
-0.106204
-0.106351
-0.106503
-0.106661
-0.106823
-0.106991
-0.107163
-0.10734
-0.10752
-0.107704
-0.107892
-0.108082
-0.108275
-0.10847
-0.108666
-0.108865
-0.109064
-0.109265
-0.109466
-0.109666
-0.109867
-0.110067
-0.110266
-0.110464
-0.11066
-0.110854
-0.111046