/*--------------------------------*- C++ -*----------------------------------*\
| =========                 |                                                 |
| \\      /  F ield         | OpenFOAM: The Open Source CFD Toolbox           |
|  \\    /   O peration     | Version:  2306                                  |
|   \\  /    A nd           | Website:  www.openfoam.com                      |
|    \\/     M anipulation  |                                                 |
\*---------------------------------------------------------------------------*/
FoamFile
{
    version     2.0;
    format      ascii;
    arch        "LSB;label=32;scalar=64";
    class       surfaceScalarField;
    location    "0.08";
    object      phi;
}
// * * * * * * * * * * * * * * * * * * * * * * * * * * * * * * * * * * * * * //

dimensions      [0 3 -1 0 0 0 0];

oriented        oriented;

internalField   nonuniform List<scalar> 
12640
(
-1.0857467e-07
1.5122545e-06
-4.3565563e-07
4.5382923e-06
-9.8553416e-07
7.5507497e-06
-1.7640368e-06
1.0531812e-05
-2.7768475e-06
1.3452904e-05
-4.0278507e-06
1.6281392e-05
-5.517123e-06
1.8979101e-05
-7.2388126e-06
2.1501303e-05
-9.1792226e-06
2.3797974e-05
-1.1315271e-05
2.581571e-05
-1.361352e-05
2.7500478e-05
-1.6029976e-05
2.880113e-05
-1.8510851e-05
2.9673394e-05
-2.0994388e-05
3.0083965e-05
-2.3413692e-05
3.0014176e-05
-2.5700378e-05
2.9462818e-05
-2.7788742e-05
2.8447794e-05
-2.9620094e-05
2.7006299e-05
-3.1146717e-05
2.5193118e-05
-3.2334928e-05
2.3077141e-05
-3.3166828e-05
2.0736536e-05
-3.3640546e-05
1.825316e-05
-3.3769024e-05
1.570695e-05
-3.3577653e-05
1.3171086e-05
-3.3101411e-05
1.0708831e-05
-3.2381653e-05
8.3715393e-06
-3.1462774e-05
6.1973049e-06
-3.0389263e-05
4.2111532e-06
-2.9203231e-05
2.4261537e-06
-2.7941564e-05
8.4412709e-07
-2.664209e-05
-5.3473649e-07
-2.5330279e-05
-1.7242878e-06
-2.4026702e-05
-2.7402298e-06
-2.2749153e-05
-3.5982262e-06
-2.1510464e-05
-4.3152032e-06
-2.0319616e-05
-4.9079373e-06
-1.9182422e-05
-5.3923856e-06
-1.8102191e-05
-5.7832695e-06
-1.7080304e-05
-6.0938721e-06
-1.61167e-05
-6.3359809e-06
-1.5210278e-05
-6.5199255e-06
-1.435921e-05
-6.6546734e-06
-1.3561193e-05
-6.7479562e-06
-1.2813632e-05
-6.8064063e-06
-1.2113777e-05
-6.835693e-06
-1.145883e-05
-6.8406495e-06
-1.0846009e-05
-6.8253893e-06
-1.0272601e-05
-6.7934087e-06
-9.7359955e-06
-6.7476765e-06
-9.2337032e-06
-6.6907119e-06
-8.7633682e-06
-6.6246509e-06
-8.3227733e-06
-6.5513036e-06
-7.9098415e-06
-6.4722026e-06
-7.5226329e-06
-6.3886444e-06
-7.1593408e-06
-6.3017248e-06
-6.8182856e-06
-6.2123685e-06
-6.4979084e-06
-6.1213549e-06
-6.1967639e-06
-6.0293394e-06
-5.913513e-06
-5.9368717e-06
-5.6469161e-06
-5.8444118e-06
-5.3958258e-06
-5.752343e-06
-5.1591806e-06
-5.6609832e-06
-4.9359979e-06
-5.5705948e-06
-4.7253687e-06
-5.4813929e-06
-4.5264516e-06
-5.3935521e-06
-4.3384677e-06
-5.3072129e-06
-4.1606954e-06
-5.2224863e-06
-3.9924666e-06
-5.1394589e-06
-3.8331617e-06
-5.058196e-06
-3.6822062e-06
-4.9787453e-06
-3.5390674e-06
-4.9011394e-06
-3.4032504e-06
-4.8253981e-06
-3.2742958e-06
-4.7515308e-06
-3.1517767e-06
-4.6795377e-06
-3.0352961e-06
-4.6094121e-06
-2.9244845e-06
-4.5411405e-06
-2.8189981e-06
-4.4747049e-06
-2.7185165e-06
-4.4100829e-06
-2.6227412e-06
-4.3472489e-06
-4.2861746e-06
-1.139729e-07
1.6262274e-06
-4.5767384e-07
4.8819932e-06
-1.037817e-06
8.1308929e-06
-1.8639121e-06
1.1357907e-05
-2.9463862e-06
1.4535378e-05
-4.2942876e-06
1.7629293e-05
-5.9125442e-06
2.0597358e-05
-7.7990709e-06
2.338783e-05
-9.9421178e-06
2.5941021e-05
-1.2318113e-05
2.8191705e-05
-1.4890219e-05
3.0072584e-05
-1.7607814e-05
3.1518725e-05
-2.0407234e-05
3.2472814e-05
-2.3213939e-05
3.2890669e-05
-2.5946087e-05
3.2746323e-05
-2.8519331e-05
3.2036062e-05
-3.0852382e-05
3.0780846e-05
-3.2872875e-05
2.9026792e-05
-3.4522777e-05
2.684302e-05
-3.5762531e-05
2.4316895e-05
-3.6573326e-05
2.154733e-05
-3.6957182e-05
1.8637016e-05
-3.6934978e-05
1.5684747e-05
-3.6542969e-05
1.2779078e-05
-3.5828781e-05
9.9946425e-06
-3.4846901e-05
7.3896593e-06
-3.3654207e-05
5.0046106e-06
-3.2306044e-05
2.8629906e-06
-3.085192e-05
9.7203e-07
-2.9342907e-05
-6.6488592e-07
-2.7813259e-05
-2.0643851e-06
-2.629168e-05
-3.2458665e-06
-2.4802028e-05
-4.2298816e-06
-2.3361397e-05
-5.0388575e-06
-2.1981482e-05
-5.6951179e-06
-2.0669577e-05
-6.2198421e-06
-1.9429532e-05
-6.6324311e-06
-1.8262593e-05
-6.9502087e-06
-1.7168113e-05
-7.1883515e-06
-1.6144127e-05
-7.359967e-06
-1.5187795e-05
-7.4762575e-06
-1.4295743e-05
-7.5467254e-06
-1.3464311e-05
-7.5793886e-06
-1.2689728e-05
-7.5809888e-06
-1.196824e-05
-7.5571816e-06
-1.1296185e-05
-7.5127043e-06
-1.0670052e-05
-7.4515217e-06
-1.0086511e-05
-7.3769499e-06
-9.5424269e-06
-7.2917608e-06
-9.0348685e-06
-7.1982703e-06
-8.5611078e-06
-7.0984117e-06
-8.1186136e-06
-6.9937978e-06
-7.7050441e-06
-6.8857721e-06
-7.3182365e-06
-6.775452e-06
-6.956196e-06
-6.6637652e-06
-6.6170849e-06
-6.5514797e-06
-6.2992109e-06
-6.4392289e-06
-6.0010168e-06
-6.3275335e-06
-5.7210695e-06
-6.216819e-06
-5.4580504e-06
-6.1074309e-06
-5.2107459e-06
-5.9996475e-06
-4.9780389e-06
-5.8936902e-06
-4.7589006e-06
-5.7897331e-06
-4.5523833e-06
-5.6879102e-06
-4.3576136e-06
-5.5883219e-06
-4.1737858e-06
-5.4910406e-06
-4.0001567e-06
-5.3961154e-06
-3.8360401e-06
-5.3035755e-06
-3.6808018e-06
-5.2134343e-06
-3.5338558e-06
-5.1256914e-06
-3.3946597e-06
-5.0403355e-06
-3.2627115e-06
-4.9573463e-06
-3.1375462e-06
-4.8766961e-06
-3.0187325e-06
-4.7983514e-06
-2.9058705e-06
-4.722274e-06
-2.7985888e-06
-4.6484222e-06
-2.6965425e-06
-4.5767512e-06
-2.5994106e-06
-4.5072147e-06
-2.506895e-06
-4.4397645e-06
-4.374352e-06
-1.1813534e-07
1.7443627e-06
-4.7484836e-07
5.2387062e-06
-1.080127e-06
8.7361715e-06
-1.9484779e-06
1.2226258e-05
-3.09687e-06
1.568377e-05
-4.5416059e-06
1.9074029e-05
-6.2946027e-06
2.2350355e-05
-8.35947e-06
2.5452697e-05
-1.0727899e-05
2.830945e-05
-1.3376636e-05
3.0840442e-05
-1.626543e-05
3.2961378e-05
-1.9336019e-05
3.4589315e-05
-2.2512736e-05
3.564953e-05
-2.5704998e-05
3.6082932e-05
-2.8811806e-05
3.5853131e-05
-3.172804e-05
3.4952297e-05
-3.4351966e-05
3.3404771e-05
-3.6593251e-05
3.1268078e-05
-3.8380478e-05
2.8630246e-05
-3.9666846e-05
2.5603263e-05
-4.0433153e-05
2.2313637e-05
-4.0687566e-05
1.8891428e-05
-4.0462431e-05
1.5459612e-05
-3.9809144e-05
1.2125791e-05
-3.8792484e-05
8.9779824e-06
-3.7484243e-05
6.0814183e-06
-3.595708e-05
3.4774475e-06
-3.42779e-05
1.1838112e-06
-3.2516113e-05
-7.8975718e-07
-3.0719512e-05
-2.4614868e-06
-2.8928506e-05
-3.8553918e-06
-2.7176008e-05
-4.998364e-06
-2.5485461e-05
-5.9204284e-06
-2.3872581e-05
-6.6517381e-06
-2.2346801e-05
-7.2208976e-06
-2.0912695e-05
-7.6539483e-06
-1.957123e-05
-7.9738966e-06
-1.8320823e-05
-8.2006154e-06
-1.7158188e-05
-8.3509861e-06
-1.6078981e-05
-8.4391742e-06
-1.5078273e-05
-8.476965e-06
-1.4150892e-05
-8.4741073e-06
-1.3291643e-05
-8.438637e-06
-1.2495468e-05
-8.3771643e-06
-1.1757528e-05
-8.2951216e-06
-1.107326e-05
-8.1969716e-06
-1.0438403e-05
-8.086379e-06
-9.8490003e-06
-7.9663528e-06
-9.3013985e-06
-7.8393626e-06
-8.7922359e-06
-7.7074329e-06
-8.3184262e-06
-7.5722214e-06
-7.8771409e-06
-7.4350831e-06
-7.4657911e-06
-7.297122e-06
-7.0820085e-06
-7.1592346e-06
-6.7236284e-06
-7.0221454e-06
-6.3886717e-06
-6.8864363e-06
-6.0753296e-06
-6.752571e-06
-5.7819478e-06
-6.6209153e-06
-5.5070133e-06
-6.4917534e-06
-5.2491416e-06
-6.3653026e-06
-5.0070648e-06
-6.2417243e-06
-4.7796214e-06
-6.1211336e-06
-4.5657465e-06
-6.0036081e-06
-4.3644628e-06
-5.8891939e-06
-4.1748733e-06
-5.7779114e-06
-3.9961534e-06
-5.6697605e-06
-3.8275451e-06
-5.5647237e-06
-3.6683504e-06
-5.4627702e-06
-3.5179266e-06
-5.3638581e-06
-3.3756809e-06
-5.267937e-06
-3.2410665e-06
-5.1749498e-06
-3.1135785e-06
-5.0848343e-06
-2.9927501e-06
-4.9975245e-06
-2.8781495e-06
-4.912952e-06
-2.7693771e-06
-4.8310465e-06
-2.6660624e-06
-4.7517368e-06
-2.5678621e-06
-4.6749515e-06
-2.4744574e-06
-4.6006193e-06
-2.3855524e-06
-4.5286695e-06
-4.4590325e-06
-1.2033056e-07
1.8646933e-06
-4.8438357e-07
5.6027592e-06
-1.106402e-06
9.3581899e-06
-2.0076786e-06
1.3127534e-05
-3.2140724e-06
1.6890164e-05
-4.7519421e-06
2.0611899e-05
-6.6430711e-06
2.4241484e-05
-8.8993849e-06
2.7709011e-05
-1.1518127e-05
3.0928192e-05
-1.4477603e-05
3.3799918e-05
-1.7734351e-05
3.6218125e-05
-2.1221416e-05
3.807638e-05
-2.4848586e-05
3.92767e-05
-2.8505124e-05
3.9739469e-05
-3.2065326e-05
3.9413334e-05
-3.539679e-05
3.828376e-05
-3.8370624e-05
3.6378605e-05
-4.0872557e-05
3.3770011e-05
-4.2813532e-05
3.0571221e-05
-4.4137729e-05
2.692746e-05
-4.482651e-05
2.3002418e-05
-4.4897625e-05
1.8962542e-05
-4.4400049e-05
1.4962036e-05
-4.3406403e-05
1.1132145e-05
-4.2004817e-05
7.5763965e-06
-4.0289771e-05
4.3663723e-06
-3.8351937e-05
1.5396132e-06
-3.6285942e-05
-8.8218314e-07
-3.4160517e-05
-2.9151828e-06
-3.2033264e-05
-4.5887392e-06
-2.9950985e-05
-5.9376708e-06
-2.7946881e-05
-7.0024686e-06
-2.6042856e-05
-7.8244535e-06
-2.4251619e-05
-8.442975e-06
-2.2578809e-05
-8.8937072e-06
-2.1024912e-05
-9.207845e-06
-1.9586875e-05
-9.4119337e-06
-1.8259386e-05
-9.5281048e-06
-1.7035837e-05
-9.5745351e-06
-1.5909013e-05
-9.5659982e-06
-1.4871557e-05
-9.5144206e-06
-1.3916271e-05
-9.4293932e-06
-1.3036293e-05
-9.3186153e-06
-1.2225193e-05
-9.1882648e-06
-1.1477014e-05
-9.0433001e-06
-1.0786284e-05
-8.8877021e-06
-1.0147995e-05
-8.7246674e-06
-9.5575876e-06
-8.5567602e-06
-9.0109142e-06
-8.386036e-06
-8.5042092e-06
-8.2141378e-06
-8.034057e-06
-8.0423736e-06
-7.5973604e-06
-7.8717797e-06
-7.191311e-06
-7.7031713e-06
-6.8133622e-06
-7.5371834e-06
-6.4612034e-06
-7.3743042e-06
-6.1327372e-06
-7.2149025e-06
-5.8260583e-06
-7.05925e-06
-5.5394347e-06
-6.9075389e-06
-5.2712907e-06
-6.7598974e-06
-5.0201915e-06
-6.6164019e-06
-4.7848292e-06
-6.4770866e-06
-4.5640107e-06
-6.3419522e-06
-4.3566463e-06
-6.2109725e-06
-4.1617401e-06
-6.0841001e-06
-3.9783806e-06
-5.9612709e-06
-3.8057332e-06
-5.8424079e-06
-3.6430325e-06
-5.7274245e-06
-3.4895759e-06
-5.6162268e-06
-3.3447182e-06
-5.5087158e-06
-3.2078659e-06
-5.4047893e-06
-3.0784728e-06
-5.3043429e-06
-2.9560356e-06
-5.2072716e-06
-2.8400899e-06
-5.1134702e-06
-2.7302074e-06
-5.0228345e-06
-2.6259919e-06
-4.9352619e-06
-2.5270775e-06
-4.8506513e-06
-2.433125e-06
-4.768904e-06
-2.3438204e-06
-4.6899239e-06
-2.2588725e-06
-4.6136175e-06
-4.539894e-06
-1.1961577e-07
1.9843091e-06
-4.8249431e-07
5.9656378e-06
-1.1083836e-06
9.9840792e-06
-2.0277703e-06
1.4046921e-05
-3.2783935e-06
1.8140787e-05
-4.9004463e-06
2.2233952e-05
-6.9294335e-06
2.6270471e-05
-9.3891007e-06
3.0168678e-05
-1.2285181e-05
3.3824273e-05
-1.5599386e-05
3.7114123e-05
-1.9285601e-05
3.990434e-05
-2.3267181e-05
4.205796e-05
-2.7436433e-05
4.3445952e-05
-3.1657338e-05
4.3960374e-05
-3.5772204e-05
4.35282e-05
-3.9612461e-05
4.2124017e-05
-4.301268e-05
3.9778824e-05
-4.5826185e-05
3.6583516e-05
-4.7940262e-05
3.2685299e-05
-4.9287714e-05
2.8274911e-05
-4.9852166e-05
2.3566871e-05
-4.9666223e-05
1.87766e-05
-4.8803097e-05
1.409891e-05
-4.7365332e-05
9.6943804e-06
-4.5472839e-05
5.683903e-06
-4.3247829e-05
2.1413622e-06
-4.0819148e-05
-8.8906778e-07
-3.8288043e-05
-3.4132875e-06
-3.5737597e-05
-5.4656289e-06
-3.3236325e-05
-7.0900116e-06
-3.0832904e-05
-8.341092e-06
-2.8559174e-05
-9.2761987e-06
-2.6433151e-05
-9.9504763e-06
-2.446224e-05
-1.0413886e-05
-2.2646211e-05
-1.0709737e-05
-2.0979728e-05
-1.0874328e-05
-1.9454356e-05
-1.0937306e-05
-1.8060041e-05
-1.092242e-05
-1.6786144e-05
-1.0848433e-05
-1.5622106e-05
-1.0730036e-05
-1.4557851e-05
-1.0578675e-05
-1.3583995e-05
-1.0403249e-05
-1.2691931e-05
-1.021068e-05
-1.1873841e-05
-1.0006355e-05
-1.1122667e-05
-9.7944743e-06
-1.0432058e-05
-9.5783109e-06
-9.7963107e-06
-9.3604148e-06
-9.2103056e-06
-9.1427653e-06
-8.6694504e-06
-8.9268912e-06
-8.1696245e-06
-8.7139638e-06
-7.7071279e-06
-8.5048702e-06
-7.2786364e-06
-8.3002712e-06
-6.8811607e-06
-8.1006471e-06
-6.5120095e-06
-7.9063345e-06
-6.1687579e-06
-7.7175558e-06
-5.8492179e-06
-7.5344426e-06
-5.5514132e-06
-7.3570546e-06
-5.2735568e-06
-7.1853952e-06
-5.0140305e-06
-7.0194237e-06
-4.7713672e-06
-6.8590652e-06
-4.5442352e-06
-6.7042185e-06
-4.3314245e-06
-6.5547629e-06
-4.1318337e-06
-6.4105633e-06
-3.9444596e-06
-6.2714742e-06
-3.768387e-06
-6.1373435e-06
-3.6027801e-06
-6.0080148e-06
-3.4468747e-06
-5.8833299e-06
-3.2999712e-06
-5.7631302e-06
-3.1614287e-06
-5.6472584e-06
-3.0306588e-06
-5.5355592e-06
-2.9071213e-06
-5.4278804e-06
-2.7903195e-06
-5.3240734e-06
-2.6797961e-06
-5.2239936e-06
-2.5751297e-06
-5.1275009e-06
-2.4759318e-06
-5.0344598e-06
-2.3818436e-06
-4.9447395e-06
-2.2925334e-06
-4.8582142e-06
-2.2076945e-06
-4.7747628e-06
-2.1270428e-06
-4.6942692e-06
-4.6166218e-06
-1.1471034e-07
2.0990194e-06
-4.6413288e-07
6.3150603e-06
-1.0749098e-06
1.0594856e-05
-1.9901762e-06
1.4962188e-05
-3.2631143e-06
1.9413725e-05
-4.9529878e-06
2.3923825e-05
-7.1141143e-06
2.8431597e-05
-9.7866709e-06
3.2841235e-05
-1.298894e-05
3.7026542e-05
-1.6708663e-05
4.0833846e-05
-2.0898222e-05
4.4093899e-05
-2.5470502e-05
4.663024e-05
-3.029712e-05
4.827257e-05
-3.5210539e-05
4.8873792e-05
-4.0011573e-05
4.8329235e-05
-4.44833e-05
4.6595744e-05
-4.8410429e-05
4.3705953e-05
-5.1601632e-05
3.9774719e-05
-5.3911833e-05
3.4995501e-05
-5.5259271e-05
2.9622348e-05
-5.5632766e-05
2.3940366e-05
-5.5087922e-05
1.8231755e-05
-5.3733547e-05
1.2744534e-05
-5.1714575e-05
7.6754093e-06
-4.9192131e-05
3.1614586e-06
-4.6340748e-05
-7.100213e-07
-4.3311492e-05
-3.9183236e-06
-4.0225354e-05
-6.499425e-06
-3.7185342e-05
-8.5056413e-06
-3.4265342e-05
-1.0010011e-05
-3.1513745e-05
-1.1092689e-05
-2.8957658e-05
-1.1832286e-05
-2.660774e-05
-1.2300393e-05
-2.4462891e-05
-1.2558735e-05
-2.2514303e-05
-1.2658325e-05
-2.0748697e-05
-1.2639933e-05
-1.9150696e-05
-1.2535307e-05
-1.7704437e-05
-1.2368679e-05
-1.6394571e-05
-1.2158299e-05
-1.5206815e-05
-1.1917792e-05
-1.412819e-05
-1.16573e-05
-1.314707e-05
-1.138437e-05
-1.2253127e-05
-1.1104623e-05
-1.143722e-05
-1.0822261e-05
-1.0691272e-05
-1.0540422e-05
-1.0008143e-05
-1.026144e-05
-9.3815188e-06
-9.9870392e-06
-8.8058062e-06
-9.7184779e-06
-8.2760441e-06
-9.4566533e-06
-7.7878244e-06
-9.2021835e-06
-7.337224e-06
-8.9554706e-06
-6.9207457e-06
-8.7167495e-06
-6.5352668e-06
-8.486126e-06
-6.1779944e-06
-8.2636069e-06
-5.8464265e-06
-8.0491237e-06
-5.538318e-06
-7.842551e-06
-5.2516512e-06
-7.6437214e-06
-4.9846097e-06
-7.4524368e-06
-4.7355558e-06
-7.2684777e-06
-4.5030106e-06
-7.0916104e-06
-4.2856368e-06
-6.9215923e-06
-4.0822231e-06
-6.7581766e-06
-3.8916708e-06
-6.6011156e-06
-3.7129818e-06
-6.4501632e-06
-3.5452484e-06
-6.3050769e-06
-3.3876436e-06
-6.1656195e-06
-3.2394135e-06
-6.03156e-06
-3.0998691e-06
-5.9026746e-06
-2.9683807e-06
-5.7787468e-06
-2.8443716e-06
-5.6595683e-06
-2.7273133e-06
-5.5449387e-06
-2.6167206e-06
-5.4346661e-06
-2.5121478e-06
-5.3285664e-06
-2.4131847e-06
-5.2264639e-06
-2.3194539e-06
-5.1281906e-06
-2.2306072e-06
-5.0335862e-06
-2.1463233e-06
-4.9424981e-06
-2.0663055e-06
-4.8547806e-06
-1.9902793e-06
-4.7702954e-06
-4.6889104e-06
-1.0389227e-07
2.2029117e-06
-4.2266781e-07
6.6338358e-06
-9.909448e-07
1.1163133e-05
-1.8700674e-06
1.584131e-05
-3.1320924e-06
2.067575e-05
-4.8631584e-06
2.5654891e-05
-7.1428648e-06
3.0711304e-05
-1.0033821e-05
3.5732191e-05
-1.3572439e-05
4.056516e-05
-1.7756009e-05
4.5017417e-05
-2.2537536e-05
4.8875426e-05
-2.781913e-05
5.1911834e-05
-3.3448547e-05
5.3901987e-05
-3.9219487e-05
5.4644733e-05
-4.487904e-05
5.3988788e-05
-5.0145163e-05
5.1861867e-05
-5.4733447e-05
4.8294237e-05
-5.8389807e-05
4.3431078e-05
-6.0923856e-05
3.752955e-05
-6.2234864e-05
3.0933356e-05
-6.2321865e-05
2.4027367e-05
-6.1276168e-05
1.7186059e-05
-5.9259417e-05
1.0727783e-05
-5.6475267e-05
4.8912592e-06
-5.3153286e-05
-1.6052168e-07
-4.9522055e-05
-4.3412525e-06
-4.5757523e-05
-7.6828559e-06
-4.2018008e-05
-1.0238939e-05
-3.8419245e-05
-1.2104405e-05
-3.5038045e-05
-1.3391211e-05
-3.1917828e-05
-1.4212906e-05
-2.907576e-05
-1.4674354e-05
-2.6510145e-05
-1.4866009e-05
-2.4207055e-05
-1.4861825e-05
-2.2145696e-05
-1.4719684e-05
-2.0302349e-05
-1.448328e-05
-1.865302e-05
-1.4184635e-05
-1.7175025e-05
-1.3846674e-05
-1.5847777e-05
-1.3485547e-05
-1.4653068e-05
-1.3112501e-05
-1.3575016e-05
-1.2735351e-05
-1.2599866e-05
-1.235952e-05
-1.1715721e-05
-1.1988767e-05
-1.0912292e-05
-1.1625691e-05
-1.0180648e-05
-1.1272066e-05
-9.5130174e-06
-1.0929071e-05
-8.9026096e-06
-1.0597447e-05
-8.343475e-06
-1.0277613e-05
-7.830385e-06
-9.9697433e-06
-7.3587319e-06
-9.6738365e-06
-6.9244456e-06
-9.3897569e-06
-6.523922e-06
-9.1172731e-06
-6.1539624e-06
-8.8560856e-06
-5.8117221e-06
-8.6058472e-06
-5.4946656e-06
-8.3661802e-06
-5.2005284e-06
-8.1366882e-06
-4.9272844e-06
-7.9169654e-06
-4.6731167e-06
-7.7066045e-06
-4.4363934e-06
-7.5052009e-06
-4.2156462e-06
-7.3123576e-06
-4.0095512e-06
-7.1276872e-06
-3.8169133e-06
-6.9508146e-06
-3.6366512e-06
-6.7813777e-06
-3.4677855e-06
-6.6190288e-06
-3.3094276e-06
-6.4634348e-06
-3.1607699e-06
-6.3142772e-06
-3.0210776e-06
-6.1712524e-06
-2.8896807e-06
-6.0340715e-06
-2.7659681e-06
-5.9024594e-06
-2.6493811e-06
-5.7761552e-06
-2.5394087e-06
-5.6549112e-06
-2.4355824e-06
-5.5384924e-06
-2.3374726e-06
-5.4266762e-06
-2.2446846e-06
-5.3192519e-06
-2.1568556e-06
-5.2160196e-06
-2.0736515e-06
-5.1167903e-06
-1.9947644e-06
-5.0213852e-06
-1.9199101e-06
-4.9296349e-06
-1.8488262e-06
-4.8413792e-06
-4.7564665e-06
-8.4828771e-08
2.2877404e-06
-3.4940023e-07
6.8984073e-06
-8.3615357e-07
1.1649886e-05
-1.6346464e-06
1.6639803e-05
-2.836662e-06
2.1877766e-05
-4.5683887e-06
2.7386618e-05
-6.9420855e-06
3.3085e-05
-1.0050652e-05
3.8840757e-05
-1.3956236e-05
4.4470744e-05
-1.8670059e-05
4.973124e-05
-2.4149463e-05
5.435483e-05
-3.0286333e-05
5.8048704e-05
-3.6902065e-05
6.0517719e-05
-4.3743859e-05
6.1486527e-05
-5.0489755e-05
6.0734683e-05
-5.6769626e-05
5.8141738e-05
-6.2201538e-05
5.3726149e-05
-6.6441186e-05
4.7670726e-05
-6.9233023e-05
4.0321387e-05
-7.0451109e-05
3.2151443e-05
-7.0113297e-05
2.3689555e-05
-6.8366894e-05
1.5439656e-05
-6.5451925e-05
7.812814e-06
-6.165915e-05
1.0984837e-06
-5.7325632e-05
-4.49404e-06
-5.2709004e-05
-8.95788e-06
-4.8056508e-05
-1.2335352e-05
-4.3553427e-05
-1.474202e-05
-3.9326339e-05
-1.6331492e-05
-3.54489e-05
-1.726865e-05
-3.1951888e-05
-1.7709919e-05
-2.8834699e-05
-1.7791543e-05
-2.6076286e-05
-1.7624423e-05
-2.364426e-05
-1.729385e-05
-2.1501697e-05
-1.6862247e-05
-1.9611686e-05
-1.6373291e-05
-1.7939991e-05
-1.585633e-05
-1.6456338e-05
-1.5330327e-05
-1.5134691e-05
-1.4807194e-05
-1.3953027e-05
-1.4294166e-05
-1.2892844e-05
-1.3795535e-05
-1.1938599e-05
-1.3313765e-05
-1.1077177e-05
-1.2850189e-05
-1.0297439e-05
-1.2405429e-05
-9.5898617e-06
-1.1979643e-05
-8.9462542e-06
-1.1572678e-05
-8.3595307e-06
-1.1184171e-05
-7.8235346e-06
-1.0813609e-05
-7.3328953e-06
-1.0460383e-05
-6.8829116e-06
-1.012382e-05
-6.469456e-06
-9.8032125e-06
-6.0888939e-06
-9.4978353e-06
-5.738016e-06
-9.2069634e-06
-5.4139819e-06
-8.9298814e-06
-5.1142705e-06
-8.6658916e-06
-4.8366398e-06
-8.4143189e-06
-4.5790907e-06
-8.1745145e-06
-4.3398372e-06
-7.945858e-06
-4.1172803e-06
-7.7277579e-06
-3.9099853e-06
-7.5196526e-06
-3.7166626e-06
-7.3210099e-06
-3.5361509e-06
-7.1313263e-06
-3.3674021e-06
-6.9501264e-06
-3.2094693e-06
-6.7769616e-06
-3.061495e-06
-6.6114091e-06
-2.9227015e-06
-6.4530707e-06
-2.7923825e-06
-6.3015714e-06
-2.6698957e-06
-6.1565583e-06
-2.5546555e-06
-6.0176995e-06
-2.4461281e-06
-5.8846827e-06
-2.3438253e-06
-5.7572139e-06
-2.2473009e-06
-5.6350168e-06
-2.1561458e-06
-5.5178313e-06
-2.069985e-06
-5.4054127e-06
-1.9884739e-06
-5.2975307e-06
-1.9112958e-06
-5.1939685e-06
-1.838159e-06
-5.094522e-06
-1.7687948e-06
-4.9989992e-06
-1.7029551e-06
-4.9072189e-06
-4.8190107e-06
-5.4277659e-08
2.3420181e-06
-2.3256212e-07
7.0766918e-06
-5.8299723e-07
1.2000322e-05
-1.2407912e-06
1.7297597e-05
-2.3114049e-06
2.2948379e-05
-3.9850157e-06
2.9060229e-05
-6.4127486e-06
3.5512733e-05
-9.7288255e-06
4.2156834e-05
-1.4031219e-05
4.8773138e-05
-1.9349959e-05
5.504998e-05
-2.5652877e-05
6.0657748e-05
-3.2823618e-05
6.5219445e-05
-4.0656547e-05
6.8350648e-05
-4.8845485e-05
6.9675466e-05
-5.6981134e-05
6.8870331e-05
-6.4574329e-05
6.5734933e-05
-7.1102876e-05
6.0254697e-05
-7.6089258e-05
5.2657108e-05
-7.9181287e-05
4.3413415e-05
-8.0218767e-05
3.3188923e-05
-7.9253403e-05
2.272419e-05
-7.6520338e-05
1.2706592e-05
-7.2378024e-05
3.6704998e-06
-6.7280357e-05
-3.9991833e-06
-6.162023e-05
-1.0154167e-05
-5.5779949e-05
-1.4798162e-05
-5.0060331e-05
-1.805497e-05
-4.4675929e-05
-2.0126423e-05
-3.9757373e-05
-2.1250048e-05
-3.536438e-05
-2.1661643e-05
-3.1502982e-05
-2.1571317e-05
-2.8143406e-05
-2.1151118e-05
-2.5235774e-05
-2.0532055e-05
-2.2722147e-05
-1.9807477e-05
-2.0544683e-05
-1.9039712e-05
-1.8650514e-05
-1.826746e-05
-1.6993892e-05
-1.7512951e-05
-1.5536679e-05
-1.6787541e-05
-1.4247768e-05
-1.6096105e-05
-1.3101979e-05
-1.5439954e-05
-1.2078895e-05
-1.4818619e-05
-1.1161822e-05
-1.4230838e-05
-1.0336958e-05
-1.3675053e-05
-9.5927523e-06
-1.3149635e-05
-8.9194354e-06
-1.265296e-05
-8.3086712e-06
-1.2183442e-05
-7.7532974e-06
-1.1739544e-05
-7.2471268e-06
-1.1319779e-05
-6.7847915e-06
-1.0922718e-05
-6.3616166e-06
-1.0546995e-05
-5.973517e-06
-1.0191312e-05
-5.6169117e-06
-9.8544406e-06
-5.2886522e-06
-9.5352229e-06
-4.9859623e-06
-9.2325713e-06
-4.7063873e-06
-8.9454665e-06
-4.4477512e-06
-8.672955e-06
-4.20812e-06
-8.4141457e-06
-3.985771e-06
-8.168207e-06
-3.7791658e-06
-7.9343631e-06
-3.5869279e-06
-7.7118906e-06
-3.4078227e-06
-7.5001151e-06
-3.2407409e-06
-7.2984081e-06
-3.0846838e-06
-7.1061835e-06
-2.9387506e-06
-6.9228949e-06
-2.802127e-06
-6.7480327e-06
-2.6740762e-06
-6.5811215e-06
-2.5539297e-06
-6.4217178e-06
-2.4410808e-06
-6.2694073e-06
-2.3349771e-06
-6.1238032e-06
-2.2351157e-06
-5.9845441e-06
-2.1410375e-06
-5.8512921e-06
-2.0523232e-06
-5.7237311e-06
-1.968589e-06
-5.6015655e-06
-1.8894833e-06
-5.4845183e-06
-1.8146837e-06
-5.3723303e-06
-1.7438938e-06
-5.2647583e-06
-1.6768412e-06
-5.1615747e-06
-1.613275e-06
-5.0625654e-06
-1.5529638e-06
-4.96753e-06
-4.8762801e-06
-6.9769128e-09
2.348995e-06
-5.6446416e-08
7.1261613e-06
-1.9788032e-07
1.2141755e-05
-6.304208e-07
1.7730137e-05
-1.4697704e-06
2.3787729e-05
-3.0021779e-06
3.0592636e-05
-5.4224688e-06
3.7933024e-05
-8.9229663e-06
4.5657332e-05
-1.3649629e-05
5.3499801e-05
-1.9655709e-05
6.1056059e-05
-2.6929465e-05
6.7931504e-05
-3.5350281e-05
7.3640261e-05
-4.468869e-05
7.7689057e-05
-5.4582143e-05
7.9568918e-05
-6.4513897e-05
7.8802085e-05
-7.3835765e-05
7.5056801e-05
-8.1819691e-05
6.8238623e-05
-8.7785204e-05
5.862262e-05
-9.1231758e-05
4.685997e-05
-9.1951835e-05
3.3909e-05
-9.0057797e-05
2.0830152e-05
-8.59294e-05
8.5781947e-06
-8.0131065e-05
-2.1278347e-06
-7.3263229e-05
-1.0867019e-05
-6.5904804e-05
-1.7512592e-05
-5.8545985e-05
-2.2156981e-05
-5.1555822e-05
-2.5045133e-05
-4.5172742e-05
-2.6509502e-05
-3.9517623e-05
-2.6905168e-05
-3.461817e-05
-2.6561095e-05
-3.0437269e-05
-2.5752218e-05
-2.6899926e-05
-2.4688461e-05
-2.3914981e-05
-2.3517001e-05
-2.1390341e-05
-2.2332117e-05
-1.9242052e-05
-2.1188001e-05
-1.7398815e-05
-2.0110697e-05
-1.5803127e-05
-1.9108639e-05
-1.4409917e-05
-1.818075e-05
-1.3184318e-05
-1.7321704e-05
-1.2099335e-05
-1.6524937e-05
-1.1133823e-05
-1.5784131e-05
-1.0270909e-05
-1.5093751e-05
-9.4968514e-06
-1.4449111e-05
-8.8002474e-06
-1.3846239e-05
-8.1714979e-06
-1.3281709e-05
-7.6024373e-06
-1.2752503e-05
-7.0860695e-06
-1.2255912e-05
-6.616369e-06
-1.178948e-05
-6.1881257e-06
-1.1350961e-05
-5.7968184e-06
-1.0938302e-05
-5.4385102e-06
-1.054962e-05
-5.1097624e-06
-1.0183188e-05
-4.8075611e-06
-9.8374241e-06
-4.5292574e-06
-9.510875e-06
-4.2725159e-06
-9.2022081e-06
-4.0352716e-06
-8.9101992e-06
-3.8156943e-06
-8.633723e-06
-3.612157e-06
-8.3717442e-06
-3.4232105e-06
-8.1233096e-06
-3.2475603e-06
-7.8875407e-06
-3.0840482e-06
-7.6636273e-06
-2.931635e-06
-7.4508213e-06
-2.7893868e-06
-7.2484316e-06
-2.6564628e-06
-7.0558189e-06
-2.532104e-06
-6.8723914e-06
-2.4156246e-06
-6.6976009e-06
-2.3064035e-06
-6.5309389e-06
-2.2038772e-06
-6.3719336e-06
-2.1075338e-06
-6.2201466e-06
-2.0169076e-06
-6.0751703e-06
-1.9315741e-06
-5.9366256e-06
-1.8511457e-06
-5.8041595e-06
-1.7752683e-06
-5.6774429e-06
-1.7036177e-06
-5.556169e-06
-1.6358967e-06
-5.4400513e-06
-1.5718327e-06
-5.3288223e-06
-1.5111752e-06
-5.2222322e-06
-1.4536935e-06
-5.1200471e-06
-1.3991754e-06
-5.0220481e-06
-4.9280305e-06
5.9655794e-08
2.2893392e-06
1.9929709e-07
6.98652e-06
3.6179173e-07
1.1979261e-05
2.8015273e-07
1.7811776e-05
-2.0810175e-07
2.4275983e-05
-1.4766331e-06
3.1861168e-05
-3.7953246e-06
4.0251716e-05
-7.4401396e-06
4.9302147e-05
-1.2614193e-05
5.8673854e-05
-1.9396289e-05
6.7838156e-05
-2.7811123e-05
7.6346338e-05
-3.7739036e-05
8.3568174e-05
-4.8937733e-05
8.8887754e-05
-6.0995311e-05
9.1626496e-05
-7.3268578e-05
9.1075352e-05
-8.4903878e-05
8.6692101e-05
-9.4864984e-05
7.819973e-05
-0.00010215091
6.5908551e-05
-0.00010602502
5.0734072e-05
-0.00010621353
3.409751e-05
-0.00010294078
1.7557405e-05
-9.6828124e-05
2.4655404e-06
-8.8722226e-05
-1.0233733e-05
-7.949981e-05
-2.0089435e-05
-6.9955576e-05
-2.7056826e-05
-6.0722508e-05
-3.1390049e-05
-5.2240388e-05
-3.3527253e-05
-4.475659e-05
-3.39933e-05
-3.8356569e-05
-3.3305189e-05
-3.3007067e-05
-3.1910598e-05
-2.860087e-05
-3.0158414e-05
-2.499582e-05
-2.8293511e-05
-2.2043458e-05
-2.6469363e-05
-1.9606862e-05
-2.4768713e-05
-1.757125e-05
-2.3223613e-05
-1.5846599e-05
-2.1835348e-05
-1.4365293e-05
-2.0589946e-05
-1.3077803e-05
-1.946824e-05
-1.194809e-05
-1.8451417e-05
-1.0949617e-05
-1.752341e-05
-1.0062303e-05
-1.6671445e-05
-9.2704105e-06
-1.5885644e-05
-8.5611791e-06
-1.5158343e-05
-7.9239917e-06
-1.4483426e-05
-7.3498648e-06
-1.3855836e-05
-6.8311256e-06
-1.3271242e-05
-6.3611872e-06
-1.2725851e-05
-5.9343778e-06
-1.2216289e-05
-5.5458004e-06
-1.1739539e-05
-5.1912156e-06
-1.1292887e-05
-4.8669414e-06
-1.0873894e-05
-4.5697701e-06
-1.048036e-05
-4.2968973e-06
-1.0110297e-05
-4.0458638e-06
-9.7619084e-06
-3.8145061e-06
-9.4335658e-06
-3.6009152e-06
-9.1237902e-06
-3.4034019e-06
-8.8312363e-06
-3.2204678e-06
-8.5546784e-06
-3.0507799e-06
-8.2929975e-06
-2.8931499e-06
-8.0451707e-06
-2.7465157e-06
-7.8102615e-06
-2.6099261e-06
-7.587411e-06
-2.4825272e-06
-7.3758305e-06
-2.3635511e-06
-7.174795e-06
-2.2523057e-06
-6.9836368e-06
-2.1481662e-06
-6.8017404e-06
-2.0505675e-06
-6.6285377e-06
-1.9589972e-06
-6.4635039e-06
-1.8729905e-06
-6.3061532e-06
-1.7921249e-06
-6.1560359e-06
-1.7160155e-06
-6.0127351e-06
-1.6443113e-06
-5.8758637e-06
-1.5766918e-06
-5.7450624e-06
-1.5128638e-06
-5.6199969e-06
-1.4525589e-06
-5.5003562e-06
-1.3955309e-06
-5.3858504e-06
-1.3415536e-06
-5.2762095e-06
-1.2904191e-06
-5.1711815e-06
-1.2419361e-06
-5.0705311e-06
-4.9740383e-06
1.5597651e-07
2.1333627e-06
5.6510686e-07
6.5773896e-06
1.1618732e-06
1.1382494e-05
1.5852928e-06
1.7388357e-05
1.6350298e-06
2.4226246e-05
8.1124137e-07
3.2684956e-05
-1.2992545e-06
4.2362212e-05
-5.02605e-06
5.3028942e-05
-1.066477e-05
6.4312575e-05
-1.8314758e-05
7.5488143e-05
-2.8064397e-05
8.6095977e-05
-3.9796263e-05
9.530004e-05
-5.3281178e-05
0.00010237267
-6.8087568e-05
0.00010643289
-8.3432885e-05
0.00010642067
-9.8217111e-05
0.00010147633
-0.00011093697
9.0919591e-05
-0.00012006286
7.503444e-05
-0.00012446752
5.5138728e-05
-0.00012378219
3.3412186e-05
-0.00011844074
1.2215948e-05
-0.00010945409
-6.5211062e-06
-9.813599e-05
-2.1551834e-05
-8.5761036e-05
-3.2464389e-05
-7.3409895e-05
-3.9407967e-05
-6.1885736e-05
-4.2914208e-05
-5.1689109e-05
-4.372388e-05
-4.3044345e-05
-4.2638064e-05
-3.5957257e-05
-4.0392277e-05
-3.0289485e-05
-3.757837e-05
-2.5825614e-05
-3.4622286e-05
-2.2326151e-05
-3.1792974e-05
-1.9563367e-05
-2.9232146e-05
-1.7345994e-05
-2.6986086e-05
-1.5526836e-05
-2.5042771e-05
-1.3999592e-05
-2.3362591e-05
-1.2691111e-05
-2.1898426e-05
-1.1552398e-05
-2.0606954e-05
-1.0550641e-05
-1.9453174e-05
-9.6631661e-06
-1.8410886e-05
-8.8733543e-06
-1.7461257e-05
-8.1681727e-06
-1.6590826e-05
-7.5368286e-06
-1.5789687e-05
-6.9701033e-06
-1.5050152e-05
-6.4600273e-06
-1.4365912e-05
-5.9996999e-06
-1.373157e-05
-5.5831576e-06
-1.3142393e-05
-5.2052553e-06
-1.2594191e-05
-4.8615545e-06
-1.2083239e-05
-4.5482192e-06
-1.1606223e-05
-4.261925e-06
-1.1160189e-05
-3.9997811e-06
-1.0742504e-05
-3.7592645e-06
-1.0350813e-05
-3.5381658e-06
-9.9830072e-06
-3.3345438e-06
-9.6371878e-06
-3.1466878e-06
-9.3116461e-06
-2.973086e-06
-9.0048381e-06
-2.8123986e-06
-8.7153658e-06
-2.6634352e-06
-8.4419609e-06
-2.5251356e-06
-8.1834704e-06
-2.3965531e-06
-7.938844e-06
-2.2768408e-06
-7.7071233e-06
-2.165239e-06
-7.4874323e-06
-2.0610653e-06
-7.2789688e-06
-1.9637049e-06
-7.0809972e-06
-1.8726033e-06
-6.8928419e-06
-1.7872594e-06
-6.7138816e-06
-1.7072194e-06
-6.5435439e-06
-1.6320715e-06
-6.3813011e-06
-1.5614419e-06
-6.2266656e-06
-1.4949901e-06
-6.0791868e-06
-1.4324061e-06
-5.9384478e-06
-1.3734066e-06
-5.8040619e-06
-1.317733e-06
-5.6756705e-06
-1.2651484e-06
-5.5529408e-06
-1.2154356e-06
-5.4355632e-06
-1.1683953e-06
-5.3232498e-06
-1.1238444e-06
-5.2157324e-06
-1.0816144e-06
-5.1127611e-06
-5.0141027e-06
2.9287645e-07
1.8404863e-06
1.086263e-06
5.784003e-06
2.2721899e-06
1.0196568e-05
3.4288704e-06
1.6231676e-05
4.261698e-06
2.3393419e-05
4.1102517e-06
3.2836402e-05
2.3644326e-06
4.4108031e-05
-1.3488215e-06
5.6742196e-05
-7.4643066e-06
7.042806e-05
-1.6072005e-05
8.4095842e-05
-2.7373783e-05
9.7397754e-05
-4.123734e-05
0.0001091636
-5.7493849e-05
0.00011862918
-7.5777773e-05
0.00012471681
-9.5164951e-05
0.00012580785
-0.00011430326
0.00012061464
-0.00013099185
0.00010760817
-0.00014278355
8.6826143e-05
-0.00014787352
6.0228694e-05
-0.00014575302
3.1291687e-05
-0.00013725203
3.7149626e-06
-0.00012405203
-1.9721112e-05
-0.00010823299
-3.7370874e-05
-9.1629877e-05
-4.9067497e-05
-7.5694838e-05
-5.5343006e-05
-6.1413589e-05
-5.7195458e-05
-4.9312423e-05
-5.5825046e-05
-3.9532922e-05
-5.2417565e-05
-3.1928302e-05
-4.7996897e-05
-2.619083e-05
-4.3315841e-05
-2.1942732e-05
-3.8870384e-05
-1.8803087e-05
-3.4932619e-05
-1.6443325e-05
-3.1591909e-05
-1.4611464e-05