/*--------------------------------*- C++ -*----------------------------------*\
| =========                 |                                                 |
| \\      /  F ield         | OpenFOAM: The Open Source CFD Toolbox           |
|  \\    /   O peration     | Version:  2106                                  |
|   \\  /    A nd           | Website:  www.openfoam.com                      |
|    \\/     M anipulation  |                                                 |
\*---------------------------------------------------------------------------*/
FoamFile
{
    version     2.0;
    format      ascii;
    arch        "LSB;label=32;scalar=64";
    class       volScalarField;
    location    "0.044";
    object      p;
}
// * * * * * * * * * * * * * * * * * * * * * * * * * * * * * * * * * * * * * //

dimensions      [1 -1 -2 0 0 0 0];

internalField   nonuniform List<scalar> 
4096
(
-1.842324
-1.8245888
-1.7892883
-1.7367618
-1.6675148
-1.5822132
-1.4816778
-1.3668756
-1.2389111
-1.0990158
-0.9485357
-0.78891905
-0.62170213
-0.44849455
-0.27096375
-0.090819162
0.090203861
0.27036373
0.44792457
0.62117472
0.78844594
0.94812657
1.0986778
1.2386488
1.3666904
1.4815684
1.5821755
1.6675417
1.736844
1.7894142
1.8247455
1.8424971
1.8424979
1.8247479
1.7894182
1.7368496
1.6675487
1.582184
1.4815782
1.3667015
1.238661
1.0986911
0.94814077
0.78846093
0.62119034
0.44794068
0.27038016
0.090220453
-0.090802573
-0.27094732
-0.44847846
-0.62168653
-0.78890409
-0.94852153
-1.0990025
-1.2388989
-1.3668645
-1.481668
-1.5822048
-1.6675078
-1.7367563
-1.7892843
-1.8245864
-1.8423232
-1.861228
-1.8433111
-1.8076487
-1.754584
-1.6846272
-1.5984513
-1.4968853
-1.3809062
-1.2516299
-1.1103002
-0.9582771
-0.79702357
-0.62809165
-0.45310743
-0.27375547
-0.091762626
0.091118418
0.27312678
0.45250963
0.6275383
0.79652679
0.9578469
1.109944
1.2513524
1.380709
1.496767
1.5984075
1.6846506
1.7546648
1.8077751
1.8434694
1.8614033
1.8614042
1.8434718
1.8077791
1.7546704
1.6846577
1.598416
1.4967769
1.3807202
1.2513648
1.1099575
0.95786125
0.79654195
0.6275541
0.45252592
0.27314339
0.091135195
-0.091745852
-0.27373886
-0.45309116
-0.62807587
-0.79700844
-0.95826276
-1.1102868
-1.2516176
-1.380895
-1.4968754
-1.5984428
-1.6846201
-1.7545784
-1.8076447
-1.8433087
-1.8612272
-1.8976076
-1.8793407
-1.8429817
-1.7888803
-1.717557
-1.6296977
-1.5261476
-1.4079028
-1.276101
-1.1320102
-0.97701693
-0.81261284
-0.6403802
-0.46197689
-0.27912037
-0.093571211
0.092883811
0.27844913
0.46133752
0.63978698
0.81207835
0.97655154
1.1316216
1.275794
1.4076792
1.5260058
1.6296332
1.7175623
1.7889452
1.8430938
1.8794858
1.8977704
1.8977712
1.8794883
1.8430979
1.7889509
1.7175695
1.6296419
1.5260159
1.4076906
1.2758066
1.1316353
0.97656619
0.81209381
0.6398031
0.46135414
0.27846608
0.092900934
-0.093554092
-0.27910342
-0.46196029
-0.64036411
-0.8125974
-0.97700231
-1.1319965
-1.2760884
-1.4078914
-1.5261375
-1.629689
-1.7175498
-1.7888747
-1.8429776
-1.8793382
-1.8976068
-1.9520875
-1.9332964
-1.895894
-1.8402402
-1.7668701
-1.6764895
-1.5699678
-1.4483297
-1.3127454
-1.1645194
-1.0050781
-0.83595571
-0.65878005
-0.47525653
-0.28715189
-0.096277244
0.095529409
0.2864209
0.47455861
0.65813013
0.83536688
1.0045611
1.1640823
1.3123932
1.4480641
1.5697874
1.6763894
1.7668425
1.8402746
1.8959775
1.9334142
1.9522237
1.9522245
1.9334168
1.8959817
1.8402804
1.76685
1.6763984
1.5697978
1.4480759
1.3124062
1.1640964
1.0045762
0.83538279
0.65814672
0.47457573
0.28643836
0.095547045
-0.096259612
-0.28713444
-0.47523943
-0.65876348
-0.83593983
-1.005063
-1.1645054
-1.3127325
-1.448318
-1.5699574
-1.6764806
-1.7668627
-1.8402343
-1.8958898
-1.9332938
-1.9520866
-2.0253028
-2.0058072
-1.9670026
-1.9092623
-1.8331415
-1.7393725
-1.6288572
-1.5026587
-1.3619911
-1.2082079
-1.0427887
-0.86732548
-0.68350695
-0.49310248
-0.29794507
-0.099913714
0.09908468
0.29713365
0.49232563
0.68278026
0.86666266
1.042201
1.2077037
1.3615757
1.5023339
1.6286214
1.7392207
1.8330655
1.9092511
1.9670427
2.0058832
2.0253979
2.0253988
2.0058858
1.9670471
1.9092571
1.8330732
1.7392299
1.6286321
1.5023461
1.3615892
1.2077184
1.0422167
0.86667918
0.6827975
0.4923434
0.29715179
0.099103004
-0.099895393
-0.29792694
-0.49308472
-0.68348974
-0.86730899
-1.0427731
-1.2081933
-1.3619777
-1.5026466
-1.6288465
-1.7393633
-1.8331339
-1.9092562
-1.9669983
-2.0058046
-2.0253019
-2.1179499
-2.0975628
-2.0569839
-1.9966033
-1.9170018
-1.8189451
-1.7033762
-1.5714071
-1.4243071
-1.2634917
-1.0905083
-0.90702139
-0.71479708
-0.5156856
-0.31160376
-0.10451649
0.1035821
0.31068789
0.51480607
0.71397032
0.90626182
1.0898277
1.2628991
1.4238078
1.571003
1.7030658
1.818723
1.9168595
1.9965291
2.0569636
2.0975803
2.1179875
2.1179884
2.0975831
2.0569682
1.9965354
1.9168675
1.8187326
1.703077
1.5710157
1.4238219
1.2629143
1.0898441
0.9062791
0.71398836
0.51482469
0.3107069
0.1036013
-0.1044973
-0.31158477
-0.51566699
-0.71477906
-0.90700413
-1.0904919
-1.2634765
-1.4242931
-1.5713944
-1.7033651
-1.8189354
-1.9169938
-1.996597
-2.0569793
-2.0975601
-2.117949
-2.2309097
-2.2094357
-2.1666934
-2.1030938
-2.0192485
-1.9159641
-1.7942339
-1.655229
-1.5002866
-1.3308975
-1.1486914
-0.95542199
-0.75294918
-0.54322196
-0.32825932
-0.11013095
0.10906271
0.32721069
0.54221181
0.7519949
0.95453884
1.147892
1.330191
1.499679
1.6547223
1.7938263
1.91565
2.0190189
2.1029363
2.166593
2.2093753
2.2308705
2.2308715
2.2093781
2.1665978
2.1029429
2.0190273
1.9156602
1.7938381
1.6547357
1.4996938
1.3302071
1.1479092
0.95455706
0.75201394
0.54223146
0.32723076
0.10908298
-0.11011069
-0.32823927
-0.54320233
-0.75293018
-0.95540379
-1.1486742
-1.3308814
-1.5002719
-1.6552157
-1.7942222
-1.915954
-2.0192402
-2.1030872
-2.1666887
-2.2094329
-2.2309087
-2.3652661
-2.3424994
-2.2971841
-2.2297558
-2.1408631
-2.031361
-1.9023027
-1.7549296
-1.5906595
-1.411073
-1.2178978
-1.0129932
-0.79833102
-0.57597762
-0.34807356
-0.11681309
0.11557686
0.34685824
0.57480335
0.79721633
1.0119543
1.2169483
1.4102226
1.5899146
1.7542923
1.901771
2.0309291
2.1405212
2.2294908
2.29698
2.342338
2.3651273
2.3651283
2.342341
2.296985
2.2294978
2.1405301
2.0309398
1.9017835
1.7543064
1.5899303
1.4102396
1.2169665
1.0119737
0.79723654
0.57482422
0.34687957
0.11559841
-0.11679155
-0.34805225
-0.57595677
-0.79831083
-1.0129739
-1.2178796
-1.411056
-1.5906439
-1.7549155
-1.9022902
-2.0313503
-2.1408543
-2.2297489
-2.2971791
-2.3424964
-2.3652651
-2.5223095
-2.4980319
-2.4497092
-2.377806
-2.2830139
-2.1662445
-2.0286211
-1.8714673
-1.696295
-1.5047896
-1.2987938
-1.0802897
-0.85138054
-0.61426951
-0.37123931
-0.12462983
0.1231842
0.36981616
0.61289049
0.85006558
1.0790564
1.2976563
1.5037589
1.6953776
1.8706655
2.0279329
2.1656636
2.2825297
2.3774045
2.4493731
2.4977416
2.5220435
2.5220446
2.4977448
2.4493784
2.3774119
2.2825391
2.165675
2.0279461
1.8706805
1.6953942
1.503777
1.2976758
1.079077
0.85008717
0.61291281
0.36983897
0.12320725
-0.12460679
-0.37121651
-0.61424722
-0.85135898
-1.0802691
-1.2987743
-1.5047715
-1.6962784
-1.8714523
-2.0286079
-2.1662332
-2.2830045
-2.3777987
-2.4497039
-2.4980287
-2.5223084
-2.7035477
-2.6775265
-2.6257333
-2.5486662
-2.4470662
-2.3219105
-2.1744029
-2.0059623
-1.8182089
-1.6129492
-1.3921581
-1.1579603
-0.91260988
-0.65846835
-0.39798233
-0.13365979
0.13195397
0.39630089
0.65683477
0.91104579
1.1564847
1.3907865
1.6116933
1.817076
2.0049548
2.1735186
2.3211425
2.4464031
2.5480927
2.6252308
2.6770735
2.7031211
2.7031222
2.6770769
2.6252364
2.5481005
2.4464131
2.3211546
2.1735327
2.0049708
1.8170938
1.6117128
1.3908074
1.1565069
0.91106899
0.65685877
0.39632542
0.13197877
-0.133635
-0.39795781
-0.65844439
-0.91258673
-1.1579382
-1.3921373
-1.6129298
-1.8181912
-2.0059463
-2.1743889
-2.3218985
-2.4470562
-2.5486584
-2.6257277
-2.6775231
-2.7035465
-2.910721
-2.882707
-2.8269471
-2.7439775
-2.634596
-2.4998548
-2.3410495
-2.1597077
-1.9575739
-1.7365927
-1.4988903
-1.2467541
-0.98261066
-0.70900258
-0.42856378
-0.14399436
0.14196542
0.42656155
0.70705276
0.98073693
1.2449772
1.4972274
1.7350565
1.9561723
2.1584435
2.3399201
2.4988527
2.6337089
2.7431884
2.8262356
2.8820497
2.9100926
2.9100938
2.8820533
2.8262416
2.7431967
2.6337195
2.4988656
2.3399352
2.1584607
1.9561914
1.7350774
1.4972499
1.2450011
0.98076197
0.70707868
0.42658808
0.14199225
-0.14396755
-0.42853728
-0.70897669
-0.98258567
-1.2467302
-1.4988678
-1.7365719
-1.9575549
-2.1596907
-2.3410345
-2.4998419
-2.6345854
-2.7439692
-2.8269411
-2.8827034
-2.9107198
-3.1458196
-3.1155442
-3.0552833
-2.9656164
-2.8474056
-2.7017877
-2.5301631
-2.3341826
-2.1157314
-1.876911
-1.6200192
-1.3475281
-1.06206
-0.76636287
-0.46328315
-0.15573896
0.15330821
0.46088196
0.76401967
1.0598011
1.3453763
1.6179935
1.8750255
2.1139948
2.332598
2.5287277
2.7004931
2.8462381
2.9645573
3.0543101
3.1146309
3.144938
3.1449393
3.1146347
3.0543165
2.9645662
2.8462494
2.7005069
2.5287439
2.3326165
2.1140154
1.875048
1.6180178
1.3454021
1.0598282
0.76404781
0.46091077
0.15333736
-0.15570981
-0.46325436
-0.76633477
-1.062033
-1.3475023
-1.619995
-1.8768886
-2.1157109
-2.3341643
-2.530147
-2.7017739
-2.8473943
-2.9656075
-3.055277
-3.1155404
-3.1458183
-3.4111022
-3.3782755
-3.3129365
-3.2157132
-3.0875406
-2.9296512
-2.7435631
-2.5310663
-2.2942046
-2.0352566
-1.7567137
-1.4612563
-1.1517277
-0.8311073
-0.50248155
-0.16901451
0.16608273
0.49958285
0.82827349
1.1489881
1.4586367
1.7542352
2.0329349
2.2920495
2.5290813
2.7417451
2.9279906
3.0860222
3.2143161
3.3116352
3.3770411
3.4099032
3.4099046
3.3770452
3.311642
3.2143256
3.0860344
2.9280054
2.7417624
2.5291011
2.2920717
2.0329593
1.7542616
1.4586648
1.1490177
0.82830416
0.49961429
0.16611455
-0.1689827
-0.50245015
-0.83107668
-1.1516982
-1.4612283
-1.7566875
-2.0352323
-2.2941825
-2.5310466
-2.7435459
-2.9296365
-3.0875286
-3.2157038
-3.3129297
-3.3782715
-3.4111008
-3.7091187
-3.6734264
-3.6023834
-3.4966729
-3.3573109
-3.1856376
-2.9833036
-2.7522549
-2.4947135
-2.213157
-1.9102942
-1.5890392
-1.2524838
-0.9038673
-0.54654567
-0.18395923
0.1804005
0.54302439
0.9004195
1.2491427
1.585834
1.9072487
2.2102891
2.4920343
2.7497681
2.9810058
3.1835181
3.3553522
3.4948513
3.6006703
3.6717888
3.7075211
3.7075225
3.6717932
3.6006775
3.4948614
3.3553652
3.1835339
2.9810245
2.7497894
2.4920582
2.2103155
1.9072773
1.5858646
1.249175
0.90045305
0.54305883
0.18043538
-0.18392437
-0.54651127
-0.9038338
-1.2524516
-1.5890087
-1.9102657
-2.2131307
-2.4946897
-2.7522336
-2.9832851
-3.1856219
-3.3572981
-3.4966628
-3.6023763
-3.6734221
-3.7091173
-4.0427351
-4.0038354
-3.9264084
-3.8111983
-3.6593127
-3.4722116
-3.251694
-2.9998804
-2.7191925
-2.4123304
-2.0822459
-1.7321153
-1.365308
-0.98535436
-0.59591207
-0.20073063
0.19638458
0.59160894
0.98113542
1.3612113
1.7281743
2.078488
2.4087759
2.7158543
2.9967627
3.2487927
3.4695145
3.6567997
3.8088424
3.9241765
4.0016899
4.0406352
4.0406367
4.0016945
3.9241842
3.8088531
3.6568135
3.4695314
3.2488127
2.9967856
2.7158802
2.4088046
2.0785192
1.7282078
1.3612467
0.98117226
0.5916468
0.19642295
-0.20069227
-0.59587425
-0.98531759
-1.3652727
-1.732082
-2.0822149
-2.4123018
-2.7191668
-2.9998575
-3.2516742
-3.4721948
-3.659299
-3.8111877
-3.9264008
-4.0038308
-4.0427335
-4.4151613
-4.3726819
-4.2881298
-4.1623174
-3.9964541
-3.792134
-3.5513215
-3.2763317
-2.9698092
-2.6347021
-2.2742341
-1.8918734
-1.4912994
-1.0763675
-0.65107207
-0.21950765
0.21417003
0.6457842
1.0711773
1.4862509
1.8870053
2.2695783
2.6302823
2.9656399
3.272418
3.5476587
3.7887079
3.9932412
4.1592864
4.2852424
4.3698944
4.4124263
4.4124279
4.3698992
4.2852504
4.1592978
3.9932559
3.7887259
3.5476801
3.2724428
2.9656679
2.6303134
2.2696123
1.8870419
1.4862897
1.0712179
0.64582599
0.21421242
-0.21946527
-0.65103033
-1.076327
-1.4912606
-1.8918369
-2.2742002
-2.6346712
-2.9697814
-3.2763071
-3.5513002
-3.7921162
-3.9964396
-4.1623062
-4.2881218
-4.3726771
-4.4151597
-4.8299831
-4.7835176
-4.6910312
-4.5534127
-4.3719843
-4.1484897
-3.8850768
-3.5842781
-3.2489859
-2.8824246
-2.4881202
-2.0698664
-1.6316878
-1.1778016
-0.71257701
-0.24049293
0.23390474
0.70604707
1.171386
1.6254383
2.0638283
2.4823308
2.8769116
3.2437664
3.5793581
3.8804506
4.1441404
4.3678848
4.549526
4.6873125
4.7799155
4.8264422
4.8264439
4.7799206
4.687321
4.549538
4.3679003
4.1441596
3.8804734
3.5793846
3.2437966
2.8769454
2.482368
2.0638685
1.6254811
1.1714309
0.70609336
0.23395175
-0.24044593
-0.71253077
-1.1777569
-1.6316451
-2.0698264
-2.4880832
-2.882391
-3.2489558
-3.5842518
-3.8850542
-4.1484707
-4.371969
-4.5534009
-4.6910229
-4.7835126
-4.8299815
-5.2911971
-5.2403009
-5.1389956
-4.9882543
-4.789525
-4.5447169
-4.2561827
-3.9266956
-3.5594234
-3.1578976
-2.7259804
-2.267827
-1.7878457
-1.2906559
-0.78104356
-0.26391484
0.25575069
0.77294818
1.2826956
1.7800815
2.2603126
2.7187599
3.1510036
3.5528761
3.920502
4.2503361
4.5391974
4.7843001
4.9832806
5.13422
5.2356628
5.2866307
5.2866325
5.235668
5.1342288
4.9832931
4.7843164
4.5392176
4.2503603
3.9205304
3.5529087
3.1510403
2.7188005
2.2603568
1.7801288
1.2827453
0.77299968
0.25580305
-0.2638625
-0.78099213
-1.2906063
-1.7877985
-2.2677829
-2.72594
-3.1578611
-3.559391
-3.9266675
-4.2561587
-4.544697
-4.7895089
-4.988242
-5.1389869
-5.2402957
-5.2911954
-5.8032496
-5.747436
-5.6363429
-5.4710369
-5.2531054
-4.9846416
-4.6682247
-4.3068954
-3.9041268
-3.4637917
-2.9901249
-2.487683
-1.9613005
-1.416043
-0.85715894
-0.29002886
0.27988635
0.847098
1.4061423
1.9516327
2.4783119
2.9811027
3.4551574
3.8959042
4.2990926
4.6608339
4.977639
5.2464525
5.4646818
5.6302226
5.7414785
5.7973768
5.7973786
5.7414839
5.6302316
5.4646947
5.2464694
4.9776601
4.6608595
4.2991229
3.8959393
3.4551972
2.9811472
2.4783606
1.9516851
1.4061977
0.84715551
0.27994493
-0.28997031
-0.85710151
-1.4159877
-1.9612483
-2.4876346
-2.9900807
-3.4637521
-3.9040921
-4.3068654
-4.6681994
-4.9846208
-5.2530888
-5.4710242
-5.6363339
-5.7474307
-5.8032478
-6.3710795
-6.3098147
-6.1878714
-6.0064196
-5.7672013
-5.472513
-5.1251852
-4.7285546
-4.2864334
-3.8030719
-3.2831185
-2.7315748
-2.1537476
-1.5551973
-0.94168521
-0.31911775
0.30651061
0.92917482
1.5428771
2.1417041
2.7198841
3.2718427
3.7922571
4.276108
4.7187282
5.1158481
5.4636371
5.7587407
5.9983127
6.1800431
6.3021794
6.3635443
6.3635461
6.3021848
6.1800522
5.9983258
5.758758
5.463659
5.1158749
4.7187602
4.2761455
3.7923002
3.2718913
2.7199379
2.1417624
1.542939
0.92923935
0.30657645
-0.31905193
-0.94162077
-1.5551355
-2.1536895
-2.7315214
-3.2830702
-3.8030291
-4.2863962
-4.728523
-5.1251587
-5.4724915
-5.7671842
-6.0064068
-6.1878624
-6.3098094
-6.3710777
-7.0001648
-6.932863
-6.7989031
-6.5995699
-6.3367758
-6.0130428
-5.6314792
-5.1957497
-4.7100414
-4.1790233
-3.6078017
-3.0018713
-2.3670619
-1.7094823
-1.0354617
-0.35148937
0.3358494
1.0199358
1.6941808
2.3520878
2.9873148
3.5937365
4.1655038
4.6971011
5.1833997
5.619708
6.001817
6.326041
6.5892532
6.7889156
6.9231034
6.990523
6.9905248
6.9231087
6.7889247
6.5892663
6.3260585
6.0018393
5.6197356
5.1834332
4.6971409
4.1655503
3.5937896
2.9873742
2.3521527
1.6942503
1.0200086
0.33592383
-0.35141498
-1.035389
-1.7094129
-2.3669972
-3.0018122
-3.6077489
-4.1789772
-4.710002
-5.1957166
-5.631452
-6.0130209
-6.3367587
-6.5995571
-6.7988942
-6.9328578
-7.0001631
-7.6965727
-7.6225899
-7.4753317
-7.2562095
-6.9673243
-6.611447
-6.1919931
-5.7129904
-5.1790408
-4.5952766
-3.9673113
-3.3011857
-2.6033089
-1.880396
-1.139405
-0.38747147
0.36816597
1.120232
1.8614839
2.5847797
3.283146
3.9498472
4.5784514
5.1628935
5.6975339
6.1772139
6.5973057
6.9537573
7.2431315
7.4626385
7.6101628
7.6842828
7.6842845
7.6101679
7.4626473
7.2431442
6.9537745
6.5973279
6.1772419
5.6975686
5.1629355
4.5785013
3.9499051
3.2832117
2.5848523
1.8615623
1.1203145
0.3682506
-0.38738688
-1.1393226
-1.8803178
-2.6032365
-3.3011204
-3.9672538
-4.5952272
-5.1789993
-5.7129563
-6.1919656
-6.6114253
-6.9673076
-7.2561972
-7.4753233
-7.6225849
-7.696571
-8.4670127
-8.3856408
-8.2236744
-7.9826648
-7.664921
-7.2734891
-6.8121243
-6.2852554
-5.6979435
-5.0558336
-4.3651007
-3.6323903
-2.8647537
-2.0695774
-1.2545104
-0.42740472
0.40377467
1.2310275
2.0463905
2.8420096
3.6102114
4.343584
5.0350511
5.6779394
6.2660444
6.7936908
7.2557878
7.6478787
7.9661834
8.2076344
8.3699057
8.4514347
8.4514362
8.3699105
8.2076425
7.9661952
7.6478948
7.2558091
6.7937184
6.2660796
5.6779832
5.0351043
4.343647
3.6102841
2.8420912
2.0464795
1.2311216
0.40387158
-0.42730785
-1.2544163
-2.0694887
-2.8646724
-3.632318
-4.3650382
-5.055781
-5.6979003
-6.2852209
-6.8120972
-7.2734683
-7.6649053
-7.9826534
-8.2236667
-8.3856362
-8.4670112
-9.3188935
-9.2293527
-9.0511259
-8.7859182
-8.4362684
-8.0055263
-7.4978223
-6.9180287
-6.2717145
-5.5650922
-4.8049581
-3.9986269
-3.1538598
-2.2787908
-1.3818399
-0.47163385
0.44305804
1.3534272
2.2507126
3.1262785
3.9716781
4.7787492
5.5397023
6.2471924
6.8943904
7.4750501
7.9835696
8.4150457
8.7653201
9.0310193
9.2095856
9.2993009
9.2993023
9.2095897
9.0310263
8.7653304
8.41506
7.9835892
7.4750763
6.894425
6.2472371
5.5397584
4.7788175
3.9717588
3.1263704
2.2508141
1.3535355
0.44316988
-0.47152206
-1.3817318
-2.2786896
-3.1537682
-3.9985467
-4.8048903
-5.5650367
-6.2716706
-6.9179948
-7.4977968
-8.0055075
-8.4362546
-8.7859084
-9.0511193
-9.2293488
-9.3188922
-10.260382
-10.161814
-9.9656158
-9.6736635
-9.2887489
-8.8145568
-8.2556322
-7.6173376
-6.9058038
-6.1278713
-5.2910246
-4.4033194
-3.4733038
-2.5099343
-1.5224884
-0.52045914
0.48651134
1.4887227
2.4765246
3.4404128
4.3710984
5.2595919
6.0973113
6.876168
7.5886428
8.2278592
8.7876516
9.2626245
9.6482037
9.940679
10.137238
10.235993
10.235994
10.137241
9.9406845
9.6482117
9.2626359
8.7876678
8.2278824
7.5886753
6.8762124
6.0973697
5.2596657
4.3711879
3.4405169
2.4766411
1.4888482
0.48664156
-0.52032897
-1.522363
-2.509818
-3.4732001
-4.4032305
-5.2909515
-6.1278138
-6.9057603
-7.617306
-8.25561
-8.8145414
-9.2887382
-9.673656
-9.9656107
-10.161811
-10.260381
-11.300474
-11.19193
-10.975875
-10.654369
-10.230485
-9.7082761
-9.0927453
-8.389797
-7.6061839
-6.749442
-5.827818
-4.8501897
-3.8259765
-2.7650481
-1.6776255
-0.57417372
0.5347058
1.6383544
2.726146
3.787592
4.8124622
5.7908677
6.7133561
7.5710138
8.3555589
9.0594197
9.6758092
10.198791
10.623333
10.945356
11.16177
11.270498
11.270499
11.161772
10.94536
10.623338
10.198798
9.6758202
9.0594375
8.3555871
7.571056
6.7134155
5.7909467
4.8125614
3.7877104
2.7262809
1.6385012
0.53485893
-0.57402064
-1.6774788
-2.7649135
-3.8258585
-4.8500911
-5.8277398
-6.7493836
-7.6061428
-8.38977
-9.0927286
-9.7082661
-10.230479
-10.654365
-10.975872
-11.191928
-11.300473
-12.44909
-12.329526
-12.091533
-11.737374
-11.270431
-10.695162
-10.017078
-9.242681
-8.3794128
-7.4355801
-6.4202739
-5.3432855
-4.2150014
-3.0463047
-1.8484638
-0.63300461
0.58840275
1.8040337
3.0022047
4.1713679
5.3002336
6.3779031
7.3939647
8.3385965
9.2026768
9.9778674
10.656698
11.232638
11.700154
12.054763
12.29307
12.412796
12.412796
12.293071
12.054764
11.700154
11.232639
10.656701
9.9778767
9.2026971
8.3386335
7.3940231
6.3779866
5.3003437
4.1715033
3.0023623
1.8042072
0.58858482
-0.63282259
-1.8482905
-3.0461474
-4.2148663
-5.3431761
-6.4201913
-7.4355228
-8.3793771
-9.2426621
-10.01707
-10.69516
-11.270431
-11.737374
-12.091532
-12.329526
-12.449089
-13.717181
-13.58545
-13.323222
-12.93299
-12.41847
-11.784572
-11.037365
-10.18401
-9.2327144
-8.192639
-7.0738098
-5.8870346
-4.6437728
-3.3560345
-2.0362548
-0.69712876
0.64850302
1.9877417
3.3077394
4.5957901
5.8394394
7.0266642
8.1459881
9.1865825
10.138403
10.992268
11.739954
12.374282
12.889168
13.279693
13.542127
13.673971
13.673972
13.542128
13.279692
12.889164
12.374274
11.739945
10.992264
10.138411
9.1866099
8.1460421
7.0267509
5.8395613
4.5959458
3.3079254
1.9879489
0.64872217
-0.69690966
-2.0360475
-3.3558488
-4.6436174
-5.8869133
-7.073724
-8.1925862
-9.2326886
-10.184005
-11.03737
-11.784582
-12.418479
-12.932995
-13.323223
-13.585449
-13.71718
-15.116498
-14.971337
-14.682349
-14.252278
-13.685214
-12.986551
-12.162982
-11.222395
-10.173842
-9.0274359
-7.7942329
-6.4861773
-5.115917
-3.6967178
-2.242325
-0.76672501
0.71597092
2.1915857
3.6460021
5.0652344
6.4355258
7.743611
8.9768388
10.123261
11.171823
12.112412
12.935979
13.63464
14.201705
14.631782
14.920783
15.06597
15.065971
14.920784
14.63178
14.201695
13.634621
12.935954
12.112388
11.17181
10.123272
8.9768833
7.7436985
6.4356607
5.0654144
3.6462242
2.1918361
0.71623818
-0.76645781
-2.2420744
-3.6964958
-5.1157369
-6.486043
-7.7941462
-9.0273927
-10.173833
-11.22241
-12.163008
-12.986578
-13.685234
-14.252288
-14.682352
-14.971336
-15.116497
-16.659087
-16.499071
-16.180547
-15.706516
-15.081466
-14.311319
-13.403458
-12.366568
-11.210642
-9.9468459
-8.5873738
-7.1454422
-5.6350149
-4.0707602
-2.4679156
-0.84190607
0.79180227
2.4176754
4.0202378
5.5840836
7.0939717
8.5352603
9.8940066
11.157012
12.312127
13.348206
14.255298
15.024754
15.649218
16.122797
16.441008
16.600866
16.600868
16.441013
16.122795
15.649203
15.024722
14.25525
13.348155
12.312083
11.156998
9.8940339
8.5353449
7.0941206
5.5842928
4.0205064
2.4179815
0.79213245
-0.84157599
-2.467609
-4.0704916
-5.6348052
-7.1452938
-8.5872901
-9.94682
-11.210658
-12.366615
-13.403513
-14.311369
-15.081501
-15.706531
-16.180549
-16.499067
-16.659085
-18.36186
-18.185447
-17.834305
-17.311681
-16.622527
-15.773307
-14.77222
-13.62879
-12.354078
-10.960444
-9.4612873
-7.8713161
-6.2059167
-4.4813217
-2.7145803
-0.92278106
0.87726278
2.6686968
4.4346666
6.1581621
7.822111
9.4103682
10.907613
12.299167
13.571769
14.713095
15.712193
16.559632
17.247268
17.768725
18.11907
18.295064
18.29507
18.119084
17.768731
17.247251
16.559583
15.712111
14.713004
13.571675
12.299116
10.907609
9.4104431
7.8222763
6.1584035
4.4349997
2.669073
0.87767782
-0.92236668
-2.7142021
-4.4809892
-6.2056729
-7.8711518
-9.4612128
-10.960449
-12.354133
-13.628886
-14.772317
-15.77339
-16.622579
-17.311698
-17.8343
-18.185432
-18.361854
-19.280505
-19.104699
-18.754111
-18.230823
-17.538408
-16.681021
-15.665053
-14.497201
-13.186247
-11.742272
-10.176003
-8.5008358
-6.7303797
-4.8798149
-2.966778
-1.0088355
0.97428904
2.950403
4.898916
6.8012247
8.637335
10.389713
12.041871
13.576756
14.980569
16.239317
17.340877
18.275338
19.033193
19.607993
19.994049
20.187986
20.188003
19.994089
19.60802
19.033186
18.275274
17.340736
16.23918
14.980372
13.576663
12.041801
10.389765
8.6375338
6.8014791
4.8993705
2.9508529
0.97483432
-1.0082987
-2.9663228
-4.8793782
-6.7301191
-8.5006526
-10.175953
-11.742341
-13.186351
-14.497386
-15.665201
-16.681155
-17.538478
-18.230832
-18.754086
-19.104662
-19.280488
20.162731
19.969109
19.583597
19.009529
18.252677
17.319295
16.219184
14.961945
13.559957
12.027073
10.377011
8.6269935
6.7932289
4.8934081
2.9473556
0.97377459
-1.0070106
-2.9625997
-4.8731874
-6.7216343
-8.4898728
-10.162991
-11.727384
-13.16948
-14.478819
-15.645119
-16.659737
-17.515992
-18.207465
-18.730103
-19.080261
-19.255898
-19.255907
-19.080306
-18.730121
-18.207463
-17.515921
-16.659606
-15.644975
-14.478632
-13.169379
-11.727315
-10.163036
-8.4900632
-6.7218808
-4.8736377
-2.963041
-1.0075572
0.97323279
2.9469049
4.8929484
6.7929772
8.6267926
10.376959
12.027148
13.560052
14.962149
16.21933
17.319433
18.252755
19.009523
19.58358
19.969054
20.162723
18.269564
18.09385
17.744028
17.223319
16.536663
15.690396
14.692711
13.552981
12.282193
10.892633
9.3975295
7.811569
6.1499994
4.4289624
2.6654803
0.87654924
-0.9210419
-2.7104151
-4.4747595
-6.1970792
-7.8602627
-9.448136
-10.945326
-12.337103
-13.610129
-14.75202
-15.751755
-16.599831
-17.288059
-17.81
-18.160698
-18.336904
-18.336911
-18.160712
-17.810006
-17.288042
-16.599781
-15.751673
-14.751926
-13.610034
-12.33705
-10.945321
-9.4482098
-7.8604274
-6.1973201
-4.4750937
-2.7107906
-0.92145791
0.87613438
2.6651037
4.4286278
6.1497584
7.8114036
9.3974554
10.892639
12.282247
13.553079
14.692807
15.690479
16.536715
17.223334
17.744024
18.093833
18.269559
16.574864
16.415276
16.097584
15.624766
15.001296
14.233055
13.327399
12.292961
11.139689
9.8787025
8.5221321
7.0831547
5.5756764
4.0143172
2.4142803
0.79094942
-0.84023466
-2.4637521
-4.0641518
-5.6260462
-7.1341983
-8.5739675
-9.9314045
-11.193301
-12.34749
-13.382811
-14.289296
-15.058275
-15.682381
-16.155706
-16.473764
-16.633552
-16.633554
-16.473768
-16.155705
-15.682366
-15.058242
-14.289247
-13.382758
-12.347444
-11.193285
-9.9314303
-8.5740509
-7.1343465
-5.6262549
-4.0644204
-2.464058
-0.84056502
0.79061928
2.4139739
4.0140484
5.5754673
7.0830063
8.5220485
9.8786768
11.139705
12.293008
13.327454
14.233105
15.00133
15.624781
16.097586
16.41527
16.574862
15.039208
14.89429
14.605818
14.17652
13.610477
12.91307
12.090982
11.152084
10.105413
8.9610599
7.7300596
6.4243358
5.05651
3.6398226
2.1879976
0.7149963
-0.76509381
-2.2381171
-3.6899824
-5.1067315
-6.4746329
-7.7804437
-9.0115336
-10.155974
-11.202727
-12.141695
-12.963846
-13.661305
-14.227395
-14.656732
-14.945231
-15.090149
-15.09015
-14.945232
-14.65673
-14.227385
-13.661285
-12.96382
-12.14167
-11.202712
-10.155983
-9.0115768
-7.7805302
-6.474767
-5.1069111
-3.6902042
-2.2383673
-0.76536097
0.71472917
2.1877471
3.6396006
5.0563302
6.4242015
7.7299729
8.9610166
10.105403
11.152099
12.091008
12.913097
13.610496
14.17653
14.60582
14.894288
15.039207
13.646186
13.514617
13.252727
12.863009
12.349182
11.716157
10.970007
10.117896
9.1680333
8.1295796
7.012558
5.8277725
4.586672
3.3012529
1.9839401
0.64741285
-0.69550909
-2.0319515
-3.3490974
-4.6342771
-5.8750757
-7.0595053
-8.1761265
-9.2141495
-10.163568
-11.015237
-11.760968
-12.393614
-12.907118
-13.296584
-13.558299
-13.689773
-13.689774
-13.558299
-13.296582
-12.907114
-12.393606
-11.760959
-11.015232
-10.163574
-9.2141755
-8.1761794
-7.059591
-5.8751968
-4.6344323
-3.3492829
-2.0321584
-0.69572801
0.64719391
1.983733
3.3010672
4.5865166
5.8276512
7.0124722
8.1295267
9.1680073
10.117891
10.970012
11.716167
12.349191
12.863014
13.252728
13.514616
13.646186
12.383717
12.264277
12.026537
11.67277
11.206361
10.631784
9.9545595
9.1812022
8.3191658
7.3767678
6.3631075
5.2879817
4.1617749
2.9953584
1.799993
0.58719849
-0.63136993
-1.8440145
-3.0390908
-4.205099
-5.330794
-6.4053159
-7.4183001
-8.3599756
-9.2212716
-9.993899
-10.670434
-11.244389
-11.710267
-12.063619
-12.301072
-12.420365
-12.420365
-12.301073
-12.06362
-11.710267
-11.244389
-10.670436
-9.9939072
-9.2212907
-8.3600115
-7.4183574
-6.4053985
-5.3309032
-4.2052338
-3.0392479
-1.8441876
-0.6315517
0.5870167
1.7998198
2.9952012
4.1616399
5.2878723
6.3630248
7.3767104
8.3191299
9.1811831
9.9545514
10.631782
11.206361
11.672769
12.026536
12.264276
12.383716
11.239844
11.131417
10.9156
10.594462
10.171086
9.6495394
9.0348404
8.3329092
7.5505143
6.6952058
5.7752421
4.7995111
3.7774376
2.7188818
1.6340446
0.53338524
-0.57249958
-1.6729797
-2.7574816
-3.8155676
-4.8370425
-5.8120614
-6.7312287
-7.5856887
-8.3672159
-9.0682936
-9.682187
-10.203008
-10.625766
-10.946418
-11.161901
-11.270159
-11.27016
-11.161903
-10.946421
-10.62577
-10.203014
-9.6821972
-9.0683105
-8.367243
-7.5857299
-6.7312872
-5.8121395
-4.8371409
-3.8156854
-2.7576159
-1.6731261
-0.57265236
0.53323243
1.6338981
2.7187473
3.7773197
4.7994125
5.7751639
6.6951473
7.550473
8.3328821
9.0348235
9.6495292
10.17108
10.594458
10.915596
11.131415
11.239844
10.20347
10.105034
9.9091067
9.6175696
9.233226
8.7597738
8.2017726
7.5646005
6.8544031
6.0780342
5.2429883
4.3573269
3.4296038
2.4687784
1.4841089
0.48506861
-0.51872286
-1.5175957
-2.5019376
-3.4622845
-4.3893875
-5.2743165
-6.1085492
-6.8840538
-7.5933685
-8.2296735
-8.7868567
-9.2595722
-9.6432891
-9.934334
-10.129923
-10.228187
-10.228188
-10.129926
-9.9343391
-9.6432966
-9.259583
-8.7868722
-8.2296958
-7.5934001
-6.8840973
-6.1086067
-5.2743894
-4.3894761
-3.462388
-2.5020536
-1.5177207
-0.5188527
0.48493875
1.4839838
2.4686623
3.4295002
4.3572381
5.2429152
6.0779766
6.8543595
7.5645688
8.2017503
8.7597582
9.2332152
9.617562
9.9091015
10.105031
10.203469
9.2645982
9.1752224
8.9973291
8.7326298
8.3836722
7.953817
7.4472065
6.8687254
6.2239541
5.5191147
4.7610102
3.9569571
3.1147147
2.2424143
1.3484699
0.44148456
-0.46981349
-1.3766484
-2.2702829
-3.1421214
-3.9837741
-4.7871366
-5.5444749
-6.2485006
-6.8924414
-7.4701072
-7.9759491
-8.4051122
-8.7534812
-9.0177184
-9.195294
-9.2845089
-9.2845102
-9.1952979
-9.0177251
-8.753491
-8.405126
-7.9759679
-7.4701327
-6.8924752
-6.2485445
-5.5445303
-4.7872042
-3.9838541
-3.1422127
-2.2703838
-1.3767562
-0.46992492
0.44137311
1.348362
2.2423133
3.1146233
3.9568771
4.7609424
5.5190593
6.2239101
6.8686915
7.447181
7.9537981
8.3836584
8.7326199
8.9973224
9.1752185
9.2645969
8.41422
8.3330548
8.1715044
7.9311244
7.6142303
7.2238757
6.7638238
6.2385111
5.6530055
5.0129567
4.3245411
3.5944018
2.8295832
2.0374639
1.2256828
0.4020591
-0.42547916
-1.2489667
-2.0604733
-2.8521806
-3.6164722
-4.3459934
-5.0337225
-5.6730423
-6.257804
-6.7823866
-7.2417505
-7.6314858
-7.9478534
-8.1878201
-8.3490866
-8.4301084
-8.4301099
-8.3490911
-8.1878279
-7.9478648
-7.6315014
-7.2417713
-6.7824136
-6.2578384
-5.6730853
-5.0337749
-4.3460557
-3.6165443
-2.8522616
-2.0605616
-1.2490604
-0.42557564
0.40196261
1.2255891
2.0373755
2.8295022
3.5943297
4.3244787
5.0129041
5.6529625
6.2384766
6.7637967
7.2238549
7.6142146
7.931113
8.1714966
8.3330502
8.4142185
7.6442007
7.5704721
7.4237235
7.2053689
6.9175125
6.5629292
6.1450379
5.667869
5.1360258
4.5546393
3.929319
3.2660978
2.5713734
1.8518457
1.1144512
0.36629442
-0.3854198
-1.1334539
-1.8706066
-2.5897789
-3.2840482
-3.9467338
-4.5714587
-5.1522128
-5.6834111
-6.159947
-6.577242
-6.9312886
-7.2186889
-7.4366857
-7.5831887
-7.6567937
-7.6567953
-7.5831937
-7.4366942
-7.2187012
-6.9313053
-6.5772636
-6.1599744
-5.6834451
-5.1522542
-4.5715079
-3.946791
-3.2841133
-2.589851
-1.8706845
-1.1335359
-0.38550398
0.36621024
1.1143691
1.8517677
2.5713013
3.2660327
3.9292617
4.55459
5.1359843
5.667835
6.1450104
6.5629075
6.9174958
7.2053565
7.423715
7.5704671
7.6441991
6.9471909
6.8801939
6.7468439
6.5484261
6.2868533
5.9646473
5.5849153
5.1513196
4.6680426