/*--------------------------------*- C++ -*----------------------------------*\
| =========                 |                                                 |
| \\      /  F ield         | OpenFOAM: The Open Source CFD Toolbox           |
|  \\    /   O peration     | Version:  2106                                  |
|   \\  /    A nd           | Website:  www.openfoam.com                      |
|    \\/     M anipulation  |                                                 |
\*---------------------------------------------------------------------------*/
FoamFile
{
    version     2.0;
    format      ascii;
    arch        "LSB;label=32;scalar=64";
    class       surfaceScalarField;
    location    "0.044";
    object      phi;
}
// * * * * * * * * * * * * * * * * * * * * * * * * * * * * * * * * * * * * * //

dimensions      [0 3 -1 0 0 0 0];

oriented        oriented;

internalField   nonuniform List<scalar> 
8064
(
4.0397513e-05
-4.0401197e-05
8.0411702e-05
-4.0014189e-05
0.00011965549
-3.9243786e-05
0.00015775274
-3.8097254e-05
0.00019433816
-3.6585416e-05
0.0002290607
-3.4722547e-05
0.00026158696
-3.2526257e-05
0.00029160429
-3.0017329e-05
0.00031882382
-2.721953e-05
0.00034298323
-2.4159405e-05
0.00036384925
-2.0866028e-05
0.00038122
-1.7370744e-05
0.00039492687
-1.3706876e-05
0.00040483629
-9.9094198e-06
0.00041085101
-6.0147189e-06
0.00041291114
-2.060127e-06
0.00041099479
1.9163445e-06
0.00040511838
5.8764167e-06
0.00039533641
9.7819668e-06
0.00038174131
1.3595099e-05
0.0003644624
1.7278914e-05
0.00034366474
2.0797657e-05
0.00031954764
2.4117102e-05
0.00029234273
2.7204905e-05
0.0002623118
3.0030928e-05
0.00022974426
3.2567545e-05
0.00019495434
3.4789923e-05
0.00015827806
3.667628e-05
0.00012006995
3.8208107e-05
8.0699591e-05
3.9370359e-05
4.0547977e-05
4.0151615e-05
3.7857902e-09
4.0544191e-05
-4.0540441e-05
4.0544227e-05
-8.0692163e-05
4.0151722e-05
-0.0001200627
3.9370538e-05
-0.00015827105
3.8208354e-05
-0.00019494765
3.6676594e-05
-0.00022973795
3.47903e-05
-0.00026230593
3.2567981e-05
-0.00029233735
3.003142e-05
-0.0003195428
2.7205448e-05
-0.00034366049
2.4117691e-05
-0.00036445877
2.0798285e-05
-0.00038173835
1.7279576e-05
-0.00039533414
1.3595788e-05
-0.00040511682
9.7826771e-06
-0.00041099396
5.877141e-06
-0.00041291103
1.9170759e-06
-0.00041085164
-2.0593955e-06
-0.00040483764
-6.0139944e-06
-0.00039492893
-9.9087092e-06
-0.00038122275
-1.3706186e-05
-0.00036385267
-1.7370081e-05
-0.00034298727
-2.0865399e-05
-0.00031882845
-2.4158815e-05
-0.00029160947
-2.7218986e-05
-0.00026159263
-3.0016836e-05
-0.00022906681
-3.252582e-05
-0.00019434464
-3.4722169e-05
-0.00015775954
-3.6585101e-05
-0.00011966253
-3.8097007e-05
-8.0418926e-05
-3.9243607e-05
-4.0404845e-05
-4.0014081e-05
-4.0401161e-05
4.1008911e-05
-8.1413842e-05
8.1628699e-05
-8.0633977e-05
0.00012146644
-7.9081527e-05
0.00016014032
-7.6771136e-05
0.00019727951
-7.3724608e-05
0.00023252768
-6.9970714e-05
0.00026554636
-6.5544936e-05
0.00029601818
-6.048915e-05
0.00032364991
-5.4851255e-05
0.00034817524
-4.8684735e-05
0.00036935739
-4.204818e-05
0.00038699139
-3.5004749e-05
0.00040090611
-2.7621592e-05
0.00041096592
-1.9969229e-05
0.0004170721
-1.2120895e-05
0.00041916382
-4.1518532e-06
0.00041721885
3.8613148e-06
0.00041125379
1.1841475e-05
0.0004013241
1.971166e-05
0.00038752349
2.7395708e-05
0.00036998322
3.4819181e-05
0.00034887086
4.1910019e-05
0.00032438871
4.8599254e-05
0.00029677191
5.4821704e-05
0.0002662862
6.0516634e-05
0.00023322538
6.562837e-05
0.00019790844
7.0106867e-05
0.00016067649
7.3908226e-05
0.00012188945
7.6995144e-05
8.192251e-05
7.9337303e-05
4.1162443e-05
8.0911682e-05
3.8355601e-09
8.1702798e-05
-4.1154808e-05
8.1702871e-05
-8.1914984e-05
8.0911898e-05
-0.00012188211
7.9337662e-05
-0.0001606694
7.6995642e-05
-0.00019790166
7.3908857e-05
-0.00023321899
7.0107626e-05
-0.00026628025
6.5629249e-05
-0.00029676646
6.0517625e-05
-0.00032438381
5.4822798e-05
-0.00034886656
4.8600439e-05
-0.00036997955
4.1911284e-05
-0.00038752049
3.4820514e-05
-0.0004013218
2.7397096e-05
-0.00041125221
1.971309e-05
-0.000417218
1.1842933e-05
-0.00041916372
3.8627872e-06
-0.00041707273
-4.1503806e-06
-0.00041096729
-1.2119436e-05
-0.0004009082
-1.9967798e-05
-0.00038699418
-2.7620203e-05
-0.00036936085
-3.5003415e-05
-0.00034817934
-4.2046914e-05
-0.0003236546
-4.8683549e-05
-0.00029602343
-5.485016e-05
-0.00026555211
-6.0488158e-05
-0.00023253387
-6.5544055e-05
-0.00019728609
-6.9969954e-05
-0.00016014721
-7.3723976e-05
-0.00012147358
-7.6770638e-05
-8.163602e-05
-7.9081167e-05
-4.1016342e-05
-8.0633759e-05
-8.1413769e-05
4.2036723e-05
-0.00012345438
8.3674546e-05
-0.0001222718
0.0001245107
-0.00011991768
0.00016415379
-0.00011641423
0.00020222369
-0.00011179451
0.00023835513
-0.00010610215
0.00027220116
-9.9390966e-05
0.00030343646
-9.1724451e-05
0.00033176045
-8.3175243e-05
0.00035690016
-7.3824447e-05
0.00037861289
-6.3760907e-05
0.00039668854
-5.30804e-05
0.0004109517
-4.1884748e-05
0.00042126336
-3.0280886e-05
0.00042752232
-1.8379863e-05
0.00042966627
-6.2957996e-06
0.00042767239
5.8551897e-06
0.00042155774
1.7956125e-05
0.00041137915
2.9890257e-05
0.00039723269
4.1542167e-05
0.00037925291
5.2798964e-05
0.00035761155
6.3551371e-05
0.000332516
7.3694806e-05
0.00030420728
8.3130427e-05
0.00027295778
9.1766134e-05
0.00023906865
9.9517502e-05
0.00020286687
0.00010630864
0.00016470211
0.00011207298
0.0001249433
0.00011675396
8.3975012e-05
0.00012030559
4.2193728e-05
0.00012269297
3.9178426e-09
0.00012389261
-4.218593e-05
0.00012389272
-8.3967325e-05
0.00012269329
-0.0001249358
0.00012030613
-0.00016469487
0.00011675471
-0.00020285995
0.00011207394
-0.00023906212
0.00010630979
-0.0002729517
9.9518833e-05
-0.00030420171
9.1767635e-05
-0.00033251099
8.3132082e-05
-0.00035760715
7.36966e-05
-0.00037924916
6.3553287e-05
-0.00039722963
5.2800982e-05
-0.0004113768
4.1544268e-05
-0.00042155613
2.9892422e-05
-0.00042767153
1.7958333e-05
-0.00042966616
5.8574191e-06
-0.00042752297
-6.2935699e-06
-0.00042126475
-1.8377654e-05
-0.00041095383
-3.027872e-05
-0.00039669139
-4.1882644e-05
-0.00037861643
-5.3078379e-05
-0.00035690435
-6.375899e-05
-0.00033176525
-7.382265e-05
-0.00030344182
-8.3173585e-05
-0.00027220703
-9.1722948e-05
-0.00023836146
-9.9389632e-05
-0.00020223041
-0.000106101
-0.00016416083
-0.00011179355
-0.000124518
-0.00011641347
-8.3682027e-05
-0.00011991714
-4.2044316e-05
-0.00012227147
-0.00012345427
4.3488718e-05
-0.00016694703
8.656471e-05
-0.00016534779
0.00012881128
-0.00016216425
0.00016982349
-0.00015742644
0.00020920806
-0.00015117908
0.00024658709
-0.00014348118
0.00028160165
-0.00013440552
0.00031391517
-0.00012403797
0.0003432167
-0.00011247678
0.00036922387
-9.9831619e-05
0.00039168562
-8.6222653e-05
0.00041038462
-7.1779401e-05
0.00042513943
-5.6639561e-05
0.00043580629
-4.0947742e-05
0.00044228054
-2.4854112e-05
0.00044449773
-8.5129907e-06
0.00044243431
7.9186107e-06
0.00043610794
2.4282493e-05
0.00042557743
4.0420772e-05
0.00041094219
5.6177403e-05
0.00039234142
7.1399729e-05
0.00036995282
8.5939978e-05
0.0003439909
9.9656725e-05
0.00031470501
0.00011241631
0.00028237695
0.0001240942
0.00024731823
0.00013457622
0.00020986713
0.00014375974
0.00017038537
0.00015155475
0.00012925458
0.00015788474
8.6872623e-05
0.00016268755
4.3649635e-05
0.00016591595
4.034018e-09
0.00016753821
-4.3641605e-05
0.00016753836
-8.6864708e-05
0.0001659164
-0.00012924686
0.00016268828
-0.00017037791
0.00015788576
-0.00020986
0.00015155604
-0.00024731151
0.00014376129
-0.00028237069
0.00013457801
-0.00031469928
0.00012409623
-0.00034398574
0.00011241855
-0.00036994829
9.9659146e-05
-0.00039233757
8.5942563e-05
-0.00041093904
7.1402453e-05
-0.00042557501
5.618024e-05
-0.00043610628
4.0423694e-05
-0.00044243342
2.4285472e-05
-0.00044449762
7.9216197e-06
-0.00044228121
-8.5099813e-06
-0.00043580773
-2.4851131e-05
-0.00042514163
-4.0944818e-05
-0.00041038756
-5.6636722e-05
-0.00039168926
-7.1776674e-05
-0.00036922819
-8.6220065e-05
-0.00034322164
-9.9829194e-05
-0.00031392069
-0.00011247454
-0.00028160769
-0.00012403594
-0.00024659361
-0.00013440372
-0.00020921498
-0.00014347963
-0.00016983074
-0.00015117779
-0.0001288188
-0.00015742542
-8.6572417e-05
-0.00016216351
-4.3496541e-05
-0.00016534735
-0.00016694688
4.5382311e-05
-0.00021233342
9.0333849e-05
-0.00021029933
0.00013441975
-0.00020625015
0.00017721739
-0.00020022409
0.00021831634
-0.00019227803
0.00025732222
-0.00018248706
0.00029386044
-0.00017094374
0.00032757981
-0.00015775734
0.00035815585
-0.00014305281
0.00038529391
-0.00012696968
0.00040873205
-0.00010966079
0.00042824353
-9.1290878e-05
0.00044363906
-7.2035095e-05
0.00045476868
-5.2077365e-05
0.00046152325
-3.1608679e-05
0.00046383556
-1.0825304e-05
0.0004616811
1.0073074e-05
0.00045507834
3.0885252e-05
0.00044408868
5.1410437e-05
0.00042881589
7.1450188e-05
0.00040940526
9.0810363e-05
0.00038604221
0.00010930303
0.0003589506
0.00012674833
0.00032839063
0.00014297628
0.00029465634
0.00015782849
0.00025807279
0.00017115977
0.00021899294
0.00018283959
0.00017779423
0.00019275346
0.00013487487
0.0002008041
9.0650005e-05
0.00020691242
4.5547579e-05
0.00021101838
4.1860172e-09
0.0002130816
-4.5539247e-05
0.00021308179
-9.0641792e-05
0.00021101894
-0.00013486686
0.00020691335
-0.00017778649
0.00020080539
-0.00021898555
0.0001927551
-0.00025806581
0.00018284156
-0.00029464985
0.00017116205
-0.00032838469
0.00015783107
-0.00035894526
0.00014297912
-0.00038603751
0.0001267514
-0.00040940126
0.00010930631
-0.00042881262
9.0813819e-05
-0.00044408617
7.1453787e-05
-0.00045507662
5.1414145e-05
-0.00046168018
3.0889033e-05
-0.00046383545
1.0076892e-05
-0.00046152395
-1.0821485e-05
-0.00045477018
-3.1604897e-05
-0.00044364135
-5.2073655e-05
-0.00042824658
-7.2031493e-05
-0.00040873583
-9.1287418e-05
-0.00038529839
-0.0001096575
-0.00035816098
-0.00012696661
-0.00032758555
-0.00014304997
-0.00029386672
-0.00015775477
-0.00025732898
-0.00017094146
-0.00021832352
-0.00018248509
-0.00017722492
-0.00019227639
-0.00013442755
-0.00020022279
-9.0341852e-05
-0.00020624921
-4.5390433e-05
-0.00021029877
-0.00021233323
4.7745503e-05
-0.00026008319
9.5037701e-05
-0.00025759153
0.00014141903
-0.00025263148
0.00018644481
-0.00024524986
0.00022968317
-0.0002355164
0.00027071917
-0.00022352306
0.0003091587
-0.00020938327
0.00034463227
-0.00019323092
0.00037679854
-0.00017521908
0.00040534757
-0.00015551871
0.00043000382
-0.00013431704
0.00045052883
-0.00011181589
0.00046672355
-8.8229809e-05
0.00047843027
-6.3784093e-05
0.00048553428
-3.8712683e-05
0.00048796495
-1.3255974e-05
0.00048569656
1.2341458e-05
0.00047874863
3.7833181e-05
0.0004671858
6.2973274e-05
0.00045111728
8.7518702e-05
0.00043069595
0.00011123169
0.0004061169
0.00013388208
0.00037761564
0.00015524959
0.0003454659
0.00017512603
0.00030997699
0.0001933174
0.00027149087
0.00020964589
0.00023037884
0.00022395162
0.00018703793
0.00023609437
0.00014188704
0.00024595499
9.5362854e-05
0.00025343661
4.7915546e-05
0.00025846569
4.3761724e-09
0.00026099277
-4.7906836e-05
0.000260993
-9.5354268e-05
0.00025846637
-0.00014187866
0.00025343774
-0.00018702984
0.00024595656
-0.00023037112
0.00023609638
-0.00027148358
0.00022395403
-0.0003099702
0.00020964867
-0.00034545968
0.00019332054
-0.00037761005
0.00017512949
-0.00040611199
0.00015525334
-0.00043069177
0.00013388609
-0.00045111387
0.00011123592
-0.00046718318
8.7523098e-05
-0.00047874684
6.2977803e-05
-0.0004856956
3.7837799e-05
-0.00048796483
1.2346121e-05
-0.00048553501
-1.325131e-05
-0.00047843184
-3.8708063e-05
-0.00046672594
-6.3779561e-05
-0.00045053202
-8.8225408e-05
-0.00043000778
-0.00011181166
-0.00040535226
-0.00013431303
-0.00037680391
-0.00015551495
-0.00034463827
-0.00017521561
-0.00030916526
-0.00019322777
-0.00027072624
-0.00020938048
-0.00022969068
-0.00022352064
-0.00018645269
-0.00023551439
-0.0001414272
-0.00024524828
-9.5046074e-05
-0.00025263034
-4.7754001e-05
-0.00025759084
-0.00026008296
5.0618801e-05
-0.00031070649
0.00010075688
-0.00030772961
0.00014992908
-0.00030180367
0.00019766385
-0.00029298464
0.00024350329
-0.00028135583
0.00028700741
-0.00026702718
0.00032775839
-0.00025013425
0.0003653645
-0.00023083703
0.00039946389
-0.00020931847
0.00042972802
-0.00018578285
0.00045586487
-0.00016045389
0.00047762172
-0.00013357274
0.00049478765
-0.00010539574
0.00050719561
-7.6192045e-05
0.00051472406
-4.6241137e-05
0.00051729827
-1.5830187e-05
0.00051489108
1.4748649e-05
0.00050752326
4.5201006e-05
0.00049526339
7.5233137e-05
0.00047822735
0.00010455475
0.0004565772
0.00013288183
0.00043051981
0.00015993947
0.00040030485
0.00018546455
0.00036622248
0.00020920839
0.0003286006
0.00023093928
0.0002878017
0.00025044479
0.00024421934
0.00026753398
0.00019827439
0.00028203933
0.00015041088
0.0002938185
0.00010109168
0.0003027558
5.0793989e-05
0.00030876338
4.6071229e-09
0.00031178215
-5.0784819e-05
0.00031178243
-0.00010108264
0.0003087642
-0.00015040206
0.00030275716
-0.00019826587
0.00029382038
-0.00024421121
0.00028204171
-0.00028779402
0.00026753684
-0.00032859346
0.00025044811
-0.00036621594
0.00023094302
-0.00040029897
0.00020921252
-0.00043051465
0.00018546902
-0.00045657281
0.00015994425
-0.00047822375
0.00013288686
-0.00049526064
0.00010455998
-0.00050752137
7.5238531e-05
-0.00051489008
4.5206506e-05
-0.00051729816
1.4754203e-05
-0.00051472483
-1.5824632e-05
-0.00050719726
-4.6235635e-05
-0.00049479018
-7.6186648e-05
-0.00047762509
-0.0001053905
-0.00045586904
-0.00013356771
-0.00042973296
-0.00016044911
-0.00039946954
-0.00018577837
-0.00036537082
-0.00020931434
-0.00032776531
-0.00023083328
-0.00028701486
-0.00025013092
-0.0002435112
-0.00026702431
-0.00019767215
-0.00028135344
-0.00014993768
-0.00029298275
-0.00010076571
-0.00030180231
-5.0627755e-05
-0.00030772879
-0.00031070622
5.4058187e-05
-0.00036476945
0.00010760282
-0.00036127424
0.00016011567
-0.00035431652
0.00021109306
-0.00034396202
0.00026004585
-0.00033030862
0.00030650412
-0.00031348545
0.00035002162
-0.00029365176
0.00039018003
-0.00027099544
0.00042659295
-0.00024573138
0.00045890959
-0.00021809949
0.0004868182
-0.0001883625
0.00051004903
-0.00015680357
0.00052837697
-0.00012372368
0.00054162377
-8.943885e-05
0.00054965982
-5.4277187e-05
0.00055240545
-1.857581e-05
0.00054983177
1.7322326e-05
0.00054196108
5.307169e-05
0.00052886674
8.8327485e-05
0.00051067251
0.00012274897
0.00048755155
0.0001560028
0.00045972474
0.00018776628
0.00042745873
0.00021773056
0.00039106336
0.00024560377
0.00035088874
0.0002711139
0.00030732192
0.00029401161
0.00026078313
0.00031407276
0.00021172174
0.00033110072
0.00016061186
0.00034492839
0.00010794771
0.00035541995
5.4238788e-05
0.0003624723
4.8818027e-09
0.00036601606
-5.4229071e-05
0.00036601638
-0.00010793813
0.00036247326
-0.00016060251
0.00035542154
-0.00021171272
0.00034493059
-0.00026077451
0.00033110351
-0.00030731379
0.00031407612
-0.00035088117
0.0002940155
-0.00039105643
0.00027111828
-0.00042745251
0.0002456086
-0.00045971928
0.00021773579
-0.00048754689
0.00018777186
-0.00051066871
0.00015600868
-0.00052886383
0.0001227551
-0.00054195909
8.8333795e-05
-0.00054983071
5.3078125e-05
-0.00055240533
1.7328823e-05
-0.00054966065
-1.8569312e-05
-0.00054162553
-5.427075e-05
-0.00052837964
-8.9432535e-05
-0.0005100526
-0.00012371755
-0.00048682262
-0.00015679768
-0.00045891483
-0.00018835691
-0.00042659894
-0.00021809425
-0.00039018673
-0.00024572655
-0.00035002896
-0.00027099105
-0.00030651203
-0.00029364786
-0.00026005424
-0.00031348209
-0.00021110186
-0.00033030582
-0.0001601248
-0.00034395982
-0.00010761218
-0.00035431493
-5.4067684e-05
-0.00036127328
-0.00036476913
5.8138715e-05
-0.00042291326
0.0001157249
-0.00041886043
0.00017220107
-0.00041079269
0.00022702538
-0.00039878634
0.00027967168
-0.00038295492
0.00032963449
-0.00036344826
0.00037643383
-0.0003404511
0.00041961983
-0.00031418144
0.00045877697
-0.00028488852
0.0004935281
-0.00025285063
0.00052353807
-0.00021837247
0.00054851695
-0.00018178244
0.00056822282
-0.00014342955
0.00058246419
-0.00010368022
0.00059110186
-6.291486e-05
0.00059405034
-2.1524288e-05
0.00059127874
2.0093928e-05
0.00058281117
6.1539257e-05
0.00056872663
0.00010241203
0.00054915831
0.00014231729
0.00052429245
0.00018086866
0.00049436664
0.00021769208
0.00045966761
0.00025242959
0.00042052853
0.00028474284
0.00037732588
0.00031431655
0.00033047584
0.00034086166
0.00028043025
0.00036411835
0.00022767228
0.00038385869
0.00017271171
0.00039988896
0.00011607994
0.00041205172
5.8324813e-05
0.00042022743
5.2035016e-09
0.00042433567
-5.8314456e-05
0.00042433604
-0.00011606973
0.00042022853
-0.00017270174
0.00041205355
-0.00022766266
0.0003998915
-0.00028042106
0.00038386191
-0.00033046717
0.00036412223
-0.00037731782
0.00034086614
-0.00042052115
0.0003143216
-0.00045966097
0.00028474842
-0.00049436081
0.00025243563
-0.00052428749
0.00021769853
-0.00054915426
0.00018087545
-0.00056872353
0.00014232437
-0.00058280905
0.00010241932
-0.00059127761
6.1546687e-05
-0.00059405022
2.0101431e-05
-0.00059110275
-2.1516784e-05
-0.00058246607
-6.2907427e-05
-0.00056822568
-0.00010367293
-0.00054852075
-0.00014342247
-0.00052354279
-0.00018177563
-0.00049353369
-0.00021836601
-0.00045878337
-0.00025284457
-0.00041962698
-0.00028488294
-0.00037644166
-0.00031417637
-0.00032964292
-0.0003404466
-0.00027968064
-0.00036344437
-0.00022703477
-0.00038295169
-0.0001722108
-0.00039878379
-0.00011573488
-0.00041079085
-5.8148848e-05
-0.00041885931
-0.00042291289
6.2957997e-05
-0.00048587672
0.00012531738
-0.00048121981
0.00018647432
-0.00047194963
0.00024584186
-0.00045815387
0.00030285008
-0.00043996314
0.00035695151
-0.00041754969
0.00040762635
-0.00039112595
0.00045438745
-0.00036094253
0.00049678492
-0.000327286
0.00053441049
-0.0002904762
0.0005669014
-0.00025086338
0.0005939439
-0.00020882494
0.00061527629
-0.00016476194
0.00063069145
-0.00011909538
0.0006400389
-7.2262308e-05
0.00064322629
-2.4711683e-05
0.0006402204
2.309982e-05
0.00063104751
7.0712147e-05
0.00061579329
0.00011766625
0.00059460205
0.00016350853
0.00056767553
0.00020779518
0.000535271
0.00025009662
0.00049769891
0.00029000168
0.00045532
0.00032712175
0.00040854186
0.00036109469
0.00035781502
0.00039158849
0.00030362869
0.00041830469
0.00024650593
0.00044098145
0.00018699862
0.00045939626
0.00012568208
0.00047336826
6.3149384e-05
0.00048276012
5.575994e-09
0.00048747948
-6.3138285e-05
0.0004874799
-0.00012567114
0.00048276139
-0.00018698795
0.00047337036
-0.00024649562
0.00045939917
-0.00030361885
0.00044098514
-0.00035780574
0.00041830912
-0.00040853322
0.00039159362
-0.00045531209
0.00036110048
-0.00049769181
0.00032712813
-0.00053526476
0.00029000859
-0.00056767022
0.00025010399
-0.00059459772
0.00020780295
-0.00061578997
0.00016351662
-0.00063104524
0.00011767459
-0.0006402192
7.0720644e-05
-0.00064322617
2.31084e-05
-0.00064003985
-2.4703102e-05
-0.00063069347
-7.2253807e-05
-0.00061527936
-0.00011908704
-0.00059394799
-0.00016475384
-0.00056690647
-0.00020881716
-0.00053441649
-0.00025085599
-0.00049679179
-0.00029046927
-0.00045439512
-0.0003272796
-0.00040763475
-0.00036093674
-0.00035696056
-0.0003911208
-0.00030285968
-0.00041754525
-0.00024585193
-0.00043995944
-0.00018648476
-0.00045815096
-0.00012532809
-0.00047194752
-6.2968868e-05
-0.00048121854
-0.00048587629
6.8638658e-05
-0.00055452126
0.00013662435
-0.0005492055
0.00020329855
-0.00053862383
0.00026802113
-0.00052287645
0.00033017056
-0.00050211257
0.00038914985
-0.00047652899
0.00044439226
-0.00044636836
0.00049536668
-0.00041191695
0.00054158275
-0.00037350206
0.0005825955
-0.00033148895
0.00061800969
-0.00028627757
0.00064748353
-0.00023829878
0.00067073201
-0.00018801042
0.00068752966
-0.00013589303
0.00069771275
-8.2445392e-05
0.00070118089
-2.8179825e-05
0.00069789812
2.6382589e-05
0.00068789332
8.0716951e-05
0.00067126003
0.00013429954
0.00064815572
0.00018661284
0.00061880034
0.00023715055
0.00058347439
0.00028542257
0.00054251628
0.00033095979
0.00049631921
0.00037331883
0.00044532742
0.00041208648
0.00039003197
0.00044688394
0.00033096602
0.00047737064
0.00026869968
0.00050324779
0.00020383443
0.00052426151
0.00013699729
0.0005402054
6.8834671e-05
0.00055092274
6.0037391e-09
0.00055630815
-6.8822721e-05
0.00055630863
-0.00013698551
0.00055092418
-0.00020382293
0.00054020778
-0.00026868858
0.00052426481
-0.00033095543
0.00050325198
-0.00039002198
0.00047737567
-0.00044531813
0.00044688977
-0.0004963107
0.00041209305
-0.00054250864
0.00037332607
-0.00058346768
0.00033096763
-0.00061879463
0.00028543094
-0.00064815106
0.00023715938
-0.00067125646
0.00018662202
-0.00068789088
0.000134309
-0.00069789683
8.0726597e-05
-0.00070118076
2.6392329e-05
-0.00069771378
-2.8170083e-05
-0.00068753184
-8.2435741e-05
-0.00067073532
-0.00013588357
-0.00064748793
-0.00018800122
-0.00061801515
-0.00023828994
-0.00058260196
-0.00028626918
-0.00054159015
-0.00033148109
-0.00049537495
-0.0003734948
-0.00044440132
-0.00041191037
-0.00038915961
-0.00044636251
-0.00033018092
-0.00047652394
-0.00026803199
-0.00050210837
-0.00020330981
-0.00052287314
-0.00013663589
-0.00053862144
-6.8650376e-05
-0.00054920406
-0.00055452078
7.5328463e-05
-0.0006298561
0.00014993988
-0.00062381692
0.00022311133
-0.00061179527
0.00029413998
-0.00059390511
0.00036234352
-0.00057031611
0.00042706662
-0.00054125209
0.00048768723
-0.00050698896
0.0005436225
-0.00046785223
0.00059433439
-0.00042421395
0.00063933478
-0.00037648935
0.00067819018
-0.00032513297
0.00071052584
-0.00027063444
0.00073602936
-0.00021351394
0.0007544537
-0.00015431737
0.00076561957
-9.3611256e-05
0.00076941718
-3.1977434e-05
0.00076580738
2.999238e-05
0.00075482215
9.1702184e-05
0.00073656435
0.00015255734
0.00071120691
0.00021197028
0.00067899129
0.00026936617
0.00064022531
0.00032418854
0.00059528032
0.00037590478
0.00054458772
0.00042401143
0.00048863491
0.0004680393
0.00042796063
0.00050755822
0.00036314981
0.00054218145
0.00029482791
0.0005715697
0.0002236548
0.00059543462
0.00015031837
0.00061354182
7.5527785e-05
0.00062571333
6.4921762e-09
0.00063182944
-7.5514863e-05
0.00063182998
-0.00015030564
0.00062571495
-0.00022364237
0.00061354451
-0.00029481591
0.00059543835
-0.00036313836
0.00057157443
-0.00042794983
0.00054218714
-0.00048862486
0.0005075648
-0.00054457852
0.00046804672
-0.00059527206
0.00042401961
-0.00064021806
0.00037591364
-0.00067898512
0.000324198
-0.00071120188
0.00026937613
-0.0007365605
0.00021198065
-0.00075481952
0.00015256802
-0.000765806
9.1713071e-05
-0.00076941704
3.0003374e-05
-0.00076562069
-3.1966438e-05
-0.00075445606
-9.3600363e-05
-0.00073603295
-0.00015430668
-0.00071053061
-0.00021350356
-0.00067819609
-0.00027062446
-0.00063934177
-0.00032512349
-0.0005943424
-0.00037648047
-0.00054363145
-0.00042420575
-0.00048769703
-0.00046784479
-0.00042707718
-0.00050698236
-0.00036235473
-0.00054124638
-0.00029415174
-0.00057031136
-0.00022312351
-0.00059390136
-0.00014995238
-0.00061179257
-7.534115e-05
-0.00062381529
-0.00062985556
8.3196541e-05
-0.00071305957
0.00016560061
-0.000706221
0.00024641348
-0.00069260814
0.00032485858
-0.00067235021
0.00040018205
-0.00064563957
0.00047165991
-0.00061272995
0.00053860506
-0.00057393411
0.00060037379
-0.00052962096
0.000656372
-0.00048021216
0.00070606085
-0.00042617819
0.00074896189
-0.00036803401
0.00078466165
-0.0003063342
0.0008128156
-0.00024166788
0.00083315137
-0.00017465315
0.00084547146
-0.00010593134
0.00084965507
-3.6161044e-05
0.00084565938
3.3988066e-05
0.00083352003
0.00010384153
0.0008133509
0.00017272648
0.00078534312
0.00023997805
0.00074976348
0.00030494581
0.00070695195
0.00036700008
0.00065731858
0.00042553814
0.00060133973
0.00047999028
0.00053955353
0.0005298255
0.00047255478
0.00057455697
0.00040098926
0.00061374697
0.00032554748
0.00064701148
0.00024695797
0.00067402413
0.00016598016
0.00069451963
8.3396953e-05
0.00070829653
7.0481526e-09
0.00071521934
-8.3382924e-05
0.00071521995
-0.00016596633
0.00070829836
-0.00024694448
0.00069452266
-0.00032553446
0.00067402833
-0.00040097683
0.0006470168
-0.00047254305
0.00061375336
-0.00053954262
0.00057456437
-0.00060132975
0.00052983384
-0.00065730962
0.00047999948
-0.00070694408
0.0004255481
-0.00074975679
0.00036701071
-0.00078533767
0.00030495701
-0.00081334672
0.00023998971
-0.00083351719
0.00017273848
-0.00084565788
0.00010385377
-0.00084965493
3.400042e-05
-0.00084547268
-3.6148687e-05
-0.00083315394
-0.0001059191
-0.00081281949
-0.00017464114
-0.00078466684
-0.00024165621
-0.00074896831
-0.00030632299
-0.00070606845
-0.00036802336
-0.00065638071
-0.00042616821
-0.00060038351
-0.00048020294
-0.00053861571
-0.00052961259
-0.00047167139
-0.00057392668
-0.00040019424
-0.00061272353
-0.00032487137
-0.00064563423
-0.00024642673
-0.000672346
-0.0001656142
-0.0006926051
-8.3210332e-05
-0.00070621916
-0.00071305896
9.2423789e-05
-0.00080549092
0.00018396658
-0.00079776378
0.0002737407
-0.00078238226
0.00036088305
-0.00075949256
0.00044455581
-0.00072931233
0.00052395449
-0.00069212863
0.00059831565
-0.00064829527
0.00066692423
-0.00059822954
0.00072912038
-0.00054240831
0.00078430579
-0.0004813636
0.00083194935
-0.00041567757
0.00087159225
-0.0003459771
0.0009028523
-0.00027292793
0.00092542755
-0.0001972284
0.00093909917
-0.00011960297
0.00094373357
-4.0795445e-05
0.00093928368
3.8437957e-05
0.00092578951
0.00011733571
0.00090337787
0.00019513812
0.00087226135
0.00027109457
0.00083273642
0.00034447075
0.00078518078
0.00041455572
0.00073004991
0.00048066901
0.00066787285
0.00054216734
0.00059924723
0.00059845113
0.00052483357
0.00064897062
0.00044534898
0.00069323155
0.00036156023
0.00073080023
0.00027427627
0.00076130809
0.00018434038
0.00078445552
9.2621902e-05
0.00080001502
7.6805217e-09
0.00080783356
-9.2606615e-05
0.00080783425
-0.00018432532
0.00080001707
-0.00027426157
0.00078445892
-0.00036154604
0.0007613128
-0.00044533543
0.0007308062
-0.00052482079
0.00069323872
-0.00059923535
0.00064897893
-0.00066786198
0.00059846048
-0.00073004015
0.00054217764
-0.00078517222
0.00048068017
-0.00083272914
0.00041456763
-0.00087225542
0.00034448329
-0.00090337334
0.00027110763
-0.00092578641
0.00019515156
-0.00093928206
0.00011734941
-0.00094373343
3.8451794e-05
-0.00093910051
-4.0781605e-05
-0.00092543036
-0.00011958925
-0.00090285655
-0.00019721494
-0.00087159791
-0.00027291486
-0.00083195636
-0.00034596454
-0.00078431408
-0.00041566564
-0.00072912988
-0.00048135241
-0.00066693484
-0.00054239798
-0.00059832727
-0.00059822016
-0.00052396701
-0.00064828694
-0.00044456911
-0.00069212144
-0.00036089699
-0.00072930634
-0.00027375515
-0.00075948784
-0.0001839814
-0.00078237885
-9.2438837e-05
-0.00079776173
-0.00080549023
0.00010318535
-0.00090868456
0.00020538637
-0.0008999648
0.00030561164
-0.00088260752
0.00040289705
-0.00085677797
0.00049630683
-0.00082272212
0.00058494255
-0.00078076435
0.00066795172
-0.00073130444
0.00074453604
-0.00067481386
0.000813959
-0.00061183127
0.00087555292
-0.00054295753
0.00092872536
-0.00046885
0.00097296464
-0.00039021639
0.0010078447
-0.00030780804
0.0010330293
-0.00022241295
0.0010482747
-0.00013484839
0.0010534326
-4.5953271e-05
0.0010484509
4.3419658e-05
0.0010333748
0.00013241174
0.0010083465
0.00022016649
0.00097360337
0.00030583766
0.00092947673
0.00038859738
0.00087638828
0.00046764417
0.00081484651
0.00054221079
0.00074544191
0.00061157194
0.00066884148
0.00067505155
0.00058578238
0.00073202972
0.00049706488
0.00078194906
0.0004035446
0.00082432051
0.00030612426
0.00085872843
0.00020574484
0.00088483494
0.00010337636
0.0009023835
8.4009135e-09
0.00091120152
-0.00010335964
0.00091120229
-0.00020572836
0.00090238579
-0.00030610819
0.00088483874
-0.00040352908
0.00085873369
-0.00049705007
0.00082432718
-0.00058576842
0.00078195708
-0.0006688285
0.000732039
-0.00074543003
0.00067506201
-0.00081483584
0.00061158346
-0.00087637893
0.00054222326
-0.00092946878
0.00046765748
-0.00097359689
0.0003886114
-0.0010083415
0.00030585224
-0.0010333715
0.0002201815
-0.0010484491
0.00013242705
-0.0010534324
4.3435114e-05
-0.0010482762
-4.5937811e-05
-0.0010330324
-0.00013483308
-0.0010078494
-0.00022239792
-0.00097297083
-0.00030779343
-0.00092873303
-0.00039020234
-0.000875562
-0.00046883666
-0.00081396939
-0.00054294502
-0.00074454765
-0.00061181971
-0.00066796444
-0.00067480337
-0.00058495626
-0.00073129513
-0.00049632139
-0.0007807563
-0.00040291232
-0.00082271542
-0.00030562747
-0.00085677269
-0.00020540261
-0.00088260371
-0.00010320183
-0.0008999625
-0.00090868379
0.0001156231
-0.0010243168
0.00023014237
-0.0010144841
0.00034244641
-0.00099491157
0.00045145436
-0.00096578592
0.00055611718
-0.00092738494
0.00065542779
-0.00088007496
0.00074843079
-0.00082430744
0.00083423162
-0.00076061469
0.00091200517
-0.00068960482
0.00098100366
-0.00061195601
0.0010405637
-0.00052841005
0.0010901126
-0.00043976531
0.0011291738
-0.00034686925
0.0011573712
-0.00025061035
0.0011744327
-0.00015190988
0.0011801928
-5.1713304e-05
0.0011745939
4.9018523e-05
0.0011576874
0.00014931823
0.0011296329
0.00024822095
0.0010906971
0.00034477346
0.0010412513
0.00043804318
0.00098176825
0.00052712726
0.00091281763
0.00061116141
0.00083506106
0.00068932851
0.00074924572
0.00076086689
0.00065619732
0.00082507813
0.00055681217
0.0008813342
0.00045204859
0.0009290841
0.00034291752
0.00096785949
0.00023047277
0.0009972797
0.00011580062
0.0010170556
9.2245669e-09
0.0010269929
-0.00011578226
0.0010269938
-0.00023045468
0.0010170582
-0.00034289988
0.00099728394
-0.00045203155
0.00096786537
-0.00055679592
0.00092909155
-0.000656182
0.00088134316
-0.00074923149
0.00082508849
-0.00083504804
0.00076087856
-0.00091280595
0.00068934137
-0.00098175801
0.00061117533
-0.0010412426
0.00052714211
-0.0010906901
0.00043805881
-0.0011296275
0.00034478972
-0.0011576837
0.0002482377
-0.001174592
0.00014933529
-0.0011801926
4.9035753e-05
-0.0011744343
-5.1696069e-05
-0.0011573746
-0.00015189281
-0.0011291789
-0.00025059359
-0.0010901194
-0.00034685296
-0.0010405721
-0.00043974965
-0.00098101361
-0.00052839516
-0.00091201658
-0.00061194205
-0.00083424437
-0.00068959193
-0.00074844476
-0.00076060298
-0.00065544285
-0.00082429704
-0.00055613318