/*--------------------------------*- C++ -*----------------------------------*\
| =========                 |                                                 |
| \\      /  F ield         | OpenFOAM: The Open Source CFD Toolbox           |
|  \\    /   O peration     | Version:  2106                                  |
|   \\  /    A nd           | Website:  www.openfoam.com                      |
|    \\/     M anipulation  |                                                 |
\*---------------------------------------------------------------------------*/
FoamFile
{
    version     2.0;
    format      ascii;
    arch        "LSB;label=32;scalar=64";
    class       volVectorField;
    location    "0.044";
    object      U;
}
// * * * * * * * * * * * * * * * * * * * * * * * * * * * * * * * * * * * * * //

dimensions      [0 1 -1 0 0 0 0];

internalField   nonuniform List<vector> 
4096
(
(0.001295792 -0.0012898227 0)
(0.0038754344 -0.0012774673 0)
(0.0064179496 -0.0012528718 0)
(0.0088989738 -0.0012162684 0)
(0.011294723 -0.0011680023 0)
(0.013582219 -0.0011085295 0)
(0.015739506 -0.001038412 0)
(0.017745858 -0.00095831346 0)
(0.01958198 -0.00086899262 0)
(0.02123019 -0.00077129689 0)
(0.02267459 -0.00066615453 0)
(0.02390122 -0.0005545662 0)
(0.024898193 -0.00043759578 0)
(0.025655817 -0.00031636053 0)
(0.026166684 -0.0001920207 0)
(0.026425753 -6.5768699e-05 0)
(0.026430393 6.1183233e-05 0)
(0.02618045 0.0001876061 0)
(0.025678163 0.00031229357 0)
(0.024928271 0.00043402939 0)
(0.023937876 0.00055163635 0)
(0.022716422 0.00066397322 0)
(0.021275598 0.00076994741 0)
(0.019629227 0.00086852632 0)
(0.017793138 0.00095874778 0)
(0.015785012 0.0010397298 0)
(0.013624214 0.0011106798 0)
(0.011331605 0.0011709021 0)
(0.0089293374 0.001219806 0)
(0.0064406412 0.0012569111 0)
(0.0038895954 0.0012818528 0)
(0.0013008918 0.0012943859 0)
(-0.0013004072 0.0012943871 0)
(-0.0038891154 0.0012818563 0)
(-0.0064401704 0.0012569168 0)
(-0.0089288803 0.0012198139 0)
(-0.011331166 0.0011709121 0)
(-0.013623797 0.0011106918 0)
(-0.015784621 0.0010397438 0)
(-0.017792777 0.0009587635 0)
(-0.019628899 0.00086854366 0)
(-0.021275307 0.00076996621 0)
(-0.02271617 0.00066399329 0)
(-0.023937665 0.0005516575 0)
(-0.024928103 0.00043405141 0)
(-0.02567804 0.00031231625 0)
(-0.026180373 0.00018762923 0)
(-0.026430362 6.1206589e-05 0)
(-0.02642577 -6.5745339e-05 0)
(-0.026166748 -0.00019199756 0)
(-0.025655926 -0.00031633783 0)
(-0.024898348 -0.00043757374 0)
(-0.023901417 -0.00055454503 0)
(-0.022674829 -0.00066613444 0)
(-0.021230468 -0.00077127807 0)
(-0.019582295 -0.00086897525 0)
(-0.017746206 -0.00095829772 0)
(-0.015739883 -0.0010383981 0)
(-0.013582623 -0.0011085174 0)
(-0.011295149 -0.0011679923 0)
(-0.0088994179 -0.0012162605 0)
(-0.0064184074 -0.0012528661 0)
(-0.0038759014 -0.0012774638 0)
(-0.0012962636 -0.0012898215 0)
(0.0013153961 -0.00388441 0)
(0.0039340654 -0.0038472011 0)
(0.0065150467 -0.0037731305 0)
(0.009033608 -0.0036628971 0)
(0.011465606 -0.003517541 0)
(0.013787715 -0.003338435 0)
(0.015977647 -0.003127272 0)
(0.018014364 -0.0028860501 0)
(0.019878279 -0.0026170546 0)
(0.021551442 -0.0023228373 0)
(0.023017713 -0.0020061937 0)
(0.024262923 -0.0016701373 0)
(0.025275004 -0.0013178719 0)
(0.026044115 -0.00095276232 0)
(0.026562738 -0.00057830274 0)
(0.026825754 -0.00019808442 0)
(0.026830495 0.00018423813 0)
(0.026576783 0.00056498668 0)
(0.026066923 0.00094048868 0)
(0.025305703 0.0013071082 0)
(0.024300337 0.0016612947 0)
(0.023060411 0.0019996104 0)
(0.02159779 0.0023187645 0)
(0.019926504 0.0026156473 0)
(0.018062623 0.0028873609 0)
(0.016024095 0.0031312492 0)
(0.013830579 0.0033449246 0)
(0.01150325 0.0035262927 0)
(0.0090645983 0.0036735737 0)
(0.0065382057 0.0037853211 0)
(0.0039485167 0.0038604368 0)
(0.0013205981 0.0038981819 0)
(-0.0013201072 0.0038981854 0)
(-0.0039480304 0.0038604471 0)
(-0.0065377287 0.0037853383 0)
(-0.0090641352 0.0036735974 0)
(-0.011502805 0.0035263228 0)
(-0.013830156 0.0033449609 0)
(-0.016023699 0.0031312912 0)
(-0.018062257 0.0028874083 0)
(-0.019926172 0.0026156995 0)
(-0.021597494 0.0023188211 0)
(-0.023060155 0.0019996708 0)
(-0.024300123 0.0016613584 0)
(-0.025305533 0.0013071745 0)
(-0.026066798 0.00094055696 0)
(-0.026576705 0.00056505631 0)
(-0.026830464 0.00018430844 0)
(-0.026825771 -0.0001980141 0)
(-0.026562803 -0.00057823308 0)
(-0.026044226 -0.000952694 0)
(-0.02527516 -0.0013178056 0)
(-0.024263123 -0.0016700735 0)
(-0.023017956 -0.0020061332 0)
(-0.021551724 -0.0023227806 0)
(-0.019878598 -0.0026170023 0)
(-0.018014717 -0.0028860027 0)
(-0.01597803 -0.00312723 0)
(-0.013788125 -0.0033383987 0)
(-0.011466038 -0.0035175108 0)
(-0.0090340581 -0.0036628733 0)
(-0.0065155106 -0.0037731133 0)
(-0.0039345387 -0.0038471907 0)
(-0.001315874 -0.0038844066 0)
(0.001348364 -0.0065353691 0)
(0.0040326636 -0.0064727668 0)
(0.0066783294 -0.0063481465 0)
(0.009260009 -0.0061626837 0)
(0.011752954 -0.0059181289 0)
(0.014133253 -0.0056167913 0)
(0.016378059 -0.0052615194 0)
(0.018465808 -0.0048556748 0)
(0.020376421 -0.0044031023 0)
(0.022091499 -0.0039080953 0)
(0.0235945 -0.0033753569 0)
(0.024870897 -0.0028099572 0)
(0.025908324 -0.0022172865 0)
(0.026696692 -0.0016030056 0)
(0.027228296 -0.00097299322 0)
(0.027497889 -0.0003332909 0)
(0.027502738 0.00030995426 0)
(0.027242658 0.00095055029 0)
(0.026720016 0.001582317 0)
(0.025939717 0.0021991429 0)
(0.024909159 0.0027950523 0)
(0.023638165 0.0033642602 0)
(0.022138898 0.0039012303 0)
(0.020425739 0.0044007302 0)
(0.018515161 0.0048578843 0)
(0.01642556 0.0052682233 0)
(0.014177088 0.00562773 0)
(0.011791451 0.0059328803 0)
(0.0092917018 0.0061806797 0)
(0.0067020132 0.0063686944 0)
(0.0040474421 0.0064950762 0)
(0.0013536836 0.0065585824 0)
(-0.0013531821 0.0065585882 0)
(-0.0040469454 0.0064950936 0)
(-0.006701526 0.0063687232 0)
(-0.0092912287 0.0061807197 0)
(-0.011790997 0.005932931 0)
(-0.014176656 0.0056277909 0)
(-0.016425156 0.0052682939 0)
(-0.018514787 0.0048579638 0)
(-0.0204254 0.0044008179 0)
(-0.022138596 0.0039013254 0)
(-0.023637904 0.0033643617 0)
(-0.024908941 0.0027951592 0)
(-0.025939544 0.0021992543 0)
(-0.026719889 0.0015824317 0)
(-0.027242578 0.00095066729 0)
(-0.027502707 0.0003100724 0)
(-0.027497906 -0.00033317274 0)
(-0.027228362 -0.00097287618 0)
(-0.026696806 -0.0016028908 0)
(-0.025908484 -0.0022171751 0)
(-0.024871102 -0.0028098502 0)
(-0.023594747 -0.0033752553 0)
(-0.022091787 -0.0039080001 0)
(-0.020376747 -0.0044030144 0)
(-0.018466168 -0.0048555952 0)
(-0.01637845 -0.0052614488 0)
(-0.014133671 -0.0056167303 0)
(-0.011753395 -0.0059180781 0)
(-0.0092604689 -0.0061626437 0)
(-0.0066788035 -0.0063481176 0)
(-0.0040331472 -0.0064727493 0)
(-0.0013488524 -0.0065353633 0)
(0.0013949384 -0.0092655956 0)
(0.0041719541 -0.0091768391 0)
(0.0069089986 -0.009000155 0)
(0.0095798419 -0.0087372098 0)
(0.012158879 -0.0083904854 0)
(0.014621372 -0.0079632564 0)
(0.016943684 -0.0074595612 0)
(0.019103506 -0.0068841662 0)
(0.021080065 -0.0062425228 0)
(0.022854329 -0.0055407183 0)
(0.024409184 -0.004785421 0)
(0.025729606 -0.0039838191 0)
(0.026802801 -0.0031435546 0)
(0.027618337 -0.0022726534 0)
(0.028168242 -0.0013794499 0)
(0.028447091 -0.00047250901 0)
(0.028452059 0.00043945483 0)
(0.028182957 0.0013476616 0)
(0.027642236 0.0022433486 0)
(0.02683497 0.0031178544 0)
(0.025768812 0.0039627064 0)
(0.024453928 0.0047697027 0)
(0.022902897 0.0055309942 0)
(0.021130601 0.0062391627 0)
(0.019154077 0.0068872958 0)
(0.016992358 0.007469057 0)
(0.01466629 0.0079787507 0)
(0.012198328 0.0084113804 0)
(0.0096123184 0.0087627006 0)
(0.0069332688 0.0090292604 0)
(0.0041870996 0.0092084396 0)
(0.0014003917 0.0092984763 0)
(-0.0013998753 0.0092984845 0)
(-0.0041865881 0.0092084643 0)
(-0.0069327671 0.0090293011 0)
(-0.0096118313 0.0087627571 0)
(-0.01219786 0.0084114521 0)
(-0.014665846 0.0079788369 0)
(-0.016991942 0.0074691568 0)
(-0.019153692 0.0068874083 0)
(-0.021130252 0.0062392869 0)
(-0.022902587 0.0055311288 0)
(-0.024453659 0.0047698463 0)
(-0.025768587 0.0039628577 0)
(-0.026834791 0.0031180121 0)
(-0.027642105 0.002243511 0)
(-0.028182875 0.0013478272 0)
(-0.028452027 0.00043962204 0)
(-0.028447109 -0.00047234178 0)
(-0.02816831 -0.0013792843 0)
(-0.027618454 -0.002272491 0)
(-0.026802966 -0.0031433969 0)
(-0.025729817 -0.0039836675 0)
(-0.02440944 -0.0047852772 0)
(-0.022854626 -0.0055405836 0)
(-0.021080401 -0.0062423985 0)
(-0.019103877 -0.0068840535 0)
(-0.016944087 -0.0074594611 0)
(-0.014621803 -0.00796317 0)
(-0.012159334 -0.0083904136 0)
(-0.0095803157 -0.0087371532 0)
(-0.006909487 -0.0090001141 0)
(-0.0041724523 -0.0091768145 0)
(-0.0013954415 -0.0092655873 0)
(0.0014556776 -0.012102327 0)
(0.0043536073 -0.011986393 0)
(0.0072098203 -0.011755609 0)
(0.0099969414 -0.011412151 0)
(0.012688248 -0.010959262 0)
(0.015257923 -0.01040122 0)
(0.0176813 -0.0097433009 0)
(0.019935097 -0.0089917305 0)
(0.021997639 -0.0081536307 0)
(0.023849065 -0.0072369532 0)
(0.02547152 -0.0062504086 0)
(0.026849327 -0.0052033864 0)
(0.02796914 -0.0041058688 0)
(0.028820074 -0.0029683389 0)
(0.029393817 -0.0018016825 0)
(0.029684711 -0.00061708655 0)
(0.029689811 0.00057406725 0)
(0.029408923 0.0017603106 0)
(0.028844607 0.0029301985 0)
(0.028002162 0.0040724196 0)
(0.026889574 0.0051759077 0)
(0.025517451 0.0062299507 0)
(0.023898923 0.0072242969 0)
(0.022049517 0.0081492572 0)
(0.019987012 0.0089958034 0)
(0.017731268 0.0097556595 0)
(0.015304036 0.010421386 0)
(0.012728747 0.010986457 0)
(0.010030283 0.011445327 0)
(0.0072347388 0.01179349 0)
(0.0043691597 0.012027521 0)
(0.0014612811 0.012145121 0)
(-0.0014607453 0.012145132 0)
(-0.0043686289 0.012027553 0)
(-0.0072342183 0.011793543 0)
(-0.010029778 0.011445401 0)
(-0.012728261 0.010986551 0)
(-0.015303575 0.010421498 0)
(-0.017730836 0.0097557896 0)
(-0.019986613 0.0089959501 0)
(-0.022049155 0.008149419 0)
(-0.023898601 0.0072244722 0)
(-0.025517172 0.0062301379 0)
(-0.02688934 0.005176105 0)
(-0.028001976 0.004072625 0)
(-0.028844472 0.0029304102 0)
(-0.029408839 0.0017605264 0)
(-0.029689778 0.00057428517 0)
(-0.02968473 -0.0006168686 0)
(-0.029393888 -0.0018014667 0)
(-0.028820196 -0.0029681271 0)
(-0.027969311 -0.0041056632 0)
(-0.026849546 -0.0052031889 0)
(-0.025471785 -0.0062502211 0)
(-0.023849374 -0.0072367776 0)
(-0.021997988 -0.0081534686 0)
(-0.019935483 -0.0089915836 0)
(-0.017681719 -0.0097431705 0)
(-0.015258371 -0.010401108 0)
(-0.01268872 -0.010959169 0)
(-0.0099974334 -0.011412077 0)
(-0.0072103274 -0.011755556 0)
(-0.0043541246 -0.011986361 0)
(-0.0014562 -0.012102316 0)
(0.0015314799 -0.01507471 0)
(0.0045803097 -0.014930296 0)
(0.0075852429 -0.014642816 0)
(0.010517475 -0.014214984 0)
(0.013348887 -0.01365084 0)
(0.016052316 -0.012955713 0)
(0.018601808 -0.012136178 0)
(0.020972869 -0.01119999 0)
(0.023142697 -0.010156024 0)
(0.025090398 -0.0090141851 0)
(0.026797191 -0.007785325 0)
(0.028246587 -0.0064811404 0)
(0.02942455 -0.0051140664 0)
(0.030319634 -0.0036971608 0)
(0.030923101 -0.0022439831 0)
(0.031229001 -0.00076846727 0)
(0.031234245 0.00071521029 0)
(0.030938631 0.0021927654 0)
(0.030344857 0.0036499433 0)
(0.0294585 0.0050726562 0)
(0.028287965 0.0064471216 0)
(0.026844413 0.0077599977 0)
(0.025141658 0.008998516 0)
(0.023196034 0.010150609 0)
(0.021026245 0.011205032 0)
(0.018653182 0.012151477 0)
(0.016099727 0.012980678 0)
(0.013390528 0.013684506 0)
(0.010551759 0.014256055 0)
(0.0076108683 0.014689711 0)
(0.0045963068 0.014981211 0)
(0.0015372498 0.015127689 0)
(-0.0015366896 0.015127702 0)
(-0.004595752 0.014981251 0)
(-0.0076103242 0.014689777 0)
(-0.010551231 0.014256147 0)
(-0.01339002 0.013684622 0)
(-0.016099246 0.012980817 0)
(-0.018652731 0.012151638 0)
(-0.021025828 0.011205214 0)
(-0.023195655 0.01015081 0)
(-0.025141321 0.0089987339 0)
(-0.026844122 0.0077602303 0)
(-0.028287721 0.0064473667 0)
(-0.029458306 0.0050729114 0)
(-0.030344716 0.0036502062 0)
(-0.030938543 0.0021930335 0)
(-0.031234211 0.00071548103 0)
(-0.031229021 -0.00076819649 0)
(-0.030923175 -0.0022437149 0)
(-0.030319762 -0.0036968977 0)
(-0.029424729 -0.0051138109 0)
(-0.028246816 -0.0064808951 0)
(-0.026797469 -0.007785092 0)
(-0.025090721 -0.0090139669 0)
(-0.023143062 -0.010155823 0)
(-0.020973273 -0.011199808 0)
(-0.018602246 -0.012136016 0)
(-0.016052784 -0.012955573 0)
(-0.013349381 -0.013650724 0)
(-0.010517989 -0.014214893 0)
(-0.0075857734 -0.01464275 0)
(-0.0045808509 -0.014930256 0)
(-0.0015320265 -0.015074697 0)
(0.0016236446 -0.018213919 0)
(0.0048559465 -0.018039419 0)
(0.0080417001 -0.017692051 0)
(0.011150361 -0.017175093 0)
(0.014152114 -0.016493429 0)
(0.017018157 -0.015653502 0)
(0.019720972 -0.014663255 0)
(0.022234592 -0.013532066 0)
(0.024534841 -0.012270658 0)
(0.026599573 -0.010891002 0)
(0.02840888 -0.0094062127 0)
(0.029945288 -0.0078304245 0)
(0.031193923 -0.0061786632 0)
(0.032142658 -0.0044667066 0)
(0.032782235 -0.0027109381 0)
(0.033106357 -0.00092819233 0)
(0.033111754 0.00086440317 0)
(0.032798219 0.0026495914 0)
(0.032168617 0.0044101509 0)
(0.031228863 0.006129063 0)
(0.029987873 0.0077896773 0)
(0.028457481 0.0093758758 0)
(0.026652329 0.010872233 0)
(0.024589736 0.012264171 0)
(0.022289527 0.013538104 0)
(0.019773849 0.014681579 0)
(0.017066957 0.015683402 0)
(0.014194976 0.016533752 0)
(0.011185654 0.017224286 0)
(0.0080680826 0.017748219 0)
(0.0048724214 0.018100403 0)
(0.0016295954 0.018277373 0)
(-0.0016290057 0.018277389 0)
(-0.0048718373 0.018100451 0)
(-0.0080675098 0.017748299 0)
(-0.011185097 0.017224396 0)
(-0.014194442 0.016533892 0)
(-0.01706645 0.01568357 0)
(-0.019773374 0.014681774 0)
(-0.022289088 0.013538324 0)
(-0.024589337 0.012264413 0)
(-0.026651975 0.010872496 0)
(-0.028457174 0.0093761561 0)
(-0.029987617 0.0077899726 0)
(-0.03122866 0.0061293705 0)
(-0.032168468 0.0044104677 0)
(-0.032798126 0.0026499144 0)
(-0.033111718 0.00086472933 0)
(-0.033106379 -0.00092786613 0)
(-0.032782313 -0.002710615 0)
(-0.032142792 -0.0044663897 0)
(-0.031194112 -0.0061783554 0)
(-0.02994553 -0.0078301289 0)
(-0.028409172 -0.0094059321 0)
(-0.026599913 -0.010890739 0)
(-0.024535225 -0.012270415 0)
(-0.022235016 -0.013531846 0)
(-0.019721434 -0.01466306 0)
(-0.01701865 -0.015653333 0)
(-0.014152634 -0.016493289 0)
(-0.011150903 -0.017174983 0)
(-0.0080422591 -0.017691971 0)
(-0.0048565167 -0.018039371 0)
(-0.0016242205 -0.018213903 0)
(0.0017339675 -0.021554108 0)
(0.0051858882 -0.021347589 0)
(0.0085880847 -0.020936483 0)
(0.011907929 -0.020324673 0)
(0.015113574 -0.019517939 0)
(0.018174256 -0.01852391 0)
(0.021060584 -0.017351993 0)
(0.023744825 -0.016013287 0)
(0.026201163 -0.014520486 0)
(0.028405952 -0.012887764 0)
(0.030337938 -0.011130643 0)
(0.031978465 -0.0092658515 0)
(0.033311659 -0.0073111743 0)
(0.03432458 -0.0052852837 0)
(0.035007351 -0.0032075672 0)
(0.035353255 -0.001097946 0)
(0.035358811 0.0010233136 0)
(0.035023806 0.0031357924 0)
(0.034351305 0.0052191141 0)
(0.03334763 0.0072531424 0)
(0.032022307 0.009218177 0)
(0.030387972 0.011095148 0)
(0.028460266 0.012865804 0)
(0.02625768 0.014512896 0)
(0.023801383 0.016020349 0)
(0.021115025 0.017373429 0)
(0.018224501 0.018558891 0)
(0.015157709 0.019565114 0)
(0.011944273 0.020382225 0)
(0.0086152578 0.021002197 0)
(0.0052028637 0.021418937 0)
(0.0017401107 0.021628347 0)
(-0.0017394858 0.021628366 0)
(-0.0052022448 0.021418994 0)
(-0.0086146508 0.021002291 0)
(-0.011943684 0.020382355 0)
(-0.015157143 0.019565279 0)
(-0.018223964 0.018559089 0)
(-0.021114521 0.017373659 0)
(-0.023800918 0.016020608 0)
(-0.026257257 0.014513181 0)
(-0.028459891 0.012866114 0)
(-0.030387648 0.011095479 0)
(-0.032022035 0.0092185254 0)
(-0.033347415 0.0072535051 0)
(-0.034351147 0.0052194877 0)
(-0.035023708 0.0031361734 0)
(-0.035358773 0.0010236983 0)
(-0.035353278 -0.0010975612 0)
(-0.035007433 -0.0032071861 0)
(-0.034324722 -0.0052849098 0)
(-0.03331186 -0.0073108113 0)
(-0.031978722 -0.0092655028 0)
(-0.030338248 -0.011130312 0)
(-0.028406313 -0.012887454 0)
(-0.026201571 -0.0145202 0)
(-0.023745275 -0.016013027 0)
(-0.021061073 -0.017351762 0)
(-0.018174779 -0.018523711 0)
(-0.015114126 -0.019517774 0)
(-0.011908504 -0.020324542 0)
(-0.0085886776 -0.020936389 0)
(-0.005186493 -0.021347533 0)
(-0.0017345784 -0.021554089 0)
(0.0018648561 -0.025133572 0)
(0.0055773342 -0.024892731 0)
(0.0092363179 -0.024413302 0)
(0.012806706 -0.023699816 0)
(0.01625424 -0.02275902 0)
(0.019545826 -0.021599812 0)
(0.022649853 -0.020233169 0)
(0.025536493 -0.018672041 0)
(0.028177984 -0.016931237 0)
(0.0305489 -0.01502729 0)
(0.03262639 -0.012978305 0)
(0.034390401 -0.010803795 0)
(0.035823873 -0.008524501 0)
(0.036912901 -0.0061621972 0)
(0.037646875 -0.003739491 0)
(0.038018588 -0.0012796101 0)
(0.038024303 0.0011938161 0)
(0.037663802 0.0036569817 0)
(0.036940391 0.0060861312 0)
(0.035860875 0.0084577895 0)
(0.0344355 0.01074899 0)
(0.032677859 0.0129375 0)
(0.030604772 0.015002043 0)
(0.028236123 0.016922509 0)
(0.025594677 0.018680157 0)
(0.022705861 0.020257809 0)
(0.019597521 0.021640021 0)
(0.016299651 0.022813246 0)
(0.012844106 0.023765971 0)
(0.0092642862 0.02448884 0)
(0.0055948155 0.024974745 0)
(0.0018711974 0.02521891 0)
(-0.0018705313 0.025218932 0)
(-0.0055941558 0.024974811 0)
(-0.0092636392 0.024488949 0)
(-0.012843477 0.023766123 0)
(-0.016299048 0.022813438 0)
(-0.019596948 0.021640252 0)
(-0.022705325 0.020258076 0)
(-0.025594182 0.018680458 0)
(-0.028235674 0.016922841 0)
(-0.030604373 0.015002403 0)
(-0.032677513 0.012937885 0)
(-0.034435211 0.010749395 0)
(-0.035860646 0.0084582108 0)
(-0.036940224 0.0060865652 0)
(-0.037663698 0.0036574243 0)
(-0.038024263 0.001194263 0)
(-0.038018612 -0.0012791632 0)
(-0.037646964 -0.0037390482 0)
(-0.036913052 -0.0061617628 0)
(-0.035824086 -0.0085240792 0)
(-0.034390675 -0.01080339 0)
(-0.03262672 -0.01297792 0)
(-0.030549284 -0.015026929 0)
(-0.028178419 -0.016930904 0)
(-0.025536974 -0.01867174 0)
(-0.022650375 -0.020232902 0)
(-0.019546384 -0.021599581 0)
(-0.016254829 -0.022758827 0)
(-0.01280732 -0.023699664 0)
(-0.0092369505 -0.024413193 0)
(-0.0055779795 -0.024892665 0)
(-0.0018655079 -0.02513355 0)
(0.0020194416 -0.028996082 0)
(0.0060396481 -0.028718191 0)
(0.010001905 -0.028165012 0)
(0.013868188 -0.027341777 0)
(0.017601389 -0.026256273 0)
(0.021165663 -0.024918777 0)
(0.024526773 -0.02334196 0)
(0.027652418 -0.021540772 0)
(0.03051254 -0.019532308 0)
(0.033079609 -0.017335649 0)
(0.035328892 -0.014971694 0)
(0.037238687 -0.01246296 0)
(0.038790533 -0.0098333776 0)
(0.039969391 -0.0071080716 0)
(0.040763788 -0.0043131231 0)
(0.041165934 -0.001475327 0)
(0.041171798 0.0013780604 0)
(0.040781158 0.0042195803 0)
(0.039997601 0.0070218336 0)
(0.038828504 0.0097577445 0)
(0.037284966 0.012400825 0)
(0.03538171 0.014925432 0)
(0.033136946 0.017307025 0)
(0.030572204 0.019522409 0)
(0.027712131 0.02154997 0)
(0.024584255 0.02336989 0)
(0.021218721 0.024964358 0)
(0.017648002 0.026317745 0)
(0.013906584 0.027416773 0)
(0.010030626 0.028250645 0)
(0.0060576119 0.028811168 0)
(0.0020259774 0.029092827 0)
(-0.0020252637 0.029092852 0)
(-0.006056905 0.028811243 0)
(-0.010029933 0.028250771 0)
(-0.013905911 0.027416947 0)
(-0.017647356 0.026317966 0)
(-0.021218107 0.024964623 0)
(-0.02458368 0.023370197 0)
(-0.027711601 0.021550316 0)
(-0.030571723 0.019522791 0)
(-0.033136518 0.017307438 0)
(-0.03538134 0.014925873 0)
(-0.037284657 0.012401289 0)
(-0.038828259 0.0097582286 0)
(-0.039997422 0.0070223322 0)
(-0.040781046 0.0042200887 0)
(-0.041171756 0.0013785738 0)
(-0.04116596 -0.0014748136 0)
(-0.040763883 -0.0043126144 0)
(-0.039969554 -0.0071075726 0)
(-0.038790762 -0.009832893 0)
(-0.03723898 -0.012462494 0)
(-0.035329247 -0.014971252 0)
(-0.033080022 -0.017335235 0)
(-0.030513006 -0.019531925 0)
(-0.027652934 -0.021540425 0)
(-0.024527333 -0.023341652 0)
(-0.021166261 -0.024918511 0)
(-0.017602021 -0.026256052 0)
(-0.013868847 -0.027341602 0)
(-0.010002583 -0.028164887 0)
(-0.0060403404 -0.028718115 0)
(-0.0020201407 -0.028996057 0)
(0.0022016573 -0.03319243 0)
(0.0065845926 -0.032874272 0)
(0.010904323 -0.032240938 0)
(0.015119378 -0.031298422 0)
(0.019189286 -0.03005565 0)
(0.023074959 -0.028524395 0)
(0.026739067 -0.026719175 0)
(0.030146392 -0.024657115 0)
(0.033264166 -0.022357799 0)
(0.036062386 -0.019843083 0)
(0.038514099 -0.0171369 0)
(0.040595662 -0.014265034 0)
(0.042286967 -0.011254887 0)
(0.043571638 -0.0081352212 0)
(0.04443719 -0.0049358925 0)
(0.044875148 -0.0016875702 0)
(0.044881138 0.0015785513 0)
(0.04445493 0.0048310473 0)
(0.04360045 0.008038563 0)
(0.042325748 0.011170115 0)
(0.040642929 0.01419539 0)
(0.038568045 0.017085046 0)
(0.036120949 0.019810998 0)
(0.033325108 0.022346701 0)
(0.030207386 0.024667419 0)
(0.026797785 0.026750474 0)
(0.023129163 0.028575477 0)
(0.019236912 0.030124543 0)
(0.015158615 0.031382472 0)
(0.010933684 0.03233691 0)
(0.0066029721 0.032978474 0)
(0.0022083699 0.033300857 0)
(-0.0022076014 0.033300886 0)
(-0.0066022109 0.032978561 0)
(-0.010932938 0.032337053 0)
(-0.01515789 0.03138267 0)
(-0.019236216 0.030124794 0)
(-0.023128503 0.028575779 0)
(-0.026797167 0.026750824 0)
(-0.030206815 0.024667814 0)
(-0.03332459 0.022347136 0)
(-0.036120489 0.019811469 0)
(-0.038567647 0.017085548 0)
(-0.040642597 0.01419592 0)
(-0.042325484 0.011170666 0)
(-0.043600258 0.008039131 0)
(-0.04445481 0.0048316265 0)
(-0.044881092 0.001579136 0)
(-0.044875177 -0.0016869853 0)
(-0.044437293 -0.0049353131 0)
(-0.043571814 -0.0081346527 0)
(-0.042287214 -0.011254335 0)
(-0.040595978 -0.014264503 0)
(-0.038514482 -0.017136396 0)
(-0.036062831 -0.019842611 0)
(-0.033264669 -0.022357363 0)
(-0.030146948 -0.02465672 0)
(-0.026739671 -0.026718824 0)
(-0.023075605 -0.028524092 0)
(-0.019189967 -0.030055398 0)
(-0.015120087 -0.031298223 0)
(-0.010905054 -0.032240794 0)
(-0.0065853389 -0.032874185 0)
(-0.002202411 -0.033192401 0)
(0.0024162434 -0.037782083 0)
(0.0072263421 -0.037419863 0)
(0.011967042 -0.036698823 0)
(0.016592813 -0.035625794 0)
(0.021059222 -0.034210946 0)
(0.025323358 -0.032467696 0)
(0.029344245 -0.030412584 0)
(0.033083232 -0.028065124 0)
(0.036504363 -0.025447624 0)
(0.039574719 -0.022584981 0)
(0.042264738 -0.019504449 0)
(0.044548491 -0.016235393 0)
(0.046403936 -0.01280901 0)
(0.047813126 -0.0092580449 0)
(0.048762385 -0.0056164796 0)
(0.049242438 -0.0019192197 0)
(0.049248507 0.0017982353 0)
(0.04878036 0.0055001268 0)
(0.047842319 0.0091507776 0)
(0.04644323 0.012714933 0)
(0.044596384 0.016158104 0)
(0.042319399 0.019446901 0)
(0.039634059 0.022549369 0)
(0.036566116 0.025435303 0)
(0.033145041 0.028076553 0)
(0.029403752 0.03044731 0)
(0.025378296 0.032524375 0)
(0.0211075 0.03428739 0)
(0.016632599 0.035719058 0)
(0.011996829 0.036805318 0)
(0.0072450073 0.037535492 0)
(0.002423094 0.037902401 0)
(-0.002422263 0.037902434 0)
(-0.0072441843 0.03753559 0)
(-0.011996021 0.03680548 0)
(-0.016631815 0.035719282 0)
(-0.021106748 0.034287675 0)
(-0.025377582 0.032524717 0)
(-0.029403083 0.030447707 0)
(-0.033144423 0.028076999 0)
(-0.036565555 0.025435796 0)
(-0.039633562 0.022549903 0)
(-0.042318968 0.01944747 0)
(-0.044596024 0.016158703 0)
(-0.046442945 0.012715557 0)
(-0.047842111 0.0091514204 0)
(-0.048780231 0.0055007823 0)
(-0.049248458 0.0017988971 0)
(-0.04924247 -0.0019185578 0)
(-0.048762497 -0.0056158239 0)
(-0.047813317 -0.0092574015 0)
(-0.046404204 -0.012808386 0)
(-0.044548834 -0.016234792 0)
(-0.042265152 -0.019503879 0)
(-0.039575201 -0.022584446 0)
(-0.036504907 -0.025447131 0)
(-0.033083833 -0.028064677 0)
(-0.029344898 -0.030412186 0)
(-0.025324056 -0.032467352 0)
(-0.021059958 -0.03421066 0)
(-0.016593581 -0.035625568 0)
(-0.011967834 -0.03669866 0)
(-0.0072271501 -0.037419765 0)
(-0.0024170594 -0.03778205 0)
(0.0026686249 -0.042834747 0)
(0.0079811202 -0.042423997 0)
(0.013216928 -0.041606355 0)
(0.018325738 -0.040389578 0)
(0.023258456 -0.038785211 0)
(0.027967674 -0.036808485 0)
(0.032408128 -0.034478174 0)
(0.036537127 -0.031816425 0)
(0.040314963 -0.028848553 0)
(0.043705295 -0.025602807 0)
(0.046675488 -0.022110108 0)
(0.049196932 -0.018403761 0)
(0.051245311 -0.01451915 0)
(0.052800837 -0.010493399 0)
(0.053848435 -0.0063650378 0)
(0.054377896 -0.0021736314 0)
(0.054383968 0.0020405844 0)
(0.05386642 0.0062370842 0)
(0.052830046 0.010375437 0)
(0.051284628 0.014415691 0)
(0.049244854 0.018318764 0)
(0.046730183 0.022046819 0)
(0.043764674 0.025563641 0)
(0.040376761 0.028834997 0)
(0.036598985 0.031828985 0)
(0.032467689 0.034516353 0)
(0.02802267 0.036870803 0)
(0.023306796 0.038869264 0)
(0.018365588 0.040492127 0)
(0.013246782 0.041723453 0)
(0.0079998546 0.04255114 0)
(0.0026755461 0.042967048 0)
(-0.002674644 0.042967085 0)
(-0.0079989611 0.04255125 0)
(-0.013245905 0.041723636 0)
(-0.018364738 0.04049238 0)
(-0.023305979 0.038869585 0)
(-0.028021895 0.036871189 0)
(-0.032466963 0.034516799 0)
(-0.036598315 0.031829488 0)
(-0.040376153 0.028835552 0)
(-0.043764135 0.025564241 0)
(-0.046729716 0.02204746 0)
(-0.049244464 0.01831944 0)
(-0.05128432 0.014416394 0)
(-0.052829821 0.010376161 0)
(-0.053866281 0.0062378223 0)
(-0.054383915 0.0020413297 0)
(-0.05437793 -0.0021728859 0)
(-0.053848557 -0.0063642992 0)
(-0.052801044 -0.010492675 0)
(-0.051245603 -0.014518446 0)
(-0.049197304 -0.018403085 0)
(-0.046675938 -0.022109465 0)
(-0.043705818 -0.025602205 0)
(-0.040315555 -0.028847997 0)
(-0.03653778 -0.031815921 0)
(-0.032408838 -0.034477726 0)
(-0.027968434 -0.036808098 0)
(-0.023259257 -0.038784889 0)
(-0.018326573 -0.040389324 0)
(-0.013217789 -0.041606172 0)
(-0.0079819985 -0.042423886 0)
(-0.0026695119 -0.04283471 0)
(0.0029646045 -0.048431538 0)
(0.0088662796 -0.047967001 0)
(0.014682714 -0.047042298 0)
(0.020357988 -0.045666211 0)
(0.025837538 -0.043851815 0)
(0.031068681 -0.041616354 0)
(0.036001119 -0.038981086 0)
(0.040587424 -0.035971082 0)
(0.044783493 -0.032614996 0)
(0.048548964 -0.028944797 0)
(0.051847608 -0.024995474 0)
(0.054647671 -0.020804705 0)
(0.056922175 -0.01641251 0)
(0.058649174 -0.011860874 0)
(0.059811964 -0.0071933565 0)
(0.060399238 -0.0024546852 0)
(0.0604052 0.0023096623 0)
(0.059829622 0.0070538854 0)
(0.058677853 0.011732293 0)
(0.056960778 0.016299739 0)
(0.054694724 0.020712055 0)
(0.051901313 0.024926484 0)
(0.048607272 0.028902099 0)
(0.04484418 0.03260021 0)
(0.040648178 0.03598476 0)
(0.036059624 0.039022687 0)
(0.031122713 0.041684265 0)
(0.025885046 0.043943414 0)
(0.020397171 0.04577797 0)
(0.014712094 0.047169916 0)
(0.0088847541 0.048105569 0)
(0.0029714918 0.04857573 0)
(-0.0029705087 0.048575771 0)
(-0.0088837805 0.048105693 0)
(-0.014711139 0.047170121 0)
(-0.020396245 0.045778254 0)
(-0.025884156 0.043943775 0)
(-0.031121869 0.041684698 0)
(-0.036058834 0.039023188 0)
(-0.040647448 0.035985325 0)
(-0.044843518 0.032600833 0)
(-0.048606685 0.028902773 0)
(-0.051900805 0.024927203 0)
(-0.0546943 0.020712813 0)
(-0.056960443 0.016300527 0)
(-0.058677609 0.011733105 0)
(-0.059829471 0.0070547133 0)
(-0.060405144 0.0023104983 0)
(-0.060399277 -0.002453849 0)
(-0.059812097 -0.007192528 0)
(-0.058649401 -0.011860061 0)
(-0.056922492 -0.016411721 0)
(-0.054648077 -0.020803946 0)
(-0.051848098 -0.024994753 0)
(-0.048549534 -0.028944121 0)
(-0.044784137 -0.032614372 0)
(-0.040588137 -0.035970516 0)
(-0.036001893 -0.038980584 0)
(-0.031069509 -0.04161592 0)
(-0.025838412 -0.043851453 0)
(-0.020358899 -0.045665926 0)
(-0.014683653 -0.047042092 0)
(-0.0088672379 -0.047966877 0)
(-0.0029655723 -0.048431496 0)
(0.0033098004 -0.054665318 0)
(0.0098986215 -0.054140838 0)
(0.01639222 -0.053096819 0)
(0.022728132 -0.051543193 0)
(0.02884541 -0.049494742 0)
(0.034685216 -0.046970963 0)
(0.040191381 -0.043995884 0)
(0.045310951 -0.040597844 0)
(0.049994692 -0.036809225 0)
(0.05419756 -0.032666151 0)
(0.057879133 -0.028208148 0)
(0.061003992 -0.023477771 0)
(0.063542061 -0.018520212 0)
(0.065468884 -0.013382867 0)
(0.066765856 -0.0081149029 0)
(0.067420403 -0.0027667936 0)
(0.067426095 0.0026101491 0)
(0.066782713 0.007964255 0)
(0.065496261 0.013243981 0)
(0.063578913 0.018398401 0)
(0.061048912 0.023377693 0)
(0.057930405 0.028133623 0)
(0.054253232 0.032620022 0)
(0.050052642 0.036793242 0)
(0.045368973 0.040612601 0)
(0.040247268 0.044040798 0)
(0.034736846 0.047044292 0)
(0.028890826 0.049593657 0)
(0.022765617 0.051663881 0)
(0.016420363 0.053234636 0)
(0.0099163705 0.054290483 0)
(0.0033165041 0.05482104 0)
(-0.0033154288 0.054821086 0)
(-0.0099153056 0.054290622 0)
(-0.016419319 0.053234866 0)
(-0.022764604 0.0516642 0)
(-0.028889853 0.04959406 0)
(-0.034735923 0.047044777 0)
(-0.040246404 0.044041359 0)
(-0.045368175 0.040613233 0)
(-0.050051919 0.036793938 0)
(-0.05425259 0.032620776 0)
(-0.057929851 0.028134428 0)
(-0.061048449 0.02337854 0)
(-0.063578547 0.018399283 0)
(-0.065495994 0.013244889 0)
(-0.066782548 0.007965181 0)
(-0.067426033 0.0026110841 0)
(-0.067420446 -0.0027658584 0)
(-0.066766002 -0.0081139763 0)
(-0.065469132 -0.013381958 0)
(-0.063542409 -0.018519328 0)
(-0.061004437 -0.023476922 0)
(-0.05787967 -0.028207341 0)
(-0.054198184 -0.032665395 0)
(-0.049995398 -0.036808527 0)
(-0.045311732 -0.04059721 0)
(-0.040192229 -0.043995321 0)
(-0.034686122 -0.046970477 0)
(-0.028846367 -0.049494338 0)
(-0.02272913 -0.051542874 0)
(-0.016393249 -0.053096589 0)
(-0.009899671 -0.054140698 0)
(-0.0033108603 -0.054665271 0)
(0.0037087628 -0.061639622 0)
(0.011091755 -0.061048037 0)
(0.018367982 -0.05987045 0)
(0.025467411 -0.058118082 0)
(0.032321717 -0.055807632 0)
(0.038864941 -0.052961122 0)
(0.04503413 -0.049605694 0)
(0.050769938 -0.045773351 0)
(0.056017203 -0.041500658 0)
(0.060725467 -0.036828396 0)
(0.064849465 -0.031801178 0)
(0.068349547 -0.026467026 0)
(0.071192056 -0.02087692 0)
(0.073349641 -0.015084318 0)
(0.07480151 -0.0091446581 0)
(0.075533626 -0.0031148415 0)
(0.075538834 0.0029472973 0)
(0.074816936 0.0089835276 0)
(0.073374694 0.014935767 0)
(0.07122578 0.020746631 0)
(0.068390656 0.026359979 0)
(0.064896393 0.031721459 0)
(0.060776428 0.036779043 0)
(0.056070259 0.041483543 0)
(0.050823074 0.045789111 0)
(0.045085328 0.049653704 0)
(0.038912263 0.05303952 0)