/*--------------------------------*- C++ -*----------------------------------*\
| =========                 |                                                 |
| \\      /  F ield         | OpenFOAM: The Open Source CFD Toolbox           |
|  \\    /   O peration     | Version:  2106                                  |
|   \\  /    A nd           | Website:  www.openfoam.com                      |
|    \\/     M anipulation  |                                                 |
\*---------------------------------------------------------------------------*/
FoamFile
{
    version     2.0;
    format      ascii;
    arch        "LSB;label=32;scalar=64";
    class       volVectorField;
    location    "0.044";
    object      U_0;
}
// * * * * * * * * * * * * * * * * * * * * * * * * * * * * * * * * * * * * * //

dimensions      [0 1 -1 0 0 0 0];

internalField   nonuniform List<vector> 
4096
(
(0.0012963553 -0.0012903838 0)
(0.0038771191 -0.001278023 0)
(0.0064207395 -0.0012534168 0)
(0.008902842 -0.0012167974 0)
(0.011299633 -0.0011685102 0)
(0.013588123 -0.0011090115 0)
(0.015746346 -0.0010388634 0)
(0.01775357 -0.00095872995 0)
(0.019590489 -0.00086937017 0)
(0.021239415 -0.00077163187 0)
(0.022684441 -0.00066644371 0)
(0.023911603 -0.00055480678 0)
(0.024909009 -0.00043778545 0)
(0.02566696 -0.00031649745 0)
(0.026178048 -0.00019210354 0)
(0.026437229 -6.5796651e-05 0)
(0.026441869 6.1210449e-05 0)
(0.026191817 0.00018768822 0)
(0.02568931 0.00031242983 0)
(0.024939091 0.00043421849 0)
(0.023948265 0.00055187647 0)
(0.02272628 0.00066426205 0)
(0.02128483 0.00077028218 0)
(0.019637744 0.0008689038 0)
(0.017800858 0.00095916434 0)
(0.01579186 0.0010401815 0)
(0.013630125 0.0011111621 0)
(0.01133652 0.0011714105 0)
(0.0089332106 0.0012203355 0)
(0.0064434348 0.0012574567 0)
(0.0038912824 0.0012824092 0)
(0.001301456 0.0012949477 0)
(-0.0013009713 0.0012949489 0)
(-0.0038908023 0.0012824127 0)
(-0.0064429638 0.0012574624 0)
(-0.0089327533 0.0012203434 0)
(-0.011336081 0.0011714205 0)
(-0.013629707 0.0011111741 0)
(-0.015791469 0.0010401954 0)
(-0.017800497 0.00095918006 0)
(-0.019637416 0.00086892114 0)
(-0.021284539 0.00077030097 0)
(-0.022726028 0.00066428212 0)
(-0.023948054 0.00055189762 0)
(-0.024938923 0.00043424051 0)
(-0.025689187 0.00031245252 0)
(-0.02619174 0.00018771136 0)
(-0.026441838 6.1233811e-05 0)
(-0.026437245 -6.5773286e-05 0)
(-0.026178112 -0.0001920804 0)
(-0.02566707 -0.00031647474 0)
(-0.024909163 -0.00043776341 0)
(-0.023911801 -0.00055478562 0)
(-0.022684681 -0.00066642361 0)
(-0.021239693 -0.00077161305 0)
(-0.019590804 -0.0008693528 0)
(-0.017753918 -0.0009587142 0)
(-0.015746724 -0.0010388495 0)
(-0.013588527 -0.0011089994 0)
(-0.011300059 -0.0011685002 0)
(-0.0089032862 -0.0012167894 0)
(-0.0064211974 -0.0012534111 0)
(-0.0038775862 -0.0012780195 0)
(-0.001296827 -0.0012903826 0)
(0.0013159663 -0.0038860987 0)
(0.0039357708 -0.0038488735 0)
(0.0065178707 -0.0037747706 0)
(0.0090375236 -0.0036644891 0)
(0.011470576 -0.0035190697 0)
(0.013793691 -0.0033398856 0)
(0.015984572 -0.0031286306 0)
(0.018022171 -0.0028873036 0)
(0.019886893 -0.0026181909 0)
(0.021560779 -0.0023238454 0)
(0.023027685 -0.002007064 0)
(0.024273433 -0.0016708613 0)
(0.025285952 -0.0013184427 0)
(0.026055395 -0.00095317439 0)
(0.026574242 -0.00057855205 0)
(0.02683737 -0.00019816854 0)
(0.026842111 0.00018432003 0)
(0.026588288 0.00056523385 0)
(0.026078206 0.00094089878 0)
(0.025316655 0.0013076773 0)
(0.024310854 0.0016620174 0)
(0.02307039 0.0020004796 0)
(0.021607135 0.002319772 0)
(0.019935126 0.0026167833 0)
(0.018070437 0.0028886146 0)
(0.016031027 0.0031326084 0)
(0.013836561 0.0033463763 0)
(0.011508226 0.0035278227 0)
(0.0090685189 0.0036751674 0)
(0.0065410335 0.0037869632 0)
(0.0039502244 0.0038621113 0)
(0.0013211692 0.0038998728 0)
(-0.0013206782 0.0038998763 0)
(-0.003949738 0.0038621217 0)
(-0.0065405564 0.0037869803 0)
(-0.0090680557 0.0036751912 0)
(-0.011507781 0.0035278529 0)
(-0.013836139 0.0033464125 0)
(-0.016030631 0.0031326504 0)
(-0.018070072 0.0028886619 0)
(-0.019934793 0.0026168355 0)
(-0.021606839 0.0023198286 0)
(-0.023070134 0.00200054 0)
(-0.02431064 0.0016620811 0)
(-0.025316485 0.0013077436 0)
(-0.026078082 0.00094096708 0)
(-0.026588211 0.0005653035 0)
(-0.026842081 0.00018439036 0)
(-0.026837387 -0.00019809821 0)
(-0.026574306 -0.00057848238 0)
(-0.026055506 -0.00095310606 0)
(-0.025286108 -0.0013183764 0)
(-0.024273634 -0.0016707976 0)
(-0.023027928 -0.0020070035 0)
(-0.021561061 -0.0023237888 0)
(-0.019887211 -0.0026181386 0)
(-0.018022524 -0.0028872562 0)
(-0.015984955 -0.0031285885 0)
(-0.0137941 -0.0033398493 0)
(-0.011471008 -0.0035190394 0)
(-0.0090379737 -0.0036644653 0)
(-0.0065183348 -0.0037747535 0)
(-0.0039362441 -0.0038488631 0)
(-0.0013164443 -0.0038860952 0)
(0.0013489458 -0.006538205 0)
(0.0040344033 -0.0064755753 0)
(0.0066812103 -0.0063509008 0)
(0.0092640035 -0.0061653574 0)
(0.011758023 -0.005920696 0)
(0.014139349 -0.0056192274 0)
(0.016385123 -0.005263801 0)
(0.018473772 -0.0048577798 0)
(0.020385208 -0.0044050105 0)
(0.022101025 -0.0039097883 0)
(0.023604673 -0.0033768185 0)
(0.02488162 -0.0028111732 0)
(0.025919492 -0.0022182452 0)
(0.026708199 -0.0016036976 0)
(0.027240031 -0.00097341193 0)
(0.027509739 -0.0003334322 0)
(0.027514589 0.00031009178 0)
(0.027254395 0.00095096537 0)
(0.026731527 0.0015830057 0)
(0.025950891 0.0022000986 0)
(0.024919888 0.0027962659 0)
(0.023648346 0.00336572 0)
(0.022148431 0.0039029222 0)
(0.020434535 0.004402638 0)
(0.018523133 0.0048599896 0)
(0.016432632 0.0052705059 0)
(0.014183191 0.0056301679 0)
(0.011796527 0.0059354499 0)
(0.0092957014 0.0061833563 0)
(0.006704898 0.006371452 0)
(0.0040491843 0.0064978884 0)
(0.0013542662 0.0065614219 0)
(-0.0013537646 0.0065614278 0)
(-0.0040486874 0.0064979058 0)
(-0.0067044107 0.0063714808 0)
(-0.0092952282 0.0061833962 0)
(-0.011796072 0.0059355006 0)
(-0.01418276 0.0056302288 0)
(-0.016432227 0.0052705765 0)
(-0.018522759 0.0048600692 0)
(-0.020434195 0.0044027257 0)
(-0.022148129 0.0039030173 0)
(-0.023648084 0.0033658215 0)
(-0.024919669 0.0027963728 0)
(-0.025950718 0.0022002101 0)
(-0.0267314 0.0015831204 0)
(-0.027254316 0.0009510824 0)
(-0.027514558 0.00031020995 0)
(-0.027509756 -0.00033331401 0)
(-0.027240097 -0.00097329486 0)
(-0.026708313 -0.0016035828 0)
(-0.025919652 -0.0022181337 0)
(-0.024881824 -0.0028110661 0)
(-0.023604921 -0.0033767169 0)
(-0.022101313 -0.0039096931 0)
(-0.020385534 -0.0044049226 0)
(-0.018474132 -0.0048577002 0)
(-0.016385514 -0.0052637303 0)
(-0.014139767 -0.0056191664 0)
(-0.011758465 -0.0059206453 0)
(-0.0092644635 -0.0061653173 0)
(-0.0066816844 -0.0063508719 0)
(-0.0040348869 -0.0064755579 0)
(-0.0013494342 -0.0065381992 0)
(0.0013955364 -0.0092696063 0)
(0.0041737425 -0.0091808113 0)
(0.0069119603 -0.0090040504 0)
(0.0095839484 -0.0087409911 0)
(0.012164091 -0.0083941162 0)
(0.014627639 -0.0079667017 0)
(0.016950946 -0.0074627879 0)
(0.019111693 -0.0068871433 0)
(0.021089099 -0.0062452216 0)
(0.022864122 -0.0055431129 0)
(0.024419643 -0.0047874882 0)
(0.025740629 -0.0039855388 0)
(0.026814283 -0.0031449105 0)
(0.027630167 -0.0022736322 0)
(0.028180306 -0.0013800421 0)
(0.028459273 -0.00047270888 0)
(0.028464243 0.00043964931 0)
(0.028195024 0.0013482486 0)
(0.02765407 0.0022443226 0)
(0.026846457 0.0031192061 0)
(0.025779842 0.0039644227 0)
(0.024464394 0.0047717673 0)
(0.022912699 0.0055333871 0)
(0.021139643 0.006241861 0)
(0.019162273 0.0068902734 0)
(0.016999628 0.0074722853 0)
(0.014672565 0.0079821985 0)
(0.012203546 0.0084150146 0)
(0.0096164304 0.008766486 0)
(0.0069362346 0.0090331606 0)
(0.0041888906 0.009212417 0)
(0.0014009906 0.0093024924 0)
(-0.0014004741 0.0093025006 0)
(-0.004188379 0.0092124416 0)
(-0.0069357328 0.0090332013 0)
(-0.0096159432 0.0087665425 0)
(-0.012203078 0.0084150863 0)
(-0.01467212 0.0079822847 0)
(-0.016999212 0.0074723851 0)
(-0.019161888 0.006890386 0)
(-0.021139294 0.0062419852 0)
(-0.022912388 0.0055335217 0)
(-0.024464125 0.0047719109 0)
(-0.025779617 0.0039645741 0)
(-0.026846278 0.0031193638 0)
(-0.027653939 0.002244485 0)
(-0.028194942 0.0013484142 0)
(-0.028464211 0.00043981656 0)
(-0.028459291 -0.00047254161 0)
(-0.028180374 -0.0013798764 0)
(-0.027630284 -0.0022734697 0)
(-0.026814448 -0.0031447527 0)
(-0.025740841 -0.0039853873 0)
(-0.024419898 -0.0047873443 0)
(-0.022864419 -0.0055429781 0)
(-0.021089434 -0.0062450972 0)
(-0.019112064 -0.0068870305 0)
(-0.016951349 -0.0074626879 0)
(-0.01462807 -0.0079666153 0)
(-0.012164545 -0.0083940443 0)
(-0.0095844223 -0.0087409345 0)
(-0.0069124488 -0.0090040096 0)
(-0.0041742408 -0.0091807866 0)
(-0.0013960396 -0.0092695981 0)
(0.0014562969 -0.01210755 0)
(0.0043554593 -0.011991566 0)
(0.0072128873 -0.011760682 0)
(0.010001194 -0.011417075 0)
(0.012693645 -0.010963991 0)
(0.015264413 -0.010405707 0)
(0.01768882 -0.009747503 0)
(0.019943576 -0.0089956075 0)
(0.022006994 -0.0081571452 0)
(0.023859207 -0.0072400715 0)
(0.025482351 -0.0062531006 0)
(0.026860742 -0.005205626 0)
(0.02798103 -0.0041076345 0)
(0.028832325 -0.0029696136 0)
(0.029406311 -0.0018024538 0)
(0.029697326 -0.00061734686 0)
(0.029702428 0.00057432048 0)
(0.029421419 0.001761075 0)
(0.028856862 0.0029314669 0)
(0.028014057 0.0040741798 0)
(0.026900996 0.0051781428 0)
(0.025528289 0.0062326393 0)
(0.023909073 0.0072274131 0)
(0.022058881 0.0081527711 0)
(0.019995499 0.0089996811 0)
(0.017738797 0.0097598636 0)
(0.015310533 0.010425876 0)
(0.012734151 0.01099119 0)
(0.010034542 0.011450257 0)
(0.0072378101 0.011798569 0)
(0.0043710144 0.012032701 0)
(0.0014619014 0.012150351 0)
(-0.0014613655 0.012150362 0)
(-0.0043704835 0.012032733 0)
(-0.0072372894 0.011798622 0)
(-0.010034036 0.011450331 0)
(-0.012733665 0.010991283 0)
(-0.015310072 0.010425988 0)
(-0.017738364 0.0097599938 0)
(-0.0199951 0.0089998278 0)
(-0.022058518 0.0081529329 0)
(-0.023908751 0.0072275885 0)
(-0.02552801 0.0062328266 0)
(-0.026900762 0.0051783401 0)
(-0.028013872 0.0040743853 0)
(-0.028856727 0.0029316786 0)
(-0.029421334 0.0017612909 0)
(-0.029702395 0.00057453845 0)
(-0.029697345 -0.00061712886 0)
(-0.029406381 -0.0018022379 0)
(-0.028832446 -0.0029694017 0)
(-0.027981201 -0.0041074289 0)
(-0.026860961 -0.0052054285 0)
(-0.025482616 -0.0062529131 0)
(-0.023859515 -0.0072398959 0)
(-0.022007343 -0.0081569831 0)
(-0.019943961 -0.0089954605 0)
(-0.017689239 -0.0097473725 0)
(-0.01526486 -0.010405594 0)
(-0.012694117 -0.010963897 0)
(-0.010001686 -0.011417002 0)
(-0.0072133945 -0.011760629 0)
(-0.0043559767 -0.011991534 0)
(-0.0014568194 -0.012107539 0)
(0.0015321254 -0.015081193 0)
(0.00458224 -0.014936716 0)
(0.0075884395 -0.014649112 0)
(0.010521907 -0.014221096 0)
(0.013354512 -0.013656709 0)
(0.01605908 -0.012961282 0)
(0.018609646 -0.012141393 0)
(0.020981706 -0.011204802 0)
(0.023152447 -0.010160386 0)
(0.025100968 -0.0090180555 0)
(0.026808479 -0.0077886662 0)
(0.028258485 -0.0064839203 0)
(0.029436943 -0.005116258 0)
(0.030332403 -0.0036987429 0)
(0.030936122 -0.0022449404 0)
(0.031242151 -0.00076879041 0)
(0.031247395 0.00071552454 0)
(0.030951656 0.0021937142 0)
(0.03035763 0.0036515175 0)
(0.029470899 0.0050748409 0)
(0.02829987 0.0064498957 0)
(0.02685571 0.0077633347 0)
(0.025152237 0.0090023838 0)
(0.023205794 0.01015497 0)
(0.021035091 0.011209845 0)
(0.01866103 0.012156695 0)
(0.0161065 0.012986251 0)
(0.01339616 0.01369038 0)
(0.010556197 0.014262174 0)
(0.0076140695 0.014696016 0)
(0.00459824 0.01498764 0)
(0.0015378963 0.01513418 0)
(-0.001537336 0.015134193 0)
(-0.0045976851 0.01498768 0)
(-0.0076135252 0.014696082 0)
(-0.010555669 0.014262266 0)
(-0.013395653 0.013690496 0)
(-0.016106018 0.01298639 0)
(-0.018660578 0.012156857 0)
(-0.021034674 0.011210027 0)
(-0.023205415 0.010155172 0)
(-0.0251519 0.0090026018 0)
(-0.026855418 0.0077635674 0)
(-0.028299626 0.0064501409 0)
(-0.029470705 0.0050750962 0)
(-0.030357489 0.0036517805 0)
(-0.030951567 0.0021939824 0)
(-0.031247361 0.00071579535 0)
(-0.031242171 -0.00076851957 0)
(-0.030936196 -0.0022446721 0)
(-0.03033253 -0.0036984797 0)
(-0.029437122 -0.0051160025 0)
(-0.028258714 -0.0064836749 0)
(-0.026808757 -0.0077884332 0)
(-0.025101291 -0.0090178372 0)
(-0.023152812 -0.010160185 0)
(-0.020982109 -0.01120462 0)
(-0.018610084 -0.012141231 0)
(-0.016059548 -0.012961142 0)
(-0.013355006 -0.013656592 0)
(-0.010522421 -0.014221004 0)
(-0.0075889701 -0.014649046 0)
(-0.0045827813 -0.014936676 0)
(-0.001532672 -0.015081179 0)
(0.0016243211 -0.018221718 0)
(0.0048579696 -0.018047144 0)
(0.0080450504 -0.017699626 0)
(0.011155006 -0.017182447 0)
(0.01415801 -0.01650049 0)
(0.017025246 -0.015660202 0)
(0.019729187 -0.01466953 0)
(0.022243853 -0.013537856 0)
(0.02454506 -0.012275906 0)
(0.026610651 -0.010895659 0)
(0.028420711 -0.0094102327 0)
(0.029957758 -0.0078337691 0)
(0.031206912 -0.0061813 0)
(0.032156041 -0.0044686102 0)
(0.032795883 -0.0027120899 0)
(0.033120139 -0.00092858118 0)
(0.033125537 0.00086478121 0)
(0.03281187 0.0026507328 0)
(0.032182005 0.0044120449 0)
(0.031241859 0.0061316914 0)
(0.030000351 0.0077930149 0)
(0.028469321 0.0093798907 0)
(0.026663417 0.010876887 0)
(0.024599965 0.012269418 0)
(0.022298799 0.013543895 0)
(0.019782074 0.014687857 0)
(0.017074055 0.015690107 0)
(0.01420088 0.01654082 0)
(0.011190306 0.017231647 0)
(0.0080714379 0.017755804 0)
(0.0048744477 0.018108137 0)
(0.0016302731 0.018285183 0)
(-0.0016296832 0.018285199 0)
(-0.0048738634 0.018108186 0)
(-0.0080708649 0.017755883 0)
(-0.011189749 0.017231757 0)
(-0.014200346 0.01654096 0)
(-0.017073548 0.015690275 0)
(-0.019781599 0.014688052 0)
(-0.02229836 0.013544114 0)
(-0.024599567 0.012269661 0)
(-0.026663063 0.010877149 0)
(-0.028469014 0.009380171 0)
(-0.030000095 0.0077933103 0)
(-0.031241655 0.006131999 0)
(-0.032181856 0.0044123618 0)
(-0.032811777 0.0026510559 0)
(-0.033125501 0.00086510744 0)
(-0.033120161 -0.0009282549 0)
(-0.032795961 -0.0027117667 0)
(-0.032156175 -0.0044682932 0)
(-0.031207101 -0.0061809921 0)
(-0.029958 -0.0078334734 0)
(-0.028421004 -0.009409952 0)
(-0.026610991 -0.010895396 0)
(-0.024545444 -0.012275663 0)
(-0.022244278 -0.013537636 0)
(-0.019729649 -0.014669335 0)
(-0.017025739 -0.015660033 0)
(-0.01415853 -0.01650035 0)
(-0.011155549 -0.017182336 0)
(-0.0080456096 -0.017699546 0)
(-0.00485854 -0.018047095 0)
(-0.0016248971 -0.018221702 0)
(0.0017346799 -0.021563291 0)
(0.0051880185 -0.021356684 0)
(0.0085916125 -0.020945402 0)
(0.011912821 -0.020333331 0)
(0.015119782 -0.019526252 0)
(0.018181721 -0.018531799 0)
(0.021069234 -0.017359381 0)
(0.023754577 -0.016020103 0)
(0.026211924 -0.014526666 0)
(0.028417618 -0.012893247 0)
(0.030350396 -0.011135376 0)
(0.031991596 -0.0092697895 0)
(0.033325337 -0.007314279 0)
(0.034338672 -0.0052875251 0)
(0.035021722 -0.0032089235 0)
(0.035367768 -0.0010984039 0)
(0.035373325 0.0010237586 0)
(0.035038181 0.0031371362 0)
(0.034365402 0.005221344 0)
(0.033361315 0.007256237 0)
(0.032035446 0.0092221068 0)
(0.030400441 0.011099875 0)
(0.028471942 0.012871283 0)
(0.026268451 0.014519074 0)
(0.023811147 0.016027167 0)
(0.021123686 0.017380821 0)
(0.018231976 0.018566785 0)
(0.015163926 0.019573435 0)
(0.011949172 0.020390892 0)
(0.008618791 0.021011127 0)
(0.0052049974 0.021428044 0)
(0.0017408243 0.021637543 0)
(-0.0017401993 0.021637561 0)
(-0.0052043784 0.021428101 0)
(-0.0086181839 0.021011221 0)
(-0.011948582 0.020391022 0)
(-0.01516336 0.0195736 0)
(-0.018231439 0.018566984 0)
(-0.021123182 0.017381051 0)
(-0.023810682 0.016027426 0)
(-0.026268029 0.01451936 0)
(-0.028471567 0.012871593 0)
(-0.030400116 0.011100206 0)
(-0.032035175 0.0092224552 0)
(-0.0333611 0.0072565998 0)
(-0.034365245 0.0052217177 0)
(-0.035038082 0.0031375173 0)
(-0.035373287 0.0010241434 0)
(-0.035367791 -0.0010980191 0)
(-0.035021805 -0.0032085423 0)
(-0.034338815 -0.0052871511 0)
(-0.033325537 -0.0073139159 0)
(-0.031991853 -0.0092694406 0)
(-0.030350706 -0.011135045 0)
(-0.028417978 -0.012892937 0)
(-0.026212331 -0.014526379 0)
(-0.023755027 -0.016019844 0)
(-0.021069723 -0.01735915 0)
(-0.018182244 -0.0185316 0)
(-0.015120334 -0.019526087 0)
(-0.011913396 -0.0203332 0)
(-0.0085922055 -0.020945308 0)
(-0.0051886235 -0.021356627 0)
(-0.0017352908 -0.021563272 0)
(0.0018656091 -0.025144215 0)
(0.0055795861 -0.024903271 0)
(0.0092400471 -0.024423639 0)
(0.012811877 -0.02370985 0)
(0.016260803 -0.022768654 0)
(0.019553718 -0.021608955 0)
(0.022658998 -0.020241732 0)
(0.025546802 -0.018679942 0)
(0.028189359 -0.016938399 0)
(0.030561232 -0.015033644 0)
(0.032639559 -0.012983791 0)
(0.034404282 -0.010808359 0)
(0.035838331 -0.0085280994 0)
(0.036927798 -0.006164795 0)
(0.037662068 -0.003741063 0)
(0.038033929 -0.001280141 0)
(0.038039646 0.0011943318 0)
(0.037678998 0.0036585391 0)
(0.036955294 0.0060887155 0)
(0.035875342 0.008461376 0)
(0.03444939 0.010753544 0)
(0.03269104 0.012942979 0)
(0.030617116 0.015008393 0)
(0.028247511 0.016929669 0)
(0.025604999 0.018688059 0)
(0.022715018 0.020266376 0)
(0.019605423 0.021649171 0)
(0.016306223 0.02282289 0)
(0.012849284 0.023776017 0)
(0.0092680215 0.02449919 0)
(0.0055970712 0.0249853 0)
(0.0018719518 0.025229568 0)
(-0.0018712856 0.02522959 0)
(-0.0055964114 0.024985366 0)
(-0.0092673743 0.024499299 0)
(-0.012848656 0.023776168 0)
(-0.01630562 0.022823082 0)
(-0.01960485 0.021649402 0)
(-0.022714481 0.020266643 0)
(-0.025604504 0.01868836 0)
(-0.028247061 0.016930002 0)
(-0.030616716 0.015008753 0)
(-0.032690694 0.012943363 0)
(-0.034449101 0.010753949 0)
(-0.035875112 0.0084617975 0)
(-0.036955127 0.0060891497 0)
(-0.037678894 0.0036589817 0)
(-0.038039605 0.0011947788 0)
(-0.038033954 -0.0012796939 0)
(-0.037662156 -0.0037406201 0)
(-0.03692795 -0.0061643605 0)
(-0.035838545 -0.0085276775 0)
(-0.034404556 -0.010807954 0)
(-0.03263989 -0.012983406 0)
(-0.030561616 -0.015033284 0)
(-0.028189794 -0.016938066 0)
(-0.025547283 -0.01867964 0)
(-0.02265952 -0.020241464 0)
(-0.019554276 -0.021608724 0)
(-0.016261392 -0.022768462 0)
(-0.012812491 -0.023709698 0)
(-0.0092406798 -0.024423529 0)
(-0.0055802316 -0.024903205 0)
(-0.001866261 -0.025144193 0)
(0.0020202403 -0.029008271 0)
(0.0060420369 -0.028730263 0)
(0.010005861 -0.028176851 0)
(0.013873673 -0.027353268 0)
(0.01760835 -0.026267307 0)
(0.021174033 -0.024929248 0)
(0.024536473 -0.023351767 0)
(0.027663354 -0.02154982 0)
(0.030524606 -0.01954051 0)
(0.03309269 -0.017342927 0)
(0.035342862 -0.014977977 0)
(0.037253411 -0.012468187 0)
(0.038805871 -0.0098374988 0)
(0.039985194 -0.0071110469 0)
(0.040779904 -0.0043149236 0)
(0.041182208 -0.0014759352 0)
(0.041188074 0.0013786508 0)
(0.040797278 0.0042213638 0)
(0.040013411 0.0070247931 0)
(0.038843851 0.009761852 0)
(0.037299702 0.01240604 0)
(0.035395693 0.014931706 0)
(0.033150041 0.017314297 0)
(0.030584285 0.01953061 0)
(0.027723081 0.021559019 0)
(0.024593968 0.023379702 0)
(0.021227104 0.024974837 0)
(0.017654975 0.026328791 0)
(0.013912078 0.027428278 0)
(0.010034589 0.028262499 0)
(0.0060600049 0.028823256 0)
(0.0020267777 0.029105033 0)
(-0.0020260638 0.029105058 0)
(-0.0060592979 0.028823332 0)
(-0.010033896 0.028262625 0)
(-0.013911405 0.027428452 0)
(-0.017654328 0.026329011 0)
(-0.021226491 0.024975102 0)
(-0.024593393 0.023380009 0)
(-0.02772255 0.021559365 0)
(-0.030583803 0.019530992 0)
(-0.033149613 0.017314711 0)
(-0.035395322 0.014932148 0)
(-0.037299393 0.012406506 0)
(-0.038843605 0.0097623362 0)
(-0.040013231 0.0070252919 0)
(-0.040797167 0.0042218723 0)
(-0.041188032 0.0013791643 0)
(-0.041182235 -0.0014754216 0)
(-0.04078 -0.0043144148 0)
(-0.039985357 -0.0071105478 0)
(-0.0388061 -0.0098370141 0)
(-0.037253705 -0.012467721 0)
(-0.035343217 -0.014977535 0)
(-0.033093103 -0.017342513 0)
(-0.030525073 -0.019540127 0)
(-0.02766387 -0.021549473 0)
(-0.024537033 -0.023351459 0)
(-0.021174632 -0.024928982 0)
(-0.017608982 -0.026267086 0)
(-0.013874332 -0.027353094 0)
(-0.010006539 -0.028176725 0)
(-0.0060427293 -0.028730187 0)
(-0.0020209397 -0.029008245 0)
(0.0022025076 -0.033206261 0)
(0.0065871354 -0.03288797 0)
(0.010908534 -0.032254371 0)
(0.015125216 -0.031311462 0)
(0.019196696 -0.030068171 0)
(0.02308387 -0.028536277 0)
(0.026749393 -0.026730303 0)
(0.030158033 -0.024667383 0)
(0.033277011 -0.022367107 0)
(0.036076312 -0.019851342 0)
(0.038528971 -0.017144029 0)
(0.040611337 -0.014270966 0)
(0.042303294 -0.011259564 0)
(0.043588461 -0.0081385978 0)
(0.044454346 -0.004937936 0)
(0.044892473 -0.0016882606 0)
(0.044898464 0.0015792209 0)
(0.044472091 0.0048330709 0)
(0.043617281 0.0080419213 0)
(0.042342086 0.011174775 0)
(0.040658617 0.014201309 0)
(0.038582931 0.017092165 0)
(0.03613489 0.01981925 0)
(0.033337969 0.022356007 0)
(0.030219043 0.024677689 0)
(0.026808127 0.026761608 0)
(0.023138088 0.028587368 0)
(0.019244335 0.030137077 0)
(0.015164464 0.031395528 0)
(0.010937903 0.032350362 0)
(0.0066055198 0.032992192 0)
(0.0022092219 0.033314709 0)
(-0.0022084533 0.033314738 0)
(-0.0066047585 0.032992279 0)
(-0.010937157 0.032350505 0)
(-0.015163739 0.031395726 0)
(-0.019243639 0.030137329 0)
(-0.023137428 0.028587671 0)
(-0.026807508 0.026761958 0)
(-0.030218472 0.024678083 0)
(-0.033337451 0.022356442 0)
(-0.036134429 0.019819721 0)
(-0.038582533 0.017092668 0)
(-0.040658284 0.014201838 0)
(-0.042341822 0.011175327 0)
(-0.043617088 0.0080424894 0)
(-0.044471972 0.0048336501 0)
(-0.044898419 0.0015798058 0)
(-0.044892502 -0.0016876756 0)
(-0.044454449 -0.0049373565 0)
(-0.043588637 -0.0081380292 0)
(-0.042303542 -0.011259011 0)
(-0.040611653 -0.014270435 0)
(-0.038529353 -0.017143526 0)
(-0.036076756 -0.01985087 0)
(-0.033277514 -0.022366671 0)
(-0.030158589 -0.024666987 0)
(-0.026749996 -0.026729952 0)
(-0.023084515 -0.028535974 0)
(-0.019197377 -0.030067919 0)
(-0.015125926 -0.031311263 0)
(-0.010909265 -0.032254228 0)
(-0.0065878819 -0.032887883 0)
(-0.0022032615 -0.033206232 0)
(0.0024171522 -0.037797665 0)
(0.0072290601 -0.037435296 0)
(0.011971544 -0.036713958 0)
(0.016599054 -0.035640485 0)
(0.021067142 -0.034225053 0)
(0.025332882 -0.032481082 0)
(0.029355282 -0.030425121 0)
(0.033095675 -0.028076692 0)
(0.036518093 -0.025458111 0)
(0.039589604 -0.022594285 0)
(0.042280635 -0.019512482 0)
(0.044565247 -0.016242076 0)
(0.046421389 -0.01281428 0)
(0.047831109 -0.0092618495 0)
(0.048780725 -0.0056187823 0)
(0.049260958 -0.0019199979 0)
(0.049267029 0.0017989894 0)
(0.048798705 0.0055024063 0)
(0.04786031 0.0091545608 0)
(0.046460695 0.012720184 0)
(0.044613154 0.016164772 0)
(0.042335312 0.019454923 0)
(0.039648962 0.022558667 0)
(0.036579865 0.025445788 0)
(0.033157503 0.028088123 0)
(0.029414807 0.030459855 0)
(0.025387837 0.032537772 0)
(0.021115436 0.034301512 0)
(0.016638852 0.035733768 0)
(0.012001339 0.036820474 0)
(0.0072477309 0.037550948 0)
(0.0024240048 0.037918007 0)
(-0.0024231737 0.03791804 0)
(-0.0072469078 0.037551046 0)
(-0.012000531 0.036820636 0)
(-0.016638068 0.035733993 0)
(-0.021114683 0.034301797 0)
(-0.025387123 0.032538115 0)
(-0.029414138 0.030460251 0)
(-0.033156885 0.02808857 0)
(-0.036579304 0.02544628 0)
(-0.039648465 0.022559201 0)
(-0.042334881 0.019455492 0)
(-0.044612794 0.016165371 0)
(-0.04646041 0.012720808 0)
(-0.047860103 0.0091552038 0)
(-0.048798576 0.0055030619 0)
(-0.04926698 0.0017996513 0)
(-0.04926099 -0.0019193359 0)
(-0.048780836 -0.0056181264 0)
(-0.0478313 -0.009261206 0)
(-0.046421657 -0.012813655 0)
(-0.044565589 -0.016241476 0)
(-0.042281049 -0.019511912 0)
(-0.039590086 -0.022593751 0)
(-0.036518637 -0.025457618 0)
(-0.033096277 -0.028076244 0)
(-0.029355935 -0.030424724 0)
(-0.025333581 -0.032480739 0)
(-0.021067879 -0.034224767 0)
(-0.016599823 -0.03564026 0)
(-0.011972336 -0.036713795 0)
(-0.0072298682 -0.037435198 0)
(-0.0024179684 -0.037797632 0)
(0.0026696015 -0.042852206 0)
(0.007984041 -0.042441288 0)
(0.013221765 -0.041623312 0)
(0.018332445 -0.040406039 0)
(0.023266968 -0.038801017 0)
(0.02797791 -0.036823484 0)
(0.032419989 -0.034492222 0)
(0.036550498 -0.031829386 0)
(0.040329718 -0.028860303 0)
(0.04372129 -0.025613233 0)
(0.04669257 -0.022119108 0)
(0.049214938 -0.01841125 0)
(0.051264067 -0.014525054 0)
(0.052820162 -0.010497663 0)
(0.053868144 -0.0063676182 0)
(0.054397798 -0.0021745038 0)
(0.054403872 0.0020414288 0)
(0.053886135 0.0062396377 0)
(0.052849382 0.010379675 0)
(0.051303398 0.014421574 0)
(0.049262877 0.018326235 0)
(0.046747285 0.022055806 0)
(0.043780691 0.025574058 0)
(0.040391538 0.028846744 0)
(0.036612379 0.031841948 0)
(0.032479571 0.034530408 0)
(0.028032925 0.036885815 0)
(0.023315325 0.038885087 0)
(0.018372309 0.040508609 0)
(0.013251629 0.041740435 0)
(0.008002782 0.042568458 0)
(0.0026765251 0.042984534 0)
(-0.0026756228 0.042984571 0)
(-0.0080018883 0.042568568 0)
(-0.013250753 0.041740618 0)
(-0.018371458 0.040508862 0)
(-0.023314508 0.038885408 0)
(-0.02803215 0.036886201 0)
(-0.032478845 0.034530855 0)
(-0.036611709 0.031842452 0)
(-0.04039093 0.028847299 0)
(-0.043780151 0.025574659 0)
(-0.046746818 0.022056447 0)
(-0.049262487 0.018326911 0)
(-0.051303089 0.014422277 0)
(-0.052849157 0.010380399 0)
(-0.053885996 0.006240376 0)
(-0.05440382 0.0020421743 0)
(-0.054397833 -0.0021737582 0)
(-0.053868266 -0.0063668795 0)
(-0.052820369 -0.010496938 0)
(-0.051264358 -0.01452435 0)
(-0.04921531 -0.018410574 0)
(-0.04669302 -0.022118466 0)
(-0.043721813 -0.02561263 0)
(-0.040330309 -0.028859747 0)
(-0.036551152 -0.031828882 0)
(-0.032420699 -0.034491774 0)
(-0.027978669 -0.036823097 0)
(-0.023267769 -0.038800695 0)
(-0.01833328 -0.040405785 0)
(-0.013222626 -0.041623129 0)
(-0.0079849194 -0.042441177 0)
(-0.0026704887 -0.042852169 0)
(0.0029656615 -0.048451019 0)
(0.0088694406 -0.047986295 0)
(0.014687949 -0.047061219 0)
(0.020365246 -0.045684578 0)
(0.02584675 -0.043869451 0)
(0.031079758 -0.04163309 0)
(0.036013955 -0.038996761 0)
(0.040601896 -0.035985545 0)
(0.044799461 -0.032628107 0)
(0.048566275 -0.028956431 0)
(0.051866096 -0.025005518 0)
(0.054667158 -0.020813062 0)
(0.056942473 -0.0164191 0)
(0.058670089 -0.011865632 0)
(0.059833294 -0.0071962366 0)
(0.060420779 -0.0024556594 0)
(0.060426743 0.0023106038 0)
(0.05985096 0.007056734 0)
(0.058698781 0.011737022 0)
(0.056981094 0.016306302 0)
(0.054714231 0.020720391 0)
(0.051919825 0.024936512 0)
(0.048624609 0.028913722 0)
(0.044860174 0.032613318 0)
(0.040662675 0.035999226 0)
(0.036072485 0.039038371 0)
(0.031133813 0.041701016 0)
(0.025894278 0.043961071 0)
(0.020404446 0.045796363 0)
(0.014717341 0.047188866 0)
(0.0088879228 0.048124895 0)
(0.0029725515 0.048595243 0)
(-0.0029715683 0.048595285 0)
(-0.008886949 0.048125018 0)
(-0.014716386 0.047189071 0)
(-0.020403519 0.045796647 0)
(-0.025893388 0.043961432 0)
(-0.031132969 0.041701449 0)
(-0.036071695 0.039038872 0)
(-0.040661945 0.035999791 0)
(-0.044859512 0.032613941 0)
(-0.048624021 0.028914397 0)
(-0.051919316 0.024937232 0)
(-0.054713807 0.020721149 0)
(-0.056980758 0.016307091 0)
(-0.058698536 0.011737834 0)
(-0.059850809 0.0070575621 0)
(-0.060426687 0.00231144 0)
(-0.060420817 -0.002454823 0)
(-0.059833427 -0.0071954079 0)
(-0.058670316 -0.011864819 0)
(-0.056942791 -0.01641831 0)
(-0.054667564 -0.020812303 0)
(-0.051866587 -0.025004797 0)
(-0.048566846 -0.028955755 0)
(-0.044800106 -0.032627483 0)
(-0.040602609 -0.035984978 0)
(-0.036014729 -0.038996258 0)
(-0.031080586 -0.041632656 0)
(-0.025847624 -0.043869089 0)
(-0.020366158 -0.045684293 0)
(-0.014688888 -0.047061013 0)
(-0.0088703991 -0.047986171 0)
(-0.0029666295 -0.048450977 0)
(0.0033109549 -0.054686996 0)
(0.0099020743 -0.054162307 0)
(0.016397938 -0.053117874 0)
(0.02273606 -0.051563632 0)
(0.028855473 -0.049514368 0)
(0.034697315 -0.046989587 0)
(0.040205402 -0.044013327 0)
(0.045326759 -0.040613938 0)
(0.050012135 -0.036823816 0)
(0.05421647 -0.032679097 0)
(0.057899328 -0.028219325 0)
(0.061025279 -0.023487071 0)
(0.063564234 -0.018527545 0)
(0.06549173 -0.013388162 0)
(0.066789156 -0.0081181086 0)
(0.067443933 -0.0027678785 0)
(0.067449627 0.0026111959 0)
(0.066806022 0.007967424 0)
(0.065519122 0.013249242 0)
(0.063601105 0.018405704 0)
(0.061070221 0.023386968 0)
(0.057950627 0.028144782 0)
(0.05427217 0.032632956 0)
(0.050070114 0.036807828 0)
(0.045384811 0.040628699 0)
(0.040261318 0.044058251 0)
(0.034748972 0.047062934 0)
(0.028900912 0.049613306 0)
(0.022773564 0.051684349 0)
(0.016426095 0.053255725 0)
(0.0099198322 0.05431199 0)
(0.0033176618 0.054842756 0)
(-0.0033165863 0.054842802 0)
(-0.0099187672 0.054312128 0)
(-0.016425051 0.053255955 0)
(-0.022772551 0.051684668 0)
(-0.028899939 0.04961371 0)
(-0.034748049 0.047063418 0)
(-0.040260454 0.044058813 0)
(-0.045384013 0.040629331 0)
(-0.050069391 0.036808525 0)
(-0.054271528 0.032633711 0)
(-0.057950072 0.028145587 0)
(-0.061069759 0.023387816 0)
(-0.063600739 0.018406587 0)
(-0.065518855 0.013250151 0)
(-0.066805857 0.0079683502 0)
(-0.067449566 0.0026121312 0)
(-0.067443975 -0.0027669431 0)
(-0.066789303 -0.0081171817 0)
(-0.065491978 -0.013387252 0)
(-0.063564582 -0.018526661 0)
(-0.061025724 -0.023486222 0)
(-0.057899865 -0.028218518 0)
(-0.054217094 -0.032678341 0)
(-0.050012841 -0.036823117 0)
(-0.04532754 -0.040613304 0)
(-0.04020625 -0.044012764 0)
(-0.034698222 -0.0469891 0)
(-0.02885643 -0.049513963 0)
(-0.022737058 -0.051563312 0)
(-0.016398967 -0.053117644 0)
(-0.009903124 -0.054162168 0)
(-0.0033120151 -0.054686949 0)
(0.0037100386 -0.061663712 0)
(0.01109557 -0.061071895 0)
(0.0183743 -0.059893848 0)
(0.025476171 -0.058140794 0)
(0.032332835 -0.05582944 0)
(0.038878311 -0.052981818 0)
(0.045049622 -0.049625078 0)
(0.050787405 -0.045791236 0)
(0.056036475 -0.041516872 0)
(0.060746361 -0.036842783 0)
(0.064871778 -0.031813599 0)
(0.068373066 -0.026477361 0)
(0.071216555 -0.020885069 0)
(0.073374884 -0.015090203 0)
(0.074827255 -0.0091482213 0)
(0.075559624 -0.0031160481 0)
(0.075564836 0.0029484595 0)
(0.074842691 0.0089870481 0)
(0.073399954 0.014941613 0)
(0.071250302 0.020754746 0)
(0.068414202 0.026370286 0)
(0.064918737 0.031733859 0)
(0.060797355 0.036793417 0)
(0.056089566 0.041499753 0)
(0.050840575 0.045807 0)
(0.045100854 0.0496731 0)
(0.038925663 0.053060237 0)