/*--------------------------------*- C++ -*----------------------------------*\
| =========                 |                                                 |
| \\      /  F ield         | OpenFOAM: The Open Source CFD Toolbox           |
|  \\    /   O peration     | Version:  2106                                  |
|   \\  /    A nd           | Website:  www.openfoam.com                      |
|    \\/     M anipulation  |                                                 |
\*---------------------------------------------------------------------------*/
FoamFile
{
    version     2.0;
    format      ascii;
    arch        "LSB;label=32;scalar=64";
    class       volScalarField;
    location    "1.4";
    object      p_rgh;
}
// * * * * * * * * * * * * * * * * * * * * * * * * * * * * * * * * * * * * * //

dimensions      [1 -1 -2 0 0 0 0];

internalField   nonuniform List<scalar> 
90000
(
0.00333333
0.00333335
0.00333337
0.00333341
0.00333346
0.00333353
0.0033336
0.00333369
0.00333379
0.00333391
0.00333403
0.00333417
0.00333431
0.00333447
0.00333464
0.00333482
0.00333501
0.00333521
0.00333542
0.00333564
0.00333587
0.0033361
0.00333635
0.0033366
0.00333686
0.00333712
0.00333739
0.00333767
0.00333795
0.00333824
0.00333853
0.00333883
0.00333913
0.00333943
0.00333973
0.00334004
0.00334034
0.00334065
0.00334095
0.00334126
0.00334157
0.00334187
0.00334217
0.00334247
0.00334276
0.00334305
0.00334334
0.00334362
0.0033439
0.00334417
0.00334444
0.0033447
0.00334495
0.00334519
0.00334543
0.00334565
0.00334587
0.00334608
0.00334628
0.00334647
0.00334665
0.00334682
0.00334698
0.00334713
0.00334726
0.00334739
0.0033475
0.0033476
0.00334769
0.00334776
0.00334783
0.00334788
0.00334792
0.00334794
0.00334796
0.00334796
0.00334794
0.00334792
0.00334788
0.00334783
0.00334777
0.00334769
0.0033476
0.0033475
0.00334739
0.00334726
0.00334713
0.00334698
0.00334682
0.00334665
0.00334647
0.00334628
0.00334608
0.00334587
0.00334565
0.00334543
0.00334519
0.00334495
0.0033447
0.00334444
0.00334417
0.0033439
0.00334362
0.00334334
0.00334305
0.00334276
0.00334247
0.00334217
0.00334187
0.00334157
0.00334126
0.00334096
0.00334065
0.00334034
0.00334004
0.00333973
0.00333943
0.00333913
0.00333883
0.00333853
0.00333824
0.00333795
0.00333767
0.00333739
0.00333712
0.00333685
0.0033366
0.00333634
0.0033361
0.00333586
0.00333563
0.00333542
0.00333521
0.00333501
0.00333482
0.00333464
0.00333447
0.00333431
0.00333416
0.00333402
0.0033339
0.00333379
0.00333369
0.0033336
0.00333352
0.00333346
0.00333341
0.00333337
0.00333334
0.00333333
0.00333332
0.00333333
0.00333336
0.0033334
0.00333345
0.00333352
0.00333359
0.00333368
0.00333378
0.00333389
0.00333402
0.00333416
0.0033343
0.00333446
0.00333463
0.00333481
0.003335
0.0033352
0.00333541
0.00333563
0.00333586
0.0033361
0.00333634
0.00333659
0.00333685
0.00333712
0.00333739
0.00333767
0.00333795
0.00333824
0.00333853
0.00333883
0.00333912
0.00333943
0.00333973
0.00334004
0.00334034
0.00334065
0.00334096
0.00334126
0.00334157
0.00334187
0.00334217
0.00334247
0.00334277
0.00334306
0.00334335
0.00334363
0.00334391
0.00334418
0.00334444
0.0033447
0.00334496
0.0033452
0.00334544
0.00334566
0.00334588
0.00334609
0.00334629
0.00334648
0.00334666
0.00334683
0.00334699
0.00334714
0.00334727
0.0033474
0.00334751
0.00334761
0.0033477
0.00334778
0.00334784
0.00334789
0.00334793
0.00334796
0.00334797
0.00334797
0.00334796
0.00334793
0.00334789
0.00334784
0.00334778
0.0033477
0.00334761
0.00334751
0.0033474
0.00334728
0.00334714
0.00334699
0.00334683
0.00334666
0.00334648
0.00334629
0.00334609
0.00334588
0.00334566
0.00334544
0.0033452
0.00334495
0.0033447
0.00334444
0.00334418
0.00334391
0.00334363
0.00334335
0.00334306
0.00334277
0.00334247
0.00334217
0.00334187
0.00334157
0.00334126
0.00334096
0.00334065
0.00334034
0.00334004
0.00333973
0.00333943
0.00333912
0.00333882
0.00333853
0.00333824
0.00333795
0.00333766
0.00333739
0.00333711
0.00333685
0.00333659
0.00333634
0.00333609
0.00333585
0.00333563
0.00333541
0.0033352
0.003335
0.00333481
0.00333463
0.00333446
0.0033343
0.00333415
0.00333401
0.00333389
0.00333378
0.00333367
0.00333359
0.00333351
0.00333345
0.00333339
0.00333336
0.00333333
0.00333332
0.0033333
0.00333331
0.00333334
0.00333338
0.00333343
0.00333349
0.00333357
0.00333366
0.00333376
0.00333387
0.003334
0.00333413
0.00333428
0.00333444
0.00333461
0.00333479
0.00333498
0.00333518
0.00333539
0.00333561
0.00333584
0.00333608
0.00333632
0.00333658
0.00333684
0.0033371
0.00333738
0.00333766
0.00333794
0.00333823
0.00333852
0.00333882
0.00333912
0.00333942
0.00333973
0.00334003
0.00334034
0.00334065
0.00334096
0.00334126
0.00334157
0.00334188
0.00334218
0.00334248
0.00334277
0.00334307
0.00334336
0.00334364
0.00334392
0.00334419
0.00334446
0.00334472
0.00334497
0.00334522
0.00334545
0.00334568
0.0033459
0.00334611
0.00334631
0.0033465
0.00334668
0.00334685
0.00334701
0.00334716
0.0033473
0.00334742
0.00334754
0.00334764
0.00334773
0.0033478
0.00334787
0.00334792
0.00334796
0.00334798
0.00334799
0.00334799
0.00334798
0.00334796
0.00334792
0.00334787
0.0033478
0.00334773
0.00334764
0.00334754
0.00334742
0.0033473
0.00334716
0.00334701
0.00334685
0.00334668
0.0033465
0.00334631
0.00334611
0.0033459
0.00334568
0.00334545
0.00334522
0.00334497
0.00334472
0.00334446
0.00334419
0.00334392
0.00334364
0.00334336
0.00334307
0.00334277
0.00334248
0.00334218
0.00334188
0.00334157
0.00334126
0.00334096
0.00334065
0.00334034
0.00334003
0.00333973
0.00333942
0.00333912
0.00333882
0.00333852
0.00333823
0.00333794
0.00333765
0.00333737
0.0033371
0.00333683
0.00333657
0.00333632
0.00333608
0.00333584
0.00333561
0.00333539
0.00333518
0.00333498
0.00333479
0.0033346
0.00333443
0.00333427
0.00333413
0.00333399
0.00333386
0.00333375
0.00333365
0.00333356
0.00333349
0.00333342
0.00333337
0.00333333
0.00333331
0.00333329
0.00333326
0.00333327
0.0033333
0.00333334
0.00333339
0.00333345
0.00333353
0.00333362
0.00333372
0.00333384
0.00333396
0.0033341
0.00333425
0.00333441
0.00333458
0.00333476
0.00333495
0.00333515
0.00333537
0.00333559
0.00333582
0.00333606
0.0033363
0.00333656
0.00333682
0.00333709
0.00333736
0.00333764
0.00333793
0.00333822
0.00333851
0.00333881
0.00333911
0.00333942
0.00333972
0.00334003
0.00334034
0.00334065
0.00334096
0.00334127
0.00334158
0.00334188
0.00334219
0.00334249
0.00334279
0.00334308
0.00334337
0.00334366
0.00334394
0.00334421
0.00334448
0.00334474
0.00334499
0.00334524
0.00334548
0.00334571
0.00334593
0.00334614
0.00334634
0.00334653
0.00334672
0.00334689
0.00334705
0.0033472
0.00334733
0.00334746
0.00334757
0.00334767
0.00334776
0.00334784
0.0033479
0.00334796
0.00334799
0.00334802
0.00334803
0.00334803
0.00334802
0.00334799
0.00334796
0.0033479
0.00334784
0.00334776
0.00334767
0.00334757
0.00334746
0.00334733
0.0033472
0.00334705
0.00334689
0.00334672
0.00334653
0.00334634
0.00334614
0.00334593
0.00334571
0.00334548
0.00334524
0.00334499
0.00334474
0.00334448
0.00334421
0.00334394
0.00334366
0.00334337
0.00334308
0.00334279
0.00334249
0.00334219
0.00334188
0.00334158
0.00334127
0.00334096
0.00334065
0.00334034
0.00334003
0.00333972
0.00333941
0.00333911
0.00333881
0.00333851
0.00333821
0.00333792
0.00333764
0.00333736
0.00333708
0.00333681
0.00333655
0.0033363
0.00333605
0.00333581
0.00333558
0.00333536
0.00333515
0.00333495
0.00333475
0.00333457
0.0033344
0.00333424
0.00333409
0.00333396
0.00333383
0.00333372
0.00333361
0.00333352
0.00333345
0.00333338
0.00333333
0.00333329
0.00333327
0.00333325
0.00333321
0.00333322
0.00333325
0.00333329
0.00333334
0.0033334
0.00333348
0.00333357
0.00333367
0.00333379
0.00333391
0.00333405
0.0033342
0.00333436
0.00333454
0.00333472
0.00333491
0.00333512
0.00333533
0.00333555
0.00333578
0.00333602
0.00333627
0.00333653
0.00333679
0.00333706
0.00333734
0.00333762
0.00333791
0.0033382
0.0033385
0.0033388
0.0033391
0.00333941
0.00333972
0.00334003
0.00334034
0.00334065
0.00334096
0.00334127
0.00334158
0.00334189
0.0033422
0.0033425
0.0033428
0.0033431
0.00334339
0.00334368
0.00334396
0.00334423
0.0033445
0.00334477
0.00334502
0.00334527
0.00334551
0.00334574
0.00334597
0.00334618
0.00334638
0.00334658
0.00334676
0.00334693
0.00334709
0.00334724
0.00334738
0.00334751
0.00334762
0.00334772
0.00334781
0.00334789
0.00334795
0.00334801
0.00334805
0.00334807
0.00334808
0.00334808
0.00334807
0.00334805
0.00334801
0.00334796
0.00334789
0.00334781
0.00334772
0.00334762
0.00334751
0.00334738
0.00334724
0.00334709
0.00334693
0.00334676
0.00334658
0.00334638
0.00334618
0.00334597
0.00334574
0.00334551
0.00334527
0.00334502
0.00334477
0.0033445
0.00334423
0.00334396
0.00334368
0.00334339
0.0033431
0.0033428
0.0033425
0.0033422
0.00334189
0.00334158
0.00334127
0.00334096
0.00334065
0.00334034
0.00334003
0.00333972
0.00333941
0.0033391
0.0033388
0.00333849
0.0033382
0.00333791
0.00333762
0.00333733
0.00333706
0.00333679
0.00333652
0.00333627
0.00333602
0.00333578
0.00333555
0.00333532
0.00333511
0.00333491
0.00333471
0.00333453
0.00333436
0.0033342
0.00333405
0.00333391
0.00333378
0.00333367
0.00333357
0.00333348
0.0033334
0.00333333
0.00333328
0.00333324
0.00333322
0.0033332
0.00333314
0.00333316
0.00333318
0.00333322
0.00333328
0.00333334
0.00333342
0.00333351
0.00333361
0.00333373
0.00333386
0.003334
0.00333415
0.00333431
0.00333448
0.00333467
0.00333486
0.00333507
0.00333528
0.00333551
0.00333574
0.00333598
0.00333623
0.00333649
0.00333676
0.00333703
0.00333731
0.00333759
0.00333788
0.00333818
0.00333848
0.00333878
0.00333909
0.0033394
0.00333971
0.00334002
0.00334033
0.00334065
0.00334096
0.00334128
0.00334159
0.0033419
0.00334221
0.00334252
0.00334282
0.00334312
0.00334341
0.0033437
0.00334399
0.00334427
0.00334454
0.0033448
0.00334506
0.00334531
0.00334555
0.00334579
0.00334601
0.00334623
0.00334643
0.00334663
0.00334681
0.00334698
0.00334715
0.0033473
0.00334744
0.00334757
0.00334768
0.00334778
0.00334787
0.00334795
0.00334802
0.00334807
0.00334811
0.00334814
0.00334815
0.00334815
0.00334814
0.00334811
0.00334807
0.00334802
0.00334795
0.00334788
0.00334779
0.00334768
0.00334757
0.00334744
0.0033473
0.00334715
0.00334699
0.00334681
0.00334663
0.00334643
0.00334623
0.00334601
0.00334579
0.00334555
0.00334531
0.00334506
0.0033448
0.00334454
0.00334427
0.00334399
0.0033437
0.00334341
0.00334312
0.00334282
0.00334252
0.00334221
0.0033419
0.00334159
0.00334128
0.00334096
0.00334065
0.00334033
0.00334002
0.00333971
0.0033394
0.00333909
0.00333878
0.00333848
0.00333818
0.00333788
0.00333759
0.00333731
0.00333703
0.00333675
0.00333649
0.00333623
0.00333598
0.00333574
0.0033355
0.00333528
0.00333506
0.00333486
0.00333466
0.00333448
0.0033343
0.00333414
0.00333399
0.00333385
0.00333372
0.00333361
0.0033335
0.00333341
0.00333334
0.00333327
0.00333322
0.00333318
0.00333315
0.00333314
0.00333307
0.00333308
0.00333311
0.00333315
0.0033332
0.00333327
0.00333335
0.00333344
0.00333354
0.00333366
0.00333379
0.00333393
0.00333408
0.00333425
0.00333442
0.00333461
0.0033348
0.00333501
0.00333523
0.00333546
0.00333569
0.00333594
0.00333619
0.00333645
0.00333672
0.00333699
0.00333727
0.00333756
0.00333785
0.00333815
0.00333846
0.00333876
0.00333907
0.00333938
0.0033397
0.00334001
0.00334033
0.00334065
0.00334097
0.00334128
0.0033416
0.00334191
0.00334223
0.00334254
0.00334284
0.00334314
0.00334344
0.00334373
0.00334402
0.0033443
0.00334458
0.00334485
0.00334511
0.00334536
0.0033456
0.00334584
0.00334607
0.00334628
0.00334649
0.00334669
0.00334688
0.00334705
0.00334721
0.00334737
0.00334751
0.00334764
0.00334775
0.00334786
0.00334795
0.00334803
0.00334809
0.00334815
0.00334819
0.00334821
0.00334823
0.00334823
0.00334821
0.00334819
0.00334815
0.00334809
0.00334803
0.00334795
0.00334786
0.00334775
0.00334764
0.00334751
0.00334737
0.00334722
0.00334705
0.00334688
0.00334669
0.00334649
0.00334628
0.00334607
0.00334584
0.0033456
0.00334536
0.00334511
0.00334485
0.00334458
0.0033443
0.00334402
0.00334373
0.00334344
0.00334314
0.00334284
0.00334254
0.00334223
0.00334191
0.0033416
0.00334128
0.00334097
0.00334065
0.00334033
0.00334001
0.0033397
0.00333938
0.00333907
0.00333876
0.00333845
0.00333815
0.00333785
0.00333756
0.00333727
0.00333699
0.00333671
0.00333645
0.00333618
0.00333593
0.00333569
0.00333545
0.00333522
0.00333501
0.0033348
0.0033346
0.00333441
0.00333424
0.00333407
0.00333392
0.00333378
0.00333365
0.00333353
0.00333343
0.00333334
0.00333326
0.00333319
0.00333314
0.0033331
0.00333307
0.00333306
0.00333298
0.00333299
0.00333302
0.00333306
0.00333311
0.00333318
0.00333326
0.00333335
0.00333346
0.00333357
0.00333371
0.00333385
0.003334
0.00333417
0.00333435
0.00333454
0.00333473
0.00333494
0.00333516
0.00333539
0.00333563
0.00333588
0.00333614
0.0033364
0.00333667
0.00333695
0.00333723
0.00333753
0.00333782
0.00333812
0.00333843
0.00333874
0.00333905
0.00333937
0.00333969
0.00334001
0.00334033
0.00334065
0.00334097
0.00334129
0.00334161
0.00334193
0.00334224
0.00334256
0.00334287
0.00334317
0.00334347
0.00334377
0.00334406
0.00334435
0.00334462
0.0033449
0.00334516
0.00334542
0.00334566
0.0033459
0.00334613
0.00334635
0.00334656
0.00334676
0.00334695
0.00334713
0.00334729
0.00334745
0.00334759
0.00334772
0.00334784
0.00334794
0.00334804
0.00334812
0.00334818
0.00334824
0.00334828
0.0033483
0.00334832
0.00334832
0.0033483
0.00334828
0.00334824
0.00334818
0.00334812
0.00334804
0.00334795
0.00334784
0.00334772
0.00334759
0.00334745
0.00334729
0.00334713
0.00334695
0.00334676
0.00334656
0.00334635
0.00334613
0.0033459
0.00334566
0.00334542
0.00334516
0.0033449
0.00334463
0.00334435
0.00334406
0.00334377
0.00334348
0.00334317
0.00334287
0.00334256
0.00334225
0.00334193
0.00334161
0.00334129
0.00334097
0.00334065
0.00334033
0.00334001
0.00333969
0.00333937
0.00333905
0.00333874
0.00333843
0.00333812
0.00333782
0.00333752
0.00333723
0.00333695
0.00333667
0.0033364
0.00333613
0.00333588
0.00333563
0.00333539
0.00333516
0.00333494
0.00333473
0.00333453
0.00333434
0.00333416
0.003334
0.00333384
0.0033337
0.00333357
0.00333345
0.00333334
0.00333325
0.00333317
0.0033331
0.00333305
0.00333301
0.00333298
0.00333297
0.00333287
0.00333289
0.00333291
0.00333296
0.00333301
0.00333308
0.00333316
0.00333325
0.00333336
0.00333348
0.00333361
0.00333376
0.00333391
0.00333408
0.00333426
0.00333445
0.00333465
0.00333487
0.00333509
0.00333532
0.00333556
0.00333582
0.00333607
0.00333634
0.00333662
0.0033369
0.00333719
0.00333748
0.00333778
0.00333809
0.0033384
0.00333871
0.00333903
0.00333935
0.00333967
0.00334
0.00334032
0.00334065
0.00334097
0.0033413
0.00334162
0.00334195
0.00334227
0.00334258
0.0033429
0.00334321
0.00334351
0.00334381
0.00334411
0.0033444
0.00334468
0.00334495
0.00334522
0.00334548
0.00334573
0.00334597
0.00334621
0.00334643
0.00334664
0.00334684
0.00334704
0.00334722
0.00334738
0.00334754
0.00334769
0.00334782
0.00334794
0.00334804
0.00334814
0.00334822
0.00334829
0.00334834
0.00334838
0.00334841
0.00334842
0.00334842
0.00334841
0.00334838
0.00334834
0.00334829
0.00334822
0.00334814
0.00334805
0.00334794
0.00334782
0.00334769
0.00334754
0.00334739
0.00334722
0.00334704
0.00334684
0.00334664
0.00334643
0.00334621
0.00334597
0.00334573
0.00334548
0.00334522
0.00334495
0.00334468
0.0033444
0.00334411
0.00334381
0.00334351
0.00334321
0.0033429
0.00334258
0.00334227
0.00334195
0.00334162
0.0033413
0.00334098
0.00334065
0.00334032
0.00334
0.00333967
0.00333935
0.00333903
0.00333871
0.0033384
0.00333809
0.00333778
0.00333748
0.00333719
0.0033369
0.00333661
0.00333634
0.00333607
0.00333581
0.00333556
0.00333532
0.00333508
0.00333486
0.00333465
0.00333445
0.00333425
0.00333407
0.00333391
0.00333375
0.0033336
0.00333347
0.00333335
0.00333325
0.00333315
0.00333307
0.003333
0.00333295
0.00333291
0.00333288
0.00333287
0.00333276
0.00333277
0.0033328
0.00333284
0.00333289
0.00333296
0.00333305
0.00333314
0.00333325
0.00333337
0.0033335
0.00333365
0.00333381
0.00333398
0.00333416
0.00333436
0.00333456
0.00333478
0.00333501
0.00333524
0.00333549
0.00333574
0.00333601
0.00333628
0.00333656
0.00333684
0.00333714
0.00333744
0.00333774
0.00333805
0.00333837
0.00333868
0.00333901
0.00333933
0.00333966
0.00333999
0.00334032
0.00334065
0.00334098
0.00334131
0.00334164
0.00334197
0.00334229
0.00334261
0.00334293
0.00334325
0.00334356
0.00334386
0.00334416
0.00334445
0.00334474
0.00334502
0.00334529
0.00334555
0.00334581
0.00334605
0.00334629
0.00334652
0.00334673
0.00334694
0.00334713
0.00334732
0.00334749
0.00334765
0.00334779
0.00334793
0.00334805
0.00334816
0.00334825
0.00334833
0.0033484
0.00334846
0.0033485
0.00334853
0.00334854
0.00334854
0.00334853
0.0033485
0.00334846
0.0033484
0.00334833
0.00334825
0.00334816
0.00334805
0.00334793
0.00334779
0.00334765
0.00334749
0.00334732
0.00334713
0.00334694
0.00334673
0.00334652
0.00334629
0.00334605
0.00334581
0.00334555
0.00334529
0.00334502
0.00334474
0.00334445
0.00334416
0.00334386
0.00334356
0.00334325
0.00334293
0.00334261
0.00334229
0.00334197
0.00334164
0.00334131
0.00334098
0.00334065
0.00334032
0.00333999
0.00333966
0.00333933
0.00333901
0.00333868
0.00333836
0.00333805
0.00333774
0.00333743
0.00333713
0.00333684
0.00333655
0.00333627
0.003336
0.00333574
0.00333548
0.00333524
0.003335
0.00333477
0.00333456
0.00333435
0.00333416
0.00333398
0.0033338
0.00333364
0.0033335
0.00333336
0.00333324
0.00333313
0.00333304
0.00333296
0.00333289
0.00333283
0.00333279
0.00333276
0.00333275
0.00333262
0.00333264
0.00333267
0.00333271
0.00333277
0.00333284
0.00333292
0.00333302
0.00333313
0.00333325
0.00333339
0.00333354
0.0033337
0.00333387
0.00333406
0.00333425
0.00333446
0.00333468
0.00333491
0.00333515
0.0033354
0.00333566
0.00333593
0.0033362
0.00333649
0.00333678
0.00333708
0.00333738
0.00333769
0.00333801
0.00333833
0.00333865
0.00333898
0.00333931
0.00333964
0.00333998
0.00334031
0.00334065
0.00334099
0.00334132
0.00334166
0.00334199
0.00334232
0.00334265
0.00334297
0.00334329
0.0033436
0.00334391
0.00334422
0.00334452
0.00334481
0.00334509
0.00334537
0.00334564
0.0033459
0.00334614
0.00334639
0.00334662
0.00334683
0.00334704
0.00334724
0.00334743
0.0033476
0.00334776
0.00334791
0.00334805
0.00334817
0.00334828
0.00334838
0.00334846
0.00334853
0.00334859
0.00334863
0.00334866
0.00334867
0.00334867
0.00334866
0.00334863
0.00334859
0.00334853
0.00334846
0.00334838
0.00334828
0.00334817
0.00334805
0.00334791
0.00334776
0.0033476
0.00334743
0.00334724
0.00334704
0.00334684
0.00334662
0.00334639
0.00334615
0.0033459
0.00334564
0.00334537
0.00334509
0.00334481
0.00334452
0.00334422
0.00334392
0.00334361
0.00334329
0.00334297
0.00334265
0.00334232
0.00334199
0.00334166
0.00334132
0.00334099
0.00334065
0.00334031
0.00333998
0.00333964
0.00333931
0.00333898
0.00333865
0.00333833
0.00333801
0.00333769
0.00333738
0.00333707
0.00333678
0.00333648
0.0033362
0.00333592
0.00333566
0.0033354
0.00333515
0.00333491
0.00333468
0.00333446
0.00333425
0.00333405
0.00333386
0.00333369
0.00333353
0.00333338
0.00333324
0.00333312
0.00333301
0.00333291
0.00333283
0.00333276
0.0033327
0.00333266
0.00333263
0.00333262
0.00333248
0.00333249
0.00333252
0.00333257
0.00333262
0.00333269
0.00333278
0.00333288
0.00333299
0.00333312
0.00333325
0.00333341
0.00333357
0.00333375
0.00333394
0.00333414
0.00333435
0.00333457
0.00333481
0.00333505
0.00333531
0.00333557
0.00333584
0.00333612
0.00333641
0.00333671
0.00333701
0.00333732
0.00333764
0.00333796
0.00333829
0.00333861
0.00333895
0.00333929
0.00333962
0.00333996
0.00334031
0.00334065
0.00334099
0.00334133
0.00334167
0.00334201
0.00334235
0.00334268
0.00334301
0.00334334
0.00334366
0.00334397
0.00334428
0.00334459
0.00334488
0.00334517
0.00334545
0.00334573
0.00334599
0.00334624
0.00334649
0.00334672
0.00334695
0.00334716
0.00334736
0.00334755
0.00334773
0.00334789
0.00334804
0.00334818
0.00334831
0.00334842
0.00334852
0.00334861
0.00334868
0.00334873
0.00334878
0.0033488
0.00334882
0.00334882
0.0033488
0.00334878
0.00334873
0.00334868
0.00334861
0.00334852
0.00334842
0.00334831
0.00334818
0.00334804
0.00334789
0.00334773
0.00334755
0.00334736
0.00334716
0.00334695
0.00334672
0.00334649
0.00334625
0.00334599
0.00334573
0.00334545
0.00334517
0.00334488
0.00334459
0.00334428
0.00334398
0.00334366
0.00334334
0.00334301
0.00334268
0.00334235
0.00334201
0.00334167
0.00334133
0.00334099
0.00334065
0.00334031
0.00333996
0.00333962
0.00333928
0.00333895
0.00333861
0.00333828
0.00333796
0.00333764
0.00333732
0.00333701
0.00333671
0.00333641
0.00333612
0.00333584
0.00333557
0.0033353
0.00333505
0.0033348
0.00333457
0.00333434
0.00333413
0.00333393
0.00333374
0.00333356
0.0033334
0.00333325
0.00333311
0.00333298
0.00333287
0.00333277
0.00333269
0.00333261
0.00333256
0.00333251
0.00333249
0.00333247
0.00333232
0.00333233
0.00333236
0.00333241
0.00333247
0.00333254
0.00333262
0.00333273
0.00333284
0.00333297
0.00333311
0.00333326
0.00333343
0.00333361
0.00333381
0.00333401
0.00333423
0.00333446
0.00333469
0.00333494
0.0033352
0.00333547
0.00333575
0.00333604
0.00333633
0.00333663
0.00333694
0.00333726
0.00333758
0.00333791
0.00333824
0.00333858
0.00333892
0.00333926
0.0033396
0.00333995
0.0033403
0.00334065
0.003341
0.00334135
0.00334169
0.00334204
0.00334238
0.00334272
0.00334306
0.00334339
0.00334372
0.00334404
0.00334436
0.00334466
0.00334497
0.00334526
0.00334555
0.00334583
0.0033461
0.00334635
0.0033466
0.00334684
0.00334707
0.00334729
0.00334749
0.00334769
0.00334787
0.00334803
0.00334819
0.00334833
0.00334846
0.00334857
0.00334867
0.00334876
0.00334883
0.00334889
0.00334894
0.00334896
0.00334898
0.00334898
0.00334896
0.00334894
0.00334889
0.00334883
0.00334876
0.00334868
0.00334857
0.00334846
0.00334833
0.00334819
0.00334804
0.00334787
0.00334769
0.00334749
0.00334729
0.00334707
0.00334684
0.0033466
0.00334635
0.0033461
0.00334583
0.00334555
0.00334526
0.00334497
0.00334467
0.00334436
0.00334404
0.00334372
0.00334339
0.00334306
0.00334272
0.00334238
0.00334204
0.00334169
0.00334135
0.003341
0.00334065
0.0033403
0.00333995
0.0033396
0.00333926
0.00333891
0.00333857
0.00333824
0.00333791
0.00333758
0.00333726
0.00333694
0.00333663
0.00333633
0.00333603
0.00333575
0.00333547
0.0033352
0.00333494
0.00333469
0.00333445
0.00333422
0.003334
0.0033338
0.00333361
0.00333343
0.00333326
0.0033331
0.00333296
0.00333283
0.00333272
0.00333262
0.00333253
0.00333246
0.0033324
0.00333236
0.00333233
0.00333231
0.00333215
0.00333216
0.00333219
0.00333223
0.00333229
0.00333237
0.00333246
0.00333256
0.00333268
0.00333281
0.00333295
0.00333311
0.00333328
0.00333347
0.00333366
0.00333387
0.00333409
0.00333433
0.00333457
0.00333482
0.00333509
0.00333536
0.00333565
0.00333594
0.00333624
0.00333655
0.00333686
0.00333719
0.00333752
0.00333785
0.00333819
0.00333853
0.00333888
0.00333923
0.00333958
0.00333994
0.00334029
0.00334065
0.00334101
0.00334136
0.00334172
0.00334207
0.00334242
0.00334277
0.00334311
0.00334345
0.00334378
0.00334411
0.00334443
0.00334475
0.00334506
0.00334536
0.00334565
0.00334594
0.00334621
0.00334647
0.00334673
0.00334697
0.00334721
0.00334743
0.00334764
0.00334783
0.00334802
0.00334819
0.00334835
0.00334849
0.00334862
0.00334874
0.00334884
0.00334893
0.00334901
0.00334907
0.00334911
0.00334914
0.00334915
0.00334915
0.00334914
0.00334911
0.00334907
0.00334901
0.00334893
0.00334884
0.00334874
0.00334862
0.00334849
0.00334835
0.00334819
0.00334802
0.00334783
0.00334764
0.00334743
0.00334721
0.00334697
0.00334673
0.00334647
0.00334621
0.00334594
0.00334565
0.00334536
0.00334506
0.00334475
0.00334443
0.00334411
0.00334378
0.00334345
0.00334311
0.00334277
0.00334242
0.00334207
0.00334172
0.00334136
0.00334101
0.00334065
0.00334029
0.00333994
0.00333958
0.00333923
0.00333888
0.00333853
0.00333819
0.00333785
0.00333751
0.00333718
0.00333686
0.00333655
0.00333624
0.00333594
0.00333564
0.00333536
0.00333508
0.00333482
0.00333456
0.00333432
0.00333409
0.00333387
0.00333366
0.00333346
0.00333327
0.0033331
0.00333294
0.0033328
0.00333267
0.00333255
0.00333245
0.00333236
0.00333229
0.00333223
0.00333218
0.00333215
0.00333214
0.00333196
0.00333197
0.003332
0.00333205
0.00333211
0.00333218
0.00333227
0.00333238
0.0033325
0.00333263
0.00333278
0.00333294
0.00333312
0.00333331
0.00333351
0.00333372
0.00333395
0.00333419
0.00333443
0.00333469
0.00333497
0.00333525
0.00333554
0.00333583
0.00333614
0.00333646
0.00333678
0.00333711
0.00333745
0.00333779
0.00333813
0.00333848
0.00333884
0.0033392
0.00333956
0.00333992
0.00334028
0.00334065
0.00334101
0.00334138
0.00334174
0.0033421
0.00334246
0.00334281
0.00334316
0.00334351
0.00334385
0.00334419
0.00334452
0.00334484
0.00334516
0.00334546
0.00334576
0.00334605
0.00334633
0.0033466
0.00334686
0.00334711
0.00334735
0.00334758
0.00334779
0.00334799
0.00334818
0.00334836
0.00334852
0.00334867
0.0033488
0.00334892
0.00334903
0.00334912
0.00334919
0.00334925
0.0033493
0.00334933
0.00334934
0.00334934
0.00334933
0.0033493
0.00334925
0.00334919
0.00334912
0.00334903
0.00334892
0.0033488
0.00334867
0.00334852
0.00334836
0.00334818
0.00334799
0.00334779
0.00334758
0.00334735
0.00334711
0.00334687
0.0033466
0.00334633
0.00334605
0.00334576
0.00334546
0.00334516
0.00334484
0.00334452
0.00334419
0.00334385
0.00334351
0.00334316
0.00334281
0.00334246
0.0033421
0.00334174
0.00334138
0.00334101
0.00334065
0.00334028
0.00333992
0.00333956
0.0033392
0.00333884
0.00333848
0.00333813
0.00333779
0.00333744
0.00333711
0.00333678
0.00333645
0.00333614
0.00333583
0.00333553
0.00333524
0.00333496
0.00333469
0.00333443
0.00333418
0.00333394
0.00333372
0.0033335
0.0033333
0.00333311
0.00333294
0.00333277
0.00333263
0.00333249
0.00333237
0.00333227
0.00333218
0.0033321
0.00333204
0.00333199
0.00333196
0.00333195
0.00333175
0.00333177
0.0033318
0.00333185
0.00333191
0.00333198
0.00333208
0.00333219
0.00333231
0.00333244
0.0033326
0.00333276
0.00333294
0.00333313
0.00333334
0.00333356
0.00333379
0.00333403
0.00333429
0.00333455
0.00333483
0.00333512
0.00333542
0.00333572
0.00333604
0.00333636
0.00333669
0.00333703
0.00333737
0.00333772
0.00333807
0.00333843
0.0033388
0.00333916
0.00333953
0.0033399
0.00334028
0.00334065
0.00334102
0.00334139
0.00334177
0.00334213
0.0033425
0.00334286
0.00334322
0.00334358
0.00334393
0.00334427
0.00334461
0.00334494
0.00334526
0.00334558
0.00334588
0.00334618
0.00334647
0.00334674
0.00334701
0.00334727
0.00334751
0.00334774
0.00334796
0.00334817
0.00334836
0.00334854
0.00334871
0.00334886
0.00334899
0.00334912
0.00334922
0.00334932
0.00334939
0.00334946
0.0033495
0.00334953
0.00334955
0.00334955
0.00334953
0.0033495
0.00334946
0.00334939
0.00334932
0.00334922
0.00334912
0.00334899
0.00334886
0.00334871
0.00334854
0.00334836
0.00334817
0.00334796
0.00334774
0.00334751
0.00334727
0.00334701
0.00334675
0.00334647
0.00334618
0.00334588
0.00334558
0.00334526
0.00334494
0.00334461
0.00334427
0.00334393
0.00334358
0.00334322
0.00334286
0.0033425
0.00334214
0.00334177
0.0033414
0.00334102
0.00334065
0.00334028
0.0033399
0.00333953
0.00333916
0.0033388
0.00333843
0.00333807
0.00333772
0.00333737
0.00333702
0.00333669
0.00333636
0.00333603
0.00333572
0.00333541
0.00333511
0.00333483
0.00333455
0.00333428
0.00333403
0.00333378
0.00333355
0.00333333
0.00333313
0.00333293
0.00333275
0.00333259
0.00333244
0.0033323
0.00333218
0.00333207
0.00333198
0.0033319
0.00333184
0.00333179
0.00333176
0.00333174
0.00333153
0.00333155
0.00333158
0.00333163
0.00333169
0.00333177
0.00333187
0.00333198
0.0033321
0.00333224
0.0033324
0.00333257
0.00333275
0.00333295
0.00333316
0.00333338
0.00333362
0.00333387
0.00333413
0.0033344
0.00333469
0.00333498
0.00333529
0.0033356
0.00333592
0.00333625
0.00333659
0.00333694
0.00333729
0.00333765
0.00333801
0.00333838
0.00333875
0.00333913
0.00333951
0.00333989
0.00334027
0.00334065
0.00334103
0.00334141
0.00334179
0.00334217
0.00334255
0.00334292
0.00334329
0.00334365
0.00334401
0.00334436
0.00334471
0.00334505
0.00334538
0.0033457
0.00334601
0.00334632
0.00334661
0.0033469
0.00334717
0.00334743
0.00334768
0.00334792
0.00334814
0.00334835
0.00334855
0.00334874
0.00334891
0.00334906
0.0033492
0.00334933
0.00334944
0.00334953
0.00334961
0.00334968
0.00334972
0.00334975
0.00334977
0.00334977
0.00334976
0.00334972
0.00334968
0.00334961
0.00334953
0.00334944
0.00334933
0.0033492
0.00334906
0.00334891
0.00334874
0.00334855
0.00334835
0.00334814
0.00334792
0.00334768
0.00334743
0.00334717
0.0033469
0.00334661
0.00334632
0.00334601
0.0033457
0.00334538
0.00334505
0.00334471
0.00334436
0.00334401
0.00334365
0.00334329
0.00334292
0.00334255
0.00334217
0.00334179
0.00334141
0.00334103
0.00334065
0.00334027
0.00333989
0.00333951
0.00333913
0.00333875
0.00333838
0.00333801
0.00333765
0.00333729
0.00333694
0.00333659
0.00333625
0.00333592
0.0033356
0.00333528
0.00333498
0.00333468
0.0033344
0.00333413
0.00333386
0.00333361
0.00333338
0.00333315
0.00333294
0.00333274
0.00333256
0.00333239
0.00333223
0.00333209
0.00333197
0.00333186
0.00333176
0.00333168
0.00333162
0.00333157
0.00333154
0.00333152
0.0033313
0.00333131
0.00333134
0.00333139
0.00333146
0.00333154
0.00333164
0.00333175
0.00333188
0.00333202
0.00333218
0.00333236
0.00333255
0.00333275
0.00333297
0.0033332
0.00333344
0.00333369
0.00333396
0.00333424
0.00333453
0.00333484
0.00333515
0.00333547
0.0033358
0.00333614
0.00333649
0.00333684
0.0033372
0.00333757
0.00333794
0.00333832
0.0033387
0.00333909
0.00333948
0.00333987
0.00334026
0.00334065
0.00334104
0.00334143
0.00334182
0.00334221
0.0033426
0.00334298
0.00334336
0.00334373
0.0033441
0.00334446
0.00334481
0.00334516
0.0033455
0.00334583
0.00334615
0.00334647
0.00334677
0.00334706
0.00334734
0.00334761
0.00334786
0.00334811
0.00334834
0.00334855
0.00334876
0.00334895
0.00334912
0.00334928
0.00334942
0.00334955
0.00334967
0.00334976
0.00334984
0.00334991
0.00334996
0.00334999
0.00335001
0.00335001
0.00334999
0.00334996
0.00334991
0.00334984
0.00334976
0.00334967
0.00334955
0.00334942
0.00334928
0.00334912
0.00334895
0.00334876
0.00334855
0.00334834
0.00334811
0.00334786
0.00334761
0.00334734
0.00334706
0.00334677
0.00334647
0.00334615
0.00334583
0.0033455
0.00334516
0.00334481
0.00334446
0.0033441
0.00334373
0.00334336
0.00334298
0.0033426
0.00334221
0.00334182
0.00334143
0.00334104
0.00334065
0.00334026
0.00333987
0.00333948
0.00333909