/*--------------------------------*- C++ -*----------------------------------*\
| =========                 |                                                 |
| \\      /  F ield         | OpenFOAM: The Open Source CFD Toolbox           |
|  \\    /   O peration     | Version:  2106                                  |
|   \\  /    A nd           | Website:  www.openfoam.com                      |
|    \\/     M anipulation  |                                                 |
\*---------------------------------------------------------------------------*/
FoamFile
{
    version     2.0;
    format      ascii;
    arch        "LSB;label=32;scalar=64";
    class       volVectorField;
    location    "1.4";
    object      U;
}
// * * * * * * * * * * * * * * * * * * * * * * * * * * * * * * * * * * * * * //

dimensions      [0 1 -1 0 0 0 0];

internalField   nonuniform List<vector> 
90000
(
(-3.29353e-07 3.30401e-07 0)
(-9.88081e-07 3.29246e-07 0)
(-1.64558e-06 3.27752e-07 0)
(-2.29978e-06 3.25851e-07 0)
(-2.94962e-06 3.23438e-07 0)
(-3.59415e-06 3.20492e-07 0)
(-4.23227e-06 3.17009e-07 0)
(-4.86289e-06 3.12986e-07 0)
(-5.48492e-06 3.08426e-07 0)
(-6.09729e-06 3.03332e-07 0)
(-6.69894e-06 2.97711e-07 0)
(-7.28881e-06 2.91572e-07 0)
(-7.86589e-06 2.84924e-07 0)
(-8.42916e-06 2.77779e-07 0)
(-8.97764e-06 2.70147e-07 0)
(-9.51037e-06 2.62043e-07 0)
(-1.00264e-05 2.53479e-07 0)
(-1.05249e-05 2.44472e-07 0)
(-1.10049e-05 2.35036e-07 0)
(-1.14656e-05 2.25188e-07 0)
(-1.19061e-05 2.14946e-07 0)
(-1.23258e-05 2.04326e-07 0)
(-1.27239e-05 1.93349e-07 0)
(-1.30997e-05 1.82032e-07 0)
(-1.34525e-05 1.70396e-07 0)
(-1.37816e-05 1.58461e-07 0)
(-1.40867e-05 1.46248e-07 0)
(-1.4367e-05 1.33779e-07 0)
(-1.46221e-05 1.21075e-07 0)
(-1.48515e-05 1.08158e-07 0)
(-1.5055e-05 9.50521e-08 0)
(-1.5232e-05 8.17791e-08 0)
(-1.53823e-05 6.83627e-08 0)
(-1.55056e-05 5.48264e-08 0)
(-1.56017e-05 4.11938e-08 0)
(-1.56705e-05 2.7489e-08 0)
(-1.57117e-05 1.37359e-08 0)
(-1.57254e-05 -4.13348e-11 0)
(-1.57116e-05 -1.38186e-08 0)
(-1.56701e-05 -2.75716e-08 0)
(-1.56012e-05 -4.12763e-08 0)
(-1.55049e-05 -5.49087e-08 0)
(-1.53814e-05 -6.84448e-08 0)
(-1.5231e-05 -8.18608e-08 0)
(-1.50538e-05 -9.51334e-08 0)
(-1.48502e-05 -1.08239e-07 0)
(-1.46206e-05 -1.21155e-07 0)
(-1.43653e-05 -1.33859e-07 0)
(-1.40849e-05 -1.46327e-07 0)
(-1.37797e-05 -1.58539e-07 0)
(-1.34503e-05 -1.70473e-07 0)
(-1.30974e-05 -1.82108e-07 0)
(-1.27215e-05 -1.93424e-07 0)
(-1.23233e-05 -2.04401e-07 0)
(-1.19034e-05 -2.15018e-07 0)
(-1.14627e-05 -2.25259e-07 0)
(-1.10019e-05 -2.35105e-07 0)
(-1.05217e-05 -2.44538e-07 0)
(-1.00232e-05 -2.53543e-07 0)
(-9.50699e-06 -2.62102e-07 0)
(-8.97415e-06 -2.70202e-07 0)
(-8.42557e-06 -2.77828e-07 0)
(-7.8622e-06 -2.84967e-07 0)
(-7.28504e-06 -2.91606e-07 0)
(-6.69511e-06 -2.97733e-07 0)
(-6.09343e-06 -3.03338e-07 0)
(-5.48106e-06 -3.08411e-07 0)
(-4.85908e-06 -3.12943e-07 0)
(-4.22857e-06 -3.16926e-07 0)
(-3.59065e-06 -3.20353e-07 0)
(-2.94643e-06 -3.23218e-07 0)
(-2.29704e-06 -3.25516e-07 0)
(-1.64362e-06 -3.27243e-07 0)
(-9.87314e-07 -3.28397e-07 0)
(-3.29279e-07 -3.28974e-07 0)
(3.29334e-07 -3.28974e-07 0)
(9.87369e-07 -3.28397e-07 0)
(1.64367e-06 -3.27243e-07 0)
(2.29709e-06 -3.25516e-07 0)
(2.94648e-06 -3.23218e-07 0)
(3.59071e-06 -3.20353e-07 0)
(4.22863e-06 -3.16926e-07 0)
(4.85914e-06 -3.12943e-07 0)
(5.48112e-06 -3.08411e-07 0)
(6.09349e-06 -3.03338e-07 0)
(6.69517e-06 -2.97733e-07 0)
(7.2851e-06 -2.91606e-07 0)
(7.86226e-06 -2.84967e-07 0)
(8.42562e-06 -2.77828e-07 0)
(8.97421e-06 -2.70202e-07 0)
(9.50705e-06 -2.62102e-07 0)
(1.00232e-05 -2.53543e-07 0)
(1.05218e-05 -2.44538e-07 0)
(1.10019e-05 -2.35105e-07 0)
(1.14628e-05 -2.25259e-07 0)
(1.19035e-05 -2.15019e-07 0)
(1.23233e-05 -2.04401e-07 0)
(1.27216e-05 -1.93424e-07 0)
(1.30975e-05 -1.82109e-07 0)
(1.34504e-05 -1.70474e-07 0)
(1.37798e-05 -1.5854e-07 0)
(1.40849e-05 -1.46328e-07 0)
(1.43654e-05 -1.33859e-07 0)
(1.46207e-05 -1.21156e-07 0)
(1.48503e-05 -1.0824e-07 0)
(1.50539e-05 -9.5134e-08 0)
(1.52311e-05 -8.18615e-08 0)
(1.53815e-05 -6.84454e-08 0)
(1.5505e-05 -5.49093e-08 0)
(1.56013e-05 -4.1277e-08 0)
(1.56702e-05 -2.75723e-08 0)
(1.57116e-05 -1.38193e-08 0)
(1.57255e-05 -4.21033e-11 0)
(1.57118e-05 1.37351e-08 0)
(1.56705e-05 2.74881e-08 0)
(1.56018e-05 4.11929e-08 0)
(1.55057e-05 5.48253e-08 0)
(1.53824e-05 6.83616e-08 0)
(1.52321e-05 8.1778e-08 0)
(1.50551e-05 9.50508e-08 0)
(1.48516e-05 1.08157e-07 0)
(1.46222e-05 1.21073e-07 0)
(1.43671e-05 1.33777e-07 0)
(1.40868e-05 1.46246e-07 0)
(1.37818e-05 1.58459e-07 0)
(1.34526e-05 1.70394e-07 0)
(1.30998e-05 1.8203e-07 0)
(1.2724e-05 1.93346e-07 0)
(1.2326e-05 2.04324e-07 0)
(1.19063e-05 2.14943e-07 0)
(1.14657e-05 2.25185e-07 0)
(1.1005e-05 2.35033e-07 0)
(1.0525e-05 2.44468e-07 0)
(1.00266e-05 2.53475e-07 0)
(9.51054e-06 2.62037e-07 0)
(8.97783e-06 2.70141e-07 0)
(8.42936e-06 2.77771e-07 0)
(7.8661e-06 2.84916e-07 0)
(7.28904e-06 2.91562e-07 0)
(6.69919e-06 2.97699e-07 0)
(6.09757e-06 3.03317e-07 0)
(5.48523e-06 3.08407e-07 0)
(4.86324e-06 3.12961e-07 0)
(4.23267e-06 3.16975e-07 0)
(3.59461e-06 3.20444e-07 0)
(2.95016e-06 3.23366e-07 0)
(2.30041e-06 3.25743e-07 0)
(1.64645e-06 3.27579e-07 0)
(9.89332e-07 3.28894e-07 0)
(3.30051e-07 3.29704e-07 0)
(-3.30507e-07 9.91184e-07 0)
(-9.9102e-07 9.88239e-07 0)
(-1.6498e-06 9.83991e-07 0)
(-2.30541e-06 9.78344e-07 0)
(-2.95676e-06 9.71124e-07 0)
(-3.60279e-06 9.62294e-07 0)
(-4.24241e-06 9.51843e-07 0)
(-4.87452e-06 9.39769e-07 0)
(-5.49803e-06 9.26078e-07 0)
(-6.11185e-06 9.10784e-07 0)
(-6.71493e-06 8.93909e-07 0)
(-7.30621e-06 8.75476e-07 0)
(-7.88466e-06 8.55516e-07 0)
(-8.44927e-06 8.34061e-07 0)
(-8.99906e-06 8.11146e-07 0)
(-9.53306e-06 7.86812e-07 0)
(-1.00503e-05 7.611e-07 0)
(-1.055e-05 7.34055e-07 0)
(-1.10311e-05 7.05723e-07 0)
(-1.14929e-05 6.76154e-07 0)
(-1.19345e-05 6.45399e-07 0)
(-1.23552e-05 6.13513e-07 0)
(-1.27543e-05 5.80552e-07 0)
(-1.31309e-05 5.46572e-07 0)
(-1.34845e-05 5.11633e-07 0)
(-1.38145e-05 4.75797e-07 0)
(-1.41203e-05 4.39127e-07 0)
(-1.44012e-05 4.01686e-07 0)
(-1.4657e-05 3.63541e-07 0)
(-1.4887e-05 3.24757e-07 0)
(-1.50909e-05 2.85405e-07 0)
(-1.52683e-05 2.45551e-07 0)
(-1.5419e-05 2.05267e-07 0)
(-1.55426e-05 1.64622e-07 0)
(-1.56389e-05 1.23689e-07 0)
(-1.57078e-05 8.25388e-08 0)
(-1.57492e-05 4.12436e-08 0)
(-1.57629e-05 -1.24131e-10 0)
(-1.5749e-05 -4.14918e-08 0)
(-1.57075e-05 -8.27868e-08 0)
(-1.56384e-05 -1.23937e-07 0)
(-1.55419e-05 -1.6487e-07 0)
(-1.54181e-05 -2.05513e-07 0)
(-1.52673e-05 -2.45797e-07 0)
(-1.50897e-05 -2.85649e-07 0)
(-1.48857e-05 -3.25e-07 0)
(-1.46555e-05 -3.63782e-07 0)
(-1.43996e-05 -4.01926e-07 0)
(-1.41185e-05 -4.39364e-07 0)
(-1.38126e-05 -4.76033e-07 0)
(-1.34824e-05 -5.11866e-07 0)
(-1.31287e-05 -5.46802e-07 0)
(-1.27518e-05 -5.80778e-07 0)
(-1.23527e-05 -6.13736e-07 0)
(-1.19318e-05 -6.45618e-07 0)
(-1.149e-05 -6.76367e-07 0)
(-1.10281e-05 -7.0593e-07 0)
(-1.05468e-05 -7.34254e-07 0)
(-1.00471e-05 -7.61291e-07 0)
(-9.52967e-06 -7.86992e-07 0)
(-8.99556e-06 -8.11313e-07 0)
(-8.44566e-06 -8.34211e-07 0)
(-7.88096e-06 -8.55645e-07 0)
(-7.30242e-06 -8.75579e-07 0)
(-6.71108e-06 -8.93977e-07 0)
(-6.10797e-06 -9.10807e-07 0)
(-5.49414e-06 -9.26039e-07 0)
(-4.87067e-06 -9.39647e-07 0)
(-4.23866e-06 -9.51606e-07 0)
(-3.59922e-06 -9.61896e-07 0)
(-2.95346e-06 -9.70499e-07 0)
(-2.30252e-06 -9.774e-07 0)
(-1.64754e-06 -9.82586e-07 0)
(-9.89669e-07 -9.86048e-07 0)
(-3.30064e-07 -9.87781e-07 0)
(3.3012e-07 -9.87781e-07 0)
(9.89725e-07 -9.86048e-07 0)
(1.64759e-06 -9.82586e-07 0)
(2.30257e-06 -9.774e-07 0)
(2.95351e-06 -9.70499e-07 0)
(3.59927e-06 -9.61896e-07 0)
(4.23872e-06 -9.51606e-07 0)
(4.87073e-06 -9.39647e-07 0)
(5.49419e-06 -9.26039e-07 0)
(6.10802e-06 -9.10807e-07 0)
(6.71114e-06 -8.93978e-07 0)
(7.30248e-06 -8.7558e-07 0)
(7.88101e-06 -8.55646e-07 0)
(8.44572e-06 -8.34211e-07 0)
(8.99562e-06 -8.11313e-07 0)
(9.52973e-06 -7.86993e-07 0)
(1.00471e-05 -7.61291e-07 0)
(1.05469e-05 -7.34255e-07 0)
(1.10282e-05 -7.0593e-07 0)
(1.14901e-05 -6.76367e-07 0)
(1.19319e-05 -6.45618e-07 0)
(1.23527e-05 -6.13737e-07 0)
(1.27519e-05 -5.80779e-07 0)
(1.31287e-05 -5.46802e-07 0)
(1.34825e-05 -5.11867e-07 0)
(1.38126e-05 -4.76034e-07 0)
(1.41185e-05 -4.39366e-07 0)
(1.43997e-05 -4.01927e-07 0)
(1.46556e-05 -3.63783e-07 0)
(1.48857e-05 -3.25002e-07 0)
(1.50898e-05 -2.85651e-07 0)
(1.52674e-05 -2.45798e-07 0)
(1.54182e-05 -2.05515e-07 0)
(1.5542e-05 -1.64871e-07 0)
(1.56385e-05 -1.23939e-07 0)
(1.57076e-05 -8.27889e-08 0)
(1.57491e-05 -4.14939e-08 0)
(1.5763e-05 -1.26416e-10 0)
(1.57493e-05 4.12412e-08 0)
(1.57079e-05 8.25362e-08 0)
(1.5639e-05 1.23686e-07 0)
(1.55427e-05 1.64619e-07 0)
(1.5419e-05 2.05264e-07 0)
(1.52684e-05 2.45548e-07 0)
(1.5091e-05 2.85401e-07 0)
(1.48871e-05 3.24753e-07 0)
(1.46571e-05 3.63536e-07 0)
(1.44013e-05 4.01681e-07 0)
(1.41204e-05 4.39122e-07 0)
(1.38146e-05 4.75792e-07 0)
(1.34847e-05 5.11627e-07 0)
(1.3131e-05 5.46565e-07 0)
(1.27544e-05 5.80544e-07 0)
(1.23554e-05 6.13505e-07 0)
(1.19347e-05 6.45391e-07 0)
(1.1493e-05 6.76144e-07 0)
(1.10313e-05 7.05712e-07 0)
(1.05501e-05 7.34042e-07 0)
(1.00505e-05 7.61086e-07 0)
(9.53323e-06 7.86796e-07 0)
(8.99924e-06 8.11128e-07 0)
(8.44947e-06 8.34039e-07 0)
(7.88487e-06 8.55491e-07 0)
(7.30644e-06 8.75447e-07 0)
(6.71518e-06 8.93873e-07 0)
(6.11212e-06 9.10741e-07 0)
(5.49833e-06 9.26023e-07 0)
(4.87485e-06 9.39698e-07 0)
(4.24279e-06 9.51749e-07 0)
(3.60322e-06 9.62164e-07 0)
(2.95724e-06 9.70938e-07 0)
(2.30594e-06 9.78075e-07 0)
(1.65042e-06 9.83592e-07 0)
(9.91731e-07 9.87529e-07 0)
(3.3086e-07 9.89934e-07 0)
(-3.32003e-07 1.65319e-06 0)
(-9.95267e-07 1.64896e-06 0)
(-1.65654e-06 1.64219e-06 0)
(-2.31468e-06 1.63286e-06 0)
(-2.96859e-06 1.62086e-06 0)
(-3.61716e-06 1.60615e-06 0)
(-4.25931e-06 1.58873e-06 0)
(-4.89391e-06 1.56858e-06 0)
(-5.51988e-06 1.54573e-06 0)
(-6.13614e-06 1.52021e-06 0)
(-6.74161e-06 1.49205e-06 0)
(-7.33523e-06 1.46128e-06 0)
(-7.91598e-06 1.42797e-06 0)
(-8.48283e-06 1.39215e-06 0)
(-9.0348e-06 1.35391e-06 0)
(-9.57091e-06 1.31329e-06 0)
(-1.00902e-05 1.27038e-06 0)
(-1.05919e-05 1.22523e-06 0)
(-1.10749e-05 1.17794e-06 0)
(-1.15385e-05 1.12859e-06 0)
(-1.19819e-05 1.07726e-06 0)
(-1.24043e-05 1.02403e-06 0)
(-1.28049e-05 9.69017e-07 0)
(-1.31831e-05 9.123e-07 0)
(-1.35381e-05 8.53983e-07 0)
(-1.38694e-05 7.94168e-07 0)
(-1.41763e-05 7.3296e-07 0)
(-1.44584e-05 6.70467e-07 0)
(-1.47152e-05 6.06797e-07 0)
(-1.49461e-05 5.42063e-07 0)
(-1.51508e-05 4.76378e-07 0)
(-1.53289e-05 4.09857e-07 0)
(-1.54802e-05 3.42617e-07 0)
(-1.56043e-05 2.74777e-07 0)
(-1.5701e-05 2.06454e-07 0)
(-1.57702e-05 1.37768e-07 0)
(-1.58117e-05 6.88412e-08 0)
(-1.58255e-05 -2.07022e-10 0)
(-1.58116e-05 -6.92551e-08 0)
(-1.57699e-05 -1.38182e-07 0)
(-1.57005e-05 -2.06867e-07 0)
(-1.56036e-05 -2.75189e-07 0)
(-1.54794e-05 -3.43028e-07 0)
(-1.53279e-05 -4.10267e-07 0)
(-1.51496e-05 -4.76785e-07 0)
(-1.49448e-05 -5.42468e-07 0)
(-1.47137e-05 -6.072e-07 0)
(-1.44568e-05 -6.70867e-07 0)
(-1.41745e-05 -7.33357e-07 0)
(-1.38674e-05 -7.94561e-07 0)
(-1.3536e-05 -8.54372e-07 0)
(-1.31808e-05 -9.12684e-07 0)
(-1.28025e-05 -9.69395e-07 0)
(-1.24017e-05 -1.02441e-06 0)
(-1.19792e-05 -1.07762e-06 0)
(-1.15357e-05 -1.12895e-06 0)
(-1.10719e-05 -1.17829e-06 0)
(-1.05887e-05 -1.22557e-06 0)
(-1.0087e-05 -1.27069e-06 0)
(-9.56752e-06 -1.31359e-06 0)
(-9.03128e-06 -1.35419e-06 0)
(-8.4792e-06 -1.39241e-06 0)
(-7.91225e-06 -1.42818e-06 0)
(-7.33142e-06 -1.46146e-06 0)
(-6.73773e-06 -1.49217e-06 0)
(-6.13222e-06 -1.52026e-06 0)
(-5.51595e-06 -1.54568e-06 0)
(-4.89001e-06 -1.56839e-06 0)
(-4.25549e-06 -1.58836e-06 0)
(-3.61351e-06 -1.60553e-06 0)
(-2.96518e-06 -1.61989e-06 0)
(-2.31166e-06 -1.63141e-06 0)
(-1.65408e-06 -1.64007e-06 0)
(-9.93599e-07 -1.64584e-06 0)
(-3.31375e-07 -1.64874e-06 0)
(3.31431e-07 -1.64874e-06 0)
(9.93655e-07 -1.64584e-06 0)
(1.65414e-06 -1.64007e-06 0)
(2.31172e-06 -1.63141e-06 0)
(2.96524e-06 -1.61989e-06 0)
(3.61356e-06 -1.60553e-06 0)
(4.25555e-06 -1.58836e-06 0)
(4.89007e-06 -1.56839e-06 0)
(5.51601e-06 -1.54568e-06 0)
(6.13228e-06 -1.52026e-06 0)
(6.73779e-06 -1.49217e-06 0)
(7.33148e-06 -1.46146e-06 0)
(7.91231e-06 -1.42819e-06 0)
(8.47926e-06 -1.39241e-06 0)
(9.03134e-06 -1.35419e-06 0)
(9.56757e-06 -1.31359e-06 0)
(1.0087e-05 -1.2707e-06 0)
(1.05888e-05 -1.22557e-06 0)
(1.1072e-05 -1.17829e-06 0)
(1.15357e-05 -1.12895e-06 0)
(1.19793e-05 -1.07762e-06 0)
(1.24018e-05 -1.02441e-06 0)
(1.28025e-05 -9.69396e-07 0)
(1.31808e-05 -9.12685e-07 0)
(1.3536e-05 -8.54373e-07 0)
(1.38675e-05 -7.94563e-07 0)
(1.41746e-05 -7.33359e-07 0)
(1.44569e-05 -6.70869e-07 0)
(1.47137e-05 -6.07202e-07 0)
(1.49448e-05 -5.42471e-07 0)
(1.51497e-05 -4.76788e-07 0)
(1.5328e-05 -4.1027e-07 0)
(1.54794e-05 -3.43031e-07 0)
(1.56037e-05 -2.75192e-07 0)
(1.57006e-05 -2.0687e-07 0)
(1.57699e-05 -1.38185e-07 0)
(1.58116e-05 -6.92587e-08 0)
(1.58256e-05 -2.10876e-10 0)
(1.58118e-05 6.88371e-08 0)
(1.57703e-05 1.37764e-07 0)
(1.57011e-05 2.06449e-07 0)
(1.56044e-05 2.74772e-07 0)
(1.54803e-05 3.42612e-07 0)
(1.5329e-05 4.09852e-07 0)
(1.51509e-05 4.76372e-07 0)
(1.49462e-05 5.42056e-07 0)
(1.47153e-05 6.0679e-07 0)
(1.44585e-05 6.70459e-07 0)
(1.41764e-05 7.32952e-07 0)
(1.38695e-05 7.94159e-07 0)
(1.35382e-05 8.53973e-07 0)
(1.31832e-05 9.12289e-07 0)
(1.2805e-05 9.69005e-07 0)
(1.24044e-05 1.02402e-06 0)
(1.19821e-05 1.07724e-06 0)
(1.15387e-05 1.12857e-06 0)
(1.10751e-05 1.17793e-06 0)
(1.0592e-05 1.22521e-06 0)
(1.00904e-05 1.27035e-06 0)
(9.57108e-06 1.31327e-06 0)
(9.03497e-06 1.35388e-06 0)
(8.48302e-06 1.39212e-06 0)
(7.91618e-06 1.42793e-06 0)
(7.33545e-06 1.46123e-06 0)
(6.74184e-06 1.49199e-06 0)
(6.1364e-06 1.52014e-06 0)
(5.52017e-06 1.54565e-06 0)
(4.89422e-06 1.56847e-06 0)
(4.25965e-06 1.58859e-06 0)
(3.61754e-06 1.60597e-06 0)
(2.96899e-06 1.62062e-06 0)
(2.31511e-06 1.63254e-06 0)
(1.65698e-06 1.64175e-06 0)
(9.95666e-07 1.64834e-06 0)
(3.32176e-07 1.65233e-06 0)
(-3.33913e-07 2.31851e-06 0)
(-1.00093e-06 2.31283e-06 0)
(-1.66587e-06 2.30349e-06 0)
(-2.32766e-06 2.29046e-06 0)
(-2.98519e-06 2.27367e-06 0)
(-3.63736e-06 2.25306e-06 0)
(-4.28307e-06 2.22863e-06 0)
(-4.9212e-06 2.20038e-06 0)
(-5.55065e-06 2.16834e-06 0)
(-6.17033e-06 2.13254e-06 0)
(-6.77916e-06 2.09303e-06 0)
(-7.37609e-06 2.04987e-06 0)
(-7.96007e-06 2.00314e-06 0)
(-8.53007e-06 1.95291e-06 0)
(-9.08511e-06 1.89926e-06 0)
(-9.62421e-06 1.84228e-06 0)
(-1.01464e-05 1.78208e-06 0)
(-1.06509e-05 1.71875e-06 0)
(-1.11366e-05 1.65241e-06 0)
(-1.16028e-05 1.58318e-06 0)
(-1.20486e-05 1.51117e-06 0)
(-1.24734e-05 1.43651e-06 0)
(-1.28762e-05 1.35933e-06 0)
(-1.32565e-05 1.27977e-06 0)
(-1.36135e-05 1.19796e-06 0)
(-1.39466e-05 1.11406e-06 0)
(-1.42553e-05 1.02819e-06 0)
(-1.45389e-05 9.40528e-07 0)
(-1.47971e-05 8.51213e-07 0)
(-1.50293e-05 7.60404e-07 0)
(-1.52352e-05 6.68261e-07 0)
(-1.54143e-05 5.74947e-07 0)
(-1.55664e-05 4.80623e-07 0)
(-1.56912e-05 3.85456e-07 0)
(-1.57884e-05 2.89613e-07 0)
(-1.5858e-05 1.93261e-07 0)
(-1.58998e-05 9.65706e-08 0)
(-1.59137e-05 -2.89936e-10 0)
(-1.58996e-05 -9.71503e-08 0)
(-1.58577e-05 -1.93841e-07 0)
(-1.5788e-05 -2.90191e-07 0)
(-1.56905e-05 -3.86033e-07 0)
(-1.55656e-05 -4.81199e-07 0)
(-1.54133e-05 -5.7552e-07 0)
(-1.5234e-05 -6.68833e-07 0)
(-1.5028e-05 -7.60972e-07 0)
(-1.47956e-05 -8.51778e-07 0)
(-1.45373e-05 -9.41089e-07 0)
(-1.42535e-05 -1.02875e-06 0)
(-1.39446e-05 -1.11461e-06 0)
(-1.36114e-05 -1.19851e-06 0)
(-1.32542e-05 -1.28031e-06 0)
(-1.28738e-05 -1.35986e-06 0)
(-1.24708e-05 -1.43703e-06 0)
(-1.20459e-05 -1.51168e-06 0)
(-1.15999e-05 -1.58368e-06 0)
(-1.11336e-05 -1.6529e-06 0)
(-1.06477e-05 -1.71922e-06 0)
(-1.01431e-05 -1.78253e-06 0)
(-9.6208e-06 -1.8427e-06 0)
(-9.08158e-06 -1.89965e-06 0)
(-8.52643e-06 -1.95327e-06 0)
(-7.95632e-06 -2.00345e-06 0)
(-7.37225e-06 -2.05013e-06 0)
(-6.77525e-06 -2.0932e-06 0)
(-6.16637e-06 -2.13261e-06 0)
(-5.54667e-06 -2.16828e-06 0)
(-4.91725e-06 -2.20014e-06 0)
(-4.27919e-06 -2.22814e-06 0)
(-3.63363e-06 -2.25223e-06 0)
(-2.9817e-06 -2.27238e-06 0)
(-2.32453e-06 -2.28854e-06 0)
(-1.66329e-06 -2.30068e-06 0)
(-9.99133e-07 -2.30879e-06 0)
(-3.33221e-07 -2.31284e-06 0)
(3.33276e-07 -2.31284e-06 0)
(9.99189e-07 -2.30879e-06 0)
(1.66335e-06 -2.30068e-06 0)
(2.32459e-06 -2.28854e-06 0)
(2.98176e-06 -2.27238e-06 0)
(3.63369e-06 -2.25224e-06 0)
(4.27925e-06 -2.22814e-06 0)
(4.9173e-06 -2.20014e-06 0)
(5.54673e-06 -2.16828e-06 0)
(6.16643e-06 -2.13261e-06 0)
(6.77531e-06 -2.09321e-06 0)
(7.37231e-06 -2.05013e-06 0)
(7.95638e-06 -2.00345e-06 0)
(8.52648e-06 -1.95327e-06 0)
(9.08164e-06 -1.89965e-06 0)
(9.62086e-06 -1.84271e-06 0)
(1.01432e-05 -1.78253e-06 0)
(1.06478e-05 -1.71922e-06 0)
(1.11336e-05 -1.6529e-06 0)
(1.16e-05 -1.58368e-06 0)
(1.2046e-05 -1.51168e-06 0)
(1.24708e-05 -1.43704e-06 0)
(1.28738e-05 -1.35987e-06 0)
(1.32543e-05 -1.28031e-06 0)
(1.36114e-05 -1.19851e-06 0)
(1.39447e-05 -1.11461e-06 0)
(1.42535e-05 -1.02875e-06 0)
(1.45374e-05 -9.41092e-07 0)
(1.47957e-05 -8.51781e-07 0)
(1.50281e-05 -7.60976e-07 0)
(1.52341e-05 -6.68837e-07 0)
(1.54134e-05 -5.75524e-07 0)
(1.55656e-05 -4.81203e-07 0)
(1.56906e-05 -3.86038e-07 0)
(1.5788e-05 -2.90196e-07 0)
(1.58578e-05 -1.93846e-07 0)
(1.58997e-05 -9.71555e-08 0)
(1.59137e-05 -2.95424e-10 0)
(1.58999e-05 9.65648e-08 0)
(1.58581e-05 1.93255e-07 0)
(1.57885e-05 2.89607e-07 0)
(1.56913e-05 3.85449e-07 0)
(1.55665e-05 4.80616e-07 0)
(1.54144e-05 5.74939e-07 0)
(1.52353e-05 6.68253e-07 0)
(1.50294e-05 7.60395e-07 0)
(1.47972e-05 8.51203e-07 0)
(1.4539e-05 9.40518e-07 0)
(1.42554e-05 1.02818e-06 0)
(1.39467e-05 1.11404e-06 0)
(1.36136e-05 1.19795e-06 0)
(1.32566e-05 1.27976e-06 0)
(1.28763e-05 1.35932e-06 0)
(1.24735e-05 1.43649e-06 0)
(1.20488e-05 1.51115e-06 0)
(1.16029e-05 1.58316e-06 0)
(1.11367e-05 1.65239e-06 0)
(1.0651e-05 1.71872e-06 0)
(1.01466e-05 1.78205e-06 0)
(9.62438e-06 1.84224e-06 0)
(9.08529e-06 1.89922e-06 0)
(8.53026e-06 1.95286e-06 0)
(7.96026e-06 2.00309e-06 0)
(7.3763e-06 2.04981e-06 0)
(6.77939e-06 2.09295e-06 0)
(6.17057e-06 2.13245e-06 0)
(5.55091e-06 2.16823e-06 0)
(4.92148e-06 2.20025e-06 0)
(4.28337e-06 2.22846e-06 0)
(3.63769e-06 2.25285e-06 0)
(2.98553e-06 2.2734e-06 0)
(2.328e-06 2.29012e-06 0)
(1.6662e-06 2.30306e-06 0)
(1.0012e-06 2.3123e-06 0)
(3.34022e-07 2.31788e-06 0)
(-3.3635e-07 2.9882e-06 0)
(-1.00821e-06 2.98097e-06 0)
(-1.67793e-06 2.96899e-06 0)
(-2.34447e-06 2.95224e-06 0)
(-3.00672e-06 2.93062e-06 0)
(-3.66358e-06 2.90408e-06 0)
(-4.31392e-06 2.8726e-06 0)
(-4.95663e-06 2.8362e-06 0)
(-5.5906e-06 2.7949e-06 0)
(-6.21473e-06 2.74876e-06 0)
(-6.82794e-06 2.69784e-06 0)
(-7.42916e-06 2.64222e-06 0)
(-8.01734e-06 2.58198e-06 0)
(-8.59144e-06 2.51723e-06 0)
(-9.15047e-06 2.44808e-06 0)
(-9.69345e-06 2.37464e-06 0)
(-1.02194e-05 2.29704e-06 0)
(-1.07275e-05 2.21542e-06 0)
(-1.12167e-05 2.12991e-06 0)
(-1.16863e-05 2.04067e-06 0)
(-1.21353e-05 1.94785e-06 0)
(-1.25631e-05 1.85162e-06 0)
(-1.29688e-05 1.75214e-06 0)
(-1.33518e-05 1.64959e-06 0)
(-1.37114e-05 1.54414e-06 0)
(-1.40469e-05 1.43598e-06 0)
(-1.43578e-05 1.32531e-06 0)
(-1.46435e-05 1.21231e-06 0)
(-1.49035e-05 1.09719e-06 0)
(-1.51374e-05 9.80138e-07 0)
(-1.53448e-05 8.61369e-07 0)
(-1.55252e-05 7.41089e-07 0)
(-1.56784e-05 6.19509e-07 0)
(-1.58041e-05 4.96842e-07 0)
(-1.5902e-05 3.73303e-07 0)
(-1.59721e-05 2.49109e-07 0)
(-1.60142e-05 1.24477e-07 0)
(-1.60281e-05 -3.72969e-10 0)
(-1.6014e-05 -1.25223e-07 0)
(-1.59718e-05 -2.49854e-07 0)
(-1.59015e-05 -3.74047e-07 0)
(-1.58034e-05 -4.97584e-07 0)
(-1.56775e-05 -6.2025e-07 0)
(-1.55242e-05 -7.41827e-07 0)
(-1.53436e-05 -8.62104e-07 0)
(-1.51361e-05 -9.80869e-07 0)
(-1.49021e-05 -1.09791e-06 0)
(-1.46419e-05 -1.21303e-06 0)
(-1.4356e-05 -1.32603e-06 0)
(-1.4045e-05 -1.43669e-06 0)
(-1.37093e-05 -1.54484e-06 0)
(-1.33495e-05 -1.65028e-06 0)
(-1.29664e-05 -1.75282e-06 0)
(-1.25605e-05 -1.85229e-06 0)
(-1.21326e-05 -1.94851e-06 0)
(-1.16834e-05 -2.04132e-06 0)
(-1.12137e-05 -2.13054e-06 0)
(-1.07243e-05 -2.21602e-06 0)
(-1.02161e-05 -2.29762e-06 0)
(-9.69001e-06 -2.37519e-06 0)
(-9.14691e-06 -2.44859e-06 0)
(-8.58777e-06 -2.5177e-06 0)
(-8.01356e-06 -2.58239e-06 0)
(-7.42529e-06 -2.64255e-06 0)
(-6.824e-06 -2.69808e-06 0)
(-6.21074e-06 -2.74887e-06 0)
(-5.58658e-06 -2.79484e-06 0)
(-4.95262e-06 -2.83591e-06 0)
(-4.30998e-06 -2.87201e-06 0)
(-3.65977e-06 -2.90306e-06 0)
(-3.00315e-06 -2.92903e-06 0)
(-2.34126e-06 -2.94985e-06 0)
(-1.67526e-06 -2.9655e-06 0)
(-1.00632e-06 -2.97595e-06 0)
(-3.35619e-07 -2.98118e-06 0)
(3.35674e-07 -2.98118e-06 0)
(1.00638e-06 -2.97595e-06 0)
(1.67531e-06 -2.9655e-06 0)
(2.34131e-06 -2.94985e-06 0)
(3.00321e-06 -2.92903e-06 0)
(3.65983e-06 -2.90306e-06 0)
(4.31004e-06 -2.87201e-06 0)
(4.95268e-06 -2.83591e-06 0)
(5.58664e-06 -2.79484e-06 0)
(6.21079e-06 -2.74887e-06 0)
(6.82406e-06 -2.69808e-06 0)
(7.42535e-06 -2.64255e-06 0)
(8.01362e-06 -2.58239e-06 0)
(8.58783e-06 -2.5177e-06 0)
(9.14697e-06 -2.44859e-06 0)
(9.69007e-06 -2.37519e-06 0)
(1.02162e-05 -2.29762e-06 0)
(1.07244e-05 -2.21602e-06 0)
(1.12137e-05 -2.13054e-06 0)
(1.16834e-05 -2.04132e-06 0)
(1.21326e-05 -1.94851e-06 0)
(1.25606e-05 -1.85229e-06 0)
(1.29665e-05 -1.75283e-06 0)
(1.33496e-05 -1.65028e-06 0)
(1.37093e-05 -1.54484e-06 0)
(1.4045e-05 -1.4367e-06 0)
(1.43561e-05 -1.32603e-06 0)
(1.46419e-05 -1.21304e-06 0)
(1.49021e-05 -1.09792e-06 0)
(1.51362e-05 -9.80874e-07 0)
(1.53437e-05 -8.62109e-07 0)
(1.55243e-05 -7.41832e-07 0)
(1.56776e-05 -6.20255e-07 0)
(1.58035e-05 -4.9759e-07 0)
(1.59016e-05 -3.74053e-07 0)
(1.59718e-05 -2.4986e-07 0)
(1.60141e-05 -1.2523e-07 0)
(1.60282e-05 -3.80085e-10 0)
(1.60142e-05 1.2447e-07 0)
(1.59722e-05 2.49101e-07 0)
(1.59021e-05 3.73295e-07 0)
(1.58041e-05 4.96833e-07 0)
(1.56785e-05 6.195e-07 0)
(1.55253e-05 7.41079e-07 0)
(1.53449e-05 8.61358e-07 0)
(1.51375e-05 9.80126e-07 0)
(1.49036e-05 1.09717e-06 0)
(1.46436e-05 1.2123e-06 0)
(1.43579e-05 1.3253e-06 0)
(1.4047e-05 1.43597e-06 0)
(1.37115e-05 1.54412e-06 0)
(1.33519e-05 1.64957e-06 0)
(1.29689e-05 1.75212e-06 0)
(1.25632e-05 1.8516e-06 0)
(1.21354e-05 1.94783e-06 0)
(1.16864e-05 2.04064e-06 0)
(1.12168e-05 2.12988e-06 0)
(1.07276e-05 2.21538e-06 0)
(1.02196e-05 2.297e-06 0)
(9.69361e-06 2.3746e-06 0)
(9.15064e-06 2.44803e-06 0)
(8.59162e-06 2.51717e-06 0)
(8.01752e-06 2.58191e-06 0)
(7.42936e-06 2.64214e-06 0)
(6.82815e-06 2.69775e-06 0)
(6.21496e-06 2.74865e-06 0)
(5.59084e-06 2.79477e-06 0)
(4.95688e-06 2.83605e-06 0)
(4.31418e-06 2.87242e-06 0)
(3.66385e-06 2.90385e-06 0)
(3.007e-06 2.93034e-06 0)
(2.34474e-06 2.9519e-06 0)
(1.67818e-06 2.96858e-06 0)
(1.0084e-06 2.98049e-06 0)
(3.36422e-07 2.98766e-06 0)
(-3.39342e-07 3.66327e-06 0)
(-1.01716e-06 3.65445e-06 0)
(-1.6928e-06 3.63981e-06 0)
(-2.36522e-06 3.6193e-06 0)
(-3.03331e-06 3.59282e-06 0)
(-3.69596e-06 3.5603e-06 0)
(-4.35203e-06 3.52172e-06 0)
(-5.00041e-06 3.4771e-06 0)
(-5.63997e-06 3.42648e-06 0)
(-6.26961e-06 3.36991e-06 0)
(-6.88823e-06 3.30749e-06 0)
(-7.49475e-06 3.2393e-06 0)
(-8.08811e-06 3.16545e-06 0)
(-8.66728e-06 3.08607e-06 0)
(-9.23125e-06 3.00129e-06 0)
(-9.77902e-06 2.91126e-06 0)
(-1.03096e-05 2.81613e-06 0)
(-1.08222e-05 2.71606e-06 0)
(-1.13157e-05 2.61123e-06 0)
(-1.17894e-05 2.50182e-06 0)
(-1.22424e-05 2.38803e-06 0)
(-1.2674e-05 2.27005e-06 0)
(-1.30833e-05 2.14809e-06 0)
(-1.34697e-05 2.02236e-06 0)
(-1.38324e-05 1.89309e-06 0)
(-1.41709e-05 1.76049e-06 0)
(-1.44846e-05 1.62481e-06 0)
(-1.47728e-05 1.48627e-06 0)
(-1.50351e-05 1.34513e-06 0)
(-1.5271e-05 1.20163e-06 0)
(-1.54802e-05 1.05602e-06 0)
(-1.56622e-05 9.08562e-07 0)
(-1.58168e-05 7.59507e-07 0)
(-1.59436e-05 6.0912e-07 0)
(-1.60424e-05 4.57663e-07 0)
(-1.61131e-05 3.05404e-07 0)
(-1.61555e-05 1.52608e-07 0)
(-1.61696e-05 -4.56222e-10 0)
(-1.61554e-05 -1.5352e-07 0)
(-1.61128e-05 -3.06315e-07 0)
(-1.60419e-05 -4.58574e-07 0)
(-1.59429e-05 -6.10028e-07 0)
(-1.58159e-05 -7.60413e-07 0)
(-1.56612e-05 -9.09465e-07 0)
(-1.5479e-05 -1.05692e-06 0)
(-1.52697e-05 -1.20253e-06 0)
(-1.50336e-05 -1.34602e-06 0)
(-1.47711e-05 -1.48716e-06 0)
(-1.44827e-05 -1.62568e-06 0)
(-1.41689e-05 -1.76136e-06 0)
(-1.38303e-05 -1.89395e-06 0)
(-1.34674e-05 -2.02321e-06 0)
(-1.30809e-05 -2.14893e-06 0)
(-1.26714e-05 -2.27087e-06 0)
(-1.22397e-05 -2.38884e-06 0)
(-1.17865e-05 -2.50261e-06 0)
(-1.13127e-05 -2.612e-06 0)
(-1.0819e-05 -2.7168e-06 0)
(-1.03063e-05 -2.81684e-06 0)
(-9.77556e-06 -2.91194e-06 0)
(-9.22766e-06 -3.00193e-06 0)
(-8.66358e-06 -3.08665e-06 0)
(-8.0843e-06 -3.16596e-06 0)
(-7.49084e-06 -3.23972e-06 0)
(-6.88424e-06 -3.30779e-06 0)
(-6.26556e-06 -3.37006e-06 0)
(-5.6359e-06 -3.42642e-06 0)
(-4.99635e-06 -3.47677e-06 0)
(-4.34803e-06 -3.52103e-06 0)
(-3.69208e-06 -3.5591e-06 0)
(-3.02966e-06 -3.59093e-06 0)
(-2.36193e-06 -3.61646e-06 0)
(-1.69005e-06 -3.63565e-06 0)
(-1.01521e-06 -3.64846e-06 0)
(-3.38582e-07 -3.65488e-06 0)
(3.38637e-07 -3.65488e-06 0)
(1.01526e-06 -3.64846e-06 0)
(1.6901e-06 -3.63565e-06 0)
(2.36198e-06 -3.61646e-06 0)
(3.02972e-06 -3.59093e-06 0)
(3.69214e-06 -3.5591e-06 0)
(4.34808e-06 -3.52103e-06 0)
(4.9964e-06 -3.47678e-06 0)
(5.63596e-06 -3.42643e-06 0)
(6.26562e-06 -3.37007e-06 0)
(6.8843e-06 -3.30779e-06 0)
(7.4909e-06 -3.23972e-06 0)
(8.08436e-06 -3.16596e-06 0)
(8.66364e-06 -3.08665e-06 0)
(9.22772e-06 -3.00193e-06 0)
(9.77561e-06 -2.91194e-06 0)
(1.03064e-05 -2.81684e-06 0)
(1.0819e-05 -2.71681e-06 0)
(1.13127e-05 -2.612e-06 0)
(1.17866e-05 -2.50262e-06 0)
(1.22397e-05 -2.38884e-06 0)
(1.26714e-05 -2.27088e-06 0)
(1.30809e-05 -2.14893e-06 0)
(1.34675e-05 -2.02321e-06 0)
(1.38304e-05 -1.89395e-06 0)
(1.4169e-05 -1.76136e-06 0)
(1.44828e-05 -1.62569e-06 0)
(1.47712e-05 -1.48716e-06 0)
(1.50337e-05 -1.34603e-06 0)
(1.52698e-05 -1.20253e-06 0)
(1.54791e-05 -1.05693e-06 0)
(1.56613e-05 -9.09472e-07 0)
(1.5816e-05 -7.6042e-07 0)
(1.5943e-05 -6.10035e-07 0)
(1.6042e-05 -4.58581e-07 0)
(1.61128e-05 -3.06323e-07 0)
(1.61554e-05 -1.53528e-07 0)
(1.61697e-05 -4.64851e-10 0)
(1.61556e-05 1.52599e-07 0)
(1.61132e-05 3.05394e-07 0)
(1.60425e-05 4.57653e-07 0)
(1.59436e-05 6.09109e-07 0)
(1.58169e-05 7.59496e-07 0)
(1.56623e-05 9.0855e-07 0)
(1.54803e-05 1.05601e-06 0)
(1.52711e-05 1.20162e-06 0)
(1.50352e-05 1.34512e-06 0)
(1.47729e-05 1.48626e-06 0)
(1.44847e-05 1.62479e-06 0)
(1.4171e-05 1.76047e-06 0)
(1.38325e-05 1.89306e-06 0)
(1.34698e-05 2.02234e-06 0)
(1.30834e-05 2.14806e-06 0)
(1.26741e-05 2.27002e-06 0)
(1.22426e-05 2.388e-06 0)
(1.17895e-05 2.50179e-06 0)
(1.13158e-05 2.61119e-06 0)
(1.08223e-05 2.71602e-06 0)
(1.03098e-05 2.81608e-06 0)
(9.77917e-06 2.91121e-06 0)
(9.23141e-06 3.00124e-06 0)
(8.66745e-06 3.08601e-06 0)
(8.08829e-06 3.16538e-06 0)
(7.49494e-06 3.23921e-06 0)
(6.88842e-06 3.30739e-06 0)
(6.26982e-06 3.3698e-06 0)
(5.64019e-06 3.42634e-06 0)
(5.00063e-06 3.47694e-06 0)
(4.35226e-06 3.52153e-06 0)
(3.69619e-06 3.56007e-06 0)
(3.03354e-06 3.59255e-06 0)
(2.36543e-06 3.61898e-06 0)
(1.69298e-06 3.63943e-06 0)
(1.01729e-06 3.65403e-06 0)
(3.3939e-07 3.66281e-06 0)
(-3.42904e-07 4.34486e-06 0)
(-1.02783e-06 4.33443e-06 0)
(-1.71054e-06 4.31709e-06 0)
(-2.38999e-06 4.29279e-06 0)
(-3.06506e-06 4.2614e-06 0)
(-3.73463e-06 4.22284e-06 0)
(-4.39756e-06 4.17709e-06 0)
(-5.05271e-06 4.12417e-06 0)
(-5.69896e-06 4.06414e-06 0)
(-6.33517e-06 3.99705e-06 0)
(-6.96026e-06 3.92301e-06 0)
(-7.57312e-06 3.84213e-06 0)
(-8.17268e-06 3.75455e-06 0)
(-8.75791e-06 3.6604e-06 0)
(-9.32777e-06 3.55984e-06 0)
(-9.88126e-06 3.45305e-06 0)
(-1.04174e-05 3.34021e-06 0)
(-1.09353e-05 3.22152e-06 0)
(-1.1434e-05 3.09719e-06 0)
(-1.19127e-05 2.96742e-06 0)
(-1.23704e-05 2.83245e-06 0)
(-1.28065e-05 2.69251e-06 0)
(-1.32201e-05 2.54786e-06 0)
(-1.36105e-05 2.39873e-06 0)
(-1.3977e-05 2.2454e-06 0)
(-1.43191e-05 2.08812e-06 0)
(-1.4636e-05 1.92719e-06 0)
(-1.49272e-05 1.76287e-06 0)
(-1.51923e-05 1.59547e-06 0)
(-1.54307e-05 1.42526e-06 0)
(-1.56421e-05 1.25255e-06 0)
(-1.5826e-05 1.07765e-06 0)
(-1.59821e-05 9.00856e-07 0)
(-1.61103e-05 7.2248e-07 0)
(-1.62101e-05 5.42837e-07 0)
(-1.62816e-05 3.62242e-07 0)
(-1.63244e-05 1.8101e-07 0)
(-1.63387e-05 -5.39758e-10 0)
(-1.63243e-05 -1.82089e-07 0)
(-1.62812e-05 -3.6332e-07 0)
(-1.62096e-05 -5.43915e-07 0)
(-1.61096e-05 -7.23556e-07 0)
(-1.59813e-05 -9.01928e-07 0)
(-1.5825e-05 -1.07872e-06 0)
(-1.56409e-05 -1.25362e-06 0)
(-1.54294e-05 -1.42632e-06 0)
(-1.51908e-05 -1.59652e-06 0)
(-1.49256e-05 -1.76392e-06 0)
(-1.46342e-05 -1.92823e-06 0)
(-1.43171e-05 -2.08915e-06 0)
(-1.39749e-05 -2.24642e-06 0)
(-1.36082e-05 -2.39974e-06 0)
(-1.32176e-05 -2.54885e-06 0)
(-1.28039e-05 -2.69349e-06 0)
(-1.23677e-05 -2.83341e-06 0)
(-1.19098e-05 -2.96836e-06 0)
(-1.14309e-05 -3.0981e-06 0)
(-1.09321e-05 -3.22241e-06 0)
(-1.04141e-05 -3.34107e-06 0)
(-9.87777e-06 -3.45386e-06 0)
(-9.32415e-06 -3.5606e-06 0)
(-8.75417e-06 -3.66109e-06 0)
(-8.16883e-06 -3.75516e-06 0)
(-7.56917e-06 -3.84264e-06 0)
(-6.95622e-06 -3.92339e-06 0)
(-6.33108e-06 -3.99725e-06 0)
(-5.69483e-06 -4.0641e-06 0)
(-5.04859e-06 -4.12382e-06 0)
(-4.39349e-06 -4.1763e-06 0)
(-3.73069e-06 -4.22146e-06 0)
(-3.06134e-06 -4.25922e-06 0)
(-2.38663e-06 -4.2895e-06 0)
(-1.70772e-06 -4.31226e-06 0)
(-1.02582e-06 -4.32746e-06 0)
(-3.42122e-07 -4.33506e-06 0)
(3.42178e-07 -4.33506e-06 0)
(1.02588e-06 -4.32746e-06 0)
(1.70778e-06 -4.31226e-06 0)
(2.38668e-06 -4.2895e-06 0)
(3.0614e-06 -4.25922e-06 0)
(3.73075e-06 -4.22146e-06 0)
(4.39355e-06 -4.1763e-06 0)
(5.04865e-06 -4.12382e-06 0)
(5.69489e-06 -4.0641e-06 0)
(6.33114e-06 -3.99725e-06 0)
(6.95628e-06 -3.92339e-06 0)
(7.56922e-06 -3.84265e-06 0)
(8.16889e-06 -3.75516e-06 0)
(8.75423e-06 -3.66109e-06 0)
(9.32421e-06 -3.5606e-06 0)
(9.87783e-06 -3.45386e-06 0)
(1.04141e-05 -3.34107e-06 0)
(1.09322e-05 -3.22241e-06 0)
(1.1431e-05 -3.09811e-06 0)
(1.19098e-05 -2.96836e-06 0)
(1.23677e-05 -2.83342e-06 0)
(1.28039e-05 -2.6935e-06 0)
(1.32177e-05 -2.54885e-06 0)
(1.36083e-05 -2.39974e-06 0)
(1.3975e-05 -2.24642e-06 0)
(1.43172e-05 -2.08916e-06 0)
(1.46342e-05 -1.92823e-06 0)
(1.49256e-05 -1.76393e-06 0)
(1.51909e-05 -1.59653e-06 0)
(1.54294e-05 -1.42633e-06 0)
(1.5641e-05 -1.25363e-06 0)
(1.5825e-05 -1.07873e-06 0)
(1.59814e-05 -9.01936e-07 0)