/*--------------------------------*- C++ -*----------------------------------*\
| =========                 |                                                 |
| \\      /  F ield         | OpenFOAM: The Open Source CFD Toolbox           |
|  \\    /   O peration     | Version:  2306                                  |
|   \\  /    A nd           | Website:  www.openfoam.com                      |
|    \\/     M anipulation  |                                                 |
\*---------------------------------------------------------------------------*/
FoamFile
{
    version     2.0;
    format      ascii;
    arch        "LSB;label=32;scalar=64";
    class       volVectorField;
    location    "0.38";
    object      U;
}
// * * * * * * * * * * * * * * * * * * * * * * * * * * * * * * * * * * * * * //

dimensions      [0 1 -1 0 0 0 0];

internalField   nonuniform List<vector> 
6400
(
(0.00087914232 0.0027868365 2.3410154e-19)
(0.00095480061 0.0026758826 8.8270924e-20)
(0.0010228145 0.002566388 -1.1050762e-19)
(0.0010836731 0.0024585469 -1.0082124e-20)
(0.0011378401 0.0023525232 -5.7384455e-20)
(0.0011857543 0.0022484535 1.1974846e-19)
(0.0012278303 0.0021464509 4.3404398e-20)
(0.0012644594 0.0020466066 1.6205427e-19)
(0.0012960103 0.0019489936 1.0250539e-19)
(0.0013228301 0.0018536678 9.2891308e-20)
(0.0013452453 0.0017606707 9.3458799e-20)
(0.0013635628 0.001670031 1.5751511e-19)
(0.0013780707 0.0015817662 1.5925137e-20)
(0.0013890396 0.0014958839 -5.6979989e-20)
(0.0013967232 0.0014123832 -2.960954e-20)
(0.0014013597 0.0013312558 2.4101187e-20)
(0.0014031721 0.0012524871 -4.6907018e-21)
(0.0014023697 0.0011760569 2.8283635e-20)
(0.0013991484 0.0011019402 -4.0469435e-20)
(0.001393692 0.0010301078 -1.8667154e-20)
(0.0013861722 0.00096052754 4.4135827e-20)
(0.00137675 0.00089316359 -2.1386339e-20)
(0.0013655761 0.00082797839 -8.3600134e-22)
(0.0013527914 0.00076493193 -4.0205761e-20)
(0.0013385276 0.00070398263 -2.6091181e-20)
(0.0013229083 0.00064508784 3.987594e-20)
(0.0013060487 0.00058820337 7.3992274e-21)
(0.0012880564 0.00053328478 4.2828132e-21)
(0.0012690322 0.000480287 8.7119643e-21)
(0.0012490697 0.00042916435 -6.8348054e-21)
(0.0012282567 0.00037987128 3.8372727e-21)
(0.0012066752 0.00033236214 7.8766649e-20)
(0.0011844011 0.0002865914 8.131241e-20)
(0.0011615052 0.00024251445 9.9758542e-21)
(0.0011380533 0.00020008658 -7.2956095e-21)
(0.0011141075 0.00015926122 1.0363888e-20)
(0.0010897257 0.00011999565 8.8101425e-21)
(0.0010649593 8.2248257e-05 3.9411446e-20)
(0.0010398579 4.5977464e-05 7.229468e-21)
(0.0010144689 1.1139333e-05 -5.1779637e-20)
(0.0009888336 -2.2307923e-05 -1.0758719e-20)
(0.00096298984 -5.4400001e-05 4.1722596e-20)
(0.00093697328 -8.517883e-05 1.9780812e-20)
(0.00091081798 -0.00011468199 -1.3506054e-21)
(0.00088455459 -0.00014294641 -1.43252e-20)
(0.00085821125 -0.0001700079 -6.7544015e-21)
(0.00083181371 -0.00019590175 2.6656484e-20)
(0.00080538557 -0.00022066182 3.1092473e-20)
(0.00077894847 -0.00024432133 -1.829884e-20)
(0.00075252215 -0.00026691237 -1.5792106e-20)
(0.0007261245 -0.00028846565 -5.843647e-22)
(0.00069977172 -0.00030901135 2.9466211e-21)
(0.00067347852 -0.00032857832 2.9967156e-20)
(0.00064725813 -0.00034719437 2.4321014e-20)
(0.00062112248 -0.00036488655 -1.1456695e-20)
(0.00059508221 -0.00038168059 2.7800218e-21)
(0.00056914672 -0.00039760151 1.3378885e-20)
(0.00054332439 -0.00041267292 2.4479885e-20)
(0.00051762253 -0.00042691778 3.741046e-21)
(0.00049204753 -0.00044035805 -2.5589281e-20)
(0.00046660491 -0.00045301476 -3.9289932e-21)
(0.00044129936 -0.00046490775 1.4122526e-21)
(0.00041613487 -0.00047605606 1.709147e-20)
(0.00039111475 -0.0004864779 6.0076727e-21)
(0.00036624165 -0.0004961904 -1.1025765e-20)
(0.00034151761 -0.00050520974 -2.2255334e-22)
(0.0003169442 -0.00051355146 3.2384112e-21)
(0.00029252254 -0.00052122999 1.4773641e-20)
(0.00026825324 -0.00052825901 4.8951098e-21)
(0.00024413663 -0.00053465132 -1.1986249e-20)
(0.0002201726 -0.00054041886 8.1279378e-21)
(0.00019636069 -0.00054557267 6.543151e-21)
(0.00017270036 -0.00055012326 2.3256407e-21)
(0.00014919075 -0.0005540804 2.6919354e-21)
(0.00012583074 -0.00055745367 5.2854607e-21)
(0.00010261984 -0.00056025318 1.3613884e-20)
(7.9557408e-05 -0.00056249134 -1.1431099e-21)
(5.6633288e-05 -0.00056418615 -8.8105818e-21)
(3.3828472e-05 -0.00056536572 -1.497534e-20)
(1.1197315e-05 -0.00056605489 -2.5745771e-20)
(0.00077095678 0.0026962913 -7.341408e-21)
(0.00084777204 0.0025923114 8.0351529e-20)
(0.00091716167 0.0024894169 -6.3708022e-20)
(0.00097958276 0.0023878162 -2.4239675e-19)
(0.0010354704 0.0022876877 -2.0802011e-19)
(0.001085238 0.002189183 -4.9728525e-20)
(0.0011292773 0.0020924296 -5.6089307e-20)
(0.0011679595 0.001997534 5.7707537e-20)
(0.0012016352 0.0019045834 -8.2790496e-20)
(0.0012306357 0.0018136479 -4.6815669e-20)
(0.0012552737 0.001724783 3.6549459e-20)
(0.0012758435 0.0016380306 1.0469549e-19)
(0.0012926227 0.0015534211 -4.8806731e-20)
(0.0013058722 0.0014709744 -1.9265408e-19)
(0.0013158376 0.0013907016 -9.4293063e-20)
(0.0013227499 0.0013126055 -1.4130995e-20)
(0.0013268258 0.0012366822 -2.6858374e-20)
(0.0013282691 0.0011629219 -3.1319956e-20)
(0.0013272713 0.0010913092 -9.0364564e-20)
(0.0013240118 0.0010218242 -4.1546051e-20)
(0.0013186592 0.00095444344 1.3254964e-20)
(0.0013113713 0.00088913954 -4.3596137e-21)
(0.0013022966 0.00082588265 -1.6693161e-20)
(0.001291574 0.00076464036 -4.7425187e-20)
(0.0012793335 0.0007053782 -2.4924135e-20)
(0.0012656969 0.00064805999 1.8839576e-20)
(0.0012507788 0.00059264825 9.237807e-22)
(0.001234686 0.00053910428 2.0917945e-21)
(0.0012175185 0.00048738874 -1.7323047e-20)
(0.0011993696 0.00043746138 1.9109993e-20)
(0.001180327 0.00038928196 4.9429742e-20)
(0.0011604725 0.00034280941 4.5808367e-20)
(0.0011398823 0.00029800266 2.8064552e-20)
(0.0011186274 0.00025482142 -5.4131224e-21)
(0.0010967737 0.00021322482 -4.275977e-21)
(0.0010743832 0.00017317302 4.3445854e-21)
(0.0010515157 0.00013462537 2.4796187e-21)
(0.0010282231 9.7540657e-05 9.7959341e-21)
(0.0010045539 6.1882141e-05 -1.1803163e-20)
(0.00098055661 2.761162e-05 -3.286982e-20)
(0.00095627624 -5.309943e-06 -4.634283e-22)
(0.00093174915 -3.6921275e-05 2.220271e-20)
(0.00090701028 -6.7255553e-05 8.2209635e-21)
(0.00088209695 -9.6349389e-05 -3.4278891e-21)
(0.00085704017 -0.00012423746 -3.2748889e-21)
(0.00083186882 -0.00015095349 2.0097491e-21)
(0.00080660967 -0.00017653063 2.5829945e-20)
(0.00078128735 -0.0002010008 1.6734548e-20)
(0.0007559244 -0.00022439536 6.8946633e-21)
(0.00073054148 -0.00024674446 1.749777e-20)
(0.00070515746 -0.0002680774 4.0628309e-21)
(0.00067978965 -0.00028842256 -1.1893669e-20)
(0.00065445367 -0.0003078074 5.4841992e-21)
(0.00062916374 -0.00032625843 2.2640728e-20)
(0.00060393272 -0.00034380124 1.9943631e-20)
(0.00057877226 -0.00036046045 2.6289369e-20)
(0.00055369273 -0.00037625984 1.9669098e-20)
(0.00052870339 -0.000391222 2.7291605e-20)
(0.00050381264 -0.00040536881 7.6823701e-21)
(0.0004790278 -0.00041872139 -5.8892992e-21)
(0.00045435527 -0.00043129973 6.4372356e-21)
(0.00042980068 -0.00044312298 -4.695698e-21)
(0.00040536895 -0.00045420934 1.1061796e-20)
(0.00038106423 -0.00046457633 1.4312974e-20)
(0.00035689002 -0.0004742404 1.1544867e-20)
(0.00033284935 -0.00048321716 5.5555973e-21)
(0.0003089446 -0.0004915215 -4.15836e-21)
(0.00028517772 -0.00049916748 5.9949632e-21)
(0.00026155021 -0.00050616822 1.7068994e-21)
(0.00023806316 -0.00051253604 6.9801685e-21)
(0.00021471735 -0.00051828251 1.2584124e-20)
(0.00019151317 -0.00052341834 6.3268373e-21)
(0.00016845082 -0.00052795377 7.9532306e-21)
(0.00014553016 -0.00053189823 5.2612282e-21)
(0.00012275094 -0.00053526105 9.5875487e-21)
(0.00010011336 -0.00053805228 7.4843087e-21)
(7.7617457e-05 -0.00054028414 2.2546886e-21)
(5.5254102e-05 -0.00054197446 3.4695732e-21)
(3.3005406e-05 -0.00054315126 -4.2112223e-21)
(1.092499e-05 -0.00054383916 -2.1409507e-20)
(0.00066980921 0.0026062072 5.9143474e-20)
(0.00074741675 0.0025089307 5.0372109e-20)
(0.0008178296 0.0024123969 -9.543795e-20)
(0.00088147366 0.0023168256 -1.3815158e-19)
(0.0009387559 0.002222407 -1.0537359e-19)
(0.00099006434 0.002129305 -8.6374806e-20)
(0.0010357682 0.0020376599 -1.1323555e-19)
(0.0010762181 0.0019475906 -5.2804757e-20)
(0.0011117469 0.0018591969 -7.6701366e-20)
(0.0011426697 0.0017725616 -5.6915127e-20)
(0.0011692846 0.0016877521 -1.8120103e-22)
(0.0011918736 0.0016048225 -4.6085436e-20)
(0.0012107028 0.0015238146 -1.8005842e-19)
(0.0012260233 0.0014447594 -1.4391354e-19)
(0.001238072 0.0013676789 9.1403394e-21)
(0.001247072 0.0012925863 -2.1111498e-20)
(0.0012532335 0.0012194875 -1.0774089e-19)
(0.0012567545 0.0011483822 -1.1745835e-19)
(0.001257821 0.0010792639 -7.3731588e-20)
(0.0012566081 0.0010121215 -1.0054587e-20)
(0.0012532805 0.00094693976 1.3383212e-20)
(0.001247993 0.00088369909 -3.9016227e-20)
(0.0012408909 0.0008223769 -8.7993275e-20)
(0.0012321107 0.00076294819 -1.3485201e-20)
(0.0012217804 0.00070538499 -1.6691984e-20)
(0.0012100203 0.00064965747 -5.3718873e-21)
(0.0011969434 0.00059573433 -3.2093124e-20)
(0.0011826554 0.00054358271 -5.5670356e-20)
(0.0011672555 0.00049316839 -2.8370326e-20)
(0.0011508365 0.00044445645 1.7192979e-20)
(0.0011334852 0.00039741163 1.9400602e-20)
(0.0011152832 0.00035199766 -3.1564814e-20)
(0.0010963065 0.00030817776 -3.2964038e-20)
(0.0010766266 0.00026591569 9.1293198e-21)
(0.00105631 0.00022517454 4.3273906e-21)
(0.0010354185 0.00018591855 -3.65674e-20)
(0.001014009 0.00014811102 -4.6182583e-20)
(0.00099213639 0.00011171398 -1.8653473e-20)
(0.00096985377 7.6693856e-05 -8.9821503e-21)
(0.00094720611 4.3013858e-05 -1.8985878e-20)
(0.00092423414 1.0639311e-05 1.0187299e-20)
(0.00090098137 -2.0466146e-05 -1.3570428e-20)
(0.00087748604 -5.0332188e-05 -1.1826546e-20)
(0.00085378075 -7.8993655e-05 1.3771181e-21)
(0.00082989845 -0.0001064828 -6.7188416e-21)
(0.00080586905 -0.00013283127 -4.5793087e-21)
(0.00078172027 -0.00015807011 -9.2782569e-21)
(0.00075747757 -0.00018222932 -1.8855012e-20)
(0.00073316435 -0.00020533826 7.1841621e-21)
(0.00070880214 -0.00022742545 3.0886651e-20)
(0.00068441082 -0.0002485186 1.2824915e-20)
(0.00066000852 -0.00026864439 -2.6308667e-20)
(0.00063561169 -0.00028782885 -2.043712e-20)
(0.00061123548 -0.00030609719 1.9364302e-21)
(0.00058689363 -0.00032347357 9.5190053e-21)
(0.0005625987 -0.00033998158 1.7625548e-20)
(0.000538362 -0.0003556437 1.7553601e-21)
(0.00051419371 -0.00037048156 9.6816961e-21)
(0.00049010301 -0.00038451594 -4.7027932e-23)
(0.00046609812 -0.00039776705 -6.6181817e-21)
(0.00044218631 -0.00041025398 8.0003022e-21)
(0.0004183741 -0.00042199505 -1.33045e-20)
(0.00039466724 -0.00043300772 2.5369873e-21)
(0.00037107075 -0.0004433088 3.8009785e-21)
(0.00034758902 -0.00045291401 3.4654292e-21)
(0.00032422578 -0.00046183846 1.1163576e-21)
(0.00030098435 -0.00047009644 -1.2970748e-20)
(0.00027786747 -0.00047770142 -4.0985321e-21)
(0.00025487736 -0.00048466614 -2.4492914e-21)
(0.00023201593 -0.00049100235 7.9559506e-22)
(0.00020928472 -0.00049672137 4.242726e-21)
(0.00018668496 -0.00050183347 -4.2642447e-21)
(0.00016421756 -0.00050634862 1.6489094e-21)
(0.00014188316 -0.00051027593 -3.1018227e-21)
(0.00011968221 -0.00051362457 -2.6895975e-21)
(9.7615657e-05 -0.00051640427 -2.6949483e-21)
(7.5684268e-05 -0.00051862728 -1.5844488e-21)
(5.3879657e-05 -0.00052031116 -3.4138396e-21)
(3.2185073e-05 -0.00052148384 -9.3232765e-21)
(1.0653562e-05 -0.0005221697 -1.5283203e-20)
(0.00057540888 0.0025168519 1.8833571e-19)
(0.00065347604 0.002426003 1.417475e-20)
(0.00072458895 0.0023355845 -8.2084629e-20)
(0.00078914312 0.0022458245 -5.4364382e-20)
(0.00084751795 0.0021569228 -1.7472812e-20)
(0.00090007661 0.0020690533 -1.0169841e-19)
(0.00094716595 0.0019823667 -1.6950352e-19)
(0.00098911646 0.0018969925 -7.458904e-20)
(0.0010262427 0.0018130416 -5.2910992e-21)
(0.0010588436 0.0017306073 -5.6767289e-20)
(0.0010872028 0.0016497678 -8.5256067e-20)
(0.0011115893 0.0015705877 -1.0146146e-19)
(0.0011322577 0.0014931192 -2.1910194e-20)
(0.0011494489 0.0014174034 2.5809249e-20)
(0.0011633905 0.0013434718 -5.5442779e-21)
(0.0011742978 0.0012713472 -5.5265423e-20)
(0.0011823736 0.0012010446 -6.0864343e-20)
(0.0011878097 0.0011325721 1.249157e-20)
(0.0011907868 0.001065932 -8.2011684e-21)
(0.0011914749 0.001001121 8.5650948e-21)
(0.0011900346 0.00093813135 -3.5953914e-20)
(0.0011866169 0.00087695112 -5.232291e-20)
(0.0011813639 0.00081756448 -1.4160509e-20)
(0.0011744094 0.00075995317 6.6447831e-21)
(0.0011658791 0.00070409556 -3.7116684e-21)
(0.0011558914 0.00064996784 -3.4088116e-20)
(0.0011445573 0.00059754443 -5.0075339e-20)
(0.0011319811 0.00054679812 -1.1357535e-20)
(0.0011182608 0.0004976998 6.0578363e-21)
(0.0011034884 0.0004502194 2.1445362e-20)
(0.0010877504 0.00040432642 3.0194886e-20)
(0.0010711273 0.00035998907 -1.9478983e-20)
(0.0010536951 0.00031717529 -1.9041472e-20)
(0.0010355247 0.00027585259 1.8439761e-20)
(0.0010166827 0.00023598779 7.6723865e-21)
(0.00099723111 0.00019754768 2.4363674e-22)
(0.00097722752 0.00016049945 -3.0134527e-20)
(0.00095672698 0.00012481179 -1.0824339e-20)
(0.00093577943 9.0450499e-05 -7.1931949e-21)
(0.00091443194 5.7381835e-05 3.7696981e-21)
(0.00089273007 2.5574249e-05 1.7992351e-20)
(0.00087071523 -5.0001702e-06 -1.2917689e-21)
(0.00084842407 -3.4376411e-05 1.9959526e-20)
(0.00082589124 -6.258452e-05 5.5610688e-21)
(0.0008031506 -8.9654138e-05 5.3650954e-21)
(0.00078023267 -0.00011561478 4.3381366e-21)
(0.00075716578 -0.00014049544 -9.8372e-21)
(0.00073397608 -0.00016432417 -1.0785663e-20)
(0.00071068781 -0.0001871285 -1.7914244e-21)
(0.00068732332 -0.00020893522 3.8436393e-20)
(0.00066390308 -0.00022977043 2.8996171e-20)
(0.00064044612 -0.00024965933 -1.3034933e-21)
(0.00061696977 -0.00026862637 5.8652265e-21)
(0.00059348999 -0.00028669552 3.579901e-21)
(0.0005700214 -0.00030388966 6.8786728e-21)
(0.00054657725 -0.00032023107 7.5972673e-21)
(0.00052316962 -0.00033574116 8.2195236e-22)
(0.00049980956 -0.00035044053 1.4431431e-20)
(0.0004765071 -0.00036434894 -3.0341345e-21)
(0.00045327126 -0.00037748562 -2.0570103e-21)
(0.00043011021 -0.00038986882 7.9465329e-21)
(0.00040703123 -0.00040151603 -6.4512878e-21)
(0.00038404083 -0.00041244394 1.6729725e-20)
(0.00036114487 -0.00042266862 1.5332194e-20)
(0.00033834843 -0.00043220516 2.8180025e-21)
(0.00031565614 -0.00044106806 -5.8674263e-21)
(0.00029307202 -0.00044927111 -1.0300551e-20)
(0.00027059956 -0.00045682714 7.9787015e-21)
(0.00024824181 -0.00046374843 4.6467113e-21)
(0.00022600141 -0.00047004636 3.0022872e-21)
(0.00020388064 -0.00047573182 3.8953971e-21)
(0.00018188139 -0.00048081474 -8.9186988e-23)
(0.00016000535 -0.00048530478 6.816467e-21)
(0.00013825385 -0.00048921073 8.4842242e-21)
(0.00011662807 -0.00049254157 -2.0365711e-21)
(9.5129626e-05 -0.00049530675 -3.029149e-21)
(7.3759884e-05 -0.00049751843 6.4670365e-21)
(5.2511394e-05 -0.00049919402 3.7049159e-21)
(3.1368478e-05 -0.00050036133 -1.5508897e-20)
(1.0383382e-05 -0.00050104435 -1.6688054e-20)
(0.00048746176 0.0024284635 3.6142536e-19)
(0.00056568693 0.0023437642 2.0447185e-19)
(0.00063720499 0.0022592115 -1.0830789e-19)
(0.0007023822 0.0021750399 5.930071e-20)
(0.00076157127 0.0020914563 1.1168168e-19)
(0.00081511106 0.0020086425 8.0855635e-20)
(0.00086332632 0.0019267577 4.5258097e-20)
(0.00090652765 0.0018459405 3.4900659e-20)
(0.00094501168 0.0017663106 1.2362705e-19)
(0.00097906108 0.0016879707 4.9789848e-20)
(0.0010089449 0.0016110082 6.8110031e-20)
(0.0010349191 0.001535497 1.0330606e-19)
(0.0010572264 0.0014614983 6.9738362e-20)
(0.0010760973 0.0013890623 7.9124563e-20)
(0.0010917501 0.0013182292 2.8462018e-20)
(0.0011043916 0.0012490303 5.7292207e-20)
(0.0011142175 0.0011814887 1.3212918e-19)
(0.0011214126 0.0011156207 5.2987709e-20)
(0.0011261518 0.0010514361 -2.6269823e-20)
(0.0011286002 0.00098893919 2.5830828e-20)
(0.0011289136 0.0009281292 1.3540222e-20)
(0.0011272391 0.00086900102 3.4373656e-20)
(0.0011237153 0.00081154543 4.026551e-20)
(0.0011184728 0.00075575025 -2.696255e-21)
(0.0011116349 0.00070159995 2.8503971e-20)
(0.0011033175 0.00064907651 5.9257785e-21)
(0.0010936297 0.00059815957 1.5124626e-20)
(0.0010826743 0.00054882716 1.6079598e-21)
(0.0010705477 0.00050105545 1.5156832e-22)
(0.0010573408 0.00045481908 9.6594918e-21)
(0.001043139 0.00041009172 -5.4352995e-21)
(0.0010280225 0.00036684583 3.2305986e-20)
(0.0010120663 0.00032505381 5.7898001e-20)
(0.00099534094 0.00028468671 3.6733876e-20)
(0.00097791226 0.00024571537 1.279344e-20)
(0.00095984258 0.00020811002 2.7503223e-21)
(0.00094119013 0.00017184121 9.2368099e-21)
(0.00092200904 0.00013687996 3.8581477e-20)
(0.00090234998 0.00010319584 7.7379322e-21)
(0.00088226021 7.0760087e-05 1.7588648e-20)
(0.00086178665 3.9543261e-05 9.4362362e-21)
(0.0008409689 9.5134655e-06 1.403648e-22)
(0.00081984347 -1.9355509e-05 3.1589071e-20)
(0.00079844827 -4.7091439e-05 1.6605229e-20)
(0.00077681643 -7.3722914e-05 1.362457e-21)
(0.0007549791 -9.9277293e-05 2.9750915e-22)
(0.00073296521 -0.00012378157 1.5615087e-20)
(0.00071080158 -0.00014726191 3.3926355e-20)
(0.00068851303 -0.00016974413 -1.7958626e-21)
(0.00066612259 -0.00019125326 1.2101121e-20)
(0.00064365148 -0.00021181377 9.9750155e-21)
(0.00062111933 -0.00023144945 -3.2873413e-22)
(0.00059854433 -0.00025018331 3.132897e-20)
(0.00057594318 -0.00026803798 9.6113077e-21)
(0.00055333114 -0.00028503504 9.3552265e-21)
(0.00053072225 -0.00030119549 9.2068424e-21)
(0.00050812934 -0.00031653972 5.5801268e-21)
(0.00048556428 -0.00033108735 2.3319484e-20)
(0.00046303782 -0.00034485711 -4.6049668e-21)
(0.0004405597 -0.00035786722 -4.9402429e-21)
(0.00041813882 -0.00037013506 3.9952916e-21)
(0.00039578325 -0.0003816774 -8.9038846e-21)
(0.00037350024 -0.00039251012 1.7022555e-20)
(0.00035129636 -0.00040264852 1.465006e-20)
(0.00032917753 -0.00041210713 6.0228887e-21)
(0.00030714906 -0.00042089981 9.3547294e-22)
(0.00028521564 -0.00042903977 -9.8885198e-21)
(0.00026338153 -0.00043653936 1.7148797e-20)
(0.00024165055 -0.00044341027 5.5691731e-21)
(0.00022002598 -0.00044966362 -5.8956689e-22)
(0.00019851079 -0.00045530972 4.4696913e-21)
(0.00017710756 -0.00046035826 3.8631059e-21)
(0.00015581862 -0.00046481859 1.1388879e-20)
(0.00013464606 -0.00046869921 1.264854e-20)
(0.0001135917 -0.00047200876 1.5006725e-20)
(9.265775e-05 -0.00047475659 6.3061807e-21)
(7.1846323e-05 -0.00047695465 -3.5024921e-21)
(5.1150811e-05 -0.00047862024 -2.2747981e-21)
(3.0556454e-05 -0.00047978094 -2.2990142e-20)
(1.01147e-05 -0.00048046033 -2.8430619e-20)
(0.00040567335 0.0023412524 1.7514792e-19)
(0.00048378412 0.0022624242 3.1912568e-19)
(0.0005554395 0.0021834862 -5.2898749e-20)
(0.00062097755 0.0021046769 -6.9619994e-20)
(0.0006807252 0.0020262086 4.4640427e-20)
(0.0007349977 0.0019482691 1.5439429e-19)
(0.00078409839 0.0018710244 1.477135e-19)
(0.00082831827 0.00179462 1.9630009e-20)
(0.00086793613 0.0017191834 -2.1410104e-20)
(0.00090321868 0.0016448249 4.9538025e-20)
(0.00093442046 0.0015716401 1.3969542e-19)
(0.00096178418 0.0014997107 1.503926e-19)
(0.00098554084 0.0014291059 1.5414491e-20)
(0.0010059102 0.0013598838 1.0956432e-20)
(0.0010231011 0.0012920924 2.2062241e-20)
(0.0010373117 0.0012257706 8.4946389e-20)
(0.0010487301 0.0011609491 1.1312948e-19)
(0.0010575344 0.0010976513 -9.1890362e-21)
(0.0010638931 0.001035894 4.8168017e-22)
(0.001067966 0.00097568834 1.2929659e-20)
(0.0010699042 0.00091704012 3.3042671e-20)
(0.0010698504 0.0008599505 5.2831497e-20)
(0.0010679395 0.00080441653 -2.0983154e-22)
(0.0010642987 0.00075043161 -2.4590141e-20)
(0.0010590485 0.00069798591 3.2089113e-20)
(0.0010523022 0.00064706682 3.2318007e-20)
(0.0010441667 0.00059765907 1.0125037e-20)
(0.0010347429 0.00054974557 -6.5099808e-21)
(0.0010241257 0.00050330719 5.0507336e-21)
(0.0010124044 0.00045832323 -1.5189808e-20)
(0.00099966328 0.00041477156 -1.2214489e-20)
(0.00098598158 0.00037262873 6.9956961e-20)
(0.0009714338 0.00033187082 6.6674611e-20)
(0.00095608961 0.00029247252 3.4931585e-21)
(0.00094001456 0.00025440877 -1.3198684e-20)
(0.00092327063 0.00021765338 -6.1929546e-21)
(0.00090591574 0.00018217977 5.7311934e-20)
(0.00088800417 0.00014796148 5.3361288e-20)
(0.00086958644 0.0001149719 -2.8511093e-20)
(0.00085071041 8.3184483e-05 -4.0455426e-20)
(0.00083141859 5.2572491e-05 -2.0482429e-21)
(0.00081175522 2.3106629e-05 4.7471491e-20)
(0.00079176139 -5.2370963e-06 2.2217358e-20)
(0.0007714695 -3.2484161e-05 -4.5880453e-21)
(0.00075091348 -5.8660624e-05 -1.2557454e-20)
(0.00073012582 -8.3792005e-05 -1.0026144e-21)
(0.0007091359 -0.00010790335 3.2005261e-20)
(0.00068797103 -0.0001310189 3.1203137e-20)
(0.00066665658 -0.00015316293 3.8978382e-21)
(0.00064521618 -0.00017435873 -6.552445e-21)
(0.0006236718 -0.00019462918 -1.342692e-20)
(0.00060204366 -0.00021399659 -7.7243471e-22)
(0.00058035047 -0.00023248265 2.0261463e-20)
(0.0005586096 -0.00025010859 2.9382523e-21)
(0.00053683699 -0.00026689473 -2.4850338e-21)
(0.00051504744 -0.00028286095 1.1962063e-20)
(0.00049325453 -0.00029802654 1.3420947e-20)
(0.00047147065 -0.00031241003 2.0493637e-20)
(0.00044970725 -0.0003260292 -6.1852916e-21)
(0.00042797485 -0.00033890137 -1.5342469e-20)
(0.00040628305 -0.00035104304 -1.8322306e-21)
(0.00038464054 -0.00036247012 -1.3874759e-20)
(0.00036305529 -0.00037319786 2.0732491e-21)
(0.00034153464 -0.00038324077 5.929521e-21)
(0.00032008513 -0.00039261274 -3.8931937e-21)
(0.00029871278 -0.00040132701 3.5629443e-21)
(0.00027742299 -0.0004093962 -7.6008919e-21)
(0.00025622058 -0.00041683221 6.8980029e-21)
(0.00023511005 -0.0004236463 1.0344905e-20)
(0.00021409542 -0.00042984903 8.7737744e-22)
(0.00019318033 -0.00043545035 9.6954621e-21)
(0.00017236805 -0.00044045966 8.7863166e-21)
(0.00015166151 -0.00044488587 8.5907247e-21)
(0.0001310634 -0.00044873737 5.8326721e-21)
(0.0001105762 -0.00045202237 7.9444288e-21)
(9.0202765e-05 -0.00045475016 5.9311129e-21)
(6.9945773e-05 -0.00045693247 -3.2005852e-21)
(4.9799363e-05 -0.0004585864 -8.5570202e-21)
(2.9749774e-05 -0.00045973931 -2.1133588e-20)
(9.8477626e-06 -0.00046041443 -2.9339652e-20)
(0.00032975066 0.0022554033 2.755854e-20)
(0.00040750221 0.0021821689 1.6146047e-19)
(0.00047905268 0.0021085942 -3.5580115e-20)
(0.00054471314 0.00203492 -2.8876455e-19)
(0.00060478565 0.0019613619 -1.2823585e-19)
(0.00065956266 0.0018881121 7.9672942e-21)
(0.00070932662 0.0018153415 1.4738479e-22)
(0.00075434957 0.0017432016 2.3588836e-21)
(0.0007948929 0.0016718257 -1.7411956e-19)
(0.00083120738 0.0016013308 -4.3911577e-20)
(0.00086353317 0.001531819 6.4452215e-20)
(0.00089209991 0.0014633788 8.6810232e-20)
(0.00091712686 0.0013960865 -1.5824977e-20)
(0.00093882308 0.0013300069 -1.5616925e-19)
(0.00095738774 0.001265195 -5.1426478e-20)
(0.00097301035 0.0012016963 5.1545617e-20)
(0.00098587108 0.0011395484 2.3537577e-20)
(0.00099614102 0.0010787812 -6.2896769e-20)
(0.0010039825 0.001019418 -9.7852034e-20)
(0.0010095497 0.00096147579 -4.5685288e-20)
(0.0010129885 0.00090496662 4.2910436e-20)
(0.0010144372 0.00084989752 2.3637195e-20)
(0.0010140267 0.00079627106 -2.8380647e-20)
(0.0010118809 0.00074408604 -4.3249847e-20)
(0.0010081168 0.00069333798 1.5799781e-21)
(0.0010028451 0.00064401923 3.7443062e-20)
(0.00099617033 0.00059611936 4.2948067e-21)
(0.00098819114 0.00054962591 -1.7532422e-20)
(0.00097900071 0.00050452409 -4.088547e-20)
(0.00096868696 0.00046079754 -1.3445597e-20)
(0.00095733255 0.00041842822 3.0836291e-20)
(0.00094501547 0.00037739674 2.8254492e-20)
(0.00093180944 0.00033768268 1.991085e-20)
(0.00091778372 0.00029926413 -1.1662408e-20)
(0.00090300303 0.00026211961 -6.3218179e-21)
(0.00088752849 0.00022622622 -3.3555797e-21)
(0.00087141769 0.00019156051 1.5714105e-20)
(0.00085472492 0.00015809877 4.4460182e-21)
(0.00083750082 0.00012581695 -2.6923441e-20)
(0.0008197926 9.469118e-05 -3.9923299e-20)
(0.00080164452 6.4696962e-05 -7.2958634e-21)
(0.00078309864 3.5812215e-05 1.9949558e-20)
(0.00076419531 8.0101115e-06 2.0435986e-21)
(0.00074497064 -1.8732691e-05 3.1396103e-22)
(0.00072545773 -4.4438827e-05 -1.0806903e-21)
(0.00070568865 -6.9132038e-05 1.3713899e-20)
(0.00068569333 -9.2835388e-05 1.9963741e-20)
(0.00066549968 -0.0001155714 -1.089765e-20)
(0.00064513358 -0.00013736257 -2.4000152e-21)
(0.00062461913 -0.00015823068 9.0365957e-21)
(0.00060397877 -0.00017819696 5.8942188e-21)
(0.00058323319 -0.00019728227 -6.9044462e-21)
(0.0005624018 -0.00021550703 -5.0520738e-21)
(0.00054150254 -0.00023289108 1.696148e-21)
(0.00052055195 -0.00024945356 1.4379617e-22)
(0.00049956543 -0.00026521328 1.8579208e-20)
(0.00047855715 -0.00028018831 1.2854607e-20)
(0.00045754016 -0.00029439609 1.3379132e-20)
(0.00043652655 -0.00030785364 -3.2047361e-21)
(0.00041552745 -0.00032057723 -7.1418027e-21)
(0.00039455306 -0.00033258263 1.1191882e-20)
(0.00037361281 -0.00034388481 -1.5485608e-20)
(0.00035271525 -0.00035449836 -1.6057247e-20)
(0.00033186834 -0.00036443709 3.1247886e-21)
(0.00031107934 -0.00037371422 5.1077307e-21)
(0.00029035481 -0.00038234245 7.3991277e-21)
(0.00026970083 -0.0003903337 -9.2159196e-21)
(0.00024912298 -0.00039769945 -8.9437205e-21)
(0.00022862623 -0.00040445053 9.5569467e-21)
(0.00020821525 -0.00041059699 1.2554675e-20)
(0.00018789434 -0.00041614848 1.6699999e-20)
(0.00016766737 -0.00042111396 9.324779e-21)
(0.00014753791 -0.00042550198 -1.1821913e-21)
(0.00012750924 -0.00042932072 5.2483214e-21)
(0.00010758443 -0.00043257815 -1.1145002e-21)
(8.7766859e-05 -0.00043528334 -4.1667927e-21)
(6.805982e-05 -0.00043744783 2.38505e-21)
(4.8458246e-05 -0.00043908852 -1.8456145e-21)
(2.8949262e-05 -0.00044023253 -9.2520917e-21)
(9.5828697e-06 -0.00044090278 -2.3163672e-20)
(0.00025940332 0.0021710764 1.2906065e-20)
(0.00033657709 0.0021031614 -1.3443915e-19)
(0.00040780482 0.0020347001 -3.4114079e-20)
(0.00047337181 0.0019659338 -4.6619735e-20)
(0.00053355637 0.0018970799 -6.9778354e-21)
(0.00058862905 0.0018283334 -1.3405817e-20)
(0.00063885213 0.0017598687 -2.1017598e-19)
(0.00068447907 0.0016918417 -1.1926086e-20)
(0.00072575437 0.0016243904 -1.3508446e-20)
(0.00076291333 0.0015576371 -9.6408125e-21)
(0.00079618189 0.0014916893 3.7566968e-20)
(0.00082577681 0.0014266413 -1.2383773e-19)
(0.00085190558 0.0013625753 -4.6891292e-20)
(0.00087476662 0.0012995621 -7.4498452e-21)
(0.00089454942 0.0012376626 6.682186e-20)
(0.00091143473 0.0011769285 8.9581081e-21)
(0.0009255948 0.0011174031 -1.7599641e-19)
(0.00093719358 0.0010591223 -6.4702e-20)
(0.00094638706 0.001002115 5.7308789e-21)
(0.00095332347 0.00094640409 2.5580172e-20)
(0.00095814358 0.00089200688 1.695173e-20)
(0.00096098107 0.00083893582 -1.0760298e-19)
(0.00096196258 0.00078719868 -3.8980331e-20)
(0.00096120828 0.00073679919 4.1360178e-20)
(0.00095883197 0.00068773782 4.3513538e-21)
(0.00095494132 0.00064001166 -1.5864084e-20)
(0.0009496383 0.00059361461 -9.545231e-20)
(0.00094301923 0.0005485387 -2.3472717e-20)
(0.00093517525 0.00050477329 9.7585926e-22)
(0.0009261926 0.00046230602 -1.2952533e-21)
(0.0009161526 0.00042112255 1.0192346e-20)
(0.00090513173 0.00038120738 -8.8013e-20)
(0.00089320231 0.00034254371 -3.5836951e-20)
(0.0008804328 0.00030511302 3.1003838e-20)
(0.00086688777 0.00026889686 -1.1336858e-21)
(0.00085262753 0.00023387518 -3.0921993e-20)
(0.00083770885 0.00020002788 -7.9792605e-20)
(0.00082218545 0.00016733422 -2.1378327e-20)
(0.00080610766 0.00013577263 4.0340776e-21)
(0.00078952316 0.00010532188 -3.1015905e-20)
(0.00077247626 7.5960362e-05 -8.9049572e-21)
(0.00075500842 4.7666497e-05 -6.2491687e-20)
(0.00073715966 2.0418649e-05 -2.2063372e-20)
(0.00071896694 -5.8064065e-06 2.0008394e-20)
(0.00070046366 -3.1028882e-05 -1.1903097e-20)
(0.00068168181 -5.5270432e-05 -1.7682367e-20)
(0.00066265176 -7.855232e-05 -4.6791475e-20)
(0.00064340173 -0.00010089551 -3.2927129e-20)
(0.000623958 -0.00012232062 8.4823011e-21)
(0.00060434495 -0.00014284792 6.2892443e-21)
(0.00058458548 -0.00016249711 2.1446688e-21)
(0.00056470096 -0.00018128775 -3.4053232e-20)
(0.00054471118 -0.00019923886 -2.4463306e-20)
(0.00052463454 -0.00021636897 1.224239e-21)
(0.00050448811 -0.00023269608 -9.8228489e-21)
(0.00048428786 -0.00024823791 -6.8171133e-21)
(0.00046404855 -0.00026301129 -2.8663078e-20)
(0.00044378376 -0.00027703279 -6.7947087e-21)
(0.00042350619 -0.00029031847 -7.4893672e-22)
(0.00040322753 -0.0003028836 -1.3836304e-20)
(0.00038295853 -0.00031474332 -5.9843092e-21)
(0.00036270922 -0.0003259116 -3.6839532e-20)
(0.00034248881 -0.00033640238 -2.0652038e-20)
(0.00032230575 -0.00034622881 -7.5378027e-21)
(0.00030216793 -0.00035540348 -1.0701836e-20)
(0.00028208258 -0.00036393842 -9.4588669e-21)
(0.0002620563 -0.00037184506 -2.5300712e-20)
(0.00024209521 -0.00037913435 -1.4218206e-20)
(0.00022220499 -0.00038581661 -1.1673578e-21)
(0.00020239088 -0.00039190156 -4.1755884e-21)
(0.00018265768 -0.00039739835 -3.9640869e-21)
(0.00016300991 -0.00040231565 -1.192229e-20)
(0.00014345172 -0.00040666167 -1.2524235e-20)
(0.0001239869 -0.0004104443 -8.9859149e-21)
(0.00010461914 -0.00041367129 -1.0775127e-20)
(8.5352384e-05 -0.00041635147 -1.2245316e-20)
(6.6190384e-05 -0.00041849621 -8.4584109e-21)
(4.712881e-05 -0.0004201222 -8.8213689e-21)
(2.8155703e-05 -0.00042125624 -1.1204574e-20)
(9.3202714e-06 -0.00042192101 -1.9683932e-20)
(0.00019434563 0.0020884092 2.5189175e-19)
(0.00027074783 0.0020255438 -4.9286434e-20)
(0.00034145783 0.0019619486 -2.100124e-19)
(0.00040673679 0.0018978645 -1.3267127e-19)
(0.00046684048 0.001833509 -1.1045971e-19)
(0.00052201842 0.0017690788 -6.190519e-20)
(0.00057251345 0.0017047504 -1.881811e-19)
(0.00061856118 0.0016406827 -1.0543516e-19)
(0.00066038969 0.0015770173 -3.4294665e-20)
(0.00069821915 0.0015138806 -9.5677375e-20)
(0.00073226159 0.0014513845 -2.2377794e-20)
(0.00076272107 0.0013896281 -7.379974e-20)
(0.00078979361 0.0013286985 -1.5090979e-20)
(0.00081366697 0.0012686717 9.6209934e-21)
(0.000834521 0.0012096136 -5.352497e-20)
(0.00085252772 0.0011515812 -4.2752204e-20)
(0.00086785141 0.001094623 -5.1212486e-20)
(0.00088064885 0.0010387802 2.2926635e-20)
(0.00089106946 0.00098408686 -1.2035024e-20)