/*--------------------------------*- C++ -*----------------------------------*\
| =========                 |                                                 |
| \\      /  F ield         | OpenFOAM: The Open Source CFD Toolbox           |
|  \\    /   O peration     | Version:  2306                                  |
|   \\  /    A nd           | Website:  www.openfoam.com                      |
|    \\/     M anipulation  |                                                 |
\*---------------------------------------------------------------------------*/
FoamFile
{
    version     2.0;
    format      ascii;
    arch        "LSB;label=32;scalar=64";
    class       volVectorField;
    location    "0.38";
    object      U_0;
}
// * * * * * * * * * * * * * * * * * * * * * * * * * * * * * * * * * * * * * //

dimensions      [0 1 -1 0 0 0 0];

internalField   nonuniform List<vector> 
6400
(
(0.00088016995 0.0027855463 2.3403165e-19)
(0.00095577662 0.0026746162 8.8158591e-20)
(0.0010237418 0.0025651448 -1.1038715e-19)
(0.0010845542 0.0024573263 -9.9963321e-21)
(0.0011386775 0.0023513246 -5.7365688e-20)
(0.0011865503 0.0022472766 1.1952789e-19)
(0.0012285871 0.002145295 4.3436401e-20)
(0.0012651789 0.0020454712 1.6207744e-19)
(0.0012966944 0.0019478782 1.0247599e-19)
(0.0013234806 0.0018525718 9.2885895e-20)
(0.0013458638 0.0017595937 9.3370064e-20)
(0.0013641509 0.0016689725 1.5734532e-19)
(0.0013786298 0.0015807256 1.5944166e-20)
(0.001389571 0.0014948609 -5.7062531e-20)
(0.0013972283 0.0014113773 -2.9515072e-20)
(0.0014018395 0.0013302667 2.4108035e-20)
(0.001403628 0.0012515143 -4.7323556e-21)
(0.0014028027 0.0011751001 2.8298859e-20)
(0.0013995596 0.0011009989 -4.0460299e-20)
(0.0013940823 0.0010291818 -1.8622662e-20)
(0.0013865426 0.0009596163 4.4133738e-20)
(0.0013771014 0.00089226689 -2.1416319e-20)
(0.0013659094 0.0008270959 -8.5488026e-22)
(0.0013531074 0.00076406329 -4.0203081e-20)
(0.0013388272 0.00070312754 -2.6079265e-20)
(0.0013231921 0.00064424601 3.9916928e-20)
(0.0013063174 0.00058737447 7.3635033e-21)
(0.0012883109 0.00053246853 4.2377437e-21)
(0.001269273 0.00047948311 8.7329765e-21)
(0.0012492975 0.00042837251 -6.7933895e-21)
(0.0012284721 0.00037909121 3.8637396e-21)
(0.0012068788 0.00033159353 7.8727564e-20)
(0.0011845935 0.00028583395 8.1277315e-20)
(0.001161687 0.0002417679 9.970021e-21)
(0.0011382249 0.00019935063 -7.3027112e-21)
(0.0011142695 0.00015853565 1.0346238e-20)
(0.0010898786 0.00011928011 8.8031845e-21)
(0.0010651034 8.1542512e-05 3.9403786e-20)
(0.0010399937 4.528126e-05 7.2335451e-21)
(0.0010145969 1.045228e-05 -5.1774848e-20)
(0.00098895417 -2.2985975e-05 -1.0756842e-20)
(0.00096310336 -5.506938e-05 4.1712339e-20)
(0.00093708007 -8.5839771e-05 1.9742973e-20)
(0.00091091839 -0.00011533479 -1.3643298e-21)
(0.00088464901 -0.00014359132 -1.4295869e-20)
(0.00085829995 -0.0001706452 -6.7366317e-21)
(0.00083189699 -0.00019653166 2.6645674e-20)
(0.00080546374 -0.00022128464 3.1081353e-20)
(0.00077902182 -0.00024493727 -1.8304687e-20)
(0.00075259092 -0.0002675217 -1.5788172e-20)
(0.00072618894 -0.00028906864 -5.6919686e-22)
(0.00069983206 -0.00030960821 2.9372324e-21)
(0.00067353495 -0.00032916934 2.9977219e-20)
(0.00064731087 -0.00034777976 2.4320691e-20)
(0.00062117175 -0.00036546656 -1.1450513e-20)
(0.00059512818 -0.00038225543 2.7673313e-21)
(0.00056918958 -0.00039817149 1.3375336e-20)
(0.00054336431 -0.00041323821 2.4466353e-20)
(0.00051765965 -0.00042747862 3.7238858e-21)
(0.00049208201 -0.00044091468 -2.5573211e-20)
(0.00046663688 -0.0004535674 -3.934468e-21)
(0.00044132896 -0.00046545662 1.4045189e-21)
(0.00041616222 -0.00047660136 1.7110163e-20)
(0.00039113994 -0.00048701988 6.0029166e-21)
(0.0003662648 -0.00049672925 -1.1015735e-20)
(0.00034153883 -0.00050574568 -1.956786e-22)
(0.00031696357 -0.0005140847 3.2398051e-21)
(0.00029254011 -0.00052176073 1.4754382e-20)
(0.00026826912 -0.00052878748 4.8901229e-21)
(0.00024415089 -0.00053517769 -1.1995798e-20)
(0.00022018528 -0.00054094332 8.1331872e-21)
(0.00019637189 -0.00054609541 6.532498e-21)
(0.00017271014 -0.00055064448 2.3458066e-21)
(0.00014919911 -0.00055460033 2.6845168e-21)
(0.00012583773 -0.00055797248 5.2838174e-21)
(0.0001026255 -0.00056077106 1.361293e-20)
(7.9561774e-05 -0.00056300849 -1.1511442e-21)
(5.6636362e-05 -0.00056470271 -8.8004829e-21)
(3.3830298e-05 -0.00056588186 -1.4989039e-20)
(1.1197932e-05 -0.00056657079 -2.5740997e-20)
(0.00077200735 0.0026950416 -7.2384995e-21)
(0.0008487706 0.0025910833 8.0371288e-20)
(0.00091811098 0.00248821 -6.3581169e-20)
(0.00098048546 0.0023866301 -2.4224863e-19)
(0.001036329 0.0022865219 -2.079632e-19)
(0.0010860547 0.0021880372 -4.9662165e-20)
(0.0011300543 0.0020913033 -5.6002117e-20)
(0.0011686987 0.0019964268 5.775103e-20)
(0.0012023385 0.0019034949 -8.2767823e-20)
(0.0012313049 0.0018125776 -4.6735267e-20)
(0.0012559104 0.0017237305 3.6533403e-20)
(0.0012764494 0.0016369955 1.0459983e-19)
(0.0012931991 0.001552403 -4.8716968e-20)
(0.0013064205 0.0014699729 -1.9261856e-19)
(0.0013163592 0.0013897162 -9.4222405e-20)
(0.0013232459 0.001311636 -1.4185334e-20)
(0.0013272975 0.0012357282 -2.6810691e-20)
(0.0013287175 0.0011619831 -3.1270633e-20)
(0.0013276975 0.0010903852 -9.0270784e-20)
(0.0013244169 0.0010209147 -4.1534576e-20)
(0.001319044 0.00095354807 1.3207805e-20)
(0.0013117368 0.00088825804 -4.3122325e-21)
(0.0013026437 0.00082501471 -1.6658056e-20)
(0.0012919035 0.00076378567 -4.7366187e-20)
(0.0012796462 0.00070453647 -2.4871823e-20)
(0.0012659936 0.00064723093 1.8855647e-20)
(0.0012510601 0.00059183157 9.0494263e-22)
(0.0012349527 0.0005382997 2.1276817e-21)
(0.0012177713 0.00048659602 -1.7292273e-20)
(0.0011996092 0.00043668022 1.9129428e-20)
(0.0011805539 0.00038851208 4.9381843e-20)
(0.0011606873 0.00034205055 4.5771758e-20)
(0.0011400856 0.00029725454 2.8066551e-20)
(0.0011188198 0.00025408378 -5.4141856e-21)
(0.0010969556 0.00021249739 -4.2718943e-21)
(0.0010745552 0.00017245555 4.3293128e-21)
(0.0010516783 0.00013391756 2.4760589e-21)
(0.0010283767 9.6842288e-05 9.8124265e-21)
(0.001004699 6.1192941e-05 -1.1797758e-20)
(0.00098069357 2.693129e-05 -3.2848392e-20)
(0.0009564055 -5.9816536e-06 -4.6084041e-22)
(0.00093187106 -3.7584582e-05 2.218748e-20)
(0.00090712522 -6.7910765e-05 8.2537284e-21)
(0.00088220528 -9.6996724e-05 -3.4026729e-21)
(0.00085714223 -0.00012487719 -3.2908631e-21)
(0.00083196493 -0.00015158585 1.9863214e-21)
(0.00080670011 -0.00017715583 2.5832547e-20)
(0.00078137241 -0.00020161914 1.6763654e-20)
(0.00075600438 -0.00022500704 6.8927829e-21)
(0.00073061662 -0.00024734978 1.7497507e-20)
(0.00070522804 -0.00026867653 4.0592561e-21)
(0.00067985589 -0.0002890158 -1.1898466e-20)
(0.00065451576 -0.00030839497 5.4917103e-21)
(0.00062922191 -0.00032684055 2.2632245e-20)
(0.00060398718 -0.00034437813 1.9939391e-20)
(0.00057882319 -0.00036103235 2.6281139e-20)
(0.00055374031 -0.00037682697 1.9663526e-20)
(0.0005287478 -0.00039178462 2.7294687e-20)
(0.00050385404 -0.0004059271 7.6782528e-21)
(0.00047906633 -0.00041927559 -5.8735465e-21)
(0.00045439108 -0.00043185006 6.4426572e-21)
(0.00042983391 -0.00044366964 -4.7082546e-21)
(0.0004053997 -0.00045475254 1.1041528e-20)
(0.00038109262 -0.0004651163 1.4309422e-20)
(0.00035691616 -0.00047477733 1.1569293e-20)
(0.00033287332 -0.00048375125 5.5558396e-21)
(0.00030896652 -0.00049205297 -4.1494405e-21)
(0.00028519766 -0.00049969652 5.991303e-21)
(0.00026156826 -0.00050669503 1.7092629e-21)
(0.0002380794 -0.0005130608 6.973057e-21)
(0.00021473184 -0.00051880542 1.2571284e-20)
(0.00019152599 -0.00052393956 6.3412286e-21)
(0.00016846197 -0.00052847354 7.9583113e-21)
(0.00014553969 -0.00053241674 5.2609229e-21)
(0.00012275893 -0.00053577848 9.5909263e-21)
(0.00010011983 -0.0005385688 7.4969603e-21)
(7.762246e-05 -0.00054079993 2.256593e-21)
(5.525766e-05 -0.00054248971 3.4668355e-21)
(3.3007512e-05 -0.00054366606 -4.2089974e-21)
(1.0925688e-05 -0.00054435372 -2.1393776e-20)
(0.00067088053 0.0026049981 5.9076275e-20)
(0.00074843576 0.002507741 5.0427294e-20)
(0.00081879905 0.0024112265 -9.5419079e-20)
(0.00088239618 0.0023156741 -1.3812424e-19)
(0.00093963392 0.0022212742 -1.0535189e-19)
(0.0009909001 0.0021281906 -8.619353e-20)
(0.0010365638 0.0020365635 -1.1322155e-19)
(0.0010769756 0.0019465119 -5.2805152e-20)
(0.0011124681 0.0018581356 -7.6689248e-20)
(0.0011433564 0.0017715172 -5.6911261e-20)
(0.0011699385 0.0016867244 -2.6377365e-22)
(0.0011924962 0.001603811 -4.6102451e-20)
(0.0012112956 0.0015228191 -1.800113e-19)
(0.0012265877 0.0014437795 -1.4373187e-19)
(0.0012386093 0.0013667143 9.0623612e-21)
(0.0012475834 0.0012916367 -2.1097731e-20)
(0.0012537202 0.0012185526 -1.0762832e-19)
(0.0012572175 0.0011474615 -1.1742038e-19)
(0.0012582615 0.0010783573 -7.3780408e-20)
(0.0012570272 0.0010112287 -1.0007993e-20)
(0.0012536791 0.00094606041 1.3494922e-20)
(0.001248372 0.00088283293 -3.901844e-20)
(0.0012412512 0.00082152366 -8.8005929e-20)
(0.001232453 0.00076210759 -1.3446256e-20)
(0.0012221056 0.00070455676 -1.6702409e-20)
(0.0012103293 0.00064884134 -5.3620464e-21)
(0.0011972368 0.00059493004 -3.2066645e-20)
(0.0011829339 0.00054279 -5.5650561e-20)
(0.0011675198 0.00049238701 -2.8384831e-20)
(0.0011510872 0.00044368614 1.7219838e-20)
(0.001133723 0.00039665213 1.9422991e-20)
(0.0011155086 0.00035124871 -3.1558605e-20)
(0.0010965202 0.00030743914 -3.2950507e-20)
(0.0010768291 0.00026518711 9.119112e-21)
(0.0010565018 0.00022445579 4.3187828e-21)
(0.0010356002 0.00018520936 -3.6588514e-20)
(0.001014181 0.00014741115 -4.6178422e-20)
(0.00099229912 0.00011102315 -1.8600176e-20)
(0.00097000767 7.6011823e-05 -8.9681327e-21)
(0.00094735165 4.2340397e-05 -1.900035e-20)
(0.00092437178 9.9741397e-06 1.018558e-20)
(0.00090111143 -2.1123224e-05 -1.3554763e-20)
(0.00087760884 -5.0981444e-05 -1.184956e-20)
(0.0008538967 -7.9635306e-05 1.3907086e-21)
(0.00083000787 -0.00010711713 -6.6916049e-21)
(0.00080597229 -0.00013345847 -4.6020473e-21)
(0.00078181761 -0.00015869045 -9.2862522e-21)
(0.00075756929 -0.00018284299 -1.8860028e-20)
(0.00073325074 -0.00020594553 7.1750796e-21)
(0.00070888348 -0.00022802654 3.0928131e-20)
(0.00068448735 -0.00024911373 1.2809609e-20)
(0.00066008045 -0.00026923379 -2.6327473e-20)
(0.00063567928 -0.00028841277 -2.0423277e-20)
(0.00061129891 -0.00030667584 1.9353331e-21)
(0.00058695313 -0.00032404717 9.5127719e-21)
(0.00056265445 -0.00034055036 1.7632e-20)
(0.00053841415 -0.00035620785 1.7392701e-21)
(0.00051424248 -0.00037104132 9.691509e-21)
(0.00049014856 -0.00038507153 -5.1082666e-23)
(0.00046614057 -0.00039831866 -6.5920128e-21)
(0.00044222584 -0.00041080181 7.9924885e-21)
(0.00041841083 -0.00042253933 -1.3319716e-20)
(0.00039470128 -0.00043354866 2.5380539e-21)
(0.00037110223 -0.00044384658 3.8047199e-21)
(0.00034761807 -0.00045344884 3.4620219e-21)
(0.00032425246 -0.00046237053 1.1071185e-21)
(0.00030100877 -0.00047062594 -1.2974345e-20)
(0.00027788972 -0.00047822856 -4.0965632e-21)
(0.00025489753 -0.00048519109 -2.4415987e-21)
(0.00023203409 -0.00049152532 8.1135023e-22)
(0.00020930094 -0.00049724254 4.23059e-21)
(0.0001866993 -0.00050235304 -4.2684791e-21)
(0.00016423006 -0.00050686678 1.647014e-21)
(0.00014189386 -0.00051079285 -3.1064245e-21)
(0.00011969119 -0.00051414042 -2.6861291e-21)
(9.7622943e-05 -0.00051691924 -2.7011525e-21)
(7.5689873e-05 -0.00051914153 -1.5845824e-21)
(5.3883654e-05 -0.00052082489 -3.4057728e-21)
(3.2187478e-05 -0.00052199716 -9.3148172e-21)
(1.0654356e-05 -0.00052268277 -1.5277139e-20)
(0.0005764988 0.0025156832 1.8821808e-19)
(0.00065451351 0.0024248518 1.4105789e-20)
(0.0007255767 0.0023344506 -8.2047517e-20)
(0.0007900837 0.0022447078 -5.4217296e-20)
(0.00084841376 0.0021558231 -1.7297374e-20)
(0.00090092991 0.0020679703 -1.016889e-19)
(0.0009479788 0.0019813003 -1.6951692e-19)
(0.00098989087 0.0018959424 -7.4573224e-20)
(0.0010269805 0.0018120075 -5.3673286e-21)
(0.0010595466 0.001729589 -5.6722256e-20)
(0.0010878727 0.001648765 -8.5305955e-20)
(0.0011122276 0.0015696001 -1.0144803e-19)
(0.0011328658 0.0014921465 -2.19317e-20)
(0.0011500283 0.0014164453 2.5866785e-20)
(0.0011639425 0.0013425281 -5.5307313e-21)
(0.0011748236 0.0012704177 -5.5207641e-20)
(0.0011828745 0.0012001288 -6.0800526e-20)
(0.0011882867 0.0011316699 1.2544973e-20)
(0.0011912409 0.001065043 -8.2445445e-21)
(0.0011919073 0.001000245 8.5555342e-21)
(0.0011904462 0.00093726819 -3.5915356e-20)
(0.0011870087 0.00087610046 -5.2317794e-20)
(0.0011817366 0.0008167261 -1.414093e-20)
(0.0011747639 0.00075912681 6.6598278e-21)
(0.0011662164 0.00070328098 -3.7543732e-21)
(0.001156212 0.00064916479 -3.4082374e-20)
(0.0011448621 0.00059675269 -5.0019624e-20)
(0.0011322708 0.00054601745 -1.1369923e-20)
(0.0011185361 0.00049692992 6.0127205e-21)
(0.0011037499 0.00044946011 2.1450736e-20)
(0.0010879987 0.00040357748 3.0226981e-20)
(0.001071363 0.00035925022 -1.9446555e-20)
(0.0010539188 0.00031644632 -1.9016255e-20)
(0.001035737 0.00027513326 1.8404254e-20)
(0.0010168841 0.00023527784 7.6668002e-21)
(0.00099742204 0.00019684692 2.7374378e-22)
(0.00097740849 0.00015980765 -3.0135266e-20)
(0.00095689847 0.00012412867 -1.0826102e-20)
(0.00093594187 8.9775833e-05 -7.1893959e-21)
(0.00091458579 5.6715425e-05 3.7872172e-21)
(0.00089287575 2.4915815e-05 1.7975559e-20)
(0.00087085308 -5.6508625e-06 -1.319243e-21)
(0.00084855447 -3.5019529e-05 1.996066e-20)
(0.00082601454 -6.3220319e-05 5.5621932e-21)
(0.00080326714 -9.0282868e-05 5.3787156e-21)
(0.00078034279 -0.00011623666 4.3277341e-21)
(0.00075726977 -0.0001411107 -9.8329567e-21)
(0.00073407424 -0.000164933 -1.0790136e-20)
(0.0007107804 -0.00018773116 -1.8243341e-21)
(0.00068741061 -0.0002095319 3.8428583e-20)
(0.00066398537 -0.00023036137 2.9000814e-20)
(0.00064052359 -0.00025024473 -1.2949387e-21)
(0.00061704266 -0.00026920645 5.8788082e-21)
(0.00059355849 -0.00028727051 3.5948063e-21)
(0.00057008575 -0.00030445975 6.8704458e-21)
(0.00054663764 -0.0003207965 7.5906969e-21)
(0.00052322623 -0.00033630213 8.180915e-22)
(0.00049986256 -0.00035099724 1.4415453e-20)
(0.00047655665 -0.00036490161 -3.0435599e-21)
(0.00045331756 -0.00037803442 -2.0615941e-21)
(0.00043015336 -0.00039041397 7.9618965e-21)
(0.00040707135 -0.00040205774 -6.4257638e-21)
(0.0003840781 -0.00041298239 1.6729608e-20)
(0.00036117938 -0.00042320401 1.531936e-20)
(0.00033838028 -0.00043273768 2.8210295e-21)
(0.00031568544 -0.00044159791 -5.8625475e-21)
(0.00029309887 -0.00044979847 -1.0328413e-20)
(0.00027062406 -0.00045735222 7.9853613e-21)
(0.00024826404 -0.00046427137 4.6528021e-21)
(0.00022602144 -0.00047056739 3.0003534e-21)
(0.00020389853 -0.00047625109 3.9101567e-21)
(0.00018189722 -0.00048133248 -9.6747033e-23)
(0.00016001916 -0.00048582112 6.825234e-21)
(0.00013826569 -0.00048972588 8.471114e-21)
(0.00011663801 -0.00049305567 -2.0342574e-21)
(9.5137689e-05 -0.00049581999 -3.0355411e-21)
(7.3766102e-05 -0.00049803098 6.4750476e-21)
(5.2515824e-05 -0.00049970603 3.6895921e-21)
(3.1371138e-05 -0.00050087298 -1.5503248e-20)
(1.0384262e-05 -0.00050155576 -1.669232e-20)
(0.00048856822 0.002427335 3.6134087e-19)
(0.00056674093 0.0023426513 2.0425175e-19)
(0.00063820922 0.0022581141 -1.0812359e-19)
(0.00070333914 0.0021739579 5.9387926e-20)
(0.00076248328 0.0020903896 1.1160614e-19)
(0.00081598035 0.0020075911 8.0807079e-20)
(0.00086415498 0.0019257214 4.5180905e-20)
(0.00090731767 0.0018449191 3.4766425e-20)
(0.00094576489 0.0017653039 1.2349883e-19)
(0.00097977923 0.0016869785 4.9852856e-20)
(0.0010096297 0.0016100304 6.8136026e-20)
(0.0010355719 0.0015345334 1.0330776e-19)
(0.0010578489 0.0014605486 6.9796335e-20)
(0.0010766908 0.0013881262 7.9058514e-20)
(0.001092316 0.0013173066 2.8390629e-20)
(0.001104931 0.0012481208 5.7261777e-20)
(0.0011147316 0.0011805922 1.3215069e-19)
(0.0011219026 0.001114737 5.3011484e-20)
(0.0011266188 0.0010505649 -2.6290896e-20)
(0.0011290452 0.00098808029 2.575955e-20)
(0.0011293375 0.00092728235 1.3535749e-20)
(0.0011276429 0.00086816601 3.4376385e-20)
(0.0011240999 0.00081072205 4.0281545e-20)
(0.001118839 0.00075493831 -2.6716838e-21)
(0.0011119836 0.0007007992 2.8482455e-20)
(0.0011036494 0.0006482867 5.8128098e-21)
(0.0010939455 0.0005973805 1.511732e-20)
(0.0010829747 0.00054805863 1.6229278e-21)
(0.0010708334 0.00050029721 1.5842697e-22)
(0.0010576126 0.00045407095 9.6459091e-21)
(0.0010433973 0.00040935346 -5.4230857e-21)
(0.001028268 0.00036611723 3.2319176e-20)
(0.0010122996 0.00032433466 5.7899539e-20)
(0.00099556255 0.00028397678 3.6688614e-20)
(0.00097812273 0.00024501442 1.2773955e-20)
(0.00096004242 0.00020741783 2.75407e-21)
(0.00094137977 0.00017115759 9.2472072e-21)
(0.00092218894 0.00013620469 3.8575592e-20)
(0.00090252064 0.00010252869 7.7312209e-21)
(0.00088242203 7.010084e-05 1.755695e-20)
(0.00086194005 3.8891715e-05 9.4368142e-21)
(0.0008411143 8.869372e-06 1.4805662e-22)
(0.0008199812 -1.9992308e-05 3.1578625e-20)
(0.00079857865 -4.7721233e-05 1.6606494e-20)
(0.0007769398 -7.4345907e-05 1.3641977e-21)
(0.00075509584 -9.9893681e-05 3.0764391e-22)
(0.00073307563 -0.00012439158 1.5619808e-20)
(0.00071090594 -0.00014786572 3.3907161e-20)
(0.00068861161 -0.00017034199 -1.8156472e-21)
(0.00066621566 -0.00019184535 1.2112947e-20)
(0.00064373931 -0.0002124003 9.9681267e-21)
(0.00062120213 -0.00023203066 -3.4149e-22)
(0.00059862234 -0.00025075938 3.1342682e-20)
(0.00057601662 -0.00026860912 9.6041851e-21)
(0.00055340021 -0.00028560144 9.3454561e-21)
(0.00053078713 -0.00030175739 9.2046762e-21)
(0.00050819023 -0.00031709731 5.5851368e-21)
(0.00048562138 -0.00033164084 2.3306841e-20)
(0.00046309129 -0.00034540665 -4.6102708e-21)
(0.00044060969 -0.00035841301 -4.9536309e-21)
(0.00041818546 -0.00037067734 4.0293384e-21)
(0.00039582669 -0.00038221634 -8.8858486e-21)
(0.00037354061 -0.00039304591 1.7010572e-20)
(0.00035133379 -0.00040318135 1.4649883e-20)
(0.00032921213 -0.00041263718 6.0087072e-21)
(0.00030718091 -0.00042142728 9.4311589e-22)
(0.00028524484 -0.00042956483 -9.877859e-21)
(0.00026340821 -0.00043706219 1.7156394e-20)
(0.00024167477 -0.00044393107 5.5698181e-21)
(0.00022004781 -0.00045018254 -6.1208219e-22)
(0.00019853031 -0.00045582694 4.4733163e-21)
(0.00017712483 -0.00046087398 3.8690904e-21)
(0.00015583371 -0.00046533296 1.1390131e-20)
(0.00013465901 -0.00046921239 1.2655996e-20)
(0.00011360258 -0.00047252095 1.4996646e-20)
(9.2666567e-05 -0.00047526794 6.3234208e-21)
(7.1853132e-05 -0.00047746533 -3.5159865e-21)
(5.1155655e-05 -0.0004791304 -2.2910693e-21)
(3.0559352e-05 -0.00048029075 -2.2965668e-20)
(1.0115665e-05 -0.00048096993 -2.8432254e-20)
(0.00040679437 0.002340164 1.7504373e-19)
(0.00048485276 0.0022613493 3.1894336e-19)
(0.0005564584 0.002182425 -5.2820121e-20)
(0.00062194915 0.0021036295 -6.9481194e-20)
(0.00068165181 0.0020251749 4.4602146e-20)
(0.00073588152 0.0019472492 1.5425145e-19)
(0.00078494147 0.0018700181 1.4764491e-19)
(0.00082912254 0.0017936273 1.9584144e-20)
(0.00086870345 0.0017182041 -2.1403654e-20)
(0.00090395076 0.001643859 4.9498017e-20)
(0.00093511894 0.0015706874 1.3965088e-19)
(0.0009624506 0.001498771 1.5031546e-19)
(0.00098617667 0.0014281791 1.5420849e-20)
(0.0010065168 0.0013589697 1.09383e-20)
(0.0010236799 0.0012911909 2.2014099e-20)
(0.0010378638 0.0012248814 8.4940775e-20)
(0.0010492568 0.001160072 1.1309722e-19)
(0.0010580367 0.0010967862 -9.18939e-21)
(0.0010643722 0.0010350406 4.8853024e-22)
(0.0010684229 0.00097484656 1.2854556e-20)
(0.0010703398 0.00091620972 3.2994135e-20)
(0.0010702657 0.00085913129 5.274356e-20)
(0.0010683353 0.00080360829 -2.0206594e-22)
(0.001064676 0.00074963416 -2.4556545e-20)
(0.001059408 0.00069719905 3.2103517e-20)
(0.0010526447 0.00064629035 3.2339325e-20)
(0.0010444929 0.00059689281 1.0130075e-20)
(0.0010350535 0.00054898932 -6.5125526e-21)
(0.0010244214 0.00050256074 5.0473886e-21)
(0.0010126859 0.0004575864 -1.5193596e-20)
(0.00099993116 0.00041404412 -1.2215581e-20)
(0.00098623646 0.0003719105 6.9960222e-20)
(0.00097167624 0.0003311616 6.6689219e-20)
(0.00095632016 0.00029177209 3.5030683e-21)
(0.00094023374 0.00025371695 -1.3194602e-20)
(0.00092347895 0.00021696995 -6.2074788e-21)
(0.00090611368 0.00018150451 5.7240666e-20)
(0.00088819216 0.00014729422 5.3354961e-20)
(0.00086976496 0.00011431243 -2.8488755e-20)
(0.00085087992 8.2532575e-05 -4.0466713e-20)
(0.00083157947 5.1927986e-05 -2.0226867e-21)
(0.00081190786 2.2469269e-05 4.7454979e-20)
(0.00079190611 -5.8675587e-06 2.222654e-20)
(0.00077160663 -3.3107812e-05 -4.5773265e-21)
(0.00075104346 -5.9277707e-05 -1.2587184e-20)
(0.00073024896 -8.4402727e-05 -9.9916475e-22)
(0.0007092525 -0.00010850793 3.2023999e-20)
(0.00068808135 -0.00013161753 3.1224645e-20)
(0.00066676092 -0.00015375582 3.8807457e-21)
(0.00064531483 -0.00017494607 -6.557517e-21)
(0.00062376498 -0.00019521118 -1.3419824e-20)
(0.0006021316 -0.00021457344 -7.7841603e-22)
(0.00058043344 -0.00023305455 2.0255396e-20)
(0.0005586878 -0.00025067573 2.9362479e-21)
(0.00053691061 -0.00026745731 -2.4802712e-21)
(0.00051511666 -0.00028341917 1.1983961e-20)
(0.00049331957 -0.00029858058 1.3415249e-20)
(0.00047153172 -0.0003129601 2.0491246e-20)
(0.0004497645 -0.00032657546 -6.1710492e-21)
(0.00042802843 -0.00033944404 -1.5339891e-20)
(0.00040633308 -0.00035158228 -1.8316724e-21)
(0.00038468717 -0.00036300614 -1.3892481e-20)
(0.00036309868 -0.00037373084 2.0454243e-21)
(0.00034157489 -0.00038377087 5.938777e-21)
(0.00032012235 -0.00039314016 -3.8956136e-21)
(0.00029874708 -0.00040185195 3.5554884e-21)
(0.00027745448 -0.0004099188 -7.5942162e-21)
(0.00025624935 -0.00041735264 6.8898271e-21)
(0.0002351362 -0.00042416476 1.0345171e-20)
(0.00021411902 -0.00043036568 8.7205918e-22)
(0.00019320143 -0.00043596536 9.6867597e-21)
(0.00017238675 -0.00044097318 8.7882762e-21)
(0.00015167785 -0.0004453981 8.5788612e-21)
(0.00013107742 -0.00044924843 5.8434385e-21)
(0.00011058797 -0.00045253248 7.9493594e-21)
(9.0212325e-05 -0.00045525946 5.9266257e-21)
(6.9953158e-05 -0.0004574411 -3.1970025e-21)
(4.98046e-05 -0.00045909454 -8.5472067e-21)
(2.9752881e-05 -0.0004602471 -2.1131749e-20)
(9.8487821e-06 -0.00046092202 -2.9319586e-20)
(0.00033088429 0.0022543545 2.7322526e-20)
(0.00040858367 0.0021811318 1.6139045e-19)
(0.00048008453 0.0021075691 -3.5613453e-20)
(0.00054569776 0.002033907 -2.886997e-19)
(0.00060572532 0.0019603611 -1.2800596e-19)
(0.00066045954 0.0018871235 8.0099834e-21)
(0.00071018274 0.0018143652 1.4398514e-22)
(0.00075516681 0.0017422375 2.3727222e-21)
(0.00079567308 0.0016708739 -1.7402046e-19)
(0.00083195221 0.0016003912 -4.3883166e-20)
(0.00086424428 0.0015308914 6.4385507e-20)
(0.00089277885 0.0014624632 8.6768074e-20)
(0.00091777507 0.0013951827 -1.5916611e-20)
(0.00093944193 0.0013291149 -1.5612633e-19)
(0.00095797856 0.0012643145 -5.1367352e-20)
(0.00097357438 0.0012008274 5.157623e-20)
(0.00098640944 0.0011386908 2.3496707e-20)
(0.00099665489 0.0010779348 -6.2922316e-20)
(0.001004473 0.0010185826 -9.779566e-20)
(0.0010100177 0.0009606512 -4.5607923e-20)
(0.0010134351 0.00090415273 4.2841762e-20)
(0.0010148633 0.00084909417 2.3609929e-20)
(0.0010144332 0.00079547805 -2.8387227e-20)
(0.0010122686 0.00074330321 -4.3296808e-20)
(0.0010084865 0.00069256512 1.6246748e-21)
(0.0010031976 0.00064325622 3.7464708e-20)
(0.0009965064 0.00059536601 4.3032556e-21)
(0.00098851144 0.00054888204 -1.7506995e-20)
(0.00097930597 0.00050378952 -4.0871437e-20)
(0.00096897778 0.0004600721 -1.3436905e-20)
(0.00095760954 0.00041771172 3.0820014e-20)
(0.00094527926 0.00037668899 2.8274199e-20)
(0.00093206059 0.00033698351 1.9940065e-20)
(0.00091802279 0.00029857336 -1.1609824e-20)
(0.00090323054 0.00026143702 -6.3209082e-21)
(0.00088774494 0.00022555166 -3.3476387e-21)
(0.00087162355 0.00019089378 1.5747666e-20)
(0.00085492065 0.00015743968 4.4377773e-21)
(0.00083768687 0.0001251653 -2.6937159e-20)
(0.00081996942 9.404679e-05 -3.9909978e-20)
(0.0008018125 6.4059618e-05 -7.2997359e-21)
(0.00078325814 3.5181721e-05 1.9978463e-20)
(0.00076434679 7.3862553e-06 2.0357648e-21)
(0.00074511443 -1.9349988e-05 2.5254514e-22)
(0.00072559406 -4.5049827e-05 -1.064222e-21)
(0.00070581792 -6.9736956e-05 1.3740918e-20)
(0.00068581587 -9.343438e-05 1.9991436e-20)
(0.00066561575 -0.00011616469 -1.0897307e-20)
(0.00064524347 -0.00013795033 -2.422627e-21)
(0.00062472312 -0.0001588131 9.0512931e-21)
(0.00060407711 -0.00017877425 5.9018445e-21)
(0.00058332611 -0.00019785459 -6.9076652e-21)
(0.00056248954 -0.00021607458 -5.0503074e-21)
(0.00054158531 -0.00023345406 1.7015293e-21)
(0.00052062996 -0.00025001216 1.4264263e-22)
(0.00049963886 -0.00026576766 1.857634e-20)
(0.00047862621 -0.00028073865 1.2840481e-20)
(0.00045760505 -0.00029494258 1.3373219e-20)
(0.00043658745 -0.00030839647 -3.1782539e-21)
(0.00041558446 -0.0003211166 -7.1357845e-21)
(0.00039460637 -0.0003331187 1.1187793e-20)
(0.00037366254 -0.00034441775 -1.5486521e-20)
(0.00035276154 -0.00035502836 -1.6063221e-20)
(0.00033191131 -0.00036496433 3.1236777e-21)
(0.00031111911 -0.00037423886 5.1085728e-21)
(0.00029039149 -0.00038286465 7.3900071e-21)
(0.00026973455 -0.00039085365 -9.2143805e-21)
(0.0002491538 -0.00039821731 -8.9323698e-21)
(0.00022865424 -0.00040496647 9.5398419e-21)
(0.00020824055 -0.00041111119 1.2551902e-20)
(0.00018791699 -0.00041666109 1.6699788e-20)
(0.00016768743 -0.00042162511 9.3253256e-21)
(0.00014755547 -0.00042601189 -1.1885676e-21)
(0.00012752431 -0.00042982953 5.2441419e-21)
(0.00010759707 -0.00043308602 -1.117708e-21)
(8.7777137e-05 -0.00043579043 -4.1745755e-21)
(6.8067754e-05 -0.00043795428 2.3929296e-21)
(4.8463871e-05 -0.00043959449 -1.8438461e-21)
(2.8952607e-05 -0.00044073816 -9.2591813e-21)
(9.5839716e-06 -0.00044140819 -2.3158561e-20)
(0.0002605477 0.0021700668 1.284681e-20)
(0.0003376696 0.0021021618 -1.344556e-19)
(0.00040884792 0.0020337107 -3.4047087e-20)
(0.00047436787 0.0019649549 -4.664273e-20)
(0.00053450761 0.0018961117 -7.0007632e-21)
(0.00058953759 0.001827376 -1.3340266e-20)
(0.00063971991 0.0017589223 -2.100184e-19)
(0.00068530798 0.0016909062 -1.1939331e-20)
(0.00072654622 0.0016234659 -1.3563761e-20)
(0.00076366979 0.0015567236 -9.5689138e-21)
(0.00079690457 0.0014907867 3.7434125e-20)
(0.0008264672 0.0014257497 -1.2380786e-19)
(0.00085256517 0.0013616946 -4.6932246e-20)
(0.00087539676 0.0012986922 -7.482408e-21)
(0.00089515139 0.0012368034 6.6868722e-20)
(0.00091200979 0.0011760799 8.9682524e-21)
(0.00092614408 0.001116565 -1.7595357e-19)
(0.00093771822 0.0010582946 -6.4656403e-20)
(0.00094688814 0.0010012976 5.6903124e-21)
(0.000953802 0.00094559676 2.5603643e-20)
(0.00095860054 0.00089120955 1.6923332e-20)
(0.00096141736 0.00083814835 -1.0755986e-19)
(0.00096237907 0.00078642094 -3.8963452e-20)
(0.00096160581 0.00073603102 4.1300681e-20)
(0.00095921137 0.00068697908 4.2543537e-21)
(0.00095530337 0.00063926219 -1.5878511e-20)
(0.00094998369 0.00059287425 -9.5386688e-20)
(0.00094334871 0.00054780733 -2.3458392e-20)
(0.0009354895 0.00050405072 9.7793467e-22)
(0.00092649223 0.00046159209 -1.3284252e-21)
(0.00091643823 0.00042041709 1.0198297e-20)
(0.00090540402 0.00038051023 -8.7967386e-20)
(0.00089346178 0.00034185472 -3.5843562e-20)
(0.00088067998 0.00030443203 3.0971378e-20)
(0.00086712321 0.00026822367 -1.1283949e-21)
(0.00085285174 0.00023320964 -3.0914202e-20)
(0.0008379223 0.00019936979 -7.9780278e-20)
(0.00082238857 0.00016668341 -2.1410418e-20)
(0.00080630093 0.00013512894 4.0584591e-21)
(0.00078970701 0.00010468512 -3.0962487e-20)
(0.00077265108 7.5330337e-05 -8.9211753e-21)
(0.00075517459 4.7043045e-05 -6.2514107e-20)
(0.00073731761 1.9801622e-05 -2.2086527e-20)
(0.00071911696 -6.4172979e-06 2.0016802e-20)
(0.00070060605 -3.1633703e-05 -1.1903233e-20)
(0.00068181698 -5.5869383e-05 -1.7693734e-20)
(0.00066278001 -7.9145597e-05 -4.6779301e-20)
(0.00064352332 -0.00010148331 -3.290379e-20)
(0.00062407322 -0.00012290308 8.482574e-21)
(0.00060445409 -0.00014342528 6.2925206e-21)
(0.00058468879 -0.00016306952 2.145998e-21)
(0.00056479867 -0.00018185539 -3.4061976e-20)
(0.00054480352 -0.00019980193 -2.4453837e-20)
(0.00052472171 -0.00021692764 1.2290371e-21)
(0.00050457032 -0.00023325053 -9.8216875e-21)
(0.00048436535 -0.00024878828 -6.8533018e-21)
(0.0004641215 -0.00026355777 -2.8673213e-20)
(0.00044385235 -0.00027757556 -6.7749572e-21)
(0.00042357059 -0.00029085771 -7.6195337e-22)
(0.00040328787 -0.00030341951 -1.3818475e-20)
(0.00038301499 -0.00031527603 -5.9774721e-21)
(0.00036276193 -0.00032644132 -3.6827915e-20)
(0.00034253791 -0.00033692925 -2.0638044e-20)
(0.00032235137 -0.00034675301 -7.5442177e-21)
(0.0003022102 -0.00035592517 -1.0699318e-20)
(0.00028212158 -0.00036445776 -9.4677795e-21)
(0.00026209213 -0.00037236223 -2.5292944e-20)
(0.000242128 -0.00037964949 -1.4212162e-20)
(0.00022223482 -0.00038632989 -1.1628835e-21)
(0.00020241781 -0.00039241314 -4.1708982e-21)
(0.00018268181 -0.00039790841 -3.9796858e-21)
(0.00016303129 -0.00040282432 -1.1926725e-20)
(0.00014347041 -0.00040716913 -1.2520573e-20)
(0.00012400296 -0.00041095071 -8.9928976e-21)
(0.00010463262 -0.00041417677 -1.0788286e-20)
(8.5363343e-05 -0.00041685619 -1.2233785e-20)
(6.6198863e-05 -0.00041900033 -8.459671e-21)
(4.7134812e-05 -0.00042062584 -8.8159933e-21)
(2.8159273e-05 -0.00042175955 -1.1195885e-20)
(9.3214544e-06 -0.0004224241 -1.9682805e-20)
(0.00019549896 0.0020874383 2.519556e-19)
(0.00027184967 0.0020245811 -4.9209157e-20)
(0.0003425106 0.0019609946 -2.0974915e-19)
(0.00040774278 0.0018969194 -1.3253268e-19)
(0.00046780184 0.0018325732 -1.1046391e-19)
(0.00052293721 0.0017681524 -6.1839133e-20)
(0.00057339158 0.0017038336 -1.8802672e-19)
(0.00061940053 0.0016397756 -1.0547273e-19)
(0.00066119203 0.00157612 -3.4376368e-20)
(0.00069898608 0.0015129932 -9.562809e-20)
(0.00073299475 0.001450507 -2.2330009e-20)
(0.00076342196 0.0013887605 -7.3781969e-20)
(0.0007904636 0.0013278408 -1.498214e-20)
(0.00081430745 0.0012678238 9.5279332e-21)
(0.00083513326 0.0012087755 -5.3475729e-20)
(0.00085311296 0.0011507529 -4.2746225e-20)
(0.00086841079 0.0010938044 -5.1077505e-20)
(0.00088118349 0.0010379712 2.2942249e-20)
(0.00089158043 0.0009832874 -1.2060312e-20)