/*--------------------------------*- C++ -*----------------------------------*\
| =========                 |                                                 |
| \\      /  F ield         | OpenFOAM: The Open Source CFD Toolbox           |
|  \\    /   O peration     | Version:  2106                                  |
|   \\  /    A nd           | Website:  www.openfoam.com                      |
|    \\/     M anipulation  |                                                 |
\*---------------------------------------------------------------------------*/
FoamFile
{
    version     2.0;
    format      ascii;
    arch        "LSB;label=32;scalar=64";
    class       volVectorField;
    location    "0.01";
    object      U;
}
// * * * * * * * * * * * * * * * * * * * * * * * * * * * * * * * * * * * * * //

dimensions      [0 1 -1 0 0 0 0];

internalField   nonuniform List<vector> 
4096
(
(0.010695808 -0.010643255 0)
(0.031980978 -0.010537374 0)
(0.052947983 -0.010326781 0)
(0.073388625 -0.010013795 0)
(0.093100496 -0.0096018427 0)
(0.11188914 -0.0090953974 0)
(0.12957011 -0.0084999075 0)
(0.1459708 -0.0078217124 0)
(0.1609322 -0.0070679527 0)
(0.17431035 -0.0062464767 0)
(0.1859777 -0.0053657467 0)
(0.19582423 -0.004434746 0)
(0.2037584 -0.003462886 0)
(0.20970796 -0.0024599128 0)
(0.21362045 -0.0014358145 0)
(0.21546367 -0.00040072687 0)
(0.21522538 0.00063521855 0)
(0.21291572 0.0016615886 0)
(0.20856101 0.0026691666 0)
(0.2022113 0.0036477309 0)
(0.19393349 0.0045881544 0)
(0.18381311 0.0054817101 0)
(0.17195272 0.0063202309 0)
(0.15847055 0.007096208 0)
(0.1434992 0.007802851 0)
(0.12718415 0.008434128 0)
(0.10968215 0.0089847867 0)
(0.091159698 0.0094503618 0)
(0.071791435 0.0098271696 0)
(0.05175859 0.010112294 0)
(0.031247463 0.010303569 0)
(0.010447944 0.010399563 0)
(-0.010447944 0.010399563 0)
(-0.031247463 0.010303569 0)
(-0.05175859 0.010112294 0)
(-0.071791435 0.0098271696 0)
(-0.091159698 0.0094503618 0)
(-0.10968215 0.0089847867 0)
(-0.12718415 0.008434128 0)
(-0.1434992 0.007802851 0)
(-0.15847055 0.007096208 0)
(-0.17195272 0.0063202309 0)
(-0.18381311 0.0054817101 0)
(-0.19393349 0.0045881544 0)
(-0.2022113 0.0036477309 0)
(-0.20856101 0.0026691666 0)
(-0.21291572 0.0016615886 0)
(-0.21522538 0.00063521855 0)
(-0.21546367 -0.00040072687 0)
(-0.21362045 -0.0014358145 0)
(-0.20970796 -0.0024599128 0)
(-0.2037584 -0.003462886 0)
(-0.19582423 -0.004434746 0)
(-0.1859777 -0.0053657467 0)
(-0.17431035 -0.0062464767 0)
(-0.1609322 -0.0070679527 0)
(-0.1459708 -0.0078217124 0)
(-0.12957011 -0.0084999075 0)
(-0.11188914 -0.0090953974 0)
(-0.093100496 -0.0096018427 0)
(-0.073388625 -0.010013795 0)
(-0.052947983 -0.010326781 0)
(-0.031980978 -0.010537374 0)
(-0.010695808 -0.010643255 0)
(0.010861619 -0.032055756 0)
(0.032476663 -0.031736781 0)
(0.053768327 -0.031102362 0)
(0.074525023 -0.030159495 0)
(0.094541078 -0.028918513 0)
(0.11361895 -0.027392911 0)
(0.13157128 -0.025599114 0)
(0.14822282 -0.023556234 0)
(0.16341212 -0.021285789 0)
(0.17699307 -0.018811425 0)
(0.18883623 -0.016158634 0)
(0.19882997 -0.013354474 0)
(0.20688142 -0.01042729 0)
(0.21291727 -0.0074064399 0)
(0.21688435 -0.0043220122 0)
(0.21875003 -0.0012045538 0)
(0.21850232 0.0019152243 0)
(0.21615032 0.0050070733 0)
(0.21172301 0.0080411339 0)
(0.20527008 0.010988041 0)
(0.19686009 0.013820021 0)
(0.18658017 0.01651073 0)
(0.17453474 0.019035571 0)
(0.16084414 0.021371944 0)
(0.14564328 0.023499424 0)
(0.12908002 0.025399876 0)
(0.11131361 0.027057523 0)
(0.092513061 0.02845896 0)
(0.072855545 0.029593138 0)
(0.052524808 0.030451314 0)
(0.031709644 0.031027002 0)
(0.010602412 0.031315912 0)
(-0.010602412 0.031315912 0)
(-0.031709644 0.031027002 0)
(-0.052524808 0.030451314 0)
(-0.072855545 0.029593138 0)
(-0.092513061 0.02845896 0)
(-0.11131361 0.027057523 0)
(-0.12908002 0.025399876 0)
(-0.14564328 0.023499424 0)
(-0.16084414 0.021371944 0)
(-0.17453474 0.019035571 0)
(-0.18658017 0.01651073 0)
(-0.19686009 0.013820021 0)
(-0.20527008 0.010988041 0)
(-0.21172301 0.0080411339 0)
(-0.21615032 0.0050070733 0)
(-0.21850232 0.0019152243 0)
(-0.21875003 -0.0012045538 0)
(-0.21688435 -0.0043220122 0)
(-0.21291727 -0.0074064399 0)
(-0.20688142 -0.01042729 0)
(-0.19882997 -0.013354474 0)
(-0.18883623 -0.016158634 0)
(-0.17699307 -0.018811425 0)
(-0.16341212 -0.021285789 0)
(-0.14822282 -0.023556234 0)
(-0.13157128 -0.025599114 0)
(-0.11361895 -0.027392911 0)
(-0.094541078 -0.028918513 0)
(-0.074525023 -0.030159495 0)
(-0.053768327 -0.031102362 0)
(-0.032476663 -0.031736781 0)
(-0.010861619 -0.032055756 0)
(0.011143406 -0.05394531 0)
(0.033319072 -0.053408235 0)
(0.055162554 -0.052340052 0)
(0.076456539 -0.050752581 0)
(0.09698984 -0.048663272 0)
(0.11655968 -0.046094901 0)
(0.13497379 -0.043075183 0)
(0.15205242 -0.039636333 0)
(0.16762998 -0.035814611 0)
(0.18155669 -0.031649837 0)
(0.19369985 -0.027184922 0)
(0.20394505 -0.022465398 0)
(0.21219711 -0.017538961 0)
(0.21838091 -0.012455015 0)
(0.22244196 -0.0072641998 0)
(0.2243469 -0.0020179183 0)
(0.22408361 0.0032321939 0)
(0.22166141 0.0084349352 0)
(0.21711067 0.013539925 0)
(0.21048249 0.018498025 0)
(0.20184774 0.023262307 0)
(0.19129629 0.027788384 0)
(0.17893576 0.032034875 0)
(0.16489013 0.035963803 0)
(0.14929818 0.039540891 0)
(0.1323119 0.042735755 0)
(0.1140948 0.04552201 0)
(0.094820204 0.047877278 0)
(0.0746696 0.049783145 0)
(0.053831035 0.05122507 0)
(0.032497559 0.052192276 0)
(0.010865745 0.052677647 0)
(-0.010865745 0.052677647 0)
(-0.032497559 0.052192276 0)
(-0.053831035 0.05122507 0)
(-0.0746696 0.049783145 0)
(-0.094820204 0.047877278 0)
(-0.1140948 0.04552201 0)
(-0.1323119 0.042735755 0)
(-0.14929818 0.039540891 0)
(-0.16489013 0.035963803 0)
(-0.17893576 0.032034875 0)
(-0.19129629 0.027788384 0)
(-0.20184774 0.023262307 0)
(-0.21048249 0.018498025 0)
(-0.21711067 0.013539925 0)
(-0.22166141 0.0084349352 0)
(-0.22408361 0.0032321939 0)
(-0.2243469 -0.0020179183 0)
(-0.22244196 -0.0072641998 0)
(-0.21838091 -0.012455015 0)
(-0.21219711 -0.017538961 0)
(-0.20394505 -0.022465398 0)
(-0.19369985 -0.027184922 0)
(-0.18155669 -0.031649837 0)
(-0.16762998 -0.035814611 0)
(-0.15205242 -0.039636333 0)
(-0.13497379 -0.043075183 0)
(-0.11655968 -0.046094901 0)
(-0.09698984 -0.048663272 0)
(-0.076456539 -0.050752581 0)
(-0.055162554 -0.052340052 0)
(-0.033319072 -0.053408235 0)
(-0.011143406 -0.05394531 0)
(0.01154936 -0.076516286 0)
(0.034532697 -0.075753997 0)
(0.057171204 -0.074237928 0)
(0.079239343 -0.071984925 0)
(0.10051801 -0.069019855 0)
(0.1207969 -0.065375145 0)
(0.13987672 -0.061090225 0)
(0.1575712 -0.056210892 0)
(0.17370884 -0.050788646 0)
(0.18813452 -0.044880008 0)
(0.20071088 -0.038545849 0)
(0.21131944 -0.031850737 0)
(0.21986166 -0.024862304 0)
(0.22625972 -0.017650607 0)
(0.23045722 -0.010287488 0)
(0.23241964 -0.0028458869 0)
(0.23213458 0.0046008889 0)
(0.2296119 0.011979992 0)
(0.22488349 0.019219769 0)
(0.21800276 0.026250538 0)
(0.20904382 0.033005581 0)
(0.19810056 0.039421859 0)
(0.18528527 0.045440681 0)
(0.17072717 0.051008274 0)
(0.15457074 0.056076197 0)
(0.13697396 0.060601615 0)
(0.1181065 0.064547414 0)
(0.098147926 0.067882206 0)
(0.077285983 0.070580226 0)
(0.055714909 0.072621176 0)
(0.033633879 0.073990046 0)
(0.011245516 0.074676937 0)
(-0.011245516 0.074676937 0)
(-0.033633879 0.073990046 0)
(-0.055714909 0.072621176 0)
(-0.077285983 0.070580226 0)
(-0.098147926 0.067882206 0)
(-0.1181065 0.064547414 0)
(-0.13697396 0.060601615 0)
(-0.15457074 0.056076197 0)
(-0.17072717 0.051008274 0)
(-0.18528527 0.045440681 0)
(-0.19810056 0.039421859 0)
(-0.20904382 0.033005581 0)
(-0.21800276 0.026250538 0)
(-0.22488349 0.019219769 0)
(-0.2296119 0.011979992 0)
(-0.23213458 0.0046008889 0)
(-0.23241964 -0.0028458869 0)
(-0.23045722 -0.010287488 0)
(-0.22625972 -0.017650607 0)
(-0.21986166 -0.024862304 0)
(-0.21131944 -0.031850737 0)
(-0.20071088 -0.038545849 0)
(-0.18813452 -0.044880008 0)
(-0.17370884 -0.050788646 0)
(-0.1575712 -0.056210892 0)
(-0.13987672 -0.061090225 0)
(-0.1207969 -0.065375145 0)
(-0.10051801 -0.069019855 0)
(-0.079239343 -0.071984925 0)
(-0.057171204 -0.074237928 0)
(-0.034532697 -0.075753997 0)
(-0.01154936 -0.076516286 0)
(0.012092758 -0.10002451 0)
(0.036157234 -0.099027246 0)
(0.05985999 -0.097043915 0)
(0.082964515 -0.094096677 0)
(0.10524113 -0.090218217 0)
(0.12646951 -0.085451124 0)
(0.14644096 -0.079847128 0)
(0.16496053 -0.073466254 0)
(0.18184882 -0.066375923 0)
(0.19694359 -0.058650065 0)
(0.21010117 -0.050368237 0)
(0.22119764 -0.041614798 0)
(0.23012987 -0.032478099 0)
(0.23681637 -0.023049683 0)
(0.24119805 -0.013423475 0)
(0.24323875 -0.0036949036 0)
(0.2429256 0.0060400438 0)
(0.24026914 0.015685865 0)
(0.23530316 0.025148601 0)
(0.22808421 0.034336957 0)
(0.21869075 0.043163487 0)
(0.20722207 0.051545643 0)
(0.1937968 0.059406696 0)
(0.17855129 0.066676492 0)
(0.16163773 0.073292005 0)
(0.14322219 0.079197666 0)
(0.12348268 0.084345497 0)
(0.10260716 0.088695058 0)
(0.080791778 0.092213271 0)
(0.058239053 0.094874163 0)
(0.035156341 0.096658576 0)
(0.01175433 0.097553906 0)
(-0.01175433 0.097553906 0)
(-0.035156341 0.096658576 0)
(-0.058239053 0.094874163 0)
(-0.080791778 0.092213271 0)
(-0.10260716 0.088695058 0)
(-0.12348268 0.084345497 0)
(-0.14322219 0.079197666 0)
(-0.16163773 0.073292005 0)
(-0.17855129 0.066676492 0)
(-0.1937968 0.059406696 0)
(-0.20722207 0.051545643 0)
(-0.21869075 0.043163487 0)
(-0.22808421 0.034336957 0)
(-0.23530316 0.025148601 0)
(-0.24026914 0.015685865 0)
(-0.2429256 0.0060400438 0)
(-0.24323875 -0.0036949036 0)
(-0.24119805 -0.013423475 0)
(-0.23681637 -0.023049683 0)
(-0.23012987 -0.032478099 0)
(-0.22119764 -0.041614798 0)
(-0.21010117 -0.050368237 0)
(-0.19694359 -0.058650065 0)
(-0.18184882 -0.066375923 0)
(-0.16496053 -0.073466254 0)
(-0.14644096 -0.079847128 0)
(-0.12646951 -0.085451124 0)
(-0.10524113 -0.090218217 0)
(-0.082964515 -0.094096677 0)
(-0.05985999 -0.097043915 0)
(-0.036157234 -0.099027246 0)
(-0.012092758 -0.10002451 0)
(0.012791977 -0.1247613 0)
(0.038247629 -0.1235163 0)
(0.063319891 -0.12104037 0)
(0.08775817 -0.11736137 0)
(0.11131924 -0.11252034 0)
(0.1337699 -0.10657069 0)
(0.15488945 -0.099577224 0)
(0.17447179 -0.091615023 0)
(0.19232739 -0.082768313 0)
(0.20828486 -0.073129334 0)
(0.22219241 -0.062797262 0)
(0.23391903 -0.051877202 0)
(0.24335559 -0.040479225 0)
(0.25041577 -0.028717429 0)
(0.25503687 -0.016708968 0)
(0.25718045 -0.0045730005 0)
(0.25683285 0.0075704779 0)
(0.25400537 0.019601939 0)
(0.24873419 0.03140372 0)
(0.24107987 0.042861502 0)
(0.23112647 0.053865821 0)
(0.21898029 0.06431346 0)
(0.20476828 0.074108669 0)
(0.18863608 0.083164141 0)
(0.17074593 0.091401708 0)
(0.15127446 0.098752725 0)
(0.1304105 0.10515818 0)
(0.10835293 0.11056857 0)
(0.085308691 0.11494357 0)
(0.061491001 0.11825168 0)
(0.037117703 0.12046972 0)
(0.012409812 0.12158249 0)
(-0.012409812 0.12158249 0)
(-0.037117703 0.12046972 0)
(-0.061491001 0.11825168 0)
(-0.085308691 0.11494357 0)
(-0.10835293 0.11056857 0)
(-0.1304105 0.10515818 0)
(-0.15127446 0.098752725 0)
(-0.17074593 0.091401708 0)
(-0.18863608 0.083164141 0)
(-0.20476828 0.074108669 0)
(-0.21898029 0.06431346 0)
(-0.23112647 0.053865821 0)
(-0.24107987 0.042861502 0)
(-0.24873419 0.03140372 0)
(-0.25400537 0.019601939 0)
(-0.25683285 0.0075704779 0)
(-0.25718045 -0.0045730005 0)
(-0.25503687 -0.016708968 0)
(-0.25041577 -0.028717429 0)
(-0.24335559 -0.040479225 0)
(-0.23391903 -0.051877202 0)
(-0.22219241 -0.062797262 0)
(-0.20828486 -0.073129334 0)
(-0.19232739 -0.082768313 0)
(-0.17447179 -0.091615023 0)
(-0.15488945 -0.099577224 0)
(-0.1337699 -0.10657069 0)
(-0.11131924 -0.11252034 0)
(-0.08775817 -0.11736137 0)
(-0.063319891 -0.12104037 0)
(-0.038247629 -0.1235163 0)
(-0.012791977 -0.1247613 0)
(0.013670751 -0.15105872 0)
(0.040874853 -0.14954981 0)
(0.06766841 -0.14654921 0)
(0.093783198 -0.14209094 0)
(0.11895903 -0.13622507 0)
(0.14294662 -0.1290167 0)
(0.16551021 -0.12054467 0)
(0.18642981 -0.11090018 0)
(0.20550318 -0.10018533 0)
(0.22254745 -0.088511816 0)
(0.23740059 -0.075999555 0)
(0.24992262 -0.062775573 0)
(0.25999674 -0.048972891 0)
(0.26753033 -0.03472948 0)
(0.27245594 -0.02018716 0)
(0.27473205 -0.0054903953 0)
(0.27434376 0.0092151097 0)
(0.27130314 0.023784006 0)
(0.26564922 0.038073079 0)
(0.25744757 0.051943158 0)
(0.24678931 0.065261043 0)
(0.23378971 0.07790132 0)
(0.21858626 0.089747932 0)
(0.20133652 0.10069542 0)
(0.18221556 0.11064978 0)
(0.16141348 0.11952886 0)
(0.13913286 0.12726245 0)
(0.11558639 0.13379199 0)
(0.090994673 0.13907007 0)
(0.065584358 0.14305983 0)
(0.039586438 0.14573432 0)
(0.013234838 0.14707591 0)
(-0.013234838 0.14707591 0)
(-0.039586438 0.14573432 0)
(-0.065584358 0.14305983 0)
(-0.090994673 0.13907007 0)
(-0.11558639 0.13379199 0)
(-0.13913286 0.12726245 0)
(-0.16141348 0.11952886 0)
(-0.18221556 0.11064978 0)
(-0.20133652 0.10069542 0)
(-0.21858626 0.089747932 0)
(-0.23378971 0.07790132 0)
(-0.24678931 0.065261043 0)
(-0.25744757 0.051943158 0)
(-0.26564922 0.038073079 0)
(-0.27130314 0.023784006 0)
(-0.27434376 0.0092151097 0)
(-0.27473205 -0.0054903953 0)
(-0.27245594 -0.02018716 0)
(-0.26753033 -0.03472948 0)
(-0.25999674 -0.048972891 0)
(-0.24992262 -0.062775573 0)
(-0.23740059 -0.075999555 0)
(-0.22254745 -0.088511816 0)
(-0.20550318 -0.10018533 0)
(-0.18642981 -0.11090018 0)
(-0.16551021 -0.12054467 0)
(-0.14294662 -0.1290167 0)
(-0.11895903 -0.13622507 0)
(-0.093783198 -0.14209094 0)
(-0.06766841 -0.14654921 0)
(-0.040874853 -0.14954981 0)
(-0.013670751 -0.15105872 0)
(0.014758617 -0.1793013 0)
(0.044127222 -0.17750841 0)
(0.073051779 -0.17394329 0)
(0.10124232 -0.16864672 0)
(0.12841774 -0.1616787 0)
(0.15430897 -0.15311707 0)
(0.17866172 -0.14305592 0)
(0.20123889 -0.13160383 0)
(0.22182258 -0.11888216 0)
(0.24021577 -0.10502336 0)
(0.25624371 -0.090169479 0)
(0.2697552 -0.074470846 0)
(0.28062377 -0.058084904 0)
(0.28874876 -0.041175082 0)
(0.29405649 -0.02390963 0)
(0.29650128 -0.0064602695 0)
(0.29606637 0.010999433 0)
(0.29276449 0.028296005 0)
(0.28663806 0.045258294 0)
(0.27775874 0.061719905 0)
(0.26622644 0.077521669 0)
(0.25216766 0.092513989 0)
(0.23573323 0.10655885 0)
(0.21709568 0.11953137 0)
(0.19644628 0.13132082 0)
(0.17399207 0.14183109 0)
(0.14995285 0.15098058 0)
(0.12455856 0.15870174 0)
(0.098046807 0.16494032 0)
(0.070660867 0.16965442 0)
(0.042647974 0.1728136 0)
(0.014257947 0.17439806 0)
(-0.014257947 0.17439806 0)
(-0.042647974 0.1728136 0)
(-0.070660867 0.16965442 0)
(-0.098046807 0.16494032 0)
(-0.12455856 0.15870174 0)
(-0.14995285 0.15098058 0)
(-0.17399207 0.14183109 0)
(-0.19644628 0.13132082 0)
(-0.21709568 0.11953137 0)
(-0.23573323 0.10655885 0)
(-0.25216766 0.092513989 0)
(-0.26622644 0.077521669 0)
(-0.27775874 0.061719905 0)
(-0.28663806 0.045258294 0)
(-0.29276449 0.028296005 0)
(-0.29606637 0.010999433 0)
(-0.29650128 -0.0064602695 0)
(-0.29405649 -0.02390963 0)
(-0.28874876 -0.041175082 0)
(-0.28062377 -0.058084904 0)
(-0.2697552 -0.074470846 0)
(-0.25624371 -0.090169479 0)
(-0.24021577 -0.10502336 0)
(-0.22182258 -0.11888216 0)
(-0.20123889 -0.13160383 0)
(-0.17866172 -0.14305592 0)
(-0.15430897 -0.15311707 0)
(-0.12841774 -0.1616787 0)
(-0.10124232 -0.16864672 0)
(-0.073051779 -0.17394329 0)
(-0.044127222 -0.17750841 0)
(-0.014758617 -0.1793013 0)
(0.016091407 -0.2099386 0)
(0.048111879 -0.20783708 0)
(0.079647389 -0.20365853 0)
(0.11038143 -0.1974513 0)
(0.14000741 -0.18928635 0)
(0.16823213 -0.17925558 0)
(0.19477877 -0.16746982 0)
(0.2193894 -0.15405663 0)
(0.24182706 -0.13915819 0)
(0.26187743 -0.12292935 0)
(0.27935017 -0.10553585 0)
(0.29408024 -0.08715297 0)
(0.30592903 -0.067964271 0)
(0.3147857 -0.048160524 0)
(0.32056852 -0.027938523 0)
(0.32322623 -0.0074996449 0)
(0.32273933 0.012951995 0)
(0.319121 0.033211878 0)
(0.3124175 0.053077857 0)
(0.30270788 0.072353259 0)
(0.29010288 0.090850069 0)
(0.27474295 0.10839195 0)
(0.25679556 0.12481681 0)
(0.23645198 0.13997876 0)
(0.21392372 0.1537493 0)
(0.18943887 0.16601776 0)
(0.16323868 0.17669103 0)
(0.13557436 0.18569275 0)
(0.10670448 0.19296218 0)
(0.076892693 0.19845286 0)
(0.046406073 0.20213127 0)
(0.015513803 0.20397578 0)
(-0.015513802 0.20397578 0)
(-0.046406073 0.20213127 0)
(-0.076892693 0.19845286 0)
(-0.10670448 0.19296218 0)
(-0.13557436 0.18569275 0)
(-0.16323868 0.17669103 0)
(-0.18943887 0.16601776 0)
(-0.21392372 0.1537493 0)
(-0.23645198 0.13997876 0)
(-0.25679556 0.12481681 0)
(-0.27474295 0.10839195 0)
(-0.29010288 0.090850069 0)
(-0.30270788 0.072353259 0)
(-0.3124175 0.053077857 0)
(-0.319121 0.033211878 0)
(-0.32273933 0.012951995 0)
(-0.32322623 -0.0074996449 0)
(-0.32056852 -0.027938523 0)
(-0.3147857 -0.048160524 0)
(-0.30592903 -0.067964271 0)
(-0.29408024 -0.08715297 0)
(-0.27935017 -0.10553585 0)
(-0.26187743 -0.12292935 0)
(-0.24182706 -0.13915819 0)
(-0.2193894 -0.15405663 0)
(-0.19477877 -0.16746982 0)
(-0.16823213 -0.17925558 0)
(-0.14000741 -0.18928635 0)
(-0.11038143 -0.1974513 0)
(-0.079647389 -0.20365853 0)
(-0.048111879 -0.20783708 0)
(-0.016091407 -0.2099386 0)
(0.017711585 -0.24349817 0)
(0.05295579 -0.24105804 0)
(0.087665443 -0.23620661 0)
(0.12149189 -0.22900071 0)
(0.15409772 -0.21952363 0)
(0.18516056 -0.20788295 0)
(0.21437638 -0.19420806 0)
(0.24146214 -0.17864739 0)
(0.2661579 -0.16136588 0)
(0.28822837 -0.14254262 0)
(0.30746431 -0.12236892 0)
(0.32368365 -0.10104683 0)
(0.33673278 -0.078788011 0)
(0.34648804 -0.055812746 0)
(0.35285733 -0.032348878 0)
(0.35578201 -0.0086303529 0)
(0.35523862 0.015104841 0)
(0.35124036 0.038617456 0)
(0.34383783 0.061670461 0)
(0.33311892 0.084032997 0)
(0.31920758 0.10548451 0)
(0.3022615 0.12581865 0)
(0.28246881 0.14484659 0)
(0.26004404 0.16239944 0)
(0.23522377 0.17832964 0)
(0.20826219 0.19251135 0)
(0.17942691 0.20483985 0)
(0.14899531 0.21523031 0)
(0.11725149 0.22361603 0)
(0.084483925 0.22994662 0)
(0.050983733 0.23418611 0)
(0.017043495 0.23631146 0)
(-0.017043495 0.23631146 0)
(-0.050983733 0.23418611 0)
(-0.084483925 0.22994662 0)
(-0.11725149 0.22361603 0)
(-0.14899531 0.21523031 0)
(-0.17942691 0.20483985 0)
(-0.20826219 0.19251135 0)
(-0.23522377 0.17832964 0)
(-0.26004403 0.16239944 0)
(-0.28246881 0.14484659 0)
(-0.3022615 0.12581865 0)
(-0.31920758 0.10548451 0)
(-0.33311892 0.084032997 0)
(-0.34383783 0.061670461 0)
(-0.35124036 0.038617456 0)
(-0.35523862 0.015104841 0)
(-0.35578201 -0.0086303529 0)
(-0.35285733 -0.032348878 0)
(-0.34648804 -0.055812746 0)
(-0.33673278 -0.078788011 0)
(-0.32368365 -0.10104683 0)
(-0.30746431 -0.12236892 0)
(-0.28822837 -0.14254262 0)
(-0.2661579 -0.16136588 0)
(-0.24146214 -0.17864739 0)
(-0.21437638 -0.19420806 0)
(-0.18516056 -0.20788295 0)
(-0.15409772 -0.21952363 0)
(-0.12149189 -0.22900071 0)
(-0.087665443 -0.23620661 0)
(-0.05295579 -0.24105804 0)
(-0.017711585 -0.24349817 0)
(0.01966816 -0.280599 0)
(0.058805482 -0.27778404 0)
(0.09734851 -0.27218788 0)
(0.1349099 -0.26387704 0)
(0.17111516 -0.25294875 0)
(0.20560691 -0.23952832 0)
(0.23804853 -0.22376587 0)
(0.2681269 -0.20583303 0)
(0.29555452 -0.18591977 0)
(0.32007101 -0.1642316 0)
(0.34144427 -0.14098748 0)
(0.35947159 -0.11641833 0)
(0.37398092 -0.0907661 0)
(0.38483254 -0.064283071 0)
(0.39192116 -0.037231062 0)
(0.3951784 -0.0098800816 0)
(0.39457526 0.017493918 0)
(0.39012426 0.04461236 0)
(0.38188078 0.071198394 0)
(0.36994319 0.096982 0)
(0.3544515 0.12170537 0)
(0.33558458 0.145128 0)
(0.31355599 0.16703095 0)
(0.28860903 0.18721987 0)
(0.26101118 0.20552664 0)
(0.23104867 0.22180957 0)
(0.19902139 0.23595235 0)
(0.16523857 0.24786217 0)
(0.13001532 0.25746719 0)
(0.09367008 0.26471394 0)
(0.056522893 0.26956483 0)
(0.01889444 0.27199604 0)
(-0.01889444 0.27199604 0)
(-0.056522893 0.26956483 0)
(-0.09367008 0.26471394 0)
(-0.13001532 0.25746719 0)
(-0.16523857 0.24786217 0)
(-0.19902139 0.23595235 0)
(-0.23104867 0.22180957 0)
(-0.26101118 0.20552664 0)
(-0.28860903 0.18721987 0)
(-0.31355599 0.16703095 0)
(-0.33558458 0.145128 0)
(-0.3544515 0.12170537 0)
(-0.36994319 0.096982 0)
(-0.38188078 0.071198394 0)
(-0.39012426 0.04461236 0)
(-0.39457526 0.017493918 0)
(-0.3951784 -0.0098800816 0)
(-0.39192116 -0.037231062 0)
(-0.38483254 -0.064283071 0)
(-0.37398092 -0.0907661 0)
(-0.35947159 -0.11641833 0)
(-0.34144427 -0.14098748 0)
(-0.32007101 -0.1642316 0)
(-0.29555452 -0.18591977 0)
(-0.2681269 -0.20583303 0)
(-0.23804853 -0.22376587 0)
(-0.20560691 -0.23952832 0)
(-0.17111516 -0.25294875 0)
(-0.1349099 -0.26387704 0)
(-0.09734851 -0.27218788 0)
(-0.058805482 -0.27778404 0)
(-0.01966816 -0.280599 0)
(0.022015838 -0.32196419 0)
(0.065824515 -0.31873086 0)
(0.10896733 -0.31230366 0)
(0.15101062 -0.30276023 0)
(0.19153559 -0.29021383 0)
(0.2301431 -0.27480989 0)
(0.26645769 -0.25672203 0)
(0.30013048 -0.23614783 0)
(0.33084125 -0.21330494 0)
(0.35829972 -0.18842786 0)
(0.38224654 -0.16176554 0)
(0.40245409 -0.13358009 0)
(0.41872783 -0.10414615 0)
(0.43090819 -0.073750773 0)
(0.4388732 -0.042693133 0)
(0.44254178 -0.011283444 0)
(0.44187728 0.020159388 0)
(0.43689056 0.051311729 0)
(0.42764212 0.0818507 0)
(0.41424266 0.11146081 0)
(0.39685159 0.13984101 0)
(0.37567361 0.1667114 0)
(0.35095351 0.19181871 0)
(0.32296983 0.21494016 0)
(0.29202792 0.23588527 0)
(0.25845308 0.2544958 0)
(0.22258445 0.27064404 0)
(0.18476979 0.28422995 0)
(0.14536153 0.29517767 0)
(0.10471405 0.30343186 0)
(0.063181994 0.30895432 0)
(0.02111957 0.31172126 0)
(-0.02111957 0.31172126 0)
(-0.063181994 0.30895432 0)
(-0.10471405 0.30343186 0)
(-0.14536153 0.29517767 0)
(-0.18476979 0.28422995 0)
(-0.22258445 0.27064404 0)
(-0.25845308 0.2544958 0)
(-0.29202792 0.23588527 0)
(-0.32296983 0.21494016 0)
(-0.35095351 0.19181871 0)
(-0.37567361 0.1667114 0)
(-0.39685159 0.13984101 0)
(-0.41424266 0.11146081 0)
(-0.42764212 0.0818507 0)
(-0.43689056 0.051311729 0)
(-0.44187728 0.020159388 0)
(-0.44254178 -0.011283444 0)
(-0.4388732 -0.042693133 0)
(-0.43090819 -0.073750773 0)
(-0.41872783 -0.10414615 0)
(-0.40245409 -0.13358009 0)
(-0.38224654 -0.16176554 0)
(-0.35829972 -0.18842786 0)
(-0.33084125 -0.21330494 0)
(-0.30013048 -0.23614783 0)
(-0.26645769 -0.25672203 0)
(-0.2301431 -0.27480989 0)
(-0.19153559 -0.29021383 0)
(-0.15101062 -0.30276023 0)
(-0.10896733 -0.31230366 0)
(-0.065824515 -0.31873086 0)
(-0.022015838 -0.32196419 0)
(0.024812997 -0.36843097 0)
(0.074187408 -0.36472724 0)
(0.12281074 -0.3573659 0)
(0.17019426 -0.34643748 0)
(0.21586651 -0.33207377 0)
(0.25937887 -0.31444338 0)
(0.30030994 -0.29374668 0)
(0.33826866 -0.27021055 0)
(0.37289621 -0.24408353 0)
(0.40386711 -0.21563198 0)
(0.43088969 -0.18513753 0)
(0.45370669 -0.15289592 0)
(0.47209643 -0.11921712 0)
(0.48587499 -0.084425978 0)
(0.49489953 -0.048862833 0)
(0.49907269 -0.01288298 0)
(0.49834743 0.023145701 0)
(0.49273155 0.058847442 0)
(0.4822909 0.093845565 0)
(0.46715054 0.12777114 0)
(0.44749313 0.16027236 0)
(0.4235547 0.19102331 0)
(0.39561808 0.21973122 0)
(0.36400471 0.24614123 0)
(0.32906593 0.27003843 0)
(0.29117439 0.29124738 0)
(0.25071647 0.30962934 0)
(0.20808616 0.32507819 0)
(0.16368049 0.33751553 0)
(0.11789662 0.34688569 0)
(0.071130286 0.35315125 0)
(0.023775429 0.35628941 0)
(-0.023775429 0.35628941 0)
(-0.071130286 0.35315125 0)
(-0.11789662 0.34688569 0)
(-0.16368049 0.33751553 0)
(-0.20808616 0.32507819 0)
(-0.25071647 0.30962934 0)
(-0.29117439 0.29124738 0)
(-0.32906593 0.27003843 0)
(-0.36400471 0.24614123 0)
(-0.39561808 0.21973122 0)
(-0.4235547 0.19102331 0)
(-0.44749313 0.16027236 0)
(-0.46715054 0.12777114 0)
(-0.4822909 0.093845565 0)
(-0.49273155 0.058847442 0)
(-0.49834743 0.023145701 0)
(-0.49907269 -0.01288298 0)
(-0.49489953 -0.048862833 0)
(-0.48587499 -0.084425978 0)
(-0.47209643 -0.11921712 0)
(-0.45370669 -0.15289592 0)
(-0.43088969 -0.18513753 0)
(-0.40386711 -0.21563198 0)
(-0.37289621 -0.24408353 0)
(-0.33826866 -0.27021055 0)
(-0.30030994 -0.29374668 0)
(-0.25937887 -0.31444338 0)
(-0.21586651 -0.33207377 0)
(-0.17019426 -0.34643748 0)
(-0.12281074 -0.3573659 0)
(-0.074187408 -0.36472724 0)
(-0.024812997 -0.36843097 0)
(0.028117979 -0.42095532 0)
(0.08406857 -0.41671943 0)
(0.13916736 -0.40830156 0)
(0.1928606 -0.39580738 0)
(0.24461476 -0.37939023 0)
(0.29392299 -0.3592456 0)
(0.34031 -0.33560463 0)
(0.38333533 -0.3087275 0)
(0.42259517 -0.27889741 0)
(0.45772289 -0.24641598 0)
(0.48838904 -0.21160042 0)
(0.51430143 -0.17478278 0)
(0.53520607 -0.13631106 0)
(0.55088956 -0.096551153 0)
(0.56118332 -0.055888786 0)
(0.56596931 -0.014729957 0)
(0.56518673 0.026501271 0)
(0.55883844 0.067368347 0)
(0.54699565 0.10743113 0)
(0.52979995 0.14625732 0)
(0.50746168 0.18343486 0)
(0.48025451 0.21858371 0)
(0.44850715 0.25136517 0)
(0.41259284 0.28148795 0)
(0.37291824 0.30871042 0)
(0.32991271 0.33283928 0)
(0.28401903 0.35372553 0)
(0.23568609 0.37125851 0)
(0.18536368 0.3853592 0)
(0.13349947 0.39597359 0)
(0.080537591 0.40306673 0)
(0.026918761 0.40661803 0)
(-0.026918761 0.40661803 0)
(-0.080537591 0.40306673 0)
(-0.13349947 0.39597359 0)
(-0.18536368 0.3853592 0)
(-0.23568609 0.37125851 0)
(-0.28401903 0.35372553 0)
(-0.32991271 0.33283928 0)
(-0.37291824 0.30871042 0)
(-0.41259284 0.28148795 0)
(-0.44850715 0.25136517 0)
(-0.48025451 0.21858371 0)
(-0.50746168 0.18343486 0)
(-0.52979995 0.14625732 0)
(-0.54699565 0.10743113 0)
(-0.55883844 0.067368347 0)
(-0.56518673 0.026501271 0)
(-0.56596931 -0.014729957 0)
(-0.56118332 -0.055888786 0)
(-0.55088956 -0.096551153 0)
(-0.53520607 -0.13631106 0)
(-0.51430143 -0.17478278 0)
(-0.48838904 -0.21160042 0)
(-0.45772289 -0.24641598 0)
(-0.42259517 -0.27889741 0)
(-0.38333533 -0.3087275 0)
(-0.34031 -0.33560463 0)
(-0.29392299 -0.3592456 0)
(-0.24461476 -0.37939023 0)
(-0.1928606 -0.39580738 0)
(-0.13916736 -0.40830156 0)
(-0.08406857 -0.41671943 0)
(-0.028117979 -0.42095532 0)
(0.031983169 -0.48060719 0)
(0.095624576 -0.47576643 0)
(0.15829627 -0.46614799 0)
(0.21936842 -0.45187532 0)
(0.27823501 -0.43312709 0)
(0.33432133 -0.41013011 0)
(0.38708942 -0.38315114 0)
(0.43604165 -0.35248851 0)
(0.48072217 -0.31846456 0)
(0.52071694 -0.28142003 0)
(0.55565293 -0.24171096 0)
(0.58519736 -0.19970854 0)
(0.60905831 -0.15580154 0)
(0.62698732 -0.11040023 0)
(0.63878449 -0.06394029 0)
(0.64430602 -0.016884806 0)
(0.64347326 0.030277498 0)
(0.6362816 0.077038808 0)
(0.62280737 0.12288365 0)
(0.60321098 0.16730402 0)
(0.57773524 0.20981595 0)
(0.54669863 0.24997518 0)
(0.51048457 0.28738936 0)
(0.46952805 0.32172569 0)
(0.42430149 0.35271317 0)
(0.37530136 0.38014026 0)
(0.32303686 0.40384875 0)
(0.26802131 0.42372553 0)
(0.21076625 0.43969345 0)
(0.15177831 0.45170253 0)
(0.091558166 0.45972233 0)
(0.030601124 0.46373594 0)
(-0.030601124 0.46373594 0)
(-0.091558166 0.45972233 0)
(-0.15177831 0.45170253 0)
(-0.21076625 0.43969345 0)
(-0.26802131 0.42372553 0)
(-0.32303686 0.40384875 0)
(-0.37530136 0.38014026 0)
(-0.42430149 0.35271317 0)
(-0.46952805 0.32172569 0)
(-0.51048457 0.28738936 0)
(-0.54669863 0.24997518 0)
(-0.57773524 0.20981595 0)
(-0.60321098 0.16730402 0)
(-0.62280737 0.12288365 0)
(-0.6362816 0.077038808 0)
(-0.64347326 0.030277498 0)
(-0.64430602 -0.016884806 0)
(-0.63878449 -0.06394029 0)
(-0.62698732 -0.11040023 0)
(-0.60905831 -0.15580154 0)
(-0.58519736 -0.19970854 0)
(-0.55565293 -0.24171096 0)
(-0.52071694 -0.28142003 0)
(-0.48072217 -0.31846456 0)
(-0.43604165 -0.35248851 0)
(-0.38708942 -0.38315114 0)
(-0.33432133 -0.41013011 0)
(-0.27823501 -0.43312709 0)
(-0.21936842 -0.45187532 0)
(-0.15829627 -0.46614799 0)
(-0.095624576 -0.47576643 0)
(-0.031983169 -0.48060719 0)
(0.036446305 -0.5485515 0)
(0.10896822 -0.54302113 0)
(0.18038403 -0.53203432 0)
(0.24997599 -0.5157355 0)
(0.31705441 -0.4943331 0)
(0.38096636 -0.46809064 0)
(0.44110192 -0.43731631 0)
(0.49689797 -0.40235237 0)
(0.54783937 -0.36356562 0)
(0.59345818 -0.32134044 0)
(0.63333179 -0.27607529 0)
(0.66708116 -0.22818341 0)
(0.69437073 -0.17809702 0)
(0.71491099 -0.12627407 0)
(0.72846477 -0.073204985 0)
(0.73485678 -0.019416966 0)
(0.7339857 0.034526781 0)
(0.72583632 0.088034694 0)
(0.71048936 0.14050156 0)
(0.68812629 0.19132856 0)
(0.65902753 0.23994556 0)
(0.62356407 0.28583185 0)
(0.58218368 0.32853225 0)
(0.53539383 0.36766651 0)
(0.48374385 0.40293152 0)
(0.42780838 0.43409723 0)
(0.3681737 0.46099785 0)
(0.30542757 0.48352044 0)
(0.24015282 0.50159269 0)
(0.1729241 0.51517151 0)
(0.10430736 0.5242333 0)
(0.034861101 0.52876647 0)
(-0.034861101 0.52876647 0)
(-0.10430736 0.5242333 0)
(-0.1729241 0.51517151 0)
(-0.24015282 0.50159269 0)
(-0.30542757 0.48352044 0)
(-0.3681737 0.46099785 0)
(-0.42780838 0.43409723 0)
(-0.48374385 0.40293152 0)
(-0.53539383 0.36766651 0)
(-0.58218368 0.32853225 0)
(-0.62356407 0.28583185 0)
(-0.65902753 0.23994556 0)
(-0.68812629 0.19132856 0)
(-0.71048936 0.14050156 0)
(-0.72583632 0.088034694 0)
(-0.7339857 0.034526781 0)
(-0.73485678 -0.019416966 0)
(-0.72846477 -0.073204985 0)
(-0.71491099 -0.12627407 0)
(-0.69437073 -0.17809702 0)
(-0.66708116 -0.22818341 0)
(-0.63333179 -0.27607529 0)
(-0.59345818 -0.32134044 0)
(-0.54783937 -0.36356562 0)
(-0.49689797 -0.40235237 0)
(-0.44110192 -0.43731631 0)
(-0.38096636 -0.46809064 0)
(-0.31705441 -0.4943331 0)
(-0.24997599 -0.5157355 0)
(-0.18038403 -0.53203432 0)
(-0.10896822 -0.54302113 0)
(-0.036446305 -0.5485515 0)
(0.041518602 -0.62600873 0)
(0.12413299 -0.61969138 0)
(0.20548602 -0.60714338 0)
(0.28475983 -0.58853389 0)
(0.36116962 -0.56410635 0)
(0.43397364 -0.53416732 0)
(0.50248048 -0.49907333 0)
(0.56605313 -0.45921743 0)
(0.62410985 -0.41501714 0)
(0.67612242 -0.3669057 0)
(0.72161295 -0.31532804 0)
(0.76015074 -0.26074242 0)
(0.79135104 -0.20362712 0)
(0.81487762 -0.14449084 0)
(0.8304499 -0.083883467 0)
(0.83785504 -0.02240389 0)
(0.83696358 0.039299146 0)
(0.8277459 0.10053573 0)
(0.81028585 0.16059367 0)
(0.78478785 0.21876519 0)
(0.75157511 0.27437674 0)
(0.71107904 0.32681668 0)
(0.66382161 0.37555621 0)
(0.61039376 0.42016095 0)
(0.55143302 0.4602928 0)
(0.48760329 0.49570331 0)
(0.41957849 0.52622123 0)
(0.3480309 0.55173694 0)
(0.27362421 0.57218646 0)
(0.19701046 0.58753674 0)
(0.11883005 0.59777353 0)
(0.039713763 0.60289233 0)