/*--------------------------------*- C++ -*----------------------------------*\
| =========                 |                                                 |
| \\      /  F ield         | OpenFOAM: The Open Source CFD Toolbox           |
|  \\    /   O peration     | Version:  2106                                  |
|   \\  /    A nd           | Website:  www.openfoam.com                      |
|    \\/     M anipulation  |                                                 |
\*---------------------------------------------------------------------------*/
FoamFile
{
    version     2.0;
    format      ascii;
    arch        "LSB;label=32;scalar=64";
    class       volVectorField;
    location    "0.01";
    object      U_0;
}
// * * * * * * * * * * * * * * * * * * * * * * * * * * * * * * * * * * * * * //

dimensions      [0 1 -1 0 0 0 0];

internalField   nonuniform List<vector> 
4096
(
(0.010699897 -0.010647329 0)
(0.031993205 -0.010541409 0)
(0.05296823 -0.010330737 0)
(0.073416697 -0.010017635 0)
(0.093136121 -0.0096055295 0)
(0.11193198 -0.0090988952 0)
(0.12961974 -0.0085031829 0)
(0.14602676 -0.0078247341 0)
(0.16099393 -0.0070706917 0)
(0.17437727 -0.0062489069 0)
(0.18604916 -0.0053678451 0)
(0.19589955 -0.0044364926 0)
(0.20383686 -0.0034642641 0)
(0.2097888 -0.0024609093 0)
(0.2137029 -0.0014364198 0)
(0.21554693 -0.00040093498 0)
(0.21530866 0.00063540989 0)
(0.21299822 0.0016621776 0)
(0.20864194 0.0026701483 0)
(0.20228987 0.0036490963 0)
(0.19400894 0.0045898907 0)
(0.18388473 0.0054838011 0)
(0.1720198 0.0063226569 0)
(0.15853245 0.0070989458 0)
(0.14355532 0.0078058747 0)
(0.12723394 0.0084374085 0)
(0.10972513 0.0089882925 0)
(0.091195452 0.0094540591 0)
(0.071819612 0.0098310224 0)
(0.051778915 0.010116265 0)
(0.031259738 0.010307619 0)
(0.010452049 0.010403653 0)
(-0.010452049 0.010403653 0)
(-0.031259738 0.010307619 0)
(-0.051778915 0.010116265 0)
(-0.071819612 0.0098310224 0)
(-0.091195452 0.0094540591 0)
(-0.10972513 0.0089882925 0)
(-0.12723394 0.0084374085 0)
(-0.14355532 0.0078058747 0)
(-0.15853245 0.0070989458 0)
(-0.1720198 0.0063226569 0)
(-0.18388473 0.0054838011 0)
(-0.19400894 0.0045898907 0)
(-0.20228987 0.0036490963 0)
(-0.20864194 0.0026701483 0)
(-0.21299822 0.0016621776 0)
(-0.21530866 0.00063540989 0)
(-0.21554693 -0.00040093498 0)
(-0.2137029 -0.0014364198 0)
(-0.2097888 -0.0024609093 0)
(-0.20383686 -0.0034642641 0)
(-0.19589955 -0.0044364926 0)
(-0.18604916 -0.0053678451 0)
(-0.17437727 -0.0062489069 0)
(-0.16099393 -0.0070706917 0)
(-0.14602676 -0.0078247341 0)
(-0.12961974 -0.0085031829 0)
(-0.11193198 -0.0090988952 0)
(-0.093136121 -0.0096055295 0)
(-0.073416697 -0.010017635 0)
(-0.05296823 -0.010330737 0)
(-0.031993205 -0.010541409 0)
(-0.010699897 -0.010647329 0)
(0.010865746 -0.03206801 0)
(0.032489004 -0.031748916 0)
(0.053788762 -0.031114262 0)
(0.074553355 -0.030171044 0)
(0.094577033 -0.028929601 0)
(0.11366218 -0.02740343 0)
(0.13162137 -0.025608964 0)
(0.14827928 -0.023565321 0)
(0.16347442 -0.021294026 0)
(0.17706061 -0.018818733 0)
(0.18890835 -0.016164945 0)
(0.19890599 -0.013359727 0)
(0.2069606 -0.010431435 0)
(0.21299885 -0.0074094368 0)
(0.21696755 -0.0043238327 0)
(0.21883406 -0.0012051799 0)
(0.21858637 0.0019157992 0)
(0.21623357 0.0050088447 0)
(0.21180468 0.0080440862 0)
(0.20534937 0.010992147 0)
(0.19693624 0.013825242 0)
(0.18665245 0.016517018 0)
(0.17460244 0.019042866 0)
(0.16090662 0.021380178 0)
(0.14569992 0.023508517 0)
(0.12913028 0.025409742 0)
(0.11135699 0.027068067 0)
(0.092549148 0.02847008 0)
(0.072883985 0.029604725 0)
(0.052545323 0.030463257 0)
(0.031722034 0.031039183 0)
(0.010606555 0.031328214 0)
(-0.010606555 0.031328214 0)
(-0.031722034 0.031039183 0)
(-0.052545323 0.030463257 0)
(-0.072883985 0.029604725 0)
(-0.092549148 0.02847008 0)
(-0.11135699 0.027068067 0)
(-0.12913028 0.025409742 0)
(-0.14569992 0.023508517 0)
(-0.16090662 0.021380178 0)
(-0.17460244 0.019042866 0)
(-0.18665245 0.016517018 0)
(-0.19693624 0.013825242 0)
(-0.20534937 0.010992147 0)
(-0.21180468 0.0080440862 0)
(-0.21623357 0.0050088447 0)
(-0.21858637 0.0019157992 0)
(-0.21883406 -0.0012051799 0)
(-0.21696755 -0.0043238327 0)
(-0.21299885 -0.0074094368 0)
(-0.2069606 -0.010431435 0)
(-0.19890599 -0.013359727 0)
(-0.18890835 -0.016164945 0)
(-0.17706061 -0.018818733 0)
(-0.16347442 -0.021294026 0)
(-0.14827928 -0.023565321 0)
(-0.13162137 -0.025608964 0)
(-0.11366218 -0.02740343 0)
(-0.094577033 -0.028929601 0)
(-0.074553355 -0.030171044 0)
(-0.053788762 -0.031114262 0)
(-0.032489004 -0.031748916 0)
(-0.010865746 -0.03206801 0)
(0.011147592 -0.053965847 0)
(0.033331592 -0.053428574 0)
(0.055183286 -0.052359996 0)
(0.076485282 -0.050771937 0)
(0.097026316 -0.048681854 0)
(0.11660353 -0.046112531 0)
(0.13502461 -0.043091691 0)
(0.1521097 -0.039651562 0)
(0.16769318 -0.035828415 0)
(0.18162519 -0.031662085 0)
(0.19377301 -0.027195497 0)
(0.20402215 -0.0224742 0)
(0.21227743 -0.017545907 0)
(0.21846366 -0.012460037 0)
(0.22252636 -0.0072672508 0)
(0.22443213 -0.002018968 0)
(0.22416886 0.0032331568 0)
(0.22174586 0.0084379031 0)
(0.21719352 0.013544871 0)
(0.21056293 0.018504905 0)
(0.20192499 0.023271056 0)
(0.19136961 0.027798921 0)
(0.17900445 0.032047101 0)
(0.16495351 0.035977601 0)
(0.14935564 0.03955613 0)
(0.13236289 0.04275229 0)
(0.11413881 0.045539681 0)
(0.094856816 0.047895914 0)
(0.074698454 0.049802566 0)
(0.053851849 0.051245086 0)
(0.03251013 0.052212693 0)
(0.010869949 0.052698266 0)
(-0.010869949 0.052698266 0)
(-0.03251013 0.052212693 0)
(-0.053851849 0.051245086 0)
(-0.074698454 0.049802566 0)
(-0.094856816 0.047895914 0)
(-0.11413881 0.045539681 0)
(-0.13236289 0.04275229 0)
(-0.14935564 0.03955613 0)
(-0.16495351 0.035977601 0)
(-0.17900445 0.032047101 0)
(-0.19136961 0.027798921 0)
(-0.20192499 0.023271056 0)
(-0.21056293 0.018504905 0)
(-0.21719352 0.013544871 0)
(-0.22174586 0.0084379031 0)
(-0.22416886 0.0032331568 0)
(-0.22443213 -0.002018968 0)
(-0.22252636 -0.0072672508 0)
(-0.21846366 -0.012460037 0)
(-0.21227743 -0.017545907 0)
(-0.20402215 -0.0224742 0)
(-0.19377301 -0.027195497 0)
(-0.18162519 -0.031662085 0)
(-0.16769318 -0.035828415 0)
(-0.1521097 -0.039651562 0)
(-0.13502461 -0.043091691 0)
(-0.11660353 -0.046112531 0)
(-0.097026316 -0.048681854 0)
(-0.076485282 -0.050771937 0)
(-0.055183286 -0.052359996 0)
(-0.033331592 -0.053428574 0)
(-0.011147592 -0.053965847 0)
(0.011553632 -0.076545251 0)
(0.034545471 -0.075782682 0)
(0.057192355 -0.074266055 0)
(0.079268667 -0.072012223 0)
(0.10055522 -0.069046061 0)
(0.12084164 -0.065400007 0)
(0.13992856 -0.061113504 0)
(0.15762963 -0.056232366 0)
(0.1737733 -0.05080811 0)
(0.1882044 -0.044897278 0)
(0.2007855 -0.03856076 0)
(0.21139808 -0.031863148 0)
(0.21994357 -0.024872097 0)
(0.22634412 -0.017657689 0)
(0.2305433 -0.01029179 0)
(0.23250657 -0.0028473678 0)
(0.23222153 0.0046022456 0)
(0.22969803 0.011984176 0)
(0.22496798 0.019226742 0)
(0.21808479 0.026260237 0)
(0.20912262 0.033017917 0)
(0.19817535 0.039436716 0)
(0.18535533 0.04545792 0)
(0.17079182 0.051027731 0)
(0.15462936 0.056097688 0)
(0.13702597 0.060624933 0)
(0.1181514 0.064572335 0)
(0.098185278 0.067908489 0)
(0.077315421 0.070607616 0)
(0.055736145 0.072649407 0)
(0.033646704 0.074018842 0)
(0.011249805 0.074706018 0)
(-0.011249805 0.074706018 0)
(-0.033646704 0.074018842 0)
(-0.055736145 0.072649407 0)
(-0.077315421 0.070607616 0)
(-0.098185278 0.067908489 0)
(-0.1181514 0.064572335 0)
(-0.13702597 0.060624933 0)
(-0.15462936 0.056097688 0)
(-0.17079182 0.051027731 0)
(-0.18535533 0.04545792 0)
(-0.19817535 0.039436716 0)
(-0.20912262 0.033017917 0)
(-0.21808479 0.026260237 0)
(-0.22496798 0.019226742 0)
(-0.22969803 0.011984176 0)
(-0.23222153 0.0046022456 0)
(-0.23250657 -0.0028473678 0)
(-0.2305433 -0.01029179 0)
(-0.22634412 -0.017657689 0)
(-0.21994357 -0.024872097 0)
(-0.21139808 -0.031863148 0)
(-0.2007855 -0.03856076 0)
(-0.1882044 -0.044897278 0)
(-0.1737733 -0.05080811 0)
(-0.15762963 -0.056232366 0)
(-0.13992856 -0.061113504 0)
(-0.12084164 -0.065400007 0)
(-0.10055522 -0.069046061 0)
(-0.079268667 -0.072012223 0)
(-0.057192355 -0.074266055 0)
(-0.034545471 -0.075782682 0)
(-0.011553632 -0.076545251 0)
(0.012097141 -0.1000621 0)
(0.03617034 -0.09906447 0)
(0.059881693 -0.097080415 0)
(0.082994603 -0.094132099 0)
(0.10527931 -0.09025222 0)
(0.12651541 -0.085483381 0)
(0.14649414 -0.079877331 0)
(0.16502047 -0.073494114 0)
(0.18191494 -0.066401175 0)
(0.19701526 -0.058672468 0)
(0.2101777 -0.05038758 0)
(0.2212783 -0.041630898 0)
(0.23021388 -0.032490803 0)
(0.23690293 -0.02305887 0)
(0.24128633 -0.013429057 0)
(0.24332791 -0.0036968258 0)
(0.24301478 0.0060418022 0)
(0.24035748 0.01569129 0)
(0.23538982 0.025157645 0)
(0.22816836 0.034349538 0)
(0.21877158 0.043179489 0)
(0.20729878 0.051564917 0)
(0.19386867 0.05942906 0)
(0.17861762 0.066701736 0)
(0.16169787 0.073319887 0)
(0.14327556 0.079227921 0)
(0.12352875 0.084377833 0)
(0.10264549 0.088729162 0)
(0.080821983 0.092248814 0)
(0.058260843 0.094910798 0)
(0.0351695 0.096695945 0)
(0.011758731 0.097591644 0)
(-0.011758731 0.097591644 0)
(-0.0351695 0.096695945 0)
(-0.058260843 0.094910798 0)
(-0.080821983 0.092248814 0)
(-0.10264549 0.088729162 0)
(-0.12352875 0.084377833 0)
(-0.14327556 0.079227921 0)
(-0.16169787 0.073319887 0)
(-0.17861762 0.066701736 0)
(-0.19386867 0.05942906 0)
(-0.20729878 0.051564917 0)
(-0.21877158 0.043179489 0)
(-0.22816836 0.034349538 0)
(-0.23538982 0.025157645 0)
(-0.24035748 0.01569129 0)
(-0.24301478 0.0060418022 0)
(-0.24332791 -0.0036968258 0)
(-0.24128633 -0.013429057 0)
(-0.23690293 -0.02305887 0)
(-0.23021388 -0.032490803 0)
(-0.2212783 -0.041630898 0)
(-0.2101777 -0.05038758 0)
(-0.19701526 -0.058672468 0)
(-0.18191494 -0.066401175 0)
(-0.16502047 -0.073494114 0)
(-0.14649414 -0.079877331 0)
(-0.12651541 -0.085483381 0)
(-0.10527931 -0.09025222 0)
(-0.082994603 -0.094132099 0)
(-0.059881693 -0.097080415 0)
(-0.03617034 -0.09906447 0)
(-0.012097141 -0.1000621 0)
(0.0127965 -0.12480776 0)
(0.038261153 -0.12356231 0)
(0.063342283 -0.12108549 0)
(0.087789212 -0.11740515 0)
(0.11135863 -0.11256236 0)
(0.13381726 -0.10661056 0)
(0.15494431 -0.099614547 0)
(0.17453362 -0.091649449 0)
(0.19239559 -0.082799514 0)
(0.20835878 -0.073157014 0)
(0.22227134 -0.062821161 0)
(0.23400221 -0.051897093 0)
(0.24344223 -0.040494921 0)
(0.25050503 -0.02872878 0)
(0.2551279 -0.016715865 0)
(0.25727238 -0.004575377 0)
(0.2569248 0.007572648 0)
(0.25409647 0.019608639 0)
(0.24882356 0.031414891 0)
(0.24116665 0.042877043 0)
(0.23120982 0.05388559 0)
(0.21905941 0.064337272 0)
(0.20484241 0.074136301 0)
(0.18870449 0.083195333 0)
(0.17080796 0.091436163 0)
(0.15132951 0.098790114 0)
(0.13045803 0.10519814 0)
(0.10839247 0.11061072 0)
(0.085339855 0.1149875 0)
(0.061513483 0.11829696 0)
(0.037131281 0.1205159 0)
(0.012414353 0.12162914 0)
(-0.012414353 0.12162914 0)
(-0.037131281 0.1205159 0)
(-0.061513483 0.11829696 0)
(-0.085339855 0.1149875 0)
(-0.10839247 0.11061072 0)
(-0.13045803 0.10519814 0)
(-0.15132951 0.098790114 0)
(-0.17080796 0.091436163 0)
(-0.18870449 0.083195333 0)
(-0.20484241 0.074136301 0)
(-0.21905941 0.064337272 0)
(-0.23120982 0.05388559 0)
(-0.24116665 0.042877043 0)
(-0.24882356 0.031414891 0)
(-0.25409647 0.019608639 0)
(-0.2569248 0.007572648 0)
(-0.25727238 -0.004575377 0)
(-0.2551279 -0.016715865 0)
(-0.25050503 -0.02872878 0)
(-0.24344223 -0.040494921 0)
(-0.23400221 -0.051897093 0)
(-0.22227134 -0.062821161 0)
(-0.20835878 -0.073157014 0)
(-0.19239559 -0.082799514 0)
(-0.17453362 -0.091649449 0)
(-0.15494431 -0.099614547 0)
(-0.13381726 -0.10661056 0)
(-0.11135863 -0.11256236 0)
(-0.087789212 -0.11740515 0)
(-0.063342283 -0.12108549 0)
(-0.038261153 -0.12356231 0)
(-0.0127965 -0.12480776 0)
(0.013675442 -0.15111436 0)
(0.040888879 -0.14960491 0)
(0.067691635 -0.14660324 0)
(0.093815393 -0.14214336 0)
(0.11899987 -0.13627539 0)
(0.14299572 -0.12906443 0)
(0.16556709 -0.12058935 0)
(0.18649392 -0.11094139 0)
(0.20557388 -0.10022268 0)
(0.22262408 -0.088544948 0)
(0.2374824 -0.076028159 0)
(0.25000884 -0.06279938 0)
(0.26008653 -0.048991676 0)
(0.26762285 -0.034743066 0)
(0.27255029 -0.020195418 0)
(0.27482734 -0.0054932426 0)
(0.27443907 0.0092177033 0)
(0.27139756 0.023792021 0)
(0.26574186 0.038086446 0)
(0.25753753 0.051961756 0)
(0.24687572 0.065284702 0)
(0.23387174 0.077929821 0)
(0.21866312 0.089781008 0)
(0.20140746 0.10073276 0)
(0.18227989 0.11069103 0)
(0.16147057 0.11957363 0)
(0.13918215 0.1273103 0)
(0.1156274 0.13384247 0)
(0.091026996 0.13912268 0)
(0.065607676 0.14311406 0)
(0.039600522 0.14578963 0)
(0.013239548 0.14713177 0)
(-0.013239548 0.14713177 0)
(-0.039600522 0.14578963 0)
(-0.065607676 0.14311406 0)
(-0.091026996 0.13912268 0)
(-0.1156274 0.13384247 0)
(-0.13918215 0.1273103 0)
(-0.16147057 0.11957363 0)
(-0.18227989 0.11069103 0)
(-0.20140746 0.10073276 0)
(-0.21866312 0.089781008 0)
(-0.23387174 0.077929821 0)
(-0.24687572 0.065284702 0)
(-0.25753753 0.051961756 0)
(-0.26574186 0.038086446 0)
(-0.27139756 0.023792021 0)
(-0.27443907 0.0092177033 0)
(-0.27482734 -0.0054932426 0)
(-0.27255029 -0.020195418 0)
(-0.26762285 -0.034743066 0)
(-0.26008653 -0.048991676 0)
(-0.25000884 -0.062799379 0)
(-0.2374824 -0.076028159 0)
(-0.22262408 -0.088544948 0)
(-0.20557388 -0.10022268 0)
(-0.18649392 -0.11094139 0)
(-0.16556709 -0.12058935 0)
(-0.14299572 -0.12906443 0)
(-0.11899987 -0.13627539 0)
(-0.093815393 -0.14214336 0)
(-0.067691635 -0.14660324 0)
(-0.040888879 -0.14960491 0)
(-0.013675442 -0.15111436 0)
(0.014763507 -0.17936649 0)
(0.044141844 -0.17757296 0)
(0.073075987 -0.17400657 0)
(0.10127587 -0.16870813 0)
(0.12846031 -0.16173764 0)
(0.15436014 -0.15317297 0)
(0.17872099 -0.14310825 0)
(0.20130568 -0.13165209 0)
(0.22189625 -0.11892589 0)
(0.24029559 -0.10506215 0)
(0.25632893 -0.090202967 0)
(0.26984501 -0.074498718 0)
(0.28071729 -0.058106897 0)
(0.28884511 -0.041190989 0)
(0.29415475 -0.023919301 0)
(0.29660052 -0.0064636079 0)
(0.29616564 0.011002464 0)
(0.29286285 0.028305382 0)
(0.28673456 0.045273937 0)
(0.27785245 0.061741674 0)
(0.26631647 0.077549366 0)
(0.25225313 0.092547357 0)
(0.23581331 0.10659758 0)
(0.2171696 0.11957509 0)
(0.19651332 0.13136913 0)
(0.17405156 0.14188352 0)
(0.15000423 0.15103662 0)
(0.1246013 0.15876086 0)
(0.098080501 0.16500194 0)
(0.070685176 0.16971794 0)
(0.042662657 0.1728784 0)
(0.014262857 0.17446351 0)
(-0.014262857 0.17446351 0)
(-0.042662657 0.1728784 0)
(-0.070685176 0.16971794 0)
(-0.098080501 0.16500194 0)
(-0.1246013 0.15876086 0)
(-0.15000423 0.15103662 0)
(-0.17405156 0.14188352 0)
(-0.19651332 0.13136913 0)
(-0.2171696 0.11957509 0)
(-0.23581331 0.10659758 0)
(-0.25225313 0.092547357 0)
(-0.26631647 0.077549366 0)
(-0.27785245 0.061741674 0)
(-0.28673456 0.045273937 0)
(-0.29286285 0.028305382 0)
(-0.29616564 0.011002464 0)
(-0.29660052 -0.0064636079 0)
(-0.29415475 -0.023919301 0)
(-0.28884511 -0.041190989 0)
(-0.28071729 -0.058106897 0)
(-0.26984501 -0.074498718 0)
(-0.25632893 -0.090202967 0)
(-0.24029559 -0.10506215 0)
(-0.22189625 -0.11892589 0)
(-0.20130568 -0.13165209 0)
(-0.17872099 -0.14310825 0)
(-0.15436014 -0.15317297 0)
(-0.12846031 -0.16173764 0)
(-0.10127587 -0.16870813 0)
(-0.073075987 -0.17400657 0)
(-0.044141844 -0.17757296 0)
(-0.014763507 -0.17936649 0)
(0.01609653 -0.21001376 0)
(0.048127196 -0.2079115 0)
(0.079672748 -0.20373149 0)
(0.11041658 -0.19752209 0)
(0.140052 -0.18935428 0)
(0.16828572 -0.17932001 0)
(0.19484083 -0.16753012 0)
(0.21945932 -0.15411223 0)
(0.24190417 -0.13920858 0)
(0.26196098 -0.12297404 0)
(0.27943937 -0.10557443 0)
(0.29417423 -0.087185081 0)
(0.30602691 -0.067989611 0)
(0.31488654 -0.048178855 0)
(0.32067136 -0.02794967 0)
(0.3233301 -0.0075034992 0)
(0.32284324 0.012955477 0)
(0.31922395 0.033222671 0)
(0.31251851 0.05309587 0)
(0.30280599 0.072378331 0)
(0.29019714 0.090881975 0)
(0.27483244 0.10843039 0)
(0.25687942 0.12486144 0)
(0.2365294 0.14002915 0)
(0.21399393 0.15380498 0)
(0.18950119 0.16607819 0)
(0.16329249 0.17675563 0)
(0.13561914 0.18576091 0)
(0.10673978 0.19303323 0)
(0.076918162 0.1985261 0)
(0.046421456 0.20220599 0)
(0.015518948 0.20405125 0)
(-0.015518948 0.20405125 0)
(-0.046421456 0.20220599 0)
(-0.076918162 0.1985261 0)
(-0.10673978 0.19303323 0)
(-0.13561914 0.18576091 0)
(-0.16329249 0.17675563 0)
(-0.18950119 0.16607819 0)
(-0.21399393 0.15380498 0)
(-0.2365294 0.14002915 0)
(-0.25687942 0.12486144 0)
(-0.27483244 0.10843039 0)
(-0.29019714 0.090881975 0)
(-0.30280599 0.072378331 0)
(-0.31251851 0.05309587 0)
(-0.31922395 0.033222671 0)
(-0.32284324 0.012955477 0)
(-0.3233301 -0.0075034992 0)
(-0.32067136 -0.02794967 0)
(-0.31488654 -0.048178855 0)
(-0.30602691 -0.067989611 0)
(-0.29417423 -0.087185081 0)
(-0.27943937 -0.10557443 0)
(-0.26196098 -0.12297404 0)
(-0.24190417 -0.13920858 0)
(-0.21945932 -0.15411223 0)
(-0.19484083 -0.16753012 0)
(-0.16828572 -0.17932001 0)
(-0.140052 -0.18935428 0)
(-0.11041658 -0.19752209 0)
(-0.079672748 -0.20373149 0)
(-0.048127196 -0.2079115 0)
(-0.01609653 -0.21001376 0)
(0.01771698 -0.2435838 0)
(0.052971919 -0.24114283 0)
(0.087692144 -0.23628973 0)
(0.1215289 -0.22908135 0)
(0.15414466 -0.21960101 0)
(0.18521696 -0.20795633 0)
(0.21444169 -0.19427673 0)
(0.24153573 -0.1787107 0)
(0.26623904 -0.16142324 0)
(0.28831628 -0.1425935 0)
(0.30755814 -0.12241284 0)
(0.32378251 -0.10108338 0)
(0.33683574 -0.07881686 0)
(0.34659412 -0.05583362 0)
(0.35296552 -0.032361579 0)
(0.35589128 -0.0086347543 0)
(0.35534794 0.015108788 0)
(0.35134869 0.038629727 0)
(0.34394413 0.061690951 0)
(0.33322217 0.084061527 0)
(0.31930679 0.10552082 0)
(0.3023557 0.12586242 0)
(0.28255709 0.1448974 0)
(0.26012554 0.16245682 0)
(0.2352977 0.17839305 0)
(0.20832782 0.19258018 0)
(0.17948358 0.20491345 0)
(0.14904247 0.21530795 0)
(0.11728867 0.22369697 0)
(0.084510751 0.23003006 0)
(0.050999937 0.23427124 0)
(0.017048914 0.23639744 0)
(-0.017048914 0.23639744 0)
(-0.050999937 0.23427124 0)
(-0.084510751 0.23003006 0)
(-0.11728867 0.22369697 0)
(-0.14904247 0.21530795 0)
(-0.17948358 0.20491345 0)
(-0.20832782 0.19258018 0)
(-0.2352977 0.17839305 0)
(-0.26012554 0.16245682 0)
(-0.28255709 0.1448974 0)
(-0.3023557 0.12586242 0)
(-0.31930679 0.10552082 0)
(-0.33322217 0.084061527 0)
(-0.34394413 0.061690951 0)
(-0.35134869 0.038629727 0)
(-0.35534794 0.015108788 0)
(-0.35589128 -0.0086347543 0)
(-0.35296552 -0.032361579 0)
(-0.34659412 -0.05583362 0)
(-0.33683574 -0.07881686 0)
(-0.32378251 -0.10108338 0)
(-0.30755814 -0.12241284 0)
(-0.28831628 -0.1425935 0)
(-0.26623904 -0.16142324 0)
(-0.24153573 -0.1787107 0)
(-0.21444169 -0.19427673 0)
(-0.18521696 -0.20795633 0)
(-0.15414466 -0.21960101 0)
(-0.1215289 -0.22908135 0)
(-0.087692144 -0.23628973 0)
(-0.052971919 -0.24114283 0)
(-0.01771698 -0.2435838 0)
(0.019673875 -0.28069569 0)
(0.05882257 -0.27787978 0)
(0.097376795 -0.27228173 0)
(0.1349491 -0.26396807 0)
(0.17116487 -0.2530361 0)
(0.20566664 -0.23961113 0)
(0.23811768 -0.22384336 0)
(0.26820479 -0.20590447 0)
(0.29564039 -0.18598449 0)
(0.32016404 -0.16428899 0)
(0.34154356 -0.14103702 0)
(0.35957621 -0.11645957 0)
(0.37408986 -0.09079865 0)
(0.38494478 -0.06430663 0)
(0.39203565 -0.037245407 0)
(0.39529405 -0.0098850689 0)
(0.39469097 0.017498347 0)
(0.39023893 0.044626178 0)
(0.38199331 0.071221487 0)
(0.37005251 0.097014168 0)
(0.35455655 0.12174633 0)
(0.33568434 0.14517737 0)
(0.3136495 0.16708827 0)
(0.28869537 0.18728462 0)
(0.2610895 0.2055982 0)
(0.2311182 0.22188726 0)
(0.19908144 0.23603543 0)
(0.16528854 0.24794983 0)
(0.13005472 0.25755857 0)
(0.093698509 0.26480817 0)
(0.056540066 0.26966096 0)
(0.018900184 0.27209313 0)
(-0.018900184 0.27209313 0)
(-0.056540066 0.26966096 0)
(-0.093698509 0.26480817 0)
(-0.13005472 0.25755857 0)
(-0.16528854 0.24794983 0)
(-0.19908144 0.23603543 0)
(-0.2311182 0.22188726 0)
(-0.2610895 0.2055982 0)
(-0.28869537 0.18728462 0)
(-0.3136495 0.16708827 0)
(-0.33568434 0.14517737 0)
(-0.35455655 0.12174633 0)
(-0.37005251 0.097014168 0)
(-0.38199331 0.071221487 0)
(-0.39023893 0.044626178 0)
(-0.39469097 0.017498347 0)
(-0.39529405 -0.0098850689 0)
(-0.39203565 -0.037245407 0)
(-0.38494478 -0.06430663 0)
(-0.37408986 -0.09079865 0)
(-0.35957621 -0.11645957 0)
(-0.34154356 -0.14103702 0)
(-0.32016404 -0.16428899 0)
(-0.29564039 -0.18598449 0)
(-0.26820479 -0.20590447 0)
(-0.23811768 -0.22384336 0)
(-0.20566664 -0.23961113 0)
(-0.17116487 -0.2530361 0)
(-0.1349491 -0.26396807 0)
(-0.097376795 -0.27228173 0)
(-0.05882257 -0.27787978 0)
(-0.019673875 -0.28069569 0)
(0.022021938 -0.32207263 0)
(0.065842752 -0.31883822 0)
(0.10899751 -0.3124089 0)
(0.15105244 -0.30286231 0)
(0.19158862 -0.29031175 0)
(0.23020681 -0.27490271 0)
(0.26653143 -0.25680887 0)
(0.30021353 -0.23622788 0)
(0.33093279 -0.21337745 0)
(0.35839889 -0.18849216 0)
(0.38235237 -0.16182105 0)
(0.40256559 -0.1336263 0)
(0.41884395 -0.10418263 0)
(0.43102783 -0.073777191 0)
(0.43899524 -0.042709234 0)
(0.44266507 -0.011289067 0)
(0.44200066 0.020164313 0)
(0.43701284 0.051327174 0)
(0.42776215 0.081876543 0)
(0.41435928 0.11149683 0)
(0.39696367 0.13988689 0)
(0.37578005 0.16676671 0)
(0.35105328 0.19188295 0)
(0.32306196 0.21501273 0)
(0.2921115 0.23596549 0)
(0.25852729 0.2545829 0)
(0.22264855 0.27073719 0)
(0.18482313 0.28432825 0)
(0.14540359 0.29528016 0)
(0.1047444 0.30353753 0)
(0.063200329 0.30906215 0)
(0.021125702 0.31183016 0)
(-0.021125702 0.31183016 0)
(-0.063200329 0.30906215 0)
(-0.1047444 0.30353753 0)
(-0.14540359 0.29528016 0)
(-0.18482313 0.28432825 0)
(-0.22264855 0.27073719 0)
(-0.25852729 0.2545829 0)
(-0.2921115 0.23596549 0)
(-0.32306196 0.21501273 0)
(-0.35105328 0.19188295 0)
(-0.37578005 0.16676671 0)
(-0.39696367 0.13988689 0)
(-0.41435928 0.11149683 0)
(-0.42776215 0.081876543 0)
(-0.43701284 0.051327174 0)
(-0.44200066 0.020164313 0)
(-0.44266507 -0.011289067 0)
(-0.43899524 -0.042709234 0)
(-0.43102783 -0.073777191 0)
(-0.41884395 -0.10418263 0)
(-0.40256559 -0.1336263 0)
(-0.38235237 -0.16182105 0)
(-0.35839889 -0.18849216 0)
(-0.33093279 -0.21337745 0)
(-0.30021353 -0.23622788 0)
(-0.26653143 -0.25680887 0)
(-0.23020681 -0.27490271 0)
(-0.19158862 -0.29031175 0)
(-0.15105244 -0.30286231 0)
(-0.10899751 -0.3124089 0)
(-0.065842752 -0.31883822 0)
(-0.022021938 -0.32207263 0)
(0.024819569 -0.36855201 0)
(0.074207055 -0.36484707 0)
(0.12284325 -0.35748334 0)
(0.1702393 -0.34655137 0)
(0.21592361 -0.332183 0)
(0.25944746 -0.31454691 0)
(0.30038932 -0.29384352 0)
(0.33835803 -0.2702998 0)
(0.37299471 -0.24416436 0)
(0.40397379 -0.21570366 0)
(0.43100353 -0.18519941 0)
(0.45382662 -0.15294745 0)
(0.47222134 -0.11925781 0)
(0.4860037 -0.084455465 0)
(0.49503084 -0.04888083 0)
(0.49920537 -0.012889302 0)
(0.49848022 0.023151136 0)
(0.49286318 0.058864611 0)
(0.48242013 0.093874334 0)
(0.46727611 0.12781127 0)
(0.44761382 0.16032349 0)
(0.42366934 0.19108498 0)
(0.39572554 0.21980286 0)
(0.36410395 0.24622217 0)
(0.32915597 0.27012792 0)
(0.29125433 0.29134456 0)
(0.25078552 0.30973328 0)
(0.20814363 0.32518789 0)
(0.16372581 0.33762992 0)
(0.11792932 0.34700365 0)
(0.071150042 0.35327161 0)
(0.023782037 0.35641098 0)
(-0.023782037 0.35641098 0)
(-0.071150042 0.35327161 0)
(-0.11792932 0.34700365 0)
(-0.16372581 0.33762992 0)
(-0.20814363 0.32518789 0)
(-0.25078552 0.30973328 0)
(-0.29125433 0.29134456 0)
(-0.32915597 0.27012792 0)
(-0.36410395 0.24622217 0)
(-0.39572554 0.21980286 0)
(-0.42366934 0.19108498 0)
(-0.44761382 0.16032349 0)
(-0.46727611 0.12781127 0)
(-0.48242013 0.093874334 0)
(-0.49286318 0.058864611 0)
(-0.49848022 0.023151136 0)
(-0.49920537 -0.012889302 0)
(-0.49503084 -0.04888083 0)
(-0.4860037 -0.084455464 0)
(-0.47222134 -0.11925781 0)
(-0.45382662 -0.15294745 0)
(-0.43100353 -0.18519941 0)
(-0.40397379 -0.21570366 0)
(-0.37299471 -0.24416436 0)
(-0.33835803 -0.2702998 0)
(-0.30038932 -0.29384352 0)
(-0.25944746 -0.31454691 0)
(-0.21592361 -0.332183 0)
(-0.1702393 -0.34655137 0)
(-0.12284325 -0.35748334 0)
(-0.074207055 -0.36484707 0)
(-0.024819569 -0.36855201 0)
(0.028125144 -0.42108998 0)
(0.084089988 -0.41685275 0)
(0.1392028 -0.40843221 0)
(0.19290968 -0.39593405 0)
(0.24467698 -0.3795117 0)
(0.29399769 -0.35936069 0)
(0.34039643 -0.33571227 0)
(0.38343263 -0.30882668 0)
(0.42270238 -0.27898723 0)
(0.45783898 -0.24649563 0)
(0.48851292 -0.21166918 0)
(0.51443194 -0.17484006 0)
(0.535342 -0.13635632 0)
(0.55102965 -0.096583975 0)
(0.56132625 -0.055908854 0)
(0.56611376 -0.014737059 0)
(0.56533134 0.026507235 0)
(0.55898181 0.067387358 0)
(0.54713642 0.10746305 0)
(0.52993676 0.14630187 0)
(0.50759317 0.18349167 0)
(0.48037942 0.21865225 0)
(0.44862425 0.25144481 0)
(0.41270098 0.28157796 0)
(0.37301635 0.30880994 0)
(0.32999982 0.33294738 0)
(0.28409428 0.35384116 0)
(0.23574872 0.37138055 0)
(0.18541307 0.38548647 0)
(0.1335351 0.39610484 0)
(0.080559121 0.40320065 0)
(0.026925962 0.4067533 0)
(-0.026925962 0.4067533 0)
(-0.080559121 0.40320065 0)
(-0.1335351 0.39610484 0)
(-0.18541307 0.38548647 0)
(-0.23574872 0.37138055 0)
(-0.28409428 0.35384116 0)
(-0.32999982 0.33294738 0)
(-0.37301635 0.30880994 0)
(-0.41270098 0.28157796 0)
(-0.44862425 0.25144481 0)
(-0.48037942 0.21865225 0)
(-0.50759317 0.18349167 0)
(-0.52993676 0.14630187 0)
(-0.54713642 0.10746305 0)
(-0.55898181 0.067387358 0)
(-0.56533134 0.026507235 0)
(-0.56611376 -0.014737059 0)
(-0.56132625 -0.055908854 0)
(-0.55102965 -0.096583975 0)
(-0.535342 -0.13635632 0)
(-0.51443194 -0.17484006 0)
(-0.48851292 -0.21166918 0)
(-0.45783898 -0.24649563 0)
(-0.42270238 -0.27898723 0)
(-0.38343263 -0.30882668 0)
(-0.34039643 -0.33571227 0)
(-0.29399769 -0.35936069 0)
(-0.24467698 -0.3795117 0)
(-0.19290968 -0.39593405 0)
(-0.1392028 -0.40843221 0)
(-0.084089988 -0.41685275 0)
(-0.028125144 -0.42108998 0)
(0.031991094 -0.48075681 0)
(0.095648262 -0.47591454 0)
(0.15833546 -0.4662931 0)
(0.21942268 -0.452016 0)
(0.27830378 -0.43326195 0)
(0.33440387 -0.41025786 0)
(0.38718489 -0.38327058 0)
(0.43614908 -0.35259854 0)
(0.48084051 -0.31856419 0)
(0.52084507 -0.28150838 0)
(0.55578963 -0.24178725 0)
(0.58534137 -0.19977211 0)
(0.60920832 -0.15585181 0)
(0.62714194 -0.11043673 0)
(0.63894228 -0.063962657 0)
(0.64446552 -0.016892794 0)
(0.64363296 0.030284011 0)
(0.63643998 0.077059813 0)
(0.62296289 0.122919 0)
(0.60336213 0.16735342 0)
(0.57788053 0.20987897 0)
(0.54683664 0.25005125 0)
(0.51061395 0.28747778 0)
(0.46964753 0.32182563 0)
(0.42440988 0.35282369 0)
(0.37539759 0.38026031 0)
(0.32311999 0.40397719 0)
(0.2680905 0.42386111 0)
(0.21082081 0.43983484 0)
(0.15181769 0.45184835 0)
(0.091581951 0.45987113 0)
(0.03060908 0.46388625 0)
(-0.03060908 0.46388625 0)
(-0.091581951 0.45987113 0)
(-0.15181769 0.45184835 0)
(-0.21082081 0.43983484 0)
(-0.2680905 0.42386111 0)
(-0.32311999 0.40397719 0)
(-0.37539759 0.38026031 0)
(-0.42440988 0.35282369 0)
(-0.46964753 0.32182563 0)
(-0.51061395 0.28747778 0)
(-0.54683664 0.25005125 0)
(-0.57788053 0.20987897 0)
(-0.60336213 0.16735342 0)
(-0.62296289 0.122919 0)
(-0.63643998 0.077059813 0)
(-0.64363296 0.030284011 0)
(-0.64446552 -0.016892794 0)
(-0.63894228 -0.063962657 0)
(-0.62714194 -0.11043673 0)
(-0.60920832 -0.15585181 0)
(-0.58534137 -0.19977211 0)
(-0.55578963 -0.24178725 0)
(-0.52084507 -0.28150838 0)
(-0.48084051 -0.31856419 0)
(-0.43614908 -0.35259854 0)
(-0.38718489 -0.38327058 0)
(-0.33440387 -0.41025786 0)
(-0.27830378 -0.43326195 0)
(-0.21942268 -0.452016 0)
(-0.15833546 -0.4662931 0)
(-0.095648262 -0.47591454 0)
(-0.031991094 -0.48075681 0)
(0.036455216 -0.54871779 0)
(0.10899485 -0.54318573 0)
(0.18042809 -0.53219555 0)
(0.25003698 -0.51589176 0)
(0.31713167 -0.49448285 0)
(0.38105906 -0.46823244 0)
(0.4412091 -0.43744884 0)
(0.49701854 -0.40247444 0)
(0.54797215 -0.36367614 0)
(0.5936019 -0.32143845 0)
(0.6334851 -0.27615995 0)
(0.66724267 -0.22825398 0)
(0.69453896 -0.17815288 0)
(0.71508442 -0.12631469 0)
(0.72864179 -0.07322994 0)
(0.73503576 -0.019425974 0)
(0.73416493 0.034533874 0)
(0.72601409 0.088057894 0)
(0.71066394 0.14054071 0)
(0.68829597 0.19138334 0)
(0.65919063 0.24001549 0)
(0.62371899 0.2859163 0)
(0.5823289 0.32863044 0)
(0.53552791 0.36777751 0)
(0.48386548 0.40305428 0)
(0.42791637 0.43423059 0)
(0.36826697 0.46114053 0)
(0.3055052 0.48367106 0)
(0.24021403 0.50174979 0)
(0.17296827 0.51533354 0)
(0.10433405 0.52439865 0)
(0.034870026 0.52893349 0)
(-0.034870026 0.52893349 0)
(-0.10433405 0.52439865 0)
(-0.17296827 0.51533354 0)
(-0.24021403 0.50174979 0)
(-0.3055052 0.48367106 0)
(-0.36826697 0.46114053 0)
(-0.42791637 0.43423059 0)
(-0.48386548 0.40305428 0)
(-0.53552791 0.36777751 0)
(-0.5823289 0.32863044 0)
(-0.62371899 0.2859163 0)
(-0.65919063 0.24001549 0)
(-0.68829597 0.19138334 0)
(-0.71066394 0.14054071 0)
(-0.72601409 0.088057894 0)
(-0.73416493 0.034533874 0)
(-0.73503576 -0.019425974 0)
(-0.72864179 -0.07322994 0)
(-0.71508442 -0.12631469 0)
(-0.69453896 -0.17815288 0)
(-0.66724267 -0.22825398 0)
(-0.6334851 -0.27615995 0)
(-0.5936019 -0.32143845 0)
(-0.54797215 -0.36367614 0)
(-0.49701854 -0.40247444 0)
(-0.4412091 -0.43744884 0)
(-0.38105906 -0.46823244 0)
(-0.31713167 -0.49448285 0)
(-0.25003698 -0.51589176 0)
(-0.18042809 -0.53219555 0)
(-0.10899485 -0.54318573 0)
(-0.036455216 -0.54871779 0)
(0.041528801 -0.62619391 0)
(0.12416347 -0.61987465 0)
(0.20553642 -0.60732286 0)
(0.28482959 -0.58870777 0)
(0.36125796 -0.56427292 0)
(0.43407958 -0.53432499 0)
(0.50260292 -0.49922064 0)
(0.56619082 -0.45935307 0)
(0.62426142 -0.41513993 0)
(0.67628643 -0.3670146 0)
(0.72178789 -0.31542214 0)
(0.760335 -0.26082091 0)
(0.79154298 -0.20368931 0)
(0.8150755 -0.14453613 0)
(0.83065192 -0.083911383 0)
(0.83805933 -0.022414085 0)
(0.83716819 0.039306867 0)
(0.82794885 0.10056139 0)
(0.81048517 0.16063712 0)
(0.78498156 0.21882607 0)
(0.7517613 0.27445452 0)
(0.71125586 0.32691064 0)
(0.66398733 0.37566547 0)
(0.61054674 0.42028448 0)
(0.55157178 0.46042943 0)
(0.48772647 0.49585174 0)
(0.41968487 0.52638003 0)
(0.34811943 0.55190459 0)
(0.27369401 0.57236132 0)
(0.19706084 0.58771709 0)
(0.11886048 0.5979576 0)
(0.039723941 0.60307826 0)