/*--------------------------------*- C++ -*----------------------------------*\
| =========                 |                                                 |
| \\      /  F ield         | OpenFOAM: The Open Source CFD Toolbox           |
|  \\    /   O peration     | Version:  2106                                  |
|   \\  /    A nd           | Website:  www.openfoam.com                      |
|    \\/     M anipulation  |                                                 |
\*---------------------------------------------------------------------------*/
FoamFile
{
    version     2.0;
    format      ascii;
    arch        "LSB;label=32;scalar=64";
    class       surfaceScalarField;
    location    "0.23";
    object      phi;
}
// * * * * * * * * * * * * * * * * * * * * * * * * * * * * * * * * * * * * * //

dimensions      [0 3 -1 0 0 0 0];

oriented        oriented;

internalField   nonuniform List<scalar> 
65152
(
3.1338714e-09
-3.1338714e-09
2.7493625e-08
-2.4359754e-08
6.234109e-08
-3.4847465e-08
1.0281709e-07
-4.0475997e-08
1.4578708e-07
-4.2969996e-08
1.8989615e-07
-4.4109061e-08
2.3447373e-07
-4.4577586e-08
2.7918431e-07
-4.4710578e-08
3.2393214e-07
-4.4747828e-08
3.6861169e-07
-4.4679555e-08
4.1314954e-07
-4.4537844e-08
4.5746498e-07
-4.4315441e-08
5.015738e-07
-4.4108825e-08
5.454203e-07
-4.3846502e-08
5.8894228e-07
-4.3521973e-08
6.3259954e-07
-4.3657267e-08
6.7499703e-07
-4.239748e-08
7.1950105e-07
-4.4504021e-08
7.6000136e-07
-4.0500311e-08
8.054361e-07
-4.5434738e-08
8.4585358e-07
-4.0417487e-08
8.8885552e-07
-4.3001938e-08
9.3287997e-07
-4.4024453e-08
9.7289652e-07
-4.0016542e-08
1.0165427e-06
-4.3646173e-08
1.0595987e-06
-4.3056033e-08
1.1007794e-06
-4.1180658e-08
1.1435382e-06
-4.2758843e-08
1.1864578e-06
-4.2919603e-08
1.2289763e-06
-4.2518519e-08
1.2714175e-06
-4.2441147e-08
1.3141013e-06
-4.2683825e-08
1.356264e-06
-4.2162667e-08
1.400399e-06
-4.4135044e-08
1.4429453e-06
-4.2546313e-08
1.4849392e-06
-4.1993848e-08
1.5278729e-06
-4.2933746e-08
1.5716279e-06
-4.3754985e-08
1.6147701e-06
-4.314213e-08
1.6574877e-06
-4.271765e-08
1.6997034e-06
-4.2215699e-08
1.742206e-06
-4.2502649e-08
1.7860219e-06
-4.381582e-08
1.8290829e-06
-4.3061024e-08
1.8718379e-06
-4.2755003e-08
1.9129318e-06
-4.1093873e-08
1.9554878e-06
-4.2555993e-08
1.9983675e-06
-4.2879726e-08
2.0396907e-06
-4.1323165e-08
2.083178e-06
-4.3487349e-08
2.1250521e-06
-4.1874137e-08
2.1648163e-06
-3.976418e-08
2.2056556e-06
-4.0839243e-08
2.2471709e-06
-4.1515298e-08
2.2889147e-06
-4.1743804e-08
2.3301406e-06
-4.1225905e-08
2.3704183e-06
-4.0277706e-08
2.4099573e-06
-3.9539051e-08
2.4491363e-06
-3.9178973e-08
2.4879975e-06
-3.8861184e-08
2.5275089e-06
-3.9511433e-08
2.5686123e-06
-4.1103353e-08
2.608351e-06
-3.9738757e-08
2.6455578e-06
-3.7206812e-08
2.6828978e-06
-3.7339975e-08
2.7207385e-06
-3.7840691e-08
2.7589818e-06
-3.8243334e-08
2.796951e-06
-3.7969132e-08
2.8336112e-06
-3.6660222e-08
2.8707692e-06
-3.7157997e-08
2.909097e-06
-3.8327822e-08
2.9462891e-06
-3.7192049e-08
2.9812876e-06
-3.4998573e-08
3.0158909e-06
-3.4603261e-08
3.0512248e-06
-3.5333932e-08
3.087738e-06
-3.6513165e-08
3.124387e-06
-3.6649022e-08
3.1598197e-06
-3.5432715e-08
3.1950565e-06
-3.5236727e-08
3.2300657e-06
-3.5009258e-08
3.2639298e-06
-3.3864105e-08
3.2980378e-06
-3.4107934e-08
3.3324125e-06
-3.437478e-08
3.3657439e-06
-3.3331343e-08
3.3996415e-06
-3.3897669e-08
3.4350313e-06
-3.5389741e-08
3.4696742e-06
-3.4642944e-08
3.5025787e-06
-3.290442e-08
3.5358785e-06
-3.3299841e-08
3.5689133e-06
-3.3034827e-08
3.6011478e-06
-3.2234477e-08
3.6347206e-06
-3.3572832e-08
3.6690781e-06
-3.4357436e-08
3.7020614e-06
-3.2983367e-08
3.7329728e-06
-3.0911328e-08
3.7644182e-06
-3.1445472e-08
3.7983849e-06
-3.3966693e-08
3.8321748e-06
-3.3789841e-08
3.8646708e-06
-3.2496042e-08
3.8971611e-06
-3.2490305e-08
3.9288322e-06
-3.1671101e-08
3.9592591e-06
-3.0426848e-08
3.9910418e-06
-3.1782702e-08
4.0239448e-06
-3.2903026e-08
4.0559167e-06
-3.1971901e-08
4.087156e-06
-3.1239301e-08
4.1179691e-06
-3.0813112e-08
4.1483723e-06
-3.040322e-08
4.1797614e-06
-3.1389108e-08
4.2122514e-06
-3.248999e-08
4.2447099e-06
-3.2458493e-08
4.2767307e-06
-3.2020801e-08
4.3072308e-06
-3.0500105e-08
4.3360357e-06
-2.8804875e-08
4.3654952e-06
-2.9459513e-08
4.3959186e-06
-3.0423422e-08
4.4261733e-06
-3.025468e-08
4.4569978e-06
-3.0824528e-08
4.4887862e-06
-3.1788405e-08
4.5194428e-06
-3.0656537e-08
4.5482547e-06
-2.8811887e-08
4.5776737e-06
-2.9419016e-08
4.6078632e-06
-3.0189491e-08
4.6374669e-06
-2.9603715e-08
4.6673034e-06
-2.9836518e-08
4.6978617e-06
-3.055825e-08
4.7272197e-06
-2.9358068e-08
4.7555437e-06
-2.8323949e-08
4.7839132e-06
-2.8369555e-08
4.8123202e-06
-2.8406929e-08
4.8408923e-06
-2.8572122e-08
4.8702754e-06
-2.9383159e-08
4.8996715e-06
-2.9396017e-08
4.9278036e-06
-2.8132182e-08
4.9554785e-06
-2.7674837e-08
4.983893e-06
-2.841453e-08
5.0120917e-06
-2.8198735e-08
5.0401154e-06
-2.8023609e-08
5.0693033e-06
-2.9187922e-08
5.0985631e-06
-2.9259832e-08
5.1261151e-06
-2.7552042e-08
5.1521307e-06
-2.6015603e-08
5.1784498e-06
-2.6319098e-08
5.2051352e-06
-2.6685321e-08
5.2312123e-06
-2.6077174e-08
5.2578413e-06
-2.6628959e-08
5.2855984e-06
-2.7757101e-08
5.3137431e-06
-2.8144681e-08
5.3410878e-06
-2.7344688e-08
5.3681675e-06
-2.7079729e-08
5.3949534e-06
-2.6785889e-08
5.4204219e-06
-2.5468531e-08
5.4456086e-06
-2.5186649e-08
5.4713011e-06
-2.5692546e-08
5.4977325e-06
-2.6431428e-08
5.5251303e-06
-2.7397788e-08
5.5522319e-06
-2.7101546e-08
5.5786283e-06
-2.6396415e-08
5.6040676e-06
-2.5439348e-08
5.6284777e-06
-2.4410085e-08
5.6524959e-06
-2.4018221e-08
5.6767968e-06
-2.4300817e-08
5.7016726e-06
-2.4875851e-08
5.7278154e-06
-2.6142741e-08
5.7545912e-06
-2.6775865e-08
5.7811242e-06
-2.6532948e-08
5.8072891e-06
-2.6164959e-08
5.8323258e-06
-2.5036687e-08
5.856049e-06
-2.3723158e-08
5.8792491e-06
-2.3200078e-08
5.9029887e-06
-2.3739682e-08
5.9281001e-06
-2.5111352e-08
5.9540111e-06
-2.5911058e-08
5.9800596e-06
-2.6048439e-08
6.0061173e-06
-2.6057722e-08
6.0316855e-06
-2.5568172e-08
6.0563183e-06
-2.4632776e-08
6.0799369e-06
-2.3618667e-08
6.102674e-06
-2.2737094e-08
6.125652e-06
-2.2978028e-08
6.1491007e-06
-2.3448651e-08
6.1727413e-06
-2.3640585e-08
6.1967159e-06
-2.3974578e-08
6.220586e-06
-2.3870121e-08
6.243997e-06
-2.3410996e-08
6.2675851e-06
-2.3588175e-08
6.2915439e-06
-2.3958747e-08
6.3153314e-06
-2.3787545e-08
6.338948e-06
-2.36166e-08
6.3625414e-06
-2.3593338e-08
6.3863378e-06
-2.3796416e-08
6.410035e-06
-2.3697166e-08
6.4332076e-06
-2.3172687e-08
6.4559982e-06
-2.2790554e-08
6.4787318e-06
-2.2733567e-08
6.5012679e-06
-2.2536119e-08
6.5234538e-06
-2.2185899e-08
6.5454007e-06
-2.194692e-08
6.567043e-06
-2.1642319e-08
6.5887566e-06
-2.1713557e-08
6.6110744e-06
-2.2317862e-08
6.6342521e-06
-2.3177631e-08
6.6576376e-06
-2.3385524e-08
6.6805621e-06
-2.292453e-08
6.7026615e-06
-2.2099328e-08
6.7227042e-06
-2.0042694e-08
6.7416171e-06
-1.8912942e-08
6.7594479e-06
-1.7830783e-08
6.7785009e-06
-1.9053058e-08
6.7979917e-06
-1.9490745e-08
6.8179204e-06
-1.9928765e-08
6.8372323e-06
-1.9311859e-08
6.8535456e-06
-1.6313267e-08
6.8690499e-06
-1.5504333e-08
6.8818623e-06
-1.281243e-08
6.8926793e-06
-1.0817006e-08
6.9010241e-06
-8.3447227e-09
6.9061952e-06
-5.1711514e-09
6.9096055e-06
-3.4103271e-09
6.9100026e-06
-3.971057e-10
6.9090906e-06
9.1201555e-10
6.9040441e-06
5.0464907e-09
6.8945695e-06
9.4746243e-09
6.8778047e-06
1.6764798e-08
6.8544605e-06
2.3344216e-08
6.8203766e-06
3.408393e-08
6.7770596e-06
4.3316955e-08
6.7184543e-06
5.860528e-08
6.6478814e-06
7.0572942e-08
6.5574045e-06
9.0476889e-08
6.4445803e-06
1.1282422e-07
6.3051472e-06
1.3943307e-07
6.1368181e-06
1.6832913e-07
5.9299005e-06
2.0691758e-07
5.6793944e-06
2.5050612e-07
5.3801499e-06
2.9924446e-07
5.0209765e-06
3.5917348e-07
4.5935852e-06
4.2739122e-07
4.093735e-06
4.9985028e-07
3.5040453e-06
5.8968968e-07
2.8289613e-06
6.7508393e-07
2.065919e-06
7.6304236e-07
1.2430933e-06
8.2282565e-07
4.2432067e-07
8.1877266e-07
-3.0559627e-07
7.2991695e-07
-8.6981118e-07
5.642149e-07
-1.2585393e-06
3.8872816e-07
-1.4951072e-06
2.3656785e-07
-1.7801197e-06
2.850125e-07
-2.2311436e-06
4.5102387e-07
-2.7392491e-06
5.0810552e-07
-3.1550627e-06
4.1581367e-07
-3.1799731e-06
2.4910352e-08
-2.5257725e-06
-6.5420055e-07
-1.4768068e-06
-1.0489657e-06
-1.4768068e-06
3.4288343e-09
-6.5627057e-09
3.3420839e-08
-5.4351759e-08
7.5701516e-08
-7.7128142e-08
1.2313393e-07
-8.7908414e-08
1.7310405e-07
-9.2940113e-08
2.2416004e-07
-9.5165056e-08
2.7560449e-07
-9.6022034e-08
3.2707069e-07
-9.6176776e-08
3.7826188e-07
-9.5939021e-08
4.2903593e-07
-9.5453602e-08
4.7939999e-07
-9.4901901e-08
5.2944449e-07
-9.4359949e-08
5.7907946e-07
-9.3743793e-08
6.2853474e-07
-9.3301776e-08
6.7741126e-07
-9.2398492e-08
7.2673575e-07
-9.2981761e-08
7.744444e-07
-9.0106126e-08
8.2449197e-07
-9.4551591e-08
8.7036229e-07
-8.6370632e-08
9.213655e-07
-9.6437953e-08
9.6707194e-07
-8.6123927e-08
1.0155391e-06
-9.1469066e-08
1.0651192e-06
-9.3604562e-08
1.1104824e-06
-8.5379749e-08
1.1592033e-06
-9.2367119e-08
1.2081631e-06
-9.2015764e-08
1.255363e-06
-8.8380612e-08
1.3018345e-06
-8.9230337e-08
1.3508503e-06
-9.1935405e-08
1.4006521e-06
-9.2320326e-08
1.4465016e-06
-8.8290591e-08
1.4937877e-06
-8.9969978e-08
1.5429079e-06
-9.1282883e-08
1.5936458e-06
-9.487287e-08
1.6396603e-06
-8.8560863e-08
1.6866392e-06
-8.897272e-08
1.7352797e-06
-9.1574287e-08
1.7860469e-06
-9.4522132e-08
1.8348708e-06
-9.1966032e-08
1.8812434e-06
-8.9090251e-08
1.9276264e-06
-8.8598686e-08
1.9774851e-06
-9.236143e-08
2.0286162e-06
-9.494685e-08
2.0756537e-06
-9.0098509e-08
2.1226085e-06
-8.9709874e-08
2.1695383e-06
-8.802363e-08
2.2185731e-06
-9.1590823e-08
2.266331e-06
-9.063765e-08
2.3138992e-06
-8.8891314e-08
2.3642096e-06
-9.3797765e-08
2.4105161e-06
-8.8180681e-08
2.4539633e-06
-8.3211383e-08
2.5006551e-06
-8.753096e-08
2.5503977e-06
-9.125796e-08
2.5983375e-06
-8.9683612e-08
2.6438607e-06
-8.6749098e-08
2.6898808e-06
-8.6297734e-08
2.735424e-06
-8.5082329e-08
2.7790454e-06
-8.2800361e-08
2.8231889e-06
-8.3004698e-08
2.8708497e-06
-8.7172169e-08
2.9198306e-06
-9.0084253e-08
2.9642323e-06
-8.4140451e-08
3.0046936e-06
-7.7668109e-08
3.047224e-06
-7.9870426e-08
3.0933036e-06
-8.3920235e-08
3.1393336e-06
-8.4273353e-08
3.1812542e-06
-7.988976e-08
3.2222228e-06
-7.7628799e-08
3.2675889e-06
-8.252407e-08
3.3142356e-06
-8.4974526e-08
3.3565917e-06
-7.9548173e-08
3.394706e-06
-7.3112862e-08
3.43429e-06
-7.418726e-08
3.4777447e-06
-7.878861e-08
3.5224018e-06
-8.1170295e-08
3.5648441e-06
-7.9091348e-08
3.6056307e-06
-7.6219354e-08
3.646477e-06
-7.6083032e-08
3.6879198e-06
-7.6452024e-08
3.7283828e-06
-7.4327093e-08
3.7678305e-06
-7.3555642e-08
3.8072666e-06
-7.3810919e-08
3.8474207e-06
-7.3485366e-08
3.8886461e-06
-7.5123089e-08
3.9302132e-06
-7.6956865e-08
3.9710391e-06
-7.546881e-08
4.010485e-06
-7.2350292e-08
4.0485256e-06
-7.1340442e-08
4.0860097e-06
-7.0518967e-08
4.1258217e-06
-7.2046438e-08
4.168024e-06
-7.577516e-08
4.2084045e-06
-7.4737985e-08
4.2453468e-06
-6.9925668e-08
4.2809037e-06
-6.6468166e-08
4.3191759e-06
-6.9717655e-08
4.360757e-06
-7.5547844e-08
4.4021949e-06
-7.522769e-08
4.4409212e-06
-7.1222406e-08
4.4774702e-06
-6.9039304e-08
4.5137239e-06
-6.7924739e-08
4.5512445e-06
-6.7947442e-08
4.5904748e-06
-7.1013093e-08
4.6298802e-06
-7.2308338e-08
4.6685126e-06
-7.0604335e-08
4.7053788e-06
-6.810556e-08
4.7402048e-06
-6.5639043e-08
4.7759357e-06
-6.6134182e-08
4.8147439e-06
-7.0197261e-08
4.8553326e-06
-7.3078737e-08
4.8950012e-06
-7.212702e-08
4.9324005e-06
-6.9420144e-08
4.9676752e-06
-6.5774819e-08
5.0021422e-06
-6.3271837e-08
5.0372266e-06
-6.4543912e-08
5.0737174e-06
-6.6914227e-08
5.1118663e-06
-6.8403554e-08
5.1503721e-06
-6.9330408e-08
5.1878196e-06
-6.9235845e-08
5.2237843e-06
-6.6621247e-08
5.2591651e-06
-6.4192712e-08
5.2944496e-06
-6.4703466e-08
5.3299342e-06
-6.5674112e-08
5.3669404e-06
-6.660992e-08
5.4049008e-06
-6.7796884e-08
5.4415129e-06
-6.7170429e-08
5.4763943e-06
-6.4239453e-08
5.5108315e-06
-6.2761106e-08
5.5451985e-06
-6.2736542e-08
5.5798168e-06
-6.3025296e-08
5.6154484e-06
-6.4203656e-08
5.6518315e-06
-6.5766265e-08
5.6870514e-06
-6.4615985e-08
5.7208346e-06
-6.1915354e-08
5.7543646e-06
-6.1204836e-08
5.7878919e-06
-6.1941851e-08
5.8225189e-06
-6.2825744e-08
5.8589925e-06
-6.4497186e-08
5.8958533e-06
-6.6048658e-08
5.9309844e-06
-6.4390998e-08
5.9648383e-06
-6.1405894e-08
5.9973356e-06
-5.851291e-08
6.0290278e-06
-5.8011359e-08
6.0609256e-06
-5.8583036e-08
6.0938509e-06
-5.9002529e-08
6.127657e-06
-6.0434996e-08
6.1618031e-06
-6.1903296e-08
6.1967442e-06
-6.3085728e-08
6.2322009e-06
-6.2801359e-08
6.2663965e-06
-6.1275341e-08
6.2986301e-06
-5.9019481e-08
6.329514e-06
-5.6352504e-08
6.3604535e-06
-5.6126142e-08
6.3931436e-06
-5.8382624e-08
6.4275666e-06
-6.0854427e-08
6.4623059e-06
-6.2137065e-08
6.496919e-06
-6.1714691e-08
6.5305472e-06
-6.0024597e-08
6.5618085e-06
-5.6700633e-08
6.591193e-06
-5.3794577e-08
6.6204452e-06
-5.3270463e-08
6.6506307e-06
-5.4486329e-08
6.681952e-06
-5.6197128e-08
6.7147923e-06
-5.898299e-08
6.7493789e-06
-6.1362476e-08
6.7842352e-06
-6.1389259e-08
6.8172609e-06
-5.919063e-08
6.8472245e-06
-5.5000368e-08
6.8757199e-06
-5.2218552e-08
6.9046496e-06
-5.2129776e-08
6.9343623e-06
-5.3452362e-08
6.9654982e-06
-5.6247245e-08
6.998769e-06
-5.9181836e-08
7.0325813e-06
-5.9860771e-08
7.06585e-06
-5.9326435e-08
7.098755e-06
-5.8473169e-08
7.1305478e-06
-5.6425593e-08
7.1603077e-06
-5.3378474e-08
7.1891227e-06
-5.1552158e-08
7.2187349e-06
-5.259016e-08
7.2492152e-06
-5.3929016e-08
7.2798998e-06
-5.4325205e-08
7.3101604e-06
-5.4235129e-08
7.3396364e-06
-5.3346113e-08
7.3692275e-06
-5.3002094e-08
7.3996415e-06
-5.4002181e-08
7.4298583e-06
-5.4175544e-08
7.4595444e-06
-5.347366e-08
7.4895866e-06
-5.3658781e-08
7.5203291e-06
-5.4335811e-08
7.5515506e-06
-5.5018009e-08
7.5826198e-06
-5.4766301e-08
7.6129263e-06
-5.347924e-08
7.6429164e-06
-5.2780591e-08
7.6732491e-06
-5.3066282e-08
7.7033147e-06
-5.2601694e-08
7.7320626e-06
-5.0933817e-08
7.7599639e-06
-4.9848277e-08
7.7879583e-06
-4.9636652e-08
7.8164623e-06
-5.021757e-08
7.8460765e-06
-5.193205e-08
7.8774313e-06
-5.4532468e-08
7.9105098e-06
-5.6464003e-08
7.9426353e-06
-5.5050004e-08
7.9727616e-06
-5.2225669e-08
7.9985816e-06
-4.5862717e-08
8.0234398e-06
-4.3771083e-08
8.0469839e-06
-4.1374928e-08
8.0727466e-06
-4.4815701e-08
8.0994069e-06
-4.6151051e-08
8.1282847e-06
-4.8806583e-08
8.1587051e-06
-4.9732304e-08
8.1898796e-06
-4.7487768e-08
8.2218897e-06
-4.7514389e-08
8.2527253e-06
-4.3648015e-08
8.2816696e-06
-3.9761351e-08
8.305378e-06
-3.2053068e-08
8.3224409e-06
-2.2234127e-08
8.3347834e-06
-1.5752757e-08
8.3438688e-06
-9.4825675e-09
8.3532204e-06
-8.439528e-09
8.3629461e-06
-4.6792867e-09
8.3729081e-06
-4.8731751e-10
8.3809529e-06
8.7200128e-09
8.3852233e-06
1.9073815e-08
8.3822714e-06
3.7035829e-08
8.3737661e-06
5.1822194e-08
8.3500023e-06
8.2369084e-08
8.3197587e-06
1.0081659e-07
8.2722598e-06
1.3797578e-07
8.2048575e-06
1.8022651e-07
8.1225801e-06
2.2171046e-07
8.0155833e-06
2.753259e-07
7.8730822e-06
3.4941875e-07
7.7081491e-06
4.1543924e-07
7.5001414e-06
5.0725215e-07
7.246528e-06
6.1278687e-07
6.9575758e-06
7.1634334e-07
6.6042788e-06
8.5314729e-07
6.2029999e-06
9.9096861e-07
5.7453951e-06
1.1326888e-06
5.2028757e-06
1.3055617e-06
4.5814338e-06
1.4442675e-06
3.8164947e-06
1.5837118e-06
2.8902111e-06
1.6562005e-06
1.8505839e-06
1.6038421e-06
7.5730767e-07
1.4820043e-06
-2.6888735e-07
1.2627629e-06
-1.0110895e-06
1.0272147e-06
-1.5212722e-06
9.612066e-07
-1.9621506e-06
9.4898383e-07
-2.2372499e-06
6.9091297e-07
-2.1423605e-06
-6.9979018e-08
-1.683065e-06
-1.1134961e-06
-8.5688555e-07
-1.8751451e-06
-2.3336924e-06
3.3728247e-09
-9.9355304e-09
3.30277e-08
-8.4006634e-08
7.4724259e-08
-1.188247e-07
1.2174231e-07
-1.3492646e-07
1.7122787e-07
-1.4242568e-07
2.2179363e-07
-1.4573081e-07
2.7273572e-07
-1.4696413e-07
3.2370591e-07
-1.4714696e-07
3.7454097e-07
-1.4677408e-07
4.2520453e-07
-1.4611716e-07
4.7561867e-07
-1.4531605e-07
5.2580974e-07
-1.4455101e-07
5.7565237e-07
-1.4358643e-07
6.2551745e-07
-1.4316685e-07
6.7471467e-07
-1.4159572e-07
7.2434299e-07
-1.4261008e-07
7.7305921e-07
-1.3882235e-07
8.220956e-07
-1.4358798e-07
8.7089591e-07
-1.3517095e-07
9.1931046e-07
-1.448525e-07
9.6774407e-07
-1.3455754e-07
1.0164836e-06
-1.4020857e-07
1.0643334e-06
-1.4145438e-07
1.1126e-06
-1.3364639e-07
1.1614872e-06
-1.4125432e-07
1.2089114e-06
-1.3943995e-07
1.2578122e-06
-1.3728144e-07
1.3054911e-06
-1.369092e-07
1.3540092e-06
-1.4045349e-07
1.4033382e-06
-1.4164935e-07
1.450211e-06
-1.3516334e-07
1.499137e-06
-1.3889599e-07
1.5480696e-06
-1.4021553e-07
1.5976673e-06
-1.4447053e-07
1.6442474e-06
-1.3514098e-07
1.6936384e-06
-1.3836368e-07
1.7422317e-06
-1.4016762e-07
1.7921937e-06
-1.4448414e-07
1.8410708e-06
-1.4084309e-07
1.8880467e-06
-1.3606616e-07
1.9356454e-06
-1.3619743e-07
1.986972e-06
-1.4368799e-07
2.0371442e-06
-1.4511911e-07
2.08352e-06
-1.3647424e-07
2.1300539e-06
-1.3624381e-07
2.178983e-06
-1.3695272e-07
2.2305138e-06
-1.4312165e-07
2.2774902e-06
-1.37614e-07
2.3239868e-06
-1.3538796e-07
2.3728335e-06
-1.4264446e-07
2.4207439e-06
-1.3609111e-07
2.4663119e-06
-1.2877934e-07
2.5137527e-06
-1.3497172e-07
2.5641249e-06
-1.4163021e-07
2.6110147e-06
-1.3657336e-07
2.6546362e-06
-1.3037064e-07
2.7008994e-06
-1.3256092e-07
2.7492919e-06
-1.3347483e-07
2.7946481e-06
-1.2815656e-07
2.8383222e-06
-1.2667877e-07
2.8856802e-06
-1.3453022e-07
2.9345942e-06
-1.3899823e-07
2.9789125e-06
-1.2845873e-07
3.0186731e-06
-1.1742876e-07
3.0608118e-06
-1.2200907e-07
3.1098479e-06
-1.3295637e-07
3.1591806e-06
-1.3360604e-07
3.1999078e-06
-1.2061696e-07
3.2384788e-06
-1.1619984e-07
3.2834452e-06
-1.2749048e-07
3.3315038e-06
-1.3303308e-07
3.3749721e-06
-1.2301649e-07
3.4125752e-06
-1.1071595e-07
3.4516608e-06
-1.1327287e-07
3.4976898e-06
-1.2481759e-07
3.5449968e-06
-1.2847728e-07
3.5868327e-06
-1.2092729e-07
3.625523e-06
-1.1490963e-07
3.6649195e-06
-1.1547952e-07
3.7069047e-06
-1.1843727e-07
3.7489849e-06
-1.1640728e-07
3.7896404e-06
-1.1421113e-07
3.8296598e-06
-1.1383031e-07
3.8704617e-06
-1.1428731e-07
3.9124534e-06
-1.1711479e-07
3.9542324e-06
-1.1873589e-07
3.9947154e-06
-1.1595173e-07
4.0342167e-06
-1.1185159e-07
4.0716676e-06
-1.0879137e-07
4.1087684e-06
-1.0761977e-07
4.1493202e-06
-1.1259821e-07
4.1927102e-06
-1.1916517e-07
4.2345616e-06
-1.1658939e-07
4.2721411e-06
-1.075052e-07
4.3074215e-06
-1.0174852e-07
4.3463653e-06
-1.0866148e-07
4.3889189e-06
-1.1810145e-07
4.430774e-06
-1.1708274e-07
4.468608e-06
-1.0905642e-07
4.5039943e-06
-1.0442563e-07
4.5394697e-06
-1.0340013e-07
4.5780343e-06
-1.0651208e-07
4.6187275e-06
-1.1170629e-07
4.659594e-06
-1.1317485e-07
4.700047e-06
-1.1105729e-07
4.7377412e-06
-1.057998e-07
4.7715509e-06
-9.9448718e-08
4.8066847e-06
-1.01268e-07
4.845731e-06
-1.0924357e-07
4.8869893e-06
-1.1433699e-07
4.9266268e-06
-1.117645e-07
4.9633764e-06
-1.0616973e-07
4.997917e-06
-1.0031544e-07
5.032695e-06
-9.8049907e-08
5.0683725e-06
-1.0022136e-07
5.10623e-06
-1.0477174e-07
5.1460701e-06
-1.0824362e-07
5.1860714e-06
-1.0933178e-07
5.2237099e-06
-1.0687434e-07
5.2595369e-06
-1.0244824e-07
5.2950111e-06
-9.9666843e-08
5.3297275e-06
-9.9419897e-08
5.3638303e-06
-9.9776897e-08
5.4005293e-06
-1.0330897e-07
5.4392331e-06
-1.0650066e-07
5.4764283e-06
-1.0436559e-07
5.5120116e-06
-9.982281e-08
5.5479667e-06
-9.8716174e-08
5.5832242e-06
-9.7994097e-08
5.6180215e-06
-9.7822583e-08
5.6539204e-06
-1.001025e-07
5.6911627e-06
-1.0300862e-07
5.7270468e-06
-1.005001e-07
5.7607216e-06
-9.5590073e-08
5.7939368e-06
-9.4420066e-08
5.8274067e-06
-9.5411711e-08
5.8623052e-06
-9.7724251e-08
5.8994324e-06
-1.0162443e-07
5.9367958e-06
-1.0341208e-07
5.9724934e-06
-1.0008862e-07
6.0069361e-06
-9.5848506e-08
6.0399024e-06
-9.14793e-08
6.0717001e-06
-8.980899e-08
6.104238e-06
-9.1120954e-08
6.138045e-06
-9.2809532e-08
6.1719322e-06
-9.4322227e-08
6.2057282e-06
-9.5699239e-08
6.2403016e-06
-9.7659119e-08
6.2763514e-06
-9.885116e-08
6.3112431e-06
-9.6167118e-08
6.343595e-06
-9.1371372e-08
6.3750227e-06
-8.7780215e-08
6.4065173e-06
-8.7620741e-08
6.43921e-06
-9.1075233e-08
6.4741329e-06
-9.5777395e-08
6.5096671e-06
-9.7671206e-08
6.5452428e-06
-9.7290424e-08
6.5793214e-06
-9.4103191e-08
6.6098715e-06
-8.7250744e-08
6.6385321e-06
-8.2455174e-08
6.6677704e-06
-8.2508781e-08
6.6969027e-06
-8.3618617e-08
6.7271306e-06
-8.6425039e-08
6.7606837e-06
-9.2536054e-08
6.7969192e-06
-9.7598041e-08
6.8330925e-06
-9.7562503e-08
6.8674383e-06
-9.3536403e-08
6.8995679e-06
-8.7130007e-08
6.9296967e-06
-8.2347301e-08
6.9583474e-06
-8.0780507e-08
6.9872586e-06
-8.2363584e-08
7.0182741e-06
-8.7262788e-08
7.0513517e-06
-9.2259371e-08
7.0843386e-06
-9.2847722e-08
7.1169705e-06
-9.1958338e-08
7.1501339e-06
-9.1636576e-08
7.182002e-06
-8.8293665e-08
7.210823e-06
-8.2199483e-08
7.2393446e-06
-8.0073709e-08
7.2698831e-06
-8.3128641e-08
7.3015951e-06
-8.5641023e-08
7.3338868e-06
-8.6616902e-08
7.3662803e-06
-8.6628677e-08
7.3975698e-06
-8.4635593e-08
7.4279102e-06
-8.3342459e-08
7.4583074e-06
-8.4399462e-08
7.4887986e-06
-8.4666719e-08
7.5183766e-06
-8.3051682e-08
7.5470489e-06
-8.2331045e-08
7.5765984e-06
-8.3885293e-08
7.6072583e-06
-8.567797e-08
7.6378875e-06
-8.53955e-08
7.6684862e-06
-8.4077902e-08
7.7000802e-06
-8.437464e-08
7.7322846e-06
-8.5270617e-08
7.7639663e-06
-8.4283385e-08
7.7941105e-06
-8.1078008e-08
7.8231939e-06
-7.8931756e-08
7.8516318e-06
-7.8074473e-08
7.8797774e-06
-7.8363196e-08
7.9086973e-06
-8.0851949e-08
7.9393085e-06
-8.5143702e-08
7.971998e-06
-8.915346e-08
8.0054731e-06
-8.8525169e-08
8.0380233e-06
-8.4775787e-08
8.0671999e-06
-7.503933e-08
8.0935681e-06
-7.0139326e-08
8.1184625e-06
-6.6269317e-08
8.1439453e-06
-7.0298465e-08
8.1696349e-06
-7.1840681e-08
8.1964508e-06
-7.5622497e-08
8.2246638e-06
-7.7945255e-08
8.2528621e-06
-7.5686085e-08
8.2842078e-06
-7.8860124e-08
8.3136613e-06
-7.3101449e-08
8.3452617e-06
-7.1361761e-08
8.3735397e-06
-6.0331088e-08
8.3978572e-06
-4.6551621e-08
8.4172417e-06
-3.5137267e-08
8.4336063e-06
-2.5847224e-08
8.4489253e-06
-2.3758458e-08
8.4632466e-06
-1.9000652e-08
8.475953e-06
-1.3193644e-08
8.4879672e-06
-3.2942477e-09
8.4956177e-06
1.142334e-08
8.4980331e-06
3.4620419e-08
8.4952939e-06
5.4561402e-08
8.481008e-06
9.6655033e-08
8.4580646e-06
1.2375999e-07
8.4245058e-06
1.7153453e-07
8.3782831e-06
2.2644922e-07
8.3275769e-06
2.7241667e-07
8.2461266e-06
3.5677621e-07
8.1541234e-06
4.4142189e-07
8.0361811e-06
5.3338152e-07
7.8781295e-06
6.6530383e-07
7.7046127e-06
7.8630361e-07
7.4883455e-06
9.3261055e-07
7.2334073e-06
1.1080855e-06
6.9682393e-06
1.2561367e-06
6.6425065e-06
1.4584216e-06
6.3017892e-06
1.646279e-06
5.9197268e-06
1.82633e-06
5.4560207e-06
2.0474179e-06
4.9369331e-06
2.1752881e-06
4.2665803e-06
2.274195e-06
3.472424e-06
2.2761606e-06
2.5029915e-06
2.2321954e-06
1.4272751e-06
2.1029311e-06
5.0516663e-07
1.8833151e-06
-1.2475884e-07
1.5789093e-06
-4.4995867e-07
1.0161128e-06
-6.0034033e-07
8.0402642e-08
-5.9974064e-07
-1.1140958e-06
-4.4250449e-07
-2.0323813e-06
-2.7761969e-06
3.668271e-09
-1.3603801e-08
3.3478232e-08
-1.138166e-07
7.5367134e-08
-1.607136e-07
1.2266503e-07
-1.8222436e-07
1.7239205e-07
-1.921527e-07
2.231556e-07
-1.9649436e-07
2.7426509e-07
-1.9807361e-07
3.2537647e-07
-1.9825834e-07
3.7633386e-07
-1.9773147e-07
4.2707294e-07
-1.9685625e-07
4.775499e-07
-1.95793e-07
5.2774485e-07
-1.9474596e-07
5.7766235e-07
-1.9350393e-07
6.2731271e-07
-1.9281721e-07
6.7673964e-07
-1.9102265e-07
7.2579276e-07
-1.916632e-07
7.7501165e-07
-1.8804124e-07
8.2317007e-07
-1.9174639e-07
8.7266949e-07
-1.8467037e-07
9.2006436e-07
-1.9224736e-07
9.6890655e-07
-1.8339974e-07
1.0175864e-06
-1.888884e-07
1.0645272e-06
-1.8839519e-07
1.1133322e-06
-1.8245135e-07
1.1623941e-06
-1.9031626e-07
1.2085493e-06
-1.8559512e-07
1.2575491e-06
-1.8628123e-07
1.3062119e-06
-1.8557204e-07
1.3545213e-06
-1.8876289e-07
1.4015468e-06
-1.8867489e-07
1.4497939e-06
-1.8341039e-07
1.5001793e-06
-1.8928142e-07
1.5481965e-06
-1.8823276e-07
1.5949426e-06
-1.9121663e-07
1.6432417e-06
-1.8344007e-07
1.6946677e-06
-1.8978964e-07
1.742781e-06
-1.8828099e-07
1.7900916e-06
-1.9179467e-07
1.8386768e-06
-1.8942831e-07
1.8874735e-06
-1.8486284e-07
1.9366375e-06
-1.853615e-07
1.9875315e-06
-1.9458199e-07
2.0343577e-06
-1.919453e-07
2.0811432e-06
-1.832597e-07
2.1295365e-06
-1.8463714e-07
2.1788836e-06
-1.8629982e-07
2.2303179e-06
-1.9455595e-07
2.2777997e-06
-1.8509577e-07
2.3222376e-06
-1.7982588e-07
2.3682462e-06
-1.8865304e-07
2.4196488e-06
-1.874937e-07
2.4679399e-06
-1.7707042e-07
2.5141245e-06
-1.8115636e-07
2.5627637e-06
-1.9026942e-07
2.6090945e-06
-1.8290409e-07
2.6518838e-06
-1.7316001e-07
2.6979137e-06
-1.7859078e-07
2.7481924e-06
-1.8375352e-07
2.7956295e-06
-1.7559369e-07
2.8394527e-06
-1.7050195e-07
2.8845257e-06
-1.7960321e-07
2.930728e-06
-1.8520056e-07
2.9747821e-06
-1.7251285e-07
3.0162426e-06
-1.5888924e-07
3.0598442e-06
-1.6561071e-07
3.1101543e-06
-1.8326644e-07
3.1597578e-06
-1.8320956e-07
3.1991715e-06
-1.6003066e-07
3.2358193e-06
-1.5284764e-07
3.2782726e-06
-1.6994372e-07
3.3262916e-06
-1.8105213e-07
3.3730881e-06
-1.6981297e-07
3.4134021e-06
-1.5102996e-07
3.4515116e-06
-1.5138236e-07
3.495956e-06
-1.6926194e-07
3.5424332e-06
-1.7495454e-07
3.5841573e-06
-1.6265142e-07
3.6220128e-06
-1.5276509e-07
3.6604174e-06
-1.5388409e-07
3.7024658e-06
-1.6048571e-07
3.7465144e-06
-1.6045591e-07
3.7890377e-06
-1.567344e-07
3.8287896e-06
-1.5358224e-07
3.8681931e-06
-1.5369072e-07
3.9097233e-06
-1.5864507e-07
3.9503403e-06
-1.5935287e-07
3.9898989e-06
-1.5551036e-07
4.0297425e-06
-1.5169518e-07
4.0684009e-06
-1.4744974e-07
4.1063662e-06
-1.4558503e-07
4.1468182e-06
-1.5305025e-07
4.1890321e-06
-1.6137907e-07
4.2309619e-06
-1.5851917e-07
4.2690414e-06
-1.4558473e-07
4.3052817e-06
-1.3798878e-07
4.3442832e-06
-1.4766305e-07
4.3858247e-06
-1.5964293e-07
4.4258768e-06
-1.5713483e-07
4.4626852e-06
-1.458648e-07
4.4982559e-06
-1.3999633e-07
4.535659e-06
-1.4080321e-07
4.5759199e-06
-1.4677298e-07
4.6169303e-06
-1.5271677e-07
4.6567545e-06
-1.5299896e-07
4.6963181e-06
-1.5062097e-07
4.7331177e-06
-1.4259939e-07
4.7672624e-06
-1.335934e-07
4.8027583e-06
-1.3676394e-07
4.8421934e-06
-1.486786e-07
4.8834834e-06
-1.5562698e-07
4.9223898e-06
-1.5067094e-07
4.9576782e-06
-1.4145814e-07
4.9930387e-06
-1.3567599e-07
5.0292285e-06
-1.3423962e-07
5.0651396e-06
-1.3613252e-07
5.102723e-06
-1.4235509e-07
5.1428104e-06
-1.4833107e-07
5.1821774e-06
-1.4869876e-07
5.2191111e-06
-1.4380803e-07
5.255722e-06
-1.3905913e-07
5.292655e-06
-1.3659982e-07
5.3269015e-06
-1.3366647e-07
5.3593963e-06
-1.3227171e-07
5.3944436e-06
-1.3835618e-07
5.4317793e-06
-1.438364e-07
5.468608e-06
-1.4119431e-07
5.5061594e-06
-1.373742e-07
5.5448945e-06
-1.3745131e-07
5.581723e-06
-1.3482258e-07
5.6160545e-06
-1.3215404e-07
5.6508658e-06
-1.3491382e-07
5.6865718e-06
-1.387146e-07
5.721377e-06
-1.3530535e-07
5.7560208e-06
-1.3023382e-07
5.7901304e-06
-1.2852972e-07
5.8239638e-06
-1.2924509e-07
5.8591949e-06
-1.3295538e-07
5.8961578e-06
-1.3858728e-07
5.9317961e-06
-1.3905043e-07
5.9666325e-06
-1.3492496e-07
6.0012237e-06
-1.3043977e-07
6.0348705e-06
-1.2512609e-07
6.0669464e-06
-1.2188483e-07
6.1006222e-06
-1.247968e-07
6.1363728e-06
-1.2856015e-07
6.1710159e-06
-1.2896526e-07
6.2032832e-06
-1.2796663e-07
6.2359422e-06
-1.3031803e-07
6.27105e-06
-1.3395897e-07
6.3055143e-06
-1.306314e-07
6.3380535e-06
-1.2391063e-07
6.3711504e-06
-1.2087711e-07
6.4042528e-06
-1.2072314e-07
6.4367915e-06
-1.2361391e-07
6.4702082e-06
-1.2919411e-07
6.505034e-06
-1.3249704e-07
6.5401629e-06
-1.3241932e-07
6.5742569e-06
-1.2819715e-07
6.6058785e-06
-1.1887232e-07
6.6357049e-06
-1.122816e-07
6.6655353e-06
-1.1233923e-07
6.6951307e-06
-1.1321395e-07
6.723854e-06
-1.1514842e-07
6.7550933e-06
-1.2377528e-07
6.7907423e-06
-1.3324703e-07
6.8276842e-06
-1.3450443e-07
6.8627095e-06
-1.2856172e-07
6.8964537e-06
-1.2087425e-07
6.9290516e-06
-1.1494514e-07
6.9597874e-06
-1.1151636e-07
6.9883614e-06
-1.1093758e-07
7.0167047e-06
-1.156061e-07
7.0481009e-06
-1.2365551e-07
7.0811559e-06
-1.2590278e-07
7.1135445e-06
-1.2434693e-07
7.146119e-06
-1.2421105e-07
7.1778477e-06
-1.2002232e-07
7.2073081e-06
-1.1165988e-07
7.2363782e-06
-1.0914386e-07
7.2662448e-06
-1.1299522e-07
7.297391e-06
-1.1678727e-07
7.3301155e-06
-1.1934135e-07
7.3631181e-06
-1.1963129e-07
7.3957815e-06
-1.1729905e-07
7.4285597e-06
-1.1612064e-07
7.4597095e-06
-1.1554924e-07
7.4887781e-06
-1.1373532e-07
7.5181151e-06
-1.1238868e-07
7.5481606e-06
-1.1237655e-07
7.5765058e-06
-1.1223053e-07
7.603664e-06
-1.1283618e-07
7.6324421e-06
-1.1417353e-07
7.6633119e-06
-1.1494774e-07
7.6957536e-06
-1.1681633e-07
7.7296411e-06
-1.1915814e-07
7.7627847e-06
-1.1742691e-07
7.7938631e-06
-1.1215648e-07
7.8244583e-06
-1.0952692e-07
7.8552356e-06
-1.0885174e-07
7.8841392e-06
-1.0726683e-07
7.910508e-06
-1.0722075e-07
7.9374162e-06
-1.1205191e-07
7.966231e-06
-1.1796827e-07
7.9973086e-06
-1.196027e-07
8.0290311e-06
-1.1649837e-07
8.060952e-06
-1.0696017e-07
8.0917506e-06
-1.0093797e-07
8.1209685e-06
-9.5487201e-08
8.1500055e-06
-9.9335499e-08
8.1761123e-06
-9.7947469e-08
8.2031252e-06
-1.0263534e-07
8.2279871e-06
-1.0280715e-07
8.2543052e-06
-1.0200423e-07
8.2808552e-06
-1.0541015e-07
8.3097838e-06
-1.0203003e-07
8.3387621e-06
-1.0034007e-07
8.366619e-06
-8.8187932e-08
8.3941421e-06
-7.407471e-08
8.418094e-06
-5.9089221e-08
8.4413318e-06
-4.9085005e-08
8.4640065e-06
-4.6433127e-08
8.4816986e-06
-3.6692773e-08
8.5007192e-06
-3.2214242e-08
8.5142998e-06
-1.6874911e-08
8.5220084e-06
3.7147543e-09
8.5290802e-06
2.7548597e-08
8.5224655e-06
6.1176159e-08
8.5149852e-06
1.0413532e-07
8.4965599e-06
1.4218533e-07
8.469741e-06
1.9835339e-07
8.4377251e-06
2.5846513e-07
8.3913613e-06
3.1878045e-07
8.3254983e-06
4.2263924e-07
8.2567772e-06
5.1014302e-07
8.1474028e-06
6.4275586e-07
8.0290653e-06
7.8364131e-07
7.8913186e-06
9.2405037e-07
7.7004732e-06
1.1234559e-06
7.516561e-06
1.2919977e-06
7.2663887e-06
1.5063089e-06
7.0045724e-06
1.7202379e-06
6.7538059e-06
1.8970455e-06
6.4329328e-06
2.1472031e-06
6.1345688e-06
2.3457819e-06
5.7774975e-06
2.5323595e-06
5.3488872e-06
2.7028052e-06