/*--------------------------------*- C++ -*----------------------------------*\
| =========                 |                                                 |
| \\      /  F ield         | OpenFOAM: The Open Source CFD Toolbox           |
|  \\    /   O peration     | Version:  2306                                  |
|   \\  /    A nd           | Website:  www.openfoam.com                      |
|    \\/     M anipulation  |                                                 |
\*---------------------------------------------------------------------------*/
FoamFile
{
    version     2.0;
    format      ascii;
    arch        "LSB;label=32;scalar=64";
    class       volVectorField;
    location    "0.06";
    object      U;
}
// * * * * * * * * * * * * * * * * * * * * * * * * * * * * * * * * * * * * * //

dimensions      [0 1 -1 0 0 0 0];

internalField   nonuniform List<vector> 
6400
(
(0.00039558574 0.00030101216 2.5294369e-20)
(0.00039589511 0.00028265406 1.7019618e-21)
(0.00039553888 0.00026478019 -5.9700034e-21)
(0.00039456793 0.00024739464 9.2148777e-21)
(0.00039303028 0.00023049945 -7.0616945e-21)
(0.00039097122 0.00021409476 9.7196272e-21)
(0.00038843345 0.00019817906 1.1703386e-21)
(0.00038545716 0.00018274954 6.4839144e-21)
(0.00038207996 0.00016780182 3.1775305e-21)
(0.00037833727 0.0001533306 3.08489e-21)
(0.00037426226 0.00013932944 -1.3780203e-21)
(0.00036988598 0.00012579118 8.4251373e-21)
(0.00036523751 0.00011270787 3.0786565e-21)
(0.00036034398 0.00010007114 -3.7152577e-21)
(0.00035523066 8.7871837e-05 -2.2526686e-21)
(0.00034992118 7.6100482e-05 2.593987e-21)
(0.00034443753 6.474736e-05 -1.5954311e-22)
(0.00033880015 5.3802389e-05 6.0235361e-21)
(0.00033302803 4.3255423e-05 -2.5490088e-21)
(0.00032713859 3.309597e-05 -2.0519197e-21)
(0.00032114803 2.3313897e-05 2.9603048e-21)
(0.00031507164 1.3898444e-05 -3.1074418e-21)
(0.00030892215 4.8388702e-06 2.3523498e-21)
(0.00030271688 -3.8732808e-06 -1.2070533e-21)
(0.00029646653 -1.2252816e-05 -2.8306496e-21)
(0.00029017772 -2.0306344e-05 2.4404012e-21)
(0.00028386295 -2.8044671e-05 7.0778333e-22)
(0.00027753129 -3.5477925e-05 2.3364892e-21)
(0.00027119118 -4.2615836e-05 1.2091156e-21)
(0.0002648504 -4.9467879e-05 -3.1365235e-21)
(0.00025851587 -5.6043672e-05 -1.5418223e-21)
(0.00025219398 -6.2352401e-05 5.4789168e-21)
(0.00024589046 -6.8403e-05 5.4881845e-21)
(0.00023961051 -7.4204033e-05 -1.103078e-21)
(0.00023335881 -7.9764033e-05 -1.8551894e-21)
(0.00022713964 -8.5091579e-05 6.7950826e-22)
(0.00022095678 -9.0194506e-05 4.9059752e-22)
(0.00021481351 -9.5080615e-05 3.3608788e-21)
(0.00020871279 -9.9757502e-05 7.0266231e-22)
(0.00020265718 -0.00010423263 -4.5651145e-21)
(0.00019664894 -0.00010851291 -8.2892557e-22)
(0.00019069001 -0.0001126054 3.0441131e-21)
(0.00018478198 -0.00011651645 1.0786274e-21)
(0.00017892632 -0.00012025261 -5.7478869e-23)
(0.00017312417 -0.00012382001 -1.3353686e-21)
(0.0001673764 -0.00012722466 -7.669211e-22)
(0.00016168371 -0.00013047216 2.6222143e-21)
(0.00015604659 -0.00013356801 3.8260955e-21)
(0.00015046538 -0.00013651767 -2.0112051e-21)
(0.00014494028 -0.00013932602 -1.7891849e-21)
(0.00013947123 -0.00014199806 -6.1214018e-23)
(0.00013405806 -0.00014453828 1.0279002e-23)
(0.00012870056 -0.00014695139 2.42018e-21)
(0.00012339836 -0.00014924145 1.6488203e-21)
(0.000118151 -0.00015141272 -1.5208161e-21)
(0.00011295789 -0.00015346899 -6.658317e-23)
(0.00010781832 -0.00015541404 5.9458411e-22)
(0.00010273157 -0.0001572513 1.3789556e-21)
(9.7696873e-05 -0.00015898449 4.0510382e-23)
(9.2713285e-05 -0.00016061661 -2.4636213e-21)
(8.7779833e-05 -0.00016215068 -1.9319635e-22)
(8.2895574e-05 -0.00016358973 2.1613935e-22)
(7.8059486e-05 -0.00016493639 1.385202e-21)
(7.3270448e-05 -0.00016619332 2.5873038e-22)
(6.8527354e-05 -0.00016736297 -1.0873003e-21)
(6.382911e-05 -0.00016844766 -1.2081053e-22)
(5.9174536e-05 -0.00016944959 1.45328e-22)
(5.4562387e-05 -0.00017037069 1.2684236e-21)
(4.9991551e-05 -0.00017121294 5.0292067e-22)
(4.5460753e-05 -0.00017197806 -1.4386652e-21)
(4.0968748e-05 -0.00017266784 8.4825518e-22)
(3.6514383e-05 -0.00017328368 5.6882805e-22)
(3.2096355e-05 -0.00017382706 -7.6398752e-23)
(2.7713435e-05 -0.00017429911 2.4544785e-22)
(2.3364379e-05 -0.00017470116 5.4227104e-22)
(1.9047977e-05 -0.00017503421 1.7164571e-21)
(1.4763052e-05 -0.00017529922 -1.867082e-22)
(1.0507431e-05 -0.0001754973 -6.3530148e-22)
(6.2776166e-06 -0.0001756301 -4.0327378e-22)
(2.0795202e-06 -0.00017570208 -9.5317913e-22)
(0.00037737197 0.00029531443 8.7593001e-22)
(0.00037813912 0.00027769742 3.3168962e-21)
(0.00037824697 0.00026052019 3.0847589e-21)
(0.00037774427 0.00024378878 -1.1505857e-20)
(0.00037667696 0.00022750715 -1.1810237e-20)
(0.00037508856 0.00021167736 8.4134499e-22)
(0.00037302016 0.00019629966 -7.7272427e-22)
(0.00037051053 0.00018137316 5.6871886e-21)
(0.00036759612 0.00016689523 -8.018498e-21)
(0.00036431121 0.00015286224 -2.332469e-21)
(0.00036068805 0.00013926945 -6.5494644e-22)
(0.00035675687 0.00012611127 7.881412e-21)
(0.00035254607 0.00011338131 1.2209801e-21)
(0.00034808216 0.00010107268 -1.0969676e-20)
(0.00034338994 8.9177628e-05 -3.1698567e-21)
(0.00033849266 7.7688074e-05 1.3072013e-21)
(0.00033341195 6.6595628e-05 4.3161846e-22)
(0.00032816794 5.5891529e-05 4.0360546e-22)
(0.00032277948 4.5566668e-05 -5.9861062e-21)
(0.00031726411 3.561189e-05 -1.1626394e-21)
(0.00031163785 2.6017982e-05 1.4381004e-21)
(0.00030591552 1.677554e-05 7.6354708e-22)
(0.00030011127 7.8752059e-06 1.5487587e-21)
(0.00029423818 -6.9143009e-07 -1.5789653e-21)
(0.00028831001 -8.9396381e-06 -8.8965919e-22)
(0.00028233704 -1.6872945e-05 1.769491e-21)
(0.00027632738 -2.4501716e-05 1.3046434e-22)
(0.00027029113 -3.183555e-05 1.7781984e-21)
(0.00026423704 -3.888372e-05 -5.9784114e-22)
(0.00025817307 -4.5654817e-05 1.4649088e-21)
(0.00025210641 -5.2157837e-05 3.2470515e-21)
(0.00024604354 -5.8401422e-05 2.1411818e-21)
(0.00023999044 -6.4393917e-05 2.6872359e-21)
(0.0002339525 -7.0143443e-05 -1.0749161e-21)
(0.00022793474 -7.5658049e-05 -2.4482734e-22)
(0.00022194161 -8.0945807e-05 1.6061654e-21)
(0.00021597701 -8.6014048e-05 1.0407004e-21)
(0.00021004451 -9.0870205e-05 1.8057155e-21)
(0.00020414726 -9.5521463e-05 -7.4174421e-22)
(0.00019828809 -9.9974929e-05 -1.3737907e-21)
(0.00019246952 -0.00010423718 5.0580304e-22)
(0.00018669367 -0.0001083149 1.3178925e-21)
(0.00018096239 -0.00011221424 8.6314225e-22)
(0.00017527729 -0.00011594153 -3.6749013e-23)
(0.00016963977 -0.00011950251 6.8044578e-22)
(0.00016405093 -0.00012290297 1.2251505e-21)
(0.00015851169 -0.00012614828 2.2673386e-21)
(0.00015302274 -0.00012924376 2.2686601e-21)
(0.00014758465 -0.0001321946 5.4366259e-22)
(0.00014219774 -0.00013500546 1.0248272e-21)
(0.00013686214 -0.00013768123 -7.892619e-23)
(0.00013157797 -0.00014022636 -1.1245215e-21)
(0.00012634517 -0.00014264519 8.0979793e-22)
(0.00012116356 -0.00014494187 1.8079972e-21)
(0.00011603283 -0.0001471204 1.2669952e-21)
(0.00011095263 -0.00014918446 1.9397061e-21)
(0.00010592241 -0.0001511376 9.9874323e-22)
(0.00010094151 -0.00015298337 2.0649476e-21)
(9.6009376e-05 -0.00015472517 6.9465658e-22)
(9.1125317e-05 -0.00015636605 1.2351937e-22)
(8.6288459e-05 -0.00015790884 1.2213508e-21)
(8.1497966e-05 -0.00015935658 -6.0038211e-22)
(7.675298e-05 -0.00016071183 8.5389849e-22)
(7.2052595e-05 -0.00016197722 1.3429518e-21)
(6.7395834e-05 -0.00016315507 1.5080827e-21)
(6.2781641e-05 -0.00016424767 3.832813e-22)
(5.8209059e-05 -0.00016525723 -2.2597448e-22)
(5.3677011e-05 -0.00016618552 7.9177244e-22)
(4.9184355e-05 -0.00016703459 3.487073e-23)
(4.4730064e-05 -0.00016780607 8.4423131e-22)
(4.0313039e-05 -0.00016850169 1.0925727e-21)
(3.5932163e-05 -0.0001691229 6.0578961e-22)
(3.1586287e-05 -0.00016967105 8.8161064e-22)
(2.7274291e-05 -0.00017014731 2.8812399e-22)
(2.2995067e-05 -0.00017055303 1.0196288e-21)
(1.8747541e-05 -0.00017088916 7.4651537e-22)
(1.4530666e-05 -0.00017115659 2.7194847e-22)
(1.0342299e-05 -0.00017135647 9.5235966e-22)
(6.1790228e-06 -0.00017149055 8.1607032e-22)
(2.046853e-06 -0.0001715632 -6.8969528e-22)
(0.00035991374 0.00028940756 2.4366976e-21)
(0.00036109461 0.00027251506 -1.7678615e-21)
(0.0003616243 0.00025602039 -8.2166936e-21)
(0.0003615494 0.00023993118 -6.4666651e-21)
(0.00036091384 0.00022425335 -1.6794708e-21)
(0.00035975926 0.00020899057 -2.5874622e-21)
(0.00035812511 0.00019414479 -4.9237177e-21)
(0.00035604871 0.0001797166 -7.2244646e-21)
(0.00035356526 0.00016570512 -6.8659619e-21)
(0.00035070797 0.00015210824 5.5103325e-22)
(0.00034750806 0.00013892281 1.2988067e-21)
(0.0003439949 0.00012614468 -4.3395125e-21)
(0.00034019614 0.00011376897 -1.6024407e-20)
(0.00033613768 0.00010179008 -1.0428892e-20)
(0.00033184378 9.0201632e-05 6.8659991e-21)
(0.00032733717 7.8996923e-05 1.6321536e-21)
(0.0003226391 6.8168658e-05 -6.6637399e-21)
(0.00031776946 5.7709353e-05 -8.4621825e-21)
(0.0003127468 4.7610939e-05 -6.5056735e-21)
(0.00030758842 3.7865447e-05 1.2984121e-21)
(0.0003023104 2.8464473e-05 2.567863e-21)
(0.0002969277 1.9399547e-05 -2.7114618e-21)
(0.00029145413 1.0662497e-05 -6.1816557e-21)
(0.00028590109 2.244449e-06 2.8226756e-22)
(0.0002802841 -5.8642465e-06 -6.352825e-22)
(0.00027461464 -1.3670277e-05 4.5218732e-22)
(0.00026889934 -2.1183594e-05 -2.6988747e-21)
(0.00026314863 -2.8412287e-05 -4.6517557e-21)
(0.00025737135 -3.5364832e-05 -2.1333345e-21)
(0.00025157556 -4.2049332e-05 1.5546303e-21)
(0.00024576875 -4.8473999e-05 1.4978384e-21)
(0.00023995757 -5.4646842e-05 -3.9123462e-21)
(0.00023414806 -6.0575668e-05 -3.4027713e-21)
(0.00022834589 -6.6268269e-05 1.2446497e-21)
(0.00022255621 -7.1732137e-05 9.392673e-22)
(0.0002167836 -7.697469e-05 -2.6582162e-21)
(0.00021103224 -8.2003087e-05 -4.749531e-21)
(0.00020530588 -8.6824226e-05 -1.3155361e-21)
(0.00019960788 -9.1444867e-05 -9.5955179e-22)
(0.00019394128 -9.5871903e-05 -2.1005828e-21)
(0.00018830876 -0.00010011146 2.2087988e-21)
(0.00018271272 -0.00010416992 -9.2011353e-22)
(0.00017715522 -0.00010805322 -1.9939492e-21)
(0.00017163807 -0.00011176731 5.3434874e-22)
(0.0001661628 -0.00011531767 -3.9464714e-22)
(0.00016073069 -0.00011870987 -2.7131849e-22)
(0.00015534289 -0.00012194916 -9.4325241e-22)
(0.00015000034 -0.00012504049 -1.8937997e-21)
(0.0001447037 -0.0001279889 2.1606214e-22)
(0.00013945354 -0.00013079893 2.3308243e-21)
(0.00013425027 -0.00013347512 7.1632319e-22)
(0.00012909408 -0.00013602196 -2.5490935e-21)
(0.00012398515 -0.00013844352 -1.7227832e-21)
(0.00011892347 -0.00014074382 -1.9082634e-22)
(0.00011390881 -0.00014292674 2.0207822e-22)
(0.00010894085 -0.00014499583 1.2230295e-21)
(0.00010401934 -0.00014695448 -4.4007592e-22)
(9.9144029e-05 -0.00014880631 5.3074392e-22)
(9.4314325e-05 -0.00015055446 -3.6685744e-22)
(8.9529581e-05 -0.00015220192 -4.9230073e-22)
(8.4789215e-05 -0.0001537515 1.518345e-21)
(8.0092523e-05 -0.00015520602 -1.4662394e-21)
(7.543878e-05 -0.00015656809 7.2346766e-23)
(7.0827237e-05 -0.00015784027 2.1429394e-23)
(6.6256994e-05 -0.00015902468 3.2196406e-22)
(6.1727155e-05 -0.00016012373 4.0398131e-22)
(5.7236857e-05 -0.00016113949 -1.0287171e-21)
(5.2785174e-05 -0.00016207373 -2.9105279e-22)
(4.8371159e-05 -0.00016292838 -2.8110387e-23)
(4.3993832e-05 -0.00016370515 2.4941902e-22)
(3.965222e-05 -0.00016440566 4.5921036e-22)
(3.5345308e-05 -0.00016503129 -5.2347003e-22)
(3.1072103e-05 -0.00016558347 3.4979532e-22)
(2.6831564e-05 -0.00016606328 -6.2315288e-22)
(2.2622691e-05 -0.00016647209 -3.4800066e-22)
(1.8444605e-05 -0.00016681083 -2.3095127e-22)
(1.4296261e-05 -0.00016708035 9.3252785e-23)
(1.0175662e-05 -0.00016728174 1.3011585e-22)
(6.0795752e-06 -0.00016741686 1.7447941e-22)
(2.0139339e-06 -0.00016749014 2.2620707e-23)
(0.00034319255 0.00028332582 7.2055259e-21)
(0.00034474571 0.00026714022 -5.6733876e-21)
(0.00034565742 0.00025131288 -6.5481941e-22)
(0.00034597201 0.00023585296 1.0780883e-21)
(0.00034573135 0.00022076801 3.687712e-21)
(0.00034497537 0.00020606308 -5.1328422e-21)
(0.00034374196 0.00019174181 -8.2958877e-21)
(0.00034206689 0.00017780611 -6.0146708e-21)
(0.00033998403 0.00016425666 1.9717139e-21)
(0.00033752544 0.00015109264 -2.2165995e-21)
(0.00033472133 0.00013831247 -5.5844868e-21)
(0.0003316001 0.00012591331 -6.881608e-21)
(0.00032818862 0.00011389162 4.6322071e-22)
(0.0003245122 0.00010224308 5.5350326e-22)
(0.00032059443 9.0962636e-05 -3.4602585e-22)
(0.00031645753 8.0044738e-05 -1.8140166e-21)
(0.00031212236 6.9483211e-05 -1.0186664e-21)
(0.00030760846 5.9271659e-05 4.0369557e-21)
(0.00030293404 4.9403215e-05 -4.0108353e-22)
(0.0002981161 3.987082e-05 2.8046665e-21)
(0.00029317054 3.0667099e-05 -2.3302347e-21)
(0.00028811212 2.1784621e-05 -2.82591e-21)
(0.00028295476 1.3215784e-05 1.560558e-21)
(0.00027771028 4.952395e-06 7.9761657e-22)
(0.00027239426 -3.0114675e-06 -3.0095237e-22)
(0.00026701676 -1.068753e-05 -1.1735343e-21)
(0.00026158451 -1.808084e-05 -3.2410183e-21)
(0.00025610913 -2.5199407e-05 5.8608657e-22)
(0.00025059939 -3.2051152e-05 1.1542147e-21)
(0.00024506331 -3.8643842e-05 1.6053717e-21)
(0.00023950837 -4.4984987e-05 3.8952908e-21)
(0.00023394138 -5.1082018e-05 -1.9028798e-21)
(0.00022836858 -5.6942132e-05 -2.4505182e-21)
(0.00022279573 -6.2572771e-05 1.014962e-21)
(0.00021722809 -6.7980898e-05 2.5552172e-22)
(0.00021167051 -7.3173387e-05 7.1719349e-22)
(0.00020612734 -7.8157079e-05 -2.7151316e-21)
(0.00020060244 -8.2938448e-05 -1.7242068e-22)
(0.00019509931 -8.7523896e-05 -6.6315381e-22)
(0.00018962125 -9.1919956e-05 -9.648403e-23)
(0.00018417119 -9.6132541e-05 1.2896102e-21)
(0.00017875162 -0.00010016747 -2.4522133e-22)
(0.00017336483 -0.00010403058 1.4756254e-21)
(0.00016801276 -0.00010772742 1.0674896e-22)
(0.00016269714 -0.00011126322 9.6015285e-22)
(0.00015741948 -0.00011464338 3.72604e-22)
(0.00015218105 -0.00011787296 -8.4463378e-22)
(0.000146983 -0.0001209566 -1.0765819e-21)
(0.00014182623 -0.00012389911 -9.026333e-22)
(0.00013671138 -0.00012670501 3.1768133e-21)
(0.00013163898 -0.00012937853 2.4779425e-21)
(0.00012660957 -0.00013192402 -1.9852076e-22)
(0.00012162341 -0.0001343454 7.560242e-22)
(0.0001166806 -0.00013664654 -2.8639364e-23)
(0.00011178115 -0.00013883112 2.4402886e-22)
(0.00010692494 -0.00014090261 3.3199743e-22)
(0.00010211184 -0.00014286443 -5.8061793e-22)
(9.734163e-05 -0.00014471996 9.4246754e-22)
(9.2613992e-05 -0.00014647228 -4.0821147e-23)
(8.7928411e-05 -0.00014812415 2.821932e-22)
(8.3284358e-05 -0.00014967852 1.1176276e-21)
(7.8681372e-05 -0.00015113804 -6.985665e-22)
(7.4118869e-05 -0.00015250516 1.482098e-21)
(6.9596109e-05 -0.0001537824 1.3663801e-21)
(6.5112383e-05 -0.00015497189 5.3150392e-23)
(6.0667035e-05 -0.00015607596 -3.3426758e-22)
(5.6259237e-05 -0.00015709655 -5.9822718e-22)
(5.1888183e-05 -0.00015803553 1.2601727e-21)
(4.7553062e-05 -0.00015889468 4.7519942e-22)
(4.3253e-05 -0.00015967563 1.4837908e-23)
(3.8987148e-05 -0.00016038011 4.4687081e-22)
(3.4754609e-05 -0.00016100931 7.4170156e-24)
(3.0554453e-05 -0.00016156479 5.1730032e-22)
(2.63858e-05 -0.00016204753 9.5901868e-22)
(2.2247775e-05 -0.00016245882 -5.2545889e-22)
(1.8139512e-05 -0.00016279977 -4.1188149e-22)
(1.4060105e-05 -0.00016307095 1.2100343e-21)
(1.0007754e-05 -0.00016327363 1.0458492e-21)
(5.9793615e-06 -0.00016340966 -6.4007628e-22)
(1.9807597e-06 -0.00016348342 -6.8585681e-23)
(0.00032718915 0.00027710115 2.0323518e-20)
(0.00032907547 0.00026160396 9.7155429e-21)
(0.00033033158 0.00024642778 -6.7582902e-21)
(0.00033099938 0.00023158329 7.5581163e-21)
(0.00033111897 0.00021707927 1.1266315e-20)
(0.00033072839 0.00020292212 1.9326558e-21)
(0.00032986379 0.00018911684 4.4001694e-21)
(0.00032855952 0.00017566672 -4.6211194e-22)
(0.00032684812 0.00016257368 8.0383382e-21)
(0.00032476043 0.00014983834 3.3692081e-21)
(0.0003223256 0.00013746038 -6.4988125e-23)
(0.00031957118 0.00012543816 8.1608325e-21)
(0.0003165232 0.00011376931 6.7012723e-21)
(0.00031320613 0.0001024508 3.4667451e-21)
(0.00030964298 9.147872e-05 -8.7092599e-22)
(0.0003058555 8.08486e-05 7.9594379e-22)
(0.00030186405 7.0555416e-05 1.2390796e-20)
(0.00029768768 6.0593788e-05 5.6037372e-21)
(0.00029334434 5.0957965e-05 -5.4496038e-21)
(0.00028885084 4.1641655e-05 1.9956851e-21)
(0.00028422278 3.2638542e-05 -8.2507178e-22)
(0.00027947473 2.3942186e-05 1.7235413e-21)
(0.00027462022 1.5545726e-05 5.0373025e-21)
(0.00026967247 7.4422391e-06 -1.8970002e-21)
(0.00026464308 -3.7419945e-07 8.5691072e-22)
(0.00025954451 -7.9157508e-06 -5.1276207e-22)
(0.00025438675 -1.5184452e-05 1.7791007e-21)
(0.00024917744 -2.218831e-05 1.0777938e-21)
(0.00024392617 -2.8934763e-05 -5.8156377e-22)
(0.00023864126 -3.5430962e-05 8.2571519e-22)
(0.00023333018 -4.1683847e-05 -9.1752424e-22)
(0.00022799988 -4.7700357e-05 1.4272322e-21)
(0.00022265681 -5.3487121e-05 3.5293952e-21)
(0.00021730675 -5.9051124e-05 1.542057e-21)
(0.00021195518 -6.4398948e-05 7.6468059e-22)
(0.00020660711 -6.9536976e-05 -5.4031296e-22)
(0.00020126688 -7.4471467e-05 3.0813065e-22)
(0.00019593857 -7.9208721e-05 3.9955085e-21)
(0.000190626 -8.3754722e-05 -4.6835573e-22)
(0.00018533248 -8.8115566e-05 1.3643104e-21)
(0.00018006108 -9.2297003e-05 1.4489828e-21)
(0.00017481453 -9.6304447e-05 -7.2022205e-22)
(0.00016959522 -0.00010014342 1.9316038e-21)
(0.00016440527 -0.00010381915 7.4460684e-22)
(0.00015924657 -0.00010733679 2.5070446e-22)
(0.00015412091 -0.00011070135 -1.9096141e-22)
(0.0001490297 -0.00011391771 8.86249e-22)
(0.00014397417 -0.00011699033 2.3758145e-21)
(0.00013895535 -0.0001199237 -9.8984057e-22)
(0.0001339741 -0.00012272226 8.6856405e-22)
(0.00012903124 -0.00012539012 5.0408601e-22)
(0.00012412735 -0.00012793133 -1.0852659e-21)
(0.00011926275 -0.00013034975 3.1647738e-21)
(0.00011443781 -0.00013264907 7.9195297e-22)
(0.00010965267 -0.00013483272 6.7792493e-22)
(0.00010490736 -0.00013690427 8.5631148e-23)
(0.00010020196 -0.00013886695 -5.1845097e-22)
(9.5536402e-05 -0.00014072394 1.9215682e-21)
(9.0910345e-05 -0.00014247828 -5.2006214e-22)
(8.6323513e-05 -0.00014413261 9.6739086e-24)
(8.1775601e-05 -0.00014568977 1.0005089e-21)
(7.7266129e-05 -0.00014715242 -1.0346242e-21)
(7.2794638e-05 -0.00014852288 1.8235869e-21)
(6.8360648e-05 -0.00014980357 1.3342309e-21)
(6.3963568e-05 -0.00015099667 3.8019373e-22)
(5.9602747e-05 -0.00015210436 6.0021206e-22)
(5.5277531e-05 -0.00015312853 -7.9186785e-22)
(5.0987201e-05 -0.00015407103 1.7205084e-21)
(4.6731061e-05 -0.00015493356 1.259882e-22)
(4.2508481e-05 -0.00015571779 -4.5499521e-22)
(3.831867e-05 -0.0001564253 4.5617945e-22)
(3.4160796e-05 -0.00015705733 1.4884576e-22)
(3.0034035e-05 -0.00015761535 5.916391e-22)
(2.5937597e-05 -0.00015810039 9.7192926e-22)
(2.1870765e-05 -0.00015851369 1.4318287e-21)
(1.7832704e-05 -0.0001588563 5.8689691e-22)
(1.382264e-05 -0.00015912886 -4.2282566e-22)
(9.8389606e-06 -0.00015933259 4.5175732e-22)
(5.8785975e-06 -0.00015946935 -1.1641777e-21)
(1.9473895e-06 -0.00015954345 -1.1852737e-21)
(0.00031188317 0.00027076328 7.1023856e-21)
(0.00031406613 0.00025593522 1.8745356e-20)
(0.00031563127 0.00024139334 -1.7222822e-21)
(0.00031661826 0.00022714951 -2.8246994e-22)
(0.00031706525 0.00021321355 4.3334817e-21)
(0.00031700843 0.0001995932 1.1426291e-20)
(0.00031648231 0.00018629457 1.0618061e-20)
(0.00031551979 0.00017332218 -3.136035e-21)
(0.00031415206 0.00016067914 -5.3778195e-21)
(0.00031240874 0.00014836732 2.8057085e-21)
(0.00031031796 0.00013638745 7.5783803e-21)
(0.00030790623 0.00012473918 6.9335034e-21)
(0.00030519866 0.00011342112 1.2851243e-21)
(0.00030221907 0.00010243142 3.404677e-21)
(0.00029898986 9.1767266e-05 -9.1588022e-23)
(0.00029553206 8.1425169e-05 3.7140138e-21)
(0.00029186557 7.1401192e-05 7.5538096e-21)
(0.00028800906 6.1690875e-05 -8.9719329e-22)
(0.00028398008 5.228943e-05 4.060054e-22)
(0.00027979516 4.3191381e-05 4.6304314e-22)
(0.00027546967 3.4391426e-05 3.923632e-23)
(0.00027101794 2.5883833e-05 1.828689e-21)
(0.00026645356 1.7662466e-05 2.1680386e-22)
(0.00026178917 9.7213019e-06 -1.809512e-21)
(0.00025703529 2.0537581e-06 2.1864746e-21)
(0.00025220569 -5.3469292e-06 1.7547867e-21)
(0.00024731104 -1.2485909e-05 -5.0704565e-22)
(0.00024235798 -1.9370783e-05 3.4490114e-22)
(0.0002373561 -2.6007736e-05 1.238499e-21)
(0.00023231376 -3.2403213e-05 -1.6348795e-21)
(0.00022723857 -3.8563629e-05 -1.2779396e-21)
(0.00022213752 -4.4495417e-05 4.6811314e-21)
(0.00021701718 -5.0204615e-05 3.8613692e-21)
(0.00021188352 -5.5697763e-05 -9.4186007e-22)
(0.00020674201 -6.0981054e-05 -1.372652e-21)
(0.00020159768 -6.606038e-05 -9.0620685e-22)
(0.00019645508 -7.0941609e-05 3.9957083e-21)
(0.00019131853 -7.5630704e-05 4.7885362e-21)
(0.00018619197 -8.0133336e-05 -2.037548e-21)
(0.00018107889 -8.4455095e-05 -4.2276692e-21)
(0.00017598236 -8.8601485e-05 5.094638e-22)
(0.00017090517 -9.2577679e-05 4.4268915e-21)
(0.00016584997 -9.6388797e-05 1.0933328e-21)
(0.00016081913 -0.00010003987 -7.0292796e-22)
(0.00015581473 -0.00010353588 -1.3096612e-21)
(0.00015083851 -0.00010688145 -4.2036235e-22)
(0.0001458921 -0.0001100813 2.2587389e-21)
(0.00014097691 -0.00011313968 1.9409397e-21)
(0.00013609419 -0.00011606094 -2.7100986e-22)
(0.00013124495 -0.0001188492 -8.1550953e-22)
(0.00012642999 -0.00012150851 -1.2068657e-21)
(0.00012165008 -0.00012404267 -1.6667125e-22)
(0.00011690584 -0.00012645541 1.5860976e-21)
(0.00011219764 -0.00012875033 -1.1590977e-22)
(0.00010752583 -0.00013093068 -9.2592424e-22)
(0.00010289064 -0.00013299995 9.3093429e-22)
(9.8292195e-05 -0.00013496122 1.1538064e-21)
(9.3730554e-05 -0.00013681756 1.4502519e-21)
(8.9205534e-05 -0.00013857183 -1.279339e-21)
(8.4716945e-05 -0.00014022674 -1.2084945e-21)
(8.0264675e-05 -0.00014178491 5.1861742e-22)
(7.5848422e-05 -0.0001432489 -9.9329716e-22)
(7.1467797e-05 -0.0001446211 3.0903444e-22)
(6.7122375e-05 -0.00014590376 4.071197e-22)
(6.2811752e-05 -0.00014709903 -5.3802505e-22)
(5.8535438e-05 -0.000148209 7.6479024e-22)
(5.4292818e-05 -0.00014923552 -7.6888452e-22)
(5.0083365e-05 -0.00015018035 7.1911397e-22)
(4.590645e-05 -0.00015104521 9.0867784e-22)
(4.1761446e-05 -0.00015183177 -2.6735812e-22)
(3.764775e-05 -0.00015254144 7.9650903e-22)
(3.3564677e-05 -0.00015317555 3.769946e-22)
(2.9511489e-05 -0.00015373536 8.1279218e-22)
(2.5487532e-05 -0.00015422217 8.8760774e-23)
(2.1492141e-05 -0.00015463699 7.7744403e-22)
(1.7524574e-05 -0.00015498076 8.5698884e-22)
(1.3584191e-05 -0.00015525439 -1.1873353e-22)
(9.66941e-06 -0.00015545894 -1.7803365e-22)
(5.7773459e-06 -0.0001555962 -7.4497717e-22)
(1.9138649e-06 -0.00015567062 -1.0709341e-21)
(0.00029725392 0.00026433958 -1.8585616e-21)
(0.00029969931 0.00025016082 8.0562624e-21)
(0.00030154037 0.00023623569 -2.7023099e-21)
(0.00030281455 0.00022257706 -1.8293529e-20)
(0.00030355792 0.00020919561 -5.0718842e-21)
(0.000303805 0.00019610032 6.5035568e-21)
(0.00030358862 0.00018329824 1.7632276e-21)
(0.00030294021 0.00017079491 -7.7437116e-22)
(0.00030188964 0.00015859468 -1.3039505e-20)
(0.0003004653 0.00014670033 -1.1983187e-22)
(0.00029869423 0.00013511368 5.83861e-21)
(0.00029660201 0.00012383546 4.3803484e-21)
(0.00029421287 0.0001128654 -2.8496398e-21)
(0.00029154979 0.00010220245 -9.9755201e-21)
(0.00028863447 9.1844974e-05 -8.418234e-22)
(0.00028548733 8.1790391e-05 5.7029564e-21)
(0.00028212778 7.2035667e-05 2.7428152e-21)
(0.00027857402 6.2577297e-05 -6.6660946e-21)
(0.00027484314 5.3411322e-05 -6.2147735e-21)
(0.00027095129 4.453317e-05 -3.0443064e-22)
(0.00026691361 3.5938356e-05 4.5470782e-21)
(0.00026274428 2.7621906e-05 1.9717145e-21)
(0.00025845654 1.9578494e-05 -2.7162792e-21)
(0.0002540628 1.1802614e-05 -2.4838599e-21)
(0.00024957392 4.2887198e-06 1.0996126e-21)
(0.00024500389 -2.9676977e-06 5.0675726e-21)
(0.00024036205 -9.9753721e-06 2.7234672e-22)
(0.00023565494 -1.6738203e-05 -1.1298075e-21)
(0.00023089308 -2.3262118e-05 -1.6971603e-21)
(0.00022608475 -2.9553237e-05 -7.1238866e-22)
(0.00022123755 -3.5617463e-05 4.0562364e-21)
(0.00021635836 -4.1460632e-05 2.3596585e-21)
(0.00021145377 -4.7088547e-05 1.1203545e-21)
(0.00020652996 -5.2506968e-05 -2.2425422e-22)
(0.0002015924 -5.7721866e-05 2.8586379e-22)
(0.00019664622 -6.2738653e-05 9.0737548e-22)
(0.00019169614 -6.7562897e-05 2.1984941e-21)
(0.00018674653 -7.2200127e-05 5.078567e-22)
(0.00018180139 -7.6655651e-05 -7.6231601e-22)
(0.00017686431 -8.0934696e-05 -1.8418303e-21)
(0.00017193855 -8.5042504e-05 3.8289433e-22)
(0.00016702711 -8.8983859e-05 2.5806435e-21)
(0.00016213275 -9.2763738e-05 -3.1401682e-23)
(0.00015725795 -9.6386876e-05 8.0837305e-22)
(0.00015240489 -9.985796e-05 6.4811461e-22)
(0.00014757547 -0.00010318135 1.6105795e-21)
(0.00014277147 -0.00010636162 2.6158588e-21)
(0.00013799452 -0.00010940281 -5.8820186e-22)
(0.00013324582 -0.00011230894 2.8050866e-22)
(0.00012852653 -0.00011508417 1.4828043e-21)
(0.00012383781 -0.00011773215 9.5445482e-22)
(0.00011918048 -0.00012025666 -4.3054486e-22)
(0.00011455518 -0.0001226612 -4.8727776e-22)
(0.00010996251 -0.00012494927 9.0507139e-22)
(0.00010540301 -0.00012712409 -1.5386655e-22)
(0.00010087696 -0.00012918879 2.1076027e-21)
(9.6384559e-05 -0.00013114655 1.5291335e-21)
(9.1926015e-05 -0.00013300015 1.2136109e-21)
(8.7501324e-05 -0.0001347524 -1.7030334e-22)
(8.3110509e-05 -0.00013640602 -1.7571881e-22)
(7.8753464e-05 -0.00013796346 2.0708872e-21)
(7.4429985e-05 -0.00013942722 -7.2162873e-22)
(7.0139847e-05 -0.0001407996 -1.1848434e-21)
(6.5882796e-05 -0.00014208277 6.8641593e-22)
(6.1658476e-05 -0.00014327887 9.469138e-22)
(5.7466456e-05 -0.00014438979 1.4925672e-21)
(5.3306327e-05 -0.00014541744 -3.1949445e-22)
(4.9177629e-05 -0.00014636354 -4.9674297e-22)
(4.5079916e-05 -0.00014722973 1.2106111e-21)
(4.1012611e-05 -0.00014801763 1.1090471e-21)
(3.6975117e-05 -0.00014872863 1.5493944e-21)
(3.2966914e-05 -0.00014936407 1.0158967e-21)
(2.8987439e-05 -0.00014992508 -1.3619935e-22)
(2.5036106e-05 -0.00015041304 8.3794381e-22)
(2.1112303e-05 -0.00015082883 1.1266787e-22)
(1.7215454e-05 -0.0001511735 -1.4283374e-22)
(1.3344955e-05 -0.00015144781 8.8354199e-22)
(9.4993245e-06 -0.0001516529 7.1184442e-22)
(5.6758127e-06 -0.00015179052 4.5031783e-22)
(1.880242e-06 -0.00015186517 -6.9348518e-22)
(0.00028328021 0.00025785517 -2.4635668e-21)
(0.00028595619 0.00024430549 -2.255495e-20)
(0.00028804214 0.00023097907 1.2820666e-21)
(0.0002895734 0.00021788963 4.1799754e-21)
(0.00029058397 0.00020504865 3.2571998e-21)
(0.00029110667 0.00019246599 1.3654536e-21)
(0.00029117284 0.00018014967 -2.189696e-20)
(0.00029081239 0.00016810611 -3.2913247e-21)
(0.00029005384 0.00015634066 2.0840066e-21)
(0.00028892438 0.00014485704 2.4790702e-21)
(0.0002874499 0.00013365803 1.5157526e-21)
(0.00028565501 0.00012274529 -1.6773124e-20)
(0.00028356306 0.00011211959 -7.0598155e-21)
(0.0002811962 0.00010178068 3.3127709e-23)
(0.00027857543 9.1727865e-05 8.1440092e-21)
(0.00027572066 8.1959512e-05 4.475734e-22)
(0.00027265059 7.2473435e-05 -1.7381132e-20)
(0.0002693829 6.3266929e-05 -5.0955868e-21)
(0.00026593438 5.4336856e-05 1.1327942e-21)
(0.00026232078 4.5679594e-05 3.9183994e-21)
(0.00025855688 3.729124e-05 1.1901245e-21)
(0.00025465662 2.9167613e-05 -1.18381e-20)
(0.00025063308 2.1304114e-05 -3.376827e-21)
(0.00024649839 1.3696289e-05 4.8782826e-21)
(0.00024226393 6.3390028e-06 3.1000898e-22)
(0.00023794058 -7.7177273e-07 -1.1984014e-21)
(0.00023353977 -7.6450889e-06 -9.8842098e-21)
(0.00022907055 -1.4282612e-05 -2.0771183e-21)
(0.0002245404 -2.0690322e-05 1.5122693e-21)
(0.00021995784 -2.6873815e-05 -4.8795169e-22)
(0.00021533061 -3.2838495e-05 1.0312935e-21)
(0.00021066589 -3.8589596e-05 -8.4676618e-21)
(0.00020597021 -4.4132775e-05 -4.5684478e-21)
(0.0002012497 -4.9473043e-05 3.0167729e-21)
(0.00019650996 -5.4616085e-05 -1.0519011e-23)
(0.00019175621 -5.9566956e-05 -2.7296226e-21)
(0.00018699334 -6.4330733e-05 -7.0719653e-21)
(0.00018222571 -6.8912631e-05 -2.0550076e-21)
(0.00017745736 -7.3317588e-05 8.8641771e-22)
(0.00017269203 -7.755055e-05 -1.9236072e-21)
(0.0001679331 -8.1616461e-05 1.0945091e-22)
(0.00016318372 -8.5519743e-05 -5.8034615e-21)
(0.00015844678 -8.9265247e-05 -2.5651371e-21)
(0.00015372482 -9.285734e-05 1.6496796e-21)
(0.00014902013 -9.6300364e-05 -1.1958667e-21)
(0.00014433484 -9.9598654e-05 -1.0835903e-21)
(0.00013967075 -0.00010275644 -3.5822811e-21)
(0.00013502956 -0.00010577763 -2.6534769e-21)
(0.00013041279 -0.00010866586 7.8778883e-22)
(0.00012582173 -0.00011142541 -2.7617854e-23)
(0.00012125748 -0.00011405945 2.2181962e-22)
(0.00011672103 -0.00011657188 -3.1597579e-21)
(0.00011221324 -0.00011896584 -2.536011e-21)
(0.00010773482 -0.00012124484 2.6210982e-22)
(0.00010328635 -0.00012341181 -1.0576156e-21)
(9.88683e-05 -0.00012546987 -6.275989e-22)
(9.4481045e-05 -0.00012742208 -2.9308714e-21)
(9.012479e-05 -0.00012927096 -1.0536722e-21)
(8.5799736e-05 -0.00013101941 -8.2422745e-23)
(8.1505976e-05 -0.00013266996 -1.1416586e-21)
(7.724353e-05 -0.00013422499 2.5173872e-22)
(7.3012367e-05 -0.000135687 -3.0693875e-21)
(6.881233e-05 -0.00013705802 -1.5132011e-21)
(6.4643261e-05 -0.00013834032 -5.0166912e-22)
(6.0504935e-05 -0.00013953587 -7.5394147e-22)
(5.6397028e-05 -0.00014064655 -4.3994899e-22)
(5.2319247e-05 -0.00014167419 -1.6528277e-21)
(4.8271201e-05 -0.0001426205 -9.7566551e-22)
(4.4252531e-05 -0.00014348711 -1.6985204e-22)
(4.0262827e-05 -0.00014427542 -8.3239054e-22)
(3.6301575e-05 -0.00014498697 -5.7615961e-22)
(3.2368334e-05 -0.00014562296 -9.8660291e-22)
(2.8462656e-05 -0.00014618461 -1.4317279e-21)
(2.4583981e-05 -0.00014667306 -1.0131999e-21)
(2.0731863e-05 -0.00014708945 -1.024518e-21)
(1.6905802e-05 -0.00014743459 -7.861025e-22)
(1.3105227e-05 -0.0001477093 -4.1421608e-22)
(9.3288981e-06 -0.00014791467 -4.6971479e-22)
(5.5741316e-06 -0.00014805249 1.069271e-22)
(1.8465923e-06 -0.00014812723 -4.521002e-22)
(0.00026994062 0.00025133313 2.0473907e-20)
(0.00027281752 0.00023839207 -2.2516446e-21)
(0.00027511929 0.00022564597 2.8831561e-21)
(0.00027687939 0.00021310933 -4.8481875e-21)
(0.00027812981 0.00020079428 -9.6481573e-21)
(0.00027890165 0.00018871132 -5.4361202e-21)
(0.0002792247 0.00017686935 -4.9345179e-21)
(0.00027912741 0.00016527566 3.7927781e-22)
(0.00027863699 0.00015393635 -3.5864188e-21)