/*--------------------------------*- C++ -*----------------------------------*\
| =========                 |                                                 |
| \\      /  F ield         | OpenFOAM: The Open Source CFD Toolbox           |
|  \\    /   O peration     | Version:  2306                                  |
|   \\  /    A nd           | Website:  www.openfoam.com                      |
|    \\/     M anipulation  |                                                 |
\*---------------------------------------------------------------------------*/
FoamFile
{
    version     2.0;
    format      ascii;
    arch        "LSB;label=32;scalar=64";
    class       volVectorField;
    location    "0.59";
    object      U;
}
// * * * * * * * * * * * * * * * * * * * * * * * * * * * * * * * * * * * * * //

dimensions      [0 1 -1 0 0 0 0];

internalField   nonuniform List<vector> 
6400
(
(-0.0029955032 -0.11464861 1.6689256e-16)
(-0.006928189 -0.11443132 2.2104101e-16)
(-0.011326134 -0.11356888 4.970765e-17)
(-0.015443167 -0.11221306 -4.725252e-17)
(-0.01952426 -0.11037599 -2.1044515e-16)
(-0.023375982 -0.10811959 -9.4074247e-17)
(-0.026969959 -0.1055081 -9.4377936e-17)
(-0.030285954 -0.10259564 -4.9907707e-17)
(-0.033308846 -0.099432438 1.972974e-18)
(-0.036029766 -0.096066732 -4.1932474e-17)
(-0.038446737 -0.092544718 -1.4326237e-17)
(-0.040563864 -0.088909766 -5.385785e-18)
(-0.042390274 -0.085201585 -1.1197702e-17)
(-0.043938995 -0.081455624 7.920297e-18)
(-0.045225855 -0.077702764 9.0920478e-18)
(-0.046268481 -0.073969267 1.5852233e-17)
(-0.047085432 -0.070276944 -2.7335868e-18)
(-0.047695487 -0.066643468 1.090342e-17)
(-0.048117098 -0.063082794 2.2128637e-17)
(-0.048367976 -0.059605615 1.8745064e-17)
(-0.048464816 -0.056219842 9.5744599e-18)
(-0.048423127 -0.052931054 4.5604913e-18)
(-0.048257142 -0.049742926 1.9342302e-18)
(-0.047979801 -0.046657606 1.5909577e-17)
(-0.047602779 -0.043676044 2.3766648e-17)
(-0.047136553 -0.040798282 3.4851147e-18)
(-0.046590487 -0.038023685 -5.1276525e-19)
(-0.045972933 -0.035351144 9.8955909e-18)
(-0.045291343 -0.032779229 1.8794948e-17)
(-0.044552375 -0.030306315 2.0119867e-17)
(-0.043761997 -0.027930669 5.8969351e-18)
(-0.042925587 -0.02565052 1.2452945e-18)
(-0.042048022 -0.023464104 3.0510243e-18)
(-0.041133758 -0.021369695 8.2868923e-18)
(-0.040186904 -0.019365622 1.0946779e-17)
(-0.039211282 -0.017450275 -8.0363878e-19)
(-0.038210476 -0.015622103 -8.8916168e-19)
(-0.037187882 -0.013879606 2.9492939e-18)
(-0.036146735 -0.012221325 5.4747131e-18)
(-0.035090146 -0.010645826 9.3130984e-18)
(-0.034021113 -0.0091516886 5.4260457e-18)
(-0.032942545 -0.0077374884 5.1255167e-19)
(-0.031857267 -0.0064017827 -6.0986343e-18)
(-0.030768029 -0.0051430931 -4.8248062e-18)
(-0.029677504 -0.0039598939 -7.2565645e-19)
(-0.028588291 -0.0028506043 -1.727111e-18)
(-0.027502914 -0.0018135794 -6.0035049e-18)
(-0.026423826 -0.00084710005 -6.3624339e-18)
(-0.025353473 5.0671317e-05 -5.2585399e-18)
(-0.024293906 0.00088149623 -2.315592e-19)
(-0.023247463 0.0016474055 2.6547576e-18)
(-0.02221618 0.0023504181 3.7574037e-19)
(-0.021201999 0.0029926467 1.9424058e-19)
(-0.020206752 0.00357628 -1.1614162e-18)
(-0.019232142 0.0041035748 -4.3277847e-19)
(-0.018279744 0.0045768506 2.5901015e-18)
(-0.01735099 0.0049984823 3.2311839e-18)
(-0.016447176 0.0053708908 7.6274144e-19)
(-0.015569448 0.0056965344 -1.6672494e-18)
(-0.014718808 0.0059778986 -3.211857e-19)
(-0.013896108 0.0062174851 1.6962644e-18)
(-0.013102052 0.0064178023 6.9377992e-19)
(-0.012337197 0.0065813532 -1.9179399e-18)
(-0.011601952 0.0067106253 -2.0581899e-18)
(-0.010896585 0.0068080793 -1.2713927e-19)
(-0.010221226 0.006876139 1.2986635e-18)
(-0.0095758676 0.0069171808 1.3738804e-18)
(-0.0089603782 0.0069335251 3.9459253e-19)
(-0.0083745029 0.0069274259 -8.1360684e-19)
(-0.0078178729 0.0069010635 7.6706155e-19)
(-0.0072900132 0.0068565364 1.2539796e-18)
(-0.0067903513 0.006795855 3.1412352e-19)
(-0.0063182261 0.0067209357 -6.0884973e-19)
(-0.0058728969 0.0066335961 -1.4199888e-18)
(-0.0054535527 0.0065355504 -6.9326042e-20)
(-0.0050593226 0.0064284072 3.8252467e-20)
(-0.0046892844 0.0063136674 -8.6516933e-20)
(-0.0043424747 0.0061927222 -6.0952762e-19)
(-0.0040178983 0.0060668539 -9.0975155e-19)
(-0.0037145372 0.0059372367 -6.5705508e-19)
(-0.0026988935 -0.10618959 3.7259437e-17)
(-0.0062374736 -0.10600708 -1.3554615e-16)
(-0.010201204 -0.10526851 -2.6560884e-19)
(-0.013921036 -0.10410117 9.2153069e-18)
(-0.017618704 -0.10251176 1.9808642e-17)
(-0.021122634 -0.10055118 1.2298607e-18)
(-0.024408219 -0.098272985 -1.8546551e-17)
(-0.027457615 -0.095722452 3.2238325e-17)
(-0.030256979 -0.092941512 8.9527397e-18)
(-0.032797316 -0.089970518 -5.6021267e-18)
(-0.035075163 -0.086848348 1.8539093e-17)
(-0.037092037 -0.083611865 1.6765376e-17)
(-0.038853684 -0.080295263 1.2840648e-17)
(-0.040369273 -0.076929546 2.0476581e-17)
(-0.041650563 -0.073542211 8.5059587e-18)
(-0.042711122 -0.07015713 -8.6569467e-19)
(-0.043565629 -0.066794601 1.4594558e-17)
(-0.044229276 -0.063471526 2.067328e-17)
(-0.044717284 -0.060201684 2.4960643e-17)
(-0.045044533 -0.056996059 2.1690165e-17)
(-0.04522528 -0.053863193 2.5468728e-17)
(-0.045272982 -0.050809533 1.4953156e-17)
(-0.045200178 -0.047839772 9.0766968e-18)
(-0.045018435 -0.044957154 2.2206264e-17)
(-0.044738339 -0.042163753 -1.4884824e-18)
(-0.044369521 -0.039460715 1.5453351e-19)
(-0.043920707 -0.036848468 1.2489507e-17)
(-0.04339978 -0.034326896 1.7060513e-17)
(-0.042813858 -0.031895485 2.2603194e-17)
(-0.042169376 -0.029553439 -5.9350586e-20)
(-0.041472162 -0.027299773 1.1768682e-18)
(-0.040727513 -0.025133375 7.8288396e-18)
(-0.039940271 -0.023053064 7.7994392e-18)
(-0.039114888 -0.021057622 1.2336929e-17)
(-0.038255482 -0.019145819 -4.9696067e-18)
(-0.037365894 -0.017316427 5.0345803e-19)
(-0.03644973 -0.015568225 5.1231055e-18)
(-0.0355104 -0.0139 5.9300502e-18)
(-0.034551151 -0.012310542 8.3611097e-18)
(-0.033575091 -0.010798637 -3.1471302e-18)
(-0.032585207 -0.0093630555 -4.4980952e-18)
(-0.031584384 -0.0080025492 -3.2307707e-18)
(-0.030575413 -0.0067158357 -7.366934e-18)
(-0.029561 -0.0055015889 -4.6680613e-18)
(-0.028543766 -0.0043584282 -2.0648836e-18)
(-0.027526249 -0.0032849126 -2.2426407e-18)
(-0.026510905 -0.0022795364 -5.9885576e-18)
(-0.02550011 -0.0013407231 -7.2409437e-18)
(-0.024496176 -0.00046681269 -4.7554821e-18)
(-0.023501301 0.00034394526 -4.7239681e-19)
(-0.022517471 0.0010932696 1.0457316e-18)
(-0.021546783 0.0017831063 -7.9611169e-19)
(-0.020591086 0.0024153949 -6.2927533e-19)
(-0.019652147 0.002992159 -1.8725713e-18)
(-0.018731607 0.0035154867 -1.2060608e-18)
(-0.017830985 0.0039875246 7.5446505e-19)
(-0.01695167 0.0044104706 1.1368109e-18)
(-0.016094917 0.0047865662 1.0380972e-18)
(-0.015261844 0.0051180881 -1.8151557e-18)
(-0.014453435 0.005407339 -2.4235778e-18)
(-0.013670531 0.0056566372 -6.0532005e-19)
(-0.012913838 0.0058683088 -1.3041895e-18)
(-0.012183924 0.0060446761 -2.3161124e-18)
(-0.011481219 0.0061880481 -2.3669279e-18)
(-0.010806024 0.0063007113 -1.0297342e-18)
(-0.010158507 0.0063849196 1.53651e-19)
(-0.0095387144 0.0064428851 1.2478823e-19)
(-0.008946572 0.0064767698 3.6589976e-20)
(-0.0083818924 0.0064886769 -8.8223288e-19)
(-0.0078443816 0.0064806435 -3.7174142e-20)
(-0.0073336462 0.0064546335 5.4310704e-19)
(-0.0068492009 0.0064125313 -4.1619435e-20)
(-0.006390477 0.0063561372 -9.1920776e-19)
(-0.0059568306 0.0062871617 -1.3993338e-18)
(-0.0055475506 0.0062072226 -5.2346082e-19)
(-0.0051618684 0.0061178416 -3.9448039e-19)
(-0.0047989655 0.0060204432 -7.0335885e-19)
(-0.0044579831 0.0059163522 -9.7325851e-19)
(-0.0041380301 0.0058067941 -1.0262187e-18)
(-0.0038381918 0.0056928964 -9.0403238e-19)
(-0.0024388986 -0.098562423 2.0548833e-17)
(-0.0056328287 -0.09840804 -1.0595954e-16)
(-0.0092159649 -0.097772701 5.6325817e-17)
(-0.012586727 -0.096763464 1.3888305e-16)
(-0.015946395 -0.095382847 1.214144e-16)
(-0.019142061 -0.093672592 3.5299824e-17)
(-0.022152123 -0.091677414 7.0500622e-17)
(-0.02496066 -0.089435306 8.4911919e-17)
(-0.027554916 -0.086981484 7.3977635e-17)
(-0.029925976 -0.084349928 3.6652306e-17)
(-0.032069431 -0.08157356 3.3441249e-17)
(-0.033984994 -0.078683862 4.5960254e-18)
(-0.035675955 -0.075710357 8.6221153e-18)
(-0.037148584 -0.072680174 9.9690987e-20)
(-0.038411506 -0.069617738 -2.735634e-18)
(-0.039475089 -0.066544629 8.4566508e-18)
(-0.04035088 -0.063479557 1.5274981e-18)
(-0.041051116 -0.060438458 1.8485338e-18)
(-0.041588302 -0.057434656 -2.1092618e-18)
(-0.041974879 -0.054479097 -3.3660533e-18)
(-0.042222968 -0.051580604 -1.1212841e-17)
(-0.042344184 -0.04874614 -1.5299283e-17)
(-0.042349507 -0.045981075 4.02454e-18)
(-0.042249207 -0.043289434 1.3538397e-18)
(-0.042052814 -0.040674124 1.0203619e-17)
(-0.041769106 -0.038137142 1.0481555e-17)
(-0.041406138 -0.03567975 -1.7577775e-18)
(-0.040971275 -0.033302633 4.6486288e-18)
(-0.040471243 -0.031006028 3.4383255e-18)
(-0.039912184 -0.028789836 9.5630905e-18)
(-0.039299715 -0.026653701 1.1170465e-17)
(-0.038638987 -0.024597086 -2.6692187e-18)
(-0.03793474 -0.022619316 -3.0952735e-19)
(-0.037191359 -0.020719625 -2.9182404e-19)
(-0.036412919 -0.018897183 5.6675457e-18)
(-0.035603229 -0.017151108 1.0524831e-17)
(-0.034765874 -0.015480489 -1.9033326e-18)
(-0.033904244 -0.013884379 6.7916683e-19)
(-0.033021562 -0.012361806 -1.1057461e-18)
(-0.032120911 -0.010911767 1.2200784e-18)
(-0.031205245 -0.0095332221 8.6220078e-18)
(-0.030277411 -0.0082250934 -3.6954447e-19)
(-0.029340154 -0.0069862569 -5.6353403e-18)
(-0.028396126 -0.005815536 -2.8210744e-18)
(-0.027447889 -0.0047116939 -1.9810792e-18)
(-0.026497919 -0.0036734288 -1.7641024e-18)
(-0.025548603 -0.0026993718 -4.4626067e-18)
(-0.024602243 -0.0017880837 -4.5808062e-18)
(-0.023661051 -0.00093804834 -2.8210766e-18)
(-0.022727225 -0.00014765626 5.6901106e-19)
(-0.021802649 0.00058472441 1.3674305e-18)
(-0.020889285 0.0012608146 -2.3477587e-19)
(-0.019988978 0.0018824354 -1.1526804e-18)
(-0.019103417 0.0024514507 -1.3323049e-18)
(-0.018234187 0.0029697907 1.7660896e-18)
(-0.017382755 0.0034394394 -2.3396268e-19)
(-0.016550464 0.0038624297 1.0304956e-20)
(-0.015738534 0.0042408354 1.5028519e-18)
(-0.014948057 0.0045767639 -2.4669862e-19)
(-0.014179996 0.0048723474 -2.4266436e-19)
(-0.013435185 0.0051297342 -1.595407e-18)
(-0.012714327 0.0053510807 -1.7747109e-18)
(-0.012017999 0.0055385411 -9.2996347e-19)
(-0.011346652 0.0056942591 -1.0954146e-18)
(-0.010700611 0.005820359 6.2156683e-19)
(-0.010080082 0.0059189371 -4.2900567e-19)
(-0.0094851557 0.0059920525 -1.2324852e-19)
(-0.0089158103 0.0060417199 1.0120601e-18)
(-0.0083719186 0.006069902 1.5831276e-19)
(-0.0078532536 0.0060785023 7.223074e-19)
(-0.0073594951 0.0060693587 -2.9216432e-19)
(-0.0068902365 0.006044238 -5.0083243e-19)
(-0.0064449924 0.0060048307 -2.8013911e-19)
(-0.0060232057 0.005952747 -3.746284e-19)
(-0.0056242562 0.005889513 2.4634998e-19)
(-0.0052474675 0.0058165683 -9.8552444e-19)
(-0.0048921158 0.0057352636 -1.1250521e-18)
(-0.004557437 0.00564686 -5.7568398e-19)
(-0.004242635 0.0055525278 -4.4197826e-19)
(-0.0039468889 0.005453348 -1.5702693e-19)
(-0.0022105184 -0.091663952 1.1926334e-16)
(-0.005102301 -0.091532511 1.6674131e-16)
(-0.0083509582 -0.090983359 6.6062453e-17)
(-0.011413915 -0.090106966 1.9349725e-17)
(-0.01447444 -0.088902741 2.2208983e-17)
(-0.017395715 -0.087404911 3.1633341e-18)
(-0.020158651 -0.085650893 6.7277858e-18)
(-0.022748964 -0.083672653 5.5809522e-17)
(-0.025154873 -0.081499905 1.5549487e-17)
(-0.027367686 -0.079161416 -7.8830202e-18)
(-0.029382426 -0.076685203 -9.0342295e-18)
(-0.031197555 -0.074098261 -3.8608294e-18)
(-0.032814575 -0.07142615 7.244202e-18)
(-0.034237579 -0.068692622 5.2669944e-18)
(-0.035472773 -0.06591935 1.8504343e-17)
(-0.036527999 -0.063125764 -2.8296594e-17)
(-0.037412284 -0.060329 -1.6552949e-17)
(-0.038135435 -0.057543922 -6.8179472e-18)
(-0.038707682 -0.054783227 1.4854074e-18)
(-0.039139386 -0.052057597 1.4628462e-17)
(-0.039440809 -0.049375878 -1.3219755e-17)
(-0.039621926 -0.046745284 -7.5040425e-18)
(-0.039692305 -0.044171598 1.7847265e-19)
(-0.039661016 -0.041659373 8.7080673e-18)
(-0.039536578 -0.039212115 1.9309077e-17)
(-0.039326943 -0.036832453 -2.408971e-18)
(-0.039039486 -0.034522296 -2.3608538e-18)
(-0.038681031 -0.032282962 5.9010179e-18)
(-0.038257872 -0.030115295 8.1593812e-18)
(-0.037775817 -0.028019768 1.7073792e-17)
(-0.037240223 -0.025996556 -2.2485803e-19)
(-0.036656042 -0.024045606 -6.1452281e-18)
(-0.036027865 -0.022166684 -2.8405307e-20)
(-0.035359961 -0.020359422 1.4649855e-18)
(-0.034656316 -0.01862334 1.0972848e-17)
(-0.033920671 -0.016957874 -1.9134774e-18)
(-0.033156552 -0.015362391 -5.0383453e-18)
(-0.032367297 -0.013836195 -3.5316352e-19)
(-0.031556082 -0.012378537 1.5889726e-18)
(-0.03072594 -0.010988611 6.9060694e-18)
(-0.029879777 -0.0096655597 2.7146891e-19)
(-0.029020384 -0.008408471 -3.2996622e-18)
(-0.02815045 -0.0072163744 -1.5852601e-18)
(-0.027272567 -0.0060882384 -2.5931925e-18)
(-0.026389233 -0.0050229664 -4.2715543e-18)
(-0.025502856 -0.0040193924 -3.4541996e-18)
(-0.024615755 -0.0030762806 -1.4866093e-18)
(-0.023730159 -0.0021923249 -6.4144044e-19)
(-0.022848216 -0.0013661457 -1.6499874e-18)
(-0.021971961 -0.00059629038 -1.2920454e-18)
(-0.021103417 0.00011882215 -1.5611538e-18)
(-0.020244298 0.00078068715 8.2092267e-20)
(-0.019396439 0.0013910083 9.9021359e-20)
(-0.018561471 0.0019515004 9.2309967e-19)
(-0.017740922 0.0024639446 1.6318893e-18)
(-0.016936211 0.0029301737 -3.0504885e-18)
(-0.01614864 0.0033520655 -8.6213633e-19)
(-0.015379395 0.0037315375 8.6850404e-19)
(-0.01462954 0.0040705386 9.1212361e-19)
(-0.01390002 0.0043710428 4.114837e-19)
(-0.013191657 0.0046350397 -3.1023028e-18)
(-0.012505155 0.0048645279 -2.5176563e-18)
(-0.011841097 0.0050615056 -1.0221862e-18)
(-0.011199947 0.0052279625 -7.2302223e-20)
(-0.010582056 0.0053658725 9.168187e-19)
(-0.0099876619 0.0054771847 -1.4860001e-18)
(-0.0094168931 0.0055638162 -3.5070979e-19)
(-0.0088697753 0.0056276445 1.0186422e-18)
(-0.008346235 0.0056705013 2.6203633e-19)
(-0.0078461049 0.0056941652 6.1996551e-19)
(-0.0073691304 0.0057003563 -8.8050128e-19)
(-0.0069149756 0.0056907309 -7.7896904e-19)
(-0.0064832299 0.0056668768 -4.1870087e-19)
(-0.0060734155 0.0056303091 -1.848848e-19)
(-0.0056849933 0.0055824674 3.8914048e-19)
(-0.0053173713 0.0055247129 -1.4395777e-18)
(-0.0049699109 0.0054583263 -1.536831e-18)
(-0.0046419343 0.0053845067 -8.4743977e-19)
(-0.0043327319 0.0053043711 -5.4214486e-19)
(-0.0040415687 0.0052189548 2.4917156e-19)
(-0.0020093071 -0.085405709 1.1525101e-16)
(-0.004635352 -0.085293138 1.3081526e-16)
(-0.0075891404 -0.084816219 1.1421341e-18)
(-0.010379784 -0.084051811 -1.1850761e-16)
(-0.013174633 -0.082997075 -4.7754904e-17)
(-0.015850828 -0.081680119 -1.0759174e-16)
(-0.018391442 -0.08013234 -6.0310819e-17)
(-0.020783626 -0.078380714 -2.8606548e-17)
(-0.023016509 -0.076450412 -5.9606877e-17)
(-0.025081718 -0.074365895 -2.3718011e-17)
(-0.026973977 -0.072151109 9.6521148e-18)
(-0.0286909 -0.069829281 3.6930505e-17)
(-0.03023269 -0.067422593 1.2456038e-17)
(-0.031601802 -0.064951866 2.1854741e-17)
(-0.032802578 -0.062436316 3.0560199e-18)
(-0.033840868 -0.059893397 5.3401358e-18)
(-0.034723671 -0.057338721 1.7042346e-17)
(-0.035458802 -0.054786053 6.2662786e-18)
(-0.036054594 -0.05224736 1.2962973e-17)
(-0.03651964 -0.049732905 2.6788922e-18)
(-0.036862591 -0.04725138 8.7706359e-19)
(-0.037091983 -0.044810051 -4.6594737e-18)
(-0.037216116 -0.042414911 -1.5098523e-18)
(-0.037242957 -0.04007084 7.4129867e-18)
(-0.037180088 -0.037781752 -9.3708311e-19)
(-0.037034663 -0.035550736 -7.5446511e-18)
(-0.036813395 -0.033380183 -3.5117024e-18)
(-0.03652256 -0.031271902 2.0750016e-18)
(-0.036168007 -0.02922722 7.7213464e-18)
(-0.035755177 -0.027247072 2.196111e-18)
(-0.035289138 -0.025332073 -7.0645009e-18)
(-0.034774609 -0.023482574 -6.7411785e-18)
(-0.034215991 -0.021698721 -1.8913144e-18)
(-0.033617404 -0.019980485 4.4557005e-18)
(-0.032982711 -0.018327698 3.0398225e-18)
(-0.032315551 -0.016740077 -8.15942e-18)
(-0.031619364 -0.015217241 -4.6035319e-18)
(-0.030897411 -0.013758723 -9.4035634e-19)
(-0.030152798 -0.012363977 6.5478775e-18)
(-0.029388489 -0.011032386 1.2125758e-18)
(-0.028607326 -0.0097632643 -4.0474741e-18)
(-0.027812035 -0.0085558566 -3.9574345e-18)
(-0.027005238 -0.00740934 -7.9738823e-18)
(-0.026189457 -0.0063228226 -5.899532e-18)
(-0.025367123 -0.0052953425 -3.7561722e-18)
(-0.024540573 -0.0043258649 3.0059525e-19)
(-0.023712055 -0.0034132821 2.2021229e-19)
(-0.022883727 -0.0025564159 -3.0542514e-18)
(-0.022057656 -0.0017540148 -3.3173939e-18)
(-0.021235818 -0.0010047444 -1.2671999e-18)
(-0.020420122 -0.00030722408 2.4578303e-19)
(-0.019612349 0.00034004413 9.2924241e-19)
(-0.018814134 0.00093851268 4.1976653e-19)
(-0.018027108 0.0014898018 5.8229036e-19)
(-0.017252737 0.0019955471 -6.4649907e-19)
(-0.016492394 0.0024574376 -8.8992829e-19)
(-0.015747343 0.002877206 8.0054411e-19)
(-0.015018735 0.0032566232 4.9955386e-19)
(-0.014307609 0.0035974906 6.2297039e-19)
(-0.013614892 0.0039016344 -3.0041757e-19)
(-0.012941394 0.0041708964 -1.3592471e-18)
(-0.012287816 0.0044071284 -1.5228649e-18)
(-0.011654746 0.0046121833 -2.002348e-18)
(-0.011042661 0.0047879077 -3.3297256e-19)
(-0.010451931 0.0049361353 2.0685488e-19)
(-0.0098828212 0.0050586784 -4.9167346e-19)
(-0.0093354957 0.0051573218 2.6098089e-19)
(-0.0088100211 0.0052338151 6.160948e-19)
(-0.0083063715 0.0052898676 2.098596e-19)
(-0.0078244331 0.0053271412 6.0007107e-19)
(-0.0073640102 0.005347246 9.4175908e-21)
(-0.0069248302 0.0053517342 -1.6073449e-19)
(-0.0065065502 0.0053420971 -6.8341597e-19)
(-0.0061087631 0.0053197605 -3.4111773e-19)
(-0.0057310039 0.0052860817 1.5183415e-19)
(-0.0053727565 0.0052423473 -9.9116716e-19)
(-0.0050334598 0.0051897712 -1.1214335e-18)
(-0.0047125145 0.0051294932 -7.9760083e-19)
(-0.0044092897 0.0050625782 -2.8673559e-19)
(-0.0041231287 0.0049900168 2.8284979e-19)
(-0.0018314352 -0.079711901 2.032001e-17)
(-0.0042229394 -0.079614969 -1.2692226e-16)
(-0.0069159072 -0.079198866 6.4448051e-17)
(-0.0094648504 -0.078529241 -5.3668398e-17)
(-0.012022992 -0.077601675 -9.1584055e-18)
(-0.014479639 -0.076439303 1.2727867e-17)
(-0.016819746 -0.075068561 -2.3245709e-17)
(-0.019031749 -0.073512291 -2.9749282e-17)
(-0.021105633 -0.071791892 -1.8117851e-17)
(-0.023033416 -0.069928246 -1.2471336e-17)
(-0.024809711 -0.067941895 -6.4524052e-18)
(-0.026431574 -0.06585289 -1.9069592e-17)
(-0.027898276 -0.063680522 -2.4967731e-17)
(-0.029211048 -0.061443067 -2.196429e-17)
(-0.030372791 -0.059157561 -1.7855481e-17)
(-0.031387786 -0.056839655 -1.9745829e-18)
(-0.032261404 -0.054503526 -1.2789117e-17)
(-0.03299983 -0.052161848 -1.4707445e-17)
(-0.033609817 -0.049825804 -1.010329e-17)
(-0.034098463 -0.04750515 -9.4435396e-18)
(-0.034473035 -0.045208296 -7.6205671e-18)
(-0.034740807 -0.042942414 -8.6695635e-18)
(-0.034908951 -0.040713557 -1.1881678e-17)
(-0.03498444 -0.038526774 -5.6116172e-18)
(-0.034973985 -0.036386236 -5.0012026e-18)
(-0.034883994 -0.034295346 -1.1948574e-17)
(-0.034720543 -0.032256846 -1.3807613e-17)
(-0.034489369 -0.030272915 -7.0161478e-18)
(-0.03419587 -0.028345255 8.5313513e-19)
(-0.033845113 -0.026475168 1.8604361e-19)
(-0.033441854 -0.024663624 -1.0640377e-17)
(-0.032990555 -0.022911314 -1.0777046e-17)
(-0.032495405 -0.021218697 -2.9759171e-18)
(-0.031960346 -0.019586037 4.5015222e-18)
(-0.031389094 -0.018013437 1.2171287e-18)
(-0.030785162 -0.01650086 -5.8329227e-18)
(-0.030151879 -0.01504815 -2.8238035e-18)
(-0.029492409 -0.013655045 6.1998943e-19)
(-0.028809771 -0.012321187 4.0846447e-18)
(-0.028106847 -0.011046134 3.7473343e-18)
(-0.027386399 -0.0098293574 3.0888389e-18)
(-0.026651077 -0.0086702514 -4.8129479e-18)
(-0.025903428 -0.0075681329 -8.8487404e-18)
(-0.025145901 -0.006522243 -5.2293141e-18)
(-0.024380851 -0.0055317479 -2.0151719e-18)
(-0.023610543 -0.0045957384 1.9743462e-18)
(-0.022837153 -0.00371323 -2.319089e-18)
(-0.022062765 -0.0028831655 -4.6966529e-18)
(-0.021289374 -0.0021044158 -1.7884261e-18)
(-0.020518888 -0.0013757792 1.1694247e-19)
(-0.019753124 -0.00069599096 1.7530139e-18)
(-0.018993871 -6.3690638e-05 3.4558886e-19)
(-0.018242654 0.00052248951 -6.4337872e-19)
(-0.017501033 0.001063986 -1.378987e-18)
(-0.01677045 0.001562328 -7.8117347e-19)
(-0.01605223 0.002019065 2.2193855e-18)
(-0.015347597 0.002435794 1.2126687e-18)
(-0.014657668 0.002814149 -4.139373e-20)
(-0.013983457 0.0031557941 -1.5145573e-18)
(-0.013325872 0.003462417 -6.2134917e-19)
(-0.012685713 0.0037357223 4.8801459e-19)
(-0.012063674 0.0039774249 -1.4443078e-18)
(-0.011460347 0.0041892423 -2.3209816e-18)
(-0.010876218 0.004372888 -1.6241574e-18)
(-0.010311676 0.0045300651 -9.3983344e-20)
(-0.009767008 0.0046624583 2.4760328e-19)
(-0.009242409 0.0047717291 -4.0151854e-19)
(-0.008737982 0.004859508 6.6833204e-22)
(-0.0082537432 0.0049273898 -3.5146929e-19)
(-0.0077896268 0.0049769275 7.1647183e-19)
(-0.0073454892 0.0050096275 8.5659084e-19)
(-0.006921115 0.0050269452 -1.3040662e-19)
(-0.0065162221 0.0050302806 -9.9820493e-19)
(-0.0061304673 0.005020975 -9.3570157e-19)
(-0.0057634522 0.0050003081 6.7615889e-20)
(-0.0054147296 0.0049694958 -3.8486219e-19)
(-0.0050838087 0.0049296879 -1.0439921e-18)
(-0.0047701615 0.004881967 -9.7060685e-19)
(-0.0044732285 0.0048273479 -3.3746327e-19)
(-0.0041924246 0.0047667771 -4.1786882e-20)
(-0.0016736497 -0.074517496 4.7988813e-17)
(-0.0038573993 -0.074433614 2.0204822e-17)
(-0.0063188755 -0.074068962 6.8902653e-17)
(-0.008652602 -0.073479911 1.0083805e-16)
(-0.010999209 -0.07266097 6.7154838e-17)
(-0.013258649 -0.07163123 5.7288402e-17)
(-0.015417527 -0.070413042 4.5760642e-17)
(-0.017465438 -0.069025808 5.0389319e-17)
(-0.019393174 -0.067487791 3.7421771e-17)
(-0.021193187 -0.065816882 2.0711479e-17)
(-0.022860113 -0.064030761 1.7428924e-17)
(-0.024390666 -0.062146788 -1.1158042e-17)
(-0.025783459 -0.060181781 -7.8523401e-19)
(-0.027038807 -0.058151798 -1.0564329e-17)
(-0.028158507 -0.056071948 4.670115e-18)
(-0.029145606 -0.053956253 2.8307056e-19)
(-0.030004167 -0.051817553 -8.5341507e-18)
(-0.030739045 -0.049667466 -1.4316996e-18)
(-0.03135568 -0.047516384 1.5821508e-18)
(-0.031859911 -0.045373496 6.5474186e-18)
(-0.032257816 -0.043246849 1.737052e-17)
(-0.032555577 -0.041143422 1.2082758e-17)
(-0.032759365 -0.039069208 -1.055915e-18)
(-0.032875261 -0.037029309 6.1842524e-18)
(-0.032909182 -0.035028033 -8.7249502e-19)
(-0.032866843 -0.033068981 -1.7571397e-18)
(-0.032753716 -0.031155137 3.4073508e-18)
(-0.03257502 -0.029288946 3.3234683e-18)
(-0.032335709 -0.027472395 8.4660858e-18)
(-0.032040473 -0.025707072 -1.1563875e-19)
(-0.031693749 -0.023994229 -4.5564752e-18)
(-0.031299727 -0.022334832 5.0294113e-19)
(-0.030862369 -0.020729602 2.2713064e-18)
(-0.030385421 -0.019179049 6.0825301e-18)
(-0.029872433 -0.017683507 -1.3556161e-18)
(-0.029326773 -0.016243153 -3.9257512e-19)
(-0.028751644 -0.014858029 3.884662e-18)
(-0.028150097 -0.013528056 4.1964501e-18)
(-0.027525048 -0.012253049 6.5467746e-18)
(-0.026879285 -0.011032719 6.5762302e-18)
(-0.026215481 -0.0098666873 2.4044298e-18)
(-0.025536201 -0.0087544863 -6.1216657e-18)
(-0.02484391 -0.0076955639 -7.5708448e-18)
(-0.024140976 -0.0066892866 -3.6036103e-18)
(-0.023429679 -0.0057349421 1.1387745e-18)
(-0.022712205 -0.0048317399 1.5549016e-18)
(-0.021990657 -0.003978813 -4.0636078e-18)
(-0.021267047 -0.0031752198 -3.8597979e-18)
(-0.020543299 -0.0024199477 -7.8906946e-19)
(-0.019821254 -0.001711916 2.5763487e-18)
(-0.019102664 -0.0010499747 2.845526e-18)
(-0.018389191 -0.00043291045 1.0972033e-18)
(-0.017682464 0.0001405959 5.8399019e-20)
(-0.016983854 0.00067181405 -1.1936179e-18)
(-0.016294783 0.0011621414 3.1371935e-18)
(-0.015616544 0.0016130062 3.0668862e-18)
(-0.014950319 0.0020258807 9.2261804e-19)
(-0.014297196 0.0024022713 1.3329675e-18)
(-0.013658161 0.0027437138 -7.8222648e-19)
(-0.013034102 0.0030517671 1.1077899e-18)
(-0.012425809 0.0033280077 9.5578385e-19)
(-0.01183397 0.0035740227 -1.2167534e-18)
(-0.011259177 0.0037914036 -9.8396265e-19)
(-0.010701925 0.00398174 -8.0286829e-19)
(-0.010162614 0.004146613 1.7037686e-18)
(-0.0096415536 0.0042875888 9.2577864e-19)
(-0.0091389645 0.0044062136 -3.0966276e-19)
(-0.0086549816 0.0045040068 8.1172506e-19)
(-0.0081896586 0.004582456 3.8972008e-19)
(-0.0077429719 0.0046430124 1.7770528e-18)
(-0.0073148251 0.0046870855 1.2349699e-18)
(-0.0069050534 0.0047160392 1.3806863e-19)
(-0.0065134293 0.004731188 -4.8859744e-20)
(-0.0061396674 0.0047337935 -3.4869437e-19)
(-0.0057834297 0.0047250618 9.1684969e-19)
(-0.0054443308 0.0047061413 1.2311101e-19)
(-0.0051219438 0.0046781208 -8.667014e-19)
(-0.0048158055 0.0046420282 -4.9358538e-19)
(-0.0045254214 0.0045988295 -2.6463677e-19)
(-0.0042502717 0.0045494287 4.6142897e-20)
(-0.0015332007 -0.069766534 7.7789416e-17)
(-0.0035322651 -0.069693609 6.8151984e-17)
(-0.0057875861 -0.069372697 5.1310258e-17)
(-0.0079290776 -0.068852451 9.9087561e-17)
(-0.010086099 -0.068126682 4.8953556e-17)
(-0.012167955 -0.067211197 -3.1844802e-17)
(-0.014162701 -0.066124964 8.6645714e-17)
(-0.016060977 -0.06488453 5.0058895e-17)
(-0.017854333 -0.063505536 3.7970274e-17)
(-0.019535679 -0.062003362 5.1776656e-17)
(-0.021099768 -0.060393278 2.1614535e-17)
(-0.022543128 -0.058690351 1.6749041e-17)
(-0.023863918 -0.056909276 1.6377509e-17)
(-0.02506178 -0.055064185 1.4531437e-17)
(-0.026137667 -0.053168483 1.8618406e-17)
(-0.027093654 -0.051234723 -4.2069223e-18)
(-0.027932758 -0.049274518 1.8420629e-17)
(-0.02865875 -0.047298484 1.6324719e-17)
(-0.029275982 -0.045316229 1.4653309e-17)
(-0.029789235 -0.043336355 1.9129894e-17)
(-0.030203573 -0.041366494 2.297679e-18)
(-0.030524228 -0.039413359 -7.6892991e-18)
(-0.030756497 -0.037482804 3.7559525e-18)
(-0.030905661 -0.035579892 4.6374793e-18)
(-0.030976923 -0.033708974 -1.2811078e-18)
(-0.030975355 -0.031873757 3.2004883e-18)
(-0.030905869 -0.030077377 -4.3584734e-18)
(-0.03077319 -0.028322465 1.4177413e-18)
(-0.030581844 -0.026611211 5.5416121e-18)
(-0.03033615 -0.02494542 -1.5328853e-18)
(-0.030040225 -0.023326566 5.1638244e-19)
(-0.029697982 -0.021755832 -5.1684608e-18)
(-0.029313146 -0.020234151 -8.3024421e-19)
(-0.028889258 -0.01876224 2.8863429e-18)
(-0.028429688 -0.017340626 -1.7448226e-19)
(-0.027937646 -0.015969671 3.8416677e-18)
(-0.027416198 -0.014649589 -1.5811713e-18)
(-0.02686827 -0.013380463 2.7916418e-19)
(-0.026296664 -0.012162257 -1.8941827e-19)
(-0.025704064 -0.010994828 -4.7660559e-18)
(-0.025093045 -0.0098779309 -4.3457693e-18)
(-0.024466082 -0.0088112246 -1.0650625e-18)
(-0.02382555 -0.0077942793 5.932217e-19)
(-0.023173736 -0.0068265789 -2.0951399e-18)
(-0.022512836 -0.0059075249 -2.3731792e-18)
(-0.02184496 -0.0050364389 -2.9356061e-18)
(-0.021172134 -0.0042125645 2.8220634e-19)
(-0.020496297 -0.00343507 2.0633269e-18)
(-0.019819305 -0.0027030524 -5.5739366e-19)
(-0.01914293 -0.0020155416 4.5005832e-19)
(-0.018468858 -0.0013714977 -4.9663108e-20)
(-0.01779869 -0.00076981891 1.5155248e-18)
(-0.017133958 -0.00020934109 5.7373243e-19)
(-0.016476078 0.00031118799 9.5181953e-19)
(-0.015826362 0.00079296271 3.9988566e-18)
(-0.015186064 0.0012373222 3.8766511e-20)
(-0.014556329 0.0016456194 1.6411983e-18)
(-0.013938217 0.0020192403 2.2589323e-18)
(-0.013332689 0.0023596004 1.4394164e-18)
(-0.012740616 0.0026681383 1.4168629e-18)
(-0.012162771 0.0029463109 -1.0982471e-18)
(-0.011599837 0.0031955865 -1.0686178e-19)
(-0.011052404 0.0034174391 1.9910967e-19)
(-0.010520974 0.0036133423 5.3716404e-19)
(-0.010005957 0.0037847639 1.5991888e-18)
(-0.009507681 0.0039331596 -3.8812789e-19)
(-0.0090263879 0.0040599678 5.0023468e-19)
(-0.008562241 0.0041666039 1.4901174e-18)
(-0.008115327 0.0042544558 1.1142688e-18)
(-0.0076856598 0.0043248792 1.532136e-18)
(-0.0072731846 0.0043791925 9.3722995e-20)
(-0.0068777826 0.0044186738 2.0136861e-19)
(-0.006499275 0.0044445571 4.0961616e-19)
(-0.0061374282 0.0044580287 3.799875e-19)
(-0.0057919584 0.004460225 8.1779793e-19)
(-0.0054625366 0.0044522304 -5.9397856e-19)
(-0.0051487937 0.0044350753 -7.4928244e-19)
(-0.004850325 0.0044097351 -3.2444738e-19)
(-0.0045666956 0.0043771288 -3.6581107e-20)
(-0.004297445 0.0043381191 2.8383786e-19)
(-0.0014077662 -0.065410699 6.8487702e-17)
(-0.0032420849 -0.065347024 5.0842396e-17)
(-0.0053132113 -0.065063473 -7.6908906e-18)
(-0.0072824754 -0.064602244 -6.8175926e-17)
(-0.0092691141 -0.06395673 -1.4047635e-17)
(-0.011190675 -0.063140059 -1.1438869e-18)
(-0.01303649 -0.062168397 1.4314909e-17)
(-0.01479814 -0.06105591 -1.3017251e-17)
(-0.016467887 -0.059816041 2.1551227e-17)
(-0.0180391 -0.058462059 -1.0730731e-17)
(-0.019506719 -0.057007189 -2.206219e-17)
(-0.020867197 -0.055464548 1.7648226e-18)
(-0.022118394 -0.053847 -8.5963628e-18)
(-0.023259463 -0.052167 1.6437399e-18)
(-0.024290713 -0.050436453 -3.5636616e-18)
(-0.025213463 -0.048666593 -2.5005307e-18)
(-0.026029891 -0.04686791 -6.1907267e-18)
(-0.026742887 -0.045050085 -8.4001425e-18)
(-0.027355905 -0.043221966 -7.5214248e-18)
(-0.027872836 -0.041391566 -9.9396221e-18)
(-0.028297883 -0.039566074 -1.2072782e-17)
(-0.028635459 -0.037751892 -1.4917252e-17)
(-0.028890093 -0.035954674 -7.1249018e-18)
(-0.029066361 -0.034179381 -1.1608788e-18)
(-0.029168819 -0.032430334 7.9515127e-18)
(-0.029201958 -0.030711273 -1.4463638e-18)
(-0.02917017 -0.029025415 -7.121047e-18)
(-0.029077715 -0.027375507 -7.8756801e-19)
(-0.028928712 -0.025763879 1.2522697e-18)
(-0.028727121 -0.024192494 7.2383221e-18)
(-0.028476743 -0.02266299 -1.0450927e-18)
(-0.028181218 -0.021176722 -6.5595186e-18)
(-0.027844029 -0.019734792 -1.7431269e-18)
(-0.027468505 -0.018338085 1.0022814e-18)
(-0.027057831 -0.016987289 7.9050002e-18)
(-0.026615052 -0.015682921 2.8307706e-19)
(-0.026143085 -0.014425343 -5.3427948e-18)
(-0.025644724 -0.013214781 -2.3366692e-18)
(-0.02512265 -0.012051331 -6.2663443e-19)
(-0.024579436 -0.010934978 5.3094567e-18)
(-0.024017554 -0.0098655976 9.2011906e-18)
(-0.02343938 -0.008842966 3.1131715e-18)
(-0.0228472 -0.0078667653 -5.2777974e-18)