/*--------------------------------*- C++ -*----------------------------------*\
| =========                 |                                                 |
| \\      /  F ield         | OpenFOAM: The Open Source CFD Toolbox           |
|  \\    /   O peration     | Version:  2106                                  |
|   \\  /    A nd           | Website:  www.openfoam.com                      |
|    \\/     M anipulation  |                                                 |
\*---------------------------------------------------------------------------*/
FoamFile
{
    version     2.0;
    format      ascii;
    arch        "LSB;label=32;scalar=64";
    class       volVectorField;
    location    "0.042";
    object      U;
}
// * * * * * * * * * * * * * * * * * * * * * * * * * * * * * * * * * * * * * //

dimensions      [0 1 -1 0 0 0 0];

internalField   nonuniform List<vector> 
65536
(
(0.00025408913 -0.00025400408 0)
(0.0007621061 -0.00025384285 0)
(0.0012696393 -0.00025352052 0)
(0.0017763667 -0.00025303731 0)
(0.0022819668 -0.00025239357 0)
(0.0027861188 -0.00025158978 0)
(0.0032885031 -0.0002506265 0)
(0.0037888013 -0.00024950446 0)
(0.0042866966 -0.00024822444 0)
(0.0047818739 -0.00024678738 0)
(0.00527402 -0.00024519433 0)
(0.0057628239 -0.00024344642 0)
(0.006247977 -0.00024154492 0)
(0.0067291736 -0.00023949119 0)
(0.0072061104 -0.00023728673 0)
(0.0076784875 -0.0002349331 0)
(0.0081460082 -0.00023243201 0)
(0.0086083792 -0.00022978524 0)
(0.0090653109 -0.00022699468 0)
(0.0095165176 -0.00022406233 0)
(0.0099617178 -0.00022099027 0)
(0.010400634 -0.00021778071 0)
(0.010832994 -0.0002144359 0)
(0.011258529 -0.00021095823 0)
(0.011676975 -0.00020735015 0)
(0.012088075 -0.00020361421 0)
(0.012491575 -0.00019975304 0)
(0.012887228 -0.00019576935 0)
(0.01327479 -0.00019166593 0)
(0.013654026 -0.00018744564 0)
(0.014024704 -0.00018311143 0)
(0.0143866 -0.00017866631 0)
(0.014739495 -0.00017411335 0)
(0.015083176 -0.0001694557 0)
(0.015417437 -0.00016469658 0)
(0.015742078 -0.00015983924 0)
(0.016056906 -0.00015488701 0)
(0.016361735 -0.00014984326 0)
(0.016656384 -0.00014471143 0)
(0.016940682 -0.00013949499 0)
(0.017214462 -0.00013419746 0)
(0.017477566 -0.0001288224 0)
(0.017729842 -0.00012337342 0)
(0.017971146 -0.00011785415 0)
(0.018201341 -0.00011226826 0)
(0.018420298 -0.00010661944 0)
(0.018627894 -0.00010091144 0)
(0.018824014 -9.5147985e-05 0)
(0.019008552 -8.9332858e-05 0)
(0.019181408 -8.3469844e-05 0)
(0.01934249 -7.7562745e-05 0)
(0.019491713 -7.1615376e-05 0)
(0.019629001 -6.563156e-05 0)
(0.019754285 -5.9615125e-05 0)
(0.019867503 -5.3569905e-05 0)
(0.019968602 -4.7499733e-05 0)
(0.020057535 -4.1408439e-05 0)
(0.020134265 -3.5299848e-05 0)
(0.020198759 -2.9177779e-05 0)
(0.020250996 -2.3046038e-05 0)
(0.020290959 -1.690842e-05 0)
(0.020318641 -1.0768704e-05 0)
(0.020334041 -4.63065e-06 0)
(0.020337167 1.502014e-06 0)
(0.020328032 7.6254819e-06 0)
(0.020306659 1.3736226e-05 0)
(0.020273077 1.9830467e-05 0)
(0.020227323 2.5904583e-05 0)
(0.02016944 3.1954978e-05 0)
(0.02009948 3.7978081e-05 0)
(0.020017501 4.3970358e-05 0)
(0.019923568 4.9928311e-05 0)
(0.019817752 5.5848481e-05 0)
(0.019700134 6.1727452e-05 0)
(0.019570799 6.756185e-05 0)
(0.019429839 7.3348345e-05 0)
(0.019277354 7.9083654e-05 0)
(0.019113449 8.4764542e-05 0)
(0.018938236 9.0387822e-05 0)
(0.018751834 9.5950359e-05 0)
(0.018554367 0.00010144907 0)
(0.018345966 0.00010688092 0)
(0.018126768 0.00011224294 0)
(0.017896915 0.0001175322 0)
(0.017656556 0.00012274584 0)
(0.017405845 0.00012788106 0)
(0.017144942 0.0001329351 0)
(0.016874011 0.00013790527 0)
(0.016593224 0.00014278895 0)
(0.016302755 0.00014758357 0)
(0.016002786 0.00015228661 0)
(0.015693502 0.00015689564 0)
(0.015375093 0.00016140827 0)
(0.015047755 0.00016582217 0)
(0.014711688 0.0001701351 0)
(0.014367095 0.00017434486 0)
(0.014014186 0.00017844932 0)
(0.013653172 0.00018244641 0)
(0.013284272 0.00018633415 0)
(0.012907705 0.00019011059 0)
(0.012523696 0.00019377386 0)
(0.012132473 0.00019732216 0)
(0.011734269 0.00020075375 0)
(0.011329317 0.00020406696 0)
(0.010917858 0.00020726018 0)
(0.010500131 0.00021033186 0)
(0.010076383 0.00021328054 0)
(0.0096468593 0.00021610479 0)
(0.0092118117 0.00021880328 0)
(0.0087714926 0.00022137471 0)
(0.0083261574 0.00022381788 0)
(0.007876064 0.00022613164 0)
(0.0074214722 0.00022831489 0)
(0.0069626442 0.00023036662 0)
(0.0064998441 0.00023228586 0)
(0.0060333377 0.00023407174 0)
(0.0055633929 0.00023572341 0)
(0.0050902787 0.00023724013 0)
(0.0046142659 0.00023862118 0)
(0.0041356266 0.00023986593 0)
(0.0036546339 0.00024097381 0)
(0.0031715623 0.00024194432 0)
(0.002686687 0.000242777 0)
(0.002200284 0.00024347149 0)
(0.0017126302 0.00024402745 0)
(0.001224003 0.00024444465 0)
(0.00073468014 0.00024472289 0)
(0.00024493978 0.00024486204 0)
(-0.00024493978 0.00024486204 0)
(-0.00073468014 0.00024472289 0)
(-0.001224003 0.00024444465 0)
(-0.0017126302 0.00024402745 0)
(-0.002200284 0.00024347149 0)
(-0.002686687 0.000242777 0)
(-0.0031715623 0.00024194432 0)
(-0.0036546339 0.00024097381 0)
(-0.0041356266 0.00023986593 0)
(-0.0046142659 0.00023862117 0)
(-0.0050902787 0.00023724013 0)
(-0.0055633929 0.00023572341 0)
(-0.0060333377 0.00023407174 0)
(-0.0064998441 0.00023228586 0)
(-0.0069626442 0.00023036662 0)
(-0.0074214722 0.00022831489 0)
(-0.007876064 0.00022613164 0)
(-0.0083261574 0.00022381788 0)
(-0.0087714926 0.00022137471 0)
(-0.0092118117 0.00021880328 0)
(-0.0096468593 0.00021610479 0)
(-0.010076383 0.00021328054 0)
(-0.010500131 0.00021033186 0)
(-0.010917858 0.00020726018 0)
(-0.011329317 0.00020406696 0)
(-0.011734269 0.00020075375 0)
(-0.012132473 0.00019732216 0)
(-0.012523696 0.00019377386 0)
(-0.012907705 0.00019011059 0)
(-0.013284272 0.00018633415 0)
(-0.013653172 0.00018244641 0)
(-0.014014186 0.00017844932 0)
(-0.014367095 0.00017434486 0)
(-0.014711688 0.0001701351 0)
(-0.015047755 0.00016582217 0)
(-0.015375093 0.00016140827 0)
(-0.015693502 0.00015689564 0)
(-0.016002786 0.00015228661 0)
(-0.016302755 0.00014758357 0)
(-0.016593224 0.00014278895 0)
(-0.016874011 0.00013790527 0)
(-0.017144942 0.0001329351 0)
(-0.017405845 0.00012788106 0)
(-0.017656556 0.00012274584 0)
(-0.017896915 0.0001175322 0)
(-0.018126768 0.00011224294 0)
(-0.018345966 0.00010688092 0)
(-0.018554367 0.00010144907 0)
(-0.018751834 9.5950359e-05 0)
(-0.018938236 9.0387822e-05 0)
(-0.019113449 8.4764542e-05 0)
(-0.019277354 7.9083654e-05 0)
(-0.019429839 7.3348345e-05 0)
(-0.019570799 6.756185e-05 0)
(-0.019700134 6.1727452e-05 0)
(-0.019817752 5.5848481e-05 0)
(-0.019923568 4.9928311e-05 0)
(-0.020017501 4.3970358e-05 0)
(-0.02009948 3.7978081e-05 0)
(-0.02016944 3.1954977e-05 0)
(-0.020227323 2.5904583e-05 0)
(-0.020273077 1.9830467e-05 0)
(-0.020306659 1.3736226e-05 0)
(-0.020328032 7.6254819e-06 0)
(-0.020337167 1.502014e-06 0)
(-0.020334041 -4.63065e-06 0)
(-0.020318641 -1.0768704e-05 0)
(-0.020290959 -1.690842e-05 0)
(-0.020250996 -2.3046038e-05 0)
(-0.020198759 -2.9177779e-05 0)
(-0.020134265 -3.5299848e-05 0)
(-0.020057535 -4.1408439e-05 0)
(-0.019968602 -4.7499733e-05 0)
(-0.019867503 -5.3569905e-05 0)
(-0.019754285 -5.9615125e-05 0)
(-0.019629001 -6.563156e-05 0)
(-0.019491713 -7.1615376e-05 0)
(-0.01934249 -7.7562745e-05 0)
(-0.019181408 -8.3469844e-05 0)
(-0.019008552 -8.9332858e-05 0)
(-0.018824014 -9.5147985e-05 0)
(-0.018627894 -0.00010091144 0)
(-0.018420298 -0.00010661944 0)
(-0.018201341 -0.00011226826 0)
(-0.017971146 -0.00011785415 0)
(-0.017729842 -0.00012337342 0)
(-0.017477566 -0.0001288224 0)
(-0.017214462 -0.00013419746 0)
(-0.016940682 -0.00013949499 0)
(-0.016656384 -0.00014471143 0)
(-0.016361735 -0.00014984326 0)
(-0.016056906 -0.00015488701 0)
(-0.015742078 -0.00015983924 0)
(-0.015417437 -0.00016469658 0)
(-0.015083176 -0.0001694557 0)
(-0.014739495 -0.00017411335 0)
(-0.0143866 -0.00017866631 0)
(-0.014024704 -0.00018311143 0)
(-0.013654026 -0.00018744564 0)
(-0.01327479 -0.00019166593 0)
(-0.012887228 -0.00019576935 0)
(-0.012491575 -0.00019975304 0)
(-0.012088075 -0.00020361421 0)
(-0.011676975 -0.00020735015 0)
(-0.011258529 -0.00021095823 0)
(-0.010832994 -0.0002144359 0)
(-0.010400634 -0.00021778071 0)
(-0.0099617178 -0.00022099027 0)
(-0.0095165176 -0.00022406233 0)
(-0.0090653109 -0.00022699468 0)
(-0.0086083792 -0.00022978524 0)
(-0.0081460082 -0.00023243201 0)
(-0.0076784875 -0.0002349331 0)
(-0.0072061104 -0.00023728673 0)
(-0.0067291736 -0.00023949119 0)
(-0.006247977 -0.00024154492 0)
(-0.0057628239 -0.00024344642 0)
(-0.00527402 -0.00024519433 0)
(-0.0047818739 -0.00024678738 0)
(-0.0042866966 -0.00024822444 0)
(-0.0037888013 -0.00024950446 0)
(-0.0032885031 -0.0002506265 0)
(-0.0027861188 -0.00025158978 0)
(-0.0022819668 -0.00025239357 0)
(-0.0017763667 -0.00025303731 0)
(-0.0012696393 -0.00025352052 0)
(-0.0007621061 -0.00025384285 0)
(-0.00025408913 -0.00025400408 0)
(0.00025436864 -0.00076222985 0)
(0.00076294444 -0.00076174603 0)
(0.001271036 -0.00076077873 0)
(0.0017783208 -0.00075932868 0)
(0.0022844769 -0.0007573969 0)
(0.0027891834 -0.00075498481 0)
(0.0032921202 -0.00075209415 0)
(0.0037929686 -0.00074872702 0)
(0.0042914114 -0.00074488585 0)
(0.0047871331 -0.00074057342 0)
(0.0052798201 -0.00073579284 0)
(0.0057691613 -0.00073054758 0)
(0.0062548476 -0.00072484141 0)
(0.0067365729 -0.00071867844 0)
(0.0072140337 -0.00071206311 0)
(0.0076869296 -0.00070500017 0)
(0.0081549637 -0.00069749469 0)
(0.0086178422 -0.00068955205 0)
(0.0090752755 -0.00068117793 0)
(0.0095269773 -0.00067237831 0)
(0.0099726659 -0.00066315946 0)
(0.010412064 -0.00065352795 0)
(0.010844897 -0.00064349061 0)
(0.011270899 -0.00063305456 0)
(0.011689803 -0.00062222717 0)
(0.012101354 -0.00061101609 0)
(0.012505296 -0.0005994292 0)
(0.012901381 -0.00058747465 0)
(0.013289368 -0.00057516081 0)
(0.013669018 -0.00056249627 0)
(0.014040102 -0.00054948987 0)
(0.014402393 -0.00053615063 0)
(0.014755673 -0.0005224878 0)
(0.015099729 -0.00050851082 0)
(0.015434355 -0.00049422931 0)
(0.01575935 -0.00047965308 0)
(0.016074521 -0.00046479209 0)
(0.016379682 -0.00044965648 0)
(0.016674652 -0.00043425654 0)
(0.016959259 -0.00041860271 0)
(0.017233337 -0.00040270554 0)
(0.017496726 -0.00038657572 0)
(0.017749276 -0.00037022407 0)
(0.017990842 -0.00035366149 0)
(0.018221286 -0.000336899 0)
(0.01844048 -0.0003199477 0)
(0.0186483 -0.00030281876 0)
(0.018844632 -0.00028552345 0)
(0.019029369 -0.00026807307 0)
(0.019202411 -0.000250479 0)
(0.019363666 -0.00023275263 0)
(0.019513049 -0.00021490542 0)
(0.019650484 -0.00019694885 0)
(0.019775902 -0.00017889439 0)
(0.019889241 -0.00016075356 0)
(0.019990447 -0.00014253786 0)
(0.020079474 -0.00012425877 0)
(0.020156283 -0.00010592779 0)
(0.020220845 -8.7556358e-05 0)
(0.020273135 -6.9155911e-05 0)
(0.020313139 -5.0737833e-05 0)
(0.020340847 -3.2313464e-05 0)
(0.020356261 -1.3894094e-05 0)
(0.020359386 4.5090421e-06 0)
(0.020350238 2.2884812e-05 0)
(0.020328838 4.1222153e-05 0)
(0.020295216 5.951002e-05 0)
(0.020249408 7.7737511e-05 0)
(0.020191459 9.5893814e-05 0)
(0.020121419 0.00011396822 0)
(0.020039347 0.00013195011 0)
(0.019945308 0.000149829 0)
(0.019839374 0.0001675945 0)
(0.019721624 0.00018523637 0)
(0.019592144 0.00020274447 0)
(0.019451028 0.00022010882 0)
(0.019298373 0.00023731957 0)
(0.019134286 0.00025436701 0)
(0.018958879 0.00027124157 0)
(0.018772271 0.00028793384 0)
(0.018574586 0.00030443458 0)
(0.018365955 0.00032073469 0)
(0.018146515 0.00033682523 0)
(0.017916409 0.00035269743 0)
(0.017675786 0.00036834272 0)
(0.017424799 0.00038375265 0)
(0.017163609 0.00039891899 0)
(0.016892381 0.00041383365 0)
(0.016611286 0.00042848876 0)
(0.016320498 0.0004428766 0)
(0.0160202 0.00045698964 0)
(0.015710577 0.00047082055 0)
(0.01539182 0.00048436217 0)
(0.015064124 0.00049760755 0)
(0.014727689 0.00051054991 0)
(0.01438272 0.00052318268 0)
(0.014029425 0.00053549945 0)
(0.013668018 0.00054749405 0)
(0.013298715 0.00055916047 0)
(0.012921737 0.0005704929 0)
(0.012537309 0.00058148574 0)
(0.01214566 0.00059213357 0)
(0.011747021 0.00060243118 0)
(0.011341628 0.00061237353 0)
(0.010929721 0.00062195582 0)
(0.010511539 0.00063117341 0)
(0.010087329 0.00064002186 0)
(0.0096573385 0.00064849694 0)
(0.0092218175 0.00065659461 0)
(0.0087810194 0.00066431103 0)
(0.0083352 0.00067164255 0)
(0.0078846171 0.00067858571 0)
(0.0074295311 0.00068513725 0)
(0.0069702044 0.00069129412 0)
(0.0065069014 0.00069705343 0)
(0.0060398882 0.00070241252 0)
(0.0055694328 0.0007073689 0)
(0.0050958048 0.00071192027 0)
(0.004619275 0.00071606455 0)
(0.0041401159 0.00071979982 0)
(0.003658601 0.00072312438 0)
(0.0031750049 0.00072603669 0)
(0.0026896032 0.00072853543 0)
(0.0022026722 0.00073061945 0)
(0.0017144891 0.00073228781 0)
(0.0012253315 0.00073353975 0)
(0.00073547754 0.00073437469 0)
(0.00024520563 0.00073479225 0)
(-0.00024520563 0.00073479225 0)
(-0.00073547754 0.00073437469 0)
(-0.0012253315 0.00073353975 0)
(-0.0017144891 0.00073228781 0)
(-0.0022026722 0.00073061945 0)
(-0.0026896032 0.00072853543 0)
(-0.0031750049 0.00072603669 0)
(-0.003658601 0.00072312438 0)
(-0.0041401159 0.00071979982 0)
(-0.004619275 0.00071606455 0)
(-0.0050958048 0.00071192027 0)
(-0.0055694328 0.0007073689 0)
(-0.0060398882 0.00070241252 0)
(-0.0065069014 0.00069705343 0)
(-0.0069702044 0.00069129412 0)
(-0.0074295311 0.00068513725 0)
(-0.0078846171 0.00067858571 0)
(-0.0083352 0.00067164255 0)
(-0.0087810194 0.00066431103 0)
(-0.0092218175 0.00065659461 0)
(-0.0096573385 0.00064849694 0)
(-0.010087329 0.00064002186 0)
(-0.010511539 0.00063117341 0)
(-0.010929721 0.00062195582 0)
(-0.011341628 0.00061237353 0)
(-0.011747021 0.00060243118 0)
(-0.01214566 0.00059213357 0)
(-0.012537309 0.00058148574 0)
(-0.012921737 0.0005704929 0)
(-0.013298715 0.00055916047 0)
(-0.013668018 0.00054749405 0)
(-0.014029425 0.00053549945 0)
(-0.01438272 0.00052318268 0)
(-0.014727689 0.00051054991 0)
(-0.015064124 0.00049760755 0)
(-0.01539182 0.00048436217 0)
(-0.015710577 0.00047082055 0)
(-0.0160202 0.00045698964 0)
(-0.016320498 0.0004428766 0)
(-0.016611286 0.00042848876 0)
(-0.016892381 0.00041383365 0)
(-0.017163609 0.00039891899 0)
(-0.017424799 0.00038375265 0)
(-0.017675786 0.00036834272 0)
(-0.017916409 0.00035269743 0)
(-0.018146515 0.00033682522 0)
(-0.018365955 0.00032073469 0)
(-0.018574586 0.00030443458 0)
(-0.018772271 0.00028793384 0)
(-0.018958879 0.00027124157 0)
(-0.019134286 0.00025436701 0)
(-0.019298373 0.00023731957 0)
(-0.019451028 0.00022010882 0)
(-0.019592144 0.00020274447 0)
(-0.019721624 0.00018523637 0)
(-0.019839374 0.0001675945 0)
(-0.019945308 0.000149829 0)
(-0.020039347 0.00013195011 0)
(-0.020121419 0.00011396822 0)
(-0.020191459 9.5893814e-05 0)
(-0.020249408 7.773751e-05 0)
(-0.020295216 5.951002e-05 0)
(-0.020328838 4.1222153e-05 0)
(-0.020350238 2.2884812e-05 0)
(-0.020359386 4.5090419e-06 0)
(-0.020356261 -1.3894095e-05 0)
(-0.020340847 -3.2313464e-05 0)
(-0.020313139 -5.0737833e-05 0)
(-0.020273135 -6.9155911e-05 0)
(-0.020220845 -8.7556358e-05 0)
(-0.020156283 -0.00010592779 0)
(-0.020079474 -0.00012425877 0)
(-0.019990447 -0.00014253786 0)
(-0.019889241 -0.00016075356 0)
(-0.019775902 -0.00017889439 0)
(-0.019650484 -0.00019694885 0)
(-0.019513049 -0.00021490542 0)
(-0.019363666 -0.00023275263 0)
(-0.019202411 -0.000250479 0)
(-0.019029369 -0.00026807307 0)
(-0.018844632 -0.00028552345 0)
(-0.0186483 -0.00030281876 0)
(-0.01844048 -0.0003199477 0)
(-0.018221286 -0.000336899 0)
(-0.017990842 -0.00035366149 0)
(-0.017749276 -0.00037022407 0)
(-0.017496726 -0.00038657572 0)
(-0.017233337 -0.00040270554 0)
(-0.016959259 -0.00041860271 0)
(-0.016674652 -0.00043425654 0)
(-0.016379682 -0.00044965648 0)
(-0.016074521 -0.00046479209 0)
(-0.01575935 -0.00047965308 0)
(-0.015434355 -0.00049422931 0)
(-0.015099729 -0.00050851082 0)
(-0.014755673 -0.0005224878 0)
(-0.014402393 -0.00053615063 0)
(-0.014040102 -0.00054948987 0)
(-0.013669018 -0.00056249627 0)
(-0.013289368 -0.00057516081 0)
(-0.012901381 -0.00058747465 0)
(-0.012505296 -0.0005994292 0)
(-0.012101354 -0.00061101609 0)
(-0.011689803 -0.00062222717 0)
(-0.011270899 -0.00063305456 0)
(-0.010844897 -0.00064349061 0)
(-0.010412064 -0.00065352795 0)
(-0.0099726659 -0.00066315946 0)
(-0.0095269773 -0.00067237831 0)
(-0.0090752755 -0.00068117793 0)
(-0.0086178422 -0.00068955205 0)
(-0.0081549637 -0.00069749469 0)
(-0.0076869296 -0.00070500017 0)
(-0.0072140337 -0.00071206311 0)
(-0.0067365729 -0.00071867844 0)
(-0.0062548476 -0.00072484141 0)
(-0.0057691613 -0.00073054758 0)
(-0.0052798201 -0.00073579284 0)
(-0.0047871331 -0.00074057342 0)
(-0.0042914114 -0.00074488585 0)
(-0.0037929686 -0.00074872702 0)
(-0.0032921202 -0.00075209415 0)
(-0.0027891834 -0.00075498481 0)
(-0.0022844769 -0.0007573969 0)
(-0.0017783208 -0.00075932868 0)
(-0.001271036 -0.00076077873 0)
(-0.00076294444 -0.00076174603 0)
(-0.00025436864 -0.00076222985 0)
(0.00025484793 -0.0012712704 0)
(0.00076438202 -0.0012704634 0)
(0.0012734309 -0.0012688501 0)
(0.0017816716 -0.0012664317 0)
(0.0022887814 -0.0012632098 0)
(0.0027944389 -0.0012591868 0)
(0.0032983234 -0.0012543656 0)
(0.0038001155 -0.0012487497 0)
(0.0042994974 -0.0012423433 0)
(0.0047961531 -0.0012351508 0)
(0.0052897685 -0.0012271775 0)
(0.0057800317 -0.0012184293 0)
(0.0062666331 -0.0012089122 0)
(0.0067492661 -0.0011986334 0)
(0.0072276265 -0.0011876 0)
(0.0077014134 -0.0011758201 0)
(0.0081703293 -0.0011633022 0)
(0.00863408 -0.0011500551 0)
(0.0090923751 -0.0011360884 0)
(0.009544928 -0.001121412 0)
(0.0099914564 -0.0011060364 0)
(0.010431682 -0.0010899726 0)
(0.010865331 -0.0010732319 0)
(0.011292135 -0.0010558262 0)
(0.011711829 -0.0010377678 0)
(0.012124155 -0.0010190695 0)
(0.012528858 -0.00099974444 0)
(0.01292569 -0.00097980616 0)
(0.013314407 -0.00095926864 0)
(0.013694773 -0.00093814623 0)
(0.014066556 -0.00091645364 0)
(0.01442953 -0.00089420595 0)
(0.014783476 -0.00087141857 0)
(0.015128181 -0.00084810723 0)
(0.015463437 -0.000824288 0)
(0.015789044 -0.00079997721 0)
(0.01610481 -0.00077519152 0)
(0.016410545 -0.00074994781 0)
(0.016706072 -0.00072426325 0)
(0.016991215 -0.00069815523 0)
(0.01726581 -0.00067164138 0)
(0.017529696 -0.00064473952 0)
(0.017782722 -0.00061746768 0)
(0.018024743 -0.00058984406 0)
(0.018255622 -0.00056188703 0)
(0.018475229 -0.0005336151 0)
(0.018683442 -0.00050504691 0)
(0.018880145 -0.00047620124 0)
(0.01906523 -0.00044709695 0)
(0.019238599 -0.00041775301 0)
(0.019400159 -0.00038818844 0)
(0.019549824 -0.00035842233 0)
(0.019687519 -0.00032847382 0)
(0.019813174 -0.00029836207 0)
(0.019926727 -0.00026810627 0)
(0.020028125 -0.0002377256 0)
(0.020117321 -0.00020723922 0)
(0.020194276 -0.0001766663 0)
(0.02025896 -0.00014602593 0)
(0.02031135 -0.00011533716 0)
(0.02035143 -8.4619003e-05 0)
(0.020379192 -5.3890356e-05 0)
(0.020394636 -2.317005e-05 0)
(0.020397768 7.5231907e-06 0)
(0.020388604 3.8170772e-05 0)
(0.020367165 6.8754223e-05 0)
(0.020333481 9.9255175e-05 0)
(0.020287588 0.00012965543 0)
(0.020229531 0.00015993695 0)
(0.02015936 0.00019008187 0)
(0.020077134 0.00022007249 0)
(0.019982919 0.00024989131 0)
(0.019876787 0.00027952102 0)
(0.019758816 0.00030894452 0)
(0.019629094 0.00033814493 0)
(0.019487712 0.00036710558 0)
(0.019334771 0.00039581004 0)
(0.019170375 0.00042424211 0)
(0.018994639 0.00045238585 0)
(0.01880768 0.00048022558 0)
(0.018609623 0.00050774584 0)
(0.0184006 0.00053493148 0)
(0.018180747 0.0005617676 0)
(0.017950209 0.00058823958 0)
(0.017709133 0.00061433309 0)
(0.017457674 0.00064003406 0)
(0.017195992 0.00066532876 0)
(0.016924253 0.00069020371 0)
(0.016642628 0.00071464576 0)
(0.016351293 0.00073864205 0)
(0.01605043 0.00076218003 0)
(0.015740223 0.00078524745 0)
(0.015420866 0.0008078324 0)
(0.015092552 0.00082992326 0)
(0.014755483 0.00085150874 0)
(0.014409864 0.00087257787 0)
(0.014055903 0.00089311998 0)
(0.013693814 0.00091312475 0)
(0.013323814 0.00093258218 0)
(0.012946126 0.00095148258 0)
(0.012560973 0.00096981659 0)
(0.012168585 0.00098757519 0)
(0.011769194 0.0010047497 0)
(0.011363037 0.0010213317 0)
(0.010950352 0.0010373131 0)
(0.010531382 0.0010526864 0)
(0.010106371 0.0010674439 0)
(0.0096755692 0.0010815788 0)
(0.0092392264 0.0010950842 0)
(0.0087975965 0.0011079537 0)
(0.0083509356 0.0011201813 0)
(0.0078995023 0.0011317612 0)
(0.0074435574 0.0011426879 0)
(0.0069833638 0.0011529564 0)
(0.0065191862 0.0011625619 0)
(0.0060512914 0.0011714998 0)
(0.0055799479 0.0011797661 0)
(0.0051054258 0.0011873569 0)
(0.0046279964 0.0011942688 0)
(0.0041479327 0.0012004985 0)
(0.0036655087 0.0012060433 0)
(0.0031809996 0.0012109004 0)
(0.0026946814 0.0012150679 0)
(0.0022068311 0.0012185436 0)
(0.0017177262 0.0012213261 0)
(0.0012276451 0.0012234141 0)
(0.00073686621 0.0012248066 0)
(0.0002456686 0.0012255031 0)
(-0.00024566861 0.0012255031 0)
(-0.00073686621 0.0012248066 0)
(-0.0012276451 0.0012234141 0)
(-0.0017177262 0.0012213261 0)
(-0.0022068311 0.0012185436 0)
(-0.0026946814 0.0012150679 0)
(-0.0031809996 0.0012109004 0)
(-0.0036655087 0.0012060433 0)
(-0.0041479327 0.0012004985 0)
(-0.0046279964 0.0011942688 0)
(-0.0051054258 0.0011873569 0)
(-0.0055799479 0.0011797661 0)
(-0.0060512914 0.0011714998 0)
(-0.0065191862 0.0011625619 0)
(-0.0069833638 0.0011529564 0)
(-0.0074435574 0.0011426879 0)
(-0.0078995023 0.0011317612 0)
(-0.0083509356 0.0011201813 0)
(-0.0087975965 0.0011079537 0)
(-0.0092392264 0.0010950842 0)
(-0.0096755692 0.0010815788 0)
(-0.010106371 0.0010674439 0)
(-0.010531382 0.0010526864 0)
(-0.010950352 0.0010373131 0)
(-0.011363037 0.0010213317 0)
(-0.011769194 0.0010047497 0)
(-0.012168585 0.00098757519 0)
(-0.012560973 0.00096981659 0)
(-0.012946126 0.00095148258 0)
(-0.013323814 0.00093258218 0)
(-0.013693814 0.00091312475 0)
(-0.014055903 0.00089311998 0)
(-0.014409864 0.00087257787 0)
(-0.014755483 0.00085150874 0)
(-0.015092552 0.00082992326 0)
(-0.015420866 0.0008078324 0)
(-0.015740223 0.00078524745 0)
(-0.01605043 0.00076218003 0)
(-0.016351293 0.00073864205 0)
(-0.016642628 0.00071464576 0)
(-0.016924253 0.00069020371 0)
(-0.017195992 0.00066532876 0)
(-0.017457674 0.00064003406 0)
(-0.017709133 0.00061433309 0)
(-0.017950209 0.00058823958 0)
(-0.018180747 0.0005617676 0)
(-0.0184006 0.00053493148 0)
(-0.018609623 0.00050774584 0)
(-0.01880768 0.00048022558 0)
(-0.018994639 0.00045238585 0)
(-0.019170375 0.00042424211 0)
(-0.019334771 0.00039581004 0)
(-0.019487712 0.00036710558 0)
(-0.019629094 0.00033814493 0)
(-0.019758816 0.00030894452 0)
(-0.019876787 0.00027952102 0)
(-0.019982919 0.00024989131 0)
(-0.020077134 0.00022007249 0)
(-0.02015936 0.00019008187 0)
(-0.020229531 0.00015993695 0)
(-0.020287588 0.00012965543 0)
(-0.020333481 9.9255175e-05 0)
(-0.020367165 6.8754223e-05 0)
(-0.020388604 3.8170771e-05 0)
(-0.020397768 7.5231904e-06 0)
(-0.020394636 -2.3170051e-05 0)
(-0.020379192 -5.3890357e-05 0)
(-0.02035143 -8.4619003e-05 0)
(-0.02031135 -0.00011533716 0)
(-0.02025896 -0.00014602593 0)
(-0.020194276 -0.0001766663 0)
(-0.020117321 -0.00020723922 0)
(-0.020028125 -0.0002377256 0)
(-0.019926727 -0.00026810627 0)
(-0.019813174 -0.00029836207 0)
(-0.019687519 -0.00032847382 0)
(-0.019549824 -0.00035842233 0)
(-0.019400159 -0.00038818844 0)
(-0.019238599 -0.00041775301 0)
(-0.01906523 -0.00044709695 0)
(-0.018880145 -0.00047620124 0)
(-0.018683442 -0.00050504691 0)
(-0.018475229 -0.0005336151 0)
(-0.018255622 -0.00056188703 0)
(-0.018024743 -0.00058984406 0)
(-0.017782722 -0.00061746768 0)
(-0.017529696 -0.00064473952 0)
(-0.01726581 -0.00067164138 0)
(-0.016991215 -0.00069815523 0)
(-0.016706072 -0.00072426325 0)
(-0.016410545 -0.00074994781 0)
(-0.01610481 -0.00077519152 0)
(-0.015789044 -0.00079997721 0)
(-0.015463437 -0.000824288 0)
(-0.015128181 -0.00084810723 0)
(-0.014783476 -0.00087141857 0)
(-0.01442953 -0.00089420595 0)
(-0.014066556 -0.00091645364 0)
(-0.013694773 -0.00093814623 0)
(-0.013314407 -0.00095926864 0)
(-0.01292569 -0.00097980616 0)
(-0.012528858 -0.00099974444 0)
(-0.012124155 -0.0010190695 0)
(-0.011711829 -0.0010377678 0)
(-0.011292135 -0.0010558262 0)
(-0.010865331 -0.0010732319 0)
(-0.010431682 -0.0010899726 0)
(-0.0099914564 -0.0011060364 0)
(-0.009544928 -0.001121412 0)
(-0.0090923751 -0.0011360884 0)
(-0.00863408 -0.0011500551 0)
(-0.0081703293 -0.0011633022 0)
(-0.0077014134 -0.0011758201 0)
(-0.0072276265 -0.0011876 0)
(-0.0067492661 -0.0011986334 0)
(-0.0062666331 -0.0012089122 0)
(-0.0057800317 -0.0012184293 0)
(-0.0052897685 -0.0012271775 0)
(-0.0047961531 -0.0012351508 0)
(-0.0042994974 -0.0012423433 0)
(-0.0038001155 -0.0012487497 0)
(-0.0032983234 -0.0012543656 0)
(-0.0027944389 -0.0012591868 0)
(-0.0022887814 -0.0012632098 0)
(-0.0017816716 -0.0012664317 0)
(-0.0012734309 -0.0012688501 0)
(-0.00076438202 -0.0012704634 0)
(-0.00025484793 -0.0012712704 0)
(0.00025552763 -0.0017814681 0)
(0.0007664207 -0.0017803373 0)
(0.0012768273 -0.0017780765 0)
(0.0017864235 -0.0017746874 0)
(0.0022948859 -0.0017701725 0)
(0.0028018921 -0.0017645349 0)
(0.0033071206 -0.0017577789 0)
(0.0038102512 -0.0017499092 0)
(0.0043109652 -0.0017409316 0)
(0.0048089458 -0.0017308526 0)
(0.005303878 -0.0017196794 0)
(0.0057954491 -0.0017074201 0)
(0.0062833488 -0.0016940837 0)
(0.0067672695 -0.0016796796 0)
(0.0072469063 -0.0016642182 0)
(0.0077219576 -0.0016477107 0)
(0.0081921249 -0.0016301689 0)
(0.0086571134 -0.0016116053 0)
(0.0091166318 -0.0015920334 0)
(0.0095703928 -0.0015714669 0)
(0.010018113 -0.0015499206 0)
(0.010459514 -0.0015274099 0)
(0.010894322 -0.0015039507 0)
(0.011322265 -0.0014795596 0)
(0.011743081 -0.0014542539 0)
(0.012156508 -0.0014280514 0)
(0.012562292 -0.0014009706 0)
(0.012960185 -0.0013730305 0)
(0.013349941 -0.0013442507 0)
(0.013731324 -0.0013146513 0)
(0.014104101 -0.0012842528 0)
(0.014468046 -0.0012530765 0)
(0.014822939 -0.0012211439 0)
(0.015168566 -0.0011884771 0)
(0.01550472 -0.0011550986 0)
(0.015831199 -0.0011210312 0)
(0.01614781 -0.0010862983 0)
(0.016454365 -0.0010509236 0)
(0.016750684 -0.0010149311 0)
(0.017036592 -0.00097834527 0)
(0.017311923 -0.0009411907 0)
(0.017576518 -0.0009034924 0)
(0.017830223 -0.00086527564 0)
(0.018072895 -0.00082656592 0)
(0.018304394 -0.00078738899 0)
(0.018524592 -0.00074777077 0)
(0.018733365 -0.00070773742 0)
(0.018930598 -0.00066731521 0)
(0.019116182 -0.0006265306 0)
(0.019290019 -0.00058541015 0)
(0.019452015 -0.00054398053 0)
(0.019602086 -0.00050226848 0)
(0.019740154 -0.00046030084 0)
(0.019866149 -0.00041810444 0)
(0.019980011 -0.00037570617 0)
(0.020081685 -0.00033313292 0)
(0.020171125 -0.00029041155 0)
(0.020248292 -0.00024756888 0)
(0.020313154 -0.00020463169 0)
(0.02036569 -0.00016162669 0)
(0.020405883 -0.00011858049 0)
(0.020433725 -7.5519593e-05 0)
(0.020449216 -3.2470374e-05 0)
(0.020452362 1.0540929e-05 0)
(0.020443179 5.3488249e-05 0)
(0.020421689 9.634569e-05 0)
(0.02038792 0.00013908754 0)
(0.020341911 0.00018168828 0)
(0.020283704 0.00022412265 0)
(0.020213351 0.0002663656 0)
(0.020130911 0.00030839233 0)
(0.02003645 0.00035017832 0)
(0.019930039 0.00039169931 0)
(0.019811758 0.00043293134 0)
(0.019681694 0.00047385075 0)
(0.019539939 0.00051443418 0)
(0.019386593 0.00055465861 0)
(0.019221763 0.00059450135 0)
(0.019045561 0.00063394005 0)
(0.018858106 0.00067295272 0)
(0.018659524 0.00071151773 0)
(0.018449946 0.00074961382 0)
(0.018229509 0.00078722013 0)
(0.017998357 0.00082431616 0)
(0.017756639 0.00086088183 0)
(0.01750451 0.00089689744 0)
(0.017242131 0.00093234372 0)
(0.016969668 0.00096720181 0)
(0.016687292 0.0010014533 0)
(0.016395179 0.00103508 0)
(0.016093512 0.0010680646 0)
(0.015782477 0.0011003898 0)
(0.015462266 0.0011320388 0)
(0.015133075 0.0011629955 0)
(0.014795104 0.0011932439 0)
(0.01444856 0.0012227688 0)
(0.014093652 0.0012515552 0)
(0.013730594 0.0012795886 0)
(0.013359603 0.0013068549 0)
(0.012980903 0.0013333407 0)
(0.012594718 0.0013590328 0)
(0.012201278 0.0013839186 0)
(0.011800817 0.0014079858 0)
(0.01139357 0.0014312227 0)
(0.010979778 0.0014536181 0)
(0.010559684 0.0014751611 0)
(0.010133533 0.0014958414 0)
(0.0097015748 0.0015156491 0)
(0.0092640606 0.0015345747 0)
(0.0088212449 0.0015526092 0)
(0.0083733845 0.0015697442 0)
(0.0079207388 0.0015859715 0)
(0.007463569 0.0016012835 0)
(0.007002139 0.0016156731 0)
(0.0065367141 0.0016291335 0)
(0.006067562 0.0016416586 0)
(0.0055949517 0.0016532425 0)
(0.005119154 0.0016638798 0)
(0.0046404412 0.0016735656 0)
(0.0041590869 0.0016822956 0)
(0.0036753659 0.0016900656 0)
(0.003189554 0.0016968721 0)
(0.0027019281 0.0017027121 0)
(0.0022127659 0.0017075828 0)
(0.0017223458 0.001711482 0)
(0.0012309467 0.001714408 0)
(0.00073884792 0.0017163594 0)
(0.0002463293 0.0017173353 0)
(-0.0002463293 0.0017173353 0)
(-0.00073884792 0.0017163594 0)
(-0.0012309467 0.001714408 0)
(-0.0017223458 0.001711482 0)
(-0.0022127659 0.0017075828 0)
(-0.0027019281 0.0017027121 0)
(-0.003189554 0.0016968721 0)
(-0.0036753659 0.0016900656 0)
(-0.0041590869 0.0016822956 0)
(-0.0046404412 0.0016735656 0)
(-0.005119154 0.0016638798 0)
(-0.0055949517 0.0016532425 0)
(-0.006067562 0.0016416586 0)
(-0.0065367141 0.0016291335 0)
(-0.007002139 0.0016156731 0)
(-0.007463569 0.0016012835 0)
(-0.0079207388 0.0015859715 0)
(-0.0083733845 0.0015697442 0)
(-0.0088212449 0.0015526092 0)
(-0.0092640606 0.0015345747 0)
(-0.0097015748 0.0015156491 0)
(-0.010133533 0.0014958414 0)
(-0.010559684 0.0014751611 0)
(-0.010979778 0.0014536181 0)
(-0.01139357 0.0014312227 0)
(-0.011800817 0.0014079858 0)
(-0.012201278 0.0013839186 0)
(-0.012594718 0.0013590328 0)
(-0.012980903 0.0013333407 0)
(-0.013359603 0.0013068549 0)
(-0.013730594 0.0012795886 0)
(-0.014093652 0.0012515552 0)
(-0.01444856 0.0012227688 0)
(-0.014795104 0.0011932439 0)
(-0.015133075 0.0011629955 0)
(-0.015462266 0.0011320388 0)
(-0.015782477 0.0011003898 0)
(-0.016093512 0.0010680646 0)
(-0.016395179 0.00103508 0)
(-0.016687292 0.0010014533 0)
(-0.016969668 0.00096720181 0)
(-0.017242131 0.00093234372 0)
(-0.01750451 0.00089689744 0)
(-0.017756639 0.00086088183 0)
(-0.017998357 0.00082431616 0)
(-0.018229509 0.00078722013 0)
(-0.018449946 0.00074961382 0)
(-0.018659524 0.00071151773 0)