/*--------------------------------*- C++ -*----------------------------------*\
| =========                 |                                                 |
| \\      /  F ield         | OpenFOAM: The Open Source CFD Toolbox           |
|  \\    /   O peration     | Version:  2106                                  |
|   \\  /    A nd           | Website:  www.openfoam.com                      |
|    \\/     M anipulation  |                                                 |
\*---------------------------------------------------------------------------*/
FoamFile
{
    version     2.0;
    format      ascii;
    arch        "LSB;label=32;scalar=64";
    class       surfaceScalarField;
    location    "0.145";
    object      phi;
}
// * * * * * * * * * * * * * * * * * * * * * * * * * * * * * * * * * * * * * //

dimensions      [0 3 -1 0 0 0 0];

oriented        oriented;

internalField   nonuniform List<scalar> 
65152
(
2.5677112e-08
-2.5677112e-08
6.3738264e-08
-3.8061152e-08
1.0519985e-07
-4.1461584e-08
1.4795999e-07
-4.2760147e-08
1.9106294e-07
-4.3102946e-08
2.3425641e-07
-4.3193472e-08
2.7750928e-07
-4.325287e-08
3.2083696e-07
-4.332768e-08
3.6432002e-07
-4.3483059e-08
4.0797186e-07
-4.3651844e-08
4.5177843e-07
-4.3806563e-08
4.9572679e-07
-4.3948366e-08
5.3981009e-07
-4.4083297e-08
5.8402388e-07
-4.4213793e-08
6.2837725e-07
-4.4353371e-08
6.728873e-07
-4.4510048e-08
7.1756678e-07
-4.4679481e-08
7.624274e-07
-4.4860619e-08
8.0748675e-07
-4.5059347e-08
8.5274951e-07
-4.5262761e-08
8.9825252e-07
-4.5503009e-08
9.4396233e-07
-4.5709808e-08
9.8998599e-07
-4.6023667e-08
1.0361852e-06
-4.6199193e-08
1.0827756e-06
-4.6590401e-08
1.1296296e-06
-4.6853972e-08
1.1765503e-06
-4.6920697e-08
1.2247114e-06
-4.8161159e-08
1.2711466e-06
-4.6435172e-08
1.3215236e-06
-5.0376991e-08
1.3673246e-06
-4.5800976e-08
1.4187761e-06
-5.1451564e-08
1.4668356e-06
-4.8059515e-08
1.5158337e-06
-4.8998059e-08
1.5682338e-06
-5.2400154e-08
1.6166852e-06
-4.8451384e-08
1.6680023e-06
-5.1317108e-08
1.7208618e-06
-5.2859429e-08
1.7712392e-06
-5.0377408e-08
1.8234978e-06
-5.2258655e-08
1.8773755e-06
-5.3877702e-08
1.9296723e-06
-5.2296814e-08
1.9834325e-06
-5.3760117e-08
2.0376163e-06
-5.4183793e-08
2.0915045e-06
-5.3888255e-08
2.1472378e-06
-5.5733272e-08
2.2025784e-06
-5.534066e-08
2.257187e-06
-5.4608518e-08
2.3135124e-06
-5.6325441e-08
2.3708663e-06
-5.7353913e-08
2.4274781e-06
-5.6611778e-08
2.4841325e-06
-5.6654389e-08
2.5416021e-06
-5.7469664e-08
2.5993846e-06
-5.7782479e-08
2.6577045e-06
-5.831989e-08
2.7167529e-06
-5.9048398e-08
2.7753992e-06
-5.8646268e-08
2.8334016e-06
-5.8002412e-08
2.892264e-06
-5.8862392e-08
2.9523322e-06
-6.0068206e-08
3.0125375e-06
-6.0205335e-08
3.0724897e-06
-5.9952157e-08
3.1319451e-06
-5.9455383e-08
3.1919871e-06
-6.0041987e-08
3.2519169e-06
-5.9929809e-08
3.311944e-06
-6.0027092e-08
3.3733296e-06
-6.1385618e-08
3.4347144e-06
-6.138485e-08
3.4953057e-06
-6.0591269e-08
3.5561134e-06
-6.080767e-08
3.616401e-06
-6.0287601e-08
3.6761984e-06
-5.9797457e-08
3.7376891e-06
-6.1490725e-08
3.7992949e-06
-6.1605751e-08
3.8608506e-06
-6.1555728e-08
3.9229219e-06
-6.2071274e-08
3.9837191e-06
-6.0797207e-08
4.0441686e-06
-6.0449477e-08
4.1049773e-06
-6.0808739e-08
4.1656361e-06
-6.0658742e-08
4.2266672e-06
-6.1031124e-08
4.288799e-06
-6.2131829e-08
4.3503895e-06
-6.1590457e-08
4.4111617e-06
-6.0772228e-08
4.4728096e-06
-6.1647905e-08
4.5337914e-06
-6.0981819e-08
4.5939342e-06
-6.0142739e-08
4.6549356e-06
-6.100139e-08
4.7154842e-06
-6.0548666e-08
4.7756546e-06
-6.0170348e-08
4.836895e-06
-6.1240466e-08
4.8973392e-06
-6.0444168e-08
4.957131e-06
-5.9791776e-08
5.0178183e-06
-6.0687275e-08
5.0783792e-06
-6.0560979e-08
5.1380232e-06
-5.9643954e-08
5.1979852e-06
-5.996201e-08
5.2582741e-06
-6.0288911e-08
5.3179e-06
-5.9625908e-08
5.376946e-06
-5.9046018e-08
5.4358711e-06
-5.8925112e-08
5.4940925e-06
-5.8221366e-08
5.5517002e-06
-5.7607694e-08
5.6097404e-06
-5.8040184e-08
5.6690156e-06
-5.9275207e-08
5.7281391e-06
-5.9123553e-08
5.7863492e-06
-5.8210062e-08
5.8446873e-06
-5.8338071e-08
5.9028076e-06
-5.8120352e-08
5.9592733e-06
-5.646566e-08
6.0150298e-06
-5.5756537e-08
6.0709858e-06
-5.5955986e-08
6.1265594e-06
-5.557355e-08
6.1817855e-06
-5.5226162e-08
6.2381666e-06
-5.6381024e-08
6.2953702e-06
-5.7203678e-08
6.3519539e-06
-5.6583714e-08
6.407107e-06
-5.5153061e-08
6.4610978e-06
-5.399084e-08
6.5142949e-06
-5.3197099e-08
6.5664696e-06
-5.2174705e-08
6.6180455e-06
-5.1575831e-08
6.6703258e-06
-5.2280368e-08
6.7233077e-06
-5.2981872e-08
6.7763795e-06
-5.3071741e-08
6.8297112e-06
-5.3331773e-08
6.8832854e-06
-5.3574169e-08
6.9365311e-06
-5.3245652e-08
6.9891695e-06
-5.2638408e-08
7.0410874e-06
-5.191792e-08
7.0922435e-06
-5.1156114e-08
7.1425264e-06
-5.0282872e-08
7.1917606e-06
-4.9234279e-08
7.2393634e-06
-4.7602716e-08
7.2848591e-06
-4.5495726e-08
7.3292352e-06
-4.4376147e-08
7.3737485e-06
-4.4513233e-08
7.4192607e-06
-4.5512218e-08
7.4666035e-06
-4.734283e-08
7.5160205e-06
-4.9416987e-08
7.5665774e-06
-5.055685e-08
7.616502e-06
-4.9924661e-08
7.6637397e-06
-4.7237671e-08
7.7075091e-06
-4.3769422e-08
7.7483999e-06
-4.0890839e-08
7.787657e-06
-3.925704e-08
7.8268056e-06
-3.9148647e-08
7.8671441e-06
-4.0338483e-08
7.9092999e-06
-4.2155773e-08
7.9525614e-06
-4.3261534e-08
7.9959813e-06
-4.3419864e-08
8.0383224e-06
-4.2341123e-08
8.07819e-06
-3.9867573e-08
8.1145344e-06
-3.6344434e-08
8.1474079e-06
-3.2873439e-08
8.1768656e-06
-2.945772e-08
8.2030286e-06
-2.6163e-08
8.2269281e-06
-2.389948e-08
8.2512279e-06
-2.429988e-08
8.2788419e-06
-2.761396e-08
8.3120004e-06
-3.3158544e-08
8.3500026e-06
-3.8002128e-08
8.3847795e-06
-3.4776958e-08
8.4079991e-06
-2.3219527e-08
8.418597e-06
-1.0597993e-08
8.4207723e-06
-2.175263e-09
8.4183734e-06
2.3988752e-09
8.4141387e-06
4.2347353e-09
8.4095979e-06
4.5407755e-09
8.4067926e-06
2.8053376e-09
8.4092187e-06
-2.4261641e-09
8.4186268e-06
-9.4080478e-09
8.4354508e-06
-1.6824e-08
8.4605311e-06
-2.5080283e-08
8.49428e-06
-3.3748905e-08
8.5370561e-06
-4.2776104e-08
8.5893248e-06
-5.2268697e-08
8.6501291e-06
-6.08043e-08
8.7162892e-06
-6.6160157e-08
8.7846658e-06
-6.8376556e-08
8.8533433e-06
-6.8677467e-08
8.9219829e-06
-6.8639603e-08
8.9911702e-06
-6.9187312e-08
9.061827e-06
-7.0656841e-08
9.1343084e-06
-7.248136e-08
9.2095408e-06
-7.523244e-08
9.289549e-06
-8.00082e-08
9.3782824e-06
-8.8733366e-08
9.4779122e-06
-9.9629811e-08
9.5845172e-06
-1.0660504e-07
9.6888511e-06
-1.0433388e-07
9.7793293e-06
-9.0478166e-08
9.8487453e-06
-6.9416057e-08
9.9021769e-06
-5.3431564e-08
9.9541702e-06
-5.1993332e-08
1.002026e-05
-6.6089564e-08
1.0107602e-05
-8.7341824e-08
1.0205897e-05
-9.8295586e-08
1.0305843e-05
-9.994618e-08
1.041313e-05
-1.0728648e-07
1.052814e-05
-1.1501015e-07
1.0644034e-05
-1.1589384e-07
1.0756561e-05
-1.1252681e-07
1.0865099e-05
-1.0853849e-07
1.0973656e-05
-1.0855705e-07
1.1089959e-05
-1.1630283e-07
1.1215066e-05
-1.2510702e-07
1.1366854e-05
-1.517879e-07
1.1558282e-05
-1.9142798e-07
1.1703798e-05
-1.4551634e-07
1.1665239e-05
3.8559248e-08
1.1555236e-05
1.10003e-07
8.8485187e-06
2.7067174e-06
6.317334e-06
2.5311847e-06
4.5167326e-06
1.8006014e-06
3.4436335e-06
1.0730991e-06
2.7726952e-06
6.7093825e-07
2.3178034e-06
4.5489183e-07
1.9888831e-06
3.2892029e-07
1.7389733e-06
2.4990982e-07
1.5408507e-06
1.9812253e-07
1.3781289e-06
1.627218e-07
1.2424892e-06
1.3563978e-07
1.1271744e-06
1.1531473e-07
1.0276339e-06
9.954059e-08
9.4066457e-07
8.6969279e-08
8.6389554e-07
7.6769038e-08
7.9552634e-07
6.8369202e-08
7.3416014e-07
6.13662e-08
6.7869007e-07
5.5470065e-08
6.2827875e-07
5.0411323e-08
5.8209649e-07
4.6182261e-08
5.3962223e-07
4.2474257e-08
5.003927e-07
3.922953e-08
4.6397457e-07
3.641814e-08
4.3001345e-07
3.3961111e-08
3.9819596e-07
3.181749e-08
3.6834739e-07
2.9848574e-08
3.401725e-07
2.8174889e-08
3.1348117e-07
2.6691333e-08
2.8814151e-07
2.5339663e-08
2.6382063e-07
2.4320876e-08
2.4067784e-07
2.3142789e-08
2.184655e-07
2.2212338e-08
1.9705728e-07
2.1408224e-08
1.7637087e-07
2.0686413e-08
1.5630146e-07
2.0069409e-08
1.368507e-07
1.9450755e-08
1.1780367e-07
1.9047033e-08
9.9179595e-08
1.8624071e-08
8.0890365e-08
1.8289229e-08
6.2841154e-08
1.8049211e-08
4.5113357e-08
1.7727796e-08
2.7787801e-08
1.7325555e-08
1.1636026e-08
1.6151775e-08
1.1636025e-08
2.7681623e-08
-5.3358735e-08
7.1655833e-08
-8.2035361e-08
1.1955155e-07
-8.9357299e-08
1.6826173e-07
-9.147033e-08
2.172669e-07
-9.2108115e-08
2.6638424e-07
-9.2310809e-08
3.1554334e-07
-9.2411974e-08
3.6472273e-07
-9.2507065e-08
4.1388418e-07
-9.2644515e-08
4.6294638e-07
-9.2714045e-08
5.1196501e-07
-9.2825188e-08
5.6099299e-07
-9.2976346e-08
6.1005998e-07
-9.3150289e-08
6.5920184e-07
-9.3355656e-08
7.0844464e-07
-9.3596165e-08
7.5780637e-07
-9.3871783e-08
8.0730747e-07
-9.4180576e-08
8.5696719e-07
-9.4520347e-08
9.0680202e-07
-9.4894179e-08
9.568319e-07
-9.5292633e-08
1.0070658e-06
-9.5736893e-08
1.0575368e-06
-9.6180862e-08
1.1082215e-06
-9.67083e-08
1.1592194e-06
-9.7197106e-08
1.2103669e-06
-9.7737948e-08
1.2620466e-06
-9.8533631e-08
1.3135251e-06
-9.8399181e-08
1.3663164e-06
-1.0095251e-07
1.4175577e-06
-9.7676494e-08
1.4724104e-06
-1.0522961e-07
1.5227125e-06
-9.6103151e-08
1.5793964e-06
-1.0813544e-07
1.6310475e-06
-9.971059e-08
1.6854446e-06
-1.0339515e-07
1.7422681e-06
-1.0922365e-07
1.7948232e-06
-1.0100654e-07
1.8506889e-06
-1.071828e-07
1.9085812e-06
-1.1075174e-07
1.963483e-06
-1.0527914e-07
2.0188469e-06
-1.0762257e-07
2.0782507e-06
-1.1328156e-07
2.1361181e-06
-1.1016421e-07
2.1925656e-06
-1.1020755e-07
2.2503399e-06
-1.1195809e-07
2.3109219e-06
-1.1447028e-07
2.3712492e-06
-1.160606e-07
2.4290016e-06
-1.1309304e-07
2.4877275e-06
-1.1333442e-07
2.5498406e-06
-1.1843849e-07
2.6122733e-06
-1.1978666e-07
2.6722797e-06
-1.1661818e-07
2.7324164e-06
-1.1679105e-07
2.7943471e-06
-1.1940039e-07
2.8571825e-06
-1.206179e-07
2.9205845e-06
-1.217219e-07
2.9838946e-06
-1.2235844e-07
3.045776e-06
-1.2052773e-07
3.1074136e-06
-1.1963998e-07
3.1713662e-06
-1.2281504e-07
3.2367603e-06
-1.2546223e-07
3.3015354e-06
-1.2498049e-07
3.365543e-06
-1.2395978e-07
3.4283353e-06
-1.2224763e-07
3.492745e-06
-1.2445164e-07
3.5573852e-06
-1.2457003e-07
3.6219852e-06
-1.246271e-07
3.6882753e-06
-1.2767578e-07
3.7547887e-06
-1.2789824e-07
3.8195927e-06
-1.2539522e-07
3.8841833e-06
-1.253983e-07
3.9482802e-06
-1.2438451e-07
4.0122008e-06
-1.2371802e-07
4.0792861e-06
-1.2857603e-07
4.1464166e-06
-1.2873623e-07
4.2128654e-06
-1.2800456e-07
4.2789382e-06
-1.281441e-07
4.3438148e-06
-1.256738e-07
4.40859e-06
-1.2522462e-07
4.4734259e-06
-1.2564466e-07
4.5386205e-06
-1.2585335e-07
4.6050187e-06
-1.2742935e-07
4.6726019e-06
-1.2971498e-07
4.7387152e-06
-1.2770373e-07
4.8038481e-06
-1.2590522e-07
4.8701292e-06
-1.2792896e-07
4.9359916e-06
-1.2684424e-07
5.0007311e-06
-1.248822e-07
5.0658484e-06
-1.2611869e-07
5.1311966e-06
-1.2589687e-07
5.1971426e-06
-1.2611634e-07
5.2630156e-06
-1.271135e-07
5.3278861e-06
-1.2531468e-07
5.3931606e-06
-1.2506624e-07
5.4588547e-06
-1.2638135e-07
5.5240277e-06
-1.2573402e-07
5.5890469e-06
-1.2466319e-07
5.6541939e-06
-1.2510894e-07
5.7194725e-06
-1.2556753e-07
5.7845714e-06
-1.2472477e-07
5.8491704e-06
-1.2364507e-07
5.9123737e-06
-1.2212842e-07
5.9746234e-06
-1.2047103e-07
6.037461e-06
-1.2044537e-07
6.1018806e-06
-1.2245971e-07
6.1672844e-06
-1.2467906e-07
6.2321915e-06
-1.2403063e-07
6.296389e-06
-1.2240759e-07
6.3604952e-06
-1.2244422e-07
6.4238751e-06
-1.2150023e-07
6.4859729e-06
-1.1856349e-07
6.5470194e-06
-1.1680299e-07
6.6076511e-06
-1.165877e-07
6.6684121e-06
-1.1633454e-07
6.7303652e-06
-1.1717932e-07
6.7942939e-06
-1.203097e-07
6.859105e-06
-1.2201475e-07
6.9229068e-06
-1.2038552e-07
6.9847772e-06
-1.1702349e-07
7.0449471e-06
-1.1416069e-07
7.1039974e-06
-1.1224748e-07
7.1625427e-06
-1.1071992e-07
7.2213208e-06
-1.1035399e-07
7.280882e-06
-1.1184158e-07
7.3410152e-06
-1.1311506e-07
7.4015848e-06
-1.1364135e-07
7.4625187e-06
-1.1426568e-07
7.5236584e-06
-1.1471387e-07
7.5844114e-06
-1.1399859e-07
7.6445702e-06
-1.127972e-07
7.7044877e-06
-1.1183547e-07
7.7641903e-06
-1.1085866e-07
7.823224e-06
-1.0931665e-07
7.8805536e-06
-1.0656388e-07
7.9348917e-06
-1.0194079e-07
7.9860168e-06
-9.6620776e-08
8.0355846e-06
-9.394399e-08
8.0860141e-06
-9.4942729e-08
8.1390387e-06
-9.8536771e-08
8.1961089e-06
-1.0441305e-07
8.2570534e-06
-1.1036147e-07
8.3198077e-06
-1.1331123e-07
8.3808155e-06
-1.1093237e-07
8.4374871e-06
-1.0390928e-07
8.4891188e-06
-9.5401127e-08
8.5369905e-06
-8.8762577e-08
8.5837381e-06
-8.6004594e-08
8.6323386e-06
-8.7749202e-08
8.6842753e-06
-9.2275187e-08
8.7398025e-06
-9.7682992e-08
8.7974193e-06
-1.008783e-07
8.8556654e-06
-1.0166592e-07
8.9134906e-06
-1.0016639e-07
8.9700539e-06
-9.6430878e-08
9.0233372e-06
-8.9627673e-08
9.0704351e-06
-7.9971352e-08
9.1097711e-06
-6.8793715e-08
9.1422753e-06
-5.8667244e-08
9.1710834e-06
-5.270757e-08
9.201251e-06
-5.4467473e-08
9.2371303e-06
-6.3493215e-08
9.2828715e-06
-7.8899779e-08
9.3418789e-06
-9.7009497e-08
9.4132586e-06
-1.0615669e-07
9.4892198e-06
-9.9180717e-08
9.5584363e-06
-7.9814537e-08
9.6122807e-06
-5.6019632e-08
9.6488495e-06
-3.4169936e-08
9.6715483e-06
-1.8464106e-08
9.6856179e-06
-9.5287962e-09
9.6951588e-06
-6.7355408e-09
9.7041969e-06
-1.1464252e-08
9.7175614e-06
-2.2772545e-08
9.737366e-06
-3.6628627e-08
9.7635102e-06
-5.1224452e-08
9.797321e-06
-6.7559753e-08
9.8414503e-06
-8.6905357e-08
9.8962118e-06
-1.0703021e-07
9.9581058e-06
-1.2269835e-07
1.0022456e-05
-1.3051017e-07
1.0085711e-05
-1.3163217e-07
1.0145921e-05
-1.2888734e-07
1.0203648e-05
-1.2636668e-07
1.0261325e-05
-1.268637e-07
1.0319965e-05
-1.2929679e-07
1.0378963e-05
-1.3147982e-07
1.0438988e-05
-1.3525673e-07
1.0504339e-05
-1.4535924e-07
1.0585328e-05
-1.697231e-07
1.0687117e-05
-2.0141812e-07
1.0799179e-05
-2.1866763e-07
1.0900015e-05
-2.0516955e-07
1.0970061e-05
-1.6052474e-07
1.1007428e-05
-1.0678279e-07
1.103309e-05
-7.9093234e-08
1.1076431e-05
-9.5334681e-08
1.1160566e-05
-1.5022407e-07
1.128233e-05
-2.0910617e-07
1.1399941e-05
-2.1590638e-07
1.1494517e-05
-1.9452195e-07
1.1591698e-05
-2.0446773e-07
1.1697079e-05
-2.2039099e-07
1.1801863e-05
-2.2067803e-07
1.190632e-05
-2.1698401e-07
1.2013892e-05
-2.1611044e-07
1.2134649e-05
-2.2931365e-07
1.2267335e-05
-2.4898897e-07
1.2370854e-05
-2.2862656e-07
1.2400476e-05
-1.8140938e-07
1.2252708e-05
-4.3659871e-08
1.178425e-05
3.2294129e-07
1.1108405e-05
7.1440465e-07
7.9260542e-06
3.2923534e-06
6.7324625e-06
3.900309e-06
5.4915406e-06
3.7721066e-06
4.6013389e-06
2.6908031e-06
3.8938707e-06
1.7805674e-06
3.3340181e-06
1.2307908e-06
2.8947048e-06
8.9420507e-07
2.545654e-06
6.7797114e-07
2.2631597e-06
5.324041e-07
2.0300032e-06
4.3127909e-07
1.8358169e-06
3.5690808e-07
1.6701524e-06
3.0130421e-07
1.5268259e-06
2.5864125e-07
1.4014552e-06
2.2491132e-07
1.2906663e-06
1.9775819e-07
1.1918787e-06
1.7555656e-07
1.1030838e-06
1.5716414e-07
1.0226946e-06
1.4175539e-07
9.494459e-07
1.2871877e-07
8.823443e-07
1.1751293e-07
8.2045116e-07
1.080754e-07
7.631551e-07
9.9770319e-08
7.0987267e-07
9.2511961e-08
6.600903e-07
8.6200513e-08
6.1338715e-07
8.0664261e-08
5.6939036e-07
7.5814281e-08
5.2790055e-07
7.1338386e-08
4.8850408e-07
6.7571363e-08
4.5098296e-07
6.4212449e-08
4.1512957e-07
6.1193056e-08
3.8093631e-07
5.8514136e-08
3.4798174e-07
5.609735e-08
3.1621606e-07
5.3978018e-08
2.8552137e-07
5.2102912e-08
2.557671e-07
5.0440689e-08
2.2684336e-07
4.8993152e-08
1.9856779e-07
4.7726323e-08
1.7096599e-07
4.6648825e-08
1.4390503e-07
4.5685033e-08
1.1726961e-07
4.4924646e-08
9.1049302e-08
4.426952e-08
6.5191275e-08
4.3585822e-08
3.9979084e-08
4.2537745e-08
1.6499069e-08
3.9631788e-08
2.8135093e-08
2.7669056e-08
-8.1027791e-08
7.1258686e-08
-1.2562499e-07
1.1872649e-07
-1.368251e-07
1.6715221e-07
-1.3989605e-07
2.1583581e-07
-1.4079171e-07
2.646052e-07
-1.410802e-07
3.1340924e-07
-1.4121601e-07
3.6223871e-07
-1.4133654e-07
4.1107504e-07
-1.4148085e-07
4.5999596e-07
-1.4163496e-07
5.089956e-07
-1.4182483e-07
5.5807864e-07
-1.4205938e-07
6.0726521e-07
-1.4233686e-07
6.5656875e-07
-1.426592e-07
7.0600036e-07
-1.4302777e-07
7.5557173e-07
-1.4344316e-07
8.0529544e-07
-1.4390428e-07
8.551865e-07
-1.4441141e-07
9.052537e-07
-1.4496138e-07
9.555241e-07
-1.4556302e-07
1.0059782e-06
-1.4619104e-07
1.0567106e-06
-1.4691317e-07
1.1075618e-06
-1.4755952e-07
1.1588906e-06
-1.4852595e-07
1.2101045e-06
-1.4895186e-07
1.262153e-06
-1.5058214e-07
1.3138371e-06
-1.5008329e-07
1.3664059e-06
-1.535213e-07
1.4190183e-06
-1.5028883e-07
1.4719237e-06
-1.5813504e-07
1.5251369e-06
-1.4931631e-07
1.5795522e-06
-1.6255074e-07
1.6324154e-06
-1.5257382e-07
1.6878386e-06
-1.5881836e-07
1.7428406e-06
-1.6422563e-07
1.7969431e-06
-1.5510908e-07
1.8532722e-06
-1.6351183e-07
1.9101027e-06
-1.6758225e-07
1.9656024e-06
-1.6077883e-07
2.0219023e-06
-1.6392249e-07
2.080608e-06
-1.7198726e-07
2.1385903e-06
-1.6814653e-07
2.1953818e-06
-1.6699907e-07
2.2535468e-06
-1.7012304e-07
2.3142514e-06
-1.7517486e-07
2.3739504e-06
-1.7575961e-07
2.4322997e-06
-1.7144239e-07
2.4915944e-06
-1.7262907e-07
2.5534328e-06
-1.8027696e-07
2.6159876e-06
-1.8234145e-07
2.675954e-06
-1.7658457e-07
2.7359874e-06
-1.7682445e-07
2.7984625e-06
-1.8187551e-07
2.8621231e-06
-1.8427848e-07
2.924867e-06
-1.8446583e-07
2.9873717e-06
-1.8486305e-07
3.0495048e-06
-1.8266083e-07
3.1124536e-06
-1.8258878e-07
3.1770471e-06
-1.8740857e-07
3.2415824e-06
-1.899976e-07
3.3055535e-06
-1.8895155e-07
3.3697236e-06
-1.8812988e-07
3.43288e-06
-1.8540407e-07
3.4984489e-06
-1.9002052e-07
3.5634962e-06
-1.8961728e-07
3.627532e-06
-1.8866294e-07
3.6931971e-06
-1.9334089e-07
3.759437e-06
-1.9413814e-07
3.8244584e-06
-1.9041665e-07
3.88989e-06
-1.908299e-07
3.9546565e-06
-1.8915097e-07
4.0189113e-06
-1.8797282e-07
4.0854984e-06
-1.951631e-07
4.1522899e-06
-1.9552779e-07
4.2188879e-06
-1.9460256e-07
4.2843571e-06
-1.9361326e-07
4.3499503e-06
-1.9126699e-07
4.4156505e-06
-1.9092483e-07
4.4800687e-06
-1.9006287e-07
4.5449336e-06
-1.9071819e-07
4.6119354e-06
-1.9443116e-07
4.6797154e-06
-1.9749502e-07
4.7457395e-06
-1.9372779e-07
4.8111759e-06
-1.9134162e-07
4.8771723e-06
-1.9392538e-07
4.9431747e-06
-1.9284667e-07
5.008224e-06
-1.8993154e-07
5.0720085e-06
-1.8990312e-07
5.1371454e-06
-1.910338e-07
5.2048808e-06
-1.9385174e-07
5.2711486e-06
-1.9338126e-07
5.3361505e-06
-1.9031662e-07
5.4022032e-06
-1.9111896e-07
5.4679665e-06
-1.9214466e-07
5.5328947e-06
-1.9066223e-07
5.5975751e-06
-1.8934355e-07
5.6614265e-06
-1.889603e-07
5.725885e-06
-1.9002603e-07
5.7916514e-06
-1.9049116e-07
5.8573542e-06
-1.893479e-07
5.9211337e-06
-1.8590797e-07
5.9842208e-06
-1.8355809e-07
6.0479698e-06
-1.8419438e-07
6.1132885e-06
-1.8777841e-07
6.178648e-06
-1.9003852e-07
6.2424809e-06
-1.8786355e-07
6.3054277e-06
-1.8535446e-07
6.368898e-06
-1.8591446e-07
6.4324856e-06
-1.8508788e-07
6.496072e-06
-1.8214986e-07
6.5585471e-06
-1.792781e-07
6.6197578e-06
-1.7779842e-07
6.6797242e-06
-1.7630089e-07
6.7407901e-06
-1.7824525e-07
6.8037704e-06
-1.8329002e-07
6.8679259e-06
-1.8617023e-07
6.9309468e-06
-1.8340642e-07
6.9925874e-06
-1.7866408e-07
7.0526739e-06
-1.7424715e-07
7.1126864e-06
-1.7225998e-07
7.1738747e-06
-1.7190831e-07
7.236286e-06
-1.7276525e-07
7.29772e-06
-1.7327555e-07
7.357823e-06
-1.7321812e-07
7.4178741e-06
-1.736924e-07
7.4785601e-06
-1.7495169e-07
7.5387403e-06
-1.7489404e-07
7.5977843e-06
-1.7304265e-07
7.6551201e-06
-1.7013301e-07
7.7117248e-06
-1.6844014e-07
7.7686293e-06
-1.6776312e-07
7.8269046e-06
-1.6759198e-07
7.8868772e-06
-1.6653644e-07
7.9471339e-06
-1.6219754e-07
8.0051289e-06
-1.5461573e-07
8.0600041e-06
-1.4881921e-07
8.1130675e-06
-1.4800616e-07
8.1658751e-06
-1.5134438e-07
8.2200286e-06
-1.5856649e-07
8.2773041e-06
-1.67637e-07
8.338822e-06
-1.7482918e-07
8.4019933e-06
-1.7410365e-07
8.4621689e-06
-1.6408488e-07
8.5166846e-06
-1.4991678e-07
8.5653897e-06
-1.3746774e-07
8.6112664e-06
-1.3188129e-07
8.6580652e-06
-1.3454792e-07
8.7081994e-06
-1.4240942e-07
8.7622953e-06
-1.517789e-07
8.8183734e-06
-1.5695644e-07
8.8735902e-06
-1.5688269e-07
8.9273028e-06
-1.5387896e-07
8.9796755e-06
-1.4880365e-07
9.0310308e-06
-1.4098289e-07
9.0813806e-06
-1.3032117e-07
9.1299675e-06
-1.1738066e-07
9.1763089e-06
-1.0500859e-07
9.2203906e-06
-9.6789336e-08
9.2630222e-06
-9.7098987e-08
9.3057318e-06
-1.0620288e-07
9.3501001e-06
-1.2326807e-07
9.3980597e-06
-1.4496913e-07
9.4514877e-06
-1.5958461e-07
9.5092187e-06
-1.5691176e-07
9.56604e-06
-1.3663581e-07
9.6144691e-06
-1.0444873e-07
9.6512059e-06
-7.0906767e-08
9.6802665e-06
-4.7524709e-08
9.7058691e-06
-3.5131368e-08
9.7274265e-06
-2.8292962e-08
9.7460064e-06
-3.004416e-08
9.7664643e-06
-4.3230452e-08
9.7918515e-06
-6.2015764e-08
9.8223355e-06
-8.1708527e-08
9.8589536e-06
-1.0417784e-07
9.9034992e-06
-1.3145094e-07
9.9535715e-06
-1.5710254e-07
1.0002444e-05
-1.7157117e-07
1.0046839e-05
-1.7490477e-07
1.0088591e-05
-1.7338424e-07
1.0132133e-05
-1.724289e-07
1.0184013e-05
-1.7824666e-07
1.0251274e-05
-1.9412502e-07
1.0335368e-05
-2.1339135e-07
1.0432064e-05
-2.281755e-07
1.0530177e-05
-2.3336919e-07
1.061625e-05
-2.3143224e-07
1.0685869e-05
-2.393423e-07
1.0743993e-05
-2.5954196e-07
1.0800523e-05
-2.7519804e-07
1.0864271e-05
-2.6891746e-07
1.0935833e-05
-2.3208638e-07
1.101255e-05
-1.8350044e-07
1.1095588e-05
-1.6213092e-07
1.1193305e-05
-1.9305227e-07
1.1321868e-05
-2.7878633e-07
1.1482589e-05
-3.6982788e-07
1.1640368e-05
-3.7368492e-07
1.1768925e-05
-3.2307926e-07
1.1856073e-05
-2.9161534e-07
1.1919696e-05
-2.8401359e-07
1.1956843e-05
-2.5782576e-07
1.1979832e-05
-2.3997286e-07
1.2004967e-05
-2.4124496e-07
1.2050493e-05
-2.7484008e-07
1.2051318e-05
-2.4981398e-07
1.1926275e-05
-1.035833e-07
1.1632653e-05
1.1221248e-07
1.0903811e-05
6.8518188e-07
9.3180295e-06
1.908723e-06
6.8086127e-06
3.2238214e-06
5.4610391e-06
4.6399271e-06
4.4986227e-06
4.8627254e-06
4.255364e-06
4.0153653e-06
3.9908075e-06
2.9553597e-06
3.6068387e-06
2.1645362e-06
3.219458e-06
1.6181715e-06
2.8720013e-06
1.2416618e-06
2.5728983e-06
9.7707407e-07
2.3169379e-06
7.883645e-07
2.0981134e-06
6.5010361e-07
1.9102807e-06
5.4474082e-07
1.7471533e-06
4.644316e-07
1.6041667e-06
4.0162785e-07
1.4777482e-06
3.5132978e-07
1.3650628e-06
3.104436e-07
1.2638632e-06
2.7675622e-07
1.1723526e-06
2.4867468e-07
1.0890833e-06
2.2502475e-07
1.0128797e-06
2.0492238e-07
9.4261927e-07
1.8777333e-07
8.7788919e-07
1.7280547e-07
8.1771028e-07
1.5994923e-07
7.6148954e-07
1.487327e-07
7.0883264e-07
1.3885742e-07
6.5932851e-07
1.3016839e-07
6.1264443e-07
1.2249836e-07
5.68355e-07
1.1562782e-07
5.2630046e-07
1.096259e-07
4.8621886e-07
1.0429404e-07
4.478672e-07
9.9544721e-08
4.1115307e-07
9.5228264e-08
3.7577761e-07
9.1472814e-08
3.4161438e-07
8.8141247e-08
3.0855238e-07
8.5164904e-08
2.7647588e-07
8.2517188e-08
2.4524658e-07
8.022246e-08
2.1473072e-07
7.824218e-08
1.8487612e-07
7.6503419e-08
1.5556937e-07
7.4991791e-08
1.2674392e-07
7.3750087e-08
9.8353558e-08
7.2659885e-08
7.0392023e-08
7.1547355e-08
4.3128836e-08
6.9800931e-08
1.7774125e-08
6.4986498e-08
4.5909218e-08
2.7798677e-08
-1.0882647e-07
7.137343e-08
-1.6919975e-07
1.1882815e-07
-1.8427982e-07
1.6727772e-07
-1.8834562e-07
2.1598391e-07
-1.894979e-07
2.6476266e-07
-1.8985895e-07
3.1357076e-07
-1.9002412e-07
3.6240154e-07
-1.9016732e-07
4.1126152e-07
-1.9034083e-07
4.6018024e-07
-1.9055368e-07
5.0916934e-07
-1.9081393e-07
5.5823848e-07
-1.9112852e-07
6.0740132e-07
-1.914997e-07
6.5667087e-07
-1.9192875e-07
7.0606019e-07
-1.9241709e-07
7.5558293e-07
-1.929659e-07
8.0525276e-07
-1.9357412e-07
8.5508456e-07
-1.9424321e-07
9.0509106e-07
-1.9496788e-07
9.5529201e-07
-1.9576398e-07
1.0056897e-06
-1.9658876e-07
1.0563289e-06
-1.9755233e-07
1.1071609e-06
-1.9839152e-07
1.1583268e-06
-1.9969187e-07
1.2096205e-06
-2.0024555e-07
1.2613923e-06
-2.0235394e-07
1.313252e-06
-2.0194299e-07
1.3655091e-06
-2.0577844e-07
1.4183384e-06
-2.0311814e-07
1.470722e-06
-2.1051859e-07
1.5247022e-06
-2.032965e-07
1.5778383e-06
-2.1568684e-07
1.631792e-06
-2.0652751e-07
1.686794e-06
-2.1382044e-07
1.7410762e-06
-2.1850774e-07
1.796038e-06
-2.1007096e-07
1.8524218e-06
-2.1989562e-07
1.9083449e-06
-2.2350529e-07
1.9637595e-06
-2.1619345e-07
2.0215201e-06
-2.2168309e-07
2.0794289e-06
-2.2989607e-07
2.136252e-06
-2.2496968e-07
2.1936248e-06
-2.2437187e-07
2.2535132e-06
-2.3001144e-07
2.3133115e-06
-2.3497311e-07
2.3710411e-06
-2.3348924e-07
2.4303227e-06
-2.3072398e-07
2.4917634e-06
-2.3406975e-07
2.5529251e-06
-2.4143863e-07
2.6138965e-06
-2.4331288e-07
2.6737589e-06
-2.3644698e-07
2.7344575e-06
-2.3752307e-07
2.7979767e-06
-2.4539464e-07
2.862709e-06
-2.4901085e-07
2.9238014e-06
-2.4555816e-07
2.9846284e-06
-2.4569014e-07
3.0466329e-06
-2.4466528e-07
3.1122837e-06
-2.4823956e-07
3.1787064e-06
-2.5383134e-07
3.2415864e-06
-2.5287757e-07
3.3036512e-06
-2.5101631e-07
3.3672605e-06
-2.5173925e-07
3.4304681e-06
-2.4861162e-07
3.4979225e-06
-2.574749e-07
3.5646341e-06
-2.5632888e-07
3.628853e-06
-2.5288192e-07
3.6939029e-06
-2.5839076e-07
3.7576872e-06
-2.5792238e-07
3.820377e-06
-2.5310646e-07
3.8866816e-06
-2.5713448e-07
3.9548479e-06
-2.5731733e-07
4.0219688e-06
-2.5509374e-07
4.088188e-06
-2.6138223e-07
4.153625e-06
-2.6096486e-07
4.2173021e-06
-2.5827966e-07
4.2796205e-06
-2.5593164e-07
4.3472508e-06
-2.5889728e-07
4.4156472e-06
-2.5932121e-07
4.4810621e-06
-2.5547775e-07
4.5473921e-06
-2.5704826e-07
4.614778e-06
-2.6181702e-07
4.6808546e-06
-2.6357163e-07
4.7451765e-06
-2.5804971e-07
4.8095297e-06
-2.5569484e-07
4.8749959e-06
-2.5939156e-07
4.9424199e-06
-2.6027062e-07
5.0089122e-06
-2.5642384e-07
5.0719804e-06
-2.5297132e-07
5.1377546e-06
-2.5680804e-07
5.2071618e-06
-2.6325892e-07
5.2732853e-06
-2.5950484e-07
5.337087e-06
-2.5411825e-07
5.4027946e-06
-2.5682654e-07
5.4687772e-06
-2.5812734e-07
5.5342288e-06
-2.5611375e-07
5.5983928e-06
-2.5350759e-07
5.6611169e-06
-2.5168437e-07
5.7241936e-06
-2.5310273e-07
5.7903278e-06
-2.5662539e-07
5.8573135e-06
-2.5633362e-07
5.9221716e-06
-2.5076601e-07
5.9858473e-06
-2.4723386e-07
6.0511481e-06
-2.4949516e-07
6.1177908e-06
-2.544211e-07
6.1831144e-06
-2.5536208e-07
6.2449896e-06
-2.4973879e-07
6.3050807e-06
-2.4544558e-07
6.3655132e-06
-2.4634697e-07
6.4290305e-06
-2.4860509e-07
6.4945284e-06
-2.4764782e-07
6.559445e-06
-2.4419465e-07
6.622023e-06
-2.4037646e-07
6.6827598e-06
-2.3703767e-07
6.7430144e-06
-2.3849986e-07
6.8052221e-06
-2.4549771e-07
6.8691536e-06
-2.5010174e-07
6.9323306e-06
-2.465834e-07
6.9933162e-06
-2.3964968e-07
7.0527709e-06
-2.3370185e-07
7.1130746e-06
-2.3256375e-07
7.1764967e-06
-2.353304e-07
7.2410866e-06
-2.3735509e-07
7.3026183e-06
-2.3480731e-07
7.3604979e-06
-2.3109765e-07
7.4178624e-06
-2.3105694e-07
7.4765028e-06
-2.3359209e-07
7.5362266e-06
-2.346178e-07
7.5949699e-06
-2.31786e-07
7.6514237e-06
-2.2658683e-07
7.7063952e-06
-2.2341163e-07
7.761843e-06
-2.2321093e-07
7.8195885e-06
-2.2533741e-07
7.8812844e-06
-2.2823234e-07
7.9464668e-06
-2.2738e-07
8.0116505e-06
-2.1979943e-07
8.0741084e-06
-2.1127713e-07
8.1319664e-06
-2.0586415e-07
8.1846342e-06
-2.0401214e-07
8.2338821e-06
-2.0781438e-07
8.2825665e-06
-2.1632137e-07
8.3337158e-06
-2.2597857e-07
8.3887062e-06
-2.2909403e-07
8.4457994e-06
-2.2117809e-07
8.5023603e-06
-2.0647762e-07
8.5560078e-06
-1.9111525e-07
8.6075596e-06
-1.8343311e-07
8.659243e-06
-1.862313e-07
8.7127822e-06
-1.9594863e-07
8.7680156e-06
-2.070123e-07
8.822687e-06
-2.1162785e-07
8.8742311e-06
-2.0842684e-07
8.923234e-06
-2.0288184e-07
8.9716152e-06
-1.9718483e-07
9.0209649e-06
-1.903326e-07
9.0713129e-06
-1.8066914e-07
9.1221805e-06
-1.6824822e-07
9.1741999e-06
-1.5702804e-07
9.2279471e-06
-1.5053652e-07
9.2820864e-06
-1.5123834e-07
9.3360129e-06
-1.6012936e-07
9.3883724e-06
-1.7562757e-07
9.4365604e-06
-1.9315714e-07
9.4794442e-06
-2.0246837e-07
9.5166923e-06
-1.9415983e-07
9.5484936e-06
-1.6843712e-07
9.5756468e-06
-1.3160197e-07
9.60016e-06
-9.5419979e-08
9.6276896e-06
-7.5054265e-08
9.6626756e-06
-7.0117358e-08
9.7036381e-06
-6.9255473e-08
9.7468958e-06
-7.3301848e-08
9.7894742e-06
-8.5808917e-08
9.8294316e-06
-1.0197313e-07
9.8653858e-06
-1.176627e-07
9.8966356e-06
-1.3542765e-07
9.9240113e-06
-1.588267e-07
9.9488392e-06
-1.819304e-07
9.9725977e-06
-1.9532964e-07
9.9986813e-06
-2.0098842e-07
1.0029104e-05
-2.038067e-07
1.0066854e-05
-2.1017871e-07
1.0122993e-05
-2.3438586e-07
1.0212031e-05
-2.8316346e-07
1.0330219e-05
-3.3157925e-07
1.045389e-05
-3.5184683e-07
1.0555593e-05
-3.3507214e-07
1.0623214e-05
-2.9905233e-07
1.0665026e-05
-2.8115439e-07
1.0706337e-05
-3.0085305e-07
1.077751e-05
-3.4637117e-07
1.0886839e-05
-3.7824667e-07
1.1020188e-05
-3.6543574e-07
1.1167536e-05
-3.3084834e-07
1.1324125e-05
-3.1871941e-07
1.1468834e-05
-3.3776154e-07
1.1597814e-05
-4.0776676e-07
1.1744282e-05
-5.1629568e-07
1.1858261e-05
-4.8766339e-07
1.1894763e-05
-3.5958164e-07
1.1842284e-05
-2.391362e-07
1.1674157e-05
-1.1588691e-07
1.1290042e-05
1.2628948e-07
1.0738262e-05
3.118075e-07
1.0210141e-05
2.8687562e-07
9.7636822e-06
1.7161887e-07
9.2515711e-06
2.6229708e-07
8.8385942e-06
3.0939366e-07
8.2822132e-06
6.6859342e-07
6.8764547e-06
2.0909404e-06
4.7492679e-06
4.0359098e-06
3.1171542e-06
4.8559351e-06
2.7733443e-06
4.9837371e-06
3.0775795e-06
4.5584902e-06
3.3375645e-06
3.7553803e-06
3.3272957e-06
2.9656285e-06
3.152862e-06
2.3389699e-06
2.9172014e-06
1.8538321e-06
2.6725862e-06
1.486277e-06
2.4402303e-06
1.20943e-06
2.2296419e-06
9.9895289e-07
2.0416365e-06
8.3810898e-07
1.8736448e-06
7.1273255e-07
1.7241212e-06
6.1395516e-07
1.5907524e-06
5.3499666e-07
1.4711608e-06
4.7092142e-07
1.3633577e-06
4.1824666e-07
1.2656589e-06
3.7445501e-07
1.1766526e-06
3.3768098e-07
1.095157e-06
3.065203e-07
1.0201762e-06
2.7990325e-07
9.5093726e-07
2.5701224e-07
8.865999e-07
2.3714283e-07
8.2663322e-07
2.1991591e-07
7.7056471e-07
2.048012e-07
7.1791323e-07
1.9150891e-07
6.682965e-07
1.7978512e-07
6.2138366e-07
1.694112e-07
5.7682388e-07
1.601876e-07
5.3443345e-07
1.5201633e-07
4.9397636e-07
1.4475113e-07
4.5524669e-07
1.3827439e-07
4.1802014e-07
1.3245481e-07
3.8216345e-07
1.2732951e-07
3.4753254e-07
1.2277215e-07
3.1397511e-07
1.1872234e-07
2.8138195e-07
1.1511035e-07
2.4962912e-07
1.1197528e-07
2.1861686e-07
1.0925444e-07
1.8824053e-07
1.0687975e-07
1.5839807e-07
1.0483425e-07
1.2903582e-07
1.0311234e-07