/*--------------------------------*- C++ -*----------------------------------*\
| =========                 |                                                 |
| \\      /  F ield         | OpenFOAM: The Open Source CFD Toolbox           |
|  \\    /   O peration     | Version:  2106                                  |
|   \\  /    A nd           | Website:  www.openfoam.com                      |
|    \\/     M anipulation  |                                                 |
\*---------------------------------------------------------------------------*/
FoamFile
{
    version     2.0;
    format      ascii;
    arch        "LSB;label=32;scalar=64";
    class       surfaceScalarField;
    location    "0.021";
    object      phi;
}
// * * * * * * * * * * * * * * * * * * * * * * * * * * * * * * * * * * * * * //

dimensions      [0 3 -1 0 0 0 0];

oriented        oriented;

internalField   nonuniform List<scalar> 
480
(
0.0032229818
-0.0032241886
0.0059556908
-0.002732709
0.0077821944
-0.0018265037
0.0084256068
-0.00064341239
0.0077929976
0.00063260925
0.0059709329
0.0018220647
0.0032343828
0.00273655
1.2665393e-06
0.0032331163
-0.0032320554
0.003233322
-0.0059691869
0.0027371314
-0.007792083
0.0018228961
-0.0084256979
0.00063361498
-0.007783175
-0.00064252297
-0.0059574286
-0.0018257463
-0.0032252202
-0.0027322084
-0.0032240134
0.0038295284
-0.0070550727
0.007074999
-0.0059781796
0.0092430256
-0.0039945302
0.010007032
-0.0014074186
0.00925936
0.0013802811
0.0070972425
0.0039841822
0.0038456545
0.0059881381
1.4433062e-06
0.0070773275
-0.0038430016
0.0070777669
-0.0070952469
0.0059893767
-0.009258314
0.0039859632
-0.010007187
0.0013824885
-0.0092441636
-0.0014055469
-0.007076968
-0.0039929419
-0.0038320483
-0.0059771281
-0.007054706
0.0052357451
-0.012292557
0.0096707868
-0.010413221
0.012630335
-0.0069540779
0.013671513
-0.0024485976
0.01265652
0.0023952748
0.0097067643
0.0069339375
0.0052614596
0.010433443
1.8792256e-06
0.012336908
-0.0052580166
0.012337663
-0.0097041775
0.010435538
-0.012655149
0.0069369348
-0.013671847
0.0023991869
-0.01263181
-0.0024455846
-0.0096732926
-0.0069514592
-0.0052389736
-0.010411447
-0.01229194
0.0075353839
-0.019830198
0.013904396
-0.016782233
0.018140392
-0.011190073
0.019626197
-0.0039344029
0.018182888
0.0038385837
0.01395848
0.011158346
0.0075711146
0.016820808
2.5211773e-06
0.019905501
-0.0075664751
0.019906659
-0.013954898
0.01682396
-0.018180857
0.011162894
-0.019627026
0.0038453553
-0.018142524
-0.0039300867
-0.013907739
-0.011186244
-0.0075396049
-0.016779581
-0.019829288
0.011875247
-0.031708809
0.021915324
-0.026822311
0.02858037
-0.017855119
0.030897175
-0.0062512079
0.028635044
0.0061007147
0.021992332
0.017801058
0.01193004
0.0268831
3.7821452e-06
0.031831759
-0.011923179
0.03183362
-0.021987062
0.026887843
-0.028631666
0.017807499
-0.030899335
0.0061130241
-0.028583327
-0.0062460942
-0.021919971
-0.017849601
-0.011881457
-0.026818094
-0.031707382
0.017883357
-0.049596867
0.03295074
-0.041889693
0.042886598
-0.027790977
0.046302004
-0.0096666137
0.042917566
0.009485153
0.032962279
0.027756344
0.01787581
0.04196957
5.4285256e-06
0.04970214
-0.017865927
0.049704975
-0.03295422
0.041976136
-0.042911195
0.027764473
-0.04630721
0.0095090387
-0.042891321
-0.0096619826
-0.032957339
-0.027783583
-0.017892091
-0.041883342
-0.049594772
0.023893585
-0.073497636
0.044283395
-0.062279502
0.05785858
-0.041366162
0.062525076
-0.01433311
0.057908604
0.014101626
0.044336224
0.041328723
0.023974556
0.062331238
7.7516616e-06
0.073668944
-0.023960822
0.073673549
-0.044325024
0.062340338
-0.057893744
0.041333194
-0.062541561
0.014156856
-0.057864086
-0.014339457
-0.044290895
-0.041356774
-0.023906441
-0.062267796
-0.073494029
0.015429384
-0.088932542
0.0287849
-0.075635019
0.037858793
-0.050440055
0.040961639
-0.017435956
0.037801802
0.017261463
0.028630536
0.050499989
0.015316666
0.075645108
6.225976e-06
0.088979384
-0.015303587
0.088983362
-0.028616257
0.075653008
-0.037784169
0.050501106
-0.040982032
0.017354718
-0.037868454
-0.017453035
-0.028794282
-0.050430947
-0.01544052
-0.075621558
-0.088929026
-0.015125477
-0.073801552
-0.028291722
-0.062468774
-0.037332593
-0.041399183
-0.040538842
-0.014229707
-0.037543395
0.014266016
-0.028524205
0.041480799
-0.015296471
0.062417374
-5.9806537e-06
0.073688894
0.015284053
0.073693329
0.028510984
0.062426077
0.037527188
0.041484902
0.04055912
0.014322785
0.037342101
-0.014236016
0.028301047
-0.041389892
0.015136611
-0.062457122
-0.073797929
-0.023878071
-0.049916227
-0.044180798
-0.042166047
-0.057689646
-0.027890335
-0.062341638
-0.0095777154
-0.057743158
0.0096675363
-0.044186148
0.027923788
-0.023854791
0.042086017
-7.640846e-06
0.049841744
0.023841127
0.049844561
0.044174601
0.042092603
0.057727701
0.027931801
0.062358896
0.009691591
0.05769565
-0.0095727698
0.044188559
-0.027882801
0.02389106
-0.042159623
-0.049914124
-0.017482078
-0.0324295
-0.032249976
-0.027398149
-0.041995502
-0.018144809
-0.045337227
-0.0062359903
-0.042026255
0.0063565649
-0.032299517
0.01819705
-0.017539906
0.027326405
-5.314478e-06
0.032307153
0.017530235
0.032309012
0.032291677
0.027331161
0.042019998
0.01820348
0.045342249
0.00636934
0.042000131
-0.0062306521
0.032256514
-0.018139184
0.017490725
-0.027393834
-0.032428048
-0.011879681
-0.020546468
-0.021915979
-0.017361851
-0.02855135
-0.011509438
-0.030831222
-0.0039561183
-0.028539446
0.0040647892
-0.021890198
0.011547802
-0.011867351
0.017303558
-3.7339026e-06
0.020443536
0.011860559
0.020444718
0.021884929
0.017306792
0.028535939
0.01155247
0.030833442
0.0040718374
0.028554355
-0.0039515659
0.021920615
-0.011505444
0.01188587
-0.017359089
-0.020545529
-0.0066065735
-0.013937919
-0.012186544
-0.01178188
-0.015878117
-0.0078178656
-0.017146048
-0.0026881869
-0.015861664
0.0027804045
-0.012167817
0.0078539551
-0.0066011137
0.011736855
-2.2264473e-06
0.013844648
0.0065970106
0.013845481
0.012164627
0.011739176
0.015859807
0.0078572896
0.017146867
0.0027847776
0.015880051
-0.0026847499
0.012189509
-0.0078149016
0.0066102853
-0.011779865
-0.013937219
-0.0052801279
-0.0086558703
-0.0097468721
-0.0073151361
-0.012713063
-0.0048516745
-0.013737638
-0.0016636122
-0.012695136
0.0017379023
-0.0097217155
0.0048805348
-0.0052653432
0.0072804832
-2.0567073e-06
0.0085813618
0.0052615714
0.0085818533
0.0097188726
0.0072818747
0.012693614
0.0048825482
0.013737972
0.0017404196
0.012714678
-0.001661456
0.0097496306
-0.0048498541
0.0052836919
-0.0073139267
-0.008655448
-0.0022892921
-0.0063662609
-0.0042223263
-0.0053821019
-0.005501682
-0.0035723188
-0.005938761
-0.0012265332
-0.0054751705
0.0012743119
-0.0041856993
0.0035910635
-0.0022648981
0.0053596821
-3.8194425e-07
0.0063168456
0.0022642054
0.0063172659
0.0041851807
0.0053608994
0.0054748986
0.0035928302
0.0059388932
0.001276425
0.0055020107
-0.0012245736
0.0042228126
-0.0035706559
0.0022898891
-0.0053810032
-0.0063658762
-0.0063609052
-0.011740678
-0.015311442
-0.016537437
-0.01526362
-0.011674091
-0.0063167505
-2.6882191e-06
0.0063117932
0.011670348
0.015261638
0.016537563
0.015313521
0.011744415
0.0063657384
)
;

boundaryField
{
    leftWall
    {
        type            cyclic;
        value           nonuniform List<scalar> 
16
(
1.2068064e-06
1.3556696e-06
1.7395866e-06
2.2568003e-06
3.3640822e-06
4.7007389e-06
7.1834053e-06
5.5222726e-06
-5.5130065e-06
-7.2548149e-06
-4.6495621e-06
-3.3502072e-06
-1.9753664e-06
-1.921006e-06
-3.1727552e-07
-2.6085244e-06
)
;
    }
    rightWall
    {
        type            cyclic;
        value           nonuniform List<scalar> 
16
(
-1.2068064e-06
-1.3556696e-06
-1.7395866e-06
-2.2568003e-06
-3.3640822e-06
-4.7007389e-06
-7.1834053e-06
-5.5222726e-06
5.5130065e-06
7.2548149e-06
4.6495621e-06
3.3502072e-06
1.9753664e-06
1.921006e-06
3.1727552e-07
2.6085244e-06
)
;
    }
    lowerWall
    {
        type            calculated;
        value           uniform 0;
    }
    atmosphere
    {
        type            calculated;
        value           nonuniform List<scalar> 
16
(
-2.7472502e-06
-2.3294077e-06
-1.5548953e-06
-5.3732565e-07
4.9434878e-07
1.5350104e-06
2.3411621e-06
2.7834003e-06
2.784495e-06
2.3445e-06
1.540143e-06
5.0054274e-07
-5.3160333e-07
-1.5503111e-06
-2.3265466e-06
-2.7462624e-06
)
;
    }
    defaultFaces
    {
        type            empty;
        value           nonuniform List<scalar> 0();
    }
}


// ************************************************************************* //
