/*--------------------------------*- C++ -*----------------------------------*\
| =========                 |                                                 |
| \\      /  F ield         | OpenFOAM: The Open Source CFD Toolbox           |
|  \\    /   O peration     | Version:  2106                                  |
|   \\  /    A nd           | Website:  www.openfoam.com                      |
|    \\/     M anipulation  |                                                 |
\*---------------------------------------------------------------------------*/
FoamFile
{
    version     2.0;
    format      ascii;
    arch        "LSB;label=32;scalar=64";
    class       volVectorField;
    location    "0.021";
    object      U_0;
}
// * * * * * * * * * * * * * * * * * * * * * * * * * * * * * * * * * * * * * //

dimensions      [0 1 -1 0 0 0 0];

internalField   nonuniform List<vector> 
256
(
(0.026769487 -0.02348957 0)
(0.076251791 -0.019903899 0)
(0.11412768 -0.013296132 0)
(0.13461769 -0.0046716751 0)
(0.13471688 0.0046344977 0)
(0.11438379 0.013302839 0)
(0.076499285 0.019972134 0)
(0.026898091 0.023593292 0)
(-0.026857586 0.023594767 0)
(-0.076466044 0.019976341 0)
(-0.11436186 0.013308901 0)
(-0.13471028 0.0046418277 0)
(-0.13462656 -0.0046651522 0)
(-0.1141498 -0.013290669 0)
(-0.076284549 -0.01990035 0)
(-0.026808035 -0.023488337 0)
(0.031815221 -0.080135985 0)
(0.090603937 -0.067928687 0)
(0.13557879 -0.045413528 0)
(0.15987751 -0.016012201 0)
(0.16003918 0.015695299 0)
(0.13595147 0.045257019 0)
(0.090964636 0.067977981 0)
(0.031990575 0.08031512 0)
(-0.031944369 0.080320242 0)
(-0.090926805 0.067992425 0)
(-0.13592641 0.045277622 0)
(-0.16003212 0.015720313 0)
(-0.15988827 -0.015990222 0)
(-0.1356039 -0.045394682 0)
(-0.090640933 -0.067916147 0)
(-0.031858545 -0.080131586 0)
(0.04350848 -0.14481213 0)
(0.12387591 -0.12267305 0)
(0.18531231 -0.081932098 0)
(0.21840651 -0.028843107 0)
(0.2186659 0.02833533 0)
(0.18591107 0.08179789 0)
(0.12445691 0.12296886 0)
(0.043780574 0.14535679 0)
(-0.0437203 0.14536565 0)
(-0.12440807 0.12299395 0)
(-0.18587849 0.081834262 0)
(-0.21865792 0.028381472 0)
(-0.21842165 -0.028805103 0)
(-0.18534398 -0.081900142 0)
(-0.12392325 -0.12265206 0)
(-0.043564111 -0.14480486 0)
(0.062660426 -0.24995406 0)
(0.17824686 -0.21177417 0)
(0.26634098 -0.14144947 0)
(0.31352769 -0.049822199 0)
(0.3139607 0.048589028 0)
(0.26728406 0.14090471 0)
(0.17910071 0.21211134 0)
(0.063037335 0.25083874 0)
(-0.062956228 0.25085398 0)
(-0.17903462 0.21215317 0)
(-0.26723751 0.14096404 0)
(-0.31395187 0.048669041 0)
(-0.3135529 -0.049764265 0)
(-0.26638368 -0.14139768 0)
(-0.17830934 -0.21173831 0)
(-0.062732882 -0.24994156 0)
(0.098770045 -0.38220045 0)
(0.280992 -0.323131 0)
(0.41985573 -0.21513477 0)
(0.49363967 -0.075502001 0)
(0.49418792 0.073846548 0)
(0.42111755 0.21484848 0)
(0.28227848 0.32413264 0)
(0.099357787 0.38372868 0)
(-0.099235988 0.38375064 0)
(-0.28218212 0.32419213 0)
(-0.42104523 0.21493477 0)
(-0.49418082 0.073983387 0)
(-0.49368341 -0.075420949 0)
(-0.41991143 -0.21506298 0)
(-0.28108224 -0.32308173 0)
(-0.098878293 -0.38218388 0)
(0.14885634 -0.63642514 0)
(0.42293608 -0.53878625 0)
(0.63097459 -0.35882268 0)
(0.74005211 -0.12547328 0)
(0.74048944 0.12222644 0)
(0.63140326 0.35728662 0)
(0.42321394 0.53973853 0)
(0.14891934 0.63903864 0)
(-0.14874457 0.63907488 0)
(-0.42307356 0.53982754 0)
(-0.63127663 0.35740428 0)
(-0.74048491 0.12249748 0)
(-0.74014033 -0.12539474 0)
(-0.63105205 -0.35872099 0)
(-0.42306425 -0.53870267 0)
(-0.14900797 -0.63639689 0)
(0.19827837 -0.94405181 0)
(0.56705826 -0.7957062 0)
(0.84981067 -0.52617998 0)
(0.99931042 -0.18219318 0)
(0.99976594 0.18010392 0)
(0.85084754 0.5269567 0)
(0.56852754 0.79749247 0)
(0.19961285 0.94473524 0)
(-0.19936265 0.94479376 0)
(-0.56833429 0.79762437 0)
(-0.85059049 0.52710126 0)
(-0.99979587 0.18054383 0)
(-0.99951275 -0.18211982 0)
(-0.84986437 -0.52603434 0)
(-0.56723456 -0.79557992 0)
(-0.19851079 -0.94401119 0)
(0.12797713 -1.4178997 0)
(0.36691773 -1.2069785 0)
(0.55447981 -0.80542398 0)
(0.65505681 -0.27976304 0)
(0.65454806 0.27286236 0)
(0.55312917 0.80262153 0)
(0.36493029 1.2062232 0)
(0.12680039 1.4223679 0)
(-0.12659897 1.4224433 0)
(-0.36472273 1.206362 0)
(-0.55274121 0.80263262 0)
(-0.65456955 0.27431788 0)
(-0.65537066 -0.28003433 0)
(-0.5545677 -0.8052759 0)
(-0.36709266 -1.2067486 0)
(-0.12815724 -1.4178347 0)
(-0.1252756 -1.4170569 0)
(-0.36046791 -1.2020941 0)
(-0.5463098 -0.79897402 0)
(-0.64695471 -0.27443471 0)
(-0.64912921 0.27621624 0)
(-0.54983655 0.80345496 0)
(-0.36367522 1.2029843 0)
(-0.12678605 1.4139174 0)
(0.12659289 1.41399 0)
(0.36347438 1.2031195 0)
(0.54945717 0.8034564 0)
(0.64914317 0.27765447 0)
(0.64727492 -0.27471214 0)
(0.54640045 -0.79883205 0)
(0.36064186 -1.2018656 0)
(0.12545552 -1.4169906 0)
(-0.19866554 -0.9548458 0)
(-0.56646146 -0.80639584 0)
(-0.84770127 -0.53298287 0)
(-0.99632538 -0.18313171 0)
(-0.99690054 0.1834416 0)
(-0.84803754 0.53225582 0)
(-0.565911 0.80470903 0)
(-0.19809111 0.95486743 0)
(0.19784423 0.95492519 0)
(0.56571771 0.80483794 0)
(0.84776586 0.53239497 0)
(0.99692368 0.18388132 0)
(0.99654271 -0.18305638 0)
(0.84776208 -0.53283647 0)
(0.56663942 -0.80626985 0)
(0.19890038 -0.9548056 0)
(-0.14553701 -0.63449295 0)
(-0.41404328 -0.5360691 0)
(-0.61782287 -0.35487434 0)
(-0.72476897 -0.12184684 0)
(-0.72495458 0.12408417 0)
(-0.61843981 0.35625175 0)
(-0.41467272 0.53493222 0)
(-0.14613171 0.63207456 0)
(0.14596062 0.63211017 0)
(0.41453599 0.53502074 0)
(0.6183152 0.35636925 0)
(0.72494891 0.12436892 0)
(0.72485497 -0.12176189 0)
(0.61789912 -0.35477136 0)
(0.41416993 -0.53598465 0)
(0.14568705 -0.63446454 0)
(-0.098825455 -0.40946554 0)
(-0.28116692 -0.34600051 0)
(-0.41973031 -0.22936515 0)
(-0.49288374 -0.078949681 0)
(-0.49276578 0.080640546 0)
(-0.41929254 0.22979463 0)
(-0.28069155 0.34488663 0)
(-0.098782292 0.40787268 0)
(0.098661988 0.40789612 0)
(0.28059552 0.34495017 0)
(0.41921817 0.22988615 0)
(0.49275771 0.080783664 0)
(0.4929288 -0.078861064 0)
(0.41978625 -0.22928674 0)
(0.2812568 -0.34594642 0)
(0.098933288 -0.40944745 0)
(-0.054974585 -0.24282272 0)
(-0.15638138 -0.20518899 0)
(-0.23343152 -0.13603501 0)
(-0.27421352 -0.046677715 0)
(-0.27403586 0.048337651 0)
(-0.23301578 0.13671234 0)
(-0.1560907 0.20437518 0)
(-0.054963898 0.24111994 0)
(0.054892161 0.24113313 0)
(0.15603212 0.20441139 0)
(0.23297374 0.13676362 0)
(0.27402815 0.048409864 0)
(0.27423701 -0.046628416 0)
(0.23346936 -0.13599112 0)
(0.15643637 -0.20515832 0)
(0.055038183 -0.2428121 0)
(-0.043877736 -0.2079005 0)
(-0.12489372 -0.17581998 0)
(-0.18664744 -0.1167927 0)
(-0.21960982 -0.040259583 0)
(-0.2194386 0.041581194 0)
(-0.18621256 0.1172925 0)
(-0.12449404 0.17518998 0)
(-0.043776377 0.20659711 0)
(0.043710625 0.20661258 0)
(0.12444024 0.17523365 0)
(0.18617648 0.11735648 0)
(0.21942941 0.041659991 0)
(0.21962626 -0.040189032 0)
(0.18668228 -0.11673344 0)
(0.12494586 -0.17578067 0)
(0.043939003 -0.20788676 0)
(-0.019070384 -0.065058987 0)
(-0.054233447 -0.054857508 0)
(-0.080959615 -0.036197295 0)
(-0.09515022 -0.012195463 0)
(-0.094894509 0.013230965 0)
(-0.080342897 0.036610213 0)
(-0.053647918 0.054383109 0)
(-0.018850399 0.06399176 0)
(0.018837967 0.063990054 0)
(0.05363802 0.05437842 0)
(0.08033612 0.036602321 0)
(0.094893518 0.013222682 0)
(0.095154216 -0.012206681 0)
(0.080966101 -0.036206404 0)
(0.054242698 -0.054863491 0)
(0.019080713 -0.065061144 0)
(-0.0528552 -0.1425634 0)
(-0.15044601 -0.12067262 0)
(-0.22479871 -0.080314962 0)
(-0.26452441 -0.027814497 0)
(-0.2640698 0.028305794 0)
(-0.22370189 0.080499277 0)
(-0.14938455 0.12042521 0)
(-0.052480013 0.14204596 0)
(0.052394291 0.14206277 0)
(0.14931329 0.12047361 0)
(0.22365478 0.080570895 0)
(0.26405473 0.028390476 0)
(0.2645426 -0.027732293 0)
(0.22484621 -0.080245671 0)
(0.15051649 -0.12062688 0)
(0.052938303 -0.1425473 0)
)
;

boundaryField
{
    leftWall
    {
        type            cyclic;
    }
    rightWall
    {
        type            cyclic;
    }
    lowerWall
    {
        type            slip;
    }
    atmosphere
    {
        type            slip;
    }
    defaultFaces
    {
        type            empty;
    }
}


// ************************************************************************* //
