/*--------------------------------*- C++ -*----------------------------------*\
| =========                 |                                                 |
| \\      /  F ield         | OpenFOAM: The Open Source CFD Toolbox           |
|  \\    /   O peration     | Version:  2306                                  |
|   \\  /    A nd           | Website:  www.openfoam.com                      |
|    \\/     M anipulation  |                                                 |
\*---------------------------------------------------------------------------*/
FoamFile
{
    version     2.0;
    format      ascii;
    arch        "LSB;label=32;scalar=64";
    class       surfaceScalarField;
    location    "0.57";
    object      phi_0;
}
// * * * * * * * * * * * * * * * * * * * * * * * * * * * * * * * * * * * * * //

dimensions      [0 3 -1 0 0 0 0];

oriented        oriented;

internalField   nonuniform List<scalar> 
12640
(
-3.6393407e-05
-7.1413947e-05
-2.7899964e-05
-7.0277111e-05
-2.0094743e-05
-6.8108784e-05
-1.3066905e-05
-6.504599e-05
-6.8829181e-06
-6.123604e-05
-1.5853337e-06
-5.6833995e-05
2.8184227e-06
-5.2006634e-05
6.3218416e-06
-4.6900546e-05
8.9537726e-06
-4.1671295e-05
1.0759797e-05
-3.6462194e-05
1.1804226e-05
-3.1403873e-05
1.2165496e-05
-2.6612526e-05
1.1934288e-05
-2.2185799e-05
1.1209233e-05
-1.8201237e-05
1.0093691e-05
-1.4715057e-05
8.6922713e-06
-1.1762457e-05
7.1069532e-06
-9.3569151e-06
5.4338374e-06
-7.4916896e-06
3.7596118e-06
-6.1405398e-06
2.1593287e-06
-5.2610877e-06
6.9393734e-07
-4.7979407e-06
-5.8993276e-07
-4.6856476e-06
-1.6612543e-06
-4.8534466e-06
-2.5043848e-06
-5.2285314e-06
-3.1176871e-06
-5.7396099e-06
-3.5117999e-06
-6.3209465e-06
-3.707178e-06
-6.9153102e-06
-3.7313383e-06
-7.4759058e-06
-3.6161554e-06
-7.9671968e-06
-3.3955768e-06
-8.3646117e-06
-3.1033915e-06
-8.6540478e-06
-2.7710992e-06
-8.8314259e-06
-2.4263241e-06
-8.9012189e-06
-2.0917262e-06
-8.874597e-06
-1.7844462e-06
-8.7673402e-06
-1.5160911e-06
-8.5976771e-06
-1.2928589e-06
-8.3848936e-06
-1.1162475e-06
-8.1475329e-06
-9.8400741e-07
-7.9020416e-06
-8.9097891e-07
-7.6622074e-06
-8.3027049e-07
-7.4382725e-06
-7.9418961e-07
-7.2370481e-06
-7.7496166e-07
-7.0622296e-06
-7.6552843e-07
-6.9144836e-06
-7.6000548e-07
-6.7922202e-06
-7.5390564e-07
-6.6923403e-06
-7.4415521e-07
-6.6109443e-06
-7.2903592e-07
-6.5438108e-06
-7.0798259e-07
-6.4868834e-06
-6.8131403e-07
-6.4366364e-06
-6.4994678e-07
-6.3902756e-06
-6.1512334e-07
-6.3458116e-06
-5.7818089e-07
-6.3020267e-06
-5.4037393e-07
-6.2583687e-06
-5.0275988e-07
-6.2147976e-06
-4.6614253e-07
-6.1716206e-06
-4.3106222e-07
-6.1293399e-06
-3.9781562e-07
-6.0885305e-06
-3.6650235e-07
-6.0497402e-06
-3.3708234e-07
-6.0134254e-06
-3.0943174e-07
-5.9799234e-06
-2.8339069e-07
-5.9494518e-06
-2.5879876e-07
-5.9221256e-06
-2.355175e-07
-5.8979835e-06
-2.1344168e-07
-5.8770176e-06
-1.925009e-07
-5.8591999e-06
-1.7265491e-07
-5.8445051e-06
-1.5388472e-07
-5.8329252e-06
-1.3618213e-07
-5.8244795e-06
-1.1953968e-07
-5.8192166e-06
-1.0394317e-07
-5.8172112e-06
-8.9364549e-08
-5.8185602e-06
-7.5758166e-08
-5.8233734e-06
-6.3058743e-08
-5.8317624e-06
-5.118101e-08
-5.8438284e-06
-4.0021115e-08
-5.8596489e-06
-2.945931e-08
-5.8792654e-06
-1.9363618e-08
-5.9026798e-06
-9.5940427e-09
-5.9298734e-06
-5.9610244e-06
-3.4448154e-05
-8.1615186e-05
-2.4957447e-05
-7.9767817e-05
-1.6301792e-05
-7.6764438e-05
-8.5792286e-06
-7.2768554e-05
-1.8591568e-06
-6.7956111e-05
3.820945e-06
-6.2514097e-05
8.4378235e-06
-5.6623513e-05
1.2005927e-05
-5.0468649e-05
1.4561407e-05
-4.4226775e-05
1.6163545e-05
-3.8064332e-05
1.6892476e-05
-3.2132805e-05
1.6845393e-05
-2.6565442e-05
1.6133187e-05
-2.1473593e-05
1.4875904e-05
-1.6943954e-05
1.3198757e-05
-1.303791e-05
1.1227923e-05
-9.7916226e-06
9.0856146e-06
-7.2146066e-06
6.8862579e-06
-5.2923329e-06
4.7321476e-06
-3.9864294e-06
2.7104934e-06
-3.2394336e-06
8.9145355e-07
-2.9789008e-06
-6.7392286e-07
-3.1202712e-06
-1.9534015e-06
-3.5739679e-06
-2.9334536e-06
-4.2484793e-06
-3.6181366e-06
-5.0549268e-06
-4.0265391e-06
-5.9125441e-06
-4.1893156e-06
-6.7525337e-06
-4.1450183e-06
-7.5202031e-06
-3.9367254e-06
-8.1754897e-06
-3.609331e-06
-8.6920062e-06
-3.2065096e-06
-9.0568691e-06
-2.7681371e-06
-9.2697983e-06
-2.328402e-06
-9.340954e-06
-1.9145784e-06
-9.2884206e-06
-1.5464623e-06
-9.1354564e-06
-1.2364965e-06
-8.9076429e-06
-9.9007574e-07
-8.6313144e-06
-8.0662188e-07
-8.3309868e-06
-6.8119328e-07
-8.0274702e-06
-6.0514399e-07
-7.7382567e-06
-5.6819445e-07
-7.475222e-06
-5.5954318e-07
-7.2456994e-06
-5.6851158e-07
-7.0532612e-06
-5.8581304e-07
-6.8971821e-06
-6.0399123e-07
-6.774042e-06
-6.1765306e-07
-6.6786785e-06
-6.2340315e-07
-6.6051942e-06
-6.1969339e-07
-6.5475206e-06
-6.064689e-07
-6.5001079e-06
-5.8476226e-07
-6.4583431e-06
-5.5628331e-07
-6.4187546e-06
-5.2304449e-07
-6.3790504e-06
-4.8705299e-07
-6.3380182e-06
-4.500857e-07
-6.295336e-06
-4.1356118e-07
-6.2513221e-06
-3.7849331e-07
-6.2066885e-06
-3.4550269e-07
-6.1623305e-06
-3.1486341e-07
-6.1191698e-06
-2.865891e-07
-6.0780145e-06
-2.6052432e-07
-6.0394902e-06
-2.3642711e-07
-6.0040206e-06
-2.1403485e-07
-5.9718441e-06
-1.9311e-07
-5.9430504e-06
-1.7346545e-07
-5.9176281e-06
-1.5497467e-07
-5.8955083e-06
-1.3756798e-07
-5.8766066e-06
-1.212223e-07
-5.8608508e-06
-1.0594503e-07
-5.8482024e-06
-9.1757598e-08
-5.8386669e-06
-7.8679778e-08
-5.8322944e-06
-6.6722413e-08
-5.8291685e-06
-5.5875543e-08
-5.8294071e-06
-4.6105507e-08
-5.8331435e-06
-3.7352762e-08
-5.8405151e-06
-2.9532092e-08
-5.8516491e-06
-2.2534879e-08
-5.8666462e-06
-1.6232448e-08
-5.8855678e-06
-1.0480921e-08
-5.9084313e-06
-5.1257407e-09
-5.9352285e-06
-5.9661501e-06
-3.1683194e-05
-9.3086408e-05
-2.1081921e-05
-9.0369091e-05
-1.1488853e-05
-8.6357506e-05
-3.0110799e-06
-8.1246327e-05
4.2785071e-06
-7.5245698e-05
1.0333364e-05
-6.8568954e-05
1.5143698e-05
-6.1433847e-05
1.8729394e-05
-5.4054344e-05
2.1139308e-05
-4.663669e-05
2.2449023e-05
-3.9374047e-05
2.2758011e-05
-3.2441794e-05
2.2185799e-05
-2.5993229e-05
2.0867704e-05
-2.0155498e-05
1.8949565e-05
-1.5025815e-05
1.6582781e-05
-1.0671126e-05
1.3919133e-05
-7.1279747e-06
1.1105559e-05
-4.4010332e-06
8.2789007e-06
-2.4656744e-06
5.5595396e-06
-1.2670683e-06
3.0488816e-06
-7.2877559e-07
8.2759987e-07
-7.5761917e-07
-1.0486464e-06
-1.2440249e-06
-2.5480238e-06
-2.0745906e-06
-3.6597805e-06
-3.1367226e-06
-4.3961095e-06
-4.3185978e-06
-4.7877361e-06
-5.5209175e-06
-4.8788687e-06
-6.661401e-06
-4.7223716e-06
-7.6767002e-06
-4.3757835e-06
-8.5220778e-06
-3.8978652e-06
-9.1699245e-06
-3.3445962e-06
-9.6101382e-06
-2.7660589e-06
-9.8483356e-06
-2.2041974e-06
-9.9028155e-06
-1.6914891e-06
-9.8011289e-06
-1.2503627e-06
-9.5765828e-06
-8.9346576e-07
-9.2645398e-06
-6.2446024e-07
-8.9003199e-06
-4.3915926e-07
-8.5162878e-06
-3.2912722e-07
-8.1375022e-06
-2.80226e-07
-7.7871579e-06
-2.7764571e-07
-7.4778023e-06
-3.0678611e-07
-7.216559e-06
-3.5306066e-07
-7.0069867e-06
-4.0453934e-07
-6.8457034e-06
-4.5187146e-07
-6.7267099e-06
-4.8873664e-07
-6.6418134e-06
-5.1162449e-07
-6.5823064e-06
-5.1947852e-07
-6.5396665e-06
-5.1314218e-07
-6.5064443e-06
-4.9476181e-07
-6.4767235e-06
-4.6721007e-07
-6.4463063e-06
-4.335774e-07
-6.412683e-06
-3.9676586e-07
-6.3748297e-06
-3.5921064e-07
-6.3328912e-06
-3.2274978e-07
-6.2877829e-06
-2.8860186e-07
-6.2408364e-06
-2.5741632e-07
-6.193516e-06
-2.2936152e-07
-6.1472246e-06
-2.0427619e-07
-6.1030998e-06
-1.8180855e-07
-6.0619578e-06
-1.6153274e-07
-6.0242964e-06
-1.430364e-07
-5.9903405e-06
-1.259785e-07
-5.9601083e-06
-1.1011112e-07
-5.9334955e-06
-9.5288514e-08
-5.9103309e-06
-8.1452512e-08
-5.8904426e-06
-6.8612509e-08
-5.8736908e-06
-5.6818655e-08
-5.8599963e-06
-4.6137259e-08
-5.8493483e-06
-3.662319e-08
-5.8418084e-06
-2.832387e-08
-5.8374678e-06
-2.1251078e-08
-5.8364799e-06
-1.538527e-08
-5.8390093e-06
-1.0673103e-08
-5.8452273e-06
-7.0274658e-09
-5.8552948e-06
-4.3331272e-09
-5.8693405e-06
-2.4491755e-09
-5.8874518e-06
-1.2164725e-09
-5.909664e-06
-4.6227611e-10
-5.9359827e-06
-5.9666124e-06
-2.7925606e-05
-0.00010598398
-1.6088192e-05
-0.0001022065
-5.4634498e-06
-9.6982248e-05
3.8298201e-06
-9.0539597e-05
1.171204e-05
-8.3127919e-05
1.8141117e-05
-7.499803e-05
2.3111541e-05
-6.6404272e-05
2.6653575e-05
-5.7596378e-05
2.8831143e-05
-4.8814257e-05
2.9739276e-05
-4.0282179e-05
2.9500752e-05
-3.220327e-05
2.8261736e-05
-2.4754213e-05
2.6186686e-05
-1.8080448e-05
2.3452556e-05
-1.2291686e-05
2.0242815e-05
-7.4613847e-06
1.6739731e-05
-3.6248904e-06
1.3116387e-05
-7.7768946e-07
9.5420345e-06
1.1086785e-06
6.1602784e-06
2.1146878e-06
3.0878071e-06
2.3436957e-06
4.1299034e-07
1.9171976e-06
-1.806254e-06
9.7521947e-07
-3.5330703e-06
-3.4777435e-07
-4.7627931e-06
-1.9069998e-06
-5.519578e-06
-3.561813e-06
-5.849959e-06
-5.1905365e-06
-5.8159812e-06
-6.6953788e-06
-5.4889982e-06
-8.0036832e-06
-4.945223e-06
-9.065853e-06
-4.2609031e-06
-9.8542444e-06
-3.5072986e-06
-1.0363743e-05
-2.7468928e-06
-1.0608741e-05
-2.0307128e-06
-1.0618996e-05
-1.3969735e-06
-1.0434868e-05
-8.7053138e-07
-1.0103025e-05
-4.6331317e-07
-9.671758e-06
-1.7623551e-07
-9.1873976e-06
-9.9667672e-11
-8.6924236e-06
8.312481e-08
-8.2207267e-06
9.0256228e-08
-7.7942894e-06
4.278029e-08
-7.4303264e-06
-3.695553e-08
-7.1368231e-06
-1.3179202e-07
-6.9121502e-06
-2.2662216e-07
-6.7508733e-06
-3.0946076e-07
-6.6438713e-06
-3.7312691e-07
-6.5781472e-06
-4.1435054e-07
-6.5410827e-06
-4.3307029e-07
-6.5209468e-06
-4.3160174e-07
-6.5079128e-06
-4.1377235e-07
-6.4945528e-06
-3.8412536e-07
-6.4759533e-06
-3.4723075e-07
-6.4495776e-06
-3.0716231e-07
-6.4148982e-06
-2.6716243e-07
-6.372891e-06
-2.2953321e-07
-6.3254122e-06
-1.9563946e-07
-6.2747302e-06
-1.6607069e-07
-6.2230848e-06
-1.407413e-07
-6.172554e-06
-1.1918133e-07
-6.1246598e-06
-1.0072972e-07
-6.0804094e-06
-8.468936e-08
-6.0403368e-06
-7.0439254e-08
-6.0045906e-06
-5.7510949e-08
-5.9730367e-06
-4.5582397e-08
-5.945424e-06
-3.450047e-08
-5.9214129e-06
-2.4240498e-08
-5.9007026e-06
-1.4869876e-08
-5.8830614e-06
-6.5058202e-09
-5.8683603e-06
7.2590041e-10
-5.85658e-06
6.6981616e-09
-5.8477807e-06
1.1339214e-08
-5.8421089e-06
1.46067e-08
-5.8397474e-06
1.6504679e-08
-5.8409072e-06
1.708197e-08
-5.8458045e-06
1.6427727e-08
-5.8546405e-06
1.4667735e-08
-5.8675805e-06
1.1957951e-08
-5.884742e-06
8.4775406e-09
-5.9061836e-06
4.420344e-09
-5.9319255e-06
-5.9621921e-06
-2.2971007e-05
-0.00012048236
-9.759372e-06
-0.00011541814
1.9957101e-06
-0.00010873733
1.2166111e-05
-0.00010071
2.0667528e-05
-9.1629337e-05
2.7459721e-05
-8.1790222e-05
3.2544384e-05
-7.1488935e-05
3.59644e-05
-6.1016394e-05
3.7801718e-05
-5.0651575e-05
3.817445e-05
-4.0654911e-05
3.7233069e-05
-3.1261889e-05
3.5155387e-05
-2.2676532e-05
3.2140363e-05
-1.5065424e-05
2.8401375e-05
-8.5526986e-06
2.4159203e-05
-3.2192118e-06
1.9637465e-05
8.9684677e-07
1.5056133e-05
3.8036432e-06
1.0599861e-05
5.5649497e-06
6.4380856e-06
6.2764636e-06
2.7115683e-06
6.070213e-06
-4.7598505e-07
5.104751e-06
-3.0560931e-06
3.5553275e-06
-5.0097282e-06
1.6058608e-06
-6.3371123e-06
-5.7961571e-07
-7.0690801e-06
-2.8298452e-06
-7.2764212e-06
-4.9831954e-06
-7.0452109e-06
-6.9265891e-06
-6.4709046e-06
-8.5779895e-06
-5.6537729e-06
-9.8829847e-06
-4.6921082e-06
-1.0815909e-05
-3.6760894e-06
-1.1379762e-05
-2.6831953e-06
-1.1601635e-05
-1.7750062e-06
-1.1527185e-05
-9.95827e-07
-1.1214047e-05
-3.7296537e-07
-1.0725887e-05
8.5337017e-08
-1.013006e-05
3.8526848e-07
-9.487329e-06
5.4134765e-07
-8.8485028e-06
5.7658048e-07
-8.2559595e-06
5.2032796e-07
-7.7380368e-06
4.0228065e-07
-7.3122791e-06
2.5031166e-07
-6.9848542e-06
8.9688787e-08
-6.7515273e-06
-5.965593e-08
-6.6015285e-06
-1.8522782e-07
-6.5182994e-06
-2.7916038e-07
-6.4842146e-06
-3.3900949e-07
-6.4812336e-06
-3.6648743e-07
-6.4934688e-06
-3.6622225e-07
-6.508178e-06
-3.4452444e-07
-6.5162506e-06
-3.082994e-07
-6.5121783e-06
-2.6411034e-07
-6.4937667e-06
-2.1753249e-07
-6.461476e-06
-1.7277018e-07
-6.4176534e-06
-1.3259626e-07
-6.3655861e-06
-9.8346028e-08
-6.3089804e-06
-7.0453268e-08
-6.2509775e-06
-4.8288705e-08
-6.1947185e-06
-3.0889423e-08
-6.1420591e-06
-1.7130258e-08
-6.0941686e-06
-5.932716e-09
-6.0515343e-06
3.5887197e-09
-6.014112e-06
1.2099198e-08
-5.9815471e-06
1.9944826e-08
-5.9532696e-06
2.7246911e-08
-5.9287149e-06
3.3968435e-08
-5.9074241e-06
3.9947317e-08
-5.8890403e-06
4.4980465e-08
-5.8733935e-06
4.8848073e-08
-5.8604476e-06
5.1362512e-08
-5.8502951e-06
5.2387156e-08
-5.8431335e-06
5.1842348e-08
-5.8392026e-06
4.9717184e-08
-5.8387821e-06
4.6059498e-08
-5.8421469e-06
4.0966036e-08
-5.849547e-06
3.4580111e-08
-5.8611946e-06
2.7076454e-08
-5.8772383e-06
1.8660114e-08
-5.8977673e-06
9.552617e-09
-5.922818e-06
-5.9526395e-06
-1.6574912e-05
-0.00013677746
-1.8325809e-06
-0.00013016047
1.1154431e-05
-0.00012172434
2.2263658e-05
-0.00011181922
3.1404814e-05
-0.00010077049
3.8539006e-05
-8.8924415e-05
4.3676661e-05
-7.662659e-05
4.6875792e-05
-6.4215525e-05
4.8239631e-05
-5.2015414e-05
4.7913372e-05
-4.0328652e-05
4.607998e-05
-2.9428497e-05
4.2954736e-05
-1.9551288e-05
3.8779246e-05
-1.0889934e-05
3.3810289e-05
-3.5837413e-06
2.8324833e-05
2.2662438e-06
2.258606e-05
6.6356196e-06
1.6843796e-05
9.5459076e-06
1.1333112e-05
1.1075633e-05
6.2563245e-06
1.1353251e-05
1.7769361e-06
1.0549601e-05
-1.9860022e-06
8.8676893e-06
-4.9599103e-06
6.5292356e-06
-7.1191774e-06
3.7651279e-06
-8.5019383e-06
8.0314521e-07
-9.1413333e-06
-2.1904502e-06
-9.1403025e-06
-4.9842262e-06
-8.615381e-06
-7.4515106e-06
-7.6931803e-06
-9.5001901e-06
-6.5047486e-06
-1.1071416e-05
-5.1761491e-06
-1.2144509e-05
-3.8209352e-06
-1.2734975e-05
-2.5346289e-06
-1.2887942e-05
-1.3911932e-06
-1.267062e-05
-4.4139021e-07
-1.216385e-05
2.901649e-07
-1.1457442e-05
7.9723749e-07
-1.0637133e-05
1.0919152e-06
-9.7820068e-06
1.2014541e-06
-8.9580416e-06
1.1613313e-06
-8.2158367e-06
1.0122384e-06
-7.588944e-06
7.9533874e-07
-7.0953794e-06
5.4850089e-07
-6.7380163e-06
3.0382459e-07
-6.506851e-06
8.5190672e-08
-6.3828946e-06
-9.1290558e-08
-6.3418182e-06
-2.1834251e-07
-6.3571627e-06
-2.9546692e-07
-6.4041092e-06
-3.273588e-07
-6.461577e-06
-3.2218207e-07
-6.5133547e-06
-2.8986392e-07
-6.5485688e-06
-2.4059779e-07
-6.5614445e-06
-1.8358917e-07
-6.5507753e-06
-1.2628763e-07
-6.5187775e-06
-7.4010482e-08
-6.4699305e-06
-2.9967198e-08
-6.4096293e-06
4.6979974e-09
-6.3436456e-06
3.069065e-08
-6.2769702e-06
4.8969009e-08
-6.2129969e-06
6.1223904e-08
-6.154314e-06
6.9282037e-08
-6.1022267e-06
7.4758926e-08
-6.0570112e-06
7.890786e-08
-6.0182609e-06
8.2532127e-08
-5.9851714e-06
8.605651e-08
-5.956794e-06
8.9576671e-08
-5.9322351e-06
9.2895823e-08
-5.9107433e-06
9.5707913e-08
-5.8918524e-06
9.7638521e-08
-5.8753241e-06
9.8338413e-08
-5.8611475e-06
9.7523953e-08
-5.8494807e-06
9.4990292e-08
-5.8405998e-06
9.0632294e-08
-5.8348446e-06
8.4425788e-08
-5.8325756e-06
7.6422333e-08
-5.8341434e-06
6.6736539e-08
-5.8398613e-06
5.5530325e-08
-5.8499884e-06
4.3008531e-08
-5.8647165e-06
2.9403612e-08
-5.8841624e-06
1.4972874e-08
-5.9083873e-06
-5.9376666e-06
-8.4497058e-06
-0.00015508657
7.9678098e-06
-0.00014657799
2.2313092e-05
-0.00013606962
3.4428589e-05
-0.00012393472
4.4224774e-05
-0.00011056668
5.1667599e-05
-9.6367239e-05
5.6778563e-05
-8.1737554e-05
5.9633566e-05
-6.7070528e-05
6.0360723e-05
-5.2742571e-05
5.9137143e-05
-3.9105072e-05
5.6184638e-05
-2.6475992e-05
5.176308e-05
-1.512973e-05
4.6163413e-05
-5.290266e-06
3.970479e-05
2.8748812e-06
3.270429e-05
9.2667437e-06
2.5486102e-05
1.3853808e-05
1.8357292e-05
1.6674717e-05
1.1598115e-05
1.783481e-05
5.4501544e-06
1.7501212e-05
1.0504794e-07
1.5894708e-05
-4.2972098e-06
1.3269947e-05
-7.6827303e-06
9.914756e-06
-1.0035147e-05
6.1175449e-06
-1.1393213e-05
2.1612114e-06
-1.1849416e-05
-1.7342472e-06
-1.1525273e-05
-5.30837e-06
-1.0578872e-05
-8.3979117e-06
-9.1779346e-06
-1.0901127e-05
-7.4928851e-06
-1.2756466e-05
-5.6847376e-06
-1.3952656e-05
-3.8959614e-06
-1.4523752e-05
-2.2436886e-06
-1.4540215e-05
-8.1551926e-07
-1.409879e-05
3.3392793e-07
-1.3313298e-05
1.1783836e-06
-1.2301897e-05
1.7199142e-06
-1.1178664e-05
1.9835312e-06
-1.0045624e-05
2.0113374e-06
-8.9858479e-06
1.8554525e-06
-8.0599518e-06
1.5728392e-06
-7.3063306e-06
1.2195903e-06
-6.7421306e-06
8.4597296e-07
-6.3643989e-06
4.9294049e-07
-6.1538185e-06
1.9001857e-07
-6.0799727e-06
-4.5192701e-08
-6.1066069e-06
-2.0649066e-07
-6.1958647e-06
-2.9668183e-07
-6.3139181e-06
-3.2517393e-07
-6.4330849e-06
-3.0538691e-07
-6.5331418e-06
-2.5243422e-07
-6.6015215e-06
-1.8100686e-07
-6.6328718e-06
-1.0377048e-07
-6.6280117e-06
-3.0447838e-08
-6.5921002e-06
3.2449199e-08
-6.5328276e-06
8.2038594e-08
-6.4592188e-06
1.1761572e-07
-6.3792227e-06
1.4036312e-07
-6.2997176e-06
1.5284985e-07
-6.2254836e-06
1.5799668e-07
-6.1594608e-06
1.5858994e-07
-6.10282e-06
1.569565e-07
-6.0553778e-06
1.5478328e-07
-6.0160877e-06
1.5308389e-07
-5.983472e-06
1.5224041e-07
-5.9559506e-06
1.5213755e-07
-5.9321322e-06
1.5236686e-07
-5.9109726e-06
1.5235558e-07
-5.8918411e-06
1.5151471e-07
-5.8744832e-06
1.493192e-07
-5.858952e-06
1.4536227e-07
-5.8455237e-06
1.3937265e-07
-5.8346102e-06
1.3121289e-07
-5.8266849e-06
1.2086087e-07
-5.8222235e-06
1.083859e-07
-5.8216685e-06
9.392776e-08
-5.8254031e-06
7.7680761e-08
-5.8337414e-06
5.9880404e-08
-5.8469162e-06
4.0796872e-08
-5.8650788e-06
2.0726484e-08
-5.8883169e-06
-5.9169401e-06
1.7283064e-06
-0.00017563432
2.001927e-05
-0.00016486895
3.5835512e-05
-0.00015188587
4.9018732e-05
-0.00013711794
5.9476211e-05
-0.00012102416
6.7179232e-05
-0.00010407026
7.2162388e-05
-8.672071e-05
7.452238e-05
-6.9430519e-05
7.441604e-05
-5.2636231e-05
7.2057225e-05
-3.6746257e-05
6.7712669e-05
-2.2131436e-05
6.1696644e-05
-9.1137051e-06
5.4356429e-05
2.0499488e-06
4.6073205e-05
1.1158105e-05
3.7238054e-05
1.8101895e-05
2.8240454e-05
2.2851407e-05
1.9451919e-05
2.5463252e-05
1.1210931e-05
2.6075798e-05
3.8072924e-06
2.4904851e-05
-2.5278604e-06
2.2229861e-05
-7.6385851e-06
1.8380672e-05
-1.1444159e-05
1.372033e-05
-1.3940369e-05
8.6137545e-06
-1.5193662e-05
3.4145043e-06
-1.5331404e-05
-1.5965043e-06
-1.452746e-05
-6.112314e-06
-1.2990604e-05
-9.9347685e-06
-1.0941327e-05
-1.2950404e-05
-8.5999976e-06
-1.5097795e-05
-6.1714548e-06
-1.6381199e-05
-3.8336e-06
-1.6861606e-05
-1.7290426e-06
-1.6644772e-05
3.999293e-08
-1.5867825e-05
1.412684e-06
-1.4685989e-05
2.3676675e-06
-1.3256881e-05
2.9193028e-06
-1.1730299e-05
3.1105712e-06
-1.0236892e-05
3.0048359e-06
-8.8801125e-06
2.6767504e-06
-7.7318664e-06
2.2053008e-06
-6.834881e-06
1.6661172e-06
-6.202947e-06
1.1251811e-06
-5.8234629e-06
6.3435903e-07
-5.6629964e-06
2.2914378e-07
-5.6747575e-06
-7.1452173e-08
-5.8060109e-06
-2.6487033e-07
-6.0024465e-06
-3.5931891e-07
-6.2194695e-06
-3.7139387e-07
-6.4210099e-06
-3.2217819e-07
-6.5823574e-06
-2.3409236e-07
-6.6896073e-06
-1.2788904e-07
-6.7390751e-06
-2.0448213e-08
-6.7354526e-06
7.5233248e-08
-6.6877816e-06
1.5243806e-07
-6.6100324e-06
2.0814247e-07
-6.5149232e-06
2.4308388e-07
-6.4141641e-06
2.6032094e-07
-6.3169547e-06
2.6424861e-07
-6.2294113e-06
2.5951707e-07
-6.1547292e-06
2.5029315e-07
-6.0935961e-06
2.3983759e-07
-6.0449222e-06
2.3033795e-07
-6.0065881e-06
2.2290384e-07
-5.9760379e-06
2.1773495e-07
-5.9507817e-06
2.1438864e-07
-5.9287859e-06
2.1205655e-07
-5.9086405e-06
2.0979347e-07
-5.889578e-06
2.0669221e-07
-5.871382e-06
2.0199859e-07
-5.8542584e-06
1.9516208e-07
-5.8386872e-06
1.8584443e-07
-5.8252926e-06
1.7389617e-07
-5.8147366e-06
1.5931729e-07
-5.8076446e-06
1.4221494e-07
-5.8045661e-06
1.2277208e-07
-5.8059602e-06
1.0122327e-07
-5.8121926e-06
7.7844178e-08
-5.8235371e-06
5.2945182e-08
-5.8401798e-06
2.6868206e-08
-5.8622399e-06
-5.8900719e-06
1.4374662e-05
-0.00019866537
3.4723446e-05
-0.00018521773
5.2136796e-05
-0.00016929921
6.6447702e-05
-0.00015142885
7.75627e-05
-0.00013213915
8.5460143e-05
-0.0001119677
9.0189681e-05
-9.1450248e-05
9.1871425e-05
-7.1112264e-05
9.0694584e-05
-5.1459389e-05
8.6914862e-05
-3.2966535e-05
8.0850799e-05
-1.6067373e-05
7.287893e-05
-1.1418365e-06
6.3410611e-05
1.1518268e-05
5.2913334e-05
2.1655383e-05
4.1858008e-05
2.9157221e-05
3.0716246e-05
3.3993169e-05
1.9938928e-05
3.624057e-05
9.9364452e-06
3.6078281e-05
1.0565296e-06
3.3784767e-05
-6.4108695e-06
2.969726e-05
-1.2298394e-05
2.4268196e-05
-1.6519519e-05
1.7941455e-05
-1.9087047e-05
1.1181283e-05
-2.0103554e-05
4.4310118e-06
-1.9744838e-05
-1.9552207e-06
-1.8253876e-05
-7.603276e-06
-1.5905575e-05
-1.228307e-05
-1.2989241e-05
-1.5866738e-05
-9.7889476e-06
-1.8298088e-05
-6.5644773e-06
-1.9605669e-05
-3.5370121e-06
-1.9889072e-05
-8.7922077e-07
-1.9302563e-05
1.2896854e-06
-1.8036731e-05
2.9059107e-06
-1.6302214e-05
3.9574266e-06
-1.4308397e-05
4.4771277e-06
-1.225e-05
4.5337295e-06
-1.0293494e-05
4.2201909e-06
-8.5665739e-06
3.6418672e-06
-7.1535427e-06
2.9071392e-06
-6.100153e-06
2.1171369e-06
-5.4129446e-06
1.3576643e-06
-5.0639904e-06
6.9387204e-07
-4.9992041e-06
1.6810717e-07
-5.1489926e-06
-2.03258e-07
-5.4346458e-06
-4.2135268e-07
-5.7843519e-06
-5.0427179e-07
-6.1365504e-06
-4.7933741e-07
-6.4459443e-06
-3.7873119e-07
-6.6829636e-06
-2.3503151e-07
-6.833307e-06
-7.6965455e-08
-6.8971412e-06
7.2546583e-08
-6.8849646e-06
1.9870572e-07
-6.8139407e-06
2.9330102e-07
-6.7046277e-06
3.547964e-07
-6.5764185e-06
3.8630513e-07
-6.4456729e-06
3.9382289e-07
-6.3244724e-06
3.846242e-07
-6.2202126e-06
3.6584716e-07
-6.1359522e-06
3.4350596e-07
-6.0712549e-06
3.2200121e-07
-6.0234175e-06
3.0400289e-07
-5.9885898e-06
2.9054819e-07
-5.9625832e-06
2.8142067e-07
-5.9416541e-06
2.755854e-07
-5.9229507e-06
2.7160605e-07
-5.9046612e-06
2.6797763e-07
-5.8859496e-06
2.633625e-07
-5.8667668e-06
2.5671662e-07
-5.8476125e-06
2.4733432e-07
-5.8293049e-06
2.3483199e-07
-5.8127902e-06
2.1908572e-07
-5.7989903e-06
2.0015706e-07
-5.788716e-06
1.7822525e-07
-5.7826343e-06
1.5353748e-07
-5.7812725e-06
1.2638145e-07
-5.7850366e-06
9.7075815e-08
-5.7942315e-06
6.5972694e-08
-5.8090767e-06
3.346306e-08
-5.8297303e-06
-5.8566088e-06
2.9949203e-05
-0.00022449911
5.2561127e-05
-0.00020782966
7.1699752e-05
-0.00018843784
8.7193205e-05
-0.0001669223
9.8949138e-05
-0.00014389509
0.00010695457
-0.00011997314
0.00011127595
-9.577162e-05
0.0001120592
-7.1895517e-05
0.00010952935
-4.8929539e-05
0.00010398971
-2.7426894e-05
9.5823701e-05
-7.9013667e-06
8.5439869e-05
9.2419956e-06
7.3391803e-05
2.3566334e-05
6.0210265e-05
3.483692e-05
4.6468627e-05
4.289886e-05
3.2740853e-05
4.7720943e-05
1.9576932e-05
4.9404491e-05
7.4785527e-06
4.8176661e-05
-3.1211999e-06
4.4384519e-05
-1.1898133e-05
3.8474193e-05
-1.8635952e-05
3.1006015e-05
-2.3249224e-05
2.2554727e-05
-2.5776181e-05
1.370824e-05
-2.6374101e-05
5.0289317e-06
-2.5277563e-05
-3.0517587e-06
-2.2824046e-05
-1.0056793e-05
-1.937566e-05
-1.5731455e-05
-1.5310899e-05
-1.99315e-05
-1.0995099e-05
-2.2613888e-05
-6.756824e-06
-2.3843944e-05
-2.8699722e-06
-2.3775923e-05
4.5671884e-07
-2.2629254e-05
3.0875152e-06
-2.0667528e-05
4.9589118e-06
-1.817361e-05
6.0744283e-06
-1.5423913e-05
6.4947929e-06
-1.2670365e-05
6.3250943e-06
-1.0123795e-05
5.6991375e-06
-7.940617e-06
4.763896e-06
-6.2183011e-06
3.6667047e-06
-5.0029617e-06
2.541719e-06
-4.2879589e-06
1.4997635e-06
-4.0220349e-06
6.2165797e-07
-4.1210986e-06
-4.4679522e-08
-4.4826551e-06
-4.8536294e-07
-4.9939624e-06
-7.1216616e-07
-5.5575486e-06
-7.5723888e-07
-6.0914777e-06
-6.6383663e-07
-6.5393465e-06
-4.8002343e-07
-6.8667769e-06
-2.520713e-07
-7.0612591e-06
-1.9031788e-08
-7.1301807e-06
1.87948e-07
-7.0919444e-06
3.5246432e-07
-6.9784571e-06
4.6655593e-07
-6.8187193e-06
5.3124255e-07
-6.6411051e-06
5.5368316e-07
-6.4681135e-06
5.4443113e-07
-6.3152204e-06
5.1506989e-07
-6.1908514e-06
4.7621421e-07
-6.0970965e-06
4.3627301e-07
-6.0313137e-06
4.0097304e-07
-5.9881175e-06
3.7330855e-07
-5.9609253e-06
3.5392128e-07
-5.943196e-06
3.4176681e-07
-5.9294996e-06
3.3481181e-07
-5.9159957e-06
3.3065314e-07
-5.9005025e-06
3.2698747e-07
-5.8822839e-06
3.2190264e-07
-5.861682e-06
3.1401017e-07
-5.8397201e-06
3.0246704e-07
-5.8177618e-06
2.869007e-07
-5.7972239e-06
2.6728437e-07
-5.779374e-06
2.4380816e-07
-5.7652398e-06
2.1677314e-07
-5.7555993e-06
1.8652056e-07
-5.7510199e-06
1.5340026e-07
-5.7519163e-06
1.1777102e-07
-5.7586022e-06
8.0020016e-08
-5.7713257e-06
4.0585839e-08
-5.7902961e-06
-5.816023e-06
4.9011555e-05
-0.0002534079
7.409361e-05
-0.00023291171
9.5083478e-05
-0.00020942771
0.00011180523
-0.00018364406
0.0001241694
-0.00015625925
0.00013217276
-0.0001279765
0.00013589949
-9.9498345e-05
0.00013552289
-7.1518919e-05
0.00013130778
-4.4714429e-05
0.00012361709
-1.973621e-05
0.0001128413
2.8744264e-06
9.9562624e-05
2.2520673e-05
8.4375872e-05
3.8753086e-05
6.7938813e-05
5.1273979e-05
5.0945139e-05
5.9892534e-05
3.4094084e-05
6.4571998e-05
1.8056742e-05
6.5441833e-05
3.4385087e-06
6.2794894e-05
-9.180558e-06
5.7003586e-05
-1.9447896e-05
4.8741531e-05
-2.7104535e-05
3.8662653e-05
-3.2059162e-05
2.7509354e-05
-3.4385024e-05
1.6034102e-05
-3.4306688e-05
4.9505957e-06
-3.2149052e-05
-5.2093951e-06
-2.8368753e-05
-1.3837091e-05
-2.3444401e-05
-2.0655808e-05
-1.7870121e-05
-2.550578e-05
-1.2114945e-05
-2.8369064e-05
-6.5933073e-06
-2.9365582e-05
-1.6417476e-06
-2.8727483e-05
2.4845583e-06
-2.675556e-05
5.6382576e-06
-2.3821227e-05
7.7605753e-06
-2.0295928e-05
8.8799856e-06
-1.6543323e-05
9.0977215e-06
-1.28881e-05
8.5692102e-06
-9.5952841e-06
7.4844863e-06
-6.8558931e-06
6.0475253e-06
-4.7813402e-06
4.4569622e-06
-3.4123986e-06
2.889266e-06
-2.7202627e-06
1.4863228e-06
-2.6190917e-06
3.4702666e-07
-2.9818024e-06
-4.7803569e-07
-3.6575928e-06
-9.7797617e-07
-4.4940219e-06
-1.1837344e-06
-5.3517904e-06
-1.1491034e-06
-6.1261086e-06
-9.4037886e-07
-6.7480711e-06
-6.2803979e-07
-7.1791159e-06
-2.7718599e-07
-7.4121129e-06
5.8676964e-08
-7.4660437e-06
3.4324872e-07
-7.3765161e-06
5.5489294e-07
-7.1901013e-06
6.8831961e-07
-6.952146e-06
7.4976683e-07
-6.7025523e-06
7.5306895e-07
-6.4714156e-06
7.1578243e-07
-6.2779339e-06
6.5574891e-07
-6.1308179e-06
5.8832854e-07
-6.0296761e-06
5.2494477e-07
-5.9679299e-06
4.727001e-07
-5.9358728e-06
4.34519e-07
-5.9227442e-06
4.1005011e-07
-5.9187271e-06
3.9675727e-07
-5.9162068e-06
3.9099954e-07
-5.9102379e-06
3.8893251e-07
-5.8984355e-06
3.8714239e-07
-5.8804938e-06
3.8298426e-07
-5.8575239e-06
3.7469998e-07
-5.8314358e-06
3.6137932e-07
-5.8044411e-06
3.4277711e-07
-5.7786217e-06
3.1908848e-07
-5.7556853e-06
2.9073882e-07
-5.7368901e-06
2.5822359e-07
-5.7230841e-06
2.2201296e-07
-5.7148093e-06
1.8252141e-07
-5.7124247e-06
1.4012973e-07
-5.7162106e-06
9.523732e-08
-5.7264333e-06
4.8319368e-08
-5.7433782e-06
-5.7677036e-06
7.2216548e-05
-0.00028569932
9.9976944e-05
-0.00026067211
0.0001229363
-0.00023238707
0.00014091829
-0.00020162605
0.00015383799
-0.00016917895
0.00016170231
-0.00013584082
0.00016461278
-0.00010240881
0.00016276934
-6.9675479e-05
0.00015647389
-3.8418981e-05
0.00014614261
-9.4049334e-06
0.00013223347
1.6783572e-05
0.00011543178
3.9322356e-05
9.6443288e-05
5.7741582e-05
7.6060781e-05
7.1656486e-05
5.5127458e-05
8.0825857e-05
3.4498668e-05
8.5200788e-05
1.5002205e-05
8.4938296e-05
-2.5956032e-06
8.0392702e-05
-1.7636147e-05
7.204413e-05
-2.962826e-05
6.0733644e-05
-3.8274168e-05
4.7308561e-05
-4.3481908e-05
3.2717094e-05
-4.5370808e-05
1.7923003e-05
-4.4274677e-05
3.8544649e-06
-4.0618101e-05
-8.8659716e-06
-3.5028847e-05
-1.9426345e-05
-2.8139429e-05
-2.7545226e-05
-2.0593013e-05
-3.3052196e-05
-1.2990715e-05
-3.5971363e-05
-5.8548601e-06
-3.6501436e-05
3.9976494e-07
-3.4982108e-05
5.4769914e-06
-3.1832787e-05
9.209114e-06
-2.755335e-05
1.1553e-05
-2.2639814e-05
1.2576381e-05
-1.7566705e-05
1.2439305e-05
-1.2751024e-05
1.136674e-05
-8.5227194e-06
9.6228257e-06
-5.1119787e-06
7.4882095e-06
-2.6467239e-06
5.2293452e-06
-1.1535342e-06
3.0777072e-06
-5.6862471e-07
1.2167079e-06
-7.5809247e-07
-2.3619263e-07
-1.5289019e-06
-1.2266235e-06
-2.6671619e-06
-1.7603559e-06
-3.9602895e-06
-1.8947996e-06
-5.2173468e-06
-1.7159261e-06
-6.304982e-06
-1.3233275e-06
-7.1406697e-06
-8.1866888e-07
-7.6837746e-06
-2.9226313e-07
-7.9385187e-06
1.8511829e-07
-7.9434251e-06
5.6766534e-07
-7.7590632e-06
8.3310144e-07
-7.4555374e-06
9.8094921e-07
-7.0999937e-06
1.0263246e-06
-6.7479277e-06
9.9359567e-07
-6.4386867e-06
9.1087734e-07
-6.1952155e-06
8.0490021e-07
-6.0248408e-06
6.9734041e-07
-5.9221163e-06
6.0324799e-07
-5.8738375e-06
5.3082483e-07
-5.8634497e-06
4.8214093e-07
-5.8740603e-06
4.548338e-07
-5.8914199e-06
4.4383998e-07
-5.905213e-06
4.4301602e-07
-5.909414e-06
4.4643195e-07
-5.9018514e-06
4.4918044e-07
-5.8832423e-06
4.4772811e-07
-5.8560716e-06
4.3999484e-07
-5.8237025e-06
4.2516735e-07
-5.7896137e-06
4.0334075e-07
-5.7567951e-06
3.7513857e-07
-5.7274832e-06
3.4138424e-07
-5.7031358e-06
3.0286852e-07
-5.6845683e-06
2.6022789e-07
-5.6721687e-06
2.1392689e-07
-5.6661237e-06
1.6432006e-07
-5.6666037e-06
1.1176639e-07
-5.6738797e-06
5.6748339e-08
-5.6883601e-06
-5.7109553e-06
0.00010036094
-0.0003216799
0.00013099743
-0.0002913086
0.00015602667
-0.0002574163
0.00017527791
-0.0002208773
0.00018867264
-0.00018257368
0.00019622754
-0.00014339572
0.00019805937
-0.00010424065
0.00019439553
-6.6011634e-05
0.00018558583
-2.9609286e-05
0.00017200182
4.17908e-06
0.00015432944
3.4455952e-05
0.00013327537
6.0376422e-05
0.00010968836
8.1328592e-05
8.4523907e-05
9.6820943e-05
5.8809861e-05
0.0001065399
3.3595004e-05
0.00011041565
9.9019056e-06
0.00010863139
-1.1295224e-05
0.00010158983
-2.9190104e-05
8.993901e-05
-4.3169837e-05
7.4713377e-05
-5.2869448e-05
5.7008172e-05
-5.81935e-05
3.8041146e-05
-5.9324258e-05
1.905376e-05
-5.6713853e-05
1.24406e-06
-5.0980132e-05
-1.4599692e-05
-4.295009e-05
-2.7456387e-05
-3.3460714e-05
-3.7034603e-05
-2.3349812e-05
-4.3163098e-05
-1.3387005e-05
-4.5934169e-05
-4.2270934e-06
-4.5661348e-05
3.6171053e-06
-4.2826307e-05
9.8027677e-06
-3.8018449e-05
1.4152743e-05
-3.1903325e-05
1.6649161e-05
-2.5136232e-05
1.7416625e-05
-1.8334169e-05
1.66978e-05
-1.2032199e-05
1.4811618e-05
-6.6365375e-06
1.2129119e-05
-2.4294797e-06
9.0379036e-06
4.4449147e-07
5.8950586e-06
1.9893108e-06
3.0006558e-06
2.3257781e-06
5.7548742e-07
1.6670759e-06
-1.2481139e-06
2.9469938e-07
-2.4119775e-06
-1.5032983e-06
-2.9347827e-06