/*--------------------------------*- C++ -*----------------------------------*\
| =========                 |                                                 |
| \\      /  F ield         | OpenFOAM: The Open Source CFD Toolbox           |
|  \\    /   O peration     | Version:  2306                                  |
|   \\  /    A nd           | Website:  www.openfoam.com                      |
|    \\/     M anipulation  |                                                 |
\*---------------------------------------------------------------------------*/
FoamFile
{
    version     2.0;
    format      ascii;
    arch        "LSB;label=32;scalar=64";
    class       volVectorField;
    location    "0.6";
    object      U_0;
}
// * * * * * * * * * * * * * * * * * * * * * * * * * * * * * * * * * * * * * //

dimensions      [0 1 -1 0 0 0 0];

internalField   nonuniform List<vector> 
6400
(
(-3.4196109e-05 -0.0031357964 2.9639987e-18)
(-7.8220179e-05 -0.0031353394 1.5132173e-18)
(-0.00012846099 -0.0031328659 -1.6671052e-18)
(-0.00017705801 -0.0031286404 -7.4146104e-19)
(-0.0002270439 -0.0031224527 -2.0292283e-18)
(-0.00027677771 -0.0031142971 3.3775667e-19)
(-0.00032619 -0.0031042245 -1.8212971e-18)
(-0.00037525582 -0.0030922802 -1.3912692e-18)
(-0.00042392262 -0.003078505 -5.6995766e-19)
(-0.00047212769 -0.0030629376 -1.2791908e-18)
(-0.00051981149 -0.0030456154 -1.4970026e-18)
(-0.00056691763 -0.0030265746 -1.5879488e-18)
(-0.00061339209 -0.0030058522 -1.2704165e-18)
(-0.00065918268 -0.0029834858 -1.2100958e-18)
(-0.00070423939 -0.0029595141 -1.1558677e-18)
(-0.00074851419 -0.0029339774 -1.031016e-18)
(-0.00079196104 -0.0029069172 -7.2103045e-19)
(-0.0008345359 -0.0028783765 -6.5934721e-19)
(-0.00087619681 -0.0028484 -5.180092e-19)
(-0.00091690403 -0.0028170336 -5.0975018e-19)
(-0.00095661981 -0.0027843249 -6.6920385e-19)
(-0.00099530862 -0.0027503226 -2.5249693e-19)
(-0.0010329372 -0.0027150765 -5.8548734e-20)
(-0.0010694745 -0.002678638 -2.8662204e-19)
(-0.0011048917 -0.0026410592 -2.9489862e-19)
(-0.0011391624 -0.0026023929 -8.8373893e-20)
(-0.0011722625 -0.0025626932 2.5642303e-19)
(-0.00120417 -0.0025220145 6.7750347e-20)
(-0.0012348655 -0.002480412 -2.5646787e-19)
(-0.0012643319 -0.0024379411 -2.1843942e-19)
(-0.0012925541 -0.0023946575 -4.9157988e-20)
(-0.0013195198 -0.0023506175 1.9978358e-19)
(-0.0013452185 -0.0023058768 6.7175642e-20)
(-0.0013696423 -0.0022604916 -2.1662458e-19)
(-0.0013927853 -0.0022145177 -1.1738735e-19)
(-0.0014146438 -0.0021680105 9.5938307e-20)
(-0.0014352164 -0.0021210253 2.4429862e-19)
(-0.0014545035 -0.0020736166 1.6165428e-19)
(-0.0014725078 -0.0020258387 -1.6758716e-19)
(-0.0014892339 -0.0019777447 1.4051235e-19)
(-0.0015046881 -0.0019293873 3.5111817e-19)
(-0.0015188788 -0.001880818 2.1310503e-19)
(-0.0015318162 -0.0018320876 3.1773136e-19)
(-0.001543512 -0.0017832458 2.2501791e-19)
(-0.0015539796 -0.0017343411 2.4018492e-20)
(-0.001563234 -0.0016854209 1.0850517e-19)
(-0.0015712916 -0.0016365312 -2.7666006e-20)
(-0.0015781703 -0.001587717 1.3655088e-19)
(-0.0015838892 -0.0015390216 2.1759534e-19)
(-0.0015884688 -0.0014904873 -4.424194e-20)
(-0.0015919306 -0.0014421543 -1.398317e-21)
(-0.0015942971 -0.001394062 -1.2770659e-19)
(-0.0015955921 -0.001346248 -3.0891789e-19)
(-0.00159584 -0.0012987486 -3.8522308e-19)
(-0.0015950661 -0.0012515978 -3.2667718e-19)
(-0.0015932966 -0.0012048289 1.7799393e-19)
(-0.0015905582 -0.0011584734 1.8411337e-19)
(-0.0015868782 -0.001112561 -7.2188411e-20)
(-0.0015822846 -0.0010671198 -2.6210063e-19)
(-0.0015768054 -0.0010221766 -2.5732234e-19)
(-0.0015704693 -0.00097775618 1.2901537e-19)
(-0.0015633054 -0.00093388226 1.7067493e-19)
(-0.0015553427 -0.00089057653 -2.2833575e-20)
(-0.0015466105 -0.00084785949 -2.270462e-19)
(-0.0015371382 -0.00080574998 -1.5679863e-19)
(-0.0015269552 -0.00076426536 1.6118659e-19)
(-0.001516091 -0.00072342135 1.2162483e-19)
(-0.0015045746 -0.00068323238 -2.8079131e-22)
(-0.0014924354 -0.00064371157 -1.4361386e-19)
(-0.0014797023 -0.00060487047 -1.4062841e-19)
(-0.0014664038 -0.00056671944 1.1296626e-19)
(-0.0014525685 -0.00052926722 1.0365791e-19)
(-0.0014382243 -0.00049252174 -6.2125282e-20)
(-0.0014233991 -0.00045648926 -1.0342578e-19)
(-0.00140812 -0.00042117516 -4.1519538e-20)
(-0.0013924139 -0.00038658344 6.9457714e-20)
(-0.001376307 -0.00035271719 3.7648132e-20)
(-0.0013598252 -0.00031957834 -1.0700967e-19)
(-0.0013429938 -0.00028716769 -1.8480674e-19)
(-0.0013258376 -0.00025548532 -1.768158e-19)
(-3.298337e-05 -0.0030368637 1.2140243e-18)
(-7.5443074e-05 -0.0030364248 -2.206333e-18)
(-0.00012390022 -0.0030340536 -7.5807884e-18)
(-0.00017077387 -0.0030300038 -1.4728335e-18)
(-0.0002189888 -0.0030240743 -4.5644662e-18)
(-0.00026696357 -0.0030162597 -1.7332611e-18)
(-0.00031463203 -0.0030066085 -1.6187385e-18)
(-0.00036197092 -0.0029951638 2.7956434e-19)
(-0.00040893023 -0.0029819646 2.1933912e-19)
(-0.00045545015 -0.0029670477 -1.2622133e-20)
(-0.00050147398 -0.0029504483 7.43924e-19)
(-0.0005469479 -0.0029322011 7.187227e-19)
(-0.00059182027 -0.0029123408 9.9246889e-19)
(-0.00063604147 -0.0028909031 9.6594756e-19)
(-0.0006795637 -0.0028679247 1.2219213e-18)
(-0.00072234099 -0.0028434438 1.0737121e-18)
(-0.00076432939 -0.0028174994 1.1975257e-18)
(-0.00080548685 -0.0027901326 1.5651398e-18)
(-0.00084577321 -0.0027613853 1.4951428e-18)
(-0.00088515032 -0.0027313013 1.8193037e-18)
(-0.000923582 -0.0026999255 1.1255822e-18)
(-0.00096103421 -0.0026673041 6.6469691e-19)
(-0.00099747502 -0.0026334843 7.9896837e-19)
(-0.0010328744 -0.0025985148 5.5534053e-19)
(-0.0010672047 -0.0025624449 7.7674277e-19)
(-0.0011004403 -0.0025253248 1.1345641e-18)
(-0.0011325579 -0.0024872059 6.3327502e-19)
(-0.0011635363 -0.0024481398 5.3196793e-19)
(-0.0011933565 -0.0024081786 4.0834329e-19)
(-0.0012220017 -0.0023673753 6.507773e-19)
(-0.0012494573 -0.0023257828 9.1733847e-19)
(-0.001275711 -0.0022834543 4.8805041e-19)
(-0.0013007524 -0.0022404432 3.3342764e-19)
(-0.0013245734 -0.0021968027 2.7887803e-19)
(-0.0013471679 -0.002152586 6.2495407e-19)
(-0.001368532 -0.002107846 8.3575248e-19)
(-0.0013886638 -0.0020626353 4.0480428e-19)
(-0.0014075631 -0.0020170058 2.073363e-19)
(-0.0014252321 -0.0019710094 1.4641952e-19)
(-0.0014416745 -0.0019246967 3.2352809e-19)
(-0.0014568961 -0.0018781182 7.4982498e-19)
(-0.0014709042 -0.0018313229 5.7479126e-19)
(-0.001483708 -0.0017843597 2.7585911e-19)
(-0.0014953181 -0.0017372758 3.406588e-19)
(-0.001505747 -0.001690118 4.3176881e-19)
(-0.0015150083 -0.0016429315 4.3823482e-19)
(-0.0015231173 -0.0015957607 1.622473e-19)
(-0.0015300906 -0.0015486485 7.7947449e-20)
(-0.0015359459 -0.0015016366 2.9298352e-19)
(-0.0015407024 -0.0014547657 2.7238185e-19)
(-0.00154438 -0.0014080747 3.2690912e-19)
(-0.0015470001 -0.0013616013 5.1495551e-20)
(-0.0015485846 -0.0013153819 7.9451772e-20)
(-0.0015491567 -0.0012694513 2.8025411e-19)
(-0.0015487401 -0.0012238428 -1.0851082e-19)
(-0.0015473594 -0.0011785884 -1.8035263e-19)
(-0.0015450397 -0.0011337186 -6.2756172e-20)
(-0.001541807 -0.0010892621 8.875094e-20)
(-0.0015376874 -0.0010452466 1.8944172e-19)
(-0.0015327076 -0.0010016978 -9.0311208e-20)
(-0.0015268949 -0.0009586402 -1.7686953e-19)
(-0.0015202766 -0.00091609675 -5.3226194e-20)
(-0.0015128803 -0.00087408881 4.4175502e-20)
(-0.0015047338 -0.00083263646 1.4148638e-19)
(-0.001495865 -0.00079175817 -1.3820879e-20)
(-0.0014863019 -0.00075147106 -1.0918007e-19)
(-0.0014760724 -0.00071179084 -8.5611929e-20)
(-0.0014652045 -0.00067273178 5.5776675e-20)
(-0.0014537258 -0.00063430701 1.3436787e-19)
(-0.001441664 -0.00059652806 -1.1996139e-20)
(-0.0014290465 -0.00055940541 -6.513695e-20)
(-0.0014159003 -0.00052294796 -6.7767862e-20)
(-0.0014022524 -0.00048716375 1.2867616e-20)
(-0.0013881293 -0.00045205942 1.1015015e-19)
(-0.0013735571 -0.00041764071 2.1649979e-22)
(-0.0013585614 -0.00038391183 -1.2108949e-19)
(-0.0013431677 -0.00035087632 -1.1280804e-19)
(-0.0013274005 -0.00031853649 -4.6332904e-20)
(-0.0013112843 -0.00028689377 3.2759229e-20)
(-0.0012948428 -0.00025594855 3.9684047e-21)
(-3.1821304e-05 -0.0029414318 1.9337332e-18)
(-7.2782486e-05 -0.0029410103 6.9378652e-19)
(-0.00011953083 -0.0029387365 -2.6680998e-18)
(-0.00016475338 -0.002934854 -9.4293872e-19)
(-0.00021127148 -0.0029291703 -2.7939318e-18)
(-0.00025756066 -0.0029216804 -4.1374292e-18)
(-0.00030355791 -0.0029124303 -2.7449593e-18)
(-0.0003492416 -0.0029014613 -2.0683079e-18)
(-0.0003945641 -0.0028888106 -1.8219944e-18)
(-0.00043946829 -0.002874513 -9.2527615e-19)
(-0.00048390015 -0.002858602 -5.2697524e-19)
(-0.00052780832 -0.0028411104 3.5101625e-19)
(-0.00057114352 -0.0028220712 -7.5010178e-20)
(-0.00061385837 -0.0028015182 5.7818281e-19)
(-0.0006559072 -0.0027794861 5.7948573e-19)
(-0.00069724613 -0.0027560111 3.3437894e-19)
(-0.00073783321 -0.0027311301 8.0745619e-19)
(-0.00077762817 -0.002704882 6.4739375e-19)
(-0.00081659256 -0.0026773067 8.6724111e-19)
(-0.00085468977 -0.0026484453 1.2340413e-18)
(-0.00089188522 -0.0026183406 1.2080466e-18)
(-0.00092814617 -0.0025870363 1.127306e-18)
(-0.00096344183 -0.0025545772 1.0056362e-18)
(-0.00099774352 -0.0025210095 9.2839193e-19)
(-0.0010310245 -0.0024863798 1.3427414e-18)
(-0.0010632599 -0.0024507359 1.7841448e-18)
(-0.0010944272 -0.0024141265 1.4009583e-18)
(-0.001124506 -0.0023766005 8.3278496e-19)
(-0.0011534777 -0.0023382076 6.1725663e-19)
(-0.0011813259 -0.0022989979 1.0636441e-18)
(-0.0012080364 -0.002259022 1.504283e-18)
(-0.0012335968 -0.0022183301 1.2172028e-18)
(-0.001257997 -0.0021769733 6.9128579e-19)
(-0.0012812286 -0.0021350023 5.807089e-19)
(-0.0013032855 -0.0020924675 9.6822611e-19)
(-0.0013241635 -0.0020494194 1.2369708e-18)
(-0.0013438602 -0.0020059081 9.3044698e-19)
(-0.0013623753 -0.0019619832 3.9332262e-19)
(-0.00137971 -0.0019176943 3.7306427e-19)
(-0.0013958676 -0.0018730895 6.4804019e-19)
(-0.0014108529 -0.0018282171 6.721602e-19)
(-0.0014246726 -0.001783124 5.5313825e-19)
(-0.0014373349 -0.0017378569 4.1234631e-19)
(-0.0014488495 -0.0016924613 5.3359844e-19)
(-0.0014592278 -0.0016469817 4.8629434e-19)
(-0.0014684824 -0.0016014614 8.733037e-20)
(-0.0014766273 -0.0015559431 1.5478345e-19)
(-0.0014836779 -0.0015104681 2.4878221e-19)
(-0.0014896508 -0.0014650763 3.5988943e-19)
(-0.0014945637 -0.0014198069 3.6315724e-19)
(-0.0014984355 -0.0013746973 2.8559494e-20)
(-0.0015012859 -0.001329784 -8.3609079e-21)
(-0.0015031356 -0.0012851019 -1.6753884e-20)
(-0.0015040063 -0.0012406847 -1.578773e-19)
(-0.0015039204 -0.0011965647 -1.1632138e-19)
(-0.0015029009 -0.0011527727 7.2640002e-20)
(-0.0015009715 -0.0011093382 2.9057767e-19)
(-0.0014981565 -0.0010662891 7.8576599e-20)
(-0.0014944809 -0.0010236524 -1.5092085e-19)
(-0.00148997 -0.00098145306 -1.3407542e-19)
(-0.0014846493 -0.00093971502 2.8887166e-20)
(-0.0014785447 -0.00089846062 2.5804332e-19)
(-0.0014716825 -0.00085771075 5.6206769e-20)
(-0.0014640892 -0.00081748512 -1.4442628e-19)
(-0.0014557911 -0.00077780191 -1.0104042e-19)
(-0.0014468148 -0.00073867802 1.2877277e-20)
(-0.001437187 -0.00070012884 1.8144466e-19)
(-0.0014269342 -0.00066216874 5.5498373e-20)
(-0.0014160829 -0.00062481069 -9.2400618e-20)
(-0.0014046593 -0.00058806618 -6.672777e-20)
(-0.0013926896 -0.00055194577 1.7669841e-20)
(-0.0013801999 -0.00051645857 1.2059814e-19)
(-0.0013672157 -0.00048161279 2.7714997e-20)
(-0.0013537623 -0.00044741522 -8.9405244e-20)
(-0.0013398649 -0.00041387183 -7.0161606e-20)
(-0.001325548 -0.00038098725 -4.888729e-20)
(-0.001310836 -0.0003487653 2.5422866e-20)
(-0.0012957526 -0.0003172087 -3.4657144e-20)
(-0.0012803211 -0.00028631937 -1.3043408e-19)
(-0.0012645645 -0.00025609808 -1.5243894e-19)
(-3.0707774e-05 -0.0028493544 2.1678325e-18)
(-7.0232869e-05 -0.0028489493 2.8048509e-19)
(-0.00011534359 -0.0028467685 1.6799702e-18)
(-0.00015898376 -0.0028430453 1.9816762e-18)
(-0.00020387564 -0.0028375958 1.2314614e-18)
(-0.00024854931 -0.0028304149 -8.9887448e-19)
(-0.00029294462 -0.002821547 -3.4935527e-19)
(-0.00033704138 -0.0028110311 -8.3376432e-19)
(-0.0003807943 -0.0027989028 -9.637505e-19)
(-0.00042414891 -0.002785195 -4.4964097e-19)
(-0.00046705358 -0.0027699398 -3.1101601e-19)
(-0.00050945939 -0.0027531681 -8.1502698e-20)
(-0.00055131933 -0.0027349112 -3.1198066e-19)
(-0.00059258798 -0.0027152012 -9.0155295e-20)
(-0.00063322178 -0.0026940711 -1.7653097e-19)
(-0.00067317898 -0.0026715548 5.0176152e-20)
(-0.00071241934 -0.0026476874 -1.5623265e-19)
(-0.00075090426 -0.002622506 -1.7457056e-19)
(-0.00078859699 -0.0025960482 3.8931123e-20)
(-0.00082546253 -0.002568353 3.0417108e-19)
(-0.00086146754 -0.0025394608 3.8005765e-19)
(-0.00089658065 -0.0025094132 -9.2607963e-20)
(-0.0009307723 -0.0024782527 -5.0938692e-19)
(-0.00096401485 -0.0024460229 -3.1459611e-19)
(-0.00099628254 -0.0024127682 2.3320816e-19)
(-0.0010275514 -0.0023785342 5.575849e-19)
(-0.0010577997 -0.0023433665 -8.9393597e-20)
(-0.0010870075 -0.002307312 -7.9944943e-19)
(-0.0011151568 -0.0022704179 -4.8474679e-19)
(-0.0011422315 -0.0022327317 7.8537868e-20)
(-0.0011682176 -0.0021943015 4.6183112e-19)
(-0.0011931032 -0.0021551751 -9.7763785e-21)
(-0.001216878 -0.0021154011 -5.6649645e-19)
(-0.0012395337 -0.0020750278 -3.1265942e-19)
(-0.0012610641 -0.0020341032 1.4992953e-19)
(-0.0012814646 -0.0019926753 4.6990479e-19)
(-0.0013007326 -0.0019507921 -1.1725922e-19)
(-0.0013188671 -0.0019085008 -6.7634489e-19)
(-0.0013358691 -0.0018658486 -4.5883517e-19)
(-0.0013517411 -0.0018228817 -3.2112897e-19)
(-0.0013664875 -0.001779646 -2.4404019e-19)
(-0.0013801139 -0.0017361865 -2.2319409e-19)
(-0.0013926278 -0.001692548 -3.9668931e-19)
(-0.0014040381 -0.0016487737 -4.0975945e-19)
(-0.0014143551 -0.0016049064 -3.9763599e-19)
(-0.0014235905 -0.0015609878 -4.3814986e-19)
(-0.0014317571 -0.0015170587 -2.9053077e-19)
(-0.0014388692 -0.0014731586 -3.1082124e-19)
(-0.0014449424 -0.0014293262 -3.3148908e-19)
(-0.001449993 -0.0013855988 -3.0347679e-19)
(-0.0014540385 -0.0013420127 -3.4634216e-19)
(-0.0014570977 -0.0012986029 -2.26767e-19)
(-0.0014591898 -0.0012554032 -1.2544592e-19)
(-0.0014603351 -0.001212446 -1.3943065e-19)
(-0.0014605549 -0.0011697625 -3.1456712e-20)
(-0.0014598706 -0.0011273827 1.9897617e-21)
(-0.0014583046 -0.001085335 6.7990191e-20)
(-0.00145588 -0.0010436466 7.0685017e-21)
(-0.0014526201 -0.0010023434 -8.6459147e-20)
(-0.0014485488 -0.00096145007 -2.6253172e-20)
(-0.0014436905 -0.00092098967 6.7698088e-20)
(-0.0014380697 -0.00088098419 8.6356667e-20)
(-0.0014317113 -0.00084145395 4.4748433e-21)
(-0.0014246403 -0.00080241822 -9.8897916e-20)
(-0.0014168817 -0.00076389497 -4.991384e-20)
(-0.001408461 -0.0007259008 -6.0018262e-21)
(-0.0013994034 -0.00068845095 7.0641305e-20)
(-0.0013897341 -0.00065155955 2.9921592e-20)
(-0.0013794785 -0.00061523955 -4.8072688e-20)
(-0.0013686616 -0.00057950242 -3.1780356e-20)
(-0.0013573084 -0.00054435875 1.4301468e-20)
(-0.0013454437 -0.00050981777 5.5986908e-20)
(-0.001333092 -0.00047588779 2.8978605e-20)
(-0.0013202776 -0.00044257593 -3.1686999e-20)
(-0.0013070244 -0.0004098881 -5.75592e-20)
(-0.001293356 -0.00037782948 -5.2093545e-20)
(-0.0012792957 -0.00034640412 -4.6571047e-21)
(-0.0012648665 -0.00031561503 -2.6462205e-21)
(-0.0012500906 -0.0002854646 -9.3921766e-20)
(-0.0012349902 -0.00025595395 -1.3761275e-19)
(-2.9640269e-05 -0.002760492 3.8097036e-18)
(-6.7788908e-05 -0.0027601027 4.3465861e-18)
(-0.00011132987 -0.0027580103 6.2756211e-18)
(-0.00015345313 -0.002754439 3.2276082e-18)
(-0.00019678601 -0.0027492126 4.9408382e-18)
(-0.00023991086 -0.0027423262 3.2056337e-18)
(-0.00028277013 -0.0027338222 4.8034525e-18)
(-0.00032534505 -0.0027237381 3.635632e-18)
(-0.00036759255 -0.0027121075 3.2615605e-18)
(-0.00040946061 -0.0026989619 3.0552287e-18)
(-0.00045089996 -0.0026843315 2.2727477e-18)
(-0.00049186387 -0.0026682459 1.2782738e-18)
(-0.00053230748 -0.0026507347 1.5543462e-18)
(-0.0005721875 -0.0026318282 1.1036723e-18)
(-0.00061146221 -0.0026115579 1.2401414e-18)
(-0.00065009164 -0.0025899557 1.078244e-18)
(-0.00068803736 -0.0025670551 1.1056055e-18)
(-0.00072526252 -0.0025428909 1.1564813e-18)
(-0.00076173188 -0.002517499 1.0103993e-18)
(-0.00079741177 -0.0024909164 8.0693545e-19)
(-0.00083227031 -0.0024631814 3.2096005e-19)
(-0.00086627737 -0.0024343332 7.2881484e-20)
(-0.00089940455 -0.0024044123 -2.4286005e-19)
(-0.00093162519 -0.0023734601 3.6463281e-20)
(-0.00096291442 -0.0023415186 4.4742868e-19)
(-0.00099324925 -0.0023086312 1.4833077e-19)
(-0.0010226085 -0.0022748412 -2.2190152e-19)
(-0.001050973 -0.002240193 -4.3981381e-19)
(-0.001078325 -0.0022047317 -4.526658e-20)
(-0.0011046491 -0.0021685023 3.5817483e-19)
(-0.0011299315 -0.0021315505 1.6164384e-19)
(-0.0011541603 -0.0020939219 -9.5259031e-20)
(-0.0011773254 -0.0020556627 -3.4308508e-19)
(-0.0011994186 -0.0020168188 -4.4127801e-20)
(-0.0012204333 -0.0019774361 3.8367859e-19)
(-0.001240365 -0.0019375603 1.4558792e-19)
(-0.0012592106 -0.0018972372 -2.20364e-19)
(-0.0012769688 -0.0018565117 -3.1117906e-19)
(-0.0012936402 -0.0018154288 -3.1211638e-20)
(-0.0013092267 -0.001774033 1.8142392e-19)
(-0.001323732 -0.0017323678 1.2725485e-19)
(-0.0013371611 -0.0016904765 -6.9019352e-20)
(-0.0013495207 -0.0016484017 -1.4051177e-19)
(-0.0013608188 -0.0016061848 -7.668626e-20)
(-0.0013710648 -0.0015638671 -1.919252e-19)
(-0.0013802695 -0.0015214883 -7.405452e-20)
(-0.0013884449 -0.0014790875 -6.4718317e-20)
(-0.001395604 -0.0014367029 -9.9196242e-20)
(-0.0014017613 -0.0013943715 -1.2000029e-19)
(-0.0014069321 -0.0013521291 -2.161094e-19)
(-0.0014111327 -0.0013100108 -4.551791e-20)
(-0.0014143805 -0.0012680503 -2.5876772e-21)
(-0.0014166937 -0.0012262802 -1.1929107e-19)
(-0.0014180914 -0.0011847315 -2.272642e-19)
(-0.0014185933 -0.0011434347 -1.1006868e-19)
(-0.0014182199 -0.0011024187 3.9770306e-20)
(-0.0014169921 -0.001061711 2.5376867e-20)
(-0.0014149317 -0.001021338 1.2235706e-20)
(-0.0014120608 -0.00098132483 -5.2790026e-20)
(-0.001408402 -0.00094169542 -3.1458923e-20)
(-0.0014039782 -0.00090247221 7.5805676e-20)
(-0.0013988128 -0.00086367669 2.682547e-20)
(-0.0013929292 -0.00082532881 9.7545398e-21)
(-0.0013863512 -0.00078744741 -1.0611851e-19)
(-0.0013791028 -0.00075005 -8.5828731e-20)
(-0.0013712079 -0.00071315298 3.7516833e-20)
(-0.0013626906 -0.00067677145 6.2673721e-20)
(-0.0013535751 -0.00064091929 3.2721604e-20)
(-0.0013438852 -0.00060560942 -7.9774177e-20)
(-0.0013336449 -0.00057085322 -4.2027269e-20)
(-0.0013228783 -0.00053666129 3.3543004e-20)
(-0.0013116087 -0.00050304298 3.8436188e-20)
(-0.0012998597 -0.00047000668 3.7399155e-20)
(-0.0012876546 -0.00043755964 -6.3025705e-20)
(-0.0012750163 -0.00040570808 -4.9477556e-20)
(-0.0012619675 -0.00037445727 1.3689372e-20)
(-0.0012485304 -0.00034381165 -2.2918809e-21)
(-0.001234727 -0.00031377453 8.3421293e-21)
(-0.0012205788 -0.00028434855 -4.0905358e-20)
(-0.001206107 -0.0002555353 -4.53033e-20)
(-2.8616755e-05 -0.0026747117 4.7150068e-18)
(-6.5445586e-05 -0.0026743375 7.0535247e-18)
(-0.00010748147 -0.0026723295 4.7597348e-18)
(-0.00014815022 -0.002668903 8.9873698e-19)
(-0.00018998816 -0.0026638891 1.322502e-18)
(-0.00023162762 -0.0026572834 2.6660783e-18)
(-0.00027301359 -0.0026491264 1.317223e-18)
(-0.00031412871 -0.0026394538 5.5347322e-19)
(-0.00035493204 -0.0026282975 1.0170125e-18)
(-0.00039537375 -0.0026156877 -2.7433685e-19)
(-0.00043540679 -0.002601653 -1.0905053e-18)
(-0.00047498661 -0.0025862215 -1.4645223e-18)
(-0.00051407025 -0.0025694213 -1.4046859e-18)
(-0.00055261641 -0.0025512811 -1.3837897e-18)
(-0.00059058536 -0.0025318307 -1.2762494e-18)
(-0.00062793882 -0.0025111003 -1.1052332e-18)
(-0.00066463989 -0.0024891219 -1.1506145e-18)
(-0.00070065327 -0.0024659283 -1.4802356e-18)
(-0.0007359453 -0.0024415536 -1.178317e-18)
(-0.00077048375 -0.0024160328 -9.4400381e-19)
(-0.00080423801 -0.0023894022 -6.7715872e-19)
(-0.00083717909 -0.0023616992 -1.3092148e-19)
(-0.0008692797 -0.0023329621 -5.5815419e-21)
(-0.00090051423 -0.0023032301 -4.4789063e-20)
(-0.00093085859 -0.0022725432 2.3871824e-19)
(-0.00096029069 -0.0022409426 1.591227e-20)
(-0.00098879004 -0.0022084693 -3.2481332e-19)
(-0.0010163378 -0.0021751655 -4.8197366e-19)
(-0.0010429172 -0.0021410742 -2.8414892e-19)
(-0.001068513 -0.0021062382 1.8856834e-19)
(-0.0010931115 -0.0020707008 5.8741835e-20)
(-0.0011167012 -0.0020345056 -3.2946213e-19)
(-0.0011392721 -0.0019976965 -4.8746589e-19)
(-0.0011608159 -0.0019603172 -3.5138276e-19)
(-0.0011813261 -0.0019224114 1.6740629e-19)
(-0.0012007977 -0.0018840227 1.00501e-20)
(-0.0012192276 -0.0018451948 -3.1430885e-19)
(-0.0012366143 -0.0018059705 -4.0503033e-19)
(-0.0012529576 -0.0017663928 -5.0851223e-19)
(-0.0012682591 -0.0017265042 -1.7189527e-19)
(-0.0012825219 -0.0016863463 -2.4885817e-19)
(-0.0012957503 -0.0016459606 -1.8844275e-19)
(-0.0013079503 -0.0016053876 4.5989587e-20)
(-0.0013191293 -0.0015646672 -1.7078687e-19)
(-0.0013292958 -0.0015238388 -4.7710369e-19)
(-0.0013384596 -0.0014829406 -5.5815772e-19)
(-0.0013466317 -0.0014420101 -2.0948008e-19)
(-0.0013538244 -0.0014010838 4.0200292e-20)
(-0.001360051 -0.0013601974 -1.2095902e-19)
(-0.0013653257 -0.0013193855 -3.6248371e-19)
(-0.0013696638 -0.0012786815 -4.5284033e-19)
(-0.0013730815 -0.0012381183 -2.2094951e-19)
(-0.0013755961 -0.0011977267 -2.44542e-19)
(-0.0013772253 -0.0011575373 -1.8516265e-19)
(-0.0013779874 -0.0011175792 -1.3667176e-19)
(-0.001377902 -0.0010778804 -2.0455281e-19)
(-0.0013769887 -0.0010384675 2.2585008e-21)
(-0.0013752682 -0.00099936631 -3.9746196e-20)
(-0.0013727611 -0.00096060097 -7.6697656e-20)
(-0.0013694889 -0.00092219479 -7.4504469e-20)
(-0.0013654733 -0.00088416971 -1.9187707e-19)
(-0.0013607364 -0.00084654652 -1.1245255e-20)
(-0.0013553004 -0.00080934485 3.3827035e-21)
(-0.0013491879 -0.00077258316 -7.8550319e-20)
(-0.0013424216 -0.00073627852 -8.1471197e-20)
(-0.0013350243 -0.00070044703 -1.1549465e-19)
(-0.001327019 -0.00066510357 3.9666291e-20)
(-0.0013184285 -0.00063026205 3.9392322e-20)
(-0.0013092758 -0.00059593496 -5.2448008e-20)
(-0.0012995837 -0.00056213386 -3.5728849e-20)
(-0.001289375 -0.0005288693 -8.1349383e-20)
(-0.0012786721 -0.00049615056 4.0895584e-20)
(-0.0012674975 -0.00046398621 8.4254219e-21)
(-0.0012558737 -0.00043238359 -3.1289267e-20)
(-0.0012438223 -0.00040134911 -3.3249835e-21)
(-0.0012313652 -0.00037088829 -9.1598653e-20)
(-0.0012185238 -0.00034100571 1.045863e-20)
(-0.0012053191 -0.00031170514 1.6567122e-20)
(-0.0011917718 -0.00028298927 -4.1048604e-21)
(-0.0011779024 -0.00025486023 -1.1689067e-20)
(-2.7635095e-05 -0.0025918871 3.0207613e-18)
(-6.3198182e-05 -0.0025915272 2.4449013e-18)
(-0.00010379063 -0.0025895997 2.1679338e-18)
(-0.00014306441 -0.0025863112 1.9582717e-18)
(-0.00018346845 -0.0025815 1.2424252e-18)
(-0.00022368298 -0.002575162 1.1849503e-18)
(-0.00026365565 -0.0025673357 8.6789073e-19)
(-0.00030337025 -0.0025580554 1.8955707e-18)
(-0.00034278759 -0.0025473515 2.6056991e-19)
(-0.00038186026 -0.0025352526 1.9236943e-19)
(-0.00042054332 -0.0025217859 9.5680048e-19)
(-0.00045879409 -0.0025069782 7.9177894e-19)
(-0.00049657168 -0.0024908561 8.2241157e-19)
(-0.00053383655 -0.0024734469 8.0411515e-19)
(-0.00057055062 -0.0024547786 1.0856373e-18)
(-0.00060667732 -0.0024348801 3.7163614e-19)
(-0.00064218144 -0.0024137817 2.73378e-19)
(-0.00067702915 -0.0023915144 2.7909185e-19)
(-0.00071118812 -0.0023681106 4.0524082e-19)
(-0.00074462751 -0.0023436036 8.1677186e-19)
(-0.00077731789 -0.0023180277 1.7965226e-19)
(-0.00080923146 -0.0022914183 4.6726651e-20)
(-0.000840342 -0.002263812 -6.9823109e-20)
(-0.00087062479 -0.0022352457 -4.7327146e-19)
(-0.00090005669 -0.0022057577 -3.1298474e-19)
(-0.00092861635 -0.002175387 -4.1529666e-19)
(-0.00095628392 -0.0021441725 -8.1057756e-19)
(-0.00098304116 -0.0021121545 -6.8913928e-19)
(-0.0010088716 -0.0020793736 -6.1867757e-19)
(-0.0010337606 -0.0020458707 -3.2398784e-19)
(-0.0010576947 -0.0020116869 -4.1367433e-19)
(-0.0010806627 -0.0019768638 -7.6924682e-19)
(-0.0011026544 -0.0019414432 -6.0589842e-19)
(-0.001123662 -0.0019054665 -5.6122895e-19)
(-0.0011436785 -0.0018689757 -2.7465709e-19)
(-0.0011626991 -0.0018320123 -3.7770998e-19)
(-0.0011807203 -0.0017946178 -6.8037084e-19)
(-0.0011977401 -0.0017568331 -5.7108198e-19)
(-0.0012137583 -0.0017186994 -5.8167877e-19)
(-0.0012287757 -0.0016802571 -2.3752336e-19)
(-0.0012427951 -0.0016415462 -7.8293761e-20)
(-0.0012558202 -0.0016026062 -1.0851596e-19)
(-0.0012678563 -0.0015634759 -2.7961701e-19)
(-0.00127891 -0.0015241937 -1.8403215e-19)
(-0.0012889892 -0.0014847971 1.060609e-19)
(-0.0012981027 -0.0014453228 -1.2226597e-20)
(-0.0013062607 -0.0014058068 -1.1959345e-19)
(-0.0013134747 -0.0013662842 -2.9823562e-19)
(-0.0013197569 -0.0013267893 -1.2332159e-19)
(-0.0013251205 -0.0012873553 1.450156e-19)
(-0.00132958 -0.0012480144 -8.0126679e-21)
(-0.0013331504 -0.0012087981 -2.6654697e-20)
(-0.0013358477 -0.0011697363 -2.8570718e-20)
(-0.0013376886 -0.0011308587 -1.3599307e-19)
(-0.0013386905 -0.0010921931 -3.3352486e-19)
(-0.0013388717 -0.0010537666 -2.0485143e-19)
(-0.0013382508 -0.0010156051 1.1769653e-19)
(-0.001336847 -0.00097773349 8.2627143e-20)
(-0.0013346801 -0.00094017535 -1.1134143e-19)
(-0.0013317703 -0.00090295313 -2.7128155e-19)
(-0.001328138 -0.00086608833 -1.7761707e-19)
(-0.0013238041 -0.00082960115 1.2331754e-19)
(-0.0013187899 -0.0007935107 6.6414142e-20)
(-0.0013131167 -0.00075783502 -9.722534e-20)
(-0.0013068061 -0.00072259106 -1.7751906e-19)
(-0.0012998797 -0.00068779441 -1.1735389e-19)
(-0.0012923594 -0.00065345967 7.067983e-20)
(-0.0012842669 -0.00061960078 7.0811573e-20)
(-0.0012756242 -0.00058622995 -3.064717e-20)
(-0.001266453 -0.00055335868 -1.4008731e-19)
(-0.001256775 -0.00052099757 -7.7161858e-20)
(-0.0012466117 -0.00048915584 9.9854798e-20)
(-0.0012359846 -0.00045784211 7.0600828e-20)
(-0.001224915 -0.00042706392 -3.8884971e-20)
(-0.0012134239 -0.00039682771 -1.2086387e-19)
(-0.0012015321 -0.00036713922 -1.0983675e-19)
(-0.0011892601 -0.00033800323 6.8280947e-20)
(-0.0011766282 -0.00030942381 3.9007097e-20)
(-0.0011636562 -0.00028140391 -6.1976196e-20)
(-0.0011503637 -0.0002539459 -1.5061441e-19)
(-2.6693374e-05 -0.0025118973 1.4178607e-18)
(-6.1042361e-05 -0.0025115512 -7.5899547e-19)
(-0.00010025006 -0.0025097004 6.001832e-19)
(-0.00013818553 -0.0025065437 6.0562916e-19)
(-0.00017721385 -0.0025019259 6.8154737e-19)
(-0.00021606122 -0.0024958431 5.7319582e-19)
(-0.00025467763 -0.0024883323 4.8202324e-19)
(-0.00029304806 -0.0024794262 3.8000404e-19)
(-0.00033113515 -0.0024691537 3.2371407e-19)
(-0.00036889356 -0.0024575421 2.6060776e-19)
(-0.0004062803 -0.0024446174 1.9217108e-19)
(-0.0004432547 -0.0024304047 4.6469702e-19)
(-0.00047977754 -0.0024149296 -5.5520116e-20)
(-0.00051581114 -0.0023982179 2.4648965e-19)
(-0.0005513192 -0.0023802959 -1.7192634e-19)
(-0.00058626648 -0.0023611915 -5.7278524e-19)
(-0.00062061934 -0.0023409331 -1.81897e-19)
(-0.00065434545 -0.0023195502 -4.0100081e-19)
(-0.00068741372 -0.0022970734 -2.3746926e-19)
(-0.00071979465 -0.0022735345 -5.5699367e-19)
(-0.00075146003 -0.002248966 -1.0464186e-18)
(-0.00078238311 -0.0022234015 -6.7263926e-19)
(-0.00081253863 -0.0021968755 -4.866861e-19)
(-0.00084190285 -0.0021694234 -6.6098112e-19)
(-0.00087045343 -0.0021410815 -6.3186158e-19)
(-0.0008981697 -0.0021118865 -1.0078578e-18)
(-0.00092503261 -0.0020818759 -1.0884296e-18)
(-0.00095102444 -0.0020510878 -7.4006278e-19)
(-0.00097612913 -0.0020195607 -5.8745359e-19)
(-0.0010003323 -0.0019873335 -5.5193931e-19)
(-0.0010236211 -0.0019544456 -9.401745e-19)
(-0.0010459842 -0.0019209363 -9.7379396e-19)
(-0.0010674119 -0.0018868455 -6.2415268e-19)
(-0.001087896 -0.0018522127 -4.4242617e-19)
(-0.0011074298 -0.0018170779 -4.3076404e-19)
(-0.0011260083 -0.0017814807 -7.8747743e-19)
(-0.0011436277 -0.0017454606 -8.9937655e-19)
(-0.0011602859 -0.0017090569 -6.0150663e-19)
(-0.0011759821 -0.0016723087 -3.6418533e-19)
(-0.0011907171 -0.0016352546 -1.6959538e-19)
(-0.0012044928 -0.0015979331 -2.227837e-21)
(-0.0012173125 -0.0015603816 3.309083e-20)
(-0.001229181 -0.0015226377 1.3738597e-19)
(-0.0012401041 -0.0014847377 7.9840547e-20)
(-0.0012500889 -0.0014467177 -1.9481276e-20)
(-0.0012591437 -0.0014086132 -2.7570678e-21)
(-0.0012672779 -0.0013704583 -3.6983194e-20)
(-0.0012745018 -0.001332287 8.1819432e-20)
(-0.001280827 -0.0012941322 8.2716116e-20)
(-0.0012862657 -0.0012560257 -6.3201724e-20)
(-0.0012908314 -0.0012179986 -4.8540499e-20)
(-0.0012945382 -0.0011800811 -1.2192991e-19)
(-0.001297401 -0.0011423024 -1.1789278e-19)
(-0.0012994354 -0.0011046907 -1.6087149e-19)
(-0.001300658 -0.0010672731 -6.4718196e-20)
(-0.0013010857 -0.0010300757 -2.9018624e-20)
(-0.0013007361 -0.00099312373 -1.5930873e-19)
(-0.0012996275 -0.00095644109 -8.5799801e-20)
(-0.0012977784 -0.0009200508 -1.0921776e-19)
(-0.0012952079 -0.00088397465 -1.8450088e-20)
(-0.0012919354 -0.00084823346 1.7088937e-20)
(-0.0012879807 -0.0008128471 -1.2949992e-19)
(-0.0012833638 -0.00077783397 -1.1175379e-19)
(-0.0012781051 -0.00074321179 -9.561975e-20)
(-0.0012722251 -0.00070899719 2.5140107e-21)
(-0.0012657443 -0.00067520551 3.1918555e-21)
(-0.0012586835 -0.00064185112 -1.271668e-19)
(-0.0012510634 -0.0006089475 -4.9069097e-20)
(-0.0012429048 -0.00057650706 -4.0372065e-20)
(-0.0012342286 -0.00054454103 1.2670393e-20)
(-0.0012250554 -0.00051305993 7.1254666e-20)
(-0.0012154058 -0.00048207317 -4.9189838e-20)
(-0.0012053003 -0.0004515892 -4.8025584e-20)
(-0.0011947594 -0.00042161572 -4.4049035e-20)
(-0.001183803 -0.00039215928 2.0440358e-20)
(-0.0011724511 -0.00036322577 2.1959296e-21)
(-0.0011607234 -0.00033482017 -9.5720137e-20)
(-0.0011486393 -0.00030694672 -6.8412217e-20)
(-0.001136218 -0.00027960867 -4.7985541e-20)
(-0.0011234782 -0.00025280868 4.2611124e-21)
(-2.5789642e-05 -0.0024346274 8.2625645e-19)
(-5.8973609e-05 -0.0024342945 -1.3885872e-18)
(-9.6852608e-05 -0.002432517 -5.6817118e-20)
(-0.00013350382 -0.0024294859 2.8923369e-19)
(-0.000171212 -0.0024250527 9.4619572e-19)
(-0.00020874736 -0.0024192135 4.6936762e-20)
(-0.00024606199 -0.0024120037 -1.609938e-19)
(-0.0002831421 -0.0024034545 -4.6714826e-19)
(-0.00031995215 -0.0023935937 -2.7551588e-19)