/*--------------------------------*- C++ -*----------------------------------*\
| =========                 |                                                 |
| \\      /  F ield         | OpenFOAM: The Open Source CFD Toolbox           |
|  \\    /   O peration     | Version:  2306                                  |
|   \\  /    A nd           | Website:  www.openfoam.com                      |
|    \\/     M anipulation  |                                                 |
\*---------------------------------------------------------------------------*/
FoamFile
{
    version     2.0;
    format      ascii;
    arch        "LSB;label=32;scalar=64";
    class       volVectorField;
    location    "0.5";
    object      U;
}
// * * * * * * * * * * * * * * * * * * * * * * * * * * * * * * * * * * * * * //

dimensions      [0 1 -1 0 0 0 0];

internalField   nonuniform List<vector> 
6400
(
(-0.0028005971 -0.094618906 6.7276705e-17)
(-0.0063430328 -0.094216558 8.9445773e-17)
(-0.010286981 -0.093061722 -1.8795746e-17)
(-0.013912206 -0.091409657 -3.1886364e-17)
(-0.017407447 -0.08934457 -1.1666918e-16)
(-0.020629768 -0.086948625 -9.0032291e-18)
(-0.02356081 -0.084289532 -2.1937225e-17)
(-0.026192778 -0.081422949 -1.8282858e-17)
(-0.028524136 -0.078400645 4.9111537e-18)
(-0.030561327 -0.075270463 -2.9458046e-17)
(-0.032317181 -0.072075233 -1.3675047e-17)
(-0.03380921 -0.068851743 -8.5207828e-18)
(-0.035057681 -0.065630291 -1.2025843e-17)
(-0.036084043 -0.062434898 1.1387807e-18)
(-0.036909622 -0.059283921 3.5183241e-18)
(-0.037554718 -0.05619078 1.0744926e-17)
(-0.038038088 -0.053164764 -1.9546608e-18)
(-0.038376605 -0.050211928 6.2845288e-18)
(-0.038585108 -0.047335913 1.342482e-17)
(-0.038676443 -0.04453867 1.2765364e-17)
(-0.038661681 -0.041821007 7.4843644e-18)
(-0.0385503 -0.039183022 4.486348e-18)
(-0.038350442 -0.036624458 1.580763e-18)
(-0.038069166 -0.034144899 1.1091015e-17)
(-0.037712653 -0.031743928 1.7915303e-17)
(-0.037286415 -0.029421204 3.7822623e-18)
(-0.036795452 -0.027176499 -2.2666527e-19)
(-0.03624439 -0.025009711 6.648465e-18)
(-0.03563759 -0.022920863 1.3329471e-17)
(-0.034979241 -0.020910067 1.5119107e-17)
(-0.034273414 -0.018977486 4.6980355e-18)
(-0.033524107 -0.017123296 7.6570096e-19)
(-0.03273527 -0.015347646 2.2107582e-18)
(-0.03191083 -0.013650625 6.4415007e-18)
(-0.03105469 -0.01203223 8.4921678e-18)
(-0.030170728 -0.010492337 -8.5318255e-19)
(-0.029262796 -0.0090306758 -1.1203237e-18)
(-0.028334702 -0.0076468177 1.7908078e-18)
(-0.027390201 -0.0063401567 3.7766466e-18)
(-0.026432979 -0.0051099025 6.9670693e-18)
(-0.025466634 -0.003955075 4.0937238e-18)
(-0.024494659 -0.0028745112 4.7347814e-19)
(-0.023520424 -0.0018668764 -4.4384267e-18)
(-0.022547183 -0.00093062184 -3.6565682e-18)
(-0.021578197 -6.3977148e-05 -4.2503422e-19)
(-0.020616142 0.00073485905 -8.4279791e-19)
(-0.019663902 0.0014679244 -3.8413943e-18)
(-0.018724103 0.0021373883 -4.2441009e-18)
(-0.017799139 0.0027455374 -4.0366168e-18)
(-0.016891232 0.0032947707 -4.7603534e-19)
(-0.016002406 0.0037875783 1.7816086e-18)
(-0.015134488 0.0042265274 2.850285e-19)
(-0.014289105 0.0046142454 -4.9738959e-20)
(-0.013467685 0.0049534042 -1.0527556e-18)
(-0.012671459 0.0052467037 -1.6667727e-19)
(-0.011901462 0.0054968562 1.8339495e-18)
(-0.011158543 0.0057065715 1.9836623e-18)
(-0.010443363 0.0058785416 3.8726916e-19)
(-0.0097564101 0.0060154275 -1.2861804e-18)
(-0.0090979998 0.0061198456 -2.6322255e-19)
(-0.0084682882 0.0061943565 1.1806402e-18)
(-0.0078672801 0.006241453 4.2719463e-19)
(-0.0072948386 0.0062635506 -1.4700902e-18)
(-0.0067506964 0.0062629786 -1.5519722e-18)
(-0.006234466 0.0062419723 4.1719752e-20)
(-0.0057456516 0.0062026666 8.7808301e-19)
(-0.0052836599 0.0061470903 9.1739607e-19)
(-0.004847812 0.0060771624 2.3934442e-19)
(-0.0044373544 0.0059946885 -5.6419783e-19)
(-0.0040514706 0.0059013591 5.8099204e-19)
(-0.0036892912 0.0057987491 9.6187412e-19)
(-0.0033499053 0.0056883168 9.3951768e-20)
(-0.0030323707 0.0055714065 -4.5501807e-19)
(-0.0027357226 0.0054492496 -9.6538275e-19)
(-0.002458983 0.0053229666 2.7483493e-20)
(-0.0022011688 0.0051935727 5.642056e-20)
(-0.0019613014 0.0050619811 -6.7706284e-20)
(-0.0017384085 0.0049290051 -4.4435588e-19)
(-0.001531538 0.0047953656 -6.5212811e-19)
(-0.001339759 0.0046617007 -3.6990631e-19)
(-0.0024820011 -0.086941464 2.0231147e-17)
(-0.0056247576 -0.086611558 -1.2032729e-16)
(-0.00913415 -0.08564955 -1.8752319e-17)
(-0.01237741 -0.084263436 -2.3880631e-18)
(-0.015523593 -0.082517462 2.556111e-17)
(-0.018445772 -0.08047751 2.6546665e-17)
(-0.021127438 -0.078198099 -7.9280005e-19)
(-0.023560097 -0.075724468 1.8430585e-17)
(-0.02574011 -0.073098819 -2.4568524e-18)
(-0.027670013 -0.070360743 -1.0070233e-17)
(-0.029357607 -0.067546314 6.167738e-18)
(-0.030814726 -0.064687308 6.1326772e-18)
(-0.032055847 -0.061810736 4.1509923e-18)
(-0.033096927 -0.058938824 9.7265627e-18)
(-0.033954371 -0.056089321 3.3599144e-18)
(-0.034644239 -0.053276021 -1.4327281e-18)
(-0.035181768 -0.050509277 1.067905e-17)
(-0.035581053 -0.047796613 1.2752167e-17)
(-0.035854834 -0.045143317 1.5125238e-17)
(-0.036014437 -0.042553021 1.300579e-17)
(-0.036069866 -0.040028146 1.8052904e-17)
(-0.036029896 -0.037570268 1.2477127e-17)
(-0.035902235 -0.035180425 7.7139406e-18)
(-0.035693696 -0.032859317 1.73407e-17)
(-0.035410344 -0.030607461 -5.8000207e-19)
(-0.03505765 -0.028425285 1.1358269e-18)
(-0.034640617 -0.026313185 9.7815298e-18)
(-0.034163885 -0.024271554 1.243438e-17)
(-0.03363183 -0.022300802 1.7528068e-17)
(-0.033048634 -0.020401344 5.6372144e-21)
(-0.032418343 -0.018573578 1.0694961e-18)
(-0.031744901 -0.016817869 6.352353e-18)
(-0.031032182 -0.015134516 6.5843837e-18)
(-0.030284005 -0.013523737 1.0435008e-17)
(-0.029504144 -0.011985642 -4.089246e-18)
(-0.028696333 -0.010520215 -3.9545019e-19)
(-0.027864259 -0.0091272944 3.632126e-18)
(-0.027011555 -0.0078065621 4.3026798e-18)
(-0.026141795 -0.0065575322 6.2211821e-18)
(-0.025258476 -0.0053795447 -2.6683767e-18)
(-0.02436501 -0.004271761 -3.5570511e-18)
(-0.023464708 -0.0032331669 -2.6577948e-18)
(-0.022560758 -0.0022625853 -5.5788072e-18)
(-0.021656236 -0.0013586678 -3.4862133e-18)
(-0.020754115 -0.00051987965 -1.4727484e-18)
(-0.019857252 0.00025555544 -1.3468099e-18)
(-0.018968097 0.00096929513 -4.0429367e-18)
(-0.018089233 0.0016233506 -5.0869886e-18)
(-0.017222942 0.0022197859 -3.7844416e-18)
(-0.016371348 0.0027607703 -6.9972544e-19)
(-0.015536394 0.0032485623 5.9369006e-19)
(-0.01471984 0.0036854949 -6.87987e-19)
(-0.013923264 0.0040739607 -6.813884e-19)
(-0.013148058 0.0044163972 -1.6697287e-18)
(-0.012395432 0.0047152725 -1.0644063e-18)
(-0.011666418 0.0049730701 4.7510141e-19)
(-0.010961873 0.0051922759 7.1870541e-19)
(-0.010282482 0.0053753635 5.6411743e-19)
(-0.0096287659 0.0055247828 -1.5304046e-18)
(-0.0090010905 0.005642947 -1.8523411e-18)
(-0.0083996697 0.0057322219 -4.1056513e-19)
(-0.0078245769 0.0057949157 -8.8970607e-19)
(-0.007275753 0.0058332694 -1.7974358e-18)
(-0.0067530163 0.0058494486 -1.7445633e-18)
(-0.0062560718 0.0058455359 -7.3076305e-19)
(-0.0057845217 0.0058235258 5.1321899e-20)
(-0.0053378758 0.005785318 6.8321439e-20)
(-0.0049155615 0.0057327145 -1.2524354e-19)
(-0.004516934 0.0056674158 -6.9741232e-19)
(-0.0041412871 0.0055910191 -6.592068e-20)
(-0.0037878622 0.005505017 4.2744065e-19)
(-0.0034558587 0.0054107979 -4.3354273e-20)
(-0.0031444428 0.0053096459 -6.8591432e-19)
(-0.0028527567 0.0052027423 -9.3764323e-19)
(-0.0025799265 0.0050911692 -3.0989587e-19)
(-0.002325069 0.0049759103 -2.3170395e-19)
(-0.0020873016 0.0048578554 -4.4036232e-19)
(-0.0018657438 0.004737806 -6.5439727e-19)
(-0.0016595306 0.0046164744 -6.6143545e-19)
(-0.0014678123 0.0044944971 -5.2770104e-19)
(-0.0022106149 -0.080116662 1.4289407e-17)
(-0.0050121759 -0.079843812 -9.15766e-17)
(-0.0081487493 -0.079036717 1.8657e-17)
(-0.011061555 -0.077865939 8.0458764e-17)
(-0.013902747 -0.076380505 7.6864956e-17)
(-0.01655912 -0.074633341 2.43658e-17)
(-0.019015779 -0.072668554 4.2029474e-17)
(-0.021263958 -0.07052306 3.9247295e-17)
(-0.023298666 -0.068231514 3.8542162e-17)
(-0.025119785 -0.065826844 2.0023871e-17)
(-0.026731562 -0.063339546 1.8829061e-17)
(-0.028141711 -0.060797047 -2.0442614e-18)
(-0.029360395 -0.058223272 1.902688e-18)
(-0.030399356 -0.055638501 -3.8845872e-18)
(-0.031271114 -0.0530595 -4.0062649e-18)
(-0.031988288 -0.050499847 7.0938364e-18)
(-0.03256317 -0.047970291 1.656122e-18)
(-0.033007421 -0.045479168 -1.570776e-19)
(-0.033331855 -0.043032797 -4.3231225e-18)
(-0.033546324 -0.040635943 -5.8955961e-18)
(-0.033659732 -0.038292173 -8.6554302e-18)
(-0.033680065 -0.036004153 -9.4229386e-18)
(-0.033614475 -0.033773913 4.3774942e-18)
(-0.033469395 -0.031603035 1.3428957e-18)
(-0.033250643 -0.029492787 7.2078332e-18)
(-0.032963527 -0.027444238 7.7000564e-18)
(-0.032612942 -0.025458314 -1.6733205e-18)
(-0.032203451 -0.023535839 3.0209889e-18)
(-0.031739363 -0.021677572 2.5965984e-18)
(-0.031224792 -0.019884206 7.2226e-18)
(-0.030663707 -0.018156364 8.6475659e-18)
(-0.030059965 -0.016494591 -1.6173425e-18)
(-0.029417333 -0.01489934 3.9203495e-19)
(-0.02873951 -0.013370957 1.52537e-19)
(-0.028030134 -0.011909668 4.3578888e-18)
(-0.027292789 -0.010515565 8.1684693e-18)
(-0.026531 -0.0091885947 -1.550566e-18)
(-0.025748233 -0.0079285488 4.2948405e-19)
(-0.024947886 -0.0067350573 -1.003052e-18)
(-0.024133279 -0.005607584 7.3525206e-19)
(-0.023307648 -0.004545424 6.7770117e-18)
(-0.022474131 -0.0035477045 -8.6880778e-20)
(-0.021635751 -0.0026133937 -4.0613366e-18)
(-0.020795414 -0.001741311 -1.7413656e-18)
(-0.019955903 -0.00093010356 -1.1445462e-18)
(-0.019119971 -0.00017824101 -9.364552e-19)
(-0.01829001 0.00051591284 -3.0954914e-18)
(-0.017468352 0.0011540179 -3.1563172e-18)
(-0.016657229 0.0017379929 -1.8581019e-18)
(-0.015858668 0.0022697909 4.3044831e-19)
(-0.015074534 0.0027514566 7.479648e-19)
(-0.01430652 0.0031851084 -2.8072638e-19)
(-0.013556153 0.0035729238 -7.4060094e-19)
(-0.012824788 0.0039171252 -8.3733891e-19)
(-0.012113614 0.0042199674 1.2480459e-18)
(-0.011423653 0.0044837234 -2.9631937e-19)
(-0.010755765 0.0047106727 -1.0855453e-19)
(-0.010110654 0.0049030874 1.0057057e-18)
(-0.0094888676 0.0050632224 -1.0777181e-19)
(-0.0088908116 0.0051933025 -9.8313624e-20)
(-0.0083167497 0.0052955132 -1.1949585e-18)
(-0.0077668143 0.0053719908 -1.2858212e-18)
(-0.0072410141 0.0054248139 -6.1259596e-19)
(-0.0067392422 0.0054559949 -5.9181359e-19)
(-0.0062612853 0.0054674739 4.5277408e-19)
(-0.0058068326 0.0054611128 -4.3111956e-19)
(-0.0053754852 0.00543869 -2.013811e-19)
(-0.0049667656 0.0054018962 6.6417194e-19)
(-0.0045801266 0.0053523321 1.5904445e-19)
(-0.004214961 0.005291505 4.336126e-19)
(-0.0038706102 0.0052208287 -2.4804425e-19)
(-0.0035463731 0.0051416226 -3.8703679e-19)
(-0.0032415148 0.0050551121 -2.4182445e-19)
(-0.0029552744 0.0049624284 -1.4878944e-19)
(-0.0026868727 0.0048646134 2.3248616e-19)
(-0.0024355188 0.0047626185 -6.8297418e-19)
(-0.0022004177 0.0046573089 -7.5916141e-19)
(-0.0019807746 0.0045494693 -3.3574041e-19)
(-0.0017758036 0.0044398007 -2.0058256e-19)
(-0.0015847301 0.0043289353 -2.9405198e-20)
(-0.001978079 -0.074020812 7.5197524e-17)
(-0.0044868061 -0.073793371 1.0365338e-16)
(-0.007301916 -0.073111529 3.3997966e-17)
(-0.009927447 -0.072116125 1.1638521e-17)
(-0.012500978 -0.070844578 1.715914e-17)
(-0.014921161 -0.06933957 9.1942843e-18)
(-0.01717458 -0.067636947 6.0797308e-18)
(-0.019252521 -0.065766968 3.2821288e-17)
(-0.021149196 -0.063758258 6.3972238e-18)
(-0.02286272 -0.061638324 -6.43737e-18)
(-0.024394838 -0.059433024 -7.6930703e-18)
(-0.025750279 -0.057166037 -6.3284571e-18)
(-0.026935984 -0.054858457 1.5757984e-18)
(-0.027960464 -0.052528613 5.4834324e-19)
(-0.028833176 -0.05019209 1.2060976e-17)
(-0.029563957 -0.047861909 -1.9479348e-17)
(-0.030162658 -0.045548768 -1.0299107e-17)
(-0.030638848 -0.043261337 -5.7731703e-18)
(-0.031001616 -0.041006514 -2.4717519e-18)
(-0.031259441 -0.038789782 7.0591001e-18)
(-0.031420154 -0.036615478 -1.0222126e-17)
(-0.031490916 -0.034487047 -3.5538994e-18)
(-0.031478267 -0.032407253 2.3223339e-18)
(-0.031388181 -0.030378345 7.5304892e-18)
(-0.031226139 -0.028402191 1.4365533e-17)
(-0.030997201 -0.02648037 -1.5701702e-18)
(-0.030706073 -0.024614248 -1.2951389e-18)
(-0.03035717 -0.022805017 4.7718201e-18)
(-0.029954673 -0.021053736 6.0915236e-18)
(-0.029502579 -0.019361347 1.2989734e-17)
(-0.029004741 -0.017728677 4.806075e-20)
(-0.028464894 -0.016156442 -3.9014163e-18)
(-0.027886679 -0.01464524 7.3386839e-19)
(-0.02727366 -0.013195541 1.4791877e-18)
(-0.026629331 -0.011807684 8.6097669e-18)
(-0.02595712 -0.01048187 -1.4489604e-18)
(-0.025260396 -0.0092181483 -4.2018306e-18)
(-0.024542458 -0.0080164181 -8.9253481e-19)
(-0.023806537 -0.0068764198 7.4787833e-19)
(-0.023055784 -0.0057977342 4.9588115e-18)
(-0.022293268 -0.0047797816 1.6812934e-19)
(-0.021521961 -0.0038218226 -2.2979033e-18)
(-0.020744732 -0.0029229644 -9.1604224e-19)
(-0.019964331 -0.0020821717 -1.4196172e-18)
(-0.019183394 -0.0012982672 -2.7137227e-18)
(-0.01840444 -0.00056992259 -2.2131741e-18)
(-0.017629976 0.00010439796 -9.6967226e-19)
(-0.01686204 0.00072617888 -2.9596455e-19)
(-0.016102775 0.0012970895 -1.0128861e-18)
(-0.015354147 0.0018189098 -8.2843675e-19)
(-0.01461794 0.0022934932 -1.0166054e-18)
(-0.013895782 0.0027227622 -8.2716614e-20)
(-0.013189148 0.0031086966 -1.6557176e-19)
(-0.012499356 0.0034533218 6.4727017e-19)
(-0.011827571 0.0037586961 1.4003943e-18)
(-0.011174802 0.0040268988 -2.2406557e-18)
(-0.010541908 0.0042600192 -9.8546196e-19)
(-0.0099296035 0.0044601435 4.0297126e-19)
(-0.0093384609 0.0046293462 5.5137336e-19)
(-0.0087689162 0.0047696778 4.4673318e-19)
(-0.0082212755 0.0048831563 -2.0982525e-18)
(-0.007695722 0.0049717584 -1.9022458e-18)
(-0.0071923227 0.0050374112 -7.5473837e-19)
(-0.0067110363 0.0050819845 -3.4968225e-20)
(-0.0062517213 0.0051072844 7.2085889e-19)
(-0.0058141437 0.0051150485 -9.7590589e-19)
(-0.005397986 0.0051069406 -4.1986582e-19)
(-0.0050028553 0.0050845463 6.0014727e-19)
(-0.0046282918 0.0050493709 1.6567877e-19)
(-0.0042737774 0.005002836 4.3687637e-19)
(-0.0039387431 0.0049462795 -5.809378e-19)
(-0.0036225783 0.0048809536 -6.5481193e-19)
(-0.0033246373 0.0048080256 -3.9474131e-19)
(-0.0030442477 0.0047285781 -1.3067813e-19)
(-0.0027807165 0.004643611 3.3011659e-19)
(-0.0025333369 0.0045540428 -8.4625833e-19)
(-0.002301395 0.0044607131 -1.0112695e-18)
(-0.0020841744 0.0043643859 -5.6782605e-19)
(-0.0018809627 0.0042657503 -3.5698953e-19)
(-0.0016910548 0.0041654299 1.9180581e-19)
(-0.0017776276 -0.068551881 7.9275182e-17)
(-0.0040336059 -0.068360928 9.0523296e-17)
(-0.0065700884 -0.067781061 4.9937659e-18)
(-0.0089447165 -0.0669294 -6.5163382e-17)
(-0.011282416 -0.065834494 -1.4514821e-17)
(-0.013492131 -0.064530918 -5.9823544e-17)
(-0.01556181 -0.063047962 -3.0769013e-17)
(-0.017483034 -0.061410543 -1.4354217e-17)
(-0.019249621 -0.059642426 -3.8448185e-17)
(-0.020858542 -0.057766685 -1.54023e-17)
(-0.022309795 -0.055805308 4.9389096e-18)
(-0.023605953 -0.053778747 2.5003125e-17)
(-0.024751556 -0.051705547 7.1239567e-18)
(-0.025752643 -0.049602166 1.4772673e-17)
(-0.026616264 -0.047482924 1.5117974e-18)
(-0.027350012 -0.045360095 5.2733145e-18)
(-0.027961723 -0.043244042 1.4772374e-17)
(-0.028459197 -0.041143431 5.1992319e-18)
(-0.028850008 -0.039065418 8.6033602e-18)
(-0.029141386 -0.037015882 5.0475322e-19)
(-0.029340147 -0.034999647 4.2973681e-19)
(-0.029452644 -0.03302068 -2.7052691e-18)
(-0.029484779 -0.031082264 -3.1810244e-19)
(-0.029442031 -0.029187143 5.2494494e-18)
(-0.029329491 -0.027337634 -1.1858895e-18)
(-0.029151914 -0.025535722 -4.838104e-18)
(-0.028913762 -0.023783121 -1.7637377e-18)
(-0.028619251 -0.022081328 1.5190482e-18)
(-0.028272387 -0.020431654 5.0632245e-18)
(-0.027877012 -0.018835256 1.0314655e-18)
(-0.02743683 -0.017293142 -4.937401e-18)
(-0.026955434 -0.015806182 -4.0850165e-18)
(-0.026436318 -0.014375105 -8.6003256e-19)
(-0.025882898 -0.013000501 3.5543321e-18)
(-0.025298517 -0.011682817 2.2297865e-18)
(-0.024686448 -0.010422353 -6.5000183e-18)
(-0.0240499 -0.0092192601 -4.2364491e-18)
(-0.023392011 -0.0080735383 -1.4574618e-18)
(-0.022715848 -0.0069850325 4.9501593e-18)
(-0.022024403 -0.0059534333 8.8847134e-19)
(-0.021320582 -0.0049782777 -3.1130916e-18)
(-0.020607202 -0.0040589507 -2.6920601e-18)
(-0.019886981 -0.0031946895 -5.5072802e-18)
(-0.019162531 -0.0023845927 -3.9215059e-18)
(-0.018436347 -0.0016276308 -2.5696123e-18)
(-0.017710815 -0.00092263533 3.8005471e-19)
(-0.016988222 -0.0002683034 3.8652438e-19)
(-0.01627071 0.00033686344 -2.0332671e-18)
(-0.015560212 0.00089420931 -2.2652984e-18)
(-0.014858594 0.0014053878 -1.0863355e-18)
(-0.014167573 0.0018720718 1.0154131e-19)
(-0.013488721 0.002296002 6.850146e-19)
(-0.012823463 0.0026789768 -3.8535792e-20)
(-0.012173078 0.0030228404 4.3301107e-19)
(-0.011538702 0.0033294704 -1.4047338e-19)
(-0.010921332 0.0036007679 -6.771308e-19)
(-0.010321821 0.0038386465 2.8858734e-19)
(-0.009740891 0.0040450212 1.9496638e-19)
(-0.0091791299 0.0042217992 4.6416771e-19)
(-0.008637 0.0043708698 3.7016562e-20)
(-0.0081148426 0.004494096 -9.2874217e-19)
(-0.0076128837 0.0045933057 -1.114217e-18)
(-0.0071312409 0.004670285 -1.4123009e-18)
(-0.0066699297 0.0047267703 -2.0219091e-19)
(-0.0062288715 0.0047644427 3.8402993e-19)
(-0.0058079002 0.0047849229 -2.710696e-19)
(-0.0054067705 0.0047897663 5.1286986e-20)
(-0.0050251649 0.0047804595 3.6103415e-19)
(-0.0046627015 0.0047584168 1.6772322e-19)
(-0.004318942 0.0047249782 5.6016128e-19)
(-0.0039933987 0.0046814082 -7.1669416e-21)
(-0.0036855421 0.0046288942 -2.6254025e-19)
(-0.0033948077 0.0045685468 -5.1462182e-19)
(-0.0031206034 0.0045014001 -1.7713369e-19)
(-0.0028623145 0.0044284124 2.3646238e-19)
(-0.0026193114 0.0043504683 -5.6979192e-19)
(-0.0023909545 0.0042683803 -7.5684719e-19)
(-0.0021765992 0.0041828902 -5.4109834e-19)
(-0.0019756013 0.0040946733 -1.7336448e-19)
(-0.0017873209 0.0040043414 2.817499e-19)
(-0.0016038114 -0.063625315 1.6836813e-17)
(-0.0036403953 -0.063463936 -9.598384e-17)
(-0.0059341209 -0.062967677 5.0181278e-17)
(-0.008088626 -0.062234608 -2.9159828e-17)
(-0.010217764 -0.061286481 1.5407409e-18)
(-0.012239449 -0.06015144 1.8707142e-17)
(-0.014142889 -0.05885356 -1.2307653e-17)
(-0.015920108 -0.057413459 -2.0673312e-17)
(-0.017564814 -0.055850959 -1.219433e-17)
(-0.019073277 -0.054185495 -1.0771371e-17)
(-0.020444303 -0.052435816 -8.2608555e-18)
(-0.021678907 -0.0506196 -1.4777083e-17)
(-0.022779853 -0.048753125 -1.7724231e-17)
(-0.023751293 -0.046851103 -1.5400585e-17)
(-0.024598389 -0.044926585 -1.2770221e-17)
(-0.025326934 -0.042990992 -4.4731624e-19)
(-0.025943105 -0.041054188 -8.1349322e-18)
(-0.026453215 -0.039124619 -1.0330435e-17)
(-0.026863534 -0.03720945 -8.2419395e-18)
(-0.027180176 -0.035314729 -8.390353e-18)
(-0.02740902 -0.033445545 -7.1596874e-18)
(-0.02755565 -0.031606186 -7.2824759e-18)
(-0.027625341 -0.029800282 -9.7118971e-18)
(-0.027623061 -0.028030919 -5.9425446e-18)
(-0.027553489 -0.026300746 -4.8898346e-18)
(-0.02742104 -0.02461205 -8.9211379e-18)
(-0.027229898 -0.022966817 -1.0498838e-17)
(-0.026984041 -0.021366784 -6.3583218e-18)
(-0.026687273 -0.019813471 -8.6940688e-19)
(-0.02634325 -0.018308212 -7.1722748e-19)
(-0.025955506 -0.016852171 -7.8310735e-18)
(-0.025527469 -0.015446353 -7.7707259e-18)
(-0.025062477 -0.014091604 -2.1033253e-18)
(-0.024563787 -0.012788622 3.3982124e-18)
(-0.024034585 -0.011537953 6.7612907e-19)
(-0.023477986 -0.010339992 -4.7559493e-18)
(-0.022897039 -0.0091949845 -2.5361129e-18)
(-0.022294726 -0.0081030236 2.7601285e-20)
(-0.021673956 -0.0070640525 3.1039984e-18)
(-0.021037563 -0.0060778639 2.6918397e-18)
(-0.0203883 -0.005144103 2.1937266e-18)
(-0.019728837 -0.0042622694 -3.291991e-18)
(-0.019061747 -0.0034317215 -6.1331887e-18)
(-0.018389506 -0.0026516836 -3.4212858e-18)
(-0.017714479 -0.001921256 -1.3879609e-18)
(-0.017038921 -0.001239417 1.5311204e-18)
(-0.016364968 -0.00060501611 -1.5986773e-18)
(-0.015694763 -1.6770205e-05 -3.2397069e-18)
(-0.015030082 0.00052665804 -1.2370625e-18)
(-0.014372691 0.0010266554 -2.5875841e-20)
(-0.01372426 0.0014847489 1.0658134e-18)
(-0.013086293 0.0019025169 1.365217e-19)
(-0.012460164 0.0022815911 -6.2236221e-19)
(-0.011847116 0.0026236491 -1.0336023e-18)
(-0.011248254 0.0029304026 -3.2343164e-19)
(-0.010664558 0.0032035883 1.419969e-18)
(-0.010096874 0.003444958 5.4007985e-19)
(-0.0095459245 0.0036562684 -1.8566743e-19)
(-0.0090123107 0.0038392721 -9.4998585e-19)
(-0.008496515 0.0039957094 -2.2189966e-19)
(-0.007998907 0.0041272991 2.877114e-19)
(-0.0075197492 0.0042357309 -1.1005196e-18)
(-0.0070592024 0.0043226597 -1.7315253e-18)
(-0.0066173315 0.0043896972 -1.0881622e-18)
(-0.0061941128 0.0044384073 1.4315854e-19)
(-0.0057894401 0.0044703014 1.4948307e-19)
(-0.0054031316 0.0044868325 -3.941127e-19)
(-0.0050349368 0.0044893934 -1.1794548e-19)
(-0.0046845437 0.0044793124 -1.9646312e-19)
(-0.0043515855 0.0044578514 6.42903e-19)
(-0.0040356473 0.0044262044 4.2492731e-19)
(-0.0037362728 0.0043854963 -2.3597261e-19)
(-0.0034529713 0.0043367824 -7.1448351e-19)
(-0.003185223 0.0042810491 -5.605136e-19)
(-0.0029324854 0.0042192133 1.9127781e-19)
(-0.0026941988 0.0041521252 -2.4967294e-19)
(-0.0024697917 0.0040805691 -6.9952555e-19)
(-0.0022586857 0.0040052641 -6.2063551e-19)
(-0.0020602993 0.0039268685 -1.8050054e-19)
(-0.0018740531 0.0038459814 8.1052776e-20)
(-0.0014522466 -0.059170637 3.1472145e-17)
(-0.0032973547 -0.059033415 4.863322e-18)
(-0.0053785153 -0.058606182 3.4103946e-17)
(-0.0073390592 -0.057971602 5.7289486e-17)
(-0.0092830905 -0.057146187 3.6843489e-17)
(-0.011136376 -0.056152979 3.2443124e-17)
(-0.012889271 -0.05501188 2.1110408e-17)
(-0.01453433 -0.053740034 2.5980744e-17)
(-0.016065338 -0.052354057 1.8044533e-17)
(-0.017478181 -0.050870381 7.2210885e-18)
(-0.018770871 -0.049305043 8.6328843e-18)
(-0.019943319 -0.047673332 -9.9077224e-18)
(-0.020996971 -0.045989532 -8.4725966e-19)
(-0.021934547 -0.044266756 -7.9821081e-18)
(-0.022759734 -0.042516823 2.578877e-18)
(-0.023476886 -0.040750264 -9.5826748e-20)
(-0.024090824 -0.03897635 -6.0710746e-18)
(-0.024606615 -0.037203171 -1.3714054e-18)
(-0.025029415 -0.035437735 -2.367e-19)
(-0.025364358 -0.033686085 2.1977221e-18)
(-0.025616478 -0.031953409 1.0275626e-17)
(-0.025790642 -0.030244164 7.7131841e-18)
(-0.025891525 -0.028562185 -1.704183e-18)
(-0.025923593 -0.026910781 3.3298658e-18)
(-0.025891103 -0.025292827 -1.4443444e-18)
(-0.02579812 -0.023710825 -1.4445766e-18)
(-0.025648525 -0.022166964 2.2789101e-18)
(-0.025446043 -0.020663164 1.6566514e-18)
(-0.02519425 -0.019201109 5.444155e-18)
(-0.0248966 -0.017782278 -8.8391434e-19)
(-0.024556439 -0.016407963 -3.5525379e-18)
(-0.02417702 -0.015079282 7.275899e-19)
(-0.02376151 -0.013797185 1.7635418e-18)
(-0.023313004 -0.012562463 4.4537296e-18)
(-0.022834525 -0.011375753 -1.4799361e-18)
(-0.02232903 -0.010237535 -8.2575179e-19)
(-0.021799411 -0.0091481407 2.4008039e-18)
(-0.021248492 -0.0081077507 2.4901741e-18)
(-0.020679031 -0.007116398 4.2198157e-18)
(-0.020093709 -0.0061739698 4.6065343e-18)
(-0.019495134 -0.0052802107 2.0959579e-18)
(-0.018885832 -0.0044347259 -4.3211026e-18)
(-0.018268238 -0.0036369854 -5.317696e-18)
(-0.017644699 -0.0028863303 -2.1814903e-18)
(-0.017017458 -0.0021819809 1.2166828e-18)
(-0.016388654 -0.0015230452 1.3085094e-18)
(-0.015760323 -0.0009085188 -2.9750675e-18)
(-0.015134397 -0.00033729568 -2.6246697e-18)
(-0.014512753 0.00019192795 -4.5705174e-19)
(-0.013896995 0.00068030845 1.8215782e-18)
(-0.0132887 0.0011292307 1.8750587e-18)
(-0.01268932 0.0015401314 5.8337295e-19)
(-0.012100185 0.0019144885 5.0091456e-20)
(-0.011522497 0.0022538254 -8.158149e-19)
(-0.010957334 0.0025597012 2.3545042e-18)
(-0.010405654 0.0028337011 2.1387337e-18)
(-0.0098682935 0.0030774277 5.2666309e-19)
(-0.0093459742 0.0032924914 1.0139717e-18)
(-0.0088393035 0.0034805025 -4.0795516e-19)
(-0.0083487796 0.0036430625 9.071315e-19)
(-0.0078747954 0.0037817565 7.2299628e-19)
(-0.0074176438 0.0038981465 -8.6488369e-19)
(-0.006977522 0.0039937644 -6.4633751e-19)
(-0.0065545379 0.0040701058 -4.5757393e-19)
(-0.0061487154 0.0041286251 1.2582992e-18)
(-0.0057600007 0.0041707304 6.5474165e-19)
(-0.0053882682 0.0041977791 -3.2592656e-19)
(-0.0050333271 0.004211075 5.459844e-19)
(-0.0046949273 0.0042118648 3.6830239e-19)
(-0.0043727661 0.004201336 1.2007223e-18)
(-0.0040664941 0.0041806151 7.6696868e-19)
(-0.003775721 0.0041507666 9.1450933e-20)
(-0.0035000222 0.0041127923 2.4438181e-20)
(-0.0032389444 0.0040676315 -1.2826728e-19)
(-0.00299201 0.0040161607 6.6837137e-19)
(-0.0027587235 0.0039591952 9.9069785e-20)
(-0.0025385761 0.0038974902 -5.3513607e-19)
(-0.0023310495 0.0038317416 -2.4245883e-19)
(-0.0021356207 0.0037625892 -8.9961847e-20)
(-0.0019517657 0.0036906175 7.3078848e-20)
(-0.0013193813 -0.055128767 4.7549207e-17)
(-0.0029965034 -0.055011421 3.6658107e-17)
(-0.004890636 -0.054641556 2.4828274e-17)
(-0.0066795604 -0.054089295 5.857161e-17)
(-0.008458748 -0.053367094 2.4767606e-17)
(-0.01016086 -0.052493921 -3.307951e-17)
(-0.011777282 -0.051486337 4.8330706e-17)
(-0.013301138 -0.050358661 2.1358667e-17)
(-0.014726424 -0.049124894 1.5642396e-17)
(-0.016048855 -0.047798986 3.0911606e-17)
(-0.017265937 -0.046394683 1.2665899e-17)
(-0.018376808 -0.044925239 1.0921566e-17)
(-0.019381953 -0.043403182 1.0474506e-17)
(-0.020283002 -0.041840175 8.4562789e-18)
(-0.021082499 -0.040246881 1.2562924e-17)
(-0.021783653 -0.03863294 -3.3770039e-18)
(-0.022390178 -0.037006987 1.3782382e-17)
(-0.022906107 -0.035376676 1.1492759e-17)
(-0.023335647 -0.033748748 9.4909417e-18)
(-0.023683083 -0.032129115 1.2072328e-17)
(-0.023952696 -0.030522946 3.2336766e-19)
(-0.0241487 -0.028934746 -6.0493137e-18)
(-0.024275206 -0.027368445 2.4114567e-18)
(-0.024336199 -0.02582748 2.7333638e-18)
(-0.024335523 -0.024314862 -1.8281269e-18)
(-0.024276889 -0.022833238 2.0696229e-18)
(-0.024163873 -0.021384938 -3.417693e-18)
(-0.023999929 -0.019972014 6.3753022e-19)
(-0.023788399 -0.018596273 3.642662e-18)
(-0.023532521 -0.017259306 -1.581912e-18)
(-0.023235445 -0.015962508 4.4011267e-19)
(-0.022900237 -0.014707088 -3.5027651e-18)
(-0.022529891 -0.013494085 -3.9902612e-19)
(-0.022127333 -0.012324371 2.1813079e-18)
(-0.021695423 -0.011198659 -4.4465942e-19)
(-0.02123696 -0.010117508 2.6559025e-18)
(-0.020754677 -0.0090813262 -1.4866571e-18)
(-0.020251248 -0.0080903732 2.2435391e-21)
(-0.019729279 -0.0071447642 -2.5682268e-19)
(-0.019191308 -0.0062444728 -3.6818257e-18)
(-0.018639799 -0.0053893346 -3.1015755e-18)
(-0.018077141 -0.0045790515 -6.3468616e-19)
(-0.017505641 -0.0038131958 6.6406184e-19)
(-0.016927517 -0.0030912159 -1.1952787e-18)
(-0.016344897 -0.0024124438 -1.4628696e-18)
(-0.01575981 -0.0017761035 -1.9935504e-18)
(-0.015174183 -0.0011813157 2.6615501e-19)
(-0.014589838 -0.00062709773 1.5449848e-18)
(-0.014008579 -0.00011235821 -3.4868693e-19)
(-0.013431977 0.00036409068 3.4656331e-19)
(-0.012861487 0.00080336035 1.0434794e-20)
(-0.012298511 0.001206797 1.0489276e-18)
(-0.011744336 0.0015757338 3.5111529e-19)
(-0.011200124 0.0019115508 6.3505608e-19)
(-0.010666923 0.0022156667 2.7814556e-18)
(-0.010145667 0.0024895276 6.1476506e-20)
(-0.0096371818 0.0027345983 1.0986551e-18)
(-0.0091421834 0.0029523544 1.6191919e-18)
(-0.0086612831 0.0031442741 1.0484741e-18)
(-0.0081949902 0.0033118309 1.0612465e-18)
(-0.0077437159 0.003456486 -7.1113973e-19)
(-0.0073077778 0.0035796818 -1.5739168e-19)
(-0.0068874044 0.0036828364 1.6013873e-19)
(-0.0064827399 0.003767337 4.0750811e-19)
(-0.0060938497 0.0038345352 1.0893401e-18)
(-0.0057207259 0.0038857425 -2.2410246e-19)
(-0.0053632923 0.0039222262 1.856645e-19)
(-0.0050214108 0.003945206 9.5619812e-19)
(-0.0046948866 0.0039558512 7.195723e-19)
(-0.0043834741 0.0039552786 9.3922194e-19)
(-0.0040868825 0.0039445502 6.9491836e-20)
(-0.0038047812 0.0039246723 5.8016331e-20)
(-0.0035368055 0.0038965949 2.505518e-19)
(-0.0032825618 0.0038612112 2.9600207e-19)
(-0.003041632 0.0038193581 5.6079334e-19)
(-0.0028135788 0.003771816 -3.2940893e-19)
(-0.0025979507 0.0037193107 -5.2353725e-19)
(-0.0023942847 0.0036625143 -2.0505847e-19)
(-0.0022021115 0.0036020465 -3.3541507e-20)
(-0.0020209588 0.0035384767 1.6131903e-19)
(-0.0012023297 -0.051449851 4.4879059e-17)
(-0.0027313521 -0.051348968 3.1136997e-17)
(-0.004460177 -0.05102709 4.3706547e-18)
(-0.0060966528 -0.050544058 -3.9884338e-17)
(-0.0077285659 -0.049909183 -7.125452e-18)
(-0.0092946527 -0.049138162 -3.4382513e-18)
(-0.010787214 -0.048244861 5.8696657e-18)
(-0.012199956 -0.047241303 -1.4150109e-17)
(-0.013527158 -0.046139341 1.3758481e-17)
(-0.014764516 -0.044950863 -6.565963e-18)
(-0.015909243 -0.043687688 -1.4092994e-17)
(-0.016959945 -0.042361324 1.9560618e-18)
(-0.01791641 -0.040982768 -6.867839e-18)
(-0.018779451 -0.039562376 -7.0252415e-19)
(-0.019550726 -0.038109744 -4.5742264e-18)
(-0.020232538 -0.036633653 -2.0457287e-18)
(-0.020827703 -0.035142086 -4.0810027e-18)
(-0.021339396 -0.033642219 -6.0552005e-18)
(-0.021771024 -0.032140458 -6.3006618e-18)
(-0.022126142 -0.030642506 -8.8083684e-18)
(-0.022408366 -0.029153417 -9.726784e-18)
(-0.022621322 -0.027677658 -1.1383078e-17)
(-0.022768605 -0.026219171 -6.1960548e-18)
(-0.022853745 -0.024781439 -2.1321197e-18)
(-0.022880191 -0.023367545 4.4375041e-18)
(-0.022851308 -0.021980216 -2.0819438e-18)
(-0.022770368 -0.020621871 -5.7450957e-18)
(-0.022640555 -0.019294651 -1.1342609e-18)
(-0.022464969 -0.018000449 7.6284065e-20)
(-0.022246628 -0.016740938 4.7825274e-18)
(-0.02198848 -0.01551759 -9.5842146e-19)
(-0.021693404 -0.014331688 -4.7013477e-18)
(-0.021364215 -0.013184341 -1.1203771e-18)
(-0.021003669 -0.012076488 4.879433e-19)
(-0.020614462 -0.01100891 5.6986419e-18)
(-0.020199234 -0.009982232 1.2785661e-19)
(-0.019760567 -0.0089969304 -3.9712124e-18)
(-0.019300983 -0.0080533359 -1.5837361e-18)
(-0.018822943 -0.0071516376 -3.5935894e-19)
(-0.018328844 -0.0062918872 3.8977811e-18)
(-0.017821016 -0.0054740031 6.9444321e-18)
(-0.017301713 -0.004697775 2.5861245e-18)