/*--------------------------------*- C++ -*----------------------------------*\
| =========                 |                                                 |
| \\      /  F ield         | OpenFOAM: The Open Source CFD Toolbox           |
|  \\    /   O peration     | Version:  2106                                  |
|   \\  /    A nd           | Website:  www.openfoam.com                      |
|    \\/     M anipulation  |                                                 |
\*---------------------------------------------------------------------------*/
FoamFile
{
    version     2.0;
    format      ascii;
    arch        "LSB;label=32;scalar=64";
    class       volScalarField;
    location    "0.005";
    object      p_rgh;
}
// * * * * * * * * * * * * * * * * * * * * * * * * * * * * * * * * * * * * * //

dimensions      [1 -1 -2 0 0 0 0];

internalField   nonuniform List<scalar> 
256
(
33.069374
28.048069
18.714029
6.5537473
-6.6220138
-18.76637
-28.068579
-33.078134
-33.078134
-28.068579
-18.76637
-6.6220138
6.5537473
18.714029
28.048069
33.069374
38.077103
32.302473
21.557455
7.5489576
-7.6432725
-21.649645
-32.378717
-38.155019
-38.155019
-32.378717
-21.649645
-7.6432725
7.5489576
21.557455
32.302473
38.077103
48.100438
40.82822
27.261339
9.5377557
-9.6873776
-27.437202
-41.028612
-48.343527
-48.343527
-41.028612
-27.437202
-9.6873776
9.5377557
27.261339
40.82822
48.100438
64.847403
55.08028
36.799043
12.85065
-13.119235
-37.165596
-55.548423
-65.437645
-65.437645
-55.548423
-37.165596
-13.119235
12.85065
36.799043
55.08028
64.847403
91.716011
78.022387
52.15001
18.089344
-18.890357
-53.030638
-78.969837
-92.880148
-92.880148
-78.969837
-53.030638
-18.890357
18.089344
52.15001
78.022387
91.716011
122.94305
104.5686
70.058669
24.571995
-24.813391
-71.178237
-106.85832
-126.38496
-126.38496
-106.85832
-71.178237
-24.813391
24.571995
70.058669
104.5686
122.94305
197.00691
168.83416
113.63429
38.972381
-42.154022
-116.66951
-172.02698
-201.79676
-201.79676
-172.02698
-116.66951
-42.154022
38.972381
113.63429
168.83416
197.00691
239.74827
204.83434
138.12997
50.122146
-43.037384
-115.45299
-161.38669
-182.76444
-182.76444
-161.38669
-115.45299
-43.037384
50.122146
138.12997
204.83434
239.74827
-181.24351
-160.39873
-114.27315
-41.515813
50.985686
137.28555
202.21063
237.41166
237.41166
202.21063
137.28555
50.985686
-41.515813
-114.27315
-160.39873
-181.24351
-202.99832
-173.94198
-117.32396
-41.546051
40.047808
114.34192
168.94428
197.97691
197.97691
168.94428
114.34192
40.047808
-41.546051
-117.32396
-173.94198
-202.99832
-119.87503
-101.47203
-67.20598
-23.06275
23.5961
66.290533
98.476869
115.91022
115.91022
98.476869
66.290533
23.5961
-23.06275
-67.20598
-101.47203
-119.87503
-100.08386
-85.333732
-57.261655
-20.332059
19.585369
56.255197
84.003374
98.883167
98.883167
84.003374
56.255197
19.585369
-20.332059
-57.261655
-85.333732
-100.08386
-45.418501
-38.487829
-25.576576
-8.8770179
8.9967123
25.368404
37.791719
44.482199
44.482199
37.791719
25.368404
8.9967123
-8.8770179
-25.576576
-38.487829
-45.418501
-69.778161
-59.273794
-39.650587
-14.010712
13.786492
39.442464
59.082644
69.670625
69.670625
59.082644
39.442464
13.786492
-14.010712
-39.650587
-59.273794
-69.778161
12.656138
10.713427
7.1461292
2.4723784
-2.5616963
-7.2679563
-10.887818
-12.855073
-12.855073
-10.887818
-7.2679563
-2.5616963
2.4723784
7.1461292
10.713427
12.656138
-89.146299
-75.610044
-50.502952
-17.733904
17.705641
50.469782
75.579044
89.132353
89.132353
75.579044
50.469782
17.705641
-17.733904
-50.502952
-75.610044
-89.146299
)
;

boundaryField
{
    leftWall
    {
        type            cyclic;
    }
    rightWall
    {
        type            cyclic;
    }
    lowerWall
    {
        type            fixedFluxPressure;
        gradient        uniform 0;
        value           nonuniform List<scalar> 
16
(
33.069374
28.048069
18.714029
6.5537473
-6.6220138
-18.76637
-28.068579
-33.078134
-33.078134
-28.068579
-18.76637
-6.6220138
6.5537473
18.714029
28.048069
33.069374
)
;
    }
    atmosphere
    {
        type            totalPressure;
        rho             rho;
        psi             none;
        gamma           1;
        p0              uniform 0;
        value           nonuniform List<scalar> 
16
(
-0.002037687
-0.016429312
-0.036734398
-0.051178209
0
0
0
0
0
0
0
0
-0.051178209
-0.036734398
-0.016429312
-0.002037687
)
;
    }
    defaultFaces
    {
        type            empty;
    }
}


// ************************************************************************* //
