/*--------------------------------*- C++ -*----------------------------------*\
| =========                 |                                                 |
| \\      /  F ield         | OpenFOAM: The Open Source CFD Toolbox           |
|  \\    /   O peration     | Version:  2106                                  |
|   \\  /    A nd           | Website:  www.openfoam.com                      |
|    \\/     M anipulation  |                                                 |
\*---------------------------------------------------------------------------*/
FoamFile
{
    version     2.0;
    format      ascii;
    arch        "LSB;label=32;scalar=64";
    class       surfaceScalarField;
    location    "0.005";
    object      phi_0;
}
// * * * * * * * * * * * * * * * * * * * * * * * * * * * * * * * * * * * * * //

dimensions      [0 3 -1 0 0 0 0];

oriented        oriented;

internalField   nonuniform List<scalar> 
480
(
-0.0088340529
0.0088340529
-0.016317819
0.0074837663
-0.021323472
0.005005653
-0.023084285
0.0017608125
-0.021350152
-0.001734133
-0.016357172
-0.0049929795
-0.0088662801
-0.0074908921
5.3642816e-15
-0.0088662801
0.0088662801
-0.0088662801
0.016357172
-0.0074908921
0.021350152
-0.0049929795
0.023084285
-0.001734133
0.021323472
0.0017608125
0.016317819
0.005005653
0.0088340529
0.0074837663
0.0088340529
-0.010392242
0.019226295
-0.0191898
0.016281324
-0.025077593
0.010893446
-0.027149865
0.0038330842
-0.025113718
-0.0037702799
-0.019249378
-0.010857319
-0.010440161
-0.016300109
-1.1684045e-13
-0.019306441
0.010440161
-0.019306441
0.019249378
-0.016300109
0.025113718
-0.010857319
0.027149865
-0.0037702799
0.025077593
0.0038330842
0.0191898
0.010893446
0.010392242
0.016281324
0.019226295
-0.013187556
0.03241385
-0.02434044
0.027434209
-0.031803411
0.018356418
-0.034433553
0.0064632264
-0.031858478
-0.0063453548
-0.024434722
-0.018281076
-0.013264818
-0.027470013
-5.381571e-14
-0.032571259
0.013264818
-0.032571259
0.024434722
-0.027470013
0.031858478
-0.018281076
0.034433553
-0.0063453548
0.031803411
0.0064632264
0.02434044
0.018356418
0.013187556
0.027434209
0.03241385
-0.017351897
0.049765747
-0.032007787
0.042090099
-0.041817713
0.028166344
-0.045283025
0.0099285381
-0.041904771
-0.0097236086
-0.032166521
-0.028019326
-0.017485009
-0.042151524
-5.4628361e-14
-0.050056268
0.017485009
-0.050056268
0.032166521
-0.042151524
0.041904771
-0.028019326
0.045283025
-0.0097236086
0.041817713
0.0099285381
0.032007787
0.028166344
0.017351897
0.042090099
0.049765747
-0.022575886
0.072341632
-0.041593625
0.061107839
-0.054324681
0.0408974
-0.058800072
0.014403929
-0.054323272
-0.014200409
-0.041634777
-0.040707821
-0.022624038
-0.061162264
-5.1050051e-14
-0.072680306
0.022624038
-0.072680306
0.041634777
-0.061162264
0.054323272
-0.040707821
0.058800072
-0.014200409
0.054324681
0.014403929
0.041593625
0.0408974
0.022575886
0.061107839
0.072341632
-0.025679251
0.098020884
-0.047236365
0.082664952
-0.061669562
0.055330597
-0.066585982
0.01932035
-0.061042681
-0.01974371
-0.046411545
-0.055338957
-0.025074519
-0.082499291
-4.9495251e-14
-0.097754825
0.025074519
-0.097754825
0.046411545
-0.082499291
0.061042681
-0.055338957
0.066585982
-0.01974371
0.061669562
0.01932035
0.047236365
0.055330597
0.025679251
0.082664952
0.098020884
-0.017609579
0.11563046
-0.031847777
0.09690315
-0.041390812
0.064873632
-0.044376276
0.022305813
-0.039719068
-0.024400917
-0.029419861
-0.065638164
-0.015651315
-0.096267837
-8.4686867e-14
-0.11340614
0.015651315
-0.11340614
0.029419861
-0.096267837
0.039719068
-0.065638164
0.044376276
-0.024400917
0.041390812
0.022305813
0.031847777
0.064873632
0.017609579
0.09690315
0.11563046
0.0056624318
0.10996803
0.010829228
0.091736353
0.013892851
0.061810009
0.014492235
0.021706429
0.013112747
-0.02302143
0.0096869766
-0.062212393
0.0049679374
-0.091548797
-6.8128885e-14
-0.1084382
-0.0049679374
-0.1084382
-0.0096869766
-0.091548797
-0.013112747
-0.062212393
-0.014492235
-0.02302143
-0.013892851
0.021706429
-0.010829228
0.061810009
-0.0056624318
0.091736353
0.10996803
-0.0048096734
0.1147777
-0.0097820911
0.096708771
-0.013471535
0.065499453
-0.015144632
0.023379526
-0.014739686
-0.023426375
-0.011678361
-0.065273719
-0.006370229
-0.096856929
3.8556921e-14
-0.11480843
0.006370229
-0.11480843
0.011678361
-0.096856929
0.014739686
-0.065273719
0.015144632
-0.023426375
0.013471535
0.023379526
0.0097820911
0.065499453
0.0048096734
0.096708771
0.1147777
0.015939213
0.098838492
0.029504633
0.083143351
0.039463712
0.055540374
0.043549177
0.019294061
0.040124403
-0.020001601
0.030624849
-0.055774165
0.016735332
-0.082967412
1.2178262e-14
-0.0980731
-0.016735332
-0.0980731
-0.030624849
-0.082967412
-0.040124403
-0.055774165
-0.043549177
-0.020001601
-0.039463712
0.019294061
-0.029504633
0.055540374
-0.015939213
0.083143351
0.098838492
0.025072366
0.073766126
0.046269263
0.061946453
0.06070455
0.041105087
0.065920165
0.014078446
0.060772992
-0.014854429
0.046429633
-0.041430806
0.025172894
-0.061710672
1.0542642e-13
-0.072900206
-0.025172894
-0.072900206
-0.046429633
-0.061710672
-0.060772992
-0.041430806
-0.065920165
-0.014854429
-0.06070455
0.014078446
-0.046269263
0.041105087
-0.025072366
0.061946453
0.073766126
0.022097823
0.051668303
0.040555362
0.043488915
0.052778457
0.028881992
0.056914031
0.0099428728
0.05239019
-0.010330588
0.040019456
-0.029060071
0.021677653
-0.043368869
-7.4875156e-14
-0.051222554
-0.021677653
-0.051222554
-0.040019456
-0.043368869
-0.05239019
-0.029060071
-0.056914031
-0.010330588
-0.052778457
0.0099428728
-0.040555362
0.028881992
-0.022097823
0.043488915
0.051668303
0.017731972
0.03393633
0.032603867
0.02861702
0.042439829
0.01904603
0.045783072
0.0065996297
0.042192233
-0.0067397497
0.032245116
-0.019112954
0.017454001
-0.028577755
2.7290656e-13
-0.033768552
-0.017454001
-0.033768552
-0.032245116
-0.028577755
-0.042192233
-0.019112954
-0.045783072
-0.0067397497
-0.042439829
0.0065996297
-0.032603867
0.01904603
-0.017731972
0.02861702
0.03393633
0.011862456
0.022073874
0.021819006
0.01866047
0.028402114
0.012462922
0.030633937
0.0043678069
0.028235881
-0.0043416944
0.021578585
-0.012455657
0.011680856
-0.018680026
-3.3541377e-13
-0.022087696
-0.011680856
-0.022087696
-0.021578585
-0.018680026
-0.028235881
-0.012455657
-0.030633937
-0.0043416944
-0.028402114
0.0043678069
-0.021819006
0.012462922
-0.011862456
0.01866047
0.022073874
0.014570758
0.0075031161
0.026891952
0.0063392765
0.035110043
0.0042448312
0.037979955
0.001497895
0.035124895
-0.0014866347
0.02691162
-0.0042423815
0.014579303
-0.0063477094
5.6092622e-13
-0.0075083932
-0.014579303
-0.0075083932
-0.02691162
-0.0063477094
-0.035124895
-0.0042423815
-0.037979955
-0.0014866347
-0.035110043
0.001497895
-0.026891952
0.0042448312
-0.014570758
0.0063392765
0.0075031161
0.0076218533
0.014061818
0.018373869
0.019895317
0.018385099
0.014075494
0.0076271151
-5.3712855e-13
-0.0076271151
-0.014075494
-0.018385099
-0.019895317
-0.018373869
-0.014061818
-0.0076218533
)
;

boundaryField
{
    leftWall
    {
        type            cyclic;
        value           nonuniform List<scalar> 
16
(
-1.8776169e-13
-2.5125715e-13
-2.0275989e-13
-2.0822905e-13
-5.5585881e-14
1.2251562e-13
1.5221352e-13
1.9467236e-13
2.5550491e-13
2.560716e-14
1.2728034e-13
1.4285684e-14
3.7620895e-13
-2.9969361e-13
7.9489442e-13
-4.6977083e-13
)
;
    }
    rightWall
    {
        type            cyclic;
        value           nonuniform List<scalar> 
16
(
1.8776169e-13
2.5125715e-13
2.0275989e-13
2.0822905e-13
5.5585881e-14
-1.2251562e-13
-1.5221352e-13
-1.9467236e-13
-2.5550491e-13
-2.560716e-14
-1.2728034e-13
-1.4285684e-14
-3.7620895e-13
2.9969361e-13
-7.9489442e-13
4.6977083e-13
)
;
    }
    lowerWall
    {
        type            calculated;
        value           uniform 0;
    }
    atmosphere
    {
        type            calculated;
        value           nonuniform List<scalar> 
16
(
-0.00011873716
-0.00010068822
-6.7219443e-05
-2.3552924e-05
2.3582907e-05
6.7223936e-05
0.00010066907
0.00011872183
0.00011872183
0.00010066907
6.7223936e-05
2.3582907e-05
-2.3552924e-05
-6.7219444e-05
-0.00010068822
-0.00011873716
)
;
    }
    defaultFaces
    {
        type            empty;
        value           nonuniform List<scalar> 0();
    }
}


// ************************************************************************* //
