/*--------------------------------*- C++ -*----------------------------------*\
| =========                 |                                                 |
| \\      /  F ield         | OpenFOAM: The Open Source CFD Toolbox           |
|  \\    /   O peration     | Version:  2306                                  |
|   \\  /    A nd           | Website:  www.openfoam.com                      |
|    \\/     M anipulation  |                                                 |
\*---------------------------------------------------------------------------*/
FoamFile
{
    version     2.0;
    format      ascii;
    arch        "LSB;label=32;scalar=64";
    class       surfaceScalarField;
    location    "0.38";
    object      phi_0;
}
// * * * * * * * * * * * * * * * * * * * * * * * * * * * * * * * * * * * * * //

dimensions      [0 3 -1 0 0 0 0];

oriented        oriented;

internalField   nonuniform List<scalar> 
12640
(
-3.3567823e-10
-9.1804311e-09
-1.3422795e-09
-2.7531465e-08
-3.0174583e-09
-4.5829575e-08
-5.3571108e-09
-6.4036246e-08
-8.3551586e-09
-8.2107676e-08
-1.2003597e-08
-1.000023e-07
-1.6292587e-08
-1.1767986e-07
-2.1210452e-08
-1.3510081e-07
-2.6743835e-08
-1.522265e-07
-3.2877576e-08
-1.6901932e-07
-3.9594901e-08
-1.8544259e-07
-4.6877426e-08
-2.014605e-07
-5.4705236e-08
-2.1703853e-07
-6.305684e-08
-2.3214329e-07
-7.1909355e-08
-2.4674252e-07
-8.1238561e-08
-2.6080552e-07
-9.1018929e-08
-2.7430297e-07
-1.0122372e-07
-2.8720681e-07
-1.1182503e-07
-2.9949098e-07
-1.2279394e-07
-3.1113069e-07
-1.3410061e-07
-3.2210314e-07
-1.457142e-07
-3.3238712e-07
-1.5760336e-07
-3.4196316e-07
-1.697357e-07
-3.5081396e-07
-1.8207852e-07
-3.5892388e-07
-1.9459844e-07
-3.6627947e-07
-2.0726218e-07
-3.7286885e-07
-2.2003543e-07
-3.7868242e-07
-2.328844e-07
-3.8371257e-07
-2.4577492e-07
-3.8795387e-07
-2.586731e-07
-3.9140279e-07
-2.7154479e-07
-3.9405723e-07
-2.8435664e-07
-3.9591838e-07
-2.9707536e-07
-3.9698817e-07
-3.0966832e-07
-3.9727176e-07
-3.2210328e-07
-3.9677432e-07
-3.3434829e-07
-3.9550497e-07
-3.4637298e-07
-3.9347361e-07
-3.5814789e-07
-3.906924e-07
-3.6964334e-07
-3.8717452e-07
-3.8083138e-07
-3.8293599e-07
-3.916858e-07
-3.7799291e-07
-4.0218073e-07
-3.7236444e-07
-4.1229183e-07
-3.6607047e-07
-4.2199536e-07
-3.5913218e-07
-4.3127021e-07
-3.5157236e-07
-4.4009616e-07
-3.4341466e-07
-4.484538e-07
-3.3468448e-07
-4.5632569e-07
-3.2540759e-07
-4.6369646e-07
-3.1561068e-07
-4.7055126e-07
-3.0532183e-07
-4.7687759e-07
-2.9456956e-07
-4.8266392e-07
-2.8338292e-07
-4.8790126e-07
-2.7179133e-07
-4.9258078e-07
-2.5982596e-07
-4.966967e-07
-2.4751577e-07
-5.0024393e-07
-2.3489232e-07
-5.0321885e-07
-2.2198628e-07
-5.0561952e-07
-2.0882888e-07
-5.074465e-07
-1.9545024e-07
-5.0870073e-07
-1.8188167e-07
-5.0938413e-07
-1.6815406e-07
-5.095011e-07
-1.5429637e-07
-5.0905755e-07
-1.4033943e-07
-5.080593e-07
-1.263134e-07
-5.0651515e-07
-1.1224487e-07
-5.0443355e-07
-9.8164384e-08
-5.0182593e-07
-8.4098101e-08
-4.9870054e-07
-7.0073152e-08
-4.9507476e-07
-5.6116378e-08
-4.9095922e-07
-4.2252424e-08
-4.8636769e-07
-2.8506587e-08
-4.8131648e-07
-1.4901673e-08
-4.7582424e-07
-1.4599736e-09
-4.6990201e-07
1.1791386e-08
-4.6357178e-07
2.4841414e-08
-4.5685027e-07
3.7665638e-08
-4.497551e-07
5.0245223e-08
-4.4230563e-07
6.2564562e-08
7.4605931e-08
-3.2212943e-10
-8.8583018e-09
-1.2881164e-09
-2.656548e-08
-2.8957151e-09
-4.4221972e-08
-5.1410159e-09
-6.179095e-08
-8.0182134e-09
-7.9230472e-08
-1.1519672e-08
-9.650085e-08
-1.5636015e-08
-1.1356353e-07
-2.0356121e-08
-1.303807e-07
-2.5667218e-08
-1.469154e-07
-3.1554873e-08
-1.6313166e-07
-3.8003144e-08
-1.7899433e-07
-4.4994442e-08
-1.9446921e-07
-5.250977e-08
-2.0952322e-07
-6.0528627e-08
-2.2412442e-07
-6.902927e-08
-2.3824187e-07
-7.7988631e-08
-2.5184616e-07
-8.7382353e-08
-2.6490925e-07
-9.7184885e-08
-2.7740427e-07
-1.0736968e-07
-2.8930617e-07
-1.1790914e-07
-3.005912e-07
-1.2877487e-07
-3.1123742e-07
-1.399374e-07
-3.2122457e-07
-1.5136682e-07
-3.3053377e-07
-1.6303229e-07
-3.3914842e-07
-1.749027e-07
-3.4705351e-07
-1.8694641e-07
-3.5423575e-07
-1.99131e-07
-3.6068424e-07
-2.1142461e-07
-3.6638881e-07
-2.237944e-07
-3.7134277e-07
-2.3620793e-07
-3.7554035e-07
-2.4863297e-07
-3.7897772e-07
-2.6103686e-07
-3.8165342e-07
-2.7338771e-07
-3.8356747e-07
-2.8565365e-07
-3.8472221e-07
-2.9780371e-07
-3.8512167e-07
-3.098067e-07
-3.8477126e-07
-3.2163239e-07
-3.8367929e-07
-3.3325187e-07
-3.8185418e-07
-3.4463621e-07
-3.7930803e-07
-3.5575763e-07
-3.7605312e-07
-3.6658953e-07
-3.7210411e-07
-3.7710611e-07
-3.6747633e-07
-3.8728257e-07
-3.6218799e-07
-3.9709571e-07
-3.5625737e-07
-4.0652329e-07
-3.4970468e-07
-4.1554399e-07
-3.4255162e-07
-4.2413831e-07
-3.3482039e-07
-4.3228828e-07
-3.2653452e-07
-4.3997603e-07
-3.1771985e-07
-4.4718766e-07
-3.0839907e-07
-4.539082e-07
-2.9860133e-07
-4.6012541e-07
-2.8835239e-07
-4.6582795e-07
-2.776803e-07
-4.7100669e-07
-2.6661278e-07
-4.7565327e-07
-2.5517937e-07
-4.7976182e-07
-2.4340717e-07
-4.8332685e-07
-2.3132721e-07
-4.8634469e-07
-2.1896837e-07
-4.8881405e-07
-2.0635943e-07
-4.9073372e-07
-1.9353057e-07
-4.921042e-07
-1.8051125e-07
-4.9292791e-07
-1.6733034e-07
-4.9320829e-07
-1.5401592e-07
-4.9295011e-07
-1.4059782e-07
-4.9215998e-07
-1.2710349e-07
-4.9084489e-07
-1.1355992e-07
-4.8901317e-07
-9.9996194e-08
-4.8667373e-07
-8.6437536e-08
-4.8383743e-07
-7.290941e-08
-4.8051672e-07
-5.9437242e-08
-4.7672307e-07
-4.6046038e-08
-4.7247071e-07
-3.2759016e-08
-4.6777376e-07
-1.9598703e-08
-4.6264715e-07
-6.5866068e-09
-4.5710769e-07
6.2518915e-09
-4.511701e-07
1.890397e-08
-4.4485193e-07
3.1347318e-08
-4.3817082e-07
4.3564257e-08
-4.3114395e-07
5.5537838e-08
6.7251649e-08
-3.0917485e-10
-8.5491265e-09
-1.2363109e-09
-2.5638345e-08
-2.7792677e-09
-4.2679016e-08
-4.9343136e-09
-5.9635901e-08
-7.6959069e-09
-7.6468887e-08
-1.1056786e-08
-9.3139976e-08
-1.5007969e-08
-1.0961233e-07
-1.9538879e-08
-1.2584979e-07
-2.4637351e-08
-1.4181693e-07
-3.0289611e-08
-1.5747937e-07
-3.6480437e-08
-1.7280352e-07
-4.3193091e-08
-1.8775655e-07
-5.0409381e-08
-2.0230693e-07
-5.8109958e-08
-2.1642387e-07
-6.6273919e-08
-2.3007791e-07
-7.4879321e-08
-2.4324075e-07
-8.3902913e-08
-2.5588565e-07
-9.332036e-08
-2.6798682e-07
-1.0310635e-07
-2.7952016e-07
-1.1323464e-07
-2.9046291e-07
-1.2367806e-07
-3.0079402e-07
-1.3440864e-07
-3.1049397e-07
-1.4539771e-07
-3.1954468e-07
-1.5661601e-07
-3.2793015e-07
-1.6803367e-07
-3.3563588e-07
-1.7962048e-07
-3.4264894e-07
-1.9134617e-07
-3.4895855e-07
-2.0317936e-07
-3.5455559e-07
-2.1508939e-07
-3.5943278e-07
-2.2704531e-07
-3.6358444e-07
-2.3901583e-07
-3.6700716e-07
-2.5097031e-07
-3.6969895e-07
-2.6287794e-07
-3.7165982e-07
-2.7470853e-07
-3.7289161e-07
-2.8643223e-07
-3.73398e-07
-2.9801928e-07
-3.7318426e-07
-3.0944122e-07
-3.7225731e-07
-3.2066949e-07
-3.7062586e-07
-3.3167703e-07
-3.683005e-07
-3.4243725e-07
-3.6529289e-07
-3.5292447e-07
-3.6161686e-07
-3.6311361e-07
-3.5728712e-07
-3.7298146e-07
-3.5232014e-07
-3.8250518e-07
-3.4673359e-07
-3.9166353e-07
-3.4054632e-07
-4.0043611e-07
-3.3377909e-07
-4.0880386e-07
-3.2645267e-07
-4.1674933e-07
-3.1858905e-07
-4.2425684e-07
-3.1021233e-07
-4.3131007e-07
-3.0134589e-07
-4.37896e-07
-2.9201538e-07
-4.4400275e-07
-2.8224559e-07
-4.4961916e-07
-2.7206395e-07
-4.5473493e-07
-2.6149693e-07
-4.5934443e-07
-2.5056995e-07
-4.6343962e-07
-2.39312e-07
-4.6701483e-07
-2.2775187e-07
-4.7006775e-07
-2.1591553e-07
-4.7259544e-07
-2.0383177e-07
-4.7459627e-07
-1.9152981e-07
-4.7607162e-07
-1.790358e-07
-4.7702362e-07
-1.6637849e-07
-4.7745404e-07
-1.5358547e-07
-4.7736733e-07
-1.4068445e-07
-4.7677028e-07
-1.2770058e-07
-4.7566718e-07
-1.1466297e-07
-4.740676e-07
-1.0159579e-07
-4.7198003e-07
-8.852513e-08
-4.6941346e-07
-7.5475905e-08
-4.6637949e-07
-6.2471204e-08
-4.6288903e-07
-4.9536593e-08
-4.5895539e-07
-3.6692501e-08
-4.5459247e-07
-2.3961667e-08
-4.4981285e-07
-1.1366415e-08
-4.4463352e-07
1.0725197e-09
-4.3906764e-07
1.3338161e-08
-4.3313216e-07
2.5411997e-08
-4.2684351e-07
3.7275585e-08
-4.2021846e-07
4.8912661e-08
6.0307741e-08
-2.9678003e-10
-8.2523469e-09
-1.1867483e-09
-2.4748377e-08
-2.6678587e-09
-4.1197906e-08
-4.7365549e-09
-5.7567202e-08
-7.3875559e-09
-7.3817888e-08
-1.0613913e-08
-8.9913612e-08
-1.4407133e-08
-1.0581913e-07
-1.8757113e-08
-1.214998e-07
-2.3652116e-08
-1.3692193e-07
-2.9079112e-08
-1.5205238e-07
-3.5023596e-08
-1.6685902e-07
-4.1469558e-08
-1.8131059e-07
-4.8399862e-08
-1.9537666e-07
-5.5795768e-08
-2.0902794e-07
-6.363749e-08
-2.2223616e-07
-7.1904023e-08
-2.3497424e-07
-8.0573296e-08
-2.4721637e-07
-8.9622098e-08
-2.58938e-07
-9.9026257e-08
-2.7011604e-07
-1.0876077e-07
-2.807284e-07
-1.1879965e-07
-2.9075515e-07
-1.2911635e-07
-3.0017727e-07
-1.3968349e-07
-3.0897757e-07
-1.5047306e-07
-3.1714052e-07
-1.614569e-07
-3.2465207e-07
-1.7260599e-07
-3.3149988e-07
-1.8389101e-07
-3.3767348e-07
-1.9528272e-07
-3.4316393e-07
-2.0675151e-07
-3.4796389e-07
-2.1826791e-07
-3.5206808e-07
-2.2980215e-07
-3.5547289e-07
-2.4132469e-07
-3.5817639e-07
-2.5280632e-07
-3.6017817e-07
-2.6421808e-07
-3.6147985e-07
-2.7553139e-07
-3.6208466e-07
-2.8671824e-07
-3.6199735e-07
-2.9775053e-07
-3.6122514e-07
-3.0860168e-07
-3.597747e-07
-3.1924571e-07
-3.5765641e-07
-3.2965672e-07
-3.5488192e-07
-3.3981036e-07
-3.5146329e-07
-3.4968248e-07
-3.4741497e-07
-3.5925073e-07
-3.4275187e-07
-3.6849332e-07
-3.3749104e-07
-3.7738959e-07
-3.3165008e-07
-3.8591994e-07
-3.2524871e-07
-3.9406654e-07
-3.183061e-07
-4.018116e-07
-3.108439e-07
-4.0913991e-07
-3.0288401e-07
-4.1603647e-07
-2.9444929e-07
-4.2248844e-07
-2.8556343e-07
-4.2848309e-07
-2.7625092e-07
-4.3401088e-07
-2.6653621e-07
-4.3906254e-07
-2.5644525e-07
-4.436293e-07
-2.4600326e-07
-4.4770484e-07
-2.3523643e-07
-4.5128433e-07
-2.2417246e-07
-4.5436417e-07
-2.128356e-07
-4.5694118e-07
-2.012548e-07
-4.590152e-07
-1.8945576e-07
-4.605851e-07
-1.7746596e-07
-4.6165192e-07
-1.6531154e-07
-4.6221967e-07
-1.5301771e-07
-4.6229143e-07
-1.4061288e-07
-4.6187131e-07
-1.2812074e-07
-4.6096711e-07
-1.1556721e-07
-4.5958417e-07
-1.029786e-07
-4.5773107e-07
-9.0378285e-08
-4.5541715e-07
-7.7789831e-08
-4.5265144e-07
-6.5236935e-08
-4.4944612e-07
-5.2741881e-08
-4.458144e-07
-4.0324405e-08
-4.4176434e-07
-2.8011703e-08
-4.3731204e-07
-1.581856e-08
-4.3247318e-07
-3.7663961e-09
-4.2725873e-07
8.1236432e-09
-4.2168484e-07
1.9838096e-08
-4.1576808e-07
3.1358606e-08
-4.0952446e-07
4.2668937e-08
5.3753499e-08
-2.8491698e-10
-7.9674291e-09
-1.1393158e-09
-2.389398e-08
-2.5612605e-09
-3.9775961e-08
-4.5473471e-09
-5.5581115e-08
-7.0925267e-09
-7.1272705e-08
-1.0190208e-08
-8.6815933e-08
-1.3832238e-08
-1.0217709e-07
-1.8008974e-08
-1.1732307e-07
-2.2709384e-08
-1.3222152e-07
-2.792082e-08
-1.4684096e-07
-3.362959e-08
-1.6115024e-07
-3.9820314e-08
-1.7511987e-07
-4.6476734e-08
-1.8872023e-07
-5.3581038e-08
-2.0192365e-07
-6.1114367e-08
-2.1470286e-07
-6.90564e-08
-2.2703221e-07
-7.7386425e-08
-2.3888633e-07
-8.6082162e-08
-2.5024225e-07
-9.5120784e-08
-2.6107743e-07
-1.0447811e-07
-2.7137106e-07
-1.1412939e-07
-2.8110384e-07
-1.2404957e-07
-2.9025707e-07
-1.3421248e-07
-2.9881468e-07
-1.4459107e-07
-3.0676192e-07
-1.5515891e-07
-3.1408425e-07
-1.6588797e-07
-3.2077079e-07
-1.7675061e-07
-3.2681087e-07
-1.8771861e-07
-3.3219591e-07
-1.9876402e-07
-3.3691845e-07
-2.098583e-07
-3.4097381e-07
-2.2097319e-07
-3.4435799e-07
-2.3208071e-07
-3.4706884e-07
-2.431525e-07
-3.491064e-07
-2.5416147e-07
-3.5047095e-07
-2.6507982e-07
-3.5116625e-07
-2.7588068e-07
-3.5119654e-07
-2.8653819e-07
-3.5056754e-07
-2.9702594e-07
-3.4928695e-07
-3.0731863e-07
-3.4736372e-07
-3.1739215e-07
-3.448084e-07
-3.2722288e-07
-3.4163261e-07
-3.3678794e-07
-3.3784987e-07
-3.4606569e-07
-3.3347416e-07
-3.5503489e-07
-3.2852176e-07
-3.6367606e-07
-3.2300892e-07
-3.7197046e-07
-3.169543e-07
-3.7990012e-07
-3.1037638e-07
-3.8744849e-07
-3.0329557e-07
-3.9460048e-07
-2.9573208e-07
-4.0134189e-07
-2.8770793e-07
-4.076597e-07
-2.7924567e-07
-4.135429e-07
-2.7036781e-07
-4.1898048e-07
-2.6109863e-07
-4.2396337e-07
-2.5146226e-07
-4.2848396e-07
-2.4148267e-07
-4.3253475e-07
-2.3118557e-07
-4.3611278e-07
-2.205944e-07
-4.3921243e-07
-2.0973597e-07
-4.4183116e-07
-1.9863606e-07
-4.4396699e-07
-1.8732004e-07
-4.4562135e-07
-1.7581155e-07
-4.4679416e-07
-1.6413882e-07
-4.4748707e-07
-1.523248e-07
-4.4770365e-07
-1.4039625e-07
-4.4744864e-07
-1.2837575e-07
-4.4672728e-07
-1.1628862e-07
-4.4554581e-07
-1.0416011e-07
-4.4391206e-07
-9.2011959e-08
-4.4183433e-07
-7.9867539e-08
-4.3932154e-07
-6.7749758e-08
-4.3638369e-07
-5.5679628e-08
-4.3303299e-07
-4.3675123e-08
-4.292792e-07
-3.1765365e-08
-4.2513711e-07
-1.9960691e-08
-4.2061882e-07
-8.2847068e-09
-4.1573784e-07
3.2426296e-09
-4.10508e-07
1.4608339e-08
-4.0494393e-07
2.5794546e-08
-3.9906115e-07
3.6786175e-08
4.7568501e-08
-2.7356867e-10
-7.69386e-09
-1.0939338e-09
-2.3073613e-08
-2.4592537e-09
-3.8410648e-08
-4.3662886e-09
-5.3674076e-08
-6.810198e-09
-6.8828791e-08
-9.7847203e-09
-8.3841411e-08
-1.3282067e-08
-9.8679741e-08
-1.7293027e-08
-1.1331211e-07
-2.1807058e-08
-1.2770749e-07
-2.6812293e-08
-1.4183572e-07
-3.2295364e-08
-1.5566718e-07
-3.8241983e-08
-1.6917323e-07
-4.4636201e-08
-1.8232603e-07
-5.1461238e-08
-1.950986e-07
-5.8699039e-08
-2.0746504e-07
-6.6330701e-08
-2.1940053e-07
-7.4335782e-08
-2.3088124e-07
-8.2693456e-08
-2.4188459e-07
-9.1381639e-08
-2.5238928e-07
-1.0037755e-07
-2.6237513e-07
-1.0965784e-07
-2.7182356e-07
-1.1919793e-07
-2.8071701e-07
-1.2897305e-07
-2.8903957e-07
-1.3895812e-07
-2.9677681e-07
-1.4912678e-07
-3.0391563e-07
-1.5945301e-07
-3.104446e-07
-1.6991032e-07
-3.1635353e-07
-1.8047177e-07
-3.2163452e-07
-1.9111044e-07
-3.2627976e-07
-2.0179935e-07
-3.3028493e-07
-2.1251133e-07
-3.3364602e-07
-2.2321984e-07
-3.3636031e-07
-2.3389817e-07
-3.3842804e-07
-2.4451935e-07
-3.3984981e-07
-2.5505748e-07
-3.4062815e-07
-2.6548687e-07
-3.4076714e-07
-2.7578221e-07
-3.4027221e-07
-2.8591886e-07
-3.3915035e-07
-2.9587256e-07
-3.3741001e-07
-3.0562003e-07
-3.3506094e-07
-3.1513866e-07
-3.3211395e-07
-3.2440593e-07
-3.2858259e-07
-3.3340183e-07
-3.2447824e-07
-3.4210551e-07
-3.198181e-07
-3.5049862e-07
-3.1461583e-07
-3.5856244e-07
-3.0889038e-07
-3.6628006e-07
-3.0265883e-07
-3.7363559e-07
-2.9594002e-07
-3.8061429e-07
-2.8875333e-07
-3.8720227e-07
-2.8112003e-07
-3.9338689e-07
-2.7306106e-07
-3.9915713e-07
-2.6459752e-07
-4.0450273e-07
-2.5575308e-07
-4.0941493e-07
-2.4654998e-07
-4.138848e-07
-2.3701272e-07
-4.1790858e-07
-2.2716196e-07
-4.2147851e-07
-2.170244e-07
-4.2459103e-07
-2.0662349e-07
-4.272431e-07
-1.9598396e-07
-4.2943438e-07
-1.8512874e-07
-4.3116246e-07
-1.7408341e-07
-4.3242989e-07
-1.6287145e-07
-4.3323665e-07
-1.5151796e-07
-4.3358754e-07
-1.4004543e-07
-4.3348453e-07
-1.2847872e-07
-4.3293296e-07
-1.1684041e-07
-4.3193923e-07
-1.0515368e-07
-4.3050987e-07
-9.3441294e-08
-4.2865333e-07
-8.1724083e-08
-4.2637693e-07
-7.0026e-08
-4.2369106e-07
-5.8365472e-08
-4.2060399e-07
-4.6762236e-08
-4.1713079e-07
-3.5238549e-08
-4.1327923e-07
-2.3812102e-08
-4.0906576e-07
-1.2498221e-08
-4.044993e-07
-1.3237953e-09
-3.9959327e-07
9.7024276e-09
-3.9436387e-07
2.0565175e-08
-3.8882429e-07
3.1246632e-08
4.1733458e-08
-2.6271033e-10
-7.4311506e-09
-1.0505138e-09
-2.2285807e-08
-2.361634e-09
-3.7099529e-08
-4.1929862e-09
-5.1842723e-08
-6.5400214e-09
-6.6481767e-08
-9.3966371e-09
-8.0984788e-08
-1.2755499e-08
-9.5320883e-08
-1.6607822e-08
-1.0945978e-07
-2.0943497e-08
-1.2337181e-07
-2.5751201e-08
-1.3702801e-07
-3.1018303e-08
-1.5040009e-07
-3.6730997e-08
-1.6346056e-07
-4.2874269e-08
-1.7618272e-07
-4.943195e-08
-1.8854092e-07
-5.6386938e-08
-2.0051004e-07
-6.3721002e-08
-2.120665e-07
-7.1414996e-08
-2.2318726e-07
-7.9448818e-08
-2.3385075e-07
-8.7801339e-08
-2.4403675e-07
-9.6451029e-08
-2.5372542e-07
-1.0537542e-07
-2.6289916e-07
-1.1455131e-07
-2.7154112e-07
-1.239549e-07
-2.7963599e-07
-1.3356211e-07
-2.8716958e-07
-1.4334813e-07
-2.9412961e-07
-1.5328798e-07
-3.0050473e-07
-1.6335616e-07
-3.0628533e-07
-1.7352736e-07
-3.1146333e-07
-1.8377538e-07
-3.1603177e-07
-1.9407497e-07
-3.1998533e-07
-2.0440024e-07
-3.2332071e-07
-2.1472501e-07
-3.2603556e-07
-2.2502431e-07
-3.281288e-07
-2.3527225e-07
-3.2960181e-07
-2.4544429e-07
-3.3045609e-07
-2.5551575e-07
-3.3069571e-07
-2.6546222e-07
-3.3032575e-07
-2.7526004e-07
-3.2935252e-07
-2.8488621e-07
-3.2778385e-07
-2.9431841e-07
-3.2562875e-07
-3.0353457e-07
-3.2289779e-07
-3.1251448e-07
-3.196027e-07
-3.2123627e-07
-3.157565e-07
-3.2968269e-07
-3.1137175e-07
-3.3783378e-07
-3.0646469e-07
-3.4567298e-07
-3.0105129e-07
-3.5318335e-07
-2.9514844e-07
-3.6034996e-07
-2.8877349e-07
-3.6715794e-07
-2.8194541e-07
-3.7359396e-07
-2.7468409e-07
-3.7964667e-07
-2.6700834e-07
-3.8530398e-07
-2.5894026e-07
-3.905563e-07
-2.5050076e-07
-3.9539493e-07
-2.4171128e-07
-3.9981297e-07
-2.3259473e-07
-4.0380296e-07
-2.2317187e-07
-4.073599e-07
-2.1346751e-07
-4.1047949e-07
-2.0350381e-07
-4.131592e-07
-1.9330424e-07
-4.1539637e-07
-1.8289166e-07
-4.1719122e-07
-1.7228865e-07
-4.185431e-07
-1.6151952e-07
-4.1945416e-07
-1.5060692e-07
-4.1992645e-07
-1.3957311e-07
-4.1996336e-07
-1.2844177e-07
-4.1956945e-07
-1.1723422e-07
-4.1874973e-07
-1.0597344e-07
-4.1751145e-07
-9.4679591e-08
-4.1586063e-07
-8.3374958e-08
-4.1380652e-07
-7.2080211e-08
-4.1135682e-07
-6.0815144e-08
-4.0852076e-07
-4.9598354e-08
-4.0530955e-07
-3.8449667e-08
-4.0173357e-07
-2.7388132e-08
-3.9780304e-07
-1.6428729e-08
-3.9353456e-07
-5.5923984e-09
-3.8893738e-07
5.1052791e-09
-3.8402442e-07
1.5652264e-08
-3.7881014e-07
2.6032333e-08
3.6231155e-08
-2.5231028e-10
-7.178839e-09
-1.0089412e-09
-2.1529182e-08
-2.2681884e-09
-3.5840279e-08
-4.0271158e-09
-5.0083793e-08
-6.2813547e-09
-6.4227528e-08
-9.0251197e-09
-7.8241028e-08
-1.2251412e-08
-9.2094592e-08
-1.5951839e-08
-1.0575936e-07
-2.0116778e-08
-1.1920688e-07
-2.4735372e-08
-1.3240941e-07
-2.9795666e-08
-1.4533979e-07
-3.5284292e-08
-1.5797193e-07
-4.1187202e-08
-1.7027981e-07
-4.7488944e-08
-1.8223919e-07
-5.4173082e-08
-1.9382591e-07
-6.1222215e-08
-2.0501734e-07
-6.8618092e-08
-2.1579139e-07
-7.6341496e-08
-2.2612734e-07
-8.4372622e-08
-2.3600565e-07
-9.2690444e-08
-2.4540762e-07
-1.0127362e-07
-2.5431598e-07
-1.1010026e-07
-2.627145e-07
-1.1914756e-07
-2.7058868e-07
-1.283924e-07
-2.7792473e-07
-1.3781134e-07
-2.8471068e-07
-1.4738038e-07
-2.909357e-07
-1.570752e-07
-2.9659048e-07
-1.6687162e-07
-3.0166692e-07
-1.7674462e-07
-3.0615877e-07
-1.8667004e-07
-3.1005991e-07
-1.9662304e-07
-3.1336771e-07
-2.0657912e-07
-3.1607949e-07
-2.1651364e-07
-3.1819426e-07
-2.2640264e-07
-3.1971286e-07
-2.362221e-07
-3.2063659e-07
-2.4594852e-07
-3.209693e-07
-2.555586e-07
-3.2071573e-07
-2.6502967e-07
-3.1988141e-07
-2.743395e-07
-3.1847399e-07
-2.8346679e-07
-3.165015e-07
-2.9239056e-07
-3.13974e-07
-3.0109074e-07
-3.1090247e-07
-3.0954826e-07
-3.0729896e-07
-3.1774365e-07
-3.0317631e-07
-3.2565975e-07
-2.9854864e-07
-3.3327986e-07
-2.9343113e-07
-3.4058779e-07
-2.8784054e-07
-3.4756871e-07
-2.8179248e-07
-3.5420891e-07
-2.7530518e-07
-3.6049548e-07
-2.6839744e-07
-3.6641608e-07
-2.6108777e-07
-3.7196048e-07
-2.5339581e-07
-3.7711914e-07
-2.4534216e-07
-3.8188293e-07
-2.3694742e-07
-3.8624458e-07
-2.2823298e-07
-3.9019777e-07
-2.1921882e-07
-3.9373684e-07
-2.0992839e-07
-3.9685762e-07
-2.0038307e-07
-3.995579e-07
-1.9060405e-07
-4.0183494e-07
-1.8061442e-07
-4.036876e-07
-1.7043604e-07
-4.051158e-07
-1.6009131e-07
-4.0612082e-07
-1.4960186e-07
-4.0670466e-07
-1.3898933e-07
-4.0687057e-07
-1.2827586e-07
-4.0662238e-07
-1.1748229e-07
-4.0596512e-07
-1.0663083e-07
-4.0490371e-07
-9.5740931e-08
-4.0344573e-07
-8.4832843e-08
-4.0159844e-07
-7.3927586e-08
-3.9937009e-07
-6.3043482e-08
-3.9676899e-07
-5.219947e-08
-3.9380497e-07
-4.1413757e-08
-3.9048854e-07
-3.0704516e-08
-3.8682914e-07
-2.0088031e-08
-3.8284074e-07
-9.5810119e-09
-3.7853464e-07
7.9916823e-10
-3.7392192e-07
1.1039523e-08
-3.6901548e-07
2.1125831e-08
3.1044756e-08
-2.4235798e-10
-6.9364812e-09
-9.6913435e-10
-2.0802403e-08
-2.1787131e-09
-3.46307e-08
-3.8682886e-09
-4.8394218e-08
-6.0336988e-09
-6.2062124e-08
-8.6694605e-09
-7.560526e-08
-1.1768802e-08
-8.8995248e-08
-1.5323768e-08
-1.0220439e-07
-1.9325185e-08
-1.1520544e-07
-2.3762742e-08
-1.2797188e-07
-2.8624861e-08
-1.4047767e-07
-3.3899211e-08
-1.526976e-07
-3.9571812e-08
-1.646072e-07
-4.5628299e-08
-1.7618272e-07
-5.2052871e-08
-1.8740132e-07
-5.8829017e-08
-1.9824121e-07
-6.5939256e-08
-2.0868115e-07
-7.3365268e-08
-2.1870135e-07
-8.1088068e-08
-2.2828287e-07
-8.9087754e-08
-2.3740795e-07
-9.734404e-08
-2.4605967e-07
-1.0583575e-07
-2.5422274e-07
-1.1454137e-07
-2.6188307e-07
-1.234387e-07
-2.6902742e-07
-1.3250526e-07
-2.7564414e-07
-1.4171832e-07
-2.8172264e-07
-1.5105471e-07
-2.8725416e-07
-1.6049105e-07
-2.9223059e-07
-1.7000419e-07
-2.9664556e-07
-1.795701e-07
-3.0049398e-07
-1.8916534e-07
-3.0377248e-07
-1.9876637e-07
-3.0647848e-07
-2.0835035e-07
-3.0861023e-07
-2.1789343e-07
-3.1016974e-07
-2.2737337e-07
-3.1115671e-07
-2.3676719e-07
-3.1157549e-07
-2.4605285e-07
-3.1143001e-07
-2.5520832e-07
-3.1072593e-07
-2.6421285e-07
-3.0946942e-07
-2.7304555e-07
-3.0766876e-07
-2.8168647e-07
-3.0533311e-07
-2.9011569e-07
-3.0247329e-07
-2.9831582e-07
-2.9909886e-07
-3.062679e-07
-2.9522428e-07
-3.1395524e-07
-2.9086122e-07
-3.2136147e-07
-2.8602496e-07
-3.2847174e-07
-2.8073023e-07
-3.3527084e-07
-2.7499327e-07
-3.4174624e-07
-2.6882985e-07
-3.4788483e-07
-2.6225883e-07
-3.5367545e-07
-2.5529719e-07
-3.591067e-07
-2.4796455e-07
-3.6417071e-07
-2.4027818e-07
-3.6885768e-07
-2.3226041e-07
-3.7316129e-07
-2.2392947e-07
-3.7707413e-07
-2.1530599e-07
-3.8059128e-07
-2.0641113e-07
-3.8370907e-07
-1.9726537e-07
-3.8642354e-07
-1.8788952e-07
-3.8873251e-07
-1.7830554e-07
-3.90635e-07
-1.6853353e-07
-3.9213111e-07
-1.5859513e-07
-3.9322093e-07
-1.4851199e-07
-3.939067e-07
-1.3830346e-07
-3.9419078e-07
-1.2799178e-07
-3.9407647e-07
-1.1759669e-07
-3.9356941e-07
-1.0713807e-07
-3.9267408e-07
-9.6636338e-08
-3.9139584e-07
-8.6110976e-08
-3.8974286e-07
-7.5580571e-08
-3.8772201e-07
-6.5064233e-08
-3.8534109e-07
-5.4580324e-08
-3.8261034e-07
-4.4144434e-08
-3.7953785e-07
-3.3776967e-08
-3.7613437e-07
-2.3491481e-08
-3.7241057e-07
-1.3304722e-08
-3.6837953e-07
-3.2318572e-09
-3.6405033e-07
6.7101836e-09
-3.5943643e-07
1.6511971e-08
2.6158052e-08
-2.3282689e-10
-6.7036547e-09
-9.3102735e-10
-2.0104203e-08
-2.0930577e-09
-3.3468667e-08
-3.7162356e-09
-4.677105e-08
-5.7965784e-09
-5.9981771e-08
-8.3288497e-09
-7.3072998e-08
-1.1306648e-08
-8.6017457e-08
-1.4722307e-08
-9.8788725e-08
-1.8567126e-08
-1.1136063e-07
-2.2831272e-08
-1.2370774e-07
-2.7503698e-08
-1.3580522e-07
-3.2572512e-08
-1.4762879e-07
-3.8024643e-08
-1.5915506e-07
-4.3846138e-08
-1.7036121e-07
-5.0022031e-08
-1.8122542e-07
-5.6536592e-08
-1.9172667e-07
-6.3373077e-08
-2.0184465e-07
-7.0514066e-08
-2.1156038e-07
-7.7941353e-08
-2.2085555e-07
-8.5636145e-08
-2.2971318e-07
-9.3578849e-08
-2.3811693e-07
-1.0174937e-07
-2.4605223e-07
-1.1012712e-07
-2.5350531e-07
-1.1869091e-07
-2.6046367e-07
-1.2741953e-07
-2.6691553e-07
-1.3629091e-07
-2.7285125e-07
-1.45283e-07
-2.7826206e-07
-1.5437343e-07
-2.8314013e-07
-1.6354026e-07
-2.8747874e-07
-1.727606e-07
-2.9127368e-07
-1.8201195e-07
-2.9452113e-07
-1.9127211e-07
-2.972183e-07
-2.0051821e-07
-2.9936417e-07
-2.0972885e-07
-3.009591e-07
-2.1888129e-07
-3.0200424e-07
-2.2795441e-07
-3.0250238e-07
-2.3692704e-07
-3.0245735e-07
-2.4577786e-07
-3.0187508e-07
-2.5448726e-07
-3.0075996e-07
-2.6303498e-07
-2.9912108e-07
-2.7140174e-07
-2.9696633e-07
-2.7956959e-07
-2.9430545e-07
-2.8751958e-07
-2.9114891e-07
-2.9523529e-07
-2.8750856e-07
-3.0269984e-07
-2.8339663e-07
-3.0989792e-07
-2.7882694e-07
-3.1681476e-07
-2.7381336e-07
-3.2343621e-07
-2.6837182e-07
-3.297492e-07
-2.6251687e-07
-3.3574204e-07
-2.5626584e-07
-3.4140323e-07
-2.4963602e-07
-3.4672299e-07
-2.4264484e-07
-3.5169112e-07
-2.3530994e-07
-3.563003e-07
-2.2765126e-07
-3.6054293e-07
-2.1968691e-07
-3.644124e-07
-2.1143655e-07
-3.6790412e-07
-2.0291954e-07
-3.7101288e-07
-1.9415661e-07
-3.7373608e-07
-1.8516637e-07
-3.7607165e-07
-1.7596998e-07
-3.7801746e-07
-1.6658768e-07
-3.7957301e-07
-1.5703966e-07
-3.8073976e-07
-1.4734525e-07
-3.8151816e-07
-1.3752494e-07
-3.8191091e-07
-1.2759912e-07
-3.8192147e-07
-1.1758606e-07
-3.8155339e-07
-1.0750613e-07
-3.8081129e-07
-9.7378356e-08
-3.7970088e-07
-8.7221431e-08
-3.7822883e-07
-7.7052524e-08
-3.7640241e-07
-6.6890836e-08
-3.742291e-07
-5.6753612e-08
-3.7171618e-07
-4.6657452e-08
-3.6887398e-07
-3.6619274e-08
-3.6571189e-07
-2.66536e-08
-3.6223941e-07
-1.677715e-08
-3.5846776e-07
-7.0035354e-09
-3.5440816e-07
2.6505692e-09
-3.5007057e-07
1.2174487e-08
2.1555448e-08
-2.2369827e-10
-6.4799569e-09
-8.9452645e-10
-1.9433377e-08
-2.0110068e-09
-3.2352185e-08
-3.5705963e-09
-4.5211461e-08
-5.5694669e-09
-5.7982905e-08
-8.0026533e-09
-7.0639804e-08
-1.0863985e-08
-8.3156124e-08
-1.4146248e-08
-9.5506463e-08
-1.7841067e-08
-1.0766582e-07
-2.1939049e-08
-1.1960975e-07
-2.6429736e-08
-1.3131454e-07
-3.1301697e-08
-1.4275684e-07
-3.6542515e-08
-1.5391422e-07
-4.2138835e-08
-1.6476489e-07
-4.8076402e-08
-1.7528787e-07
-5.4340211e-08
-1.8546286e-07
-6.0914303e-08
-1.9527054e-07
-6.778204e-08
-2.0469262e-07
-7.4926062e-08
-2.1371153e-07
-8.232844e-08
-2.2231079e-07
-8.9970363e-08
-2.3047504e-07
-9.7832736e-08
-2.3818985e-07
-1.0589595e-07
-2.4544212e-07
-1.1413981e-07
-2.522198e-07
-1.2254375e-07
-2.5851159e-07
-1.31087e-07
-2.6430802e-07
-1.3974861e-07
-2.6960044e-07
-1.4850722e-07
-2.7438155e-07
-1.5734119e-07
-2.7864479e-07
-1.6622916e-07
-2.8238569e-07
-1.7514974e-07
-2.8560054e-07
-1.8408145e-07
-2.8828659e-07
-1.930026e-07
-2.9044303e-07
-2.0189255e-07
-2.9206914e-07
-2.1072973e-07
-2.9316708e-07
-2.1949379e-07
-2.9373832e-07
-2.2816426e-07
-2.937869e-07
-2.3672176e-07
-2.9331756e-07
-2.4514557e-07
-2.9233621e-07
-2.5341771e-07
-2.9084893e-07
-2.6151947e-07
-2.888646e-07
-2.6943291e-07
-2.8639197e-07
-2.7714079e-07
-2.8344103e-07
-2.8462686e-07
-2.8002257e-07
-2.9187485e-07
-2.7614867e-07
-2.9886989e-07
-2.7183179e-07
-3.0559762e-07
-2.6708565e-07
-3.1204501e-07
-2.6192444e-07
-3.1819919e-07
-2.5636273e-07
-3.2404818e-07
-2.5041682e-07
-3.2958121e-07
-2.4410294e-07
-3.3478877e-07
-2.3743733e-07
-3.3966158e-07
-2.3043718e-07
-3.4419135e-07
-2.2312149e-07
-3.483712e-07
-2.1550707e-07
-3.52195e-07
-2.076128e-07
-3.5565682e-07
-1.994577e-07
-3.5875347e-07
-1.9105984e-07
-3.6148095e-07
-1.8243898e-07
-3.6383637e-07
-1.7361453e-07
-3.6581791e-07
-1.6460604e-07
-3.6742718e-07
-1.5543042e-07
-3.6866181e-07
-1.461106e-07
-3.6952411e-07
-1.3666267e-07
-3.7001682e-07
-1.271065e-07
-3.7014113e-07
-1.1746165e-07
-3.6990181e-07
-1.0774562e-07
-3.6930263e-07
-9.7977545e-08
-3.6834846e-07
-8.817553e-08
-3.6704622e-07
-7.8354798e-08
-3.6540195e-07
-6.853515e-08
-3.6342227e-07
-5.8733254e-08
-3.6111499e-07
-4.8964598e-08
-3.584895e-07
-3.924473e-08
-3.5555446e-07
-2.9588701e-08
-3.5231933e-07
-2.0012389e-08
-3.4879321e-07
-1.0529729e-08
-3.449878e-07
-1.1547645e-09
-3.4091296e-07
8.0996827e-09
1.7222112e-08
-2.1495468e-10
-6.2650011e-09
-8.595707e-10
-1.8788765e-08
-1.9324283e-09
-3.1279321e-08
-3.4310804e-09
-4.3712806e-08
-5.3519179e-09
-5.6062069e-08
-7.6901669e-09
-6.8301567e-08
-1.0439947e-08
-8.0406335e-08
-1.3594386e-08
-9.2352027e-08
-1.7145507e-08
-1.0411469e-07
-2.1084299e-08
-1.1567096e-07
-2.5400853e-08
-1.26998e-07
-3.0084206e-08
-1.3807347e-07
-3.5122472e-08
-1.4887596e-07
-4.0503004e-08
-1.5938436e-07
-4.6212216e-08
-1.6957864e-07
-5.223563e-08
-1.7943943e-07
-5.8558169e-08
-1.8894802e-07
-6.5163945e-08
-1.9808683e-07
-7.2036264e-08
-2.068392e-07
-7.9158095e-08
-2.1518896e-07
-8.6511507e-08
-2.2312162e-07
-9.4078245e-08
-2.3062311e-07
-1.0183951e-07
-2.3768084e-07
-1.0977615e-07
-2.4428314e-07
-1.1786857e-07
-2.5041919e-07
-1.2609676e-07
-2.5607979e-07
-1.3444076e-07
-2.6125648e-07
-1.4288009e-07
-2.6594215e-07
-1.5139431e-07
-2.701306e-07
-1.5996289e-07
-2.738171e-07
-1.6856532e-07
-2.7699809e-07
-1.7718084e-07
-2.7967104e-07
-1.8578938e-07
-2.8183451e-07
-1.943702e-07
-2.8348834e-07
-2.0290377e-07
-2.8463357e-07
-2.1136974e-07
-2.8527233e-07
-2.1974884e-07
-2.8540782e-07
-2.2802209e-07
-2.8504435e-07
-2.3617087e-07
-2.8418744e-07
-2.4417634e-07
-2.8284351e-07
-2.5202135e-07
-2.8101953e-07
-2.5968863e-07
-2.7872472e-07
-2.6716146e-07
-2.7596818e-07
-2.7442419e-07
-2.7275982e-07
-2.8146141e-07
-2.691114e-07
-2.882588e-07
-2.6503455e-07
-2.9480175e-07
-2.6054269e-07
-3.0107874e-07
-2.5564744e-07
-3.0707658e-07
-2.5036488e-07
-3.127839e-07
-2.4470946e-07
-3.1819085e-07
-2.3869606e-07
-3.2328696e-07
-2.3234125e-07
-3.2806363e-07
-2.256605e-07
-3.3251322e-07
-2.1867198e-07
-3.3662878e-07
-2.1139145e-07
-3.4040425e-07
-2.0383731e-07
-3.4383383e-07
-1.9602809e-07
-3.4691352e-07
-1.8798013e-07
-3.4963934e-07
-1.7971307e-07
-3.5200996e-07
-1.7124384e-07
-3.5402328e-07
-1.6259282e-07
-3.556774e-07
-1.5377638e-07
-3.5697395e-07
-1.4481397e-07
-3.5791212e-07
-1.3572439e-07
-3.5849511e-07
-1.2652338e-07
-3.5872437e-07
-1.1723244e-07
-3.5860382e-07
-1.0786617e-07
-3.5813701e-07
-9.8444253e-08
-3.5732891e-07
-8.8983518e-08
-3.5618465e-07
-7.9498966e-08
-3.5471052e-07
-7.0009233e-08
-3.5291297e-07
-6.0530918e-08
-3.5079992e-07
-5.1077718e-08
-3.4837784e-07
-4.166678e-08
-3.4565711e-07
-3.2309459e-08
-3.4264405e-07
-2.3025376e-08
-3.3934961e-07
-1.3824197e-08
-3.3578617e-07
-4.71822e-09
-3.3195919e-07
4.272603e-09
1.314494e-08
-2.0658039e-10
-6.0584221e-09
-8.260742e-10
-1.8169269e-08
-1.8571347e-09
-3.0248265e-08
-3.2974298e-09
-4.2272518e-08
-5.1434893e-09
-5.4216003e-08
-7.3907648e-09
-6.6054293e-08
-1.0033694e-08
-7.7763408e-08
-1.306565e-08
-8.9320073e-08
-1.6479027e-08
-1.0070129e-07
-2.0265318e-08
-1.1188468e-07
-2.4414951e-08
-1.2284837e-07
-2.8917508e-08
-1.3357092e-07
-3.376171e-08
-1.4403176e-07
-3.8935396e-08
-1.5421066e-07
-4.4425567e-08
-1.6408849e-07
-5.0218551e-08
-1.7364646e-07
-5.6299822e-08
-1.8286676e-07
-6.265429e-08
-1.9173237e-07
-6.9266145e-08
-2.0022731e-07
-7.6118874e-08
-2.0833626e-07
-8.3195331e-08
-2.1604511e-07
-9.0478413e-08
-2.2334007e-07
-9.7950009e-08