/*--------------------------------*- C++ -*----------------------------------*\
| =========                 |                                                 |
| \\      /  F ield         | OpenFOAM: The Open Source CFD Toolbox           |
|  \\    /   O peration     | Version:  2106                                  |
|   \\  /    A nd           | Website:  www.openfoam.com                      |
|    \\/     M anipulation  |                                                 |
\*---------------------------------------------------------------------------*/
FoamFile
{
    version     2.0;
    format      ascii;
    arch        "LSB;label=32;scalar=64";
    class       surfaceScalarField;
    location    "0.015";
    object      phi_0;
}
// * * * * * * * * * * * * * * * * * * * * * * * * * * * * * * * * * * * * * //

dimensions      [0 3 -1 0 0 0 0];

oriented        oriented;

internalField   nonuniform List<scalar> 
130560
(
-2.6270509e-05
2.6270509e-05
-5.2526056e-05
2.6255547e-05
-7.8751687e-05
2.6225632e-05
-0.00010493246
2.6180776e-05
-0.00013105346
2.6121e-05
-0.00015709979
2.6046332e-05
-0.0001830566
2.5956807e-05
-0.00020890907
2.5852465e-05
-0.00023464242
2.5733356e-05
-0.00026024196
2.5599536e-05
-0.00028569302
2.5451065e-05
-0.00031098104
2.5288014e-05
-0.0003360915
2.5110459e-05
-0.00036100998
2.4918484e-05
-0.00038572216
2.4712177e-05
-0.0004102138
2.4491638e-05
-0.00043447077
2.4256969e-05
-0.00045847905
2.4008282e-05
-0.00048222474
2.3745696e-05
-0.00050569408
2.3469335e-05
-0.00052887341
2.3179332e-05
-0.00055174924
2.2875827e-05
-0.0005743082
2.2558965e-05
-0.0005965371
2.22289e-05
-0.00061842289
2.1885792e-05
-0.0006399527
2.1529809e-05
-0.00066111383
2.1161125e-05
-0.00068189375
2.0779922e-05
-0.00070228014
2.0386388e-05
-0.00072226086
1.9980719e-05
-0.00074182397
1.9563117e-05
-0.00076095776
1.9133791e-05
-0.00077965072
1.8692958e-05
-0.00079789156
1.8240842e-05
-0.00081566924
1.7777671e-05
-0.00083297292
1.7303684e-05
-0.00084979204
1.6819124e-05
-0.00086611628
1.6324241e-05
-0.00088193558
1.5819293e-05
-0.00089724012
1.5304543e-05
-0.00091202038
1.4780263e-05
-0.00092626711
1.4246728e-05
-0.00093997133
1.3704223e-05
-0.00095312437
1.3153036e-05
-0.00096571784
1.2593465e-05
-0.00097774365
1.202581e-05
-0.00098919403
1.1450381e-05
-0.0010000615
1.0867492e-05
-0.001010339
1.0277463e-05
-0.0010200196
9.6806186e-06
-0.0010290969
9.0772917e-06
-0.0010375647
8.4678188e-06
-0.0010454173
7.852542e-06
-0.0010526491
7.2318089e-06
-0.001059255
6.6059719e-06
-0.0010652304
5.9753884e-06
-0.0010705708
5.3404204e-06
-0.0010752723
4.7014345e-06
-0.0010793311
4.0588016e-06
-0.001082744
3.4128969e-06
-0.0010855081
2.7640995e-06
-0.0010876209
2.1127921e-06
-0.0010890802
1.4593552e-06
-0.0010898844
8.0416436e-07
-0.0010900321
1.4767511e-07
-0.0010895223
-5.0977259e-07
-0.0010883545
-1.1677744e-06
-0.0010865286
-1.825926e-06
-0.0010840448
-2.4838224e-06
-0.0010809037
-3.1410592e-06
-0.0010771065
-3.7972305e-06
-0.0010726545
-4.4519289e-06
-0.0010675498
-5.104746e-06
-0.0010617945
-5.7552727e-06
-0.0010553914
-6.4030992e-06
-0.0010483436
-7.0478157e-06
-0.0010406546
-7.6890124e-06
-0.0010323283
-8.3262798e-06
-0.0010233691
-8.9592093e-06
-0.0010137817
-9.587393e-06
-0.0010035713
-1.0210425e-05
-0.0009927434
-1.0827899e-05
-0.00098130398
-1.1439414e-05
-0.00096925941
-1.2044568e-05
-0.00095661645
-1.2642963e-05
-0.00094338225
-1.3234205e-05
-0.00092956435
-1.38179e-05
-0.00091517068
-1.4393661e-05
-0.00090020958
-1.4961103e-05
-0.00088468974
-1.5519844e-05
-0.00086862023
-1.606951e-05
-0.0008520105
-1.6609728e-05
-0.00083487037
-1.7140133e-05
-0.00081721
-1.7660364e-05
-0.00079903994
-1.8170065e-05
-0.00078037105
-1.8668888e-05
-0.00076121456
-1.915649e-05
-0.00074158202
-1.9632535e-05
-0.00072148533
-2.0096694e-05
-0.00070093669
-2.0548645e-05
-0.00067994861
-2.0988076e-05
-0.00065853393
-2.1414678e-05
-0.00063670578
-2.1828154e-05
-0.00061447756
-2.2228215e-05
-0.00059186299
-2.2614579e-05
-0.00056887601
-2.2986974e-05
-0.00054553087
-2.3345138e-05
-0.00052184206
-2.3688817e-05
-0.00049782429
-2.4017769e-05
-0.00047349253
-2.4331758e-05
-0.00044886197
-2.4630562e-05
-0.000423948
-2.4913969e-05
-0.00039876622
-2.5181774e-05
-0.00037333244
-2.5433788e-05
-0.00034766261
-2.5669829e-05
-0.00032177288
-2.5889728e-05
-0.00029567955
-2.6093327e-05
-0.00026939907
-2.628048e-05
-0.00024294802
-2.6451052e-05
-0.0002163431
-2.660492e-05
-0.00018960113
-2.6741973e-05
-0.00016273901
-2.6862112e-05
-0.00013577376
-2.696525e-05
-0.00010872245
-2.7051313e-05
-8.1602214e-05
-2.7120238e-05
-5.4430239e-05
-2.7171975e-05
-2.7223751e-05
-2.7206488e-05
-5.683054e-15
-2.7223751e-05
2.7223751e-05
-2.7223751e-05
5.4430239e-05
-2.7206488e-05
8.1602214e-05
-2.7171975e-05
0.00010872245
-2.7120238e-05
0.00013577376
-2.7051313e-05
0.00016273901
-2.696525e-05
0.00018960113
-2.6862112e-05
0.0002163431
-2.6741973e-05
0.00024294802
-2.660492e-05
0.00026939907
-2.6451052e-05
0.00029567955
-2.628048e-05
0.00032177288
-2.6093327e-05
0.00034766261
-2.5889728e-05
0.00037333244
-2.5669829e-05
0.00039876622
-2.5433788e-05
0.000423948
-2.5181774e-05
0.00044886197
-2.4913969e-05
0.00047349253
-2.4630562e-05
0.00049782429
-2.4331758e-05
0.00052184206
-2.4017769e-05
0.00054553087
-2.3688817e-05
0.00056887601
-2.3345138e-05
0.00059186299
-2.2986974e-05
0.00061447756
-2.2614579e-05
0.00063670578
-2.2228215e-05
0.00065853393
-2.1828154e-05
0.00067994861
-2.1414678e-05
0.00070093669
-2.0988076e-05
0.00072148533
-2.0548645e-05
0.00074158202
-2.0096694e-05
0.00076121456
-1.9632535e-05
0.00078037105
-1.915649e-05
0.00079903994
-1.8668888e-05
0.00081721
-1.8170065e-05
0.00083487037
-1.7660364e-05
0.0008520105
-1.7140133e-05
0.00086862023
-1.6609728e-05
0.00088468974
-1.606951e-05
0.00090020958
-1.5519844e-05
0.00091517068
-1.4961103e-05
0.00092956435
-1.4393661e-05
0.00094338225
-1.38179e-05
0.00095661645
-1.3234205e-05
0.00096925941
-1.2642963e-05
0.00098130398
-1.2044568e-05
0.0009927434
-1.1439414e-05
0.0010035713
-1.0827899e-05
0.0010137817
-1.0210425e-05
0.0010233691
-9.587393e-06
0.0010323283
-8.9592093e-06
0.0010406546
-8.3262798e-06
0.0010483436
-7.6890124e-06
0.0010553914
-7.0478157e-06
0.0010617945
-6.4030992e-06
0.0010675498
-5.7552727e-06
0.0010726545
-5.104746e-06
0.0010771065
-4.4519289e-06
0.0010809037
-3.7972305e-06
0.0010840448
-3.1410592e-06
0.0010865286
-2.4838224e-06
0.0010883545
-1.825926e-06
0.0010895223
-1.1677744e-06
0.0010900321
-5.0977259e-07
0.0010898844
1.4767511e-07
0.0010890802
8.0416436e-07
0.0010876209
1.4593552e-06
0.0010855081
2.1127921e-06
0.001082744
2.7640995e-06
0.0010793311
3.4128969e-06
0.0010752723
4.0588016e-06
0.0010705708
4.7014345e-06
0.0010652304
5.3404204e-06
0.001059255
5.9753883e-06
0.0010526491
6.6059719e-06
0.0010454173
7.2318089e-06
0.0010375647
7.852542e-06
0.0010290969
8.4678188e-06
0.0010200196
9.0772917e-06
0.001010339
9.6806186e-06
0.0010000615
1.0277463e-05
0.00098919403
1.0867492e-05
0.00097774365
1.1450381e-05
0.00096571784
1.202581e-05
0.00095312437
1.2593465e-05
0.00093997133
1.3153036e-05
0.00092626711
1.3704223e-05
0.00091202038
1.4246728e-05
0.00089724012
1.4780263e-05
0.00088193558
1.5304543e-05
0.00086611628
1.5819293e-05
0.00084979204
1.6324241e-05
0.00083297292
1.6819124e-05
0.00081566924
1.7303684e-05
0.00079789156
1.7777671e-05
0.00077965072
1.8240842e-05
0.00076095776
1.8692958e-05
0.00074182397
1.9133791e-05
0.00072226086
1.9563117e-05
0.00070228014
1.9980719e-05
0.00068189375
2.0386388e-05
0.00066111383
2.0779922e-05
0.0006399527
2.1161125e-05
0.00061842289
2.1529809e-05
0.0005965371
2.1885792e-05
0.0005743082
2.22289e-05
0.00055174924
2.2558965e-05
0.00052887341
2.2875827e-05
0.00050569408
2.3179332e-05
0.00048222474
2.3469335e-05
0.00045847905
2.3745696e-05
0.00043447077
2.4008282e-05
0.0004102138
2.4256969e-05
0.00038572216
2.4491638e-05
0.00036100998
2.4712177e-05
0.0003360915
2.4918484e-05
0.00031098104
2.5110459e-05
0.00028569302
2.5288014e-05
0.00026024196
2.5451065e-05
0.00023464242
2.5599536e-05
0.00020890907
2.5733356e-05
0.0001830566
2.5852465e-05
0.00015709979
2.5956807e-05
0.00013105346
2.6046332e-05
0.00010493246
2.6121e-05
7.8751687e-05
2.6180776e-05
5.2526056e-05
2.6225632e-05
2.6270509e-05
2.6255547e-05
2.6270509e-05
-2.6286051e-05
5.255656e-05
-5.2557134e-05
5.252663e-05
-7.8798287e-05
5.2466785e-05
-0.00010499456
5.2377051e-05
-0.00013113103
5.2257471e-05
-0.0001571928
5.21081e-05
-0.000183165
5.1929007e-05
-0.00020903281
5.1720275e-05
-0.00023478146
5.1482001e-05
-0.00026039622
5.1214295e-05
-0.00028586244
5.0917284e-05
-0.00031116553
5.0591104e-05
-0.00033629097
5.0235909e-05
-0.00036122436
4.9851865e-05
-0.00038595133
4.9439153e-05
-0.00041045766
4.8997967e-05
-0.00043472921
4.8528515e-05
-0.00045875194
4.803102e-05
-0.00048251197
4.7505719e-05
-0.00050599549
4.6952862e-05
-0.00052918888
4.6372714e-05
-0.0005520786
4.5765552e-05
-0.00057465131
4.513167e-05
-0.00059689378
4.4471375e-05
-0.00061879298
4.3784988e-05
-0.00064033601
4.3072842e-05
-0.00066151017
4.2335288e-05
-0.00068230294
4.1572688e-05
-0.00070270197
4.0785419e-05
-0.00072269512
3.9973871e-05
-0.00074227046
3.9138451e-05
-0.00076141624
3.8279577e-05
-0.00078012097
3.7397681e-05
-0.00079837334
3.649321e-05
-0.00081616229
3.5566625e-05
-0.000833477
3.4618399e-05
-0.0008503069
3.364902e-05
-0.00086664165
3.2658988e-05
-0.00088247117
3.1648819e-05
-0.00089778567
3.061904e-05
-0.0009125756
2.9570192e-05
-0.0009268317
2.8502829e-05
-0.000940545
2.7417518e-05
-0.0009537068
2.6314838e-05
-0.00096630871
2.5195382e-05
-0.00097834266
2.4059753e-05
-0.00098980085
2.2908569e-05
-0.0010006758
2.1742458e-05
-0.0010109604
2.0562061e-05
-0.0010206478
1.9368029e-05
-0.0010297316
1.8161025e-05
-0.0010382055
1.6941723e-05
-0.0010460637
1.5710808e-05
-0.0010533009
1.4468975e-05
-0.0010599118
1.3216929e-05
-0.0010658918
1.1955385e-05
-0.0010712365
1.0685067e-05
-0.0010759418
9.4067087e-06
-0.001080004
8.1210519e-06
-0.00108342
6.8288468e-06
-0.0010861867
5.5308515e-06
-0.0010883018
4.2278306e-06
-0.001089763
2.920553e-06
-0.0010905686
1.6097965e-06
-0.0010907173
2.9637523e-07
-0.0010902081
-1.0189413e-06
-0.0010890405
-2.3353623e-06
-0.0010872144
-3.6520836e-06
-0.0010847299
-4.9682977e-06
-0.0010815878
-6.2831949e-06
-0.001077789
-7.5959626e-06
-0.0010733352
-8.905786e-06
-0.0010682281
-1.0211848e-05
-0.00106247
-1.1513329e-05
-0.0010560637
-1.280941e-05
-0.0010490122
-1.4099272e-05
-0.0010413192
-1.5382093e-05
-0.0010329884
-1.6657055e-05
-0.0010240243
-1.792334e-05
-0.0010144315
-1.9180133e-05
-0.0010042153
-2.0426619e-05
-0.00099338123
-2.166199e-05
-0.00098193521
-2.2885438e-05
-0.00096988361
-2.4096163e-05
-0.00095723321
-2.5293367e-05
-0.00094399115
-2.647626e-05
-0.000930165
-2.7644058e-05
-0.00091576268
-2.8795982e-05
-0.00090079252
-2.9931263e-05
-0.00088526322
-3.104914e-05
-0.00086918387
-3.214886e-05
-0.00085256392
-3.3229679e-05
-0.00083541319
-3.4290867e-05
-0.00081774185
-3.5331699e-05
-0.00079956045
-3.6351467e-05
-0.00078087987
-3.7349471e-05
-0.00076171133
-3.8325026e-05
-0.0007420664
-3.9277461e-05
-0.00072195698
-4.0206116e-05
-0.00070139528
-4.1110348e-05
-0.00068039383
-4.1989529e-05
-0.00065896546
-4.2843045e-05
-0.00063712331
-4.3670301e-05
-0.00061488081
-4.4470716e-05
-0.00059225166
-4.5243729e-05
-0.00056924984
-4.5988795e-05
-0.00054588959
-4.6705388e-05
-0.0005221854
-4.7393002e-05
-0.00049815202
-4.8051149e-05
-0.00047380442
-4.8679362e-05
-0.00044915779
-4.9277193e-05
-0.00042422754
-4.9844218e-05
-0.00039902929
-5.0380029e-05
-0.00037357883
-5.0884246e-05
-0.00034789215
-5.1356505e-05
-0.00032198541
-5.1796468e-05
-0.00029587492
-5.220382e-05
-0.00026957713
-5.2578267e-05
-0.00024310864
-5.291954e-05
-0.00021648617
-5.3227392e-05
-0.00018972654
-5.3501602e-05
-0.00016284668
-5.3741971e-05
-0.00013586361
-5.3948325e-05
-0.0001087944
-5.4120516e-05
-8.1656225e-05
-5.4258418e-05
-5.4466267e-05
-5.4361933e-05
-2.7241771e-05
-5.4430984e-05
-5.8718476e-15
-5.4465522e-05
2.7241771e-05
-5.4465522e-05
5.4466267e-05
-5.4430984e-05
8.1656225e-05
-5.4361933e-05
0.0001087944
-5.4258418e-05
0.00013586361
-5.4120516e-05
0.00016284668
-5.3948325e-05
0.00018972654
-5.3741971e-05
0.00021648617
-5.3501602e-05
0.00024310864
-5.3227392e-05
0.00026957713
-5.291954e-05
0.00029587492
-5.2578267e-05
0.00032198541
-5.220382e-05
0.00034789215
-5.1796468e-05
0.00037357883
-5.1356505e-05
0.00039902929
-5.0884246e-05
0.00042422754
-5.0380029e-05
0.00044915779
-4.9844218e-05
0.00047380442
-4.9277193e-05
0.00049815202
-4.8679362e-05
0.0005221854
-4.8051149e-05
0.00054588959
-4.7393002e-05
0.00056924984
-4.6705388e-05
0.00059225166
-4.5988795e-05
0.00061488081
-4.5243729e-05
0.00063712331
-4.4470716e-05
0.00065896546
-4.3670301e-05
0.00068039383
-4.2843045e-05
0.00070139528
-4.1989529e-05
0.00072195698
-4.1110348e-05
0.0007420664
-4.0206116e-05
0.00076171133
-3.9277461e-05
0.00078087987
-3.8325026e-05
0.00079956045
-3.7349471e-05
0.00081774185
-3.6351467e-05
0.00083541319
-3.5331699e-05
0.00085256392
-3.4290867e-05
0.00086918387
-3.3229679e-05
0.00088526322
-3.214886e-05
0.00090079252
-3.104914e-05
0.00091576268
-2.9931263e-05
0.000930165
-2.8795982e-05
0.00094399115
-2.7644058e-05
0.00095723321
-2.647626e-05
0.00096988361
-2.5293367e-05
0.00098193521
-2.4096163e-05
0.00099338123
-2.2885438e-05
0.0010042153
-2.166199e-05
0.0010144315
-2.0426619e-05
0.0010240243
-1.9180133e-05
0.0010329884
-1.792334e-05
0.0010413192
-1.6657055e-05
0.0010490122
-1.5382093e-05
0.0010560637
-1.4099272e-05
0.00106247
-1.280941e-05
0.0010682281
-1.1513329e-05
0.0010733352
-1.0211848e-05
0.001077789
-8.905786e-06
0.0010815878
-7.5959626e-06
0.0010847299
-6.2831949e-06
0.0010872144
-4.9682977e-06
0.0010890405
-3.6520836e-06
0.0010902081
-2.3353623e-06
0.0010907173
-1.0189413e-06
0.0010905686
2.9637522e-07
0.001089763
1.6097965e-06
0.0010883018
2.920553e-06
0.0010861867
4.2278306e-06
0.00108342
5.5308515e-06
0.001080004
6.8288468e-06
0.0010759418
8.1210519e-06
0.0010712365
9.4067087e-06
0.0010658918
1.0685067e-05
0.0010599118
1.1955385e-05
0.0010533009
1.3216929e-05
0.0010460637
1.4468975e-05
0.0010382055
1.5710808e-05
0.0010297316
1.6941723e-05
0.0010206478
1.8161025e-05
0.0010109604
1.9368029e-05
0.0010006758
2.0562061e-05
0.00098980085
2.1742458e-05
0.00097834266
2.2908569e-05
0.00096630871
2.4059753e-05
0.0009537068
2.5195382e-05
0.000940545
2.6314838e-05
0.0009268317
2.7417518e-05
0.0009125756
2.8502829e-05
0.00089778567
2.9570192e-05
0.00088247117
3.061904e-05
0.00086664165
3.1648819e-05
0.0008503069
3.2658988e-05
0.000833477
3.364902e-05
0.00081616229
3.4618399e-05
0.00079837334
3.5566625e-05
0.00078012097
3.649321e-05
0.00076141624
3.7397681e-05
0.00074227046
3.8279577e-05
0.00072269512
3.9138451e-05
0.00070270197
3.9973871e-05
0.00068230294
4.0785419e-05
0.00066151017
4.1572688e-05
0.00064033601
4.2335288e-05
0.00061879298
4.3072842e-05
0.00059689378
4.3784988e-05
0.00057465131
4.4471375e-05
0.0005520786
4.513167e-05
0.00052918888
4.5765552e-05
0.00050599549
4.6372714e-05
0.00048251197
4.6952862e-05
0.00045875194
4.7505719e-05
0.00043472921
4.803102e-05
0.00041045766
4.8528515e-05
0.00038595133
4.8997967e-05
0.00036122436
4.9439153e-05
0.00033629097
4.9851865e-05
0.00031116553
5.0235909e-05
0.00028586244
5.0591104e-05
0.00026039622
5.0917284e-05
0.00023478146
5.1214295e-05
0.00020903281
5.1482001e-05
0.000183165
5.1720275e-05
0.0001571928
5.1929007e-05
0.00013113103
5.21081e-05
0.00010499456
5.2257471e-05
7.8798287e-05
5.2377051e-05
5.2557134e-05
5.2466785e-05
2.6286051e-05
5.252663e-05
5.255656e-05
-2.630965e-05
7.886621e-05
-5.2604321e-05
7.8821301e-05
-7.886904e-05
7.8731505e-05
-0.00010508885
7.8596862e-05
-0.00013124881
7.8417435e-05
-0.00015733402
7.8193307e-05
-0.0001833296
7.7924582e-05
-0.00020922071
7.7611384e-05
-0.00023499256
7.7253859e-05
-0.00026063044
7.6852173e-05
-0.00028611967
7.6406513e-05
-0.00031144565
7.5917086e-05
-0.00033659387
7.5384122e-05
-0.00036154987
7.4807871e-05
-0.00038629932
7.4188602e-05
-0.00041082796
7.3526608e-05
-0.00043512165
7.2822202e-05
-0.00045916635
7.2075716e-05
-0.00048294813
7.1287506e-05
-0.00050645322
7.0457947e-05
-0.00052966794
6.9587437e-05
-0.00055257878
6.8676392e-05
-0.00057517236
6.7725253e-05
-0.00059743547
6.6734479e-05
-0.00061935503
6.5704551e-05
-0.00064091816
6.4635971e-05
-0.00066211213
6.3529264e-05
-0.00068292442
6.2384973e-05
-0.00070334267
6.1203664e-05
-0.00072335472
5.9985924e-05
-0.00074294863
5.8732359e-05
-0.00076211265
5.7443598e-05
-0.00078083526
5.612029e-05
-0.00079910515
5.4763106e-05
-0.00081691126
5.3372735e-05
-0.00083424275
5.1949888e-05
-0.00085108903
5.0495297e-05
-0.00086743975
4.9009714e-05
-0.00088328484
4.749391e-05
-0.00089861448
4.5948678e-05
-0.00091341912
4.4374828e-05
-0.00092768948
4.2773191e-05
-0.00094141658
4.1144619e-05
-0.00095459172
3.948998e-05
-0.00096720651
3.7810163e-05
-0.00097925283
3.6106075e-05
-0.0009907229
3.4378641e-05
-0.0010016092
3.2628805e-05
-0.0010119047
3.0857525e-05
-0.0010216025
2.9065782e-05
-0.001030696
2.7254569e-05
-0.0010391792
2.5424898e-05
-0.0010470462
2.3577796e-05
-0.0010542915
2.1714306e-05
-0.0010609101
1.9835486e-05
-0.0010668971
1.7942409e-05
-0.0010722482
1.6036161e-05
-0.0010769593
1.4117843e-05
-0.0010810268
1.2188568e-05
-0.0010844474
1.0249462e-05
-0.0010872183
8.3016621e-06
-0.0010893367
6.3463168e-06
-0.0010908008
4.384584e-06
-0.0010916086
2.4176347e-06
-0.0010917589
4.4665938e-07
-0.0010912507
-1.5271616e-06
-0.0010900834
-3.5026391e-06
-0.0010882569
-5.4785697e-06
-0.0010857715
-7.4537437e-06
-0.0010826277
-9.426946e-06
-0.0010788267
-1.1396957e-05
-0.0010743699
-1.3362555e-05
-0.0010692593
-1.5322511e-05
-0.001063497
-1.7275599e-05
-0.0010570858
-1.9220587e-05
-0.0010500289
-2.1156244e-05
-0.0010423296
-2.3081342e-05
-0.001033992
-2.4994649e-05
-0.0010250204
-2.6894938e-05
-0.0010154196
-2.8780986e-05
-0.0010051946
-3.0651572e-05
-0.00099435113
-3.250548e-05
-0.00098289507
-3.43415e-05
-0.00097083281
-3.6158429e-05
-0.0009581711
-3.7955071e-05
-0.00094491712
-3.973024e-05
-0.00093107842
-4.1482758e-05
-0.00091666294
-4.3211458e-05
-0.00090167902
-4.4915185e-05
-0.00088613537
-4.6592796e-05
-0.00087004106
-4.8243162e-05
-0.00085340558
-4.9865167e-05
-0.00083623873
-5.1457711e-05
-0.00081855072
-5.3019711e-05
-0.00080035208
-5.4550101e-05
-0.00078165372
-5.6047833e-05
-0.00076246687
-5.7511877e-05
-0.00074280311
-5.8941225e-05
-0.00072267433
-6.0334889e-05
-0.00070209278
-6.1691902e-05
-0.00068107099
-6.3011322e-05
-0.0006596218
-6.4292228e-05
-0.00063775838
-6.5533725e-05
-0.00061549415
-6.6734943e-05
-0.00059284284
-6.7895038e-05
-0.00056981844
-6.9013194e-05
-0.00054643521
-7.008862e-05
-0.00052270766
-7.1120557e-05
-0.00049865053
-7.2108272e-05
-0.00047427883
-7.3051065e-05
-0.00044960776
-7.3948263e-05
-0.00042465275
-7.4799228e-05
-0.00039942943
-7.5603351e-05
-0.00037395362
-7.6360058e-05
-0.00034824132
-7.7068806e-05
-0.0003223087
-7.7729086e-05
-0.00029617209
-7.8340424e-05
-0.00026984798
-7.890238e-05
-0.00024335297
-7.941455e-05
-0.0002167038
-7.9876563e-05
-0.00018991732
-8.0288087e-05
-0.00016301046
-8.0648824e-05
-0.00013600027
-8.0958514e-05
-0.00010890386
-8.1216932e-05
-8.1738383e-05
-8.1423892e-05
-5.4521073e-05
-8.1579243e-05
-2.7269184e-05
-8.1682872e-05
-6.0437918e-15
-8.1734706e-05
2.7269184e-05
-8.1734706e-05
5.4521073e-05
-8.1682872e-05
8.1738383e-05
-8.1579243e-05
0.00010890386
-8.1423892e-05
0.00013600027
-8.1216932e-05
0.00016301046
-8.0958514e-05
0.00018991732
-8.0648824e-05
0.0002167038
-8.0288087e-05
0.00024335297
-7.9876563e-05
0.00026984798
-7.941455e-05
0.00029617209
-7.890238e-05
0.0003223087
-7.8340424e-05
0.00034824132
-7.7729086e-05
0.00037395362
-7.7068806e-05
0.00039942943
-7.6360058e-05
0.00042465275
-7.5603351e-05
0.00044960776
-7.4799228e-05
0.00047427883
-7.3948263e-05
0.00049865053
-7.3051065e-05
0.00052270766
-7.2108272e-05
0.00054643521
-7.1120557e-05
0.00056981844
-7.008862e-05
0.00059284284
-6.9013194e-05
0.00061549415
-6.7895038e-05
0.00063775838
-6.6734943e-05
0.0006596218
-6.5533725e-05
0.00068107099
-6.4292228e-05
0.00070209278
-6.3011322e-05
0.00072267433
-6.1691902e-05
0.00074280311
-6.0334889e-05
0.00076246687
-5.8941225e-05
0.00078165372
-5.7511877e-05
0.00080035208
-5.6047833e-05
0.00081855072
-5.4550101e-05
0.00083623873
-5.3019711e-05
0.00085340558
-5.1457711e-05
0.00087004106
-4.9865167e-05
0.00088613537
-4.8243162e-05
0.00090167902
-4.6592796e-05
0.00091666294
-4.4915185e-05
0.00093107842
-4.3211458e-05
0.00094491712
-4.1482758e-05
0.0009581711
-3.973024e-05
0.00097083281
-3.7955071e-05
0.00098289507
-3.6158429e-05
0.00099435113
-3.43415e-05
0.0010051946
-3.250548e-05
0.0010154196
-3.0651572e-05
0.0010250204
-2.8780986e-05
0.001033992
-2.6894938e-05
0.0010423296
-2.4994649e-05
0.0010500289
-2.3081342e-05
0.0010570858
-2.1156244e-05
0.001063497
-1.9220587e-05
0.0010692593
-1.7275599e-05
0.0010743699
-1.5322511e-05
0.0010788267
-1.3362555e-05
0.0010826277
-1.1396957e-05
0.0010857715
-9.426946e-06
0.0010882569
-7.4537437e-06
0.0010900834
-5.4785697e-06
0.0010912507
-3.5026391e-06
0.0010917589
-1.5271616e-06
0.0010916086
4.4665937e-07
0.0010908008
2.4176347e-06
0.0010893367
4.384584e-06
0.0010872183
6.3463168e-06
0.0010844474
8.3016621e-06
0.0010810268
1.0249462e-05
0.0010769593
1.2188568e-05
0.0010722482
1.4117843e-05
0.0010668971
1.6036161e-05
0.0010609101
1.7942409e-05
0.0010542915
1.9835486e-05
0.0010470462
2.1714306e-05
0.0010391792
2.3577796e-05
0.001030696
2.5424898e-05
0.0010216025
2.7254569e-05
0.0010119047
2.9065782e-05
0.0010016092
3.0857525e-05
0.0009907229
3.2628805e-05
0.00097925283
3.4378641e-05
0.00096720651
3.6106075e-05
0.00095459172
3.7810163e-05
0.00094141658
3.948998e-05
0.00092768948
4.1144619e-05
0.00091341912
4.2773191e-05
0.00089861448
4.4374828e-05
0.00088328484
4.5948678e-05
0.00086743975
4.749391e-05
0.00085108903
4.9009714e-05
0.00083424275
5.0495297e-05
0.00081691126
5.1949888e-05
0.00079910515
5.3372735e-05
0.00078083526
5.4763106e-05
0.00076211265
5.612029e-05
0.00074294863
5.7443598e-05
0.00072335472
5.8732359e-05
0.00070334267
5.9985924e-05
0.00068292442
6.1203664e-05
0.00066211213
6.2384973e-05
0.00064091816
6.3529264e-05
0.00061935503
6.4635971e-05
0.00059743547
6.5704551e-05
0.00057517236
6.6734479e-05
0.00055257878
6.7725253e-05
0.00052966794
6.8676392e-05
0.00050645322
6.9587437e-05
0.00048294813
7.0457947e-05
0.00045916635
7.1287506e-05
0.00043512165
7.2075716e-05
0.00041082796
7.2822202e-05
0.00038629932
7.3526608e-05
0.00036154987
7.4188602e-05
0.00033659387
7.4807871e-05
0.00031144565
7.5384122e-05
0.00028611967
7.5917086e-05
0.00026063044
7.6406513e-05
0.00023499256
7.6852173e-05
0.00020922071
7.7253859e-05
0.0001833296
7.7611384e-05
0.00015733402
7.7924582e-05
0.00013124881
7.8193307e-05
0.00010508885
7.8417435e-05
7.886904e-05
7.8596862e-05
5.2604321e-05
7.8731505e-05
2.630965e-05
7.8821301e-05
7.886621e-05
-2.6341301e-05
0.00010520751
-5.2667608e-05
0.00010514761
-7.8963936e-05
0.00010502783
-0.00010521531
0.00010484824
-0.00013140678
0.00010460891
-0.00015752343
0.00010430995
-0.00018355035
0.00010395151
-0.00020947271
0.00010353374
-0.00023527571
0.00010305685
-0.00026094459
0.00010252106
-0.00028646469
0.00010192661
-0.00031182138
0.00010127378
-0.00033700013
0.00010056287
-0.00036198648
9.9794225e-05
-0.00038676608
9.8968199e-05
-0.00041132465
9.8085181e-05
-0.00043564804
9.714559e-05
-0.00045972219
9.6149868e-05
-0.00048353317
9.5098489e-05
-0.00050706718
9.3991955e-05
-0.00053031054
9.2830793e-05
-0.00055324971
9.1615562e-05
-0.0005758713
9.0346846e-05
-0.00059816208
8.9025259e-05
-0.00062010897
8.7651442e-05
-0.00064169907
8.6226066e-05
-0.00066291963
8.4749827e-05
-0.00068375811
8.3223453e-05
-0.00070420214
8.1647696e-05
-0.00072423956
8.002334e-05
-0.00074385839
7.8351193e-05
-0.00076304689
7.6632093e-05
-0.0007817935
7.4866907e-05
-0.00080008692
7.3056526e-05
-0.00081791606
7.1201873e-05
-0.00083527007
6.9303895e-05
-0.00085213834
6.7363567e-05
-0.00086851051
6.5381892e-05
-0.0008843765
6.3359899e-05
-0.00089972647
6.1298644e-05
-0.00091455085
5.9199209e-05
-0.00092884036
5.7062703e-05
-0.000942586
5.4890259e-05
-0.00095577906
5.2683038e-05
-0.00096841112
5.0442223e-05
-0.00098047407
4.8169025e-05
-0.00099196011
4.5864677e-05
-0.0010028617
4.3530438e-05
-0.0010131718
4.1167588e-05
-0.0010228835
3.8777432e-05
-0.0010319902
3.6361297e-05
-0.0010404858
3.3920532e-05
-0.0010483645
3.1456507e-05
-0.0010556208
2.8970612e-05
-0.0010622496
2.646426e-05
-0.0010682461
2.3938881e-05
-0.0010736058
2.1395925e-05
-0.0010783249
1.883686e-05
-0.0010823995
1.626317e-05
-0.0010858264
1.3676357e-05
-0.0010886026
1.1077939e-05
-0.0010907258
8.4694484e-06
-0.0010921936
5.8524316e-06
-0.0010930044
3.2284502e-06
-0.0010931569
5.9908181e-07
-0.0010926499
-2.034092e-06
-0.0010914831
-4.6694802e-06
-0.0010896562
-7.3054791e-06
-0.0010871694
-9.9404755e-06
-0.0010840235
-1.2572849e-05
-0.0010802195
-1.5200973e-05
-0.0010757589
-1.7823216e-05
-0.0010706434
-2.0437941e-05
-0.0010648755
-2.3043509e-05
-0.0010584578
-2.5638278e-05
-0.0010513935
-2.8220608e-05
-0.001043686
-3.0788855e-05
-0.0010353392
-3.334138e-05
-0.0010263576
-3.5876546e-05
-0.0010167459
-3.8392718e-05
-0.0010065092
-4.0888268e-05
-0.00099565309
-4.3361574e-05
-0.00098418357
-4.5811022e-05
-0.00097210699
-4.8235007e-05
-0.00095943013
-5.0631933e-05
-0.00094616015
-5.3000216e-05
-0.00093230462
-5.5338286e-05
-0.00091787149
-5.7644586e-05
-0.00090286911
-5.9917573e-05
-0.00088730618
-6.2155723e-05
-0.00087119181
-6.4357529e-05
-0.00085453548
-6.6521503e-05
-0.00083734701
-6.8646176e-05
-0.00081963662
-7.0730104e-05
-0.00080141486
-7.2771864e-05
-0.00078269263
-7.4770056e-05
-0.0007634812
-7.6723309e-05
-0.00074379215
-7.8630275e-05
-0.0007236374
-8.0489636e-05
-0.0007030292
-8.2300104e-05
-0.00068198011
-8.4060418e-05
-0.00066050298
-8.5769352e-05
-0.000638611
-8.7425711e-05
-0.00061631761
-8.9028333e-05
-0.00059363655
-9.0576094e-05
-0.00057058184
-9.2067902e-05
-0.00054716776
-9.3502704e-05
-0.00052340883
-9.4879485e-05
-0.00049931983
-9.6197269e-05
-0.00047491578
-9.745512e-05
-0.0004502119
-9.8652142e-05
-0.00042522365
-9.9787481e-05
-0.00039996667
-0.00010086033
-0.00037445682
-0.00010186991
-0.00034871011
-0.00010281551
-0.00032274275
-0.00010369645
-0.00029657109
-0.00010451208
-0.00027021164
-0.00010526184
-0.00024368102
-0.00010594517
-0.000216996
-0.00010656158
-0.00019017346
-0.00010711063
-0.00016323036
-0.00010759192
-0.00013618377
-0.00010800511
-0.00010905081
-0.00010834989
-8.1848692e-05
-0.00010862601
-5.4594657e-05
-0.00010883328
-2.730599e-05
-0.00010897154
-6.1815768e-15
-0.0001090407
2.730599e-05
-0.0001090407
5.4594657e-05
-0.00010897154
8.1848692e-05
-0.00010883328
0.00010905081
-0.00010862601
0.00013618377
-0.00010834989
0.00016323036
-0.00010800511
0.00019017346
-0.00010759192
0.000216996
-0.00010711063
0.00024368102
-0.00010656158
0.00027021164
-0.00010594517
0.00029657109
-0.00010526184
0.00032274275
-0.00010451208
0.00034871011
-0.00010369645
0.00037445682
-0.00010281551
0.00039996667
-0.00010186991
0.00042522365
-0.00010086033
0.0004502119
-9.9787481e-05
0.00047491578
-9.8652142e-05
0.00049931983
-9.745512e-05
0.00052340883
-9.6197269e-05
0.00054716776
-9.4879485e-05
0.00057058184
-9.3502704e-05
0.00059363655
-9.2067902e-05
0.00061631761
-9.0576094e-05
0.000638611
-8.9028333e-05
0.00066050298
-8.7425711e-05
0.00068198011
-8.5769352e-05
0.0007030292
-8.4060418e-05
0.0007236374
-8.2300104e-05
0.00074379215
-8.0489636e-05
0.0007634812
-7.8630275e-05
0.00078269263
-7.6723309e-05
0.00080141486
-7.4770056e-05
0.00081963662
-7.2771864e-05
0.00083734701
-7.0730104e-05
0.00085453548
-6.8646176e-05
0.00087119181
-6.6521503e-05
0.00088730618
-6.4357529e-05
0.00090286911
-6.2155723e-05
0.00091787149
-5.9917573e-05
0.00093230462
-5.7644586e-05
0.00094616015
-5.5338286e-05
0.00095943013
-5.3000216e-05
0.00097210699
-5.0631933e-05
0.00098418357
-4.8235007e-05
0.00099565309
-4.5811022e-05
0.0010065092
-4.3361574e-05
0.0010167459
-4.0888268e-05
0.0010263576
-3.8392718e-05
0.0010353392
-3.5876546e-05
0.001043686
-3.334138e-05
0.0010513935
-3.0788855e-05
0.0010584578
-2.8220608e-05
0.0010648755
-2.5638278e-05
0.0010706434
-2.3043509e-05
0.0010757589
-2.0437941e-05
0.0010802195
-1.7823216e-05
0.0010840235
-1.5200973e-05
0.0010871694
-1.2572849e-05
0.0010896562
-9.9404755e-06
0.0010914831
-7.3054791e-06
0.0010926499
-4.6694802e-06
0.0010931569
-2.034092e-06
0.0010930044
5.9908181e-07
0.0010921936
3.2284502e-06
0.0010907258
5.8524316e-06
0.0010886026
8.4694484e-06
0.0010858264
1.1077939e-05
0.0010823995
1.3676357e-05
0.0010783249
1.626317e-05
0.0010736058
1.883686e-05
0.0010682461
2.1395925e-05
0.0010622496
2.3938881e-05
0.0010556208
2.646426e-05
0.0010483645
2.8970612e-05
0.0010404858
3.1456507e-05
0.0010319902
3.3920532e-05
0.0010228835
3.6361297e-05
0.0010131718
3.8777432e-05
0.0010028617
4.1167588e-05
0.00099196011
4.3530438e-05
0.00098047407
4.5864677e-05
0.00096841112
4.8169025e-05
0.00095577906
5.0442223e-05
0.000942586
5.2683038e-05
0.00092884036
5.4890259e-05
0.00091455085
5.7062703e-05
0.00089972647
5.9199209e-05
0.0008843765
6.1298644e-05
0.00086851051
6.3359899e-05
0.00085213834
6.5381892e-05
0.00083527007
6.7363567e-05
0.00081791606
6.9303895e-05
0.00080008692
7.1201873e-05
0.0007817935
7.3056526e-05
0.00076304689
7.4866907e-05
0.00074385839
7.6632093e-05
0.00072423956
7.8351193e-05
0.00070420214
8.002334e-05
0.00068375811
8.1647696e-05
0.00066291963
8.3223453e-05
0.00064169907
8.4749827e-05
0.00062010897
8.6226066e-05
0.00059816208
8.7651442e-05
0.0005758713
8.9025259e-05
0.00055324971
9.0346846e-05
0.00053031054
9.1615562e-05
0.00050706718
9.2830793e-05
0.00048353317
9.3991955e-05
0.00045972219
9.5098489e-05
0.00043564804
9.6149868e-05
0.00041132465
9.714559e-05
0.00038676608
9.8085181e-05
0.00036198648
9.8968199e-05
0.00033700013
9.9794225e-05
0.00031182138
0.00010056287
0.00028646469
0.00010127378
0.00026094459
0.00010192661
0.00023527571
0.00010252106
0.00020947271
0.00010305685
0.00018355035
0.00010353374
0.00015752343
0.00010395151
0.00013140678
0.00010430995
0.00010521531
0.00010460891
7.8963936e-05
0.00010484824
5.2667608e-05