/*--------------------------------*- C++ -*----------------------------------*\
| =========                 |                                                 |
| \\      /  F ield         | OpenFOAM: The Open Source CFD Toolbox           |
|  \\    /   O peration     | Version:  2106                                  |
|   \\  /    A nd           | Website:  www.openfoam.com                      |
|    \\/     M anipulation  |                                                 |
\*---------------------------------------------------------------------------*/
FoamFile
{
    version     2.0;
    format      ascii;
    arch        "LSB;label=32;scalar=64";
    class       volScalarField;
    location    "0.028";
    object      p_rgh;
}
// * * * * * * * * * * * * * * * * * * * * * * * * * * * * * * * * * * * * * //

dimensions      [1 -1 -2 0 0 0 0];

internalField   nonuniform List<scalar> 
1024
(
7.6302223
7.3370547
6.7619659
5.927049
4.864378
3.614777
2.2262025
0.75202667
-0.75110367
-2.2255085
-3.6144968
-4.864675
-5.9279652
-6.7634585
-7.3389983
-7.6324263
-7.6324436
-7.3390494
-6.7635415
-5.9280766
-4.8648106
-3.6146512
-2.2256759
-0.75127744
0.75185311
2.2260358
3.6146235
4.8642435
5.9269386
6.7618838
7.3370042
7.6302052
7.9290276
7.6243744
7.0267565
6.1591345
5.0548395
3.7562904
2.3133446
0.78144221
-0.78059226
-2.3127691
-3.7562032
-5.0554069
-6.1604112
-7.0286943
-7.6268284
-7.9317779
-7.9317959
-7.6268815
-7.0287805
-6.160527
-5.0555478
-3.7563636
-2.3129429
-0.78077263
0.7812621
2.3131716
3.756131
5.0546999
6.1590199
7.0266713
7.624322
7.9290098
8.5228564
8.1953985
7.5530454
6.620475
5.4335087
4.0377317
2.486733
0.84007119
-0.83903129
-2.4860925
-4.0378233
-5.4345642
-6.6225765
-7.5561195
-8.1992279
-8.5271128
-8.5271321
-8.1992851
-7.5562123
-6.622701
-5.4347157
-4.0379957
-2.4862791
-0.83922495
0.83987786
2.4865473
4.0375607
5.4333589
6.620352
7.552954
8.1953421
8.5228373
9.437352
9.0747805
8.3635464
7.330971
6.0167101
4.4712238
2.753833
0.93045246
-0.92893686
-2.7529484
-4.4715032
-6.0185138
-7.3344278
-8.3685374
-9.0809575
-9.444191
-9.4442126
-9.0810211
-8.3686404
-7.334566
-6.0186816
-4.4716941
-2.753155
-0.92915108
0.93023871
2.7536278
4.4710349
6.0165445
7.330835
8.3634452
9.0747181
9.4373308
10.707405
10.296069
9.4891781
8.3177257
6.8266949
5.0733166
3.124865
1.0560801
-1.0536845
-3.1234674
-5.0737622
-6.8295497
-8.3231915
-9.4970637
-10.30582
-10.718188
-10.718213
-10.305893
-9.497181
-8.3233487
-6.8297404
-5.0739789
-3.1237017
-1.0539273
1.0558381
3.1246327
5.0731027
6.8265074
8.3175716
9.4890633
10.295999
10.707381
12.380632
11.905049
10.972131
9.617719
7.8938189
5.8665857
3.6137674
1.2217205
-1.217877
-3.6114735
-5.8671534
-7.8981235
-9.626071
-10.984231
-11.920033
-12.397203
-12.397232
-11.920118
-10.984368
-9.6262536
-7.8983445
-5.8674041
-3.6117443
-1.2181575
1.2214411
3.6134996
5.8663391
7.8936026
9.6175408
10.971998
11.904967
12.380605
14.519923
13.962181
12.86811
11.279758
9.2581302
6.8807986
4.2389032
1.4336346
-1.4276128
-4.2352376
-6.8814836
-9.2644914
-11.292265
-12.886304
-13.984746
-14.544882
-14.544916
-13.984846
-12.886465
-11.29248
-9.2647511
-6.8817779
-4.2355552
-1.4279414
1.4333076
4.2385902
6.8805106
9.2578772
11.279549
12.867953
13.962084
14.51989
17.205672
16.544747
15.248293
13.366185
10.970752
8.1539269
5.0236702
1.6997725
-1.6907136
-5.0181308
-8.1548861
-10.98018
-13.384777
-15.275365
-16.578331
-17.242812
-17.242853
-16.578452
-15.275559
-13.385034
-10.980488
-8.1552349
-5.0185072
-1.6911027
1.699386
5.0233009
8.1535876
10.970453
13.365937
15.248106
16.544631
17.205632
20.538751
19.749695
18.201944
15.955139
13.095722
9.7334942
5.9973204
2.0300549
-2.0169842
-5.9894413
-9.7352048
-13.109904
-15.982813
-18.242104
-19.799435
-20.593707
-20.593758
-19.799583
-18.242339
-15.983123
-13.110273
-9.7356207
-5.9898908
-2.0174488
2.0295945
5.9968825
9.7330927
13.095367
15.954843
18.201719
19.749554
20.538703
24.644317
23.697296
21.839766
19.143483
15.712373
11.678336
7.1960605
2.4368175
-2.4184507
-7.1853894
-11.681688
-15.733938
-19.184773
-21.899328
-23.770873
-24.725493
-24.725557
-23.771057
-21.899618
-19.185149
-15.734379
-11.682185
-7.1859293
-2.4190097
2.4362655
7.1955399
11.677861
15.711951
19.143125
21.839491
23.697122
24.644257
29.676523
28.535685
26.298085
23.05046
18.91833
14.060864
8.6645245
2.9354245
-2.9094905
-8.6496616
-14.066509
-18.95073
-23.111728
-26.386133
-28.644287
-29.796196
-29.79628
-28.64452
-26.386495
-23.11219
-18.951258
-14.067101
-8.6503132
-2.9101689
2.9347581
8.6639064
14.060306
18.917828
23.050025
26.297743
28.535465
29.676446
35.823841
34.445983
31.743609
27.82196
22.833469
16.970508
10.458359
3.5463209
-3.5052366
-10.433575
-16.976213
-22.879093
-27.910628
-31.872088
-34.605034
-35.999126
-35.999238
-34.605338
-31.872549
-27.911202
-22.879718
-16.976908
-10.434364
-3.5060714
3.5455077
10.457629
16.969865
22.832876
27.821425
31.743174
34.445698
35.823741
43.319119
41.651988
38.382444
33.638749
27.606405
20.51772
12.645871
4.2951134
-4.2217036
-12.59655
-20.513876
-27.662764
-33.76064
-38.565025
-41.881159
-43.57327
-43.573427
-41.881569
-38.565628
-33.761366
-27.663488
-20.514666
-12.597511
-4.2227566
4.2941014
12.645024
20.517011
27.605715
33.638083
38.381874
41.651604
43.31898
52.47556
50.455075
46.492417
40.744144
33.437264
24.852431
15.321094
5.2186849
-5.0762435
-15.21543
-24.817052
-33.49384
-40.900243
-46.740518
-50.773352
-52.831431
-52.831667
-50.77393
-46.741328
-40.901198
-33.494636
-24.817875
-15.216609
-5.077635
5.2173751
15.320141
24.851727
33.436478
40.743289
46.491636
50.454532
52.475359
63.662084
61.213658
56.406143
49.431568
40.569759
30.156523
18.592369
6.3572319
-6.1098731
-18.399383
-30.062372
-40.605464
-49.609671
-56.717819
-61.629211
-64.135831
-64.136205
-61.630078
-56.718962
-49.610978
-40.606251
-30.063061
-18.400863
-6.1118873
6.3554292
18.591377
30.155999
40.568895
49.430406
56.405006
61.212847
63.661775
76.254337
73.312165
67.538747
59.167962
48.545558
36.080851
22.261888
7.6985176
-7.0189137
-21.074603
-33.948525
-45.175755
-54.453468
-61.579455
-66.398125
-68.823755
-68.824237
-66.399155
-61.580752
-54.454876
-45.176445
-33.949033
-21.076193
-7.0214614
7.6961375
22.260838
36.080544
48.544703
59.166555
67.537204
73.310976
76.253862
-68.622376
-66.205265
-61.402615
-54.299034
-45.049489
-33.855418
-21.018125
-7.0011405
7.6767663
22.201278
35.983717
48.415848
59.010583
67.359872
73.119216
76.054553
76.055095
73.120397
67.36135
59.012182
48.416653
35.984289
22.202975
7.679374
-6.9988532
-21.017163
-33.855191
-45.048765
-54.297807
-61.401275
-66.204211
-68.621984
-63.927059
-61.429118
-56.534137
-49.449119
-40.474237
-29.965585
-18.340517
-6.0910509
6.3350414
18.52988
30.05598
40.435352
49.268682
56.220727
61.013358
63.454312
63.45466
61.014186
56.22184
49.269954
40.436123
30.056668
18.531341
6.337018
-6.0892469
-18.339554
-29.965089
-40.473375
-49.447951
-56.532938
-61.428259
-63.926747
-52.607594
-50.55853
-46.543048
-40.727535
-33.352541
-24.7126
-15.151704
-5.0556704
5.1952268
15.254433
24.745038
33.293444
40.569491
46.293563
50.239854
52.252157
52.252379
50.240412
46.294353
40.570421
33.294225
24.745852
15.255609
5.1966086
-5.0543669
-15.150768
-24.711908
-33.351758
-40.726672
-46.542235
-50.557961
-52.607391
-43.325709
-41.643411
-38.346256
-33.569191
-27.505987
-20.397791
-12.525556
-4.1985255
4.2695433
12.572481
20.399297
27.447567
33.445611
38.162439
41.413623
43.071535
43.071685
41.41402
38.163026
33.44632
27.448277
20.400076
12.573435
4.2705893
-4.1975201
-12.524718
-20.397087
-27.505297
-33.568517
-38.345671
-41.643014
-43.325567
-35.718389
-34.335309
-31.623752
-27.6932
-22.700921
-16.844142
-10.35265
-3.4785697
3.517681
10.375469
16.836521
22.653551
27.603027
31.494096
34.175487
35.542755
35.542863
34.175782
31.494546
27.603587
22.654165
16.837205
10.376249
3.5185079
-3.4777642
-10.351929
-16.843505
-22.70033
-27.692662
-31.623311
-34.335018
-35.718286
-29.472335
-28.33304
-26.099472
-22.86066
-18.744899
-13.913826
-8.5559745
-2.8784031
2.9026922
8.5691904
13.906562
18.710986
22.798035
26.010283
28.223566
29.352088
29.352168
28.223792
26.010636
22.798486
18.711503
13.907143
8.5698321
2.9033614
-2.8777454
-8.5553645
-13.913274
-18.744401
-22.860225
-26.099128
-28.332818
-29.472257
-24.348318
-23.408326
-21.565347
-18.892192
-15.493998
-11.503602
-7.0759906
-2.381957
2.3989779
7.085311
11.498895
15.471108
18.849643
21.504637
23.33376
24.266358
24.26642
23.333938
21.504919
18.850009
15.471539
11.499381
7.0858404
2.3995266
-2.3814146
-7.0754786
-11.503134
-15.49358
-18.891836
-21.565073
-23.408152
-24.348257
-20.138603
-19.361908
-17.838955
-15.629523
-12.820042
-9.5199076
-5.8569974
-1.9725173
1.9848177
5.8640059
9.5171385
12.80456
15.6003
17.797044
19.310314
20.081833
20.081882
19.310458
17.797273
15.600602
12.804919
9.5175447
5.8644457
1.9852729
-1.9720662
-5.8565677
-9.5195129
-12.819692
-15.62923
-17.838732
-19.361768
-20.138555
-16.510344
-15.874301
-14.627013
-12.81715
-10.515155
-7.8103161
-4.8071544
-1.6212623
1.625188
4.8082425
7.8061706
10.504194
12.798817
14.601872
15.843969
16.477243
16.477281
15.844079
14.602049
12.799051
10.504475
7.8064881
4.8085852
1.6255423
-1.6209098
-4.8068177
-7.8100065
-10.514882
-12.816923
-14.626841
-15.874194
-16.510307
-14.711804
-14.144994
-13.033433
-11.420419
-9.3686582
-6.9577036
-4.2807607
-1.4409906
1.452588
4.2889176
6.9595748
9.3624182
11.405496
13.010565
14.116103
14.679703
14.679739
14.116211
13.010739
11.405728
9.3626988
6.9598935
4.2892624
1.4529455
-1.4406351
-4.2804195
-6.957389
-9.3683813
-11.42019
-13.033262
-14.144888
-14.711768
-9.6283619
-9.2583918
-8.5327221
-7.4793583
-6.1388993
-4.5629225
-2.8119612
-0.95319841
0.94206523
2.8014386
4.55351
6.1309275
7.4729233
8.5276867
9.2544219
9.6249804
9.6249978
9.2544731
8.5277691
7.4730329
6.1310595
4.553659
2.8015988
0.94223054
-0.95303336
-2.8118035
-4.5627777
-6.1387722
-7.4792535
-8.5326437
-9.2583432
-9.6283454
-13.813286
-13.281118
-12.237439
-10.722801
-8.795988
-6.5316567
-4.0173678
-1.3500785
1.3677766
4.0316906
6.5397119
8.7958152
10.713728
12.220166
13.257599
13.786426
13.786463
13.257709
12.220344
10.713968
8.7961072
6.5400447
4.0320514
1.3681517
-1.3497046
-4.0170082
-6.5313247
-8.7956963
-10.722561
-12.23726
-13.281008
-13.813249
-1.2241796
-1.1783853
-1.0883993
-0.95736987
-0.78990881
-0.59196203
-0.37064411
-0.13407267
0.10874198
0.34864025
0.57611394
0.78210607
0.95827537
1.0973437
1.193475
1.2425877
1.2425819
1.1934578
1.0973154
0.95823666
0.78205806
0.57605817
0.34857869
0.10867715
-0.13413717
-0.37070678
-0.59202051
-0.78996057
-0.95741259
-1.0884312
-1.1784049
-1.2241862
-18.599116
-17.882745
-16.477752
-14.438629
-11.844391
-8.7954404
-5.409595
-1.8174595
1.8428911
5.4309137
8.8092381
11.848303
14.431868
16.461157
17.858658
18.571025
18.571076
17.858809
16.461402
14.432198
11.848705
8.8096971
5.431412
1.8434094
-1.8169425
-5.4090974
-8.7949812
-11.843988
-14.438298
-16.477506
-17.882593
-18.599065
10.916043
10.494452
9.6677594
8.4683386
6.9430802
5.1514773
3.1632233
1.0553787
-1.0911017
-3.1936391
-5.1721295
-6.9510001
-8.462493
-9.6492172
-10.466218
-10.8826
-10.882636
-10.466324
-9.6493906
-8.4627268
-6.9512855
-5.1724559
-3.1939943
-1.0914721
1.0550109
3.162869
5.1511497
6.9427921
8.4681016
9.6675829
10.494343
10.916006
-29.583203
-28.444586
-26.211324
-22.96978
-18.845226
-13.996932
-8.6118863
-2.8977004
2.9259136
8.6356344
14.012507
18.850128
22.963158
26.194088
28.419275
29.553597
29.553673
28.419501
26.194455
22.963651
18.850729
14.013193
8.6363791
2.926689
-2.8969287
-8.6111434
-13.996246
-18.844625
-22.969286
-26.210956
-28.444359
-29.583127
)
;

boundaryField
{
    leftWall
    {
        type            cyclic;
    }
    rightWall
    {
        type            cyclic;
    }
    lowerWall
    {
        type            fixedFluxPressure;
        gradient        uniform 0;
        value           nonuniform List<scalar> 
32
(
7.6302223
7.3370547
6.7619659
5.927049
4.864378
3.614777
2.2262025
0.75202667
-0.75110367
-2.2255085
-3.6144968
-4.864675
-5.9279652
-6.7634585
-7.3389983
-7.6324263
-7.6324436
-7.3390494
-6.7635415
-5.9280766
-4.8648106
-3.6146512
-2.2256759
-0.75127744
0.75185311
2.2260358
3.6146235
4.8642435
5.9269386
6.7618838
7.3370042
7.6302052
)
;
    }
    atmosphere
    {
        type            totalPressure;
        rho             rho;
        psi             none;
        gamma           1;
        p0              uniform 0;
        value           nonuniform List<scalar> 
32
(
-5.6113074e-06
-4.9251453e-05
-0.00013012245
-0.0002363197
-0.00035213245
-0.00046029949
-0.0005445368
-0.00059189642
0
0
0
0
0
0
0
0
0
0
0
0
0
0
0
0
-0.00059189316
-0.00054452592
-0.00046028239
-0.00035211174
-0.00023629863
-0.00013010439
-4.9239302e-05
-5.6070361e-06
)
;
    }
    defaultFaces
    {
        type            empty;
    }
}


// ************************************************************************* //
