/*--------------------------------*- C++ -*----------------------------------*\
| =========                 |                                                 |
| \\      /  F ield         | OpenFOAM: The Open Source CFD Toolbox           |
|  \\    /   O peration     | Version:  2306                                  |
|   \\  /    A nd           | Website:  www.openfoam.com                      |
|    \\/     M anipulation  |                                                 |
\*---------------------------------------------------------------------------*/
FoamFile
{
    version     2.0;
    format      ascii;
    arch        "LSB;label=32;scalar=64";
    class       surfaceScalarField;
    location    "0.41";
    object      phi_0;
}
// * * * * * * * * * * * * * * * * * * * * * * * * * * * * * * * * * * * * * //

dimensions      [0 3 -1 0 0 0 0];

oriented        oriented;

internalField   nonuniform List<scalar> 
12640
(
1.9820665e-08
-2.7540977e-07
8.0084102e-08
-8.2191472e-07
1.7490047e-07
-1.3822493e-06
2.9139631e-07
-1.9779697e-06
4.0888718e-07
-2.6365711e-06
5.021752e-07
-3.3756721e-06
5.4551743e-07
-4.2012568e-06
5.1454402e-07
-5.1112179e-06
3.8870323e-07
-6.0961836e-06
1.5192845e-07
-7.1405901e-06
-2.059623e-07
-8.2252595e-06
-6.9356545e-07
-9.3251181e-06
-1.308706e-06
-1.0416617e-05
-2.0458991e-06
-1.1477539e-05
-2.8963828e-06
-1.2484185e-05
-3.8474259e-06
-1.3415907e-05
-4.8843812e-06
-1.4254079e-05
-5.990575e-06
-1.4983251e-05
-7.1474321e-06
-1.5591688e-05
-8.3369329e-06
-1.6069944e-05
-9.540886e-06
-1.6412624e-05
-1.0741573e-05
-1.6616899e-05
-1.1922622e-05
-1.6682836e-05
-1.3068804e-05
-1.6613017e-05
-1.4166555e-05
-1.641204e-05
-1.520393e-05
-1.6086375e-05
-1.6170691e-05
-1.5643879e-05
-1.7058334e-05
-1.5093527e-05
-1.7860058e-05
-1.4445203e-05
-1.857069e-05
-1.3709367e-05
-1.9186594e-05
-1.28968e-05
-1.9705562e-05
-1.201842e-05
-2.0126695e-05
-1.1085097e-05
-2.0450277e-05
-1.0107496e-05
-2.0677648e-05
-9.0959512e-06
-2.0811078e-05
-8.0603619e-06
-2.085364e-05
-7.0101084e-06
-2.0809095e-05
-5.9539868e-06
-2.0681775e-05
-4.9001613e-06
-2.0476477e-05
-3.8561304e-06
-2.0198359e-05
-2.8287047e-06
-1.9852857e-05
-1.8239936e-06
-1.9445527e-05
-8.4744325e-07
-1.898239e-05
9.6431463e-08
-1.8468888e-05
1.0027359e-06
-1.791091e-05
1.8688783e-06
-1.7314115e-05
2.691789e-06
-1.6684051e-05
3.469242e-06
-1.6026098e-05
4.1995567e-06
-1.534543e-05
4.8815703e-06
-1.4646983e-05
5.5145986e-06
-1.3935436e-05
6.0983965e-06
-1.3215183e-05
6.6331162e-06
-1.2490323e-05
7.1192688e-06
-1.1764651e-05
7.5576838e-06
-1.1041648e-05
7.9494689e-06
-1.0324483e-05
8.2959722e-06
-9.6160114e-06
8.5987455e-06
-8.9187805e-06
8.8595095e-06
-8.2350376e-06
9.0801198e-06
-7.5667388e-06
9.2625365e-06
-6.9155618e-06
9.4087936e-06
-6.2829189e-06
9.5209744e-06
-5.6699737e-06
9.6011856e-06
-5.077655e-06
9.6515344e-06
-4.5066745e-06
9.6741114e-06
-3.957548e-06
9.6709749e-06
-3.430607e-06
9.6441301e-06
-2.9260206e-06
9.5955219e-06
-2.4438203e-06
9.5270253e-06
-1.9838956e-06
9.4404332e-06
-1.5460171e-06
9.3374424e-06
-1.1299121e-06
9.2197014e-06
-7.35113e-07
9.0886868e-06
-3.6124291e-07
8.9458945e-06
-7.7903457e-09
8.7926179e-06
3.2614604e-07
8.6300938e-06
6.407683e-07
8.4596068e-06
9.3678734e-07
8.2820509e-06
8.0984537e-06
1.2135173e-08
-2.8754495e-07
4.9173148e-08
-8.5895269e-07
1.0689299e-07
-1.4399691e-06
1.7571167e-07
-2.0467884e-06
2.4001177e-07
-2.7008712e-06
2.8057321e-07
-3.4162335e-06
2.7718658e-07
-4.1978702e-06
2.1041411e-07
-5.0444454e-06
6.3902566e-08
-5.9496721e-06
-1.7623163e-07
-6.9004559e-06
-5.2106958e-07
-7.8804216e-06
-9.7502366e-07
-8.871164e-06
-1.5373274e-06
-9.8543136e-06
-2.2053937e-06
-1.0809473e-05
-2.9719783e-06
-1.1717601e-05
-3.8276831e-06
-1.2560202e-05
-4.7601398e-06
-1.3321622e-05
-5.7550499e-06
-1.3988341e-05
-6.7977397e-06
-1.4548998e-05
-7.8722195e-06
-1.4995464e-05
-8.9628247e-06
-1.5322019e-05
-1.0054252e-05
-1.5525472e-05
-1.113184e-05
-1.5605248e-05
-1.2182028e-05
-1.5562829e-05
-1.3192434e-05
-1.5401634e-05
-1.4152057e-05
-1.5126752e-05
-1.5051314e-05
-1.4744622e-05
-1.5882091e-05
-1.4262751e-05
-1.6637748e-05
-1.3689546e-05
-1.731308e-05
-1.3034035e-05
-1.7904244e-05
-1.2305636e-05
-1.8408686e-05
-1.1513979e-05
-1.8825042e-05
-1.0668741e-05
-1.9153046e-05
-9.7794923e-06
-1.9393414e-05
-8.8555835e-06
-1.9547741e-05
-7.9060349e-06
-1.9618394e-05
-6.9394556e-06
-1.9608405e-05
-5.9639759e-06
-1.9521371e-05
-4.9871949e-06
-1.9361359e-05
-4.016143e-06
-1.9132809e-05
-3.0572546e-06
-1.8840452e-05
-2.1163505e-06
-1.8489256e-05
-1.1986387e-06
-1.8084145e-05
-3.086796e-07
-1.7630734e-05
5.4932479e-07
-1.7133819e-05
1.3719634e-06
-1.6598616e-05
2.1565856e-06
-1.6030196e-05
2.9008218e-06
-1.5433494e-05
3.6028555e-06
-1.4813283e-05
4.2613588e-06
-1.4174137e-05
4.8754526e-06
-1.3520413e-05
5.4446726e-06
-1.2856229e-05
5.9689321e-06
-1.2185446e-05
6.4484864e-06
-1.1511661e-05
6.883898e-06
-1.0838192e-05
7.276e-06
-1.0168082e-05
7.6258619e-06
-9.5040922e-06
7.934756e-06
-8.8487087e-06
8.204126e-06
-8.2041443e-06
8.4355555e-06
-7.5723475e-06
8.6307396e-06
-6.9550109e-06
8.791457e-06
-6.3535834e-06
8.919547e-06
-5.7692829e-06
9.016885e-06
-5.2031093e-06
9.0853608e-06
-4.6558588e-06
9.1268609e-06
-4.1281424e-06
9.1432582e-06
-3.6203938e-06
9.1363816e-06
-3.1328945e-06
9.1080228e-06
-2.665787e-06
9.0599176e-06
-2.2190787e-06
8.9937249e-06
-1.7926838e-06
8.9110474e-06
-1.3864003e-06
8.8134179e-06
-9.9994287e-07
8.7022295e-06
-6.3296693e-07
8.5789186e-06
-2.8507671e-07
8.4447275e-06
4.4288534e-08
8.3007287e-06
3.5548887e-07
8.1484064e-06
6.4908242e-07
7.9884574e-06
7.8219163e-06
6.3319264e-09
-2.9387687e-07
2.5827939e-08
-8.7844871e-07
5.5447702e-08
-1.4695889e-06
8.8004578e-08
-2.0793453e-06
1.1164229e-07
-2.7245089e-06
1.1151396e-07
-3.4161052e-06
7.2219452e-08
-4.1585757e-06
-2.1430114e-08
-4.9507958e-06
-1.8496247e-07
-5.7861398e-06
-4.2930991e-07
-6.6561085e-06
-7.6203224e-07
-7.5476992e-06
-1.1868177e-06
-8.4463785e-06
-1.7053001e-06
-9.3358312e-06
-2.3150643e-06
-1.0199708e-05
-3.0113015e-06
-1.1021363e-05
-3.7854921e-06
-1.1786011e-05
-4.6281152e-06
-1.2478999e-05
-5.5273791e-06
-1.3089077e-05
-6.4705034e-06
-1.3605874e-05
-7.4441638e-06
-1.4021804e-05
-8.4348581e-06
-1.4331324e-05
-9.4290743e-06
-1.4531255e-05
-1.0413958e-05
-1.4620364e-05
-1.1377346e-05
-1.4599441e-05
-1.2308051e-05
-1.447093e-05
-1.3195995e-05
-1.4238807e-05
-1.403228e-05
-1.3908337e-05
-1.4809244e-05
-1.3485787e-05
-1.5520498e-05
-1.2978292e-05
-1.6160903e-05
-1.239363e-05
-1.6726525e-05
-1.1740014e-05
-1.7214583e-05
-1.1025921e-05
-1.7623376e-05
-1.0259947e-05
-1.7952206e-05
-9.4506628e-06
-1.8201285e-05
-8.6065045e-06
-1.837165e-05
-7.7356702e-06
-1.8465067e-05
-6.8460381e-06
-1.8483944e-05
-5.945099e-06
-1.8431237e-05
-5.0399019e-06
-1.8310367e-05
-4.137013e-06
-1.8125135e-05
-3.2424866e-06
-1.7879644e-05
-2.3618417e-06
-1.7578231e-05
-1.5000518e-06
-1.7225352e-05
-6.6155837e-07
-1.6825865e-05
1.4983794e-07
-1.6384132e-05
9.3023054e-07
-1.5904904e-05
1.6773577e-06
-1.5392774e-05
2.3886916e-06
-1.4852252e-05
3.0623336e-06
-1.4287724e-05
3.6968303e-06
-1.3703417e-05
4.2911465e-06
-1.3103382e-05
4.8446368e-06
-1.2491462e-05
5.3570125e-06
-1.1871286e-05
5.8283103e-06
-1.1246249e-05
6.2588607e-06
-1.0619505e-05
6.6492561e-06
-9.9939632e-06
7.0003201e-06
-9.3722831e-06
7.313076e-06
-8.7568761e-06
7.588719e-06
-8.1499079e-06
7.8285872e-06
-7.5533037e-06
8.0341355e-06
-6.968756e-06
8.2069093e-06
-6.3977332e-06
8.3485243e-06
-5.8414901e-06
8.4606421e-06
-5.3010784e-06
8.5449491e-06
-4.7773622e-06
8.6031447e-06
-4.2710243e-06
8.6369204e-06
-3.7825919e-06
8.647949e-06
-3.3124379e-06
8.6378686e-06
-2.8607935e-06
8.6082733e-06
-2.4277829e-06
8.5607143e-06
-2.0134068e-06
8.4966713e-06
-1.6175801e-06
8.4175912e-06
-1.2401475e-06
8.3247967e-06
-8.8080836e-07
8.2195795e-06
-5.392983e-07
8.1032174e-06
-2.1530753e-07
7.9767379e-06
9.1731394e-08
7.8413675e-06
3.8209431e-07
7.6980943e-06
7.5477284e-06
1.9184641e-09
-2.9579534e-07
8.1934819e-09
-8.8472373e-07
1.6539082e-08
-1.4779345e-06
2.1641502e-08
-2.0844477e-06
1.4434561e-08
-2.717302e-06
-1.6175679e-08
-3.385495e-06
-8.3648758e-08
-4.0911026e-06
-2.0024305e-07
-4.8342016e-06
-3.7638602e-07
-5.6099968e-06
-6.2133262e-07
-6.4111619e-06
-9.4204819e-07
-7.2269837e-06
-1.3425063e-06
-8.0459204e-06
-1.8235676e-06
-8.8547699e-06
-2.384112e-06
-9.639164e-06
-3.0196404e-06
-1.0385835e-05
-3.7243311e-06
-1.108132e-05
-4.4894283e-06
-1.1713902e-05
-5.3056268e-06
-1.2272878e-05
-6.1620805e-06
-1.274942e-05
-7.0473578e-06
-1.3136526e-05
-7.9497173e-06
-1.3428965e-05
-8.8574878e-06
-1.3623485e-05
-9.7592725e-06
-1.3718579e-05
-1.0644278e-05
-1.3714436e-05
-1.1502409e-05
-1.3612798e-05
-1.2324473e-05
-1.3416743e-05
-1.3102263e-05
-1.3130547e-05
-1.3828607e-05
-1.2759442e-05
-1.4497424e-05
-1.2309476e-05
-1.5103713e-05
-1.178734e-05
-1.564354e-05
-1.1200187e-05
-1.6113993e-05
-1.0555468e-05
-1.6513135e-05
-9.8608048e-06
-1.6839939e-05
-9.1238595e-06
-1.7094216e-05
-8.3522274e-06
-1.7276544e-05
-7.553342e-06
-1.7388187e-05
-6.734395e-06
-1.7431017e-05
-5.9022685e-06
-1.7407438e-05
-5.0634816e-06
-1.7320304e-05
-4.224147e-06
-1.7172851e-05
-3.3899393e-06
-1.6968623e-05
-2.5660695e-06
-1.6711406e-05
-1.7572691e-06
-1.640517e-05
-9.677941e-07
-1.6053981e-05
-2.0135086e-07
-1.5662204e-05
5.3845354e-07
-1.5233821e-05
1.2489748e-06
-1.4773042e-05
1.9279122e-06
-1.4283987e-05
2.5732792e-06
-1.3770682e-05
3.1835249e-06
-1.3237026e-05
3.7574903e-06
-1.2686771e-05
4.294382e-06
-1.21235e-05
4.7937418e-06
-1.1550611e-05
5.255421e-06
-1.09713e-05
5.6795498e-06
-1.0388555e-05
6.0665111e-06
-9.8051471e-06
6.4169121e-06
-9.2236262e-06
6.7315551e-06
-8.646321e-06
7.0114138e-06
-8.0753392e-06
7.2576054e-06
-7.5125708e-06
7.471367e-06
-6.9596947e-06
7.6540331e-06
-6.4181839e-06
7.8070135e-06
-5.8893137e-06
7.9317718e-06
-5.374175e-06
8.0298104e-06
-4.8736797e-06
8.1026494e-06
-4.3885743e-06
8.1518149e-06
-3.9194504e-06
8.1788252e-06
-3.4667609e-06
8.1851791e-06
-3.0308283e-06
8.1723408e-06
-2.6118548e-06
8.1417408e-06
-2.209943e-06
8.0947595e-06
-1.8250793e-06
8.0327276e-06
-1.4572045e-06
7.9569218e-06
-1.1061787e-06
7.8685537e-06
-7.7172417e-07
7.7687629e-06
-4.5368264e-07
7.6586964e-06
-1.5159526e-07
7.5392802e-06
1.3489275e-07
7.4116063e-06
7.2766082e-06
-1.4039058e-09
-2.9439143e-07
-5.1078761e-09
-8.8101975e-07
-1.2977599e-08
-1.4700648e-06
-2.8724059e-08
-2.0687012e-06
-5.9191894e-08
-2.6868342e-06
-1.1405861e-07
-3.3306283e-06
-2.0252905e-07
-4.0026322e-06
-3.3467218e-07
-4.7020584e-06
-5.1925328e-07
-5.4254157e-06
-7.6385289e-07
-6.1665623e-06
-1.0737341e-06
-6.9171024e-06
-1.4524276e-06
-7.667227e-06
-1.901407e-06
-8.4057905e-06
-2.4192146e-06
-9.1213564e-06
-3.0030095e-06
-9.8020401e-06
-3.6472839e-06
-1.0437046e-05
-4.3454366e-06
-1.1015749e-05
-5.0893365e-06
-1.1528979e-05
-5.8698848e-06
-1.1968872e-05
-6.6773701e-06
-1.2329041e-05
-7.5015918e-06
-1.2604743e-05
-8.3323707e-06
-1.2792706e-05
-9.1597092e-06
-1.2891241e-05
-9.9739681e-06
-1.2900177e-05
-1.0766099e-05
-1.2820667e-05
-1.1527747e-05
-1.2655095e-05
-1.225138e-05
-1.2406915e-05
-1.293033e-05
-1.2080491e-05
-1.3558857e-05
-1.1680949e-05
-1.4132156e-05
-1.1214042e-05
-1.4646354e-05
-1.0685989e-05
-1.5098487e-05
-1.0103335e-05
-1.5486462e-05
-9.4728299e-06
-1.5809009e-05
-8.801312e-06
-1.6065628e-05
-8.095609e-06
-1.6256522e-05
-7.3624479e-06
-1.6382537e-05
-6.6083794e-06
-1.6445094e-05
-5.8397123e-06
-1.6446116e-05
-5.0624596e-06
-1.6387967e-05
-4.2822956e-06
-1.6273385e-05
-3.5045217e-06
-1.6105414e-05
-2.7340402e-06
-1.5887348e-05
-1.9753354e-06
-1.5622677e-05
-1.2324648e-06
-1.5314985e-05
-5.0904262e-07
-1.4968239e-05
1.9170709e-07
-1.4585941e-05
8.6667751e-07
-1.4171938e-05
1.5139085e-06
-1.3729974e-05
2.1313158e-06
-1.3263733e-05
2.7172836e-06
-1.2776801e-05
3.2705586e-06
-1.2272647e-05
3.7902279e-06
-1.1754601e-05
4.2756954e-06
-1.1225835e-05
4.7266549e-06
-1.0689351e-05
5.1430666e-06
-1.0147971e-05
5.5251311e-06
-9.6043258e-06
5.8732666e-06
-9.0608509e-06
6.1880802e-06
-8.5197855e-06
6.4703483e-06
-7.9831707e-06
6.7209907e-06
-7.4528521e-06
6.9410485e-06
-6.9304825e-06
7.1316636e-06
-6.4175269e-06
7.2940579e-06
-5.9152712e-06
7.4295162e-06
-5.4248272e-06
7.5393664e-06
-4.9471433e-06
7.6249655e-06
-4.4830137e-06
7.6876853e-06
-4.0330873e-06
7.7288988e-06
-3.5978787e-06
7.7499705e-06
-3.177777e-06
7.7522393e-06
-2.7730656e-06
7.7370292e-06
-2.3839174e-06
7.7056113e-06
-2.0104076e-06
7.6592177e-06
-1.6525563e-06
7.5990706e-06
-1.3102762e-06
7.5262736e-06
-9.8344916e-07
7.4419359e-06
-6.7185677e-07
7.347104e-06
-3.7532142e-07
7.2427449e-06
-9.3498731e-08
7.1297835e-06
7.0091381e-06
-3.8007549e-09
-2.9059068e-07
-1.4953524e-08
-8.6986699e-07
-3.4699288e-08
-1.450319e-06
-6.6059345e-08
-2.0373412e-06
-1.1446821e-07
-2.6384253e-06
-1.8681685e-07
-3.2582796e-06
-2.9099119e-07
-3.8984578e-06
-4.34449e-07
-4.5586006e-06
-6.2429882e-07
-5.2355658e-06
-8.6678118e-07
-5.9240799e-06
-1.1662922e-06
-6.6175914e-06
-1.5257715e-06
-7.3077477e-06
-1.9463559e-06
-7.9852061e-06
-2.4272158e-06
-8.6404965e-06
-2.9656169e-06
-9.263639e-06
-3.5575934e-06
-9.8450695e-06
-4.1973101e-06
-1.0376032e-05
-4.8780206e-06
-1.0848268e-05
-5.5919832e-06
-1.1254909e-05
-6.3307733e-06
-1.1590251e-05
-7.0857248e-06
-1.1849792e-05
-7.8479111e-06
-1.203052e-05
-8.6084809e-06
-1.2130671e-05
-9.358902e-06
-1.2149756e-05
-1.0091055e-05
-1.2088514e-05
-1.0797388e-05
-1.1948763e-05
-1.1471006e-05
-1.1733297e-05
-1.2105745e-05
-1.1445752e-05
-1.2696223e-05
-1.1090471e-05
-1.3237867e-05
-1.0672398e-05
-1.3726916e-05
-1.019694e-05
-1.4160409e-05
-9.6698414e-06
-1.4536165e-05
-9.0970737e-06
-1.4852744e-05
-8.4847339e-06
-1.5109402e-05
-7.838951e-06
-1.5306046e-05
-7.1658039e-06
-1.5443176e-05
-6.4712488e-06
-1.5521831e-05
-5.7610572e-06
-1.5543528e-05
-5.0407633e-06
-1.5510202e-05
-4.3156212e-06
-1.5424154e-05
-3.5905698e-06
-1.5287988e-05
-2.8702061e-06
-1.510456e-05
-2.1587639e-06
-1.4876924e-05
-1.4601e-06
-1.4608266e-05
-7.7770095e-07
-1.4302027e-05
-1.1453224e-07
-1.3961509e-05
5.2615999e-07
-1.3590088e-05
1.1424874e-06
-1.3191176e-05
1.7324037e-06
-1.2768136e-05
2.2942437e-06
-1.2324261e-05
2.8266839e-06
-1.1862753e-05
3.3287191e-06
-1.1386696e-05
3.7996391e-06
-1.0899049e-05
4.2390082e-06
-1.0402624e-05
4.6466411e-06
-9.9000756e-06
5.0225828e-06
-9.3938946e-06
5.3670855e-06
-8.8864008e-06
5.6805864e-06
-8.3797388e-06
5.9636863e-06
-7.8758768e-06
6.2171286e-06
-7.3766068e-06
6.4417784e-06
-6.8835468e-06
6.6386035e-06
-6.3981451e-06
6.8086561e-06
-5.921684e-06
6.9530551e-06
-5.4552875e-06
7.07297e-06
-4.9999276e-06
7.1696056e-06
-4.5564317e-06
7.2441894e-06
-4.1254937e-06
7.2979607e-06
-3.7076764e-06
7.3321532e-06
-3.3034335e-06
7.3479962e-06
-2.9131025e-06
7.3466983e-06
-2.5369266e-06
7.3294355e-06
-2.1750672e-06
7.2973582e-06
-1.8275756e-06
7.2515789e-06
-1.4944749e-06
7.193173e-06
-1.1756911e-06
7.123152e-06
-8.7112999e-07
7.0425429e-06
-5.8058365e-07
6.9521987e-06
-3.0388769e-07
6.8530875e-06
6.7459921e-06
-5.6165348e-09
-2.8497414e-07
-2.227032e-08
-8.532132e-07
-5.0885795e-08
-1.4217035e-06
-9.3772735e-08
-1.9944542e-06
-1.5512688e-07
-2.5770711e-06
-2.4041712e-07
-3.1729894e-06
-3.5549134e-07
-3.7833836e-06
-5.0652844e-07
-4.4075635e-06
-6.992893e-07
-5.042805e-06
-9.3839406e-07
-5.6849752e-06
-1.2277003e-06
-6.3282851e-06
-1.5696314e-06
-6.9658167e-06
-1.964929e-06
-7.5899085e-06
-2.4130935e-06
-8.192332e-06
-2.9119501e-06
-8.7647824e-06
-3.4579269e-06
-9.2990928e-06
-4.046457e-06
-9.7875024e-06
-4.6716283e-06
-1.0223097e-05
-5.3268329e-06
-1.0599704e-05
-6.0049687e-06
-1.0912115e-05
-6.698355e-06
-1.1156405e-05
-7.3992516e-06
-1.1329623e-05
-8.0998938e-06
-1.1430029e-05
-8.7926861e-06
-1.1456964e-05
-9.4703618e-06
-1.1410838e-05
-1.0126099e-05
-1.1293025e-05
-1.0753613e-05
-1.1105783e-05
-1.1347226e-05
-1.0852139e-05
-1.1901922e-05
-1.0535775e-05
-1.2413381e-05
-1.016094e-05
-1.2877986e-05
-9.7323349e-06
-1.3292828e-05
-9.2549995e-06
-1.3655687e-05
-8.734215e-06
-1.3965008e-05
-8.1754126e-06
-1.421987e-05
-7.5840893e-06
-1.4419943e-05
-6.9657309e-06
-1.4565446e-05
-6.3257456e-06
-1.4657098e-05
-5.669405e-06
-1.4696069e-05
-5.0017927e-06
-1.4683926e-05
-4.3277633e-06
-1.4622589e-05
-3.651907e-06
-1.4514274e-05
-2.9785219e-06
-1.4361445e-05
-2.3115928e-06
-1.416677e-05
-1.6547748e-06
-1.3933084e-05
-1.0113865e-06
-1.3663247e-05
-3.8436992e-07
-1.3360595e-05
2.2350867e-07
-1.3027903e-05
8.0979508e-07
-1.2668308e-05
1.3728087e-06
-1.2284882e-05
1.9108184e-06
-1.1880645e-05
2.4224468e-06
-1.1458543e-05
2.9066165e-06
-1.1021431e-05
3.3625275e-06
-1.0572059e-05
3.7896362e-06
-1.0113054e-05
4.187636e-06
-9.6469095e-06
4.5564383e-06
-9.175977e-06
4.8961531e-06
-8.7024577e-06
5.2070672e-06
-8.2283992e-06
5.4896277e-06
-7.7556916e-06
5.744421e-06
-7.2860681e-06
5.9721548e-06
-6.8211043e-06
6.1736398e-06
-6.3622217e-06
6.3497736e-06
-5.9106914e-06
6.5015247e-06
-5.4676382e-06
6.6299169e-06
-5.0340476e-06
6.7360149e-06
-4.610771e-06
6.8209129e-06
-4.1985328e-06
6.8857225e-06
-3.797941e-06
6.9315615e-06
-3.4094909e-06
6.9595462e-06
-3.0335724e-06
6.9707798e-06
-2.6704872e-06
6.9663503e-06
-2.3204471e-06
6.9473182e-06
-1.9835911e-06
6.9147228e-06
-1.6599789e-06
6.8695607e-06
-1.3496244e-06
6.8127975e-06
-1.052427e-06
6.7453455e-06
-7.6834321e-07
6.6681149e-06
-4.9719313e-07
6.5819374e-06
6.487601e-06
-6.9422741e-09
-2.7803187e-07
-2.7603765e-08
-8.3255171e-07
-6.2656955e-08
-1.3866503e-06
-1.1389764e-07
-1.9432136e-06
-1.8456615e-07
-2.5064026e-06
-2.7886058e-07
-3.0786949e-06
-4.0143396e-07
-3.6608102e-06
-5.5716716e-07
-4.2518303e-06
-7.5040596e-07
-4.8495662e-06
-9.8513022e-07
-5.4502509e-06
-1.2643484e-06
-6.0490669e-06
-1.5898463e-06
-6.6403187e-06
-1.9624582e-06
-7.2172966e-06
-2.3815415e-06
-7.7732486e-06
-2.845322e-06
-8.3010019e-06
-3.3508819e-06
-8.7935329e-06
-3.8941837e-06
-9.2442007e-06
-4.4702656e-06
-9.6470148e-06
-5.0735481e-06
-9.9964219e-06
-5.6977555e-06
-1.0287908e-05
-6.336303e-06
-1.0517858e-05
-6.9823884e-06
-1.0683538e-05
-7.6291611e-06
-1.0783256e-05
-8.2698934e-06
-1.0816231e-05
-8.8980784e-06
-1.0782653e-05
-9.5075617e-06
-1.0683542e-05
-1.0092628e-05
-1.0520716e-05
-1.0648066e-05
-1.0296701e-05
-1.1169222e-05
-1.0014619e-05
-1.1652036e-05
-9.6781252e-06
-1.2093063e-05
-9.2913079e-06
-1.2489474e-05
-8.8585881e-06
-1.2839053e-05
-8.384636e-06
-1.3140178e-05
-7.8742878e-06
-1.3391797e-05
-7.3324698e-06
-1.35934e-05
-6.7641288e-06
-1.3744975e-05
-6.1741698e-06
-1.3846979e-05
-5.5674009e-06
-1.3900287e-05
-4.9484848e-06
-1.3906152e-05
-4.3218986e-06
-1.3866159e-05
-3.6918996e-06
-1.3782184e-05
-3.0624977e-06
-1.3656344e-05
-2.4374328e-06
-1.349096e-05
-1.820159e-06
-1.3288514e-05
-1.2138317e-06
-1.3051566e-05
-6.2131819e-07
-1.2783141e-05
-4.4916303e-08
-1.2485588e-05
5.1224171e-07
-1.216186e-05
1.0490808e-06
-1.1814727e-05
1.5636852e-06
-1.1446945e-05
2.0546654e-06
-1.1061222e-05
2.5208935e-06
-1.0660194e-05
2.9614994e-06
-1.0246411e-05
3.3758529e-06
-9.8223217e-06
3.763547e-06
-9.3902635e-06
4.1243802e-06
-8.9524494e-06
4.4583391e-06
-8.5109634e-06
4.7655813e-06
-8.0677536e-06
5.0464179e-06
-7.6246296e-06
5.3012969e-06
-7.1832596e-06
5.5307849e-06
-6.7451718e-06
5.7355519e-06
-6.3117545e-06
5.9163563e-06
-5.8842589e-06
6.0740293e-06
-5.4638031e-06
6.2094611e-06
-5.0513761e-06
6.3235879e-06
-4.6478436e-06
6.4173804e-06
-4.2539534e-06
6.4918323e-06
-3.870343e-06
6.5479511e-06
-3.4975446e-06
6.5867478e-06
-3.1359941e-06
6.6092292e-06
-2.7860381e-06
6.616394e-06
-2.4479404e-06
6.6092205e-06
-2.1218828e-06
6.5886653e-06
-1.8079879e-06
6.5556658e-06
-1.5063102e-06
6.5111197e-06
-1.2168652e-06
6.4559004e-06
-9.3959335e-07
6.390843e-06
-6.7439629e-07
6.3167405e-06
6.2343812e-06
-7.8850009e-09
-2.7014687e-07
-3.1391794e-08
-8.0904491e-07
-7.1010422e-08
-1.3470317e-06
-1.2811632e-07
-1.8861077e-06
-2.0520931e-07
-2.4293096e-06
-3.0556651e-07
-2.9783377e-06
-4.3282505e-07
-3.5335517e-06
-5.9077851e-07
-4.0938769e-06
-7.8293123e-07
-4.6574135e-06
-1.0123652e-06
-5.2208169e-06
-1.2813997e-06
-5.7800325e-06
-1.591596e-06
-6.3301224e-06
-1.943416e-06
-6.8654766e-06
-2.3363765e-06
-7.3802881e-06
-2.7688843e-06
-7.8684941e-06
-3.2384837e-06
-8.3239334e-06
-3.7416417e-06
-8.7410427e-06
-4.2742352e-06
-9.1144213e-06
-4.8313168e-06
-9.4393403e-06
-5.4074856e-06
-9.7117392e-06
-5.9970299e-06
-9.9283136e-06
-6.5939615e-06
-1.0086606e-05
-7.1922494e-06
-1.0184968e-05
-7.7858944e-06
-1.0222586e-05
-8.3690914e-06
-1.0199456e-05
-8.9362917e-06
-1.0116342e-05
-9.4823059e-06
-9.9747023e-06
-1.0002361e-05
-9.776646e-06
-1.0492155e-05
-9.5248253e-06
-1.0947892e-05
-9.2223875e-06
-1.136631e-05
-8.8728898e-06
-1.1744686e-05
-8.4802127e-06
-1.2080836e-05
-8.0484859e-06
-1.2373108e-05
-7.5820157e-06
-1.2620363e-05
-7.0852151e-06
-1.282195e-05
-6.5625419e-06
-1.2977678e-05
-6.0184413e-06
-1.3087785e-05
-5.4572937e-06
-1.31529e-05
-4.8833702e-06
-1.3174005e-05
-4.3007938e-06
-1.3152399e-05
-3.7135058e-06
-1.3089658e-05
-3.1252389e-06
-1.2987596e-05
-2.5394944e-06
-1.2848229e-05
-1.9595256e-06
-1.2673738e-05
-1.3883228e-06
-1.246645e-05
-8.2860659e-07
-1.222859e-05
-2.8277625e-07
-1.1963102e-05
2.4675423e-07
-1.1672109e-05
7.5808685e-07
-1.1358211e-05
1.2497878e-06
-1.1023937e-05
1.7203912e-06
-1.0671772e-05
2.1687281e-06
-1.0304146e-05
2.5938735e-06
-9.9234215e-06
2.9951286e-06
-9.5318779e-06
3.3720034e-06
-9.1316989e-06
3.7242011e-06
-8.7249641e-06
4.0516043e-06
-8.3136404e-06
4.3542576e-06
-7.8995768e-06
4.6323544e-06
-7.4844993e-06
4.8862194e-06
-7.0700094e-06
5.116295e-06
-6.6575821e-06
5.3231246e-06
-6.2485671e-06
5.5073413e-06
-5.8441897e-06
5.6696517e-06
-5.4455532e-06
5.8108247e-06
-5.0536435e-06
5.9316782e-06
-4.6693322e-06
6.033069e-06
-4.2933819e-06
6.1158821e-06
-3.9264518e-06
6.181021e-06
-3.5691023e-06
6.2293983e-06
-3.2218048e-06
6.2619318e-06
-2.8849431e-06
6.2795323e-06
-2.5588212e-06
6.2830987e-06
-2.2436698e-06
6.2735138e-06
-1.9396627e-06
6.2516588e-06
-1.6469008e-06
6.218358e-06
-1.3654234e-06
6.1744228e-06
-1.0952543e-06
6.1206741e-06
-8.3634402e-07
6.0578302e-06
5.9866461e-06
-8.5262294e-09
-2.6162064e-07
-3.3973852e-08
-7.8359729e-07
-7.6700745e-08
-1.3043048e-06
-1.3775527e-07
-1.8250531e-06
-2.1904558e-07
-2.3480193e-06
-3.2311322e-07
-2.8742701e-06
-4.5284752e-07
-3.4038174e-06
-6.1109964e-07
-3.9356247e-06
-8.0074751e-07
-4.4677656e-06
-1.0241261e-06
-4.9974383e-06
-1.2830639e-06
-5.5210947e-06
-1.5787578e-06
-6.0344285e-06
-1.9114474e-06
-6.532787e-06
-2.280715e-06
-7.0110206e-06
-2.6851705e-06
-7.4640386e-06
-3.1225639e-06
-7.88654e-06
-3.5899642e-06
-8.2736424e-06
-4.0836988e-06
-8.6206867e-06
-4.5995382e-06
-8.9235009e-06
-5.1327954e-06
-9.178482e-06
-5.6784127e-06
-9.3826963e-06
-6.2311665e-06
-9.5338523e-06
-6.7857086e-06
-9.6304259e-06
-7.3367153e-06
-9.6715797e-06
-7.8789839e-06
-9.6571876e-06
-8.4075214e-06
-9.5878042e-06
-8.9176177e-06
-9.4646059e-06
-9.4049108e-06
-9.2893529e-06
-9.8654333e-06
-9.0643028e-06
-1.0295652e-05
-8.7921686e-06
-1.0692493e-05
-8.4760491e-06
-1.1053353e-05
-8.1193528e-06
-1.1376106e-05
-7.725733e-06
-1.1659097e-05
-7.2990243e-06
-1.1901133e-05
-6.8431796e-06
-1.210146e-05
-6.3622148e-06
-1.2259746e-05
-5.8601554e-06
-1.237605e-05
-5.3409894e-06
-1.2450795e-05
-4.8086252e-06
-1.2484734e-05
-4.2668548e-06
-1.2478918e-05
-3.7193215e-06
-1.2434663e-05
-3.1694939e-06
-1.2353514e-05
-2.6206436e-06
-1.2237212e-05
-2.0758279e-06
-1.2087658e-05
-1.5378761e-06
-1.1906884e-05
-1.0093803e-06
-1.1696971e-05
-4.9268952e-07
-1.1460464e-05
1.0247325e-08
-1.1199236e-05
4.9685894e-07
-1.0915728e-05
9.662798e-07
-1.0612219e-05
1.4168817e-06
-1.029098e-05
1.8474891e-06
-9.9542476e-06
2.257141e-06
-9.6042045e-06
2.6450855e-06
-9.2429669e-06
3.0107657e-06
-8.8725725e-06
3.3538067e-06
-8.4949698e-06
3.6740018e-06
-8.1120125e-06
3.9713002e-06
-7.7254495e-06
4.2457914e-06
-7.3369236e-06
4.4976935e-06
-6.9479662e-06
4.7273376e-06
-6.5599966e-06
4.935155e-06
-6.1743211e-06
5.1216659e-06
-5.7921338e-06
5.2874645e-06
-5.4145177e-06
5.4332087e-06
-5.042449e-06
5.5596093e-06
-4.6767979e-06
5.667418e-06
-4.3183345e-06
5.7574188e-06
-3.9677319e-06
5.8304183e-06
-3.6255742e-06
5.8872406e-06
-3.292355e-06
5.9287126e-06
-2.9684903e-06
5.9556677e-06
-2.6543213e-06
5.9689297e-06
-2.3501217e-06
5.9693143e-06
-2.0560885e-06
5.9576256e-06
-1.7723771e-06
5.9346464e-06
-1.4990904e-06
5.9011361e-06
-1.2362521e-06
5.8578358e-06
-9.8389807e-07
5.8054761e-06
5.7446903e-06
-8.9357634e-09
-2.5268487e-07
-3.5625891e-08
-7.5690717e-07
-8.0315485e-08
-1.2596152e-06
-1.4378822e-07
-1.7615804e-06
-2.2752834e-07
-2.2642792e-06
-3.3349458e-07
-2.7683039e-06
-4.6391484e-07
-3.2733971e-06
-6.2108605e-07
-3.7784535e-06
-8.0710902e-07
-4.2817426e-06
-1.023865e-06
-4.7806824e-06
-1.2727805e-06
-5.2721792e-06
-1.5546156e-06
-5.7525933e-06
-1.8696398e-06
-6.2177628e-06
-2.2172484e-06
-6.663412e-06
-2.5962664e-06
-7.0850206e-06
-3.0047092e-06
-7.4780973e-06
-3.4399752e-06
-7.8383764e-06
-3.8989169e-06
-8.161745e-06
-4.3777958e-06
-8.4446221e-06
-4.872515e-06
-8.6837628e-06
-5.3786631e-06
-8.8765482e-06
-5.8916022e-06
-9.0209132e-06
-6.4066051e-06
-9.115423e-06
-6.9189348e-06
-9.15925e-06
-7.423929e-06
-9.1521934e-06
-7.9170921e-06
-9.0946412e-06
-8.394152e-06
-8.9875459e-06
-8.8511267e-06
-8.8323783e-06
-9.2843661e-06
-8.6310634e-06
-9.6905899e-06
-8.3859449e-06
-1.0066914e-05
-8.0997254e-06
-1.0410865e-05
-7.7754015e-06
-1.072039e-05
-7.4162076e-06
-1.0993856e-05
-7.0255591e-06
-1.1230038e-05
-6.6069976e-06
-1.1428112e-05
-6.1641401e-06
-1.1587637e-05
-5.7006311e-06
-1.1708527e-05
-5.220099e-06
-1.1791035e-05
-4.7261175e-06
-1.1835719e-05
-4.2221704e-06
-1.1843419e-05
-3.7116217e-06
-1.1815223e-05
-3.19769e-06
-1.175244e-05
-2.6834267e-06
-1.1656569e-05
-2.1716988e-06
-1.1529271e-05
-1.6651741e-06
-1.1372342e-05
-1.1663094e-06
-1.1187683e-05
-6.7734824e-07
-1.0977207e-05
-2.0022837e-07
-1.0743198e-05
2.6284948e-07
-1.0487493e-05
7.1057465e-07
-1.021222e-05
1.1416088e-06
-9.9194649e-06
1.5547342e-06
-9.6112841e-06
1.9489602e-06
-9.2896918e-06
2.3234932e-06
-8.95665e-06
2.6777239e-06
-8.614056e-06
3.0112127e-06
-8.2637332e-06
3.3236788e-06
-7.9074225e-06
3.6149896e-06
-7.5467764e-06
3.8851454e-06
-7.1833531e-06
4.1342701e-06
-6.8186131e-06
4.3625976e-06
-6.4539177e-06
4.5704595e-06
-6.0905264e-06
4.7582746e-06
-5.7295981e-06
4.9265361e-06
-5.3721911e-06
5.0758017e-06
-5.019265e-06
5.2066833e-06
-4.6716843e-06
5.3198372e-06
-4.3302201e-06
5.4159545e-06
-3.9955542e-06
5.4957527e-06
-3.6682815e-06
5.5599678e-06
-3.3489205e-06
5.6093516e-06
-3.037909e-06
5.6446561e-06
-2.7356173e-06
5.666638e-06
-2.4423461e-06
5.6760431e-06
-2.1583366e-06
5.6736161e-06
-1.8837701e-06
5.66008e-06
-1.6187819e-06
5.6361479e-06
-1.3634679e-06
5.6025218e-06
-1.1178385e-06
5.5598467e-06
5.5087897e-06
-9.1623825e-09
-2.4352249e-07
-3.6544992e-08
-7.2952456e-07
-8.2313438e-08
-1.2138468e-06
-1.4704564e-07
-1.6968482e-06
-2.3188555e-07
-2.1794393e-06
-3.383433e-07
-2.6618461e-06
-4.6812783e-07
-3.1436126e-06
-6.2297194e-07
-3.6236094e-06
-8.0458989e-07
-4.1001247e-06
-1.0143106e-06
-4.5709617e-06
-1.2532397e-06
-5.0332501e-06
-1.5219231e-06
-5.4839099e-06
-1.8203994e-06
-5.9192865e-06
-2.1481262e-06
-6.3356852e-06
-2.5039826e-06
-6.729164e-06
-2.8862013e-06
-7.0958786e-06
-3.2925071e-06
-7.4320707e-06
-3.7200788e-06
-7.7341732e-06
-4.1656944e-06
-7.9990065e-06
-4.6257186e-06
-8.2237387e-06
-5.0962565e-06
-8.4060103e-06
-5.5732202e-06
-8.5439494e-06
-6.0524117e-06
-8.6362315e-06
-6.5295961e-06
-8.6820657e-06
-7.0006002e-06
-8.6811892e-06
-7.4613688e-06
-8.6338726e-06
-7.9080318e-06
-8.5408829e-06
-8.3369558e-06
-8.4034543e-06
-8.7447869e-06
-8.2232323e-06
-9.1284867e-06
-8.0022451e-06
-9.4853584e-06
-7.7428535e-06
-9.8130643e-06
-7.4476956e-06
-1.0109635e-05
-7.1196368e-06
-1.0373473e-05
-6.7617213e-06
-1.0603347e-05
-6.3771234e-06
-1.0798386e-05
-5.9691008e-06
-1.0958065e-05
-5.5409527e-06
-1.1082185e-05
-5.0959791e-06
-1.1170856e-05
-4.6374458e-06
-1.1224476e-05
-4.1685507e-06
-1.1243701e-05
-3.6923972e-06
-1.1229423e-05
-3.2119679e-06
-1.1182745e-05
-2.7301045e-06
-1.1104953e-05
-2.2494905e-06
-1.0997491e-05
-1.7726363e-06
-1.0861932e-05
-1.3018687e-06
-1.0699955e-05
-8.3932456e-07
-1.0513254e-05
-3.8692925e-07
-1.030394e-05
5.3535201e-08
-1.0073617e-05
4.8025183e-07
-9.8242367e-06
8.9222828e-07
-9.5576975e-06
1.2881951e-06
-9.2758848e-06
1.6671475e-06
-8.9806554e-06
2.0282639e-06
-8.6738249e-06
2.3708933e-06
-8.357157e-06
2.6945449e-06
-8.0323546e-06
2.9988764e-06
-7.7010503e-06
3.2836852e-06
-7.3648008e-06
3.5488958e-06
-7.0250812e-06
3.7945506e-06
-6.6832812e-06
4.0207975e-06
-6.3407017e-06
4.22788e-06
-5.9985534e-06
4.4161264e-06
-5.6579568e-06
4.5859393e-06
-5.3199415e-06
4.7377865e-06
-4.9854472e-06
4.8721891e-06
-4.6553263e-06
4.9897164e-06
-4.3303455e-06
5.0909737e-06
-4.0111894e-06
5.1765965e-06
-3.6984633e-06
5.2472417e-06
-3.3926961e-06
5.3035844e-06
-3.0943475e-06
5.3463075e-06
-2.8038051e-06
5.3760955e-06
-2.5214007e-06
5.3936386e-06
-2.2474019e-06
5.3996173e-06
-1.9820254e-06
5.3947035e-06
-1.7254368e-06
5.3795594e-06
-1.4777376e-06
5.3548226e-06
-1.2390293e-06
5.3211384e-06
5.279104e-06
-9.2486491e-09
-2.3427384e-07
-3.6900976e-08
-7.0187223e-07
-8.3062192e-08
-1.1676856e-06
-1.4815642e-07
-1.631754e-06
-2.3304434e-07
-2.0945514e-06
-3.3888458e-07
-2.5560059e-06
-4.6698035e-07
-3.0155168e-06
-6.1867464e-07
-3.4719151e-06
-7.9519708e-07
-3.9236022e-06
-9.9763839e-07
-4.3685204e-06
-1.2266899e-06
-4.8041986e-06
-1.4827749e-06
-5.2278248e-06
-1.7657613e-06
-5.6363002e-06
-2.0751183e-06
-6.0263282e-06
-2.4097652e-06
-6.3945171e-06
-2.7681238e-06
-6.73752e-06
-3.1481613e-06
-7.0520331e-06
-3.5473748e-06
-7.3349597e-06
-3.9629157e-06
-7.5834656e-06
-4.3915736e-06
-7.7950808e-06
-4.8299044e-06
-7.9676795e-06
-5.2742759e-06
-8.099578e-06
-5.7209429e-06
-8.1895644e-06
-6.1661318e-06
-8.2368768e-06
-6.6060918e-06
-8.2412292e-06
-7.0371652e-06
-8.2027992e-06
-7.4558425e-06
-8.1222056e-06
-7.8588105e-06
-8.0004862e-06
-8.2429906e-06
-7.8390522e-06
-8.6055733e-06
-7.6396624e-06
-8.9440438e-06
-7.4043831e-06
-9.2562001e-06
-7.1355393e-06
-9.540164e-06
-6.8356728e-06
-9.7943858e-06
-6.5074995e-06
-1.0017644e-05
-6.1538651e-06
-1.020904e-05
-5.777705e-06