/*--------------------------------*- C++ -*----------------------------------*\
| =========                 |                                                 |
| \\      /  F ield         | OpenFOAM: The Open Source CFD Toolbox           |
|  \\    /   O peration     | Version:  2106                                  |
|   \\  /    A nd           | Website:  www.openfoam.com                      |
|    \\/     M anipulation  |                                                 |
\*---------------------------------------------------------------------------*/
FoamFile
{
    version     2.0;
    format      ascii;
    arch        "LSB;label=32;scalar=64";
    class       surfaceScalarField;
    location    "0.048";
    object      phi_0;
}
// * * * * * * * * * * * * * * * * * * * * * * * * * * * * * * * * * * * * * //

dimensions      [0 3 -1 0 0 0 0];

oriented        oriented;

internalField   nonuniform List<scalar> 
130560
(
-1.9455864e-06
1.9455863e-06
-3.8900316e-06
1.9444453e-06
-5.8321954e-06
1.9421638e-06
-7.7709385e-06
1.938743e-06
-9.7051234e-06
1.9341849e-06
-1.1633615e-05
1.9284918e-06
-1.3555282e-05
1.9216668e-06
-1.5468996e-05
1.9137136e-06
-1.7373632e-05
1.9046364e-06
-1.9268072e-05
1.8944401e-06
-2.1151202e-05
1.8831301e-06
-2.3021915e-05
1.8707127e-06
-2.4879109e-05
1.8571943e-06
-2.6721692e-05
1.8425824e-06
-2.8548576e-05
1.8268847e-06
-3.0358686e-05
1.8101099e-06
-3.2150953e-05
1.7922668e-06
-3.3924318e-05
1.7733653e-06
-3.5677734e-05
1.7534154e-06
-3.7410162e-05
1.7324282e-06
-3.9120577e-05
1.7104148e-06
-4.0807964e-05
1.6873874e-06
-4.2471323e-05
1.6633586e-06
-4.4109664e-05
1.6383413e-06
-4.5722013e-05
1.6123493e-06
-4.730741e-05
1.5853968e-06
-4.8864909e-05
1.5574987e-06
-5.0393579e-05
1.5286702e-06
-5.1892506e-05
1.4989273e-06
-5.3360793e-05
1.4682864e-06
-5.4797557e-05
1.4367644e-06
-5.6201936e-05
1.4043789e-06
-5.7573084e-05
1.3711477e-06
-5.8910173e-05
1.3370895e-06
-6.0212396e-05
1.3022231e-06
-6.1478964e-05
1.2665682e-06
-6.2709109e-05
1.2301447e-06
-6.3902082e-05
1.1929731e-06
-6.5057157e-05
1.1550744e-06
-6.6173627e-05
1.1164698e-06
-6.7250808e-05
1.0771813e-06
-6.8288039e-05
1.0372312e-06
-6.9284681e-05
9.966421e-07
-7.0240118e-05
9.5543727e-07
-7.1153759e-05
9.1364021e-07
-7.2025033e-05
8.7127488e-07
-7.2853399e-05
8.2836561e-07
-7.3638336e-05
7.8493712e-07
-7.4379351e-05
7.4101447e-07
-7.5075974e-05
6.9662311e-07
-7.5727763e-05
6.5178879e-07
-7.63343e-05
6.0653759e-07
-7.6895196e-05
5.6089592e-07
-7.7410087e-05
5.1489047e-07
-7.7878635e-05
4.6854821e-07
-7.8300531e-05
4.2189639e-07
-7.8675494e-05
3.749625e-07
-7.9003268e-05
3.2777429e-07
-7.9283628e-05
2.8035969e-07
-7.9516374e-05
2.3274688e-07
-7.9701339e-05
1.8496421e-07
-7.9838379e-05
1.3704019e-07
-7.9927382e-05
8.900343e-08
-7.9968265e-05
4.0882849e-08
-7.9960973e-05
-7.2924377e-09
-7.9905479e-05
-5.5493706e-08
-7.9801787e-05
-1.0369168e-07
-7.964993e-05
-1.5185716e-07
-7.9449969e-05
-1.999609e-07
-7.9201996e-05
-2.4797358e-07
-7.890613e-05
-2.9586592e-07
-7.8562521e-05
-3.436086e-07
-7.8171349e-05
-3.9117236e-07
-7.7732821e-05
-4.3852794e-07
-7.7247175e-05
-4.8564618e-07
-7.6714677e-05
-5.3249797e-07
-7.6135622e-05
-5.7905432e-07
-7.5510336e-05
-6.2528634e-07
-7.4839171e-05
-6.7116529e-07
-7.4122508e-05
-7.1666259e-07
-7.3360758e-05
-7.6174983e-07
-7.255436e-05
-8.0639879e-07
-7.1703778e-05
-8.5058147e-07
-7.0809508e-05
-8.9427011e-07
-6.9872071e-05
-9.374372e-07
-6.8892015e-05
-9.8005551e-07
-6.7869917e-05
-1.0220981e-06
-6.6806379e-05
-1.0635383e-06
-6.5702029e-05
-1.1043499e-06
-6.4557522e-05
-1.1445069e-06
-6.3373539e-05
-1.1839837e-06
-6.2150783e-05
-1.2227551e-06
-6.0889987e-05
-1.2607963e-06
-5.9591904e-05
-1.2980831e-06
-5.8257313e-05
-1.3345914e-06
-5.6887015e-05
-1.3702979e-06
-5.5481835e-05
-1.4051795e-06
-5.4042622e-05
-1.4392137e-06
-5.2570243e-05
-1.4723786e-06
-5.106559e-05
-1.5046528e-06
-4.9529575e-05
-1.5360153e-06
-4.7963129e-05
-1.5664459e-06
-4.6367204e-05
-1.5959247e-06
-4.4742771e-05
-1.6244327e-06
-4.309082e-05
-1.6519512e-06
-4.1412358e-05
-1.6784623e-06
-3.9708409e-05
-1.7039487e-06
-3.7980015e-05
-1.7283938e-06
-3.6228234e-05
-1.7517817e-06
-3.4454137e-05
-1.7740969e-06
-3.2658812e-05
-1.7953248e-06
-3.084336e-05
-1.8154517e-06
-2.9008896e-05
-1.8344642e-06
-2.7156546e-05
-1.8523498e-06
-2.528745e-05
-1.8690968e-06
-2.3402756e-05
-1.8846942e-06
-2.1503624e-05
-1.8991317e-06
-1.9591224e-05
-1.9123998e-06
-1.7666734e-05
-1.9244897e-06
-1.5731341e-05
-1.9353935e-06
-1.3786237e-05
-1.945104e-06
-1.1832622e-05
-1.9536148e-06
-9.8717018e-06
-1.9609202e-06
-7.9046864e-06
-1.9670154e-06
-5.9327899e-06
-1.9718965e-06
-3.9572299e-06
-1.9755601e-06
-1.9792261e-06
-1.9780038e-06
3.2299925e-15
-1.9792261e-06
1.9792261e-06
-1.9792261e-06
3.9572299e-06
-1.9780038e-06
5.93279e-06
-1.9755601e-06
7.9046864e-06
-1.9718965e-06
9.8717018e-06
-1.9670154e-06
1.1832622e-05
-1.9609202e-06
1.3786237e-05
-1.9536148e-06
1.5731341e-05
-1.945104e-06
1.7666734e-05
-1.9353935e-06
1.9591224e-05
-1.9244897e-06
2.1503624e-05
-1.9123998e-06
2.3402756e-05
-1.8991317e-06
2.528745e-05
-1.8846942e-06
2.7156546e-05
-1.8690968e-06
2.9008896e-05
-1.8523498e-06
3.084336e-05
-1.8344642e-06
3.2658812e-05
-1.8154517e-06
3.4454137e-05
-1.7953248e-06
3.6228234e-05
-1.7740969e-06
3.7980015e-05
-1.7517817e-06
3.9708409e-05
-1.7283938e-06
4.1412358e-05
-1.7039487e-06
4.309082e-05
-1.6784623e-06
4.4742771e-05
-1.6519512e-06
4.6367204e-05
-1.6244327e-06
4.7963129e-05
-1.5959247e-06
4.9529575e-05
-1.5664459e-06
5.106559e-05
-1.5360153e-06
5.2570243e-05
-1.5046528e-06
5.4042622e-05
-1.4723786e-06
5.5481835e-05
-1.4392137e-06
5.6887015e-05
-1.4051795e-06
5.8257313e-05
-1.3702979e-06
5.9591904e-05
-1.3345914e-06
6.0889987e-05
-1.2980831e-06
6.2150783e-05
-1.2607963e-06
6.3373539e-05
-1.2227551e-06
6.4557522e-05
-1.1839837e-06
6.5702029e-05
-1.1445069e-06
6.6806379e-05
-1.1043499e-06
6.7869917e-05
-1.0635383e-06
6.8892015e-05
-1.0220981e-06
6.9872071e-05
-9.8005551e-07
7.0809508e-05
-9.374372e-07
7.1703778e-05
-8.9427011e-07
7.255436e-05
-8.5058147e-07
7.3360758e-05
-8.0639879e-07
7.4122508e-05
-7.6174983e-07
7.4839171e-05
-7.1666259e-07
7.5510336e-05
-6.7116529e-07
7.6135622e-05
-6.2528634e-07
7.6714677e-05
-5.7905432e-07
7.7247175e-05
-5.3249797e-07
7.7732821e-05
-4.8564618e-07
7.8171349e-05
-4.3852794e-07
7.8562521e-05
-3.9117236e-07
7.890613e-05
-3.436086e-07
7.9201996e-05
-2.9586592e-07
7.9449969e-05
-2.4797358e-07
7.964993e-05
-1.9996089e-07
7.9801787e-05
-1.5185716e-07
7.9905479e-05
-1.0369168e-07
7.9960973e-05
-5.5493706e-08
7.9968265e-05
-7.2924373e-09
7.9927382e-05
4.0882849e-08
7.9838379e-05
8.900343e-08
7.9701339e-05
1.3704019e-07
7.9516374e-05
1.8496421e-07
7.9283628e-05
2.3274688e-07
7.9003268e-05
2.8035969e-07
7.8675494e-05
3.2777429e-07
7.8300531e-05
3.749625e-07
7.7878635e-05
4.2189639e-07
7.7410087e-05
4.6854821e-07
7.6895196e-05
5.1489047e-07
7.63343e-05
5.6089592e-07
7.5727763e-05
6.0653759e-07
7.5075974e-05
6.5178879e-07
7.4379351e-05
6.9662311e-07
7.3638336e-05
7.4101447e-07
7.2853399e-05
7.8493712e-07
7.2025033e-05
8.2836561e-07
7.1153759e-05
8.7127488e-07
7.0240118e-05
9.1364021e-07
6.9284681e-05
9.5543727e-07
6.8288039e-05
9.9664211e-07
6.7250808e-05
1.0372312e-06
6.6173627e-05
1.0771813e-06
6.5057157e-05
1.1164698e-06
6.3902082e-05
1.1550744e-06
6.2709109e-05
1.1929731e-06
6.1478964e-05
1.2301447e-06
6.0212396e-05
1.2665682e-06
5.8910173e-05
1.3022231e-06
5.7573084e-05
1.3370895e-06
5.6201936e-05
1.3711477e-06
5.4797557e-05
1.4043789e-06
5.3360793e-05
1.4367644e-06
5.1892506e-05
1.4682864e-06
5.0393579e-05
1.4989273e-06
4.8864909e-05
1.5286702e-06
4.730741e-05
1.5574987e-06
4.5722013e-05
1.5853968e-06
4.4109664e-05
1.6123493e-06
4.2471323e-05
1.6383413e-06
4.0807964e-05
1.6633586e-06
3.9120577e-05
1.6873874e-06
3.7410162e-05
1.7104148e-06
3.5677734e-05
1.7324282e-06
3.3924318e-05
1.7534154e-06
3.2150953e-05
1.7733653e-06
3.0358686e-05
1.7922668e-06
2.8548576e-05
1.8101099e-06
2.6721692e-05
1.8268847e-06
2.4879109e-05
1.8425824e-06
2.3021915e-05
1.8571943e-06
2.1151202e-05
1.8707127e-06
1.9268072e-05
1.8831301e-06
1.7373632e-05
1.8944401e-06
1.5468996e-05
1.9046364e-06
1.3555282e-05
1.9137136e-06
1.1633615e-05
1.9216668e-06
9.7051234e-06
1.9284918e-06
7.7709385e-06
1.9341849e-06
5.8321954e-06
1.938743e-06
3.8900316e-06
1.9421638e-06
1.9455863e-06
1.9444453e-06
1.9455863e-06
-1.9469394e-06
3.8925257e-06
-3.892737e-06
3.8902429e-06
-5.8362515e-06
3.8856783e-06
-7.776343e-06
3.8788345e-06
-9.7118732e-06
3.8697152e-06
-1.1641707e-05
3.8583252e-06
-1.356471e-05
3.8446706e-06
-1.5479755e-05
3.8287588e-06
-1.7385717e-05
3.8105982e-06
-1.9281476e-05
3.7901987e-06
-2.1165917e-05
3.7675712e-06
-2.3037932e-05
3.7427278e-06
-2.489642e-05
3.715682e-06
-2.6740286e-05
3.6864482e-06
-2.8568443e-05
3.6550423e-06
-3.0379815e-05
3.6214812e-06
-3.2173331e-05
3.585783e-06
-3.3947933e-05
3.5479671e-06
-3.5702571e-05
3.5080539e-06
-3.7436208e-05
3.4660652e-06
-3.9147817e-05
3.4220236e-06
-4.0836383e-05
3.3759532e-06
-4.2500903e-05
3.3278791e-06
-4.4140389e-05
3.2778275e-06
-4.5753866e-05
3.2258259e-06
-4.7340372e-05
3.1719026e-06
-4.8898961e-05
3.1160874e-06
-5.0428701e-05
3.0584108e-06
-5.1928678e-05
2.9989047e-06
-5.3397994e-05
2.937602e-06
-5.4835766e-05
2.8745365e-06
-5.6241131e-05
2.8097433e-06
-5.7613241e-05
2.7432582e-06
-5.895127e-05
2.6751184e-06
-6.0254409e-05
2.6053619e-06
-6.1521868e-05
2.5340277e-06
-6.2752879e-05
2.4611557e-06
-6.3946693e-05
2.386787e-06
-6.5102582e-05
2.3109634e-06
-6.621984e-05
2.2337278e-06
-6.7297783e-05
2.1551238e-06
-6.8335748e-05
2.075196e-06
-6.9333095e-05
1.9939899e-06
-7.028921e-05
1.9115518e-06
-7.1203499e-05
1.8279289e-06
-7.2075393e-05
1.743169e-06
-7.2904348e-05
1.6573208e-06
-7.3689844e-05
1.5704337e-06
-7.4431388e-05
1.482558e-06
-7.5128509e-05
1.3937445e-06
-7.5780765e-05
1.3040448e-06
-7.6387739e-05
1.213511e-06
-7.6949039e-05
1.1221959e-06
-7.7464301e-05
1.0301531e-06
-7.7933189e-05
9.3743629e-07
-7.8355393e-05
8.4410015e-07
-7.873063e-05
7.5019966e-07
-7.9058646e-05
6.557903e-07
-7.9339215e-05
5.60928e-07
-7.9572137e-05
4.656691e-07
-7.9757243e-05
3.7007031e-07
-7.9894392e-05
2.7418871e-07
-7.998347e-05
1.7808163e-07
-8.0024394e-05
8.180681e-08
-8.0017108e-05
-1.4577769e-08
-7.9961588e-05
-1.1101413e-07
-7.9857836e-05
-2.0744396e-07
-7.9705884e-05
-3.0380882e-07
-7.9505795e-05
-4.0005015e-07
-7.9257659e-05
-4.9610936e-07
-7.8961597e-05
-5.9192782e-07
-7.8617759e-05
-6.8744689e-07
-7.8226323e-05
-7.8260801e-07
-7.7787498e-05
-8.7735266e-07
-7.7301522e-05
-9.7162249e-07
-7.6768661e-05
-1.0653593e-06
-7.618921e-05
-1.158505e-06
-7.5563495e-05
-1.2510018e-06
-7.4891868e-05
-1.3427923e-06
-7.4174711e-05
-1.4338192e-06
-7.3412435e-05
-1.5240257e-06
-7.2605479e-05
-1.6133554e-06
-7.1754308e-05
-1.7017523e-06
-7.0859417e-05
-1.7891607e-06
-6.9921329e-05
-1.8755257e-06
-6.8940592e-05
-1.9607927e-06
-6.7917782e-05
-2.0449079e-06
-6.6853502e-05
-2.127818e-06
-6.5748382e-05
-2.2094703e-06
-6.4603075e-05
-2.289813e-06
-6.3418264e-05
-2.3687949e-06
-6.2194654e-05
-2.4463655e-06
-6.0932975e-05
-2.5224754e-06
-5.9633982e-05
-2.5970757e-06
-5.8298455e-05
-2.6701186e-06
-5.6927196e-05
-2.7415571e-06
-5.552103e-05
-2.8113454e-06
-5.4080805e-05
-2.8794384e-06
-5.2607392e-05
-2.9457921e-06
-5.1101681e-05
-3.0103637e-06
-4.9564585e-05
-3.0731114e-06
-4.7997036e-05
-3.1339945e-06
-4.6399987e-05
-3.1929734e-06
-4.477441e-05
-3.2500099e-06
-4.3121295e-05
-3.3050667e-06
-4.1441649e-05
-3.3581081e-06
-3.9736498e-05
-3.4090995e-06
-3.8006885e-05
-3.4580074e-06
-3.6253866e-05
-3.5048e-06
-3.4478517e-05
-3.5494465e-06
-3.2681923e-05
-3.5919179e-06
-3.0865189e-05
-3.6321861e-06
-2.9029428e-05
-3.6702249e-06
-2.7175769e-05
-3.7060091e-06
-2.530535e-05
-3.7395153e-06
-2.3419323e-05
-3.7707214e-06
-2.1518848e-05
-3.7996069e-06
-1.9605095e-05
-3.8261527e-06
-1.7679243e-05
-3.8503414e-06
-1.574248e-05
-3.8721569e-06
-1.3795999e-05
-3.8915849e-06
-1.1841001e-05
-3.9086127e-06
-9.8786927e-06
-3.9232288e-06
-7.9102844e-06
-3.9354237e-06
-5.9369916e-06
-3.9451893e-06
-3.9600324e-06
-3.9525192e-06
-1.9806278e-06
-3.9574084e-06
3.2341277e-15
-3.9598539e-06
1.9806278e-06
-3.9598539e-06
3.9600324e-06
-3.9574084e-06
5.9369916e-06
-3.9525192e-06
7.9102844e-06
-3.9451893e-06
9.8786927e-06
-3.9354237e-06
1.1841001e-05
-3.9232288e-06
1.3795999e-05
-3.9086127e-06
1.574248e-05
-3.8915849e-06
1.7679243e-05
-3.8721569e-06
1.9605095e-05
-3.8503414e-06
2.1518848e-05
-3.8261527e-06
2.3419323e-05
-3.7996069e-06
2.530535e-05
-3.7707214e-06
2.7175769e-05
-3.7395153e-06
2.9029428e-05
-3.7060091e-06
3.0865189e-05
-3.6702249e-06
3.2681923e-05
-3.6321861e-06
3.4478517e-05
-3.5919179e-06
3.6253866e-05
-3.5494465e-06
3.8006885e-05
-3.5048e-06
3.9736498e-05
-3.4580074e-06
4.1441649e-05
-3.4090995e-06
4.3121295e-05
-3.3581081e-06
4.477441e-05
-3.3050667e-06
4.6399987e-05
-3.2500099e-06
4.7997036e-05
-3.1929734e-06
4.9564585e-05
-3.1339945e-06
5.1101681e-05
-3.0731114e-06
5.2607392e-05
-3.0103637e-06
5.4080805e-05
-2.9457921e-06
5.552103e-05
-2.8794384e-06
5.6927196e-05
-2.8113454e-06
5.8298455e-05
-2.7415571e-06
5.9633982e-05
-2.6701186e-06
6.0932975e-05
-2.5970757e-06
6.2194654e-05
-2.5224754e-06
6.3418264e-05
-2.4463655e-06
6.4603075e-05
-2.3687949e-06
6.5748382e-05
-2.289813e-06
6.6853502e-05
-2.2094703e-06
6.7917782e-05
-2.127818e-06
6.8940592e-05
-2.0449079e-06
6.9921329e-05
-1.9607927e-06
7.0859417e-05
-1.8755257e-06
7.1754308e-05
-1.7891607e-06
7.2605479e-05
-1.7017523e-06
7.3412435e-05
-1.6133554e-06
7.4174711e-05
-1.5240257e-06
7.4891868e-05
-1.4338192e-06
7.5563495e-05
-1.3427923e-06
7.618921e-05
-1.2510018e-06
7.6768661e-05
-1.158505e-06
7.7301522e-05
-1.0653593e-06
7.7787498e-05
-9.7162248e-07
7.8226323e-05
-8.7735266e-07
7.8617759e-05
-7.8260801e-07
7.8961597e-05
-6.8744689e-07
7.9257659e-05
-5.9192782e-07
7.9505795e-05
-4.9610936e-07
7.9705884e-05
-4.0005015e-07
7.9857836e-05
-3.0380882e-07
7.9961588e-05
-2.0744396e-07
8.0017108e-05
-1.1101413e-07
8.0024394e-05
-1.4577768e-08
7.998347e-05
8.1806811e-08
7.9894392e-05
1.7808163e-07
7.9757243e-05
2.7418871e-07
7.9572137e-05
3.7007032e-07
7.9339215e-05
4.656691e-07
7.9058646e-05
5.60928e-07
7.873063e-05
6.557903e-07
7.8355393e-05
7.5019966e-07
7.7933189e-05
8.4410015e-07
7.7464301e-05
9.3743629e-07
7.6949039e-05
1.0301531e-06
7.6387739e-05
1.1221959e-06
7.5780765e-05
1.213511e-06
7.5128509e-05
1.3040448e-06
7.4431388e-05
1.3937445e-06
7.3689844e-05
1.482558e-06
7.2904348e-05
1.5704337e-06
7.2075393e-05
1.6573208e-06
7.1203499e-05
1.743169e-06
7.028921e-05
1.8279289e-06
6.9333095e-05
1.9115518e-06
6.8335748e-05
1.9939899e-06
6.7297783e-05
2.075196e-06
6.621984e-05
2.1551238e-06
6.5102582e-05
2.2337278e-06
6.3946693e-05
2.3109634e-06
6.2752879e-05
2.386787e-06
6.1521868e-05
2.4611557e-06
6.0254409e-05
2.5340277e-06
5.895127e-05
2.6053619e-06
5.7613241e-05
2.6751184e-06
5.6241131e-05
2.7432582e-06
5.4835766e-05
2.8097433e-06
5.3397994e-05
2.8745365e-06
5.1928678e-05
2.937602e-06
5.0428701e-05
2.9989047e-06
4.889896e-05
3.0584108e-06
4.7340372e-05
3.1160874e-06
4.5753866e-05
3.1719026e-06
4.4140389e-05
3.2258259e-06
4.2500903e-05
3.2778275e-06
4.0836383e-05
3.3278791e-06
3.9147817e-05
3.3759532e-06
3.7436208e-05
3.4220236e-06
3.5702571e-05
3.4660652e-06
3.3947933e-05
3.5080539e-06
3.2173331e-05
3.5479671e-06
3.0379814e-05
3.585783e-06
2.8568443e-05
3.6214812e-06
2.6740286e-05
3.6550423e-06
2.489642e-05
3.6864482e-06
2.3037932e-05
3.715682e-06
2.1165917e-05
3.7427278e-06
1.9281476e-05
3.7675712e-06
1.7385717e-05
3.7901987e-06
1.5479755e-05
3.8105982e-06
1.356471e-05
3.8287588e-06
1.1641707e-05
3.8446706e-06
9.7118732e-06
3.8583252e-06
7.776343e-06
3.8697152e-06
5.8362515e-06
3.8788345e-06
3.892737e-06
3.8856783e-06
1.9469394e-06
3.8902429e-06
3.8925257e-06
-1.9490799e-06
5.8416057e-06
-3.8970168e-06
5.8381797e-06
-5.8426682e-06
5.8313297e-06
-7.7848928e-06
5.8210591e-06
-9.7225512e-06
5.8073736e-06
-1.1654507e-05
5.7902805e-06
-1.3579625e-05
5.7697889e-06
-1.5496776e-05
5.7459099e-06
-1.7404834e-05
5.7186562e-06
-1.9302678e-05
5.6880424e-06
-2.1189192e-05
5.654085e-06
-2.3063266e-05
5.6168023e-06
-2.4923798e-05
5.5762143e-06
-2.6769693e-05
5.5323429e-06
-2.8599862e-05
5.4852117e-06
-3.0413227e-05
5.4348461e-06
-3.2208718e-05
5.3812735e-06
-3.3985273e-05
5.3245226e-06
-3.5741844e-05
5.2646244e-06
-3.747739e-05
5.2016113e-06
-3.9190884e-05
5.1355176e-06
-4.088131e-05
5.0663791e-06
-4.2547664e-05
4.9942337e-06
-4.4188958e-05
4.9191206e-06
-4.5804213e-05
4.841081e-06
-4.7392468e-05
4.7601576e-06
-4.8952775e-05
4.6763949e-06
-5.0484203e-05
4.5898388e-06
-5.1985836e-05
4.5005371e-06
-5.3456773e-05
4.4085392e-06
-5.4896132e-05
4.3138958e-06
-5.6303048e-05
4.2166596e-06
-5.7676675e-05
4.1168844e-06
-5.9016182e-05
4.0146259e-06
-6.0320761e-05
3.9099411e-06
-6.1589622e-05
3.8028886e-06
-6.2821995e-05
3.6935284e-06
-6.401713e-05
3.5819219e-06
-6.5174298e-05
3.4681321e-06
-6.6292794e-05
3.3522231e-06
-6.737193e-05
3.2342606e-06
-6.8411046e-05
3.1143114e-06
-6.94095e-05
2.9924439e-06
-7.0366675e-05
2.8687274e-06
-7.1281979e-05
2.7432327e-06
-7.2154842e-05
2.6160317e-06
-7.2984719e-05
2.4871975e-06
-7.3771089e-05
2.3568043e-06
-7.4513459e-05
2.2249273e-06
-7.5211357e-05
2.091643e-06
-7.5864341e-05
1.9570285e-06
-7.6471992e-05
1.8211624e-06
-7.703392e-05
1.6841238e-06
-7.754976e-05
1.5459928e-06
-7.8019174e-05
1.4068506e-06
-7.8441853e-05
1.2667788e-06
-7.8817513e-05
1.12586e-06
-7.91459e-05
9.8417749e-07
-7.9426787e-05
8.4181522e-07
-7.9659976e-05
6.9885772e-07
-7.9845296e-05
5.5539012e-07
-7.9982605e-05
4.1149805e-07
-8.0071791e-05
2.6726763e-07
-8.011277e-05
1.2278541e-07
-8.0105486e-05
-2.1861659e-08
-8.0049914e-05
-1.6658642e-07
-7.9946056e-05
-3.1130141e-07
-7.9793946e-05
-4.5591891e-07
-7.9593645e-05
-6.0035108e-07
-7.9345245e-05
-7.4450997e-07
-7.9048865e-05
-8.8830758e-07
-7.8704656e-05
-1.0316559e-06
-7.8312797e-05
-1.1744671e-06
-7.7873496e-05
-1.3166534e-06
-7.7386991e-05
-1.4581271e-06
-7.685355e-05
-1.5988008e-06
-7.6273467e-05
-1.7385875e-06
-7.5647068e-05
-1.8774006e-06
-7.4974707e-05
-2.0151535e-06
-7.4256766e-05
-2.1517607e-06
-7.3493655e-05
-2.2871367e-06
-7.2685813e-05
-2.4211968e-06
-7.1833709e-05
-2.5538569e-06
-7.0937836e-05
-2.6850338e-06
-6.9998717e-05
-2.8146447e-06
-6.9016901e-05
-2.942608e-06
-6.7992967e-05
-3.0688426e-06
-6.6927516e-05
-3.1932688e-06
-6.5821179e-05
-3.3158075e-06
-6.4674611e-05
-3.4363807e-06
-6.3488494e-05
-3.5549117e-06
-6.2263535e-05
-3.6713249e-06
-6.1000465e-05
-3.7855458e-06
-5.9700039e-05
-3.8975013e-06
-5.8363038e-05
-4.0071196e-06
-5.6990265e-05
-4.1143302e-06
-5.5582546e-05
-4.2190641e-06
-5.4140731e-05
-4.321254e-06
-5.2665689e-05
-4.4208337e-06
-5.1158314e-05
-4.5177389e-06
-4.9619518e-05
-4.6119069e-06
-4.8050236e-05
-4.7032766e-06
-4.6451421e-05
-4.7917887e-06
-4.4824045e-05
-4.8773856e-06
-4.31691e-05
-4.9600118e-06
-4.1487595e-05
-5.0396132e-06
-3.9780556e-05
-5.116138e-06
-3.8049028e-05
-5.1895362e-06
-3.6294068e-05
-5.2597598e-06
-3.4516751e-05
-5.3267629e-06
-3.2718168e-05
-5.3905014e-06
-3.089942e-05
-5.4509337e-06
-2.9061625e-05
-5.5080201e-06
-2.7205911e-05
-5.5617231e-06
-2.5333419e-05
-5.6120073e-06
-2.3445301e-05
-5.6588396e-06
-2.1542718e-05
-5.7021893e-06
-1.9626843e-05
-5.7420278e-06
-1.7698856e-05
-5.7783288e-06
-1.5759944e-05
-5.8110684e-06
-1.3811304e-05
-5.8402249e-06
-1.1854138e-05
-5.8657792e-06
-9.8896525e-06
-5.8877142e-06
-7.9190605e-06
-5.9060157e-06
-5.9435784e-06
-5.9206714e-06
-3.964426e-06
-5.9316716e-06
-1.9828253e-06
-5.9390092e-06
3.2377614e-15
-5.9426792e-06
1.9828253e-06
-5.9426792e-06
3.964426e-06
-5.9390092e-06
5.9435785e-06
-5.9316716e-06
7.9190605e-06
-5.9206714e-06
9.8896525e-06
-5.9060157e-06
1.1854138e-05
-5.8877142e-06
1.3811304e-05
-5.8657792e-06
1.5759944e-05
-5.8402249e-06
1.7698856e-05
-5.8110684e-06
1.9626843e-05
-5.7783288e-06
2.1542718e-05
-5.7420278e-06
2.3445301e-05
-5.7021893e-06
2.5333419e-05
-5.6588396e-06
2.7205911e-05
-5.6120073e-06
2.9061625e-05
-5.5617231e-06
3.089942e-05
-5.5080201e-06
3.2718168e-05
-5.4509337e-06
3.4516751e-05
-5.3905014e-06
3.6294068e-05
-5.3267629e-06
3.8049028e-05
-5.2597598e-06
3.9780556e-05
-5.1895362e-06
4.1487595e-05
-5.116138e-06
4.31691e-05
-5.0396132e-06
4.4824045e-05
-4.9600118e-06
4.6451421e-05
-4.8773856e-06
4.8050236e-05
-4.7917887e-06
4.9619518e-05
-4.7032766e-06
5.1158314e-05
-4.6119069e-06
5.2665689e-05
-4.5177389e-06
5.4140731e-05
-4.4208337e-06
5.5582546e-05
-4.321254e-06
5.6990265e-05
-4.2190641e-06
5.8363038e-05
-4.1143302e-06
5.9700039e-05
-4.0071196e-06
6.1000465e-05
-3.8975013e-06
6.2263535e-05
-3.7855458e-06
6.3488494e-05
-3.6713249e-06
6.4674611e-05
-3.5549117e-06
6.5821179e-05
-3.4363807e-06
6.6927516e-05
-3.3158075e-06
6.7992967e-05
-3.1932688e-06
6.9016901e-05
-3.0688426e-06
6.9998717e-05
-2.942608e-06
7.0937836e-05
-2.8146447e-06
7.1833709e-05
-2.6850338e-06
7.2685813e-05
-2.5538569e-06
7.3493655e-05
-2.4211968e-06
7.4256766e-05
-2.2871367e-06
7.4974707e-05
-2.1517607e-06
7.5647068e-05
-2.0151535e-06
7.6273467e-05
-1.8774006e-06
7.685355e-05
-1.7385875e-06
7.7386991e-05
-1.5988008e-06
7.7873496e-05
-1.4581271e-06
7.8312797e-05
-1.3166534e-06
7.8704656e-05
-1.1744671e-06
7.9048865e-05
-1.0316559e-06
7.9345245e-05
-8.8830758e-07
7.9593645e-05
-7.4450996e-07
7.9793946e-05
-6.0035108e-07
7.9946056e-05
-4.5591891e-07
8.0049914e-05
-3.1130141e-07
8.0105486e-05
-1.6658642e-07
8.011277e-05
-2.1861658e-08
8.0071791e-05
1.2278541e-07
7.9982605e-05
2.6726763e-07
7.9845296e-05
4.1149806e-07
7.9659976e-05
5.5539012e-07
7.9426787e-05
6.9885772e-07
7.91459e-05
8.4181522e-07
7.8817513e-05
9.8417749e-07
7.8441853e-05
1.12586e-06
7.8019174e-05
1.2667788e-06
7.754976e-05
1.4068506e-06
7.703392e-05
1.5459928e-06
7.6471992e-05
1.6841238e-06
7.5864341e-05
1.8211624e-06
7.5211357e-05
1.9570285e-06
7.4513459e-05
2.091643e-06
7.3771089e-05
2.2249273e-06
7.2984719e-05
2.3568043e-06
7.2154842e-05
2.4871975e-06
7.1281979e-05
2.6160317e-06
7.0366675e-05
2.7432327e-06
6.94095e-05
2.8687274e-06
6.8411046e-05
2.9924439e-06
6.737193e-05
3.1143114e-06
6.6292794e-05
3.2342606e-06
6.5174298e-05
3.3522231e-06
6.401713e-05
3.4681321e-06
6.2821995e-05
3.5819219e-06
6.1589622e-05
3.6935284e-06
6.0320761e-05
3.8028886e-06
5.9016182e-05
3.9099411e-06
5.7676675e-05
4.0146259e-06
5.6303048e-05
4.1168844e-06
5.4896132e-05
4.2166596e-06
5.3456773e-05
4.3138958e-06
5.1985836e-05
4.4085392e-06
5.0484203e-05
4.5005371e-06
4.8952775e-05
4.5898388e-06
4.7392468e-05
4.6763949e-06
4.5804213e-05
4.7601576e-06
4.4188958e-05
4.841081e-06
4.2547664e-05
4.9191206e-06
4.088131e-05
4.9942337e-06
3.9190884e-05
5.0663791e-06
3.747739e-05
5.1355176e-06
3.5741844e-05
5.2016113e-06
3.3985273e-05
5.2646244e-06
3.2208718e-05
5.3245226e-06
3.0413227e-05
5.3812735e-06
2.8599862e-05
5.4348461e-06
2.6769693e-05
5.4852117e-06
2.4923798e-05
5.5323429e-06
2.3063266e-05
5.5762143e-06
2.1189192e-05
5.6168023e-06
1.9302678e-05
5.654085e-06
1.7404834e-05
5.6880424e-06
1.5496776e-05
5.7186562e-06
1.3579625e-05
5.7459099e-06
1.1654507e-05
5.7697889e-06
9.7225512e-06
5.7902805e-06
7.7848928e-06
5.8073736e-06
5.8426682e-06
5.8210591e-06
3.8970168e-06
5.8313297e-06
1.9490799e-06
5.8381797e-06
5.8416057e-06
-1.9520118e-06
7.7936175e-06
-3.9028789e-06
7.7890468e-06
-5.851457e-06
7.7799078e-06
-7.7966033e-06
7.7662054e-06
-9.7371766e-06
7.7479469e-06
-1.1672038e-05
7.7251422e-06
-1.3600053e-05
7.6978034e-06
-1.5520088e-05
7.6659453e-06
-1.7431017e-05
7.6295848e-06
-1.9331716e-05
7.5887415e-06
-2.1221068e-05
7.5434374e-06
-2.3097963e-05
7.4936967e-06
-2.4961295e-05
7.4395463e-06
-2.6809967e-05
7.3810153e-06
-2.8642891e-05
7.3181353e-06
-3.0458985e-05
7.2509402e-06
-3.2257178e-05
7.1794664e-06
-3.4036408e-05
7.1037524e-06
-3.5795622e-05
7.0238393e-06
-3.7533781e-05
6.9397704e-06
-3.9249855e-05
6.8515915e-06
-4.0942827e-05
6.7593505e-06
-4.2611691e-05
6.6630977e-06
-4.4255456e-05
6.5628857e-06
-4.5873144e-05
6.4587691e-06
-4.7463792e-05
6.3508052e-06
-4.902645e-05
6.2390531e-06
-5.0560185e-05
6.1235743e-06
-5.2064081e-05
6.0044325e-06
-5.3537235e-05
5.8816934e-06
-5.4978764e-05
5.7554248e-06
-5.6387801e-05
5.6256969e-06
-5.7763499e-05
5.4925818e-06
-5.9105026e-05
5.3561534e-06
-6.0411573e-05
5.216488e-06
-6.1682348e-05
5.0736637e-06
-6.291658e-05
4.9277605e-06
-6.4113519e-05
4.7788605e-06
-6.5272434e-05
4.6270474e-06
-6.6392618e-05
4.4724071e-06
-6.7473385e-05
4.315027e-06
-6.851407e-05
4.1549964e-06
-6.9514032e-05
3.9924063e-06
-7.0472654e-05
3.8273495e-06
-7.1389342e-05
3.6599202e-06
-7.2263524e-05
3.4902145e-06
-7.3094657e-05
3.3183297e-06
-7.3882217e-05
3.1443649e-06
-7.462571e-05
2.9684206e-06
-7.5324666e-05
2.7905985e-06
-7.5978639e-05
2.6110019e-06
-7.6587212e-05
2.4297352e-06
-7.7149993e-05
2.2469043e-06
-7.7666616e-05
2.062616e-06
-7.8136743e-05
1.8769783e-06
-7.8560065e-05
1.6901006e-06
-7.8936298e-05
1.5020927e-06
-7.9265186e-05
1.3130659e-06
-7.9546503e-05
1.1231322e-06
-7.978005e-05
9.3240429e-07
-7.9965656e-05
7.4099579e-07
-8.0103179e-05
5.4902095e-07
-8.0192506e-05
3.5659467e-07
-8.0233553e-05
1.6383241e-07
-8.0226264e-05
-2.9149872e-08
-8.0170615e-05
-2.2223583e-07
-8.0066608e-05
-4.1530877e-07
-7.9914275e-05
-6.0825169e-07
-7.9713679e-05
-8.0094738e-07
-7.946491e-05
-9.932785e-07
-7.916809e-05
-1.1851277e-06
-7.8823368e-05
-1.3763775e-06
-7.8430925e-05
-1.5669107e-06
-7.7990968e-05
-1.7566102e-06
-7.7503736e-05
-1.945359e-06
-7.6969496e-05
-2.1330406e-06
-7.6388545e-05
-2.3195388e-06
-7.5761207e-05
-2.504738e-06
-7.5087838e-05
-2.688523e-06
-7.4368819e-05
-2.8707792e-06
-7.3604563e-05
-3.051393e-06
-7.2795509e-05
-3.2302511e-06
-7.1942124e-05
-3.4072416e-06
-7.1044905e-05
-3.5822531e-06
-7.0104374e-05
-3.7551754e-06
-6.9121083e-05
-3.9258996e-06
-6.8095608e-05
-4.0943175e-06
-6.7028554e-05
-4.2603226e-06
-6.5920552e-05
-4.4238095e-06
-6.4772258e-05
-4.5846743e-06
-6.3584355e-05
-4.7428144e-06
-6.2357551e-05
-4.898129e-06
-6.1092578e-05
-5.0505188e-06
-5.9790194e-05
-5.1998862e-06
-5.8451178e-05
-5.3461353e-06
-5.7076336e-05
-5.4891723e-06
-5.5666495e-05
-5.628905e-06
-5.4222505e-05
-5.7652434e-06
-5.2745239e-05
-5.8980996e-06
-5.1235591e-05
-6.0273875e-06
-4.9694474e-05
-6.1530235e-06
-4.8122825e-05
-6.2749262e-06
-4.6521597e-05
-6.3930164e-06
-4.4891765e-05
-6.5072173e-06
-4.3234322e-05
-6.6174546e-06
-4.1550279e-05
-6.7236565e-06
-3.9840664e-05
-6.8257536e-06
-3.8106521e-05
-6.9236794e-06
-3.6348911e-05
-7.0173696e-06
-3.456891e-05
-7.1067632e-06
-3.276761e-05
-7.1918014e-06
-3.0946116e-05
-7.2724284e-06
-2.9105544e-05
-7.3485915e-06
-2.7247027e-05
-7.4202404e-06
-2.5371706e-05
-7.4873282e-06
-2.3480735e-05
-7.5498106e-06
-2.1575278e-05
-7.6076466e-06
-1.9656508e-05
-7.660798e-06
-1.7725607e-05
-7.7092298e-06
-1.5783765e-05
-7.75291e-06
-1.383218e-05
-7.7918099e-06
-1.1872056e-05
-7.8259037e-06
-9.9046009e-06
-7.8551689e-06
-7.9310305e-06
-7.8795862e-06
-5.9525624e-06
-7.8991394e-06
-3.9704184e-06
-7.9138156e-06
-1.9858224e-06
-7.9236052e-06
3.2463784e-15
-7.9285016e-06
1.9858224e-06
-7.9285016e-06
3.9704184e-06
-7.9236052e-06
5.9525624e-06
-7.9138156e-06
7.9310305e-06
-7.8991394e-06
9.9046009e-06
-7.8795862e-06
1.1872056e-05
-7.8551689e-06
1.383218e-05
-7.8259037e-06
1.5783765e-05
-7.7918099e-06
1.7725607e-05
-7.75291e-06
1.9656508e-05
-7.7092298e-06
2.1575278e-05
-7.660798e-06
2.3480735e-05
-7.6076466e-06
2.5371706e-05
-7.5498106e-06
2.7247027e-05
-7.4873282e-06
2.9105544e-05
-7.4202404e-06
3.0946116e-05
-7.3485915e-06
3.276761e-05
-7.2724284e-06
3.456891e-05
-7.1918014e-06
3.6348911e-05
-7.1067632e-06
3.8106521e-05
-7.0173696e-06
3.9840664e-05
-6.9236794e-06
4.1550279e-05
-6.8257536e-06
4.3234322e-05
-6.7236565e-06
4.4891765e-05
-6.6174546e-06
4.6521597e-05
-6.5072173e-06
4.8122825e-05
-6.3930164e-06
4.9694474e-05
-6.2749262e-06
5.1235591e-05
-6.1530235e-06
5.2745239e-05
-6.0273875e-06
5.4222505e-05
-5.8980996e-06
5.5666495e-05
-5.7652434e-06
5.7076336e-05
-5.628905e-06
5.8451178e-05
-5.4891723e-06
5.9790194e-05
-5.3461353e-06
6.1092578e-05
-5.1998862e-06
6.2357551e-05
-5.0505188e-06
6.3584355e-05
-4.898129e-06
6.4772258e-05
-4.7428144e-06
6.5920552e-05
-4.5846743e-06
6.7028554e-05
-4.4238095e-06
6.8095608e-05
-4.2603226e-06
6.9121083e-05
-4.0943175e-06
7.0104374e-05
-3.9258996e-06
7.1044905e-05
-3.7551754e-06
7.1942124e-05
-3.5822531e-06
7.2795509e-05
-3.4072416e-06
7.3604563e-05
-3.2302511e-06
7.4368819e-05
-3.051393e-06
7.5087838e-05
-2.8707792e-06
7.5761208e-05
-2.688523e-06
7.6388545e-05
-2.504738e-06
7.6969496e-05
-2.3195388e-06
7.7503736e-05
-2.1330406e-06
7.7990968e-05
-1.945359e-06
7.8430925e-05
-1.7566102e-06
7.8823368e-05
-1.5669107e-06
7.916809e-05
-1.3763775e-06
7.946491e-05
-1.1851277e-06
7.9713679e-05
-9.932785e-07
7.9914275e-05
-8.0094737e-07
8.0066608e-05
-6.0825168e-07
8.0170615e-05
-4.1530877e-07
8.0226264e-05
-2.2223583e-07
8.0233553e-05
-2.914987e-08
8.0192506e-05
1.6383241e-07
8.0103179e-05
3.5659467e-07
7.9965656e-05
5.4902095e-07
7.978005e-05
7.4099579e-07
7.9546503e-05
9.3240429e-07
7.9265186e-05
1.1231322e-06
7.8936298e-05
1.3130659e-06
7.8560065e-05
1.5020927e-06
7.8136743e-05
1.6901006e-06
7.7666616e-05
1.8769784e-06
7.7149993e-05
2.062616e-06
7.6587212e-05
2.2469043e-06
7.5978639e-05
2.4297352e-06
7.5324666e-05
2.6110019e-06
7.462571e-05
2.7905985e-06
7.3882217e-05
2.9684206e-06
7.3094657e-05
3.1443649e-06
7.2263524e-05
3.3183297e-06
7.1389342e-05
3.4902145e-06
7.0472654e-05
3.6599202e-06
6.9514032e-05
3.8273495e-06
6.851407e-05
3.9924063e-06
6.7473385e-05
4.1549964e-06
6.6392618e-05
4.315027e-06
6.5272434e-05
4.4724071e-06
6.4113519e-05
4.6270474e-06
6.291658e-05
4.7788605e-06
6.1682348e-05
4.9277605e-06
6.0411573e-05
5.0736637e-06
5.9105026e-05
5.216488e-06
5.7763499e-05
5.3561534e-06
5.6387801e-05
5.4925818e-06
5.4978764e-05
5.6256969e-06
5.3537235e-05
5.7554248e-06
5.2064081e-05
5.8816934e-06
5.0560185e-05
6.0044325e-06
4.902645e-05
6.1235743e-06
4.7463792e-05
6.2390531e-06
4.5873144e-05
6.3508052e-06
4.4255456e-05
6.4587691e-06
4.2611691e-05
6.5628857e-06
4.0942827e-05
6.6630977e-06
3.9249855e-05
6.7593505e-06
3.7533781e-05
6.8515915e-06
3.5795622e-05
6.9397704e-06
3.4036408e-05
7.0238393e-06
3.2257178e-05
7.1037524e-06
3.0458985e-05
7.1794664e-06
2.8642891e-05
7.2509402e-06
2.6809967e-05
7.3181353e-06