/*--------------------------------*- C++ -*----------------------------------*\
| =========                 |                                                 |
| \\      /  F ield         | OpenFOAM: The Open Source CFD Toolbox           |
|  \\    /   O peration     | Version:  2106                                  |
|   \\  /    A nd           | Website:  www.openfoam.com                      |
|    \\/     M anipulation  |                                                 |
\*---------------------------------------------------------------------------*/
FoamFile
{
    version     2.0;
    format      ascii;
    arch        "LSB;label=32;scalar=64";
    class       volVectorField;
    location    "0.048";
    object      U;
}
// * * * * * * * * * * * * * * * * * * * * * * * * * * * * * * * * * * * * * //

dimensions      [0 1 -1 0 0 0 0];

internalField   nonuniform List<vector> 
65536
(
(-0.00024919458 0.00024913119 0)
(-0.00074743759 0.00024898507 0)
(-0.0012452422 0.00024869292 0)
(-0.0017423165 0.00024825489 0)
(-0.0022383688 0.00024767121 0)
(-0.0027331082 0.00024694221 0)
(-0.0032262441 0.00024606825 0)
(-0.0037174873 0.00024504983 0)
(-0.0042065492 0.00024388748 0)
(-0.0046931424 0.00024258182 0)
(-0.0051769811 0.00024113356 0)
(-0.0056577807 0.00023954349 0)
(-0.0061352584 0.00023781244 0)
(-0.0066091331 0.00023594136 0)
(-0.0070791256 0.00023393125 0)
(-0.0075449591 0.0002317832 0)
(-0.0080063585 0.00022949837 0)
(-0.0084630517 0.000227078 0)
(-0.0089147686 0.00022452339 0)
(-0.0093612422 0.00022183594 0)
(-0.0098022082 0.00021901711 0)
(-0.010237405 0.00021606842 0)
(-0.010666575 0.00021299149 0)
(-0.011089463 0.00020978799 0)
(-0.011505818 0.00020645968 0)
(-0.011915391 0.00020300839 0)
(-0.012317939 0.000199436 0)
(-0.012713222 0.00019574449 0)
(-0.013101002 0.00019193588 0)
(-0.013481049 0.00018801228 0)
(-0.013853133 0.00018397586 0)
(-0.014217032 0.00017982886 0)
(-0.014572526 0.00017557358 0)
(-0.014919402 0.00017121239 0)
(-0.01525745 0.00016674774 0)
(-0.015586466 0.0001621821 0)
(-0.015906249 0.00015751805 0)
(-0.016216606 0.00015275821 0)
(-0.016517348 0.00014790525 0)
(-0.016808292 0.00014296192 0)
(-0.017089258 0.00013793101 0)
(-0.017360076 0.00013281539 0)
(-0.017620578 0.00012761795 0)
(-0.017870603 0.00012234166 0)
(-0.018109998 0.00011698954 0)
(-0.018338613 0.00011156466 0)
(-0.018556305 0.00010607013 0)
(-0.01876294 0.00010050912 0)
(-0.018958386 9.4884831e-05 0)
(-0.019142521 8.9200527e-05 0)
(-0.019315227 8.3459506e-05 0)
(-0.019476395 7.7665108e-05 0)
(-0.019625922 7.1820713e-05 0)
(-0.01976371 6.5929739e-05 0)
(-0.01988967 5.999564e-05 0)
(-0.020003719 5.4021906e-05 0)
(-0.020105782 4.8012057e-05 0)
(-0.020195789 4.1969644e-05 0)
(-0.020273679 3.5898248e-05 0)
(-0.020339398 2.9801473e-05 0)
(-0.020392899 2.3682951e-05 0)
(-0.020434141 1.7546331e-05 0)
(-0.020463092 1.1395271e-05 0)
(-0.020479728 5.2334876e-06 0)
(-0.020484029 -9.3525101e-07 0)
(-0.020475987 -7.1073776e-06 0)
(-0.020455597 -1.327906e-05 0)
(-0.020422865 -1.9446576e-05 0)
(-0.020377803 -2.5606181e-05 0)
(-0.02032043 -3.1754123e-05 0)
(-0.020250774 -3.7886652e-05 0)
(-0.020168868 -4.4000015e-05 0)
(-0.020074755 -5.0090462e-05 0)
(-0.019968485 -5.615425e-05 0)
(-0.019850114 -6.2187643e-05 0)
(-0.019719708 -6.8186915e-05 0)
(-0.019577338 -7.4148353e-05 0)
(-0.019423083 -8.0068258e-05 0)
(-0.01925703 -8.594295e-05 0)
(-0.019079274 -9.1768769e-05 0)
(-0.018889916 -9.7542078e-05 0)
(-0.018689064 -0.00010325926 0)
(-0.018476835 -0.00010891674 0)
(-0.01825335 -0.00011451095 0)
(-0.018018742 -0.00012003838 0)
(-0.017773145 -0.00012549553 0)
(-0.017516705 -0.00013087896 0)
(-0.017249573 -0.00013618526 0)
(-0.016971905 -0.00014141106 0)
(-0.016683867 -0.00014655304 0)
(-0.01638563 -0.00015160792 0)
(-0.01607737 -0.00015657248 0)
(-0.015759272 -0.00016144354 0)
(-0.015431526 -0.00016621798 0)
(-0.015094328 -0.00017089275 0)
(-0.014747881 -0.00017546484 0)
(-0.014392393 -0.00017993131 0)
(-0.014028078 -0.00018428927 0)
(-0.013655156 -0.00018853592 0)
(-0.013273852 -0.00019266851 0)
(-0.012884398 -0.00019668437 0)
(-0.012487029 -0.00020058089 0)
(-0.012081987 -0.00020435554 0)
(-0.011669518 -0.00020800588 0)
(-0.011249873 -0.00021152951 0)
(-0.010823308 -0.00021492416 0)
(-0.010390083 -0.0002181876 0)
(-0.0099504627 -0.0002213177 0)
(-0.0095047158 -0.00022431241 0)
(-0.0090531153 -0.00022716979 0)
(-0.0085959377 -0.00022988794 0)
(-0.0081334633 -0.0002324651 0)
(-0.007665976 -0.00023489957 0)
(-0.0071937627 -0.00023718975 0)
(-0.0067171135 -0.00023933414 0)
(-0.0062363217 -0.00024133132 0)
(-0.005751683 -0.00024317998 0)
(-0.0052634957 -0.0002448789 0)
(-0.0047720606 -0.00024642696 0)
(-0.0042776803 -0.00024782315 0)
(-0.0037806598 -0.00024906654 0)
(-0.0032813055 -0.0002501563 0)
(-0.0027799254 -0.00025109173 0)
(-0.002276829 -0.0002518722 0)
(-0.0017723267 -0.00025249719 0)
(-0.00126673 -0.0002529663 0)
(-0.00076035101 -0.00025327921 0)
(-0.00025350252 -0.00025343572 0)
(0.00025350252 -0.00025343572 0)
(0.00076035101 -0.00025327921 0)
(0.00126673 -0.0002529663 0)
(0.0017723267 -0.00025249719 0)
(0.002276829 -0.0002518722 0)
(0.0027799254 -0.00025109173 0)
(0.0032813055 -0.0002501563 0)
(0.0037806598 -0.00024906654 0)
(0.0042776803 -0.00024782315 0)
(0.0047720606 -0.00024642696 0)
(0.0052634957 -0.0002448789 0)
(0.005751683 -0.00024317998 0)
(0.0062363217 -0.00024133132 0)
(0.0067171135 -0.00023933414 0)
(0.0071937627 -0.00023718975 0)
(0.007665976 -0.00023489957 0)
(0.0081334634 -0.0002324651 0)
(0.0085959377 -0.00022988794 0)
(0.0090531153 -0.00022716979 0)
(0.0095047158 -0.00022431241 0)
(0.0099504627 -0.0002213177 0)
(0.010390083 -0.0002181876 0)
(0.010823308 -0.00021492416 0)
(0.011249873 -0.00021152951 0)
(0.011669518 -0.00020800588 0)
(0.012081987 -0.00020435554 0)
(0.012487029 -0.00020058089 0)
(0.012884398 -0.00019668437 0)
(0.013273852 -0.00019266851 0)
(0.013655156 -0.00018853592 0)
(0.014028078 -0.00018428927 0)
(0.014392393 -0.00017993131 0)
(0.014747881 -0.00017546484 0)
(0.015094328 -0.00017089275 0)
(0.015431526 -0.00016621798 0)
(0.015759272 -0.00016144354 0)
(0.01607737 -0.00015657248 0)
(0.01638563 -0.00015160792 0)
(0.016683867 -0.00014655304 0)
(0.016971905 -0.00014141106 0)
(0.017249573 -0.00013618526 0)
(0.017516705 -0.00013087896 0)
(0.017773145 -0.00012549553 0)
(0.018018742 -0.00012003838 0)
(0.01825335 -0.00011451095 0)
(0.018476835 -0.00010891674 0)
(0.018689064 -0.00010325926 0)
(0.018889916 -9.7542078e-05 0)
(0.019079274 -9.1768769e-05 0)
(0.01925703 -8.594295e-05 0)
(0.019423083 -8.0068258e-05 0)
(0.019577338 -7.4148352e-05 0)
(0.019719708 -6.8186915e-05 0)
(0.019850114 -6.2187643e-05 0)
(0.019968485 -5.615425e-05 0)
(0.020074755 -5.0090462e-05 0)
(0.020168868 -4.4000015e-05 0)
(0.020250774 -3.7886652e-05 0)
(0.02032043 -3.1754123e-05 0)
(0.020377803 -2.5606181e-05 0)
(0.020422865 -1.9446576e-05 0)
(0.020455597 -1.327906e-05 0)
(0.020475987 -7.1073775e-06 0)
(0.020484029 -9.3525095e-07 0)
(0.020479728 5.2334876e-06 0)
(0.020463092 1.1395271e-05 0)
(0.020434141 1.7546331e-05 0)
(0.020392899 2.3682951e-05 0)
(0.020339398 2.9801473e-05 0)
(0.020273679 3.5898248e-05 0)
(0.020195789 4.1969644e-05 0)
(0.020105782 4.8012057e-05 0)
(0.020003719 5.4021906e-05 0)
(0.01988967 5.999564e-05 0)
(0.01976371 6.5929739e-05 0)
(0.019625922 7.1820713e-05 0)
(0.019476395 7.7665108e-05 0)
(0.019315227 8.3459506e-05 0)
(0.019142521 8.9200528e-05 0)
(0.018958386 9.4884831e-05 0)
(0.01876294 0.00010050912 0)
(0.018556305 0.00010607013 0)
(0.018338613 0.00011156466 0)
(0.018109998 0.00011698955 0)
(0.017870603 0.00012234166 0)
(0.017620578 0.00012761795 0)
(0.017360076 0.00013281539 0)
(0.017089258 0.00013793101 0)
(0.016808292 0.00014296192 0)
(0.016517348 0.00014790525 0)
(0.016216606 0.00015275821 0)
(0.015906249 0.00015751805 0)
(0.015586466 0.0001621821 0)
(0.01525745 0.00016674774 0)
(0.014919402 0.00017121239 0)
(0.014572526 0.00017557358 0)
(0.014217032 0.00017982886 0)
(0.013853133 0.00018397586 0)
(0.013481049 0.00018801228 0)
(0.013101002 0.00019193588 0)
(0.012713222 0.00019574449 0)
(0.012317939 0.000199436 0)
(0.011915391 0.00020300839 0)
(0.011505818 0.00020645968 0)
(0.011089463 0.00020978799 0)
(0.010666575 0.00021299149 0)
(0.010237405 0.00021606842 0)
(0.0098022082 0.00021901711 0)
(0.0093612422 0.00022183594 0)
(0.0089147686 0.00022452339 0)
(0.0084630517 0.000227078 0)
(0.0080063585 0.00022949837 0)
(0.0075449591 0.0002317832 0)
(0.0070791256 0.00023393125 0)
(0.0066091331 0.00023594136 0)
(0.0061352584 0.00023781244 0)
(0.0056577807 0.00023954349 0)
(0.0051769811 0.00024113356 0)
(0.0046931424 0.00024258182 0)
(0.0042065492 0.00024388748 0)
(0.0037174873 0.00024504983 0)
(0.0032262441 0.00024606825 0)
(0.0027331082 0.00024694221 0)
(0.0022383688 0.00024767121 0)
(0.0017423165 0.00024825489 0)
(0.0012452422 0.00024869292 0)
(0.00074743759 0.00024898507 0)
(0.00024919458 0.00024913119 0)
(-0.00024936791 0.00074753213 0)
(-0.00074795747 0.00074709371 0)
(-0.0012461084 0.0007462171 0)
(-0.0017435284 0.00074490277 0)
(-0.0022399258 0.00074315142 0)
(-0.0027350093 0.000740964 0)
(-0.0032284884 0.00073834168 0)
(-0.0037200734 0.00073528585 0)
(-0.0042094756 0.00073179817 0)
(-0.0046964075 0.0007278805 0)
(-0.0051805831 0.00072353495 0)
(-0.0056617174 0.00071876386 0)
(-0.0061395277 0.00071356978 0)
(-0.0066137324 0.00070795553 0)
(-0.0070840525 0.00070192412 0)
(-0.0075502105 0.00069547882 0)
(-0.0080119316 0.00068862309 0)
(-0.0084689432 0.00068136067 0)
(-0.0089209753 0.00067369547 0)
(-0.0093677604 0.00066563167 0)
(-0.0098090342 0.00065717364 0)
(-0.010244535 0.00064832598 0)
(-0.010674005 0.00063909352 0)
(-0.011097189 0.00062948129 0)
(-0.011513834 0.00061949457 0)
(-0.011923694 0.00060913881 0)
(-0.012326524 0.00059841971 0)
(-0.012722083 0.00058734316 0)
(-0.013110135 0.00057591526 0)
(-0.013490448 0.00056414232 0)
(-0.013862793 0.00055203086 0)
(-0.014226947 0.0005395876 0)
(-0.014582691 0.00052681944 0)
(-0.014929811 0.00051373351 0)
(-0.015268097 0.00050033709 0)
(-0.015597343 0.0004866377 0)
(-0.015917352 0.00047264299 0)
(-0.016227928 0.00045836085 0)
(-0.016528882 0.00044379932 0)
(-0.016820031 0.00042896661 0)
(-0.017101196 0.00041387113 0)
(-0.017372205 0.00039852144 0)
(-0.017632891 0.00038292626 0)
(-0.017883094 0.0003670945 0)
(-0.018122658 0.00035103519 0)
(-0.018351435 0.00033475755 0)
(-0.018569283 0.00031827093 0)
(-0.018776064 0.00030158481 0)
(-0.01897165 0.00028470884 0)
(-0.019155916 0.00026765278 0)
(-0.019328747 0.00025042653 0)
(-0.019490031 0.00023304012 0)
(-0.019639665 0.00021550368 0)
(-0.019777552 0.00019782749 0)
(-0.019903603 0.00018002189 0)
(-0.020017736 0.00016209736 0)
(-0.020119873 0.00014406446 0)
(-0.020209946 0.00012593385 0)
(-0.020287894 0.00010771626 0)
(-0.020353662 8.942253e-05 0)
(-0.020407203 7.1063538e-05 0)
(-0.020448477 5.2650244e-05 0)
(-0.020477452 3.4193658e-05 0)
(-0.020494102 1.5704871e-05 0)
(-0.02049841 -2.8049732e-06 0)
(-0.020490365 -2.1324748e-05 0)
(-0.020469965 -3.9843259e-05 0)
(-0.020437213 -5.8349279e-05 0)
(-0.020392122 -7.6831567e-05 0)
(-0.020334712 -9.5278866e-05 0)
(-0.020265009 -0.00011367992 0)
(-0.020183049 -0.00013202346 0)
(-0.020088873 -0.00015029825 0)
(-0.019982531 -0.00016849305 0)
(-0.01986408 -0.00018659665 0)
(-0.019733585 -0.00020459788 0)
(-0.019591118 -0.00022248558 0)
(-0.019436757 -0.00024024866 0)
(-0.01927059 -0.00025787608 0)
(-0.019092712 -0.00027535686 0)
(-0.018903223 -0.00029268007 0)
(-0.018702232 -0.00030983489 0)
(-0.018489856 -0.00032681055 0)
(-0.018266217 -0.00034359639 0)
(-0.018031445 -0.00036018183 0)
(-0.017785678 -0.00037655642 0)
(-0.017529059 -0.0003927098 0)
(-0.017261741 -0.00040863174 0)
(-0.01698388 -0.00042431214 0)
(-0.016695641 -0.00043974102 0)
(-0.016397195 -0.00045490857 0)
(-0.016088719 -0.00046980509 0)
(-0.015770399 -0.00048442108 0)
(-0.015442423 -0.00049874717 0)
(-0.015104989 -0.00051277417 0)
(-0.014758299 -0.00052649307 0)
(-0.014402561 -0.00053989505 0)
(-0.01403799 -0.00055297146 0)
(-0.013664806 -0.00056571387 0)
(-0.013283234 -0.00057811403 0)
(-0.012893506 -0.00059016393 0)
(-0.012495857 -0.00060185575 0)
(-0.01209053 -0.00061318189 0)
(-0.011677771 -0.00062413501 0)
(-0.01125783 -0.00063470796 0)
(-0.010830964 -0.00064489387 0)
(-0.010397433 -0.00065468608 0)
(-0.0099575027 -0.0006640782 0)
(-0.0095114412 -0.00067306409 0)
(-0.0090595218 -0.00068163787 0)
(-0.0086020213 -0.00068979393 0)
(-0.0081392201 -0.0006975269 0)
(-0.0076714023 -0.00070483172 0)
(-0.0071988552 -0.0007117036 0)
(-0.006721869 -0.000718138 0)
(-0.0062407371 -0.00072413071 0)
(-0.0057557555 -0.00072967777 0)
(-0.0052672228 -0.00073477553 0)
(-0.0047754398 -0.00073942062 0)
(-0.0042807097 -0.00074361 0)
(-0.0037833373 -0.00074734089 0)
(-0.0032836294 -0.00075061082 0)
(-0.0027818943 -0.00075341765 0)
(-0.0022784416 -0.00075575951 0)
(-0.001773582 -0.00075763486 0)
(-0.0012676272 -0.00075904246 0)
(-0.00076088957 -0.00075998137 0)
(-0.00025368208 -0.00076045098 0)
(0.00025368208 -0.00076045098 0)
(0.00076088957 -0.00075998137 0)
(0.0012676272 -0.00075904246 0)
(0.001773582 -0.00075763486 0)
(0.0022784416 -0.00075575951 0)
(0.0027818943 -0.00075341765 0)
(0.0032836294 -0.00075061082 0)
(0.0037833373 -0.00074734089 0)
(0.0042807097 -0.00074361 0)
(0.0047754398 -0.00073942062 0)
(0.0052672228 -0.00073477553 0)
(0.0057557555 -0.00072967777 0)
(0.0062407371 -0.00072413071 0)
(0.006721869 -0.000718138 0)
(0.0071988552 -0.0007117036 0)
(0.0076714023 -0.00070483172 0)
(0.0081392201 -0.0006975269 0)
(0.0086020213 -0.00068979393 0)
(0.0090595218 -0.00068163787 0)
(0.0095114412 -0.00067306409 0)
(0.0099575027 -0.0006640782 0)
(0.010397433 -0.00065468608 0)
(0.010830964 -0.00064489387 0)
(0.01125783 -0.00063470796 0)
(0.011677771 -0.00062413501 0)
(0.01209053 -0.00061318189 0)
(0.012495857 -0.00060185575 0)
(0.012893506 -0.00059016393 0)
(0.013283234 -0.00057811403 0)
(0.013664806 -0.00056571387 0)
(0.01403799 -0.00055297146 0)
(0.014402561 -0.00053989505 0)
(0.014758299 -0.00052649307 0)
(0.015104989 -0.00051277417 0)
(0.015442423 -0.00049874717 0)
(0.015770399 -0.00048442108 0)
(0.016088719 -0.00046980509 0)
(0.016397195 -0.00045490857 0)
(0.016695641 -0.00043974102 0)
(0.01698388 -0.00042431214 0)
(0.017261741 -0.00040863174 0)
(0.017529059 -0.0003927098 0)
(0.017785678 -0.00037655642 0)
(0.018031445 -0.00036018183 0)
(0.018266217 -0.00034359639 0)
(0.018489856 -0.00032681055 0)
(0.018702232 -0.00030983489 0)
(0.018903223 -0.00029268007 0)
(0.019092712 -0.00027535686 0)
(0.01927059 -0.00025787608 0)
(0.019436757 -0.00024024866 0)
(0.019591118 -0.00022248558 0)
(0.019733585 -0.00020459788 0)
(0.01986408 -0.00018659665 0)
(0.019982531 -0.00016849305 0)
(0.020088873 -0.00015029825 0)
(0.020183049 -0.00013202346 0)
(0.020265009 -0.00011367992 0)
(0.020334712 -9.5278866e-05 0)
(0.020392122 -7.6831567e-05 0)
(0.020437213 -5.8349279e-05 0)
(0.020469965 -3.9843259e-05 0)
(0.020490365 -2.1324748e-05 0)
(0.02049841 -2.804973e-06 0)
(0.020494102 1.5704871e-05 0)
(0.020477452 3.4193658e-05 0)
(0.020448477 5.2650244e-05 0)
(0.020407203 7.1063538e-05 0)
(0.020353662 8.942253e-05 0)
(0.020287894 0.00010771626 0)
(0.020209946 0.00012593385 0)
(0.020119873 0.00014406446 0)
(0.020017736 0.00016209736 0)
(0.019903603 0.00018002189 0)
(0.019777552 0.00019782749 0)
(0.019639665 0.00021550368 0)
(0.019490031 0.00023304012 0)
(0.019328747 0.00025042653 0)
(0.019155916 0.00026765278 0)
(0.01897165 0.00028470884 0)
(0.018776064 0.00030158481 0)
(0.018569283 0.00031827093 0)
(0.018351435 0.00033475755 0)
(0.018122658 0.00035103519 0)
(0.017883094 0.0003670945 0)
(0.017632891 0.00038292626 0)
(0.017372205 0.00039852144 0)
(0.017101196 0.00041387113 0)
(0.016820031 0.00042896661 0)
(0.016528882 0.00044379932 0)
(0.016227928 0.00045836085 0)
(0.015917352 0.00047264299 0)
(0.015597343 0.0004866377 0)
(0.015268097 0.00050033709 0)
(0.014929811 0.00051373351 0)
(0.014582691 0.00052681944 0)
(0.014226947 0.0005395876 0)
(0.013862793 0.00055203086 0)
(0.013490448 0.00056414232 0)
(0.013110135 0.00057591526 0)
(0.012722083 0.00058734316 0)
(0.012326524 0.00059841971 0)
(0.011923694 0.00060913881 0)
(0.011513834 0.00061949457 0)
(0.011097189 0.00062948129 0)
(0.010674005 0.00063909352 0)
(0.010244535 0.00064832598 0)
(0.0098090342 0.00065717364 0)
(0.0093677604 0.00066563167 0)
(0.0089209753 0.00067369547 0)
(0.0084689432 0.00068136067 0)
(0.0080119316 0.00068862309 0)
(0.0075502105 0.00069547881 0)
(0.0070840525 0.00070192412 0)
(0.0066137324 0.00070795553 0)
(0.0061395277 0.00071356978 0)
(0.0056617174 0.00071876386 0)
(0.005180583 0.00072353495 0)
(0.0046964075 0.0007278805 0)
(0.0042094756 0.00073179817 0)
(0.0037200734 0.00073528585 0)
(0.0032284884 0.00073834168 0)
(0.0027350093 0.000740964 0)
(0.0022399258 0.00074315142 0)
(0.0017435284 0.00074490277 0)
(0.0012461084 0.0007462171 0)
(0.00074795747 0.00074709371 0)
(0.0002493679 0.00074753213 0)
(-0.00024964211 0.0012464205 0)
(-0.00074877991 0.0012456895 0)
(-0.0012474786 0.0012442279 0)
(-0.0017454456 0.0012420364 0)
(-0.0022423889 0.0012391163 0)
(-0.0027380168 0.0012354691 0)
(-0.0032320386 0.0012310967 0)
(-0.0037241642 0.0012260016 0)
(-0.0042141047 0.0012201863 0)
(-0.0047015723 0.0012136541 0)
(-0.0051862804 0.0012064085 0)
(-0.0056679441 0.0011984534 0)
(-0.0061462801 0.001189793 0)
(-0.0066210067 0.0011804319 0)
(-0.0070918443 0.0011703754 0)
(-0.0075585154 0.0011596287 0)
(-0.0080207448 0.0011481977 0)
(-0.0084782595 0.0011360886 0)
(-0.0089307893 0.0011233079 0)
(-0.0093780665 0.0011098626 0)
(-0.0098198264 0.0010957599 0)
(-0.010255807 0.0010810077 0)
(-0.01068575 0.0010656138 0)
(-0.0111094 0.0010495866 0)
(-0.011526505 0.0010329351 0)
(-0.011936817 0.0010156682 0)
(-0.012340091 0.00099779554 0)
(-0.012736086 0.00097932684 0)
(-0.013124566 0.00096027232 0)
(-0.013505299 0.00094064248 0)
(-0.013878055 0.0009204482 0)
(-0.014242611 0.00089970067 0)
(-0.014598749 0.00087841142 0)
(-0.014946252 0.00085659231 0)
(-0.015284911 0.0008342555 0)
(-0.015614522 0.00081141351 0)
(-0.015934885 0.00078807913 0)
(-0.016245804 0.00076426547 0)
(-0.016547092 0.00073998596 0)
(-0.016838563 0.00071525429 0)
(-0.017120039 0.00069008447 0)
(-0.017391349 0.00066449078 0)
(-0.017652324 0.00063848777 0)
(-0.017902804 0.00061209027 0)
(-0.018142635 0.00058531337 0)
(-0.018371666 0.00055817241 0)
(-0.018589756 0.00053068299 0)
(-0.018796767 0.00050286093 0)
(-0.018992571 0.0004747223 0)
(-0.019177042 0.00044628339 0)
(-0.019350065 0.00041756071 0)
(-0.019511529 0.00038857097 0)
(-0.019661331 0.00035933107 0)
(-0.019799372 0.00032985812 0)
(-0.019925565 0.00030016941 0)
(-0.020039825 0.00027028238 0)
(-0.020142077 0.00024021465 0)
(-0.020232252 0.00020998399 0)
(-0.020310289 0.0001796083 0)
(-0.020376132 0.00014910563 0)
(-0.020429735 0.00011849414 0)
(-0.020471057 8.7792104e-05 0)
(-0.020500066 5.7017888e-05 0)
(-0.020516737 2.6189969e-05 0)
(-0.020521052 -4.6730976e-06 0)
(-0.020513001 -3.5552723e-05 0)
(-0.02049258 -6.6430243e-05 0)
(-0.020459794 -9.7286944e-05 0)
(-0.020414656 -0.00012810408 0)
(-0.020357185 -0.00015886289 0)
(-0.020287408 -0.00018954459 0)
(-0.020205359 -0.00022013042 0)
(-0.020111082 -0.00025060162 0)
(-0.020004624 -0.00028093945 0)
(-0.019886045 -0.00031112522 0)
(-0.019755408 -0.0003411403 0)
(-0.019612785 -0.00037096609 0)
(-0.019458256 -0.00040058412 0)
(-0.019291908 -0.00042997594 0)
(-0.019113835 -0.00045912327 0)
(-0.018924138 -0.00048800789 0)
(-0.018722927 -0.00051661172 0)
(-0.018510318 -0.00054491684 0)
(-0.018286433 -0.00057290546 0)
(-0.018051403 -0.00060055995 0)
(-0.017805366 -0.00062786286 0)
(-0.017548465 -0.00065479695 0)
(-0.017280853 -0.00068134513 0)
(-0.017002686 -0.00070749058 0)
(-0.016714129 -0.00073321666 0)
(-0.016415354 -0.000758507 0)
(-0.016106539 -0.00078334544 0)
(-0.015787867 -0.00080771612 0)
(-0.01545953 -0.00083160343 0)
(-0.015121723 -0.00085499204 0)
(-0.01477465 -0.00087786694 0)
(-0.01441852 -0.0009002134 0)
(-0.014053546 -0.00092201702 0)
(-0.01367995 -0.00094326372 0)
(-0.013297956 -0.00096393977 0)
(-0.012907797 -0.00098403179 0)
(-0.012509709 -0.0010035268 0)
(-0.012103934 -0.001022412 0)
(-0.011690717 -0.0010406753 0)
(-0.011270312 -0.0010583046 0)
(-0.010842973 -0.0010752886 0)
(-0.010408963 -0.0010916162 0)
(-0.0099685449 -0.0011072767 0)
(-0.0095219894 -0.0011222598 0)
(-0.0090695693 -0.0011365557 0)
(-0.0086115619 -0.0011501552 0)
(-0.0081482479 -0.0011630492 0)
(-0.0076799116 -0.0011752293 0)
(-0.0072068406 -0.0011866875 0)
(-0.0067293257 -0.0011974163 0)
(-0.0062476603 -0.0012074085 0)
(-0.0057621409 -0.0012166577 0)
(-0.0052730664 -0.0012251578 0)
(-0.004780738 -0.001232903 0)
(-0.0042854591 -0.0012398884 0)
(-0.003787535 -0.0012461093 0)
(-0.0032872727 -0.0012515616 0)
(-0.002784981 -0.0012562418 0)
(-0.0022809697 -0.0012601466 0)
(-0.0017755499 -0.0012632736 0)
(-0.0012690337 -0.0012656206 0)
(-0.00076173387 -0.0012671862 0)
(-0.00025396357 -0.0012679692 0)
(0.00025396357 -0.0012679692 0)
(0.00076173387 -0.0012671862 0)
(0.0012690337 -0.0012656206 0)
(0.0017755499 -0.0012632736 0)
(0.0022809697 -0.0012601466 0)
(0.002784981 -0.0012562418 0)
(0.0032872727 -0.0012515616 0)
(0.003787535 -0.0012461093 0)
(0.0042854591 -0.0012398884 0)
(0.004780738 -0.001232903 0)
(0.0052730664 -0.0012251578 0)
(0.0057621409 -0.0012166577 0)
(0.0062476603 -0.0012074085 0)
(0.0067293257 -0.0011974163 0)
(0.0072068406 -0.0011866875 0)
(0.0076799116 -0.0011752293 0)
(0.0081482479 -0.0011630492 0)
(0.0086115619 -0.0011501552 0)
(0.0090695693 -0.0011365557 0)
(0.0095219894 -0.0011222598 0)
(0.0099685449 -0.0011072767 0)
(0.010408963 -0.0010916162 0)
(0.010842973 -0.0010752886 0)
(0.011270312 -0.0010583046 0)
(0.011690717 -0.0010406753 0)
(0.012103934 -0.001022412 0)
(0.012509709 -0.0010035268 0)
(0.012907797 -0.00098403179 0)
(0.013297956 -0.00096393977 0)
(0.01367995 -0.00094326372 0)
(0.014053546 -0.00092201702 0)
(0.01441852 -0.0009002134 0)
(0.01477465 -0.00087786694 0)
(0.015121723 -0.00085499204 0)
(0.01545953 -0.00083160343 0)
(0.015787867 -0.00080771612 0)
(0.016106539 -0.00078334544 0)
(0.016415354 -0.000758507 0)
(0.016714129 -0.00073321666 0)
(0.017002686 -0.00070749058 0)
(0.017280853 -0.00068134513 0)
(0.017548465 -0.00065479695 0)
(0.017805366 -0.00062786286 0)
(0.018051403 -0.00060055995 0)
(0.018286433 -0.00057290546 0)
(0.018510318 -0.00054491684 0)
(0.018722927 -0.00051661172 0)
(0.018924138 -0.00048800789 0)
(0.019113835 -0.00045912327 0)
(0.019291908 -0.00042997594 0)
(0.019458256 -0.00040058412 0)
(0.019612785 -0.00037096609 0)
(0.019755408 -0.0003411403 0)
(0.019886045 -0.00031112522 0)
(0.020004624 -0.00028093945 0)
(0.020111082 -0.00025060162 0)
(0.020205359 -0.00022013042 0)
(0.020287408 -0.00018954459 0)
(0.020357185 -0.00015886289 0)
(0.020414656 -0.00012810408 0)
(0.020459794 -9.7286944e-05 0)
(0.02049258 -6.6430243e-05 0)
(0.020513001 -3.5552723e-05 0)
(0.020521052 -4.6730974e-06 0)
(0.020516737 2.6189969e-05 0)
(0.020500066 5.7017888e-05 0)
(0.020471057 8.7792104e-05 0)
(0.020429735 0.00011849414 0)
(0.020376132 0.00014910563 0)
(0.020310289 0.0001796083 0)
(0.020232252 0.00020998399 0)
(0.020142077 0.00024021465 0)
(0.020039825 0.00027028238 0)
(0.019925565 0.00030016941 0)
(0.019799372 0.00032985812 0)
(0.019661331 0.00035933107 0)
(0.019511529 0.00038857097 0)
(0.019350065 0.00041756071 0)
(0.019177042 0.00044628339 0)
(0.018992571 0.0004747223 0)
(0.018796767 0.00050286093 0)
(0.018589756 0.00053068299 0)
(0.018371666 0.00055817241 0)
(0.018142635 0.00058531337 0)
(0.017902804 0.00061209027 0)
(0.017652324 0.00063848777 0)
(0.017391349 0.00066449078 0)
(0.017120039 0.00069008447 0)
(0.016838563 0.00071525429 0)
(0.016547092 0.00073998596 0)
(0.016245804 0.00076426547 0)
(0.015934885 0.00078807913 0)
(0.015614522 0.00081141351 0)
(0.015284911 0.0008342555 0)
(0.014946252 0.00085659231 0)
(0.014598749 0.00087841142 0)
(0.014242611 0.00089970067 0)
(0.013878055 0.0009204482 0)
(0.013505299 0.00094064248 0)
(0.013124566 0.00096027232 0)
(0.012736086 0.00097932684 0)
(0.012340091 0.00099779554 0)
(0.011936817 0.0010156682 0)
(0.011526505 0.0010329351 0)
(0.0111094 0.0010495866 0)
(0.01068575 0.0010656138 0)
(0.010255807 0.0010810077 0)
(0.0098198264 0.0010957599 0)
(0.0093780665 0.0011098626 0)
(0.0089307893 0.0011233079 0)
(0.0084782595 0.0011360886 0)
(0.0080207448 0.0011481977 0)
(0.0075585154 0.0011596287 0)
(0.0070918443 0.0011703754 0)
(0.0066210067 0.0011804319 0)
(0.0061462801 0.001189793 0)
(0.0056679441 0.0011984534 0)
(0.0051862804 0.0012064085 0)
(0.0047015723 0.0012136541 0)
(0.0042141047 0.0012201863 0)
(0.0037241642 0.0012260016 0)
(0.0032320386 0.0012310967 0)
(0.0027380168 0.0012354691 0)
(0.0022423889 0.0012391163 0)
(0.0017454456 0.0012420364 0)
(0.0012474786 0.0012442279 0)
(0.00074877991 0.0012456895 0)
(0.00024964211 0.0012464205 0)
(-0.00025001768 0.0017459587 0)
(-0.00074990642 0.0017449347 0)
(-0.0012493554 0.0017428873 0)
(-0.0017480716 0.0017398176 0)
(-0.0022457625 0.0017357272 0)
(-0.0027421361 0.0017306183 0)
(-0.0032369012 0.0017244936 0)
(-0.0037297673 0.0017173564 0)
(-0.004220445 0.0017092107 0)
(-0.0047086461 0.0017000606 0)
(-0.0051940836 0.0016899112 0)
(-0.0056764721 0.0016787679 0)
(-0.0061555279 0.0016666366 0)
(-0.006630969 0.001653524 0)
(-0.0071025153 0.0016394371 0)
(-0.0075698889 0.0016243835 0)
(-0.008032814 0.0016083714 0)
(-0.0084910175 0.0015914093 0)
(-0.0089442286 0.0015735065 0)
(-0.0093921793 0.0015546728 0)
(-0.0098346043 0.0015349182 0)
(-0.010271242 0.0015142537 0)
(-0.010701832 0.0014926904 0)
(-0.01112612 0.0014702401 0)
(-0.011543854 0.0014469151 0)
(-0.011954784 0.0014227282 0)
(-0.012358665 0.0013976927 0)
(-0.012755257 0.0013718223 0)
(-0.013144323 0.0013451313 0)
(-0.013525629 0.0013176344 0)
(-0.013898947 0.0012893468 0)
(-0.014264053 0.0012602843 0)
(-0.014620728 0.0012304629 0)
(-0.014968755 0.0011998993 0)
(-0.015307925 0.0011686105 0)
(-0.015638033 0.0011366141 0)
(-0.015958879 0.0011039279 0)
(-0.016270268 0.0010705704 0)
(-0.01657201 0.0010365603 0)
(-0.016863921 0.0010019168 0)
(-0.017145823 0.00096665962 0)
(-0.017417542 0.00093080864 0)
(-0.017678912 0.00089438428 0)
(-0.017929771 0.00085740733 0)
(-0.018169964 0.00081989891 0)
(-0.018399341 0.00078188052 0)
(-0.018617761 0.000743374 0)
(-0.018825086 0.00070440153 0)
(-0.019021185 0.0006649856 0)
(-0.019205937 0.00062514904 0)
(-0.019379222 0.00058491497 0)
(-0.01954093 0.00054430679 0)
(-0.019690959 0.00050334819 0)
(-0.01982921 0.00046206313 0)
(-0.019955595 0.00042047583 0)
(-0.020070029 0.00037861071 0)
(-0.020172437 0.00033649247 0)
(-0.020262749 0.00029414598 0)
(-0.020340905 0.00025159633 0)
(-0.020406849 0.00020886881 0)
(-0.020460534 0.00016598883 0)
(-0.02050192 0.00012298202 0)
(-0.020530975 7.9874088e-05 0)
(-0.020547673 3.6690922e-05 0)
(-0.020551996 -6.541504e-06 0)
(-0.020543934 -4.9797131e-05 0)
(-0.020523484 -9.3049815e-05 0)
(-0.020490651 -0.00013627334 0)
(-0.020445446 -0.00017944146 0)
(-0.02038789 -0.00022252789 0)
(-0.020318009 -0.00026550631 0)
(-0.020235839 -0.00030835045 0)
(-0.020141421 -0.00035103402 0)
(-0.020034805 -0.00039353079 0)
(-0.019916048 -0.00043581456 0)
(-0.019785215 -0.00047785924 0)
(-0.019642379 -0.00051963879 0)
(-0.019487618 -0.00056112729 0)
(-0.019321021 -0.00060229897 0)
(-0.019142681 -0.00064312814 0)
(-0.018952699 -0.00068358934 0)
(-0.018751186 -0.00072365723 0)
(-0.018538257 -0.00076330669 0)
(-0.018314036 -0.00080251281 0)
(-0.018078653 -0.00084125089 0)
(-0.017832246 -0.00087949651 0)
(-0.017574959 -0.00091722547 0)
(-0.017306944 -0.00095441389 0)
(-0.017028358 -0.00099103816 0)
(-0.016739367 -0.001027075 0)
(-0.016440143 -0.0010625014 0)
(-0.016130862 -0.0010972949 0)
(-0.015811711 -0.0011314331 0)
(-0.015482878 -0.0011648943 0)
(-0.015144563 -0.0011976568 0)
(-0.014796967 -0.0012296998 0)
(-0.014440299 -0.0012610025 0)
(-0.014074775 -0.0012915449 0)
(-0.013700615 -0.0013213071 0)
(-0.013318046 -0.00135027 0)
(-0.012927298 -0.0013784147 0)
(-0.012528609 -0.0014057232 0)
(-0.012122222 -0.0014321775 0)
(-0.011708382 -0.0014577606 0)
(-0.011287342 -0.0014824557 0)
(-0.010859358 -0.0015062468 0)
(-0.010424692 -0.0015291184 0)
(-0.0099836094 -0.0015510555 0)
(-0.0095363795 -0.0015720437 0)
(-0.0090832762 -0.0015920695 0)
(-0.0086245769 -0.0016111195 0)
(-0.0081605631 -0.0016291814 0)
(-0.0076915193 -0.0016462432 0)
(-0.0072177336 -0.0016622938 0)
(-0.0067394971 -0.0016773226 0)
(-0.0062571039 -0.0016913198 0)
(-0.0057708509 -0.001704276 0)
(-0.0052810373 -0.0017161828 0)
(-0.0047879648 -0.0017270324 0)
(-0.0042919373 -0.0017368175 0)
(-0.0037932605 -0.0017455317 0)
(-0.0032922421 -0.0017531693 0)
(-0.0027891911 -0.0017597252 0)
(-0.0022844179 -0.0017651951 0)
(-0.0017782341 -0.0017695753 0)
(-0.0012709522 -0.0017728631 0)
(-0.00076288542 -0.0017750561 0)
(-0.0002543475 -0.001776153 0)
(0.0002543475 -0.001776153 0)
(0.00076288543 -0.0017750561 0)
(0.0012709522 -0.0017728631 0)
(0.0017782341 -0.0017695753 0)
(0.0022844179 -0.0017651951 0)
(0.0027891911 -0.0017597252 0)
(0.0032922421 -0.0017531693 0)
(0.0037932605 -0.0017455317 0)
(0.0042919373 -0.0017368175 0)
(0.0047879648 -0.0017270324 0)
(0.0052810373 -0.0017161828 0)
(0.0057708509 -0.001704276 0)
(0.0062571039 -0.0016913198 0)
(0.0067394971 -0.0016773226 0)
(0.0072177336 -0.0016622938 0)
(0.0076915193 -0.0016462432 0)
(0.0081605631 -0.0016291814 0)
(0.0086245769 -0.0016111195 0)
(0.0090832762 -0.0015920695 0)
(0.0095363795 -0.0015720437 0)
(0.0099836094 -0.0015510555 0)
(0.010424692 -0.0015291184 0)
(0.010859358 -0.0015062468 0)
(0.011287342 -0.0014824557 0)
(0.011708382 -0.0014577606 0)
(0.012122222 -0.0014321775 0)
(0.012528609 -0.0014057232 0)
(0.012927298 -0.0013784147 0)
(0.013318046 -0.00135027 0)
(0.013700615 -0.0013213071 0)
(0.014074775 -0.0012915449 0)
(0.014440299 -0.0012610025 0)
(0.014796967 -0.0012296998 0)
(0.015144563 -0.0011976568 0)
(0.015482878 -0.0011648943 0)
(0.015811711 -0.0011314331 0)
(0.016130862 -0.0010972949 0)
(0.016440143 -0.0010625014 0)
(0.016739367 -0.001027075 0)
(0.017028358 -0.00099103816 0)
(0.017306944 -0.00095441389 0)
(0.017574959 -0.00091722547 0)