/*--------------------------------*- C++ -*----------------------------------*\
| =========                 |                                                 |
| \\      /  F ield         | OpenFOAM: The Open Source CFD Toolbox           |
|  \\    /   O peration     | Version:  2106                                  |
|   \\  /    A nd           | Website:  www.openfoam.com                      |
|    \\/     M anipulation  |                                                 |
\*---------------------------------------------------------------------------*/
FoamFile
{
    version     2.0;
    format      ascii;
    arch        "LSB;label=32;scalar=64";
    class       volVectorField;
    location    "0.048";
    object      U_0;
}
// * * * * * * * * * * * * * * * * * * * * * * * * * * * * * * * * * * * * * //

dimensions      [0 1 -1 0 0 0 0];

internalField   nonuniform List<vector> 
65536
(
(-0.00024907149 0.00024900813 0)
(-0.0007470684 0.00024886209 0)
(-0.0012446272 0.00024857009 0)
(-0.0017414559 0.00024813228 0)
(-0.0022372633 0.00024754891 0)
(-0.0027317583 0.00024682027 0)
(-0.0032246508 0.00024594676 0)
(-0.0037156514 0.00024492886 0)
(-0.0042044718 0.0002437671 0)
(-0.0046908249 0.00024246211 0)
(-0.0051744249 0.00024101459 0)
(-0.0056549873 0.00023942532 0)
(-0.0061322294 0.00023769515 0)
(-0.0066058705 0.00023582502 0)
(-0.0070756313 0.00023381594 0)
(-0.0075412351 0.00023166898 0)
(-0.0080024073 0.00022938531 0)
(-0.0084588755 0.00022696617 0)
(-0.00891037 0.00022441287 0)
(-0.0093566239 0.00022172678 0)
(-0.0097973729 0.00021890937 0)
(-0.010232356 0.00021596218 0)
(-0.010661315 0.00021288681 0)
(-0.011083995 0.00020968494 0)
(-0.011500145 0.00020635832 0)
(-0.011909518 0.00020290877 0)
(-0.012311868 0.00019933819 0)
(-0.012706957 0.00019564854 0)
(-0.013094547 0.00019184186 0)
(-0.013474407 0.00018792024 0)
(-0.01384631 0.00018388585 0)
(-0.014210031 0.00017974094 0)
(-0.014565351 0.00017548781 0)
(-0.014912058 0.00017112882 0)
(-0.015249941 0.00016666641 0)
(-0.015578796 0.00016210307 0)
(-0.015898424 0.00015744136 0)
(-0.01620863 0.00015268391 0)
(-0.016509226 0.00014783338 0)
(-0.016800028 0.00014289253 0)
(-0.017080858 0.00013786414 0)
(-0.017351545 0.00013275107 0)
(-0.01761192 0.00012755623 0)
(-0.017861825 0.00012228258 0)
(-0.018101104 0.00011693313 0)
(-0.018329609 0.00011151095 0)
(-0.018547197 0.00010601915 0)
(-0.018753732 0.00010046091 0)
(-0.018949084 9.4839414e-05 0)
(-0.019133131 8.9157932e-05 0)
(-0.019305755 8.3419758e-05 0)
(-0.019466847 7.762823e-05 0)
(-0.019616302 7.1786727e-05 0)
(-0.019754025 6.5898665e-05 0)
(-0.019879926 5.9967498e-05 0)
(-0.019993922 5.3996711e-05 0)
(-0.020095937 4.7989824e-05 0)
(-0.020185903 4.1950387e-05 0)
(-0.020263758 3.5881976e-05 0)
(-0.020329447 2.9788198e-05 0)
(-0.020382924 2.3672679e-05 0)
(-0.020424149 1.7539068e-05 0)
(-0.020453088 1.139102e-05 0)
(-0.020469718 5.2322521e-06 0)
(-0.02047402 -9.334713e-07 0)
(-0.020465985 -7.1025842e-06 0)
(-0.020445608 -1.3271257e-05 0)
(-0.020412894 -1.9435767e-05 0)
(-0.020367857 -2.5592374e-05 0)
(-0.020310515 -3.1737327e-05 0)
(-0.020240894 -3.7866878e-05 0)
(-0.020159031 -4.3977274e-05 0)
(-0.020064967 -5.0064769e-05 0)
(-0.019958751 -5.6125621e-05 0)
(-0.019840441 -6.2156096e-05 0)
(-0.0197101 -6.8152469e-05 0)
(-0.019567802 -7.4111029e-05 0)
(-0.019413625 -8.002808e-05 0)
(-0.019247655 -8.5899942e-05 0)
(-0.019069988 -9.1722958e-05 0)
(-0.018880724 -9.749349e-05 0)
(-0.018679972 -0.00010320793 0)
(-0.018467848 -0.00010886269 0)
(-0.018244475 -0.00011445422 0)
(-0.018009982 -0.000119979 0)
(-0.017764507 -0.00012543355 0)
(-0.017508194 -0.0001308144 0)
(-0.017241193 -0.00013611817 0)
(-0.016963662 -0.00014134147 0)
(-0.016675766 -0.000146481 0)
(-0.016377675 -0.00015153347 0)
(-0.016069567 -0.00015649567 0)
(-0.015751625 -0.00016136441 0)
(-0.015424039 -0.00016613659 0)
(-0.015087006 -0.00017080914 0)
(-0.014740728 -0.00017537906 0)
(-0.014385414 -0.00017984341 0)
(-0.014021277 -0.00018419931 0)
(-0.013648537 -0.00018844395 0)
(-0.013267419 -0.00019257458 0)
(-0.012878155 -0.00019658854 0)
(-0.01248098 -0.00020048322 0)
(-0.012076135 -0.0002042561 0)
(-0.011663866 -0.00020790471 0)
(-0.011244425 -0.00021142668 0)
(-0.010818068 -0.00021481973 0)
(-0.010385053 -0.00021808163 0)
(-0.0099456462 -0.00022121026 0)
(-0.0095001157 -0.00022420357 0)
(-0.0090487342 -0.0002270596 0)
(-0.0085917784 -0.00022977647 0)
(-0.0081295282 -0.00023235242 0)
(-0.0076622674 -0.00023478575 0)
(-0.0071902828 -0.00023707485 0)
(-0.0067138646 -0.00023921823 0)
(-0.0062333056 -0.00024121448 0)
(-0.0057489015 -0.00024306227 0)
(-0.0052609505 -0.0002447604 0)
(-0.0047697531 -0.00024630774 0)
(-0.0042756121 -0.00024770327 0)
(-0.0037788319 -0.00024894607 0)
(-0.0032797191 -0.00025003533 0)
(-0.0027785815 -0.00025097032 0)
(-0.0022757283 -0.00025175042 0)
(-0.0017714699 -0.00025237512 0)
(-0.0012661176 -0.00025284401 0)
(-0.00075998346 -0.00025315678 0)
(-0.00025337998 -0.00025331321 0)
(0.00025337998 -0.00025331321 0)
(0.00075998346 -0.00025315678 0)
(0.0012661176 -0.00025284401 0)
(0.0017714699 -0.00025237512 0)
(0.0022757283 -0.00025175042 0)
(0.0027785815 -0.00025097032 0)
(0.0032797191 -0.00025003533 0)
(0.0037788319 -0.00024894607 0)
(0.0042756121 -0.00024770327 0)
(0.0047697531 -0.00024630774 0)
(0.0052609505 -0.0002447604 0)
(0.0057489015 -0.00024306227 0)
(0.0062333056 -0.00024121448 0)
(0.0067138646 -0.00023921823 0)
(0.0071902828 -0.00023707485 0)
(0.0076622674 -0.00023478575 0)
(0.0081295282 -0.00023235242 0)
(0.0085917784 -0.00022977647 0)
(0.0090487342 -0.00022705959 0)
(0.0095001157 -0.00022420357 0)
(0.0099456462 -0.00022121026 0)
(0.010385053 -0.00021808163 0)
(0.010818068 -0.00021481973 0)
(0.011244425 -0.00021142668 0)
(0.011663866 -0.00020790471 0)
(0.012076135 -0.0002042561 0)
(0.01248098 -0.00020048322 0)
(0.012878155 -0.00019658854 0)
(0.013267419 -0.00019257458 0)
(0.013648537 -0.00018844395 0)
(0.014021277 -0.00018419931 0)
(0.014385414 -0.00017984341 0)
(0.014740728 -0.00017537906 0)
(0.015087006 -0.00017080914 0)
(0.015424039 -0.00016613659 0)
(0.015751625 -0.00016136441 0)
(0.016069567 -0.00015649567 0)
(0.016377675 -0.00015153347 0)
(0.016675766 -0.000146481 0)
(0.016963662 -0.00014134147 0)
(0.017241193 -0.00013611817 0)
(0.017508194 -0.0001308144 0)
(0.017764507 -0.00012543355 0)
(0.018009982 -0.000119979 0)
(0.018244475 -0.00011445422 0)
(0.018467848 -0.00010886269 0)
(0.018679972 -0.00010320793 0)
(0.018880724 -9.749349e-05 0)
(0.019069988 -9.1722958e-05 0)
(0.019247655 -8.5899942e-05 0)
(0.019413625 -8.002808e-05 0)
(0.019567802 -7.4111029e-05 0)
(0.0197101 -6.8152469e-05 0)
(0.019840441 -6.2156096e-05 0)
(0.019958751 -5.6125621e-05 0)
(0.020064967 -5.0064769e-05 0)
(0.020159031 -4.3977274e-05 0)
(0.020240894 -3.7866877e-05 0)
(0.020310515 -3.1737327e-05 0)
(0.020367857 -2.5592374e-05 0)
(0.020412894 -1.9435767e-05 0)
(0.020445608 -1.3271257e-05 0)
(0.020465985 -7.1025841e-06 0)
(0.02047402 -9.3347123e-07 0)
(0.020469718 5.2322522e-06 0)
(0.020453088 1.139102e-05 0)
(0.020424149 1.7539068e-05 0)
(0.020382924 2.3672679e-05 0)
(0.020329447 2.9788198e-05 0)
(0.020263758 3.5881976e-05 0)
(0.020185903 4.1950387e-05 0)
(0.020095937 4.7989824e-05 0)
(0.019993922 5.3996711e-05 0)
(0.019879926 5.9967498e-05 0)
(0.019754025 6.5898666e-05 0)
(0.019616302 7.1786727e-05 0)
(0.019466847 7.762823e-05 0)
(0.019305755 8.3419758e-05 0)
(0.019133131 8.9157932e-05 0)
(0.018949084 9.4839414e-05 0)
(0.018753732 0.00010046091 0)
(0.018547197 0.00010601915 0)
(0.018329609 0.00011151095 0)
(0.018101104 0.00011693313 0)
(0.017861825 0.00012228258 0)
(0.01761192 0.00012755623 0)
(0.017351545 0.00013275107 0)
(0.017080858 0.00013786414 0)
(0.016800028 0.00014289253 0)
(0.016509226 0.00014783338 0)
(0.01620863 0.00015268391 0)
(0.015898424 0.00015744136 0)
(0.015578796 0.00016210307 0)
(0.015249941 0.00016666641 0)
(0.014912058 0.00017112882 0)
(0.014565351 0.00017548781 0)
(0.014210031 0.00017974094 0)
(0.01384631 0.00018388585 0)
(0.013474407 0.00018792024 0)
(0.013094547 0.00019184186 0)
(0.012706957 0.00019564854 0)
(0.012311868 0.00019933819 0)
(0.011909518 0.00020290877 0)
(0.011500145 0.00020635832 0)
(0.011083995 0.00020968494 0)
(0.010661315 0.00021288681 0)
(0.010232356 0.00021596218 0)
(0.0097973729 0.00021890937 0)
(0.0093566239 0.00022172678 0)
(0.00891037 0.00022441287 0)
(0.0084588755 0.00022696617 0)
(0.0080024073 0.00022938531 0)
(0.0075412351 0.00023166898 0)
(0.0070756313 0.00023381594 0)
(0.0066058705 0.00023582502 0)
(0.0061322294 0.00023769515 0)
(0.0056549873 0.00023942532 0)
(0.0051744249 0.00024101459 0)
(0.0046908249 0.00024246211 0)
(0.0042044718 0.0002437671 0)
(0.0037156514 0.00024492886 0)
(0.0032246508 0.00024594676 0)
(0.0027317583 0.00024682027 0)
(0.0022372633 0.00024754891 0)
(0.0017414559 0.00024813228 0)
(0.0012446272 0.00024857009 0)
(0.0007470684 0.0002488621 0)
(0.00024907149 0.00024900813 0)
(-0.00024924471 0.00074716289 0)
(-0.00074758797 0.00074672469 0)
(-0.0012454928 0.00074584853 0)
(-0.0017426671 0.00074453487 0)
(-0.0022388193 0.00074278442 0)
(-0.0027336583 0.00074059811 0)
(-0.0032268937 0.00073797712 0)
(-0.003718236 0.00073492286 0)
(-0.0042073965 0.00073143696 0)
(-0.0046940881 0.00072752128 0)
(-0.0051780247 0.00072317795 0)
(-0.0056589216 0.00071840928 0)
(-0.0061364961 0.00071321785 0)
(-0.006610467 0.00070760646 0)
(-0.0070805552 0.00070157812 0)
(-0.0075464835 0.00069513609 0)
(-0.008007977 0.00068828386 0)
(-0.0084647635 0.00068102512 0)
(-0.0089165729 0.00067336382 0)
(-0.0093631382 0.00066530411 0)
(-0.0098041948 0.00065685037 0)
(-0.010239482 0.0006480072 0)
(-0.01066874 0.00063877942 0)
(-0.011091716 0.00062917207 0)
(-0.011508157 0.0006191904 0)
(-0.011917816 0.00060883989 0)
(-0.012320448 0.00059812621 0)
(-0.012715813 0.00058705526 0)
(-0.013103675 0.00057563313 0)
(-0.013483801 0.00056386614 0)
(-0.013855964 0.00055176079 0)
(-0.01421994 0.0005393238 0)
(-0.01457551 0.00052656208 0)
(-0.01492246 0.00051348273 0)
(-0.015260581 0.00050009306 0)
(-0.015589667 0.00048640055 0)
(-0.01590952 0.00047241287 0)
(-0.016219945 0.0004581379 0)
(-0.016520753 0.00044358367 0)
(-0.01681176 0.00042875839 0)
(-0.017092789 0.00041367047 0)
(-0.017363666 0.00039832845 0)
(-0.017624226 0.00038274107 0)
(-0.017874308 0.00036691721 0)
(-0.018113757 0.00035086591 0)
(-0.018342424 0.00033459638 0)
(-0.018560167 0.00031811796 0)
(-0.018766849 0.00030144014 0)
(-0.018962341 0.00028457256 0)
(-0.019146519 0.00026752496 0)
(-0.019319267 0.00025030726 0)
(-0.019480474 0.00023292946 0)
(-0.019630037 0.00021540171 0)
(-0.019767859 0.00019773425 0)
(-0.019893851 0.00017993744 0)
(-0.02000793 0.00016202176 0)
(-0.02011002 0.00014399775 0)
(-0.020200051 0.00012587606 0)
(-0.020277964 0.00010766744 0)
(-0.020343702 8.9382695e-05 0)
(-0.02039722 7.1032715e-05 0)
(-0.020438477 5.262845e-05 0)
(-0.02046744 3.4180904e-05 0)
(-0.020484085 1.5701164e-05 0)
(-0.020488393 -2.7996327e-06 0)
(-0.020480355 -2.1310365e-05 0)
(-0.020459967 -3.9819843e-05 0)
(-0.020427233 -5.8316846e-05 0)
(-0.020382167 -7.6790138e-05 0)
(-0.020324788 -9.5228467e-05 0)
(-0.020255122 -0.00011362058 0)
(-0.020173204 -0.00013195523 0)
(-0.020079077 -0.00015022116 0)
(-0.019972789 -0.00016840715 0)
(-0.019854399 -0.00018650199 0)
(-0.019723969 -0.00020449452 0)
(-0.019581574 -0.00022237358 0)
(-0.019427291 -0.0002401281 0)
(-0.019261207 -0.00025774703 0)
(-0.019083418 -0.00027521939 0)
(-0.018894023 -0.00029253428 0)
(-0.018693133 -0.00030968086 0)
(-0.018480862 -0.00032664837 0)
(-0.018257333 -0.00034342616 0)
(-0.018022678 -0.00036000366 0)
(-0.017777032 -0.00037637042 0)
(-0.017520541 -0.00039251607 0)
(-0.017253354 -0.00040843041 0)
(-0.016975629 -0.00042410332 0)
(-0.016687532 -0.00043952485 0)
(-0.016389233 -0.00045468517 0)
(-0.016080909 -0.00046957461 0)
(-0.015762744 -0.00048418365 0)
(-0.01543493 -0.00049850293 0)
(-0.01509766 -0.00051252327 0)
(-0.01475114 -0.00052623567 0)
(-0.014395576 -0.00053963129 0)
(-0.014031183 -0.00055270151 0)
(-0.013658181 -0.00056543789 0)
(-0.013276796 -0.00057783219 0)
(-0.012887257 -0.00058987639 0)
(-0.012489803 -0.00060156268 0)
(-0.012084673 -0.00061288348 0)
(-0.011672114 -0.00062383143 0)
(-0.011252377 -0.0006343994 0)
(-0.010825719 -0.00064458051 0)
(-0.010392399 -0.00065436811 0)
(-0.0099526821 -0.00066375581 0)
(-0.0095068372 -0.00067273748 0)
(-0.009055137 -0.00068130723 0)
(-0.0085978584 -0.00068945945 0)
(-0.0081352816 -0.00069718879 0)
(-0.0076676906 -0.00070449018 0)
(-0.0071953724 -0.00071135883 0)
(-0.0067186173 -0.00071779022 0)
(-0.0062377184 -0.00072378011 0)
(-0.0057529716 -0.00072932457 0)
(-0.0052646754 -0.00073441994 0)
(-0.0047731304 -0.00073906287 0)
(-0.0042786396 -0.00074325028 0)
(-0.0037815079 -0.00074697942 0)
(-0.0032820417 -0.00075024782 0)
(-0.0027805492 -0.00075305333 0)
(-0.00227734 -0.0007553941 0)
(-0.0017727245 -0.00075726857 0)
(-0.0012670143 -0.00075867551 0)
(-0.00076052171 -0.00075961399 0)
(-0.00025355943 -0.00076008338 0)
(0.00025355944 -0.00076008338 0)
(0.00076052171 -0.00075961399 0)
(0.0012670143 -0.00075867551 0)
(0.0017727245 -0.00075726857 0)
(0.00227734 -0.0007553941 0)
(0.0027805492 -0.00075305333 0)
(0.0032820417 -0.00075024782 0)
(0.0037815079 -0.00074697942 0)
(0.0042786396 -0.00074325028 0)
(0.0047731304 -0.00073906287 0)
(0.0052646754 -0.00073441994 0)
(0.0057529716 -0.00072932457 0)
(0.0062377184 -0.00072378011 0)
(0.0067186173 -0.00071779022 0)
(0.0071953724 -0.00071135883 0)
(0.0076676906 -0.00070449018 0)
(0.0081352816 -0.00069718879 0)
(0.0085978584 -0.00068945945 0)
(0.009055137 -0.00068130723 0)
(0.0095068372 -0.00067273748 0)
(0.0099526821 -0.00066375581 0)
(0.010392399 -0.00065436811 0)
(0.010825719 -0.00064458051 0)
(0.011252377 -0.0006343994 0)
(0.011672114 -0.00062383143 0)
(0.012084673 -0.00061288348 0)
(0.012489803 -0.00060156268 0)
(0.012887257 -0.00058987639 0)
(0.013276796 -0.00057783219 0)
(0.013658181 -0.00056543789 0)
(0.014031183 -0.00055270151 0)
(0.014395576 -0.00053963129 0)
(0.01475114 -0.00052623567 0)
(0.01509766 -0.00051252327 0)
(0.01543493 -0.00049850293 0)
(0.015762744 -0.00048418365 0)
(0.016080909 -0.00046957461 0)
(0.016389233 -0.00045468517 0)
(0.016687532 -0.00043952485 0)
(0.016975629 -0.00042410332 0)
(0.017253354 -0.00040843041 0)
(0.017520541 -0.00039251607 0)
(0.017777032 -0.00037637042 0)
(0.018022678 -0.00036000366 0)
(0.018257333 -0.00034342616 0)
(0.018480862 -0.00032664837 0)
(0.018693133 -0.00030968086 0)
(0.018894023 -0.00029253428 0)
(0.019083418 -0.00027521939 0)
(0.019261207 -0.00025774703 0)
(0.019427291 -0.0002401281 0)
(0.019581574 -0.00022237358 0)
(0.019723969 -0.00020449452 0)
(0.019854399 -0.00018650199 0)
(0.019972789 -0.00016840715 0)
(0.020079077 -0.00015022116 0)
(0.020173204 -0.00013195523 0)
(0.020255122 -0.00011362058 0)
(0.020324788 -9.5228467e-05 0)
(0.020382167 -7.6790137e-05 0)
(0.020427233 -5.8316846e-05 0)
(0.020459967 -3.9819843e-05 0)
(0.020480355 -2.1310365e-05 0)
(0.020488393 -2.7996325e-06 0)
(0.020484085 1.5701164e-05 0)
(0.02046744 3.4180905e-05 0)
(0.020438477 5.262845e-05 0)
(0.02039722 7.1032715e-05 0)
(0.020343702 8.9382696e-05 0)
(0.020277964 0.00010766744 0)
(0.020200051 0.00012587606 0)
(0.02011002 0.00014399775 0)
(0.02000793 0.00016202176 0)
(0.019893851 0.00017993744 0)
(0.019767859 0.00019773425 0)
(0.019630037 0.00021540171 0)
(0.019480474 0.00023292946 0)
(0.019319267 0.00025030726 0)
(0.019146519 0.00026752496 0)
(0.018962341 0.00028457256 0)
(0.018766849 0.00030144014 0)
(0.018560167 0.00031811796 0)
(0.018342424 0.00033459638 0)
(0.018113757 0.00035086591 0)
(0.017874308 0.00036691721 0)
(0.017624226 0.00038274107 0)
(0.017363666 0.00039832845 0)
(0.017092789 0.00041367047 0)
(0.01681176 0.00042875839 0)
(0.016520753 0.00044358367 0)
(0.016219945 0.0004581379 0)
(0.01590952 0.00047241287 0)
(0.015589667 0.00048640055 0)
(0.015260581 0.00050009306 0)
(0.01492246 0.00051348273 0)
(0.01457551 0.00052656208 0)
(0.01421994 0.0005393238 0)
(0.013855964 0.00055176079 0)
(0.013483801 0.00056386614 0)
(0.013103675 0.00057563313 0)
(0.012715813 0.00058705526 0)
(0.012320448 0.00059812621 0)
(0.011917816 0.00060883989 0)
(0.011508157 0.0006191904 0)
(0.011091716 0.00062917207 0)
(0.01066874 0.00063877942 0)
(0.010239482 0.0006480072 0)
(0.0098041948 0.00065685037 0)
(0.0093631382 0.00066530411 0)
(0.0089165729 0.00067336382 0)
(0.0084647635 0.00068102512 0)
(0.008007977 0.00068828386 0)
(0.0075464835 0.00069513609 0)
(0.0070805552 0.00070157812 0)
(0.006610467 0.00070760646 0)
(0.0061364961 0.00071321785 0)
(0.0056589216 0.00071840928 0)
(0.0051780247 0.00072317795 0)
(0.0046940881 0.00072752128 0)
(0.0042073965 0.00073143696 0)
(0.003718236 0.00073492286 0)
(0.0032268937 0.00073797712 0)
(0.0027336583 0.00074059811 0)
(0.0022388193 0.00074278442 0)
(0.0017426671 0.00074453487 0)
(0.0012454928 0.00074584853 0)
(0.00074758797 0.00074672469 0)
(0.00024924471 0.00074716289 0)
(-0.00024951874 0.0012458048 0)
(-0.0007484099 0.0012450742 0)
(-0.0012468621 0.0012436133 0)
(-0.0017445831 0.001241423 0)
(-0.0022412808 0.0012385043 0)
(-0.0027366639 0.001234859 0)
(-0.0032304417 0.0012304888 0)
(-0.0037223243 0.0012253962 0)
(-0.0042120228 0.001219584 0)
(-0.0046992496 0.0012130551 0)
(-0.0051837185 0.0012058132 0)
(-0.0056651444 0.0011978621 0)
(-0.0061432443 0.0011892061 0)
(-0.0066177367 0.0011798498 0)
(-0.0070883421 0.0011697984 0)
(-0.0075547832 0.0011590572 0)
(-0.0080167847 0.001147632 0)
(-0.008474074 0.0011355291 0)
(-0.0089263809 0.0011227549 0)
(-0.0093734378 0.0011093164 0)
(-0.0098149802 0.0010952209 0)
(-0.010250746 0.0010804761 0)
(-0.010680478 0.00106509 0)
(-0.01110392 0.001049071 0)
(-0.01152082 0.0010324279 0)
(-0.01193093 0.0010151698 0)
(-0.012334006 0.00099730612 0)
(-0.012729807 0.00097884676 0)
(-0.013118097 0.00095980186 0)
(-0.013498643 0.00094018194 0)
(-0.013871217 0.00091999785 0)
(-0.014235595 0.00089926078 0)
(-0.014591558 0.00087798226 0)
(-0.014938891 0.00085617413 0)
(-0.015277385 0.00083384856 0)
(-0.015606835 0.00081101805 0)
(-0.015927042 0.00078769539 0)
(-0.01623781 0.00076389369 0)
(-0.016538951 0.00073962635 0)
(-0.01683028 0.00071490707 0)
(-0.01711162 0.00068974985 0)
(-0.017382798 0.00066416896 0)
(-0.017643647 0.00063817895 0)
(-0.017894006 0.00061179463 0)
(-0.018133721 0.00058503108 0)
(-0.018362642 0.00055790365 0)
(-0.018580627 0.00053042791 0)
(-0.018787539 0.00050261969 0)
(-0.018983248 0.00047449505 0)
(-0.019167632 0.00044607026 0)
(-0.019340572 0.00041736182 0)
(-0.019501959 0.00038838644 0)
(-0.019651689 0.00035916102 0)
(-0.019789666 0.00032970264 0)
(-0.019915799 0.00030002859 0)
(-0.020030006 0.00027015631 0)
(-0.020132211 0.0002401034 0)
(-0.020222344 0.00020988763 0)
(-0.020300345 0.00017952688 0)
(-0.020366158 0.00014903921 0)
(-0.020419737 0.00011844274 0)
(-0.020461042 8.7755762e-05 0)
(-0.02049004 5.6996621e-05 0)
(-0.020506705 2.6183788e-05 0)
(-0.020511021 -4.6641917e-06 0)
(-0.020502976 -3.5528738e-05 0)
(-0.020482568 -6.6391195e-05 0)
(-0.020449801 -9.723286e-05 0)
(-0.020404688 -0.000128035 0)
(-0.020347247 -0.00015877885 0)
(-0.020277506 -0.00018944565 0)
(-0.020195501 -0.00022001663 0)
(-0.020101271 -0.00025047306 0)
(-0.019994869 -0.0002807962 0)
(-0.01987635 -0.00031096737 0)
(-0.019745779 -0.00034096794 0)
(-0.019603228 -0.00037077934 0)
(-0.019448776 -0.00040038308 0)
(-0.019282512 -0.00042976075 0)
(-0.019104527 -0.00045889404 0)
(-0.018914926 -0.00048776477 0)
(-0.018713815 -0.00051635487 0)
(-0.018501311 -0.0005446464 0)
(-0.018277537 -0.0005726216 0)
(-0.018042624 -0.00060026285 0)
(-0.017796709 -0.0006275527 0)
(-0.017539935 -0.0006544739 0)
(-0.017272454 -0.00068100941 0)
(-0.016994424 -0.00070714238 0)
(-0.01670601 -0.0007328562 0)
(-0.016407382 -0.00075813448 0)
(-0.016098718 -0.0007829611 0)
(-0.015780203 -0.00080732019 0)
(-0.015452026 -0.00083119615 0)
(-0.015114385 -0.00085457366 0)
(-0.014767482 -0.00087743771 0)
(-0.014411525 -0.00089977357 0)
(-0.01404673 -0.00092156686 0)
(-0.013673316 -0.00094280351 0)
(-0.013291509 -0.00096346978 0)
(-0.01290154 -0.00098355231 0)
(-0.012503646 -0.0010030381 0)
(-0.012098068 -0.0010219144 0)
(-0.011685053 -0.001040169 0)
(-0.011264852 -0.0010577901 0)
(-0.010837721 -0.0010747661 0)
(-0.010403921 -0.001091086 0)
(-0.0099637176 -0.0011067391 0)
(-0.0095173789 -0.0011217151 0)
(-0.0090651784 -0.0011360044 0)
(-0.0086073932 -0.0011495974 0)
(-0.0081443039 -0.0011624854 0)
(-0.0076761947 -0.0011746598 0)
(-0.007203353 -0.0011861126 0)
(-0.0067260694 -0.0011968363 0)
(-0.0062446374 -0.0012068239 0)
(-0.0057593532 -0.0012160688 0)
(-0.0052705155 -0.0012245648 0)
(-0.0047784254 -0.0012323065 0)
(-0.0042833862 -0.0012392886 0)
(-0.003785703 -0.0012455066 0)
(-0.0032856828 -0.0012509563 0)
(-0.0027836341 -0.0012556343 0)
(-0.0022798666 -0.0012595373 0)
(-0.0017746913 -0.0012626628 0)
(-0.00126842 -0.0012650087 0)
(-0.00076136549 -0.0012665735 0)
(-0.00025384075 -0.0012673562 0)
(0.00025384075 -0.0012673562 0)
(0.00076136549 -0.0012665735 0)
(0.00126842 -0.0012650087 0)
(0.0017746913 -0.0012626628 0)
(0.0022798666 -0.0012595373 0)
(0.0027836341 -0.0012556343 0)
(0.0032856828 -0.0012509563 0)
(0.003785703 -0.0012455066 0)
(0.0042833862 -0.0012392886 0)
(0.0047784254 -0.0012323065 0)
(0.0052705155 -0.0012245648 0)
(0.0057593532 -0.0012160688 0)
(0.0062446374 -0.0012068239 0)
(0.0067260694 -0.0011968363 0)
(0.007203353 -0.0011861126 0)
(0.0076761947 -0.0011746598 0)
(0.0081443039 -0.0011624854 0)
(0.0086073932 -0.0011495974 0)
(0.0090651784 -0.0011360044 0)
(0.0095173789 -0.0011217151 0)
(0.0099637176 -0.0011067391 0)
(0.010403921 -0.001091086 0)
(0.010837721 -0.0010747661 0)
(0.011264852 -0.0010577901 0)
(0.011685053 -0.001040169 0)
(0.012098068 -0.0010219144 0)
(0.012503646 -0.0010030381 0)
(0.01290154 -0.00098355231 0)
(0.013291509 -0.00096346978 0)
(0.013673316 -0.00094280351 0)
(0.01404673 -0.00092156686 0)
(0.014411525 -0.00089977357 0)
(0.014767482 -0.00087743771 0)
(0.015114385 -0.00085457366 0)
(0.015452026 -0.00083119615 0)
(0.015780203 -0.00080732019 0)
(0.016098718 -0.0007829611 0)
(0.016407382 -0.00075813448 0)
(0.01670601 -0.0007328562 0)
(0.016994424 -0.00070714238 0)
(0.017272454 -0.00068100941 0)
(0.017539935 -0.0006544739 0)
(0.017796709 -0.0006275527 0)
(0.018042624 -0.00060026285 0)
(0.018277537 -0.0005726216 0)
(0.018501311 -0.0005446464 0)
(0.018713815 -0.00051635487 0)
(0.018914926 -0.00048776477 0)
(0.019104527 -0.00045889404 0)
(0.019282512 -0.00042976075 0)
(0.019448776 -0.00040038308 0)
(0.019603228 -0.00037077934 0)
(0.019745779 -0.00034096794 0)
(0.01987635 -0.00031096737 0)
(0.019994869 -0.0002807962 0)
(0.020101271 -0.00025047306 0)
(0.020195501 -0.00022001663 0)
(0.020277506 -0.00018944565 0)
(0.020347247 -0.00015877885 0)
(0.020404688 -0.000128035 0)
(0.020449801 -9.723286e-05 0)
(0.020482568 -6.6391195e-05 0)
(0.020502976 -3.5528738e-05 0)
(0.020511021 -4.6641915e-06 0)
(0.020506705 2.6183788e-05 0)
(0.02049004 5.6996621e-05 0)
(0.020461042 8.7755762e-05 0)
(0.020419737 0.00011844274 0)
(0.020366158 0.00014903921 0)
(0.020300345 0.00017952688 0)
(0.020222344 0.00020988763 0)
(0.020132211 0.0002401034 0)
(0.020030006 0.00027015631 0)
(0.019915799 0.00030002859 0)
(0.019789666 0.00032970264 0)
(0.019651689 0.00035916102 0)
(0.019501959 0.00038838644 0)
(0.019340572 0.00041736182 0)
(0.019167632 0.00044607026 0)
(0.018983248 0.00047449505 0)
(0.018787539 0.00050261969 0)
(0.018580627 0.00053042791 0)
(0.018362642 0.00055790365 0)
(0.018133721 0.00058503108 0)
(0.017894006 0.00061179463 0)
(0.017643647 0.00063817895 0)
(0.017382798 0.00066416896 0)
(0.01711162 0.00068974985 0)
(0.01683028 0.00071490707 0)
(0.016538951 0.00073962635 0)
(0.01623781 0.00076389369 0)
(0.015927042 0.00078769539 0)
(0.015606835 0.00081101805 0)
(0.015277385 0.00083384856 0)
(0.014938891 0.00085617413 0)
(0.014591558 0.00087798226 0)
(0.014235595 0.00089926078 0)
(0.013871217 0.00091999785 0)
(0.013498643 0.00094018194 0)
(0.013118097 0.00095980186 0)
(0.012729807 0.00097884676 0)
(0.012334006 0.00099730612 0)
(0.01193093 0.0010151698 0)
(0.01152082 0.0010324279 0)
(0.01110392 0.001049071 0)
(0.010680478 0.00106509 0)
(0.010250746 0.0010804761 0)
(0.0098149802 0.0010952209 0)
(0.0093734378 0.0011093164 0)
(0.0089263809 0.0011227549 0)
(0.008474074 0.0011355291 0)
(0.0080167847 0.001147632 0)
(0.0075547832 0.0011590572 0)
(0.0070883421 0.0011697984 0)
(0.0066177367 0.0011798498 0)
(0.0061432443 0.0011892061 0)
(0.0056651444 0.0011978621 0)
(0.0051837185 0.0012058132 0)
(0.0046992496 0.0012130551 0)
(0.0042120228 0.001219584 0)
(0.0037223243 0.0012253962 0)
(0.0032304417 0.0012304888 0)
(0.0027366639 0.001234859 0)
(0.0022412808 0.0012385043 0)
(0.0017445831 0.001241423 0)
(0.0012468621 0.0012436133 0)
(0.0007484099 0.0012450742 0)
(0.00024951874 0.0012458048 0)
(-0.00024989408 0.0017450961 0)
(-0.00074953569 0.0017440726 0)
(-0.0012487377 0.0017420263 0)
(-0.0017472074 0.0017389581 0)
(-0.0022446523 0.0017348698 0)
(-0.0027407806 0.0017297635 0)
(-0.0032353012 0.0017236419 0)
(-0.0037279238 0.0017165084 0)
(-0.004218359 0.0017083668 0)
(-0.0047063189 0.0016992214 0)
(-0.0051915167 0.0016890771 0)
(-0.0056736671 0.0016779395 0)
(-0.0061524864 0.0016658145 0)
(-0.0066276928 0.0016527085 0)
(-0.0070990064 0.0016386288 0)
(-0.0075661494 0.0016235829 0)
(-0.0080288463 0.0016075789 0)
(-0.0084868239 0.0015906254 0)
(-0.0089398117 0.0015727317 0)
(-0.0093875416 0.0015539075 0)
(-0.0098297489 0.001534163 0)
(-0.010266171 0.001513509 0)
(-0.01069655 0.0014919566 0)
(-0.011120629 0.0014695177 0)
(-0.011538157 0.0014462045 0)
(-0.011948885 0.0014220299 0)
(-0.012352569 0.001397007 0)
(-0.012748966 0.0013711497 0)
(-0.013137841 0.0013444722 0)
(-0.01351896 0.0013169892 0)
(-0.013892096 0.0012887159 0)
(-0.014257023 0.001259668 0)
(-0.014613523 0.0012298617 0)
(-0.01496138 0.0011993134 0)
(-0.015300385 0.0011680404 0)
(-0.015630332 0.0011360601 0)
(-0.015951021 0.0011033903 0)
(-0.016262258 0.0010700495 0)
(-0.016563854 0.0010360565 0)
(-0.016855623 0.0010014304 0)
(-0.017137388 0.00096619083 0)
(-0.017408975 0.00093035778 0)
(-0.017670218 0.00089395163 0)
(-0.017920956 0.00085699314 0)
(-0.018161033 0.00081950343 0)
(-0.0183903 0.00078150399 0)
(-0.018608614 0.00074301665 0)
(-0.018815839 0.00070406356 0)
(-0.019011845 0.00066466723 0)
(-0.019196508 0.00062485044 0)
(-0.01936971 0.00058463633 0)
(-0.019531342 0.00054404827 0)
(-0.019681299 0.00050310995 0)
(-0.019819485 0.00046184531 0)
(-0.01994581 0.00042027855 0)
(-0.020060191 0.00037843409 0)
(-0.020162551 0.00033633661 0)
(-0.020252822 0.00029401098 0)
(-0.020330942 0.00025148227 0)
(-0.020396856 0.00020877574 0)
(-0.020450518 0.00016591683 0)
(-0.020491886 0.0001229311 0)
(-0.020520929 7.9844294e-05 0)
(-0.020537622 3.6682263e-05 0)
(-0.020541945 -6.5290266e-06 0)
(-0.02053389 -4.9763528e-05 0)
(-0.020513453 -9.2995109e-05 0)
(-0.020480638 -0.00013619757 0)
(-0.020435459 -0.00017934468 0)
(-0.020377933 -0.00022241014 0)
(-0.020308089 -0.00026536769 0)
(-0.020225961 -0.00030819104 0)
(-0.020131592 -0.00035085391 0)
(-0.02002503 -0.00039333009 0)
(-0.019906334 -0.00043559341 0)
(-0.019775568 -0.00047761777 0)
(-0.019632803 -0.00051937715 0)
(-0.019478121 -0.00056084564 0)
(-0.019311607 -0.00060199747 0)
(-0.019133355 -0.000642807 0)
(-0.018943469 -0.00068324874 0)
(-0.018742056 -0.00072329738 0)
(-0.018529233 -0.00076292781 0)
(-0.018305124 -0.00080211513 0)
(-0.018069857 -0.00084083466 0)
(-0.017823572 -0.00087906197 0)
(-0.017566412 -0.00091677289 0)
(-0.017298529 -0.00095394354 0)
(-0.017020081 -0.00099055033 0)
(-0.016731232 -0.00102657 0)
(-0.016432155 -0.0010619796 0)
(-0.016123026 -0.0010967565 0)
(-0.015804031 -0.0011308784 0)
(-0.01547536 -0.0011643237 0)
(-0.01513721 -0.0011970707 0)
(-0.014789784 -0.0012290984 0)
(-0.014433291 -0.0012603864 0)
(-0.014067946 -0.0012909142 0)
(-0.013693969 -0.0013206624 0)
(-0.013311586 -0.0013496115 0)
(-0.012921029 -0.001377743 0)
(-0.012522535 -0.0014050385 0)
(-0.012116345 -0.0014314804 0)
(-0.011702706 -0.0014570513 0)
(-0.011281871 -0.0014817348 0)
(-0.010854096 -0.0015055147 0)
(-0.010419641 -0.0015283755 0)
(-0.0099787728 -0.0015503023 0)
(-0.0095317601 -0.0015712807 0)
(-0.0090788768 -0.001591297 0)
(-0.0086204002 -0.0016103381 0)
(-0.0081566115 -0.0016283915 0)
(-0.0076877952 -0.0016454453 0)
(-0.0072142393 -0.0016614884 0)
(-0.0067362346 -0.0016765101 0)
(-0.0062540752 -0.0016905007 0)
(-0.0057680577 -0.0017034509 0)
(-0.0052784814 -0.0017153521 0)
(-0.0047856477 -0.0017261966 0)
(-0.0042898604 -0.0017359771 0)
(-0.003791425 -0.0017446873 0)
(-0.0032906491 -0.0017523213 0)
(-0.0027878416 -0.0017588741 0)
(-0.0022833126 -0.0017643414 0)
(-0.0017773738 -0.0017687196 0)
(-0.0012703373 -0.0017720058 0)
(-0.00076251634 -0.0017741978 0)
(-0.00025422445 -0.0017752942 0)
(0.00025422445 -0.0017752942 0)
(0.00076251634 -0.0017741978 0)
(0.0012703373 -0.0017720058 0)
(0.0017773738 -0.0017687196 0)
(0.0022833127 -0.0017643414 0)
(0.0027878416 -0.0017588741 0)
(0.0032906491 -0.0017523213 0)
(0.003791425 -0.0017446873 0)
(0.0042898604 -0.0017359771 0)
(0.0047856477 -0.0017261966 0)
(0.0052784814 -0.0017153521 0)
(0.0057680577 -0.0017034509 0)
(0.0062540752 -0.0016905007 0)
(0.0067362346 -0.0016765101 0)
(0.0072142393 -0.0016614884 0)
(0.0076877952 -0.0016454453 0)
(0.0081566115 -0.0016283915 0)
(0.0086204002 -0.0016103381 0)
(0.0090788768 -0.001591297 0)
(0.0095317601 -0.0015712807 0)
(0.0099787728 -0.0015503023 0)
(0.010419641 -0.0015283755 0)
(0.010854096 -0.0015055147 0)
(0.011281871 -0.0014817348 0)
(0.011702706 -0.0014570513 0)
(0.012116345 -0.0014314804 0)
(0.012522535 -0.0014050385 0)
(0.012921029 -0.001377743 0)
(0.013311586 -0.0013496115 0)
(0.013693969 -0.0013206624 0)
(0.014067946 -0.0012909142 0)
(0.014433291 -0.0012603864 0)
(0.014789784 -0.0012290984 0)
(0.01513721 -0.0011970707 0)
(0.01547536 -0.0011643237 0)
(0.015804031 -0.0011308784 0)
(0.016123026 -0.0010967565 0)
(0.016432155 -0.0010619796 0)
(0.016731232 -0.00102657 0)
(0.017020081 -0.00099055033 0)
(0.017298529 -0.00095394354 0)
(0.017566412 -0.00091677289 0)
(0.017823572 -0.00087906196 0)