/*--------------------------------*- C++ -*----------------------------------*\
| =========                 |                                                 |
| \\      /  F ield         | OpenFOAM: The Open Source CFD Toolbox           |
|  \\    /   O peration     | Version:  2306                                  |
|   \\  /    A nd           | Website:  www.openfoam.com                      |
|    \\/     M anipulation  |                                                 |
\*---------------------------------------------------------------------------*/
FoamFile
{
    version     2.0;
    format      ascii;
    arch        "LSB;label=32;scalar=64";
    class       volVectorField;
    location    "0.41";
    object      U;
}
// * * * * * * * * * * * * * * * * * * * * * * * * * * * * * * * * * * * * * //

dimensions      [0 1 -1 0 0 0 0];

internalField   nonuniform List<vector> 
6400
(
(0.0076982433 -0.19729025 3.919364e-17)
(0.017691225 -0.19722294 -1.7025934e-16)
(0.028982133 -0.19578274 2.9699654e-17)
(0.039687498 -0.19317045 2.20143e-16)
(0.050421616 -0.18922247 5.0769226e-17)
(0.060741643 -0.18396944 -2.5591362e-17)
(0.070569439 -0.17748611 -4.945366e-17)
(0.079834114 -0.16983741 -6.8318712e-18)
(0.088444064 -0.16108876 -4.3148169e-17)
(0.096296944 -0.1513168 -4.5157325e-17)
(0.10329082 -0.14061667 -2.6073956e-17)
(0.10933325 -0.12910449 -2.8674227e-17)
(0.11434885 -0.1169152 -1.6232615e-17)
(0.11828438 -0.1041975 5.2687607e-18)
(0.12111123 -0.091107387 1.2710149e-17)
(0.12282547 -0.077801538 -5.1530293e-17)
(0.12344601 -0.064431356 -2.6604139e-17)
(0.12301151 -0.051138194 -1.8621628e-17)
(0.1215765 -0.038050001 6.9983556e-19)
(0.11920716 -0.025279133 3.4061869e-17)
(0.11597747 -0.012921019 1.3716974e-17)
(0.11196656 -0.0010547902 3.6105207e-18)
(0.10725861 0.010256088 7.3522331e-18)
(0.10192486 0.020963587 -1.0699065e-17)
(0.096041557 0.031031209 -1.9039644e-17)
(0.089677992 0.040432686 1.0956442e-17)
(0.082897388 0.049149546 3.6727708e-17)
(0.075757042 0.05716899 5.8008315e-17)
(0.068308603 0.064481867 4.0564773e-17)
(0.06059873 0.071080965 1.2078822e-17)
(0.052670178 0.0769595 8.102056e-18)
(0.044562904 0.082110051 1.0281936e-17)
(0.036315899 0.08652409 2.5665223e-17)
(0.027968618 0.090191257 1.9133289e-17)
(0.019561547 0.09310026 1.3875175e-17)
(0.011139792 0.095238665 1.7590341e-17)
(0.0027312376 0.096595715 2.531489e-17)
(-0.005602425 0.097158459 4.3765916e-17)
(-0.01379399 0.096914684 3.5181451e-17)
(-0.021787313 0.095861544 4.0470888e-17)
(-0.029513665 0.094000691 4.3515382e-17)
(-0.036900375 0.091341642 2.4435357e-17)
(-0.043870739 0.087903795 7.3020834e-18)
(-0.050345738 0.083718282 -1.8894806e-17)
(-0.056246211 0.07882949 1.1084441e-18)
(-0.061495507 0.073296135 2.7286519e-17)
(-0.066022515 0.067191733 1.0884111e-17)
(-0.069764957 0.060604323 -7.2412261e-18)
(-0.072672716 0.053635303 -1.1384032e-17)
(-0.074710896 0.046397361 -1.2481178e-17)
(-0.075862152 0.039011494 -1.2984209e-18)
(-0.076128371 0.031603421 4.0067989e-18)
(-0.075531763 0.024299543 -1.3945841e-17)
(-0.074114992 0.017222515 -9.7946134e-18)
(-0.071940173 0.010486821 -1.7599928e-17)
(-0.069087216 0.0041953605 -1.8506804e-17)
(-0.06564512 -0.0015645571 -9.4925685e-18)
(-0.061715011 -0.0067223125 -1.6467623e-17)
(-0.057414454 -0.011229346 -7.9492194e-18)
(-0.052853882 -0.015056214 -6.3595005e-18)
(-0.04814404 -0.0181936 -7.3326846e-18)
(-0.043390822 -0.020650744 -4.7992185e-18)
(-0.038692078 -0.022453729 -1.2850958e-17)
(-0.034135161 -0.023643182 -3.5324065e-18)
(-0.029795115 -0.024271636 -3.6301825e-18)
(-0.025733488 -0.024400729 -5.6728937e-18)
(-0.021997688 -0.02409839 2.5766816e-19)
(-0.018620902 -0.02343599 1.5373554e-19)
(-0.015622815 -0.022485767 -6.6350543e-19)
(-0.013010536 -0.021318747 -1.2620492e-18)
(-0.010779527 -0.020002546 -2.4288226e-18)
(-0.008915106 -0.018599499 -2.8689821e-18)
(-0.0073939443 -0.017165505 1.9655359e-18)
(-0.0061857353 -0.015748628 9.361232e-19)
(-0.0052552904 -0.014388407 1.5642123e-18)
(-0.0045644091 -0.013115679 4.6654741e-19)
(-0.0040736256 -0.011952659 -1.0341903e-18)
(-0.0037437069 -0.010913363 6.5942643e-19)
(-0.0035371742 -0.01000386 3.9828336e-19)
(-0.00341971 -0.0092234968 2.3187289e-19)
(0.0087193088 -0.22139275 7.6030347e-17)
(0.020053357 -0.22133835 -2.7979765e-16)
(0.032774456 -0.2196231 -3.6812945e-17)
(0.044725599 -0.21659361 -1.0362997e-16)
(0.0566515 -0.21210286 -1.3854283e-16)
(0.06809184 -0.2062075 6.8334989e-17)
(0.078998404 -0.19898404 -7.153796e-17)
(0.089310226 -0.19048104 -9.8524809e-18)
(0.09892533 -0.18074548 4.2222313e-17)
(0.1077175 -0.16984347 -1.1207279e-17)
(0.11555568 -0.15787196 1.719842e-17)
(0.12231977 -0.14496107 -6.336314e-17)
(0.12791256 -0.13126933 -6.1825916e-17)
(0.13226692 -0.11697495 -4.1197336e-17)
(0.13534869 -0.10226588 -4.3720952e-17)
(0.13715609 -0.087330235 -1.881926e-17)
(0.1377164 -0.072348209 -2.1603463e-17)
(0.13708133 -0.057485951 -3.5377438e-17)
(0.13532157 -0.042891428 -2.8995377e-17)
(0.13252143 -0.028692001 -2.7493028e-17)
(0.12877328 -0.014993505 1.1303544e-17)
(0.1241738 -0.0018805588 8.2323946e-19)
(0.11882404 0.01058119 2.346926e-18)
(0.11280894 0.022345271 -1.8367744e-17)
(0.10621675 0.033378958 -1.5514958e-17)
(0.099126242 0.043661246 1.7498297e-17)
(0.091607477 0.053179807 3.3127483e-17)
(0.083722268 0.061928238 4.6628115e-17)
(0.075524675 0.069903473 3.0953307e-17)
(0.067061985 0.077103576 4.9877244e-18)
(0.058376186 0.083525874 1.3830512e-17)
(0.049505562 0.089165691 1.2706852e-17)
(0.040486825 0.094015587 1.7082691e-17)
(0.031357245 0.098064654 1.4512885e-17)
(0.022155727 0.10129936 1.3608266e-17)
(0.012926668 0.10370413 1.4206334e-18)
(0.0036976639 0.10526172 5.9856624e-18)
(-0.0054720536 0.10595866 2.6812667e-17)
(-0.014508453 0.10576866 3.1842212e-17)
(-0.023349891 0.10468543 3.780062e-17)
(-0.0319209 0.10270386 2.980238e-17)
(-0.040139473 0.099827388 1.9348051e-17)
(-0.047917344 0.096070767 2.0604774e-17)
(-0.055161994 0.091462472 -2.3160315e-17)
(-0.061779224 0.086046841 -8.319283e-18)
(-0.067676366 0.079885711 9.9850389e-18)
(-0.07276607 0.073059333 1.3974116e-17)
(-0.076970501 0.065666351 -2.8000058e-19)
(-0.080225682 0.057822652 -5.4469373e-18)
(-0.082485595 0.049658979 -5.6149523e-18)
(-0.083725397 0.041317324 -6.0968517e-18)
(-0.083943748 0.032946429 7.4147739e-18)
(-0.083164411 0.024696692 -1.8098635e-17)
(-0.081436489 0.01671449 -1.782239e-17)
(-0.078832584 0.0091361875 -8.8871402e-18)
(-0.075447839 0.0020814451 -1.8484368e-17)
(-0.071387452 -0.0043353981 -1.2584741e-17)
(-0.066777521 -0.010042316 -1.2737449e-17)
(-0.061755528 -0.01498086 -1.7409652e-17)
(-0.056454243 -0.01911888 -1.1696432e-17)
(-0.051005478 -0.022448687 -8.6585524e-18)
(-0.045534447 -0.024985082 -4.5117426e-18)
(-0.040155986 -0.026762982 -1.2870344e-17)
(-0.034971665 -0.027834428 -1.1418496e-17)
(-0.030067712 -0.028265221 -8.3867215e-18)
(-0.025513754 -0.028131453 -5.781509e-18)
(-0.021362179 -0.027516066 -2.6789791e-18)
(-0.017648182 -0.026505383 2.7668563e-18)
(-0.014390946 -0.025186047 2.2511469e-19)
(-0.011594808 -0.023642695 -3.0171371e-18)
(-0.0092501863 -0.0219553 -1.7405699e-18)
(-0.0073357947 -0.020196753 -1.9771244e-18)
(-0.0058203459 -0.018432129 2.7039158e-18)
(-0.0046643912 -0.016716498 -3.7261394e-19)
(-0.0038232165 -0.015094241 1.4810957e-19)
(-0.0032490804 -0.013599058 1.1327516e-18)
(-0.0028933179 -0.012254136 -9.7675675e-19)
(-0.002707837 -0.011073171 5.0389925e-19)
(-0.0026471394 -0.010059551 5.4847609e-19)
(-0.0026702563 -0.0092089538 -2.2474943e-19)
(0.010012897 -0.24882617 3.2687612e-16)
(0.023009696 -0.24872721 4.3884113e-16)
(0.03739952 -0.24651508 3.8547283e-16)
(0.050692924 -0.24284679 2.1487207e-16)
(0.063854846 -0.23764118 3.7014047e-17)
(0.076448882 -0.23099171 4.0976397e-17)
(0.088492226 -0.22295599 3.5342218e-17)
(0.099943628 -0.21353583 -2.0725287e-17)
(0.11068397 -0.20273388 -1.879902e-18)
(0.12054789 -0.19058997 5.2504326e-17)
(0.12935848 -0.17719754 5.4120227e-17)
(0.13695392 -0.16270361 3.7299834e-17)
(0.14320559 -0.14729811 1.2007108e-18)
(0.14802755 -0.13119884 1.2683093e-17)
(0.15137908 -0.11463592 -8.1647007e-18)
(0.15326243 -0.097838108 1.5065114e-17)
(0.1537172 -0.081021909 3.9095966e-18)
(0.15281324 -0.064383895 2.111509e-18)
(0.15064295 -0.04809575 -1.1444562e-17)
(0.1473138 -0.032301783 -2.3449164e-17)
(0.14294166 -0.017118771 1.9401442e-17)
(0.13764533 -0.0026367282 4.776886e-17)
(0.13154697 0.011078613 -4.3712263e-18)
(0.12474806 0.023984522 -3.7082513e-17)
(0.1173506 0.036054723 -2.3005057e-17)
(0.10944407 0.047276341 8.7144378e-18)
(0.10110592 0.057646064 3.4421427e-17)
(0.092402296 0.067166581 1.0343308e-17)
(0.083388902 0.075843341 -2.2223748e-17)
(0.074112459 0.083681712 -1.0314273e-17)
(0.06461267 0.09068473 -1.3146098e-18)
(0.054924362 0.09685158 2.7031923e-18)
(0.045080158 0.10217648 -1.059058e-17)
(0.035113246 0.10664817 -1.4123747e-17)
(0.025059065 0.11025033 -1.2805431e-17)
(0.014958882 0.11296242 -3.5718679e-17)
(0.0048430355 0.1147609 -3.4252504e-17)
(-0.0052387112 0.11563122 -2.1434381e-17)
(-0.01520526 0.11552711 -1.8318958e-17)
(-0.02498591 0.11443935 -1.0133339e-17)
(-0.034500279 0.11235296 -3.1822325e-18)
(-0.043655841 0.10926261 5.5283042e-18)
(-0.052350953 0.10517587 4.7770681e-19)
(-0.060477107 0.10011633 -4.3405393e-17)
(-0.067921914 0.094126506 -5.5316579e-17)
(-0.07457295 0.087270267 -1.217226e-17)
(-0.080322454 0.079634412 1.969948e-17)
(-0.085072677 0.071329085 4.4537891e-18)
(-0.088741568 0.062486744 -1.978689e-17)
(-0.091268282 0.053259457 -2.6792421e-17)
(-0.092617612 0.043814546 1.0650185e-17)
(-0.092783175 0.034328904 2.504066e-17)
(-0.091789684 0.024982547 6.4636766e-19)
(-0.089693964 0.015951307 -1.6998258e-17)
(-0.086584828 0.0073996209 -9.8511335e-19)
(-0.082566702 -0.00052881475 1.8413558e-17)
(-0.077768733 -0.0077007376 2.3254913e-17)
(-0.072356239 -0.014028539 1.3646589e-17)
(-0.066483142 -0.01944584 -1.0141139e-17)
(-0.060311012 -0.023918232 -6.2220881e-18)
(-0.053997496 -0.027440887 1.4311129e-17)
(-0.047691076 -0.030036221 1.364092e-17)
(-0.041526741 -0.031750649 -3.4183244e-18)
(-0.035622641 -0.03265069 -3.9880816e-18)
(-0.030077769 -0.032818696 -1.5703972e-20)
(-0.024970691 -0.032348517 5.2948891e-18)
(-0.020358976 -0.031341377 8.5872555e-18)
(-0.016279446 -0.029901622 3.9977981e-18)
(-0.012749943 -0.028133082 1.7609236e-18)
(-0.0097708901 -0.026136534 2.121023e-18)
(-0.0073259919 -0.02400666 -9.5056959e-19)
(-0.005385548 -0.02182831 -1.6477055e-18)
(-0.0039083474 -0.019677585 2.8617465e-18)
(-0.0028434288 -0.017617629 -5.469678e-20)
(-0.0021342644 -0.015697962 -4.6499088e-19)
(-0.0017214113 -0.013955102 -1.3599309e-18)
(-0.0015453949 -0.012412203 -2.5999026e-19)
(-0.0015471875 -0.011083344 1.177424e-19)
(-0.0016713178 -0.0099670037 -1.1253932e-19)
(-0.0018693255 -0.0090538885 -2.2330123e-19)
(0.011771222 -0.28055503 3.6722583e-16)
(0.026910892 -0.28019519 2.8994249e-16)
(0.043242548 -0.27700589 1.0451673e-16)
(0.057903297 -0.27227504 1.9691942e-16)
(0.072248916 -0.26607904 1.1131115e-16)
(0.085953957 -0.25854136 -5.5111916e-17)
(0.099156397 -0.24964247 -8.2602763e-18)
(0.11184173 -0.23927496 -6.1368057e-18)
(0.12385482 -0.2273508 7.9212621e-18)
(0.1349618 -0.21385849 1.848964e-17)
(0.14491163 -0.1988817 -9.7850151e-18)
(0.15347933 -0.18259075 -3.8170166e-19)
(0.16049176 -0.16522016 -5.3091215e-18)
(0.16583845 -0.14704266 -9.4668146e-18)
(0.16947219 -0.12834517 2.8227625e-17)
(0.17140307 -0.10940947 3.1558717e-18)
(0.17168905 -0.090498046 -2.2105501e-17)
(0.17042527 -0.071844723 -2.1276437e-17)
(0.16773332 -0.053649231 -2.2406139e-17)
(0.16375115 -0.036075043 4.4559006e-18)
(0.15862421 -0.01924988 1.0468302e-17)
(0.15249951 -0.0032678841 2.7901041e-17)
(0.14552488 0.011808252 8.7573133e-18)
(0.1378213 0.025941882 1.9732066e-17)
(0.12950729 0.039117001 3.259573e-17)
(0.12068426 0.051332714 4.4479113e-17)
(0.11143733 0.062598472 4.8884389e-17)
(0.1018365 0.072929547 4.6177078e-17)
(0.091937987 0.082342967 4.553878e-17)
(0.081786239 0.090853986 4.4569867e-17)
(0.071416629 0.098473343 2.4986955e-17)
(0.060858224 0.10520543 2.1100283e-17)
(0.050137078 0.11104685 2.2870674e-17)
(0.039279666 0.11598619 2.3490789e-17)
(0.028315353 0.12000398 2.4715103e-17)
(0.017281057 0.12307383 6.4463796e-18)
(0.0062112471 0.12516445 9.7413099e-18)
(-0.0048631883 0.12625214 2.1265084e-17)
(-0.015851287 0.12627922 2.1365201e-17)
(-0.02667048 0.1252243 3.2678254e-17)
(-0.037238475 0.12305978 1.2879162e-17)
(-0.047450657 0.11976836 -2.3955976e-19)
(-0.05718996 0.11534722 -1.4838499e-17)
(-0.066329031 0.10981197 -1.666119e-17)
(-0.07473352 0.10320074 -2.4988619e-17)
(-0.082266642 0.095577652 -1.0411925e-17)
(-0.088794945 0.087035387 1.2697873e-17)
(-0.09419513 0.077696303 1.9953823e-18)
(-0.098361491 0.067711717 -7.3501374e-18)
(-0.10121334 0.05725892 6.8495623e-18)
(-0.1027012 0.046535926 1.9246847e-17)
(-0.10281119 0.035754261 -7.6227017e-19)
(-0.10156825 0.025130689 -4.1623992e-19)
(-0.099037086 0.014877707 -1.3072334e-17)
(-0.09532298 0.0051954465 3.31036e-19)
(-0.090552763 -0.0037400062 3.2978298e-17)
(-0.084884719 -0.011779871 2.897531e-17)
(-0.078515126 -0.01881098 5.3579895e-18)
(-0.071633722 -0.024759515 -1.1620318e-17)
(-0.064434768 -0.029589368 -1.0913704e-17)
(-0.057106882 -0.033300372 1.9163079e-17)
(-0.049826435 -0.035925325 2.0894937e-17)
(-0.042752243 -0.03752563 -7.7427463e-21)
(-0.03602171 -0.038186208 -6.216575e-18)
(-0.029748291 -0.03801006 -8.0643733e-18)
(-0.024020295 -0.037112858 2.0100311e-18)
(-0.018900501 -0.035618012 1.4341498e-17)
(-0.014426753 -0.033651569 6.3072784e-18)
(-0.010614403 -0.031337859 -5.0835848e-18)
(-0.007458453 -0.028796534 -7.2618147e-18)
(-0.0049336323 -0.026139918 9.295376e-20)
(-0.0029998741 -0.023466751 -1.6710148e-18)
(-0.0016040067 -0.020865595 -3.8775246e-19)
(-0.00068020046 -0.018409472 -6.8244192e-19)
(-0.00015710731 -0.016153113 -5.8272992e-19)
(3.947659e-05 -0.014136417 -2.820944e-18)
(-1.9400044e-05 -0.012383216 -7.1429279e-19)
(-0.00026094267 -0.010902316 3.9145259e-19)
(-0.00061629025 -0.0096886265 4.5281647e-20)
(-0.0010298096 -0.0087250005 3.433471e-19)
(0.014280573 -0.31816846 6.8379353e-16)
(0.032222183 -0.31692192 9.1126808e-16)
(0.050745488 -0.31177033 1.5526789e-16)
(0.066652752 -0.30520079 3.5829562e-16)
(0.081972545 -0.29759259 2.4980891e-16)
(0.096644841 -0.28903118 5.1193504e-17)
(0.11100112 -0.2792812 1.8971071e-17)
(0.12504535 -0.26800677 3.5934473e-17)
(0.13854261 -0.25495205 1.3296569e-17)
(0.15113725 -0.24001872 5.4129413e-17)
(0.16245883 -0.22327666 6.3635782e-17)
(0.17218846 -0.20493416 4.837225e-17)
(0.18009237 -0.18529301 5.9528442e-17)
(0.18603109 -0.16470439 3.2065579e-17)
(0.18995402 -0.14353271 7.185541e-17)
(0.19188668 -0.12212924 7.6369297e-17)
(0.19191507 -0.10081445 7.9619605e-18)
(0.19016994 -0.079867453 1.5056031e-18)
(0.18681209 -0.05952062 -8.4913738e-18)
(0.18201913 -0.039958409 5.3305666e-17)
(0.17597443 -0.021319155 5.1845889e-17)
(0.16886085 -0.0036985396 1.7266073e-17)
(0.16085666 0.012847335 5.4685022e-17)
(0.15210591 0.028292354 4.0226963e-17)
(0.14274692 0.042635676 6.5766741e-17)
(0.13289413 0.055893334 1.328277e-16)
(0.12264043 0.068092342 1.0195932e-16)
(0.11205878 0.079264995 8.9366496e-17)
(0.10120419 0.089443756 8.6638064e-17)
(0.090116517 0.098656967 8.8921687e-17)
(0.078824051 0.10692555 1.1007205e-16)
(0.067347068 0.11426071 6.9826582e-17)
(0.055701989 0.12066235 3.7332113e-17)
(0.043905621 0.12611907 5.5641542e-17)
(0.031978311 0.13060791 7.8491719e-17)
(0.019949144 0.13409594 9.3707421e-17)
(0.0078523358 0.13654164 8.3059873e-17)
(-0.0042965552 0.13790343 7.2079499e-17)
(-0.016398328 0.13812137 9.8622484e-17)
(-0.02836579 0.13715122 9.7646691e-17)
(-0.040110649 0.13494934 3.5768616e-17)
(-0.05151553 0.13148248 -6.7861207e-18)
(-0.062446009 0.12673303 -2.0169367e-17)
(-0.072752703 0.12070449 -1.4788424e-17)
(-0.082274869 0.11342692 -2.7721245e-17)
(-0.090845717 0.10496194 1.7023683e-18)
(-0.09829945 0.095406648 1.5410192e-17)
(-0.10447991 0.084895964 3.6507359e-18)
(-0.10925033 0.073602475 -6.2041167e-18)
(-0.1125034 0.061733316 -1.7887363e-18)
(-0.11416993 0.049523849 1.3672577e-17)
(-0.11422501 0.037228508 3.0841089e-19)
(-0.11269253 0.025109976 9.7682773e-19)
(-0.10964581 0.013426091 -1.2473331e-17)
(-0.10521315 0.0024142515 -7.3355972e-18)
(-0.099541991 -0.0076866625 1.7752467e-17)
(-0.092833698 -0.016719566 3.4042091e-17)
(-0.08532433 -0.024547716 1.3280311e-17)
(-0.077245626 -0.03108523 -7.5605029e-18)
(-0.068832742 -0.036294376 -8.4454584e-18)
(-0.060312275 -0.04018209 1.6994286e-17)
(-0.051894142 -0.042795325 2.7916804e-17)
(-0.043765277 -0.044215072 2.6284461e-18)
(-0.036085304 -0.044549671 -3.9079135e-18)
(-0.028983882 -0.043927887 -7.3061992e-18)
(-0.022559716 -0.0424922 -6.0644461e-18)
(-0.01688054 -0.040392816 7.9409052e-18)
(-0.011984295 -0.037781702 5.9359295e-18)
(-0.0078821387 -0.034807699 -2.0608827e-19)
(-0.0045618941 -0.031613184 -6.4050932e-18)
(-0.0019870673 -0.028329476 -3.4753085e-18)
(-0.00010373874 -0.025075696 -3.5325075e-18)
(0.0011547929 -0.021952106 -4.7141236e-19)
(0.0018733465 -0.019041069 1.1030434e-19)
(0.0021419454 -0.016404589 3.005426e-19)
(0.0020509199 -0.01408575 -1.9529965e-18)
(0.0016906312 -0.012108465 -2.6673884e-18)
(0.0011489083 -0.010475069 -9.8040429e-19)
(0.00050716603 -0.0091757746 4.64531e-19)
(-0.00017021369 -0.0081851516 3.3355368e-19)
(0.017730797 -0.36402519 6.3083209e-16)
(0.039133329 -0.3604374 9.2490983e-16)
(0.059938226 -0.35152081 6.2021422e-16)
(0.076782222 -0.34182237 4.3702302e-16)
(0.092719347 -0.33222519 4.8190407e-16)
(0.10817377 -0.32257081 1.6620689e-16)
(0.12374145 -0.3121237 2.6330438e-17)
(0.13939954 -0.30011274 -1.4865585e-16)
(0.15474838 -0.28599707 -6.8290298e-17)
(0.16922341 -0.26954873 -9.6323062e-17)
(0.1822687 -0.25083029 -1.8890226e-16)
(0.19343203 -0.23011953 -9.9839065e-17)
(0.20240321 -0.20782434 -1.182943e-16)
(0.20901479 -0.18441017 -1.3478864e-17)
(0.21322366 -0.16034757 -1.7364403e-17)
(0.21508577 -0.13607816 -4.5923778e-17)
(0.21473104 -0.11199458 -5.8073451e-17)
(0.21234087 -0.088429926 -7.768855e-17)
(0.20812881 -0.065653685 -1.1654361e-17)
(0.20232405 -0.043872251 7.7590935e-17)
(0.19515798 -0.023232738 9.9522243e-17)
(0.18685865 -0.0038286457 1.7976081e-17)
(0.17764015 0.014294477 3.6027689e-17)
(0.16767415 0.031128585 4.5341787e-17)
(0.15712196 0.04669416 5.0445483e-17)
(0.14611205 0.06103049 1.154428e-16)
(0.13474479 0.074188281 9.4298178e-17)
(0.12309463 0.086222428 7.2020162e-17)
(0.11121292 0.09718565 8.4757845e-17)
(0.099131788 0.10712331 6.6339311e-17)
(0.086868788 0.1160695 9.9166679e-17)
(0.074431494 0.12404423 5.9760761e-17)
(0.061822877 0.13105183 -1.6279828e-18)
(0.049046141 0.13708083 3.2041715e-17)
(0.036108929 0.14210403 5.2296443e-17)
(0.023029226 0.14608096 9.2243028e-17)
(0.0098343665 0.14895787 8.7188487e-17)
(-0.0034724978 0.15067179 5.2236997e-17)
(-0.016784593 0.15115643 1.052982e-16)
(-0.030018458 0.15034111 8.5105232e-17)
(-0.043076786 0.14816107 7.1548147e-18)
(-0.055828694 0.1445617 -1.9514425e-18)
(-0.068120457 0.1395049 8.906969e-18)
(-0.079777143 0.13297641 -2.1664098e-17)
(-0.090606455 0.12499303 -4.4578727e-17)
(-0.10040475 0.11560965 -2.3430636e-17)
(-0.10896552 0.10492524 9.1956841e-18)
(-0.11609026 0.093086879 3.1060936e-17)
(-0.12160132 0.080290813 -6.034097e-18)
(-0.12535549 0.066779442 -4.0131653e-17)
(-0.12725628 0.052833838 -2.2386742e-17)
(-0.12726277 0.038762081 -8.1665879e-18)
(-0.12539662 0.024884985 -2.0389858e-17)
(-0.12174774 0.011519712 8.4722616e-18)
(-0.11644614 -0.0010410652 4.3505945e-17)
(-0.10968348 -0.012512047 1.2675008e-17)
(-0.10173554 -0.022695476 1.8572293e-18)
(-0.092864288 -0.031430817 -2.967262e-18)
(-0.083359087 -0.038620846 3.7376034e-18)
(-0.073506939 -0.044228202 2.6378691e-17)
(-0.063581149 -0.048270771 2.4063733e-17)
(-0.053831977 -0.050814919 1.7081313e-17)
(-0.044479385 -0.051967335 5.1945818e-18)
(-0.035708392 -0.051866197 6.4852024e-18)
(-0.027666505 -0.050672375 2.4560345e-18)
(-0.020463115 -0.048561258 6.0843814e-19)
(-0.014170225 -0.045715442 1.0108173e-17)
(-0.0088245241 -0.042317449 1.7007605e-17)
(-0.0044314169 -0.038544811 2.5500943e-18)
(-0.00096727495 -0.034568749 -6.0167438e-18)
(0.001613271 -0.030543939 -4.6218743e-19)
(0.0033835071 -0.026609942 1.7194404e-18)
(0.0044360136 -0.022879867 8.3239933e-18)
(0.0048718502 -0.019446666 1.3757282e-18)
(0.0048014113 -0.016381778 -2.8248491e-18)
(0.0043377939 -0.013730986 -5.1492188e-19)
(0.0035927988 -0.011516136 -5.5053555e-19)
(0.0026727926 -0.0097360255 7.7466005e-19)
(0.0016743844 -0.0083709949 5.3489941e-19)
(0.00067904456 -0.0073848829 -6.5952985e-19)
(0.021588201 -0.42054223 7.5052621e-16)
(0.046414113 -0.41201856 7.5184904e-16)
(0.069211921 -0.39666088 8.9578453e-16)
(0.086634164 -0.38204814 4.3821897e-16)
(0.10293712 -0.36984505 3.6578285e-16)
(0.11923384 -0.35924572 2.0558679e-16)
(0.13640823 -0.34852153 3.2844254e-16)
(0.15430251 -0.33614926 2.0167918e-16)
(0.17221723 -0.32114564 1.0785931e-16)
(0.18925717 -0.30311492 2.1252873e-16)
(0.20459851 -0.28214461 1.2146433e-16)
(0.21761349 -0.25864381 -5.2271887e-18)
(0.22790671 -0.23319123 -3.2911052e-17)
(0.23529692 -0.20642021 -3.508533e-17)
(0.23977447 -0.17894585 1.9002647e-17)
(0.24145492 -0.15132505 -6.8293085e-17)
(0.24053906 -0.12403747 2.9874568e-17)
(0.23728182 -0.097478108 -6.9877206e-17)
(0.2319683 -0.071956511 -1.2658466e-16)
(0.22489462 -0.047700475 -9.4473252e-17)
(0.2163525 -0.024862678 -2.335257e-17)
(0.20662509 -0.0035284224 1.2565052e-17)
(0.19596858 0.016274577 -1.0546442e-17)
(0.1845892 0.034564699 3.0161332e-17)
(0.17267287 0.051391866 2.550133e-17)
(0.16036301 0.066826941 4.7552956e-17)
(0.1477667 0.08095214 9.8759759e-17)
(0.13495751 0.093851932 9.0699356e-17)
(0.12197973 0.10560524 9.9292569e-17)
(0.10885354 0.11627922 5.8805808e-17)
(0.095581049 0.12592463 7.6877953e-17)
(0.082152168 0.13457272 9.0567345e-17)
(0.068551268 0.14223348 4.0119831e-17)
(0.054763171 0.14889533 6.3297936e-17)
(0.040778848 0.15452621 7.140527e-17)
(0.026600569 0.15907587 6.8295538e-17)
(0.012241878 0.16247533 8.452686e-17)
(-0.0023049918 0.1646429 7.4620079e-17)
(-0.016928061 0.16549142 1.1322548e-16)
(-0.031554553 0.16492443 1.1093901e-16)
(-0.046076752 0.16284948 6.1239867e-17)
(-0.060350025 0.15918379 3.8265015e-17)
(-0.074199634 0.15386142 1.9977968e-17)
(-0.087421375 0.14684278 -3.8144686e-17)
(-0.099785508 0.13812421 -3.3074611e-17)
(-0.11104331 0.12774768 -7.7608523e-18)
(-0.12093708 0.11580961 7.3269154e-18)
(-0.1292137 0.1024677 -4.5642103e-18)
(-0.13564148 0.087943897 -7.9938467e-18)
(-0.14002856 0.072522119 -7.7029497e-18)
(-0.14224038 0.056539472 -1.0278967e-17)
(-0.14221265 0.040371305 -5.6052938e-18)
(-0.13996029 0.024412737 -3.5311983e-17)
(-0.13558532 0.009059212 1.4183277e-17)
(-0.1292502 -0.0053230165 3.0594157e-17)
(-0.12118975 -0.018407501 -2.5695208e-17)
(-0.11173698 -0.02992692 -2.7365232e-17)
(-0.10122715 -0.039696311 -1.9798272e-17)
(-0.090015139 -0.04760726 2.7161641e-18)
(-0.078451236 -0.053625978 3.1101889e-17)
(-0.06686569 -0.05778694 3.404106e-18)
(-0.055557002 -0.060183201 -1.4732769e-17)
(-0.044783609 -0.060955263 -1.5441225e-17)
(-0.034759121 -0.060279364 -1.1570948e-18)
(-0.025650251 -0.058356319 1.9258506e-17)
(-0.017576927 -0.055401713 4.505695e-18)
(-0.010613798 -0.051637057 -1.1700454e-17)
(-0.0047940754 -0.047280759 1.0552698e-17)
(-0.0001176305 -0.04254779 6.5872266e-18)
(0.003449627 -0.037641711 7.0963797e-18)
(0.00598123 -0.032741954 4.7952184e-18)
(0.0075682806 -0.028005318 -4.2035203e-18)
(0.0083236739 -0.023568203 8.3431913e-18)
(0.0083754496 -0.019537799 2.2805795e-18)
(0.0078603486 -0.01599273 9.6616785e-19)
(0.0069182201 -0.012981513 3.5980281e-18)
(0.0056864802 -0.010523343 -3.4663568e-19)
(0.0042944683 -0.0086097785 1.9362113e-18)
(0.0028585077 -0.0072087611 2.1439329e-18)
(0.0014770854 -0.0062675983 -5.2550801e-20)
(0.023669879 -0.48717124 9.1512111e-16)
(0.049737358 -0.47072101 1.513814e-15)
(0.073525356 -0.44639293 1.2999248e-15)
(0.091570898 -0.42526669 8.1702918e-16)
(0.1087409 -0.41020689 3.7480212e-16)
(0.1268129 -0.39929897 9.9301033e-17)
(0.14685154 -0.3891412 2.7656974e-17)
(0.16837269 -0.37705135 2.5040255e-16)
(0.19020931 -0.36143109 1.0665773e-16)
(0.21100509 -0.34170942 5.0740326e-17)
(0.22959164 -0.31807733 2.3448301e-16)
(0.24513299 -0.29118314 8.2134389e-17)
(0.25715274 -0.26187865 1.103178e-16)
(0.26548813 -0.23104397 5.82974e-17)
(0.27021174 -0.19948996 2.8241913e-17)
(0.27155129 -0.1679169 7.3307801e-17)
(0.26982545 -0.13690395 -1.242345e-17)
(0.26539988 -0.10691152 -1.841414e-17)
(0.25865863 -0.078287967 -1.449451e-17)
(0.2499846 -0.051278545 2.5367711e-17)
(0.23974519 -0.026035996 7.5111941e-17)
(0.22829282 -0.0026319157 3.3830208e-17)
(0.21592826 0.018945674 2.4718609e-19)
(0.20290089 0.038741151 4.6376037e-18)
(0.18942306 0.056847068 -2.1438643e-17)
(0.17565363 0.073377047 -3.7763916e-17)
(0.16170446 0.088454684 -3.4432299e-17)
(0.14764479 0.10220266 -1.7086579e-17)
(0.13350704 0.1147333 -1.556068e-18)
(0.11929381 0.12614125 -4.3434723e-19)
(0.10498569 0.13649812 -2.4361008e-17)
(0.090548691 0.14584904 -1.8902531e-17)
(0.075942336 0.15421099 -1.3991763e-17)
(0.061127251 0.16157266 1.110242e-17)
(0.046071913 0.16789595 4.7396069e-18)
(0.030757099 0.17311753 -5.88273e-17)
(0.015180758 0.17715203 -3.3307428e-17)
(-0.00068350464 0.17989773 1.1132675e-17)
(-0.016723128 0.18123529 1.6344407e-17)
(-0.032874247 0.18104008 5.0153107e-17)
(-0.049024333 0.1791846 6.2575386e-17)
(-0.06501484 0.17554959 5.9859909e-17)
(-0.080648774 0.1700321 4.6260953e-17)
(-0.095689004 0.16255718 -2.6630955e-17)
(-0.10986182 0.1530908 -8.5066615e-17)
(-0.12286375 0.14165292 -6.0553963e-17)
(-0.13437289 0.12833042 1.4050382e-17)
(-0.14406561 0.11328797 2.353392e-17)
(-0.15163849 0.096774463 -8.3004064e-18)
(-0.15683365 0.079122349 -4.6596813e-17)
(-0.15946356 0.060737657 -3.1380317e-17)
(-0.15942945 0.042080437 -1.7190433e-17)
(-0.15673311 0.023639351 -3.3899165e-17)
(-0.1514977 0.0059039694 4.3585159e-18)
(-0.14391168 -0.010643697 5.7386297e-17)
(-0.13427545 -0.025615665 -9.6960118e-18)
(-0.12300228 -0.038687383 -3.2806086e-17)
(-0.11051457 -0.049635481 -1.4280725e-17)
(-0.097252805 -0.05833884 -6.7280362e-18)
(-0.083646973 -0.064771928 3.0895688e-17)
(-0.070097084 -0.068994004 -1.1731476e-17)
(-0.056959122 -0.071134865 -2.4671707e-17)
(-0.044535823 -0.071379554 -2.2712853e-17)
(-0.033072272 -0.069952926 -3.4974915e-18)
(-0.022755138 -0.067105682 1.9594574e-17)
(-0.013714129 -0.063102435 -9.5435635e-18)
(-0.0060237703 -0.058210825 -7.0002669e-18)
(0.00028547329 -0.052693247 2.2040545e-18)
(0.0052224309 -0.046811539 4.0406654e-18)
(0.0088516812 -0.040793254 5.2123299e-18)
(0.011260091 -0.03485252 -5.879331e-18)
(0.012565216 -0.02917607 -2.4321294e-18)
(0.012909018 -0.023920138 1.0105031e-17)
(0.012450759 -0.019207652 2.6003911e-18)
(0.011359581 -0.015126186 -4.0537741e-18)
(0.0098078701 -0.011726992 3.6035683e-19)
(0.0079644416 -0.0090253507 3.4367213e-18)
(0.0059869477 -0.0070023036 2.2689967e-18)
(0.0040160884 -0.0056097905 1.3185756e-18)
(0.0021698056 -0.0047736577 -2.0774231e-18)
(0.02001503 -0.55458656 6.1975443e-16)
(0.041331375 -0.52951426 5.0561294e-16)
(0.063769633 -0.49688552 8.2266097e-16)
(0.083421024 -0.46993704 1.9137746e-16)
(0.10357806 -0.45311981 1.8535998e-16)
(0.12602293 -0.44346107 -4.8554008e-16)
(0.15164107 -0.43529178 -2.2287417e-16)
(0.17933787 -0.42440376 -2.4022655e-16)
(0.20734266 -0.40847369 -3.4663929e-16)
(0.23376878 -0.38682186 -1.9642888e-16)
(0.25707985 -0.35988315 -1.3691952e-16)
(0.27622249 -0.32870433 -9.1732219e-17)
(0.29064752 -0.29455757 -1.0213307e-16)
(0.30024668 -0.25868419 -3.3856879e-17)
(0.30523907 -0.22216361 -6.6090459e-17)
(0.30604477 -0.18587382 -1.5275878e-17)
(0.30317904 -0.15050087 -5.0564156e-17)
(0.29718242 -0.11656395 -6.3472387e-17)
(0.28858337 -0.084438985 -1.4428938e-17)
(0.27788074 -0.054377005 3.3264692e-17)
(0.26553412 -0.026518716 -1.0980277e-17)
(0.2519956 -0.00090663621 -2.5470196e-17)
(0.23759816 0.022511063 -3.5341237e-17)
(0.2226416 0.043830833 -9.2397614e-17)
(0.20737421 0.063200108 -7.8985203e-17)
(0.19196751 0.080787805 -1.1994651e-16)
(0.17653438 0.096770862 -1.6220179e-16)
(0.16113443 0.11132063 -1.2506085e-16)
(0.14578165 0.1245915 -1.3015074e-16)
(0.13045368 0.13671228 -1.1145783e-16)
(0.11510176 0.14778022 -1.8080792e-16)
(0.099660196 0.15785729 -1.8991534e-16)
(0.084056203 0.16696885 -1.3529264e-16)
(0.068218836 0.17510393 -1.3781436e-16)
(0.052086613 0.18221669 -1.3576128e-16)
(0.035614124 0.18822896 -2.0878491e-16)
(0.01877843 0.19303595 -1.7408303e-16)
(0.0015279569 0.19650971 -7.8637253e-17)
(-0.016032143 0.19849654 -7.1054127e-17)
(-0.03384495 0.19883389 4.3065536e-18)
(-0.051800195 0.1973518 5.00398e-17)
(-0.069726509 0.1938848 5.5575725e-17)
(-0.087404603 0.1882814 4.0468859e-17)
(-0.10456137 0.18041852 -4.3758604e-18)
(-0.12087233 0.17021814 -5.6386466e-17)
(-0.13596814 0.15766521 -3.5368053e-17)
(-0.14944675 0.14282609 1.2442966e-17)
(-0.16089361 0.12586563 1.7135925e-17)
(-0.16990984 0.10705913 -1.6887323e-17)
(-0.17614715 0.086795016 -3.1673579e-17)
(-0.17934404 0.065564331 -4.2947068e-18)
(-0.17935372 0.043935833 -4.0752149e-17)
(-0.17616125 0.022520943 -2.0257052e-17)
(-0.16988693 0.0019298723 -6.9592161e-18)
(-0.16076504 -0.017214292 2.4425861e-17)
(-0.14921542 -0.034429709 1.6857296e-17)
(-0.13572667 -0.049316288 -2.2237649e-18)
(-0.12083918 -0.061608918 -8.1274362e-18)
(-0.10510561 -0.071176437 -1.1052091e-17)
(-0.089056644 -0.078010172 7.9936645e-18)
(-0.073177646 -0.082206504 5.1546702e-18)
(-0.057892498 -0.083946028 5.4994598e-18)
(-0.043554152 -0.083472661 -1.4620291e-17)
(-0.030441493 -0.081073623 -2.713792e-18)
(-0.018760723 -0.077061839 1.6743142e-18)
(-0.0086483919 -0.071760494 -1.7319989e-17)
(-0.00017641198 -0.065488666 8.2650975e-18)
(0.0066257272 -0.058573602 3.5813615e-18)
(0.011800228 -0.051305807 -3.6428701e-18)
(0.015423059 -0.043962675 -9.6003829e-18)
(0.017609218 -0.036794037 -4.6600804e-18)
(0.018508271 -0.030017046 -4.967297e-18)
(0.018296893 -0.023812661 -2.526717e-18)
(0.017171988 -0.01832197 2.7200652e-18)
(0.015342043 -0.013643016 -1.0154059e-18)