/*--------------------------------*- C++ -*----------------------------------*\
| =========                 |                                                 |
| \\      /  F ield         | OpenFOAM: The Open Source CFD Toolbox           |
|  \\    /   O peration     | Version:  2306                                  |
|   \\  /    A nd           | Website:  www.openfoam.com                      |
|    \\/     M anipulation  |                                                 |
\*---------------------------------------------------------------------------*/
FoamFile
{
    version     2.0;
    format      ascii;
    arch        "LSB;label=32;scalar=64";
    class       surfaceScalarField;
    location    "0.37";
    object      phi;
}
// * * * * * * * * * * * * * * * * * * * * * * * * * * * * * * * * * * * * * //

dimensions      [0 3 -1 0 0 0 0];

oriented        oriented;

internalField   nonuniform List<scalar> 
12640
(
-1.0836786e-05
-1.9827629e-05
-1.0564757e-05
-1.9384559e-05
-1.0270396e-05
-1.900515e-05
-9.9557481e-06
-1.8668069e-05
-9.6255873e-06
-1.8356641e-05
-9.2861019e-06
-1.8058825e-05
-8.9438166e-06
-1.7766805e-05
-8.6047908e-06
-1.7476325e-05
-8.2740861e-06
-1.7185906e-05
-7.9554946e-06
-1.6896016e-05
-7.6514843e-06
-1.6608305e-05
-7.3633029e-06
-1.6324956e-05
-7.0911859e-06
-1.6048185e-05
-6.8346159e-06
-1.577991e-05
-6.5925848e-06
-1.5521564e-05
-6.3638259e-06
-1.5274044e-05
-6.1469987e-06
-1.5037742e-05
-5.9408208e-06
-1.4812632e-05
-5.7441459e-06
-1.4598385e-05
-5.5560001e-06
-1.4394477e-05
-5.3755836e-06
-1.4200296e-05
-5.2022526e-06
-1.4015213e-05
-5.0354902e-06
-1.3838634e-05
-4.8748743e-06
-1.3670027e-05
-4.7200485e-06
-1.3508938e-05
-4.5706987e-06
-1.3354979e-05
-4.4265367e-06
-1.3207827e-05
-4.2872892e-06
-1.3067205e-05
-4.1526929e-06
-1.2932874e-05
-4.0224922e-06
-1.2804617e-05
-3.8964397e-06
-1.2682236e-05
-3.7742969e-06
-1.2565546e-05
-3.6558361e-06
-1.245437e-05
-3.5408407e-06
-1.2348538e-05
-3.4291062e-06
-1.2247889e-05
-3.3204399e-06
-1.2152268e-05
-3.2146608e-06
-1.206153e-05
-3.1115988e-06
-1.1975534e-05
-3.0110939e-06
-1.1894151e-05
-2.9129959e-06
-1.1817258e-05
-2.8171634e-06
-1.1744738e-05
-2.7234633e-06
-1.1676483e-05
-2.6317704e-06
-1.1612389e-05
-2.541967e-06
-1.155236e-05
-2.4539425e-06
-1.1496306e-05
-2.3675932e-06
-1.1444141e-05
-2.2828221e-06
-1.1395783e-05
-2.1995384e-06
-1.1351159e-05
-2.1176575e-06
-1.1310198e-05
-2.037101e-06
-1.1272835e-05
-1.9577958e-06
-1.1239008e-05
-1.8796746e-06
-1.1208663e-05
-1.8026753e-06
-1.118175e-05
-1.7267409e-06
-1.1158222e-05
-1.6518191e-06
-1.1138039e-05
-1.5778621e-06
-1.1121167e-05
-1.5048264e-06
-1.1107578e-05
-1.4326724e-06
-1.1097246e-05
-1.3613638e-06
-1.1090157e-05
-1.2908676e-06
-1.1086298e-05
-1.2211533e-06
-1.1085665e-05
-1.1521924e-06
-1.1088262e-05
-1.0839579e-06
-1.1094099e-05
-1.0164237e-06
-1.1103192e-05
-9.4956378e-07
-1.1115567e-05
-8.8335127e-07
-1.1131257e-05
-8.1775783e-07
-1.1150303e-05
-7.5275261e-07
-1.1172752e-05
-6.8830122e-07
-1.1198662e-05
-6.2436474e-07
-1.1228095e-05
-5.6089884e-07
-1.1261123e-05
-4.9785267e-07
-1.1297821e-05
-4.3516815e-07
-1.1338268e-05
-3.7277919e-07
-1.1382545e-05
-3.1061146e-07
-1.1430725e-05
-2.4858258e-07
-1.1482866e-05
-1.8660294e-07
-1.153899e-05
-1.2457765e-07
-1.1599064e-05
-6.2409776e-08
-1.1662981e-05
-1.1730735e-05
-1.0140708e-05
-1.9979072e-05
-9.9425025e-06
-1.9582765e-05
-9.6996847e-06
-1.9247968e-05
-9.4190637e-06
-1.894869e-05
-9.1101483e-06
-1.8665556e-05
-8.7834574e-06
-1.8385516e-05
-8.449192e-06
-1.8101071e-05
-8.1162759e-06
-1.7809241e-05
-7.7917921e-06
-1.7510389e-05
-7.4807732e-06
-1.7207035e-05
-7.1862642e-06
-1.6902814e-05
-6.9095771e-06
-1.6601643e-05
-6.6506692e-06
-1.6307093e-05
-6.4085571e-06
-1.6022022e-05
-6.1817036e-06
-1.5748417e-05
-5.9683418e-06
-1.5487406e-05
-5.7667172e-06
-1.5239367e-05
-5.5752445e-06
-1.5004105e-05
-5.3925889e-06
-1.478104e-05
-5.2176875e-06
-1.4569378e-05
-5.0497292e-06
-1.4368255e-05
-4.8881113e-06
-1.4176831e-05
-4.7323869e-06
-1.3994358e-05
-4.5822146e-06
-1.38202e-05
-4.4373164e-06
-1.3653836e-05
-4.2974466e-06
-1.3494849e-05
-4.162372e-06
-1.3342902e-05
-4.0318618e-06
-1.3197716e-05
-3.9056833e-06
-1.3059052e-05
-3.7836038e-06
-1.2926696e-05
-3.6653925e-06
-1.2800447e-05
-3.5508247e-06
-1.2680114e-05
-3.4396842e-06
-1.2565511e-05
-3.331766e-06
-1.2456457e-05
-3.2268763e-06
-1.2352779e-05
-3.1248338e-06
-1.2254311e-05
-3.0254683e-06
-1.2160895e-05
-2.9286204e-06
-1.2072382e-05
-2.8341407e-06
-1.1988631e-05
-2.7418888e-06
-1.190951e-05
-2.6517327e-06
-1.1834894e-05
-2.5635481e-06
-1.1764667e-05
-2.4772181e-06
-1.1698719e-05
-2.392633e-06
-1.1636946e-05
-2.3096895e-06
-1.157925e-05
-2.228291e-06
-1.1525539e-05
-2.1483475e-06
-1.1475727e-05
-2.0697748e-06
-1.1429732e-05
-1.9924951e-06
-1.1387478e-05
-1.916436e-06
-1.1348894e-05
-1.8415311e-06
-1.1313913e-05
-1.7677195e-06
-1.1282475e-05
-1.6949454e-06
-1.1254524e-05
-1.6231582e-06
-1.1230009e-05
-1.5523123e-06
-1.1208885e-05
-1.4823667e-06
-1.1191113e-05
-1.4132846e-06
-1.117666e-05
-1.3450334e-06
-1.1165498e-05
-1.2775841e-06
-1.1157606e-05
-1.210911e-06
-1.1152971e-05
-1.1449913e-06
-1.1151585e-05
-1.0798042e-06
-1.1153449e-05
-1.0153308e-06
-1.1158572e-05
-9.5155299e-07
-1.116697e-05
-8.8845296e-07
-1.1178667e-05
-8.2601206e-07
-1.1193698e-05
-7.6421006e-07
-1.1212105e-05
-7.030239e-07
-1.1233938e-05
-6.4242675e-07
-1.1259259e-05
-5.8238665e-07
-1.1288135e-05
-5.2286542e-07
-1.1320644e-05
-4.6381741e-07
-1.1356869e-05
-4.051884e-07
-1.1396897e-05
-3.4691478e-07
-1.1440819e-05
-2.8892297e-07
-1.1488717e-05
-2.3112945e-07
-1.1540659e-05
-1.7344163e-07
-1.1596678e-05
-1.1575994e-07
-1.1656746e-05
-5.7981501e-08
-1.172076e-05
-1.1788717e-05
-9.4871865e-06
-2.0025053e-05
-9.3610195e-06
-1.9708932e-05
-9.163209e-06
-1.9445778e-05
-8.9072856e-06
-1.9204613e-05
-8.6091964e-06
-1.8963645e-05
-8.2851707e-06
-1.8709542e-05
-7.9500558e-06
-1.8436185e-05
-7.6162108e-06
-1.8143086e-05
-7.2929677e-06
-1.7833632e-05
-6.986549e-06
-1.7513454e-05
-6.7003145e-06
-1.7189049e-05
-6.4352645e-06
-1.6866693e-05
-6.1906651e-06
-1.6551693e-05
-5.9646758e-06
-1.6248011e-05
-5.7549021e-06
-1.5958191e-05
-5.5588301e-06
-1.5683478e-05
-5.374129e-06
-1.5424068e-05
-5.198826e-06
-1.5179408e-05
-5.0313735e-06
-1.4948493e-05
-4.8706385e-06
-1.4730114e-05
-4.7158417e-06
-1.4523051e-05
-4.5664742e-06
-1.4326198e-05
-4.4222108e-06
-1.4138621e-05
-4.2828339e-06
-1.3959576e-05
-4.148176e-06
-1.3788494e-05
-4.0180809e-06
-1.3624944e-05
-3.8923818e-06
-1.3468601e-05
-3.7708944e-06
-1.3319203e-05
-3.6534167e-06
-1.317653e-05
-3.5397359e-06
-1.3040377e-05
-3.4296349e-06
-1.2910548e-05
-3.3228998e-06
-1.2786849e-05
-3.2193243e-06
-1.2669086e-05
-3.1187136e-06
-1.2557067e-05
-3.0208851e-06
-1.2450607e-05
-2.9256689e-06
-1.2349527e-05
-2.8329068e-06
-1.2253657e-05
-2.7424512e-06
-1.2162838e-05
-2.6541639e-06
-1.2076918e-05
-2.5679154e-06
-1.1995758e-05
-2.4835836e-06
-1.1919226e-05
-2.4010538e-06
-1.1847197e-05
-2.3202176e-06
-1.1779555e-05
-2.2409735e-06
-1.171619e-05
-2.163226e-06
-1.1656997e-05
-2.0868862e-06
-1.1601879e-05
-2.0118709e-06
-1.1550742e-05
-1.9381029e-06
-1.15035e-05
-1.8655111e-06
-1.146007e-05
-1.79403e-06
-1.1420375e-05
-1.7235998e-06
-1.1384343e-05
-1.654166e-06
-1.1351909e-05
-1.5856798e-06
-1.132301e-05
-1.5180971e-06
-1.1297591e-05
-1.4513794e-06
-1.1275603e-05
-1.3854924e-06
-1.1257e-05
-1.3204067e-06
-1.1241745e-05
-1.2560972e-06
-1.1229807e-05
-1.1925424e-06
-1.1221161e-05
-1.1297246e-06
-1.1215789e-05
-1.067629e-06
-1.1213681e-05
-1.0062436e-06
-1.1214835e-05
-9.4555784e-07
-1.1219258e-05
-8.8556271e-07
-1.1226965e-05
-8.2624933e-07
-1.1237981e-05
-7.6760829e-07
-1.1252339e-05
-7.0962842e-07
-1.1270084e-05
-6.5229573e-07
-1.1291271e-05
-5.9559195e-07
-1.1315963e-05
-5.394933e-07
-1.1344234e-05
-4.8396886e-07
-1.1376169e-05
-4.289792e-07
-1.1411859e-05
-3.7447491e-07
-1.1451402e-05
-3.2039541e-07
-1.1494898e-05
-2.6666807e-07
-1.1542445e-05
-2.1320807e-07
-1.1594119e-05
-1.599192e-07
-1.1649967e-05
-1.0669604e-07
-1.1709969e-05
-5.3428102e-08
-1.1774028e-05
-1.1842145e-05
-8.9105546e-06
-1.996593e-05
-8.8481773e-06
-1.9771309e-05
-8.682025e-06
-1.9611931e-05
-8.4349134e-06
-1.9451725e-05
-8.1314359e-06
-1.9267123e-05
-7.7952228e-06
-1.9045755e-05
-7.4468651e-06
-1.8784543e-05
-7.1027265e-06
-1.8487225e-05
-6.7745039e-06
-1.8161855e-05
-6.469352e-06
-1.7818605e-05
-6.1904385e-06
-1.7467963e-05
-5.9378333e-06
-1.7119298e-05
-5.7094842e-06
-1.6780042e-05
-5.5021358e-06
-1.6455359e-05
-5.3120922e-06
-1.6148234e-05
-5.1357823e-06
-1.5859787e-05
-4.9701179e-06
-1.5589732e-05
-4.8126649e-06
-1.5336861e-05
-4.6616702e-06
-1.5099487e-05
-4.5159896e-06
-1.4875794e-05
-4.3749598e-06
-1.4664081e-05
-4.2382534e-06
-1.4462905e-05
-4.1057435e-06
-1.4271131e-05
-3.9773965e-06
-1.4087923e-05
-3.8531956e-06
-1.3912695e-05
-3.7330967e-06
-1.3745043e-05
-3.617009e-06
-1.3584688e-05
-3.504794e-06
-1.3431418e-05
-3.3962754e-06
-1.3285048e-05
-3.2912532e-06
-1.3145399e-05
-3.1895174e-06
-1.3012284e-05
-3.0908595e-06
-1.2885507e-05
-2.9950803e-06
-1.2764865e-05
-2.9019938e-06
-1.2650154e-05
-2.8114285e-06
-1.2541172e-05
-2.723227e-06
-1.2437729e-05
-2.637244e-06
-1.233964e-05
-2.5533451e-06
-1.2246737e-05
-2.4714047e-06
-1.2158859e-05
-2.3913047e-06
-1.2075858e-05
-2.312934e-06
-1.1997597e-05
-2.2361874e-06
-1.1923944e-05
-2.1609659e-06
-1.1854777e-05
-2.0871763e-06
-1.1789979e-05
-2.0147312e-06
-1.1729442e-05
-1.9435491e-06
-1.1673061e-05
-1.8735542e-06
-1.1620737e-05
-1.8046766e-06
-1.1572378e-05
-1.7368519e-06
-1.1527895e-05
-1.6700215e-06
-1.1487205e-05
-1.6041325e-06
-1.1450232e-05
-1.5391373e-06
-1.1416904e-05
-1.4749939e-06
-1.1387153e-05
-1.4116653e-06
-1.136092e-05
-1.3491199e-06
-1.1338148e-05
-1.287331e-06
-1.1318789e-05
-1.2262766e-06
-1.13028e-05
-1.1659393e-06
-1.1290145e-05
-1.1063058e-06
-1.1280794e-05
-1.0473668e-06
-1.1274727e-05
-9.8911636e-07
-1.1271931e-05
-9.3155127e-07
-1.12724e-05
-8.7467071e-07
-1.1276138e-05
-8.1847522e-07
-1.128316e-05
-7.6296604e-07
-1.129349e-05
-7.0814392e-07
-1.1307161e-05
-6.5400804e-07
-1.132422e-05
-6.0055463e-07
-1.1344724e-05
-5.4777548e-07
-1.1368742e-05
-4.9565631e-07
-1.1396353e-05
-4.4417492e-07
-1.142765e-05
-3.9329945e-07
-1.1462734e-05
-3.4298642e-07
-1.1501715e-05
-2.9317915e-07
-1.1544706e-05
-2.4380651e-07
-1.1591817e-05
-1.947823e-07
-1.1643144e-05
-1.4600589e-07
-1.1698743e-05
-9.7364623e-08
-1.175861e-05
-4.8738314e-08
-1.1822654e-05
-1.1890883e-05
-8.4530883e-06
-1.9810243e-05
-8.4369897e-06
-1.9787408e-05
-8.279732e-06
-1.9769188e-05
-8.0167925e-06
-1.9714664e-05
-7.6842557e-06
-1.959966e-05
-7.3151581e-06
-1.9414853e-05
-6.9370559e-06
-1.9162645e-05
-6.5708212e-06
-1.885346e-05
-6.2304176e-06
-1.8502258e-05
-5.9233272e-06
-1.8125696e-05
-5.6516618e-06
-1.7739628e-05
-5.4135968e-06
-1.7357363e-05
-5.2048429e-06
-1.6988795e-05
-5.0199544e-06
-1.6640248e-05
-4.8533559e-06
-1.6314833e-05
-4.7000499e-06
-1.6013094e-05
-4.5560064e-06
-1.5733776e-05
-4.418295e-06
-1.5474573e-05
-4.2850256e-06
-1.5232757e-05
-4.1551708e-06
-1.5005649e-05
-4.0283284e-06
-1.4790924e-05
-3.9044882e-06
-1.4586745e-05
-3.7838328e-06
-1.4391787e-05
-3.6665906e-06
-1.4205166e-05
-3.5529429e-06
-1.4026342e-05
-3.4429788e-06
-1.3855007e-05
-3.3366852e-06
-1.3690982e-05
-3.2339613e-06
-1.3534142e-05
-3.1346424e-06
-1.3384367e-05
-3.0385274e-06
-1.3241514e-05
-2.9454022e-06
-1.310541e-05
-2.8550561e-06
-1.2975853e-05
-2.7672925e-06
-1.2852629e-05
-2.681933e-06
-1.2735513e-05
-2.5988179e-06
-1.2624288e-05
-2.5178036e-06
-1.2518743e-05
-2.4387601e-06
-1.2418684e-05
-2.3615677e-06
-1.2323929e-05
-2.2861146e-06
-1.2234312e-05
-2.2122955e-06
-1.2149677e-05
-2.1400106e-06
-1.2069882e-05
-2.0691649e-06
-1.1994789e-05
-1.9996688e-06
-1.1924273e-05
-1.9314375e-06
-1.1858211e-05
-1.8643918e-06
-1.1796488e-05
-1.7984578e-06
-1.1738995e-05
-1.7335672e-06
-1.1685628e-05
-1.6696571e-06
-1.1636288e-05
-1.6066704e-06
-1.1590881e-05
-1.5445555e-06
-1.154932e-05
-1.4832664e-06
-1.1511521e-05
-1.4227626e-06
-1.1477408e-05
-1.363009e-06
-1.1446907e-05
-1.3039759e-06
-1.1419953e-05
-1.2456391e-06
-1.1396485e-05
-1.1879792e-06
-1.1376449e-05
-1.1309824e-06
-1.1359797e-05
-1.0746392e-06
-1.1346488e-05
-1.0189449e-06
-1.1336488e-05
-9.6389902e-07
-1.1329773e-05
-9.0950497e-07
-1.1326325e-05
-8.5576932e-07
-1.1326136e-05
-8.027014e-07
-1.1329206e-05
-7.5031244e-07
-1.1335549e-05
-6.9861467e-07
-1.1345188e-05
-6.4762026e-07
-1.1358156e-05
-5.9734004e-07
-1.1374501e-05
-5.4778196e-07
-1.1394282e-05
-4.9894944e-07
-1.1417574e-05
-4.5083946e-07
-1.1444463e-05
-4.034403e-07
-1.1475049e-05
-3.5672936e-07
-1.1509445e-05
-3.106707e-07
-1.1547773e-05
-2.6521292e-07
-1.1590164e-05
-2.202871e-07
-1.1636743e-05
-1.758058e-07
-1.1687625e-05
-1.3166334e-07
-1.1742885e-05
-8.7738096e-08
-1.1802535e-05
-4.3897616e-08
-1.1866494e-05
-1.1934781e-05
-8.1660868e-06
-1.9578518e-05
-8.1657312e-06
-1.9787763e-05
-7.9817733e-06
-1.9953146e-05
-7.6668735e-06
-2.0029564e-05
-7.2721249e-06
-1.9994408e-05
-6.8423605e-06
-1.9844617e-05
-6.4133985e-06
-1.9591607e-05
-6.0109647e-06
-1.9255894e-05
-5.6507576e-06
-1.8862466e-05
-5.3394884e-06
-1.8436965e-05
-5.0768217e-06
-1.8002295e-05
-4.8575899e-06
-1.7576595e-05
-4.6739552e-06
-1.717243e-05
-4.5172313e-06
-1.6796972e-05
-4.3792392e-06
-1.6452825e-05
-4.2531414e-06
-1.6139191e-05
-4.1338159e-06
-1.5853101e-05
-4.0178834e-06
-1.5590505e-05
-3.9034966e-06
-1.5347143e-05
-3.7899774e-06
-1.5119168e-05
-3.67742e-06
-1.4903481e-05
-3.5663335e-06
-1.4697832e-05
-3.4573607e-06
-1.4500759e-05
-3.3510894e-06
-1.4311437e-05
-3.2479477e-06
-1.4129484e-05
-3.1481696e-06
-1.3954785e-05
-3.0518083e-06
-1.3787343e-05
-2.958776e-06
-1.3627174e-05
-2.8688932e-06
-1.347425e-05
-2.7819345e-06
-1.3328473e-05
-2.697664e-06
-1.318968e-05
-2.6158585e-06
-1.3057659e-05
-2.5363193e-06
-1.2932168e-05
-2.4588754e-06
-1.2812957e-05
-2.3833806e-06
-1.2699782e-05
-2.3097085e-06
-1.2592415e-05
-2.2377474e-06
-1.2490645e-05
-2.1673947e-06
-1.2394282e-05
-2.0985545e-06
-1.2303152e-05
-2.0311351e-06
-1.2217097e-05
-1.9650485e-06
-1.2135968e-05
-1.9002102e-06
-1.2059628e-05
-1.8365397e-06
-1.1987943e-05
-1.7739608e-06
-1.192079e-05
-1.7124022e-06
-1.1858046e-05
-1.6517976e-06
-1.1799599e-05
-1.5920863e-06
-1.1745339e-05
-1.5332126e-06
-1.1695161e-05
-1.4751265e-06
-1.1648967e-05
-1.4177836e-06
-1.1606663e-05
-1.361145e-06
-1.156816e-05
-1.3051771e-06
-1.1533376e-05
-1.2498521e-06
-1.1502232e-05
-1.1951477e-06
-1.1474657e-05
-1.1410471e-06
-1.1450586e-05
-1.0875388e-06
-1.1429957e-05
-1.0346169e-06
-1.1412719e-05
-9.8228052e-07
-1.1398824e-05
-9.3053377e-07
-1.1388235e-05
-8.7938555e-07
-1.1380922e-05
-8.2884906e-07
-1.1376862e-05
-7.7894133e-07
-1.1376043e-05
-7.2968265e-07
-1.1378465e-05
-6.8109581e-07
-1.1384136e-05
-6.3320523e-07
-1.1393078e-05
-5.8603573e-07
-1.1405325e-05
-5.396112e-07
-1.1420925e-05
-4.9395313e-07
-1.143994e-05
-4.490784e-07
-1.1462449e-05
-4.0499728e-07
-1.1488544e-05
-3.6171078e-07
-1.1518336e-05
-3.1920781e-07
-1.1551948e-05
-2.7746219e-07
-1.1589519e-05
-2.3642956e-07
-1.1631196e-05
-1.9604463e-07
-1.1677128e-05
-1.5621926e-07
-1.172745e-05
-1.1684207e-07
-1.1782263e-05
-7.7780611e-08
-1.1841597e-05
-3.8887039e-08
-1.1905388e-05
-1.1973668e-05
-8.1108867e-06
-1.9308491e-05
-8.0776505e-06
-1.9821e-05
-7.8141809e-06
-2.0216616e-05
-7.3962241e-06
-2.0447521e-05
-6.894233e-06
-2.04964e-05
-6.3676329e-06
-2.0371217e-05
-5.8617961e-06
-2.0097444e-05
-5.407269e-06
-1.9710421e-05
-5.0202578e-06
-1.9249477e-05
-4.7048735e-06
-1.8752349e-05
-4.4561903e-06
-1.8250978e-05
-4.2635783e-06
-1.7769207e-05
-4.1138105e-06
-1.7322198e-05
-3.9935784e-06
-1.6917204e-05
-3.8912309e-06
-1.6555172e-05
-3.7976724e-06
-1.623275e-05
-3.7066302e-06
-1.5944143e-05
-3.6144911e-06
-1.5682644e-05
-3.5198046e-06
-1.544183e-05
-3.4226351e-06
-1.5216338e-05
-3.323934e-06
-1.5002182e-05
-3.2250155e-06
-1.479675e-05
-3.1271798e-06
-1.4598595e-05
-3.0314842e-06
-1.4407133e-05
-2.9386433e-06
-1.4222325e-05
-2.8490263e-06
-1.4044402e-05
-2.7627135e-06
-1.3873656e-05
-2.6795821e-06
-1.3710306e-05
-2.5993916e-06
-1.355444e-05
-2.521856e-06
-1.3406008e-05
-2.4466938e-06
-1.3264842e-05
-2.3736568e-06
-1.3130696e-05
-2.302541e-06
-1.3003284e-05
-2.2331847e-06
-1.2882313e-05
-2.1654605e-06
-1.2767507e-05
-2.0992649e-06
-1.2658611e-05
-2.0345089e-06
-1.2555401e-05
-1.9711111e-06
-1.2457679e-05
-1.9089932e-06
-1.236527e-05
-1.8480781e-06
-1.2278012e-05
-1.7882897e-06
-1.2195757e-05
-1.7295538e-06
-1.2118364e-05
-1.6717988e-06
-1.2045698e-05
-1.6149565e-06
-1.1977632e-05
-1.5589634e-06
-1.191404e-05
-1.5037607e-06
-1.1854802e-05
-1.4492949e-06
-1.1799805e-05
-1.3955178e-06
-1.1748939e-05
-1.3423865e-06
-1.1702098e-05
-1.2898638e-06
-1.1659186e-05
-1.2379177e-06
-1.1620106e-05
-1.1865221e-06
-1.1584771e-05
-1.1356562e-06
-1.1553098e-05
-1.0853052e-06
-1.1525008e-05
-1.0354597e-06
-1.1500431e-05
-9.8611651e-07
-1.14793e-05
-9.3727772e-07
-1.1461557e-05
-8.8895125e-07
-1.1447151e-05
-8.4115044e-07
-1.1436036e-05
-7.9389395e-07
-1.1428178e-05
-7.4720529e-07
-1.142355e-05
-7.011126e-07
-1.1422136e-05
-6.5564789e-07
-1.142393e-05
-6.1084653e-07
-1.1428938e-05
-5.6674616e-07
-1.1437179e-05
-5.2338566e-07
-1.1448686e-05
-4.8080372e-07
-1.1463507e-05
-4.3903706e-07
-1.1481707e-05
-3.9811837e-07
-1.1503368e-05
-3.5807368e-07
-1.1528589e-05
-3.1891945e-07
-1.155749e-05
-2.8065905e-07
-1.1590208e-05
-2.4327894e-07
-1.1626899e-05
-2.0674451e-07
-1.1667731e-05
-1.709963e-07
-1.1712876e-05
-1.3594661e-07
-1.17625e-05
-1.0147816e-07
-1.1816731e-05
-6.7445661e-08
-1.1875629e-05
-3.3681816e-08
-1.1939152e-05
-1.200735e-05
-8.3596463e-06
-1.9062232e-05
-8.2200623e-06
-1.9960584e-05
-7.8014111e-06
-2.0635267e-05
-7.2100078e-06
-2.1038924e-05
-6.5410839e-06
-2.1165323e-05
-5.871848e-06
-2.1040453e-05
-5.258377e-06
-2.0710915e-05
-4.7351554e-06
-2.0233642e-05
-4.3167128e-06
-1.9667919e-05
-4.0016414e-06
-1.9067421e-05
-3.7772192e-06
-1.84754e-05
-3.6243072e-06
-1.7922119e-05
-3.5217472e-06
-1.7424758e-05
-3.4498487e-06
-1.6989103e-05
-3.3925042e-06
-1.6612517e-05
-3.338005e-06
-1.6287249e-05
-3.2790843e-06
-1.6003064e-05
-3.2123909e-06
-1.5749338e-05
-3.1374977e-06
-1.5516723e-05
-3.0558367e-06
-1.5297999e-05
-2.9697459e-06
-1.5088273e-05
-2.8817342e-06
-1.4884762e-05
-2.7939999e-06
-1.4686329e-05
-2.7081793e-06
-1.4492953e-05
-2.6252836e-06
-1.430522e-05
-2.5457626e-06
-1.4123923e-05
-2.469641e-06
-1.3949778e-05
-2.3966743e-06
-1.3783272e-05
-2.3264886e-06
-1.3624626e-05
-2.2586854e-06
-1.3473812e-05
-2.1929078e-06
-1.333062e-05
-2.1288706e-06
-1.3194733e-05
-2.0663652e-06
-1.3065789e-05
-2.0052473e-06
-1.2943431e-05
-1.9454184e-06
-1.2827336e-05
-1.8868077e-06
-1.2717221e-05
-1.8293562e-06
-1.2612852e-05
-1.7730079e-06
-1.2514028e-05
-1.7177044e-06
-1.2420573e-05
-1.6633837e-06
-1.2332333e-05
-1.6099813e-06
-1.2249159e-05
-1.557432e-06
-1.2170913e-05
-1.5056722e-06
-1.2097458e-05
-1.4546412e-06
-1.2028663e-05
-1.4042827e-06
-1.1964398e-05
-1.3545452e-06
-1.190454e-05
-1.3053824e-06
-1.1848968e-05
-1.2567535e-06
-1.1797567e-05
-1.2086227e-06
-1.1750229e-05
-1.1609598e-06
-1.1706849e-05
-1.1137402e-06
-1.1667326e-05
-1.0669446e-06
-1.1631567e-05
-1.0205597e-06
-1.1599483e-05
-9.7457804e-07
-1.157099e-05
-9.2899798e-07
-1.1546011e-05
-8.8382414e-07
-1.1524474e-05
-8.3906713e-07
-1.1506314e-05
-7.9474379e-07
-1.1491474e-05
-7.5087693e-07
-1.1479903e-05
-7.0749525e-07
-1.147156e-05
-6.6463322e-07
-1.1466412e-05
-6.2233053e-07
-1.1464439e-05
-5.8063178e-07
-1.1465629e-05
-5.3958573e-07
-1.1469984e-05
-4.9924452e-07
-1.147752e-05
-4.5966247e-07
-1.1488268e-05
-4.2089481e-07
-1.1502275e-05
-3.8299568e-07
-1.1519606e-05
-3.4601599e-07
-1.1540347e-05
-3.1000056e-07
-1.1564604e-05
-2.7498466e-07
-1.1592506e-05
-2.4098982e-07
-1.1624203e-05
-2.0801908e-07
-1.165987e-05
-1.7605153e-07
-1.1699698e-05
-1.4503681e-07
-1.1743891e-05
-1.1489003e-07
-1.1792647e-05
-8.5488532e-08
-1.1846132e-05
-5.6672163e-08
-1.1904446e-05
-2.8249284e-08
-1.1967575e-05
-1.2035599e-05
-8.9956064e-06
-1.8935877e-05
-8.6425169e-06
-2.0313673e-05
-7.9628202e-06
-2.1314964e-05
-7.1029659e-06
-2.1898778e-05
-6.1896247e-06
-2.2078665e-05
-5.3213254e-06
-2.1908752e-05
-4.5655079e-06
-2.1466733e-05
-3.9583784e-06
-2.0840772e-05
-3.5090723e-06
-2.0117225e-05
-3.206203e-06
-1.937029e-05
-3.0245599e-06
-1.8657043e-05
-2.9321495e-06
-1.801453e-05
-2.8964809e-06
-1.7460426e-05
-2.8892955e-06
-1.6996288e-05
-2.8890051e-06
-1.6612807e-05
-2.881126e-06
-1.6295128e-05
-2.8579878e-06
-1.6026202e-05
-2.8174312e-06
-1.5789894e-05
-2.7610882e-06
-1.5573066e-05
-2.6927091e-06
-1.5366378e-05
-2.6167689e-06
-1.5164213e-05
-2.5374773e-06
-1.4964053e-05
-2.4582004e-06
-1.4765606e-05
-2.3812333e-06
-1.456992e-05
-2.3078269e-06
-1.4378627e-05
-2.2383786e-06
-1.4193372e-05
-2.1727026e-06
-1.4015454e-05
-2.1102927e-06
-1.3845682e-05
-2.0505338e-06
-1.3684385e-05
-1.9928467e-06
-1.3531499e-05
-1.9367657e-06
-1.3386701e-05
-1.8819628e-06
-1.3249536e-05
-1.8282357e-06
-1.3119516e-05
-1.7754755e-06
-1.2996192e-05
-1.7236317e-06
-1.2879179e-05
-1.6726809e-06
-1.2768172e-05
-1.6226048e-06
-1.2662928e-05
-1.5733779e-06
-1.2563255e-05
-1.5249633e-06
-1.2468988e-05
-1.4773133e-06
-1.2379983e-05
-1.430373e-06
-1.2296099e-05
-1.3840845e-06
-1.2217201e-05
-1.3383903e-06
-1.2143152e-05
-1.2932362e-06
-1.2073817e-05
-1.2485725e-06
-1.2009062e-05
-1.2043547e-06
-1.1948757e-05
-1.1605438e-06
-1.1892779e-05
-1.1171058e-06
-1.1841005e-05
-1.0740126e-06
-1.1793323e-05
-1.0312409e-06
-1.174962e-05
-9.8877308e-07
-1.1709794e-05
-9.4659705e-07
-1.1673743e-05
-9.0470659e-07
-1.1641373e-05
-8.6310153e-07
-1.1612595e-05
-8.2178799e-07
-1.1587325e-05
-7.8077852e-07
-1.1565484e-05
-7.4009227e-07
-1.1547001e-05
-6.9975503e-07
-1.1531811e-05
-6.597993e-07
-1.1519859e-05
-6.2026423e-07
-1.1511095e-05
-5.8119546e-07
-1.1505481e-05
-5.4264486e-07
-1.1502989e-05
-5.0467024e-07
-1.1503603e-05
-4.6733472e-07
-1.1507319e-05
-4.3070604e-07
-1.1514148e-05
-3.9485551e-07
-1.1524118e-05
-3.5985664e-07
-1.1537273e-05
-3.2578334e-07
-1.155368e-05
-2.9270757e-07
-1.1573423e-05
-2.6069632e-07
-1.1596616e-05
-2.2980777e-07
-1.1623394e-05
-2.0008632e-07
-1.1653925e-05
-1.7155682e-07
-1.1688399e-05
-1.442175e-07
-1.1727037e-05
-1.1803241e-07
-1.1770076e-05
-9.2923543e-08
-1.1817756e-05
-6.8764685e-08
-1.1870291e-05
-4.537944e-08
-1.1927831e-05
-2.2545813e-08
-1.1990408e-05
-1.2058145e-05
-1.0112497e-05
-1.9072802e-05
-9.3934093e-06
-2.103276e-05
-8.3071893e-06
-2.2401184e-05
-7.0527717e-06
-2.3153196e-05
-5.7963348e-06
-2.3335102e-05
-4.661491e-06
-2.3043596e-05
-3.7265758e-06
-2.2401648e-05
-3.0253427e-06
-2.1542005e-05
-2.55536e-06
-2.0587208e-05
-2.2886297e-06
-1.963702e-05
-2.1806258e-06
-1.8765047e-05
-2.1804069e-06
-1.8014749e-05
-2.2398069e-06
-1.7401027e-05
-2.3193286e-06
-1.6916766e-05
-2.390958e-06
-1.6541178e-05
-2.4378164e-06
-1.624827e-05
-2.4530875e-06
-1.6010931e-05
-2.4374124e-06
-1.5805569e-05
-2.3961106e-06
-1.5614368e-05
-2.3366495e-06
-1.5425839e-05
-2.2666706e-06
-1.5234192e-05
-2.1927007e-06
-1.5038023e-05
-2.1195385e-06
-1.4838769e-05
-2.0501332e-06
-1.4639325e-05
-1.9857863e-06
-1.4442974e-05
-1.9265805e-06
-1.4252577e-05
-1.8718579e-06
-1.4070176e-05
-1.8206347e-06
-1.3896906e-05
-1.771906e-06
-1.3733114e-05
-1.7248283e-06
-1.3578576e-05
-1.6787996e-06
-1.343273e-05
-1.6334593e-06
-1.3294876e-05
-1.5886415e-06
-1.3164334e-05
-1.5443086e-06
-1.3040524e-05
-1.5004891e-06
-1.2922999e-05
-1.4572299e-06
-1.2811431e-05
-1.4145661e-06
-1.2705592e-05
-1.3725081e-06
-1.2605313e-05
-1.3310399e-06
-1.2510456e-05
-1.2901249e-06
-1.2420898e-05
-1.2497136e-06
-1.2336511e-05
-1.2097518e-06
-1.2257163e-05
-1.1701857e-06
-1.2182718e-05
-1.1309659e-06
-1.2113037e-05
-1.0920487e-06
-1.2047979e-05
-1.0533963e-06
-1.198741e-05
-1.0149771e-06
-1.1931198e-05
-9.7676458e-07
-1.1879218e-05
-9.3873758e-07
-1.183135e-05
-9.0088005e-07
-1.1787478e-05
-8.6318119e-07
-1.1747493e-05
-8.2563587e-07
-1.1711288e-05
-7.8824483e-07
-1.1678764e-05
-7.5101511e-07
-1.1649825e-05
-7.139603e-07
-1.1624379e-05
-6.7710092e-07
-1.1602343e-05
-6.4046454e-07
-1.1583637e-05
-6.0408604e-07
-1.156819e-05
-5.6800766e-07
-1.1555937e-05
-5.3227915e-07
-1.1546823e-05
-4.9695767e-07
-1.1540803e-05
-4.621077e-07
-1.1537839e-05
-4.2780081e-07
-1.153791e-05
-3.9411533e-07
-1.1541005e-05
-3.6113567e-07
-1.1547128e-05
-3.2895154e-07
-1.1556302e-05
-2.9765663e-07
-1.1568568e-05
-2.6734697e-07
-1.1583989e-05
-2.3811865e-07
-1.1602651e-05
-2.1006469e-07
-1.162467e-05
-1.8327111e-07
-1.1650188e-05
-1.5781098e-07
-1.1679385e-05
-1.3373772e-07
-1.1712473e-05
-1.1107635e-07
-1.1749699e-05
-8.9813142e-08
-1.1791339e-05
-6.988431e-08
-1.1837684e-05
-5.1164213e-08
-1.1889011e-05
-3.3459928e-08
-1.1945535e-05
-1.6512879e-08
-1.2007355e-05
-1.2074658e-05
-1.1812677e-05
-1.9681367e-05
-1.0514251e-05
-2.2331187e-05
-8.8243712e-06
-2.4091063e-05
-7.0103687e-06
-2.4967198e-05
-5.2875471e-06
-2.5057923e-05
-3.8081494e-06
-2.4522994e-05
-2.6592016e-06
-2.3550596e-05
-1.8648026e-06
-2.2336404e-05
-1.4007806e-06
-2.105123e-05
-1.2129663e-06
-1.9824835e-05
-1.227354e-06
-1.8750659e-05
-1.3657209e-06
-1.7876382e-05
-1.5592999e-06
-1.7207448e-05
-1.7540751e-06
-1.6721991e-05
-1.9149908e-06
-1.6380262e-05
-2.0241809e-06
-1.613908e-05
-2.0779692e-06
-1.5957143e-05
-2.0824178e-06
-1.5801121e-05
-2.0490073e-06
-1.5647779e-05
-1.9909359e-06
-1.548391e-05
-1.9203573e-06
-1.530477e-05
-1.8468118e-06
-1.5111569e-05
-1.7767225e-06
-1.4908858e-05
-1.7134884e-06
-1.470256e-05
-1.6580494e-06
-1.4498413e-05
-1.6097076e-06
-1.4300919e-05
-1.5669158e-06
-1.4112968e-05
-1.5279012e-06
-1.393592e-05
-1.4910749e-06
-1.376994e-05
-1.4552421e-06
-1.3614409e-05
-1.4196581e-06
-1.3468314e-05
-1.3839743e-06
-1.333056e-05
-1.3481257e-06
-1.3200183e-05
-1.3122086e-06
-1.3076442e-05
-1.2763796e-06
-1.2958828e-05
-1.2407868e-06
-1.2847024e-05
-1.2055336e-06
-1.2740846e-05
-1.170668e-06
-1.2640178e-05
-1.1361902e-06
-1.2544934e-05
-1.1020667e-06
-1.2455021e-05
-1.0682461e-06
-1.2370331e-05
-1.0346717e-06
-1.2290738e-05
-1.0012899e-06
-1.22161e-05
-9.6805456e-07
-1.2146272e-05
-9.3492739e-07
-1.2081106e-05
-9.0187785e-07
-1.2020459e-05
-8.6888186e-07
-1.1964194e-05
-8.3592068e-07
-1.1912179e-05
-8.0298045e-07
-1.186429e-05
-7.7005207e-07
-1.1820406e-05
-7.3713149e-07
-1.1780413e-05
-7.0422012e-07
-1.17442e-05
-6.7132546e-07
-1.1711659e-05
-6.384614e-07
-1.1682689e-05
-6.0564889e-07
-1.1657192e-05
-5.7291614e-07
-1.1635076e-05
-5.4029909e-07
-1.1616254e-05
-5.0784158e-07
-1.1600647e-05
-4.7559568e-07
-1.1588183e-05
-4.4362175e-07
-1.1578797e-05
-4.1198866e-07
-1.1572436e-05
-3.8077383e-07
-1.1569054e-05
-3.5006305e-07
-1.1568621e-05
-3.1995048e-07
-1.1571117e-05
-2.9053818e-07
-1.157654e-05
-2.6193553e-07
-1.1584905e-05
-2.3425824e-07
-1.1596246e-05
-2.0762679e-07
-1.1610621e-05
-1.8216455e-07
-1.1628114e-05
-1.579949e-07
-1.1648839e-05
-1.3523727e-07
-1.1672946e-05
-1.1400039e-07
-1.1700622e-05
-9.4374918e-08
-1.1732098e-05
-7.6422914e-08
-1.1767651e-05
-6.0164657e-08
-1.1807598e-05
-4.5562692e-08
-1.1852286e-05
-3.2500076e-08
-1.1902074e-05
-2.076956e-08
-1.1957266e-05
-1.0069799e-08
-1.2018055e-05
-1.2084727e-05
-1.4203256e-05
-2.1058818e-05
-1.2030695e-05
-2.4503748e-05
-9.4729336e-06
-2.6648825e-05
-6.8860149e-06
-2.7554117e-05
-4.5457812e-06
-2.7398157e-05
-2.6357215e-06
-2.6433054e-05
-1.247433e-06
-2.4938884e-05
-3.8387923e-07
-2.3199957e-05
1.4883544e-08
-2.1449993e-05
5.40889e-08
-1.986404e-05
-1.5182053e-07
-1.854475e-05
-4.9230338e-07
-1.7535899e-05
-8.7232625e-07
-1.6827425e-05
-1.21801e-06
-1.6376307e-05
-1.4871117e-06
-1.611116e-05
-1.663665e-06
-1.5962526e-05
-1.7510845e-06
-1.5869723e-05
-1.7649866e-06
-1.5787219e-05
-1.7267048e-06
-1.568606e-05
-1.6579694e-06
-1.5552646e-05
-1.5771176e-06
-1.5385622e-05
-1.4974049e-06
-1.5191282e-05
-1.426826e-06
-1.4979437e-05
-1.3686513e-06
-1.4760734e-05
-1.3226896e-06
-1.4544375e-05
-1.2866933e-06
-1.4336915e-05
-1.2575951e-06
-1.4142066e-05
-1.232405e-06
-1.396111e-05
-1.208719e-06
-1.3793626e-05
-1.1849206e-06
-1.3638208e-05
-1.1601711e-06
-1.3493063e-05
-1.1342422e-06
-1.3356489e-05
-1.1072903e-06
-1.3227135e-05
-1.0796479e-06
-1.3104084e-05
-1.0516711e-06
-1.2986805e-05
-1.023648e-06
-1.2875047e-05
-9.9576215e-07
-1.2768731e-05
-9.6809413e-07
-1.2667846e-05
-9.4064592e-07
-1.2572382e-05
-9.1337153e-07
-1.2482296e-05
-8.8620454e-07
-1.2397498e-05
-8.5907749e-07
-1.2317865e-05
-8.319327e-07
-1.2243245e-05
-8.0472568e-07
-1.2173479e-05
-7.7742443e-07
-1.2108407e-05
-7.5000668e-07
-1.2047877e-05
-7.2245703e-07
-1.1991744e-05
-6.9476511e-07
-1.1939871e-05
-6.6692452e-07
-1.189213e-05
-6.3893293e-07
-1.1848398e-05
-6.1079261e-07
-1.1808553e-05
-5.8251116e-07
-1.1772481e-05
-5.5410224e-07
-1.1740068e-05
-5.2558638e-07
-1.1711205e-05
-4.969914e-07
-1.1685787e-05
-4.6835306e-07
-1.1663714e-05
-4.3971537e-07
-1.1644892e-05
-4.1113104e-07
-1.1629232e-05
-3.8266179e-07
-1.1616652e-05
-3.5437862e-07
-1.160708e-05
-3.2636216e-07
-1.1600452e-05
-2.9870283e-07
-1.1596713e-05
-2.7150098e-07
-1.1595823e-05
-2.4486699e-07
-1.1597751e-05
-2.1892127e-07
-1.1602486e-05
-1.9379421e-07
-1.1610032e-05
-1.6962493e-07
-1.1620415e-05
-1.4656057e-07
-1.1633685e-05
-1.2475476e-07
-1.164992e-05
-1.0436545e-07
-1.1669229e-05
-8.5552541e-08
-1.1691759e-05
-6.8467718e-08
-1.1717706e-05
-5.3249654e-08
-1.1747316e-05
-4.0010872e-08
-1.178089e-05
-2.8821558e-08
-1.1818787e-05
-1.9693075e-08
-1.1861415e-05
-1.2530195e-08
-1.1909237e-05
-7.1201804e-09
-1.1962676e-05
-3.1118111e-09
-1.2022063e-05
-1.2087839e-05
-1.738857e-05
-2.3623459e-05
-1.3938169e-05
-2.7954149e-05
-1.016161e-05
-3.0425383e-05
-6.5291929e-06
-3.1186535e-05
-3.3909622e-06
-3.0536387e-05
-9.6381588e-07
-2.88602e-05
6.8225785e-07
-2.6584958e-05
1.5760487e-06
-2.4093748e-05
1.8301103e-06
-2.1704054e-05
1.6036308e-06
-1.9637561e-05
1.0787299e-06
-1.8019849e-05
4.2755808e-07
-1.6884727e-05
-2.1130066e-07
-1.6188566e-05
-7.5133609e-07
-1.5836272e-05
-1.146916e-06
-1.571558e-05
-1.3896816e-06
-1.5719761e-05
-1.4968247e-06
-1.576258e-05
-1.4999409e-06
-1.5784102e-05
-1.4356604e-06
-1.5750341e-05
-1.3379606e-06
-1.5650346e-05
-1.2333099e-06
-1.5490273e-05
-1.139217e-06
-1.5285374e-05