/*--------------------------------*- C++ -*----------------------------------*\
| =========                 |                                                 |
| \\      /  F ield         | OpenFOAM: The Open Source CFD Toolbox           |
|  \\    /   O peration     | Version:  2106                                  |
|   \\  /    A nd           | Website:  www.openfoam.com                      |
|    \\/     M anipulation  |                                                 |
\*---------------------------------------------------------------------------*/
FoamFile
{
    version     2.0;
    format      ascii;
    arch        "LSB;label=32;scalar=64";
    class       surfaceScalarField;
    location    "0.049";
    object      phi;
}
// * * * * * * * * * * * * * * * * * * * * * * * * * * * * * * * * * * * * * //

dimensions      [0 3 -1 0 0 0 0];

oriented        oriented;

internalField   nonuniform List<scalar> 
8064
(
-3.9817095e-05
3.9815922e-05
-7.9248382e-05
3.9431287e-05
-0.00011791416
3.8665775e-05
-0.000155441
3.7526848e-05
-0.00019146661
3.6025603e-05
-0.00022564327
3.4176664e-05
-0.0002576413
3.1998028e-05
-0.00028715219
2.9510893e-05
-0.00031389163
2.6739438e-05
-0.00033760222
2.3710586e-05
-0.00035805595
2.0453734e-05
-0.00037505641
1.7000462e-05
-0.00038844063
1.3384219e-05
-0.00039808062
9.6399892e-06
-0.00040388454
5.8039171e-06
-0.00040579769
1.9131552e-06
-0.00040380283
-1.9948649e-06
-0.00039792031
-5.8825172e-06
-0.00038820791
-9.7123965e-06
-0.00037476021
-1.3447703e-05
-0.00035770762
-1.7052593e-05
-0.0003372151
-2.0492514e-05
-0.00031348057
-2.373453e-05
-0.00028673294
-2.6747631e-05
-0.00025722992
-2.9503025e-05
-0.00022525551
-3.1974407e-05
-0.00019111731
-3.4138202e-05
-0.00015514352
-3.5973783e-05
-0.00011767986
-3.7463663e-05
-7.9086203e-05
-3.8593657e-05
-3.9733193e-05
-3.935301e-05
1.3019376e-09
-3.9734495e-05
3.9735786e-05
-3.9734484e-05
7.9088764e-05
-3.9352977e-05
0.00011768237
-3.8593604e-05
0.00015514596
-3.7463588e-05
0.00019111964
-3.5973686e-05
0.00022525772
-3.4138084e-05
0.00025723199
-3.1974268e-05
0.00028673486
-2.9502865e-05
0.00031348231
-2.6747451e-05
0.00033721664
-2.3734332e-05
0.00035770894
-2.04923e-05
0.00037476131
-1.7052365e-05
0.00038820877
-1.3447463e-05
0.00039792091
-9.7121468e-06
0.00040380318
-5.8822616e-06
0.00040579778
-1.9946067e-06
0.00040388437
1.9134126e-06
0.0003980802
5.8041705e-06
0.00038843996
9.6402353e-06
0.00037505551
1.3384455e-05
0.00035805483
1.7000685e-05
0.00033760088
2.0453942e-05
0.00031389011
2.3710776e-05
0.0002871505
2.673961e-05
0.00025763945
2.9511045e-05
0.00022564129
3.1998161e-05
0.00019146452
3.4176776e-05
0.00015543882
3.6025695e-05
0.0001179119
3.7526919e-05
7.9246076e-05
3.8665825e-05
3.981476e-05
3.9431317e-05
3.9815932e-05
-4.0255684e-05
8.0070419e-05
-8.0121294e-05
7.9296897e-05
-0.00011921293
7.7757414e-05
-0.00015715306
7.5466975e-05
-0.00019357536
7.2447902e-05
-0.00022812829
6.87296e-05
-0.00026047854
6.434827e-05
-0.00029031418
5.9346541e-05
-0.00031734779
5.3773043e-05
-0.00034131913
4.7681922e-05
-0.00036199769
4.1132298e-05
-0.00037918491
3.418768e-05
-0.00039271603
2.6915336e-05
-0.00040246166
1.9385626e-05
-0.00040832906
1.1671312e-05
-0.00041026282
3.8469202e-06
-0.00040824555
-4.0121371e-06
-0.00040229787
-1.1830197e-05
-0.00039247821
-1.9532056e-05
-0.0003788822
-2.7043716e-05
-0.00036164169
-3.4293097e-05
-0.00034092349
-4.1210715e-05
-0.00031692769
-4.7730338e-05
-0.00028988571
-5.3789609e-05
-0.0002600581
-5.9330631e-05
-0.000227732
-6.4300506e-05
-0.00019321838
-6.8651827e-05
-0.00015684904
-7.2343117e-05
-0.00011897349
-7.5339213e-05
-7.9955563e-05
-7.7611588e-05
-4.0169956e-05
-7.9138617e-05
1.318303e-09
-7.9905769e-05
4.0172582e-05
-7.9905748e-05
7.9958156e-05
-7.9138552e-05
0.00011897603
-7.7611481e-05
0.00015685151
-7.5339062e-05
0.00019322074
-7.2342923e-05
0.00022773425
-6.8651589e-05
0.00026006021
-6.4300226e-05
0.00028988765
-5.933031e-05
0.00031692945
-5.3789248e-05
0.00034092506
-4.772994e-05
0.00036164304
-4.1210283e-05
0.00037888331
-3.4292636e-05
0.00039247908
-2.704323e-05
0.00040229848
-1.9531552e-05
0.0004082459
-1.1829681e-05
0.00041026291
-4.0116159e-06
0.00040832889
3.8474398e-06
0.00040246123
1.1671823e-05
0.00039271535
1.9386123e-05
0.00037918399
2.6915811e-05
0.00036199655
3.4188129e-05
0.00034131777
4.1132716e-05
0.00031734624
4.7682306e-05
0.00029031246
5.3773389e-05
0.00026047666
5.9346848e-05
0.00022812628
6.4348536e-05
0.00019357324
6.8729824e-05
0.00015715085
7.2448085e-05
0.00011921065
7.5467117e-05
8.0118958e-05
7.7757514e-05
4.0253318e-05
7.9296957e-05
8.0070439e-05
-4.0947046e-05
0.00012101625
-8.1497303e-05
0.00011984715
-0.00012126027
0.00011752038
-0.00015985193
0.00011405863
-0.00019689964
0.00010949562
-0.00023204584
0.0001038758
-0.00026495147
9.7253897e-05
-0.00029529927
8.9694339e-05
-0.00032279685
8.1270629e-05
-0.00034717953
7.2064605e-05
-0.00036821286
6.2165624e-05
-0.00038569486
5.1669676e-05
-0.00039945795
4.0678432e-05
-0.00040937057
2.929824e-05
-0.00041533834
1.7639087e-05
-0.00041730497
5.8135493e-06
-0.00041525274
-6.0643623e-06
-0.00040920266
-1.7880278e-05
-0.00039921417
-2.9520547e-05
-0.00038538455
-4.087334e-05
-0.00036784792
-5.1829721e-05
-0.00034677396
-6.2284676e-05
-0.00032236619
-7.2138109e-05
-0.00029486002
-8.1295778e-05
-0.00026452047
-8.9670184e-05
-0.00023163959
-9.7181383e-05
-0.00019653369
-0.00010375773
-0.00015954028
-0.00010933653
-0.00012101483
-0.00011386466
-8.1327418e-05
-0.000117299
-4.0859175e-05
-0.00011960686
1.3454195e-09
-0.00012076629
4.0861855e-05
-0.00012076626
8.1330066e-05
-0.00011960676
0.00012101742
-0.00011729884
0.00015954279
-0.00011386443
0.00019653611
-0.00010933624
0.00023164189
-0.00010375737
0.00026452263
-9.718096e-05
0.00029486202
-8.9669699e-05
0.000322368
-8.1295232e-05
0.00034677556
-7.2137505e-05
0.0003678493
-6.2284021e-05
0.00038538569
-5.1829021e-05
0.00039921506
-4.0872603e-05
0.00040920329
-2.9519782e-05
0.0004152531
-1.7879494e-05
0.00041730506
-6.0635702e-06
0.00041533816
5.8143389e-06
0.00040937012
1.7639864e-05
0.00039945725
2.9298993e-05
0.00038569391
4.0679153e-05
0.00036821168
5.1670357e-05
0.00034717814
6.2166257e-05
0.00032279526
7.2065185e-05
0.0002952975
8.1271152e-05
0.00026494954
8.9694802e-05
0.00023204378
9.7254298e-05
0.00019689747
0.00010387614
0.00015984966
0.00010949589
0.00012125794
0.00011405884
8.1494918e-05
0.00011752054
4.0944631e-05
0.00011984724
0.00012101628
-4.1902299e-05
0.0001629173
-8.3398537e-05
0.00016134339
-0.0001240891
0.00015821095
-0.000163581
0.00015355052
-0.0002014929
0.00014740752
-0.0002374589
0.00013984179
-0.00027113201
0.00013092701
-0.00030218758
0.00012074991
-0.00033032641
0.00010940946
-0.00035527764
9.7015836e-05
-0.00037680136
8.368934e-05
-0.00039469088
6.9559203e-05
-0.00040877476
5.4762302e-05
-0.00041891833
3.9441813e-05
-0.00042502505
2.3745809e-05
-0.00042703732
7.8258215e-06
-0.00042493703
-8.1646564e-06
-0.00041874566
-2.4071645e-05
-0.00040852406
-3.974215e-05
-0.00039437177
-5.5025627e-05
-0.00037642607
-6.9775427e-05
-0.00035486056
-8.3850181e-05
-0.00032988353
-9.711514e-05
-0.00030173587
-0.00010944344
-0.00027068878
-0.00012071728
-0.00023704112
-0.00013082904
-0.00020111658
-0.00013968228
-0.00016326051
-0.0001471926
-0.0001238367
-0.00015328847
-8.3223834e-05
-0.00015791186
-4.1811936e-05
-0.00016101876
1.3836681e-09
-0.00016257961
4.1814693e-05
-0.00016257957
8.3226559e-05
-0.00016101863
0.00012383937
-0.00015791164
0.0001632631
-0.00015328817
0.00020111907
-0.00014719221
0.0002370435
-0.0001396818
0.00027069101
-0.00013082847
0.00030173793
-0.00012071662
0.0003298854
-0.0001094427
0.00035486222
-9.7114325e-05
0.0003764275
-8.3849296e-05
0.00039437296
-6.977448e-05
0.00040852498
-5.5024629e-05
0.00041874631
-3.9741112e-05
0.0004249374
-2.4070582e-05
0.00042703741
-8.163582e-06
0.00042502486
7.8268925e-06
0.00041891786
2.3746862e-05
0.00040877402
3.9442834e-05
0.00039468989
5.4763279e-05
0.00037680013
6.9560124e-05
0.00035527619
8.3690195e-05
0.00033032475
9.7016618e-05
0.00030218574
0.00010941016
0.00027113001
0.00012075053
0.00023745677
0.00013092754
0.00020149066
0.00013984225
0.00016357866
0.00014740789
0.0001240867
0.0001535508
8.3396081e-05
0.00015821115
4.1899814e-05
0.00016134351
0.00016291734
-4.3138085e-05
0.0002060541
-8.5858117e-05
0.00020406342
-0.0001277487
0.00020010153
-0.00016840524
0.00019420706
-0.00020743516
0.00018643744
-0.00024446175
0.00017686839
-0.0002791278
0.00016559306
-0.0003110991
0.0001527212
-0.0003400676
0.00013837796
-0.00036575448
0.00012270271
-0.00038791275
0.00010584761
-0.00040632965
8.7976107e-05
-0.00042082868
6.9261325e-05
-0.00043127122
4.9884354e-05
-0.00043755788
3.0032471e-05
-0.00043962938
9.8973203e-06
-0.00043746707
-1.0326966e-05
-0.00043109308
-3.0445636e-05
-0.00042057004
-5.026519e-05
-0.00040600043
-6.9595232e-05
-0.00038752557
-8.8250288e-05
-0.00036532419
-0.00010605156
-0.00033961069
-0.00012282863
-0.00031063308
-0.00013842105
-0.00027867054
-0.00015267982
-0.00024403075
-0.00016546883
-0.00020704691
-0.00017666611
-0.0001680746
-0.00018616492
-0.0001274883
-0.00019387478
-8.5677878e-05
-0.00019972228
-4.3044853e-05
-0.00020365178
1.4335025e-09
-0.0002056259
4.304771e-05
-0.00020562584
8.5680702e-05
-0.00020365162
0.00012749107
-0.00019972201
0.00016807729
-0.0001938744
0.00020704951
-0.00018616443
0.00024403322
-0.00017666551
0.00027867287
-0.00016546812
0.00031063524
-0.00015267899
0.00033961265
-0.00013842011
0.00036532593
-0.0001228276
0.00038752707
-0.00010605044
0.00040600167
-8.8249082e-05
0.000420571
-6.9593959e-05
0.00043109375
-5.0263866e-05
0.00043746745
-3.0444278e-05
0.00043962946
-1.0325594e-05
0.00043755767
9.898688e-06
0.00043127071
3.0033815e-05
0.00042082789
4.9885656e-05
0.0004063286
6.9262569e-05
0.00038791145
8.7977278e-05
0.00036575295
0.0001058487
0.00034006586
0.0001227037
0.00031109717
0.00013837885
0.00027912572
0.00015272198
0.00024445953
0.00016559374
0.00020743282
0.00017686895
0.00016840281
0.0001864379
0.0001277462
0.00019420741
8.5855569e-05
0.00020010178
4.3135509e-05
0.00020406357
0.00020605415
-4.4677408e-05
0.00025073016
-8.8921827e-05
0.00024830784
-0.00013230719
0.00024348689
-0.00017441444
0.00023631431
-0.00021483701
0.00022686002
-0.00025318474
0.00021521611
-0.00028908768
0.000201496
-0.00032219967
0.00018583319
-0.0003522017
0.00016838
-0.00037880501
0.00014930602
-0.0004017538
0.0001287964
-0.00042082773
0.00010705004
-0.00043584401
8.4277601e-05
-0.00044665909
6.0699434e-05
-0.00045317004
3.6543419e-05
-0.00045531546
1.2042742e-05
-0.00045307605
-1.2566378e-05
-0.00044647471
-3.704697e-05
-0.00043557631
-6.1163587e-05
-0.00042048699
-8.4684559e-05
-0.00040135307
-0.00010738421
-0.00037835966
-0.00012904497
-0.00035172881
-0.00014945949
-0.00032171735
-0.00016843251
-0.00028861442
-0.00018578275
-0.00025273866
-0.00020134459
-0.00021443519
-0.00021496959
-0.00017407223
-0.00022652787
-0.00013203767
-0.00023590934
-8.8735273e-05
-0.00024302467
-4.4580899e-05
-0.00024780616
1.4950978e-09
-0.00025020829
4.4583879e-05
-0.00025020823
8.8738222e-05
-0.00024780596
0.00013204056
-0.00024302435
0.00017407505
-0.00023590889
0.00021443791
-0.00022652728
0.00025274126
-0.00021496886
0.00028861686
-0.00020134372
0.00032171962
-0.00018578175
0.00035173087
-0.00016843137
0.0003783615
-0.00014945823
0.00040135465
-0.0001290436
0.0004204883
-0.00010738273
0.00043557733
-8.4682995e-05
0.00044647543
-6.1161957e-05
0.00045307645
-3.7045298e-05
0.00045531554
-1.2564688e-05
0.0004531698
1.2044427e-05
0.00044665854
3.6545073e-05
0.00043584316
6.0701035e-05
0.00042082661
8.4279128e-05
0.00040175241
0.00010705147
0.00037880338
0.00012879773
0.00035219986
0.00014930723
0.00032219763
0.00016838108
0.00028908548
0.00018583414
0.0002531824
0.00020149681
0.00021483456
0.00021521679
0.0001744119
0.00022686056
0.00013230457
0.00023631473
8.8919166e-05
0.00024348719
4.4674719e-05
0.00024830802
0.00025073021
-4.6551423e-05
0.00029728016
-9.2651678e-05
0.0002944081
-0.00013785682
0.00028869204
-0.00018173023
0.00028018772
-0.00022384827
0.00026897805
-0.00026380441
0.00025517225
-0.00030121318
0.00023890477
-0.00033571392
0.00022033393
-0.00036697426
0.00019964034
-0.00039469331
0.00017702507
-0.00041860457
0.00015270766
-0.00043847847
0.00012692395
-0.00045412457
9.9923694e-05
-0.0004653933
7.1968167e-05
-0.00047217742
4.3327545e-05
-0.00047441298
1.4278294e-05
-0.00047207983
-1.4899521e-05
-0.00046520186
-4.3924944e-05
-0.00045384662
-7.2518826e-05
-0.00043812468
-0.0001004065
-0.0004181885
-0.00012732039
-0.00039423091
-0.00015300256
-0.00036648327
-0.00017720713
-0.00033521315
-0.00019970262
-0.00030072181
-0.00022027409
-0.00026334126
-0.00023872514
-0.00022343107
-0.00025487978
-0.00018137493
-0.00026858401
-0.00013757699
-0.00027970728
-9.2457974e-05
-0.00028814369
-4.6451201e-05
-0.00029381293
1.5681403e-09
-0.00029666106
4.6454328e-05
-0.00029666099
9.246107e-05
-0.00029381271
0.00013758003
-0.00028814331
0.0001813779
-0.00027970675
0.00022343394
-0.00026858332
0.00026334401
-0.00025487892
0.0003007244
-0.00023872412
0.00033521556
-0.0002202729
0.00036648547
-0.00019970128
0.00039423287
-0.00017720563
0.00041819019
-0.00015300091
0.00043812608
-0.00012731862
0.00045384771
-0.00010040462
0.00046520262
-7.2516868e-05
0.00047208025
-4.3922933e-05
0.00047441305
-1.4897487e-05
0.00047217716
1.428032e-05
0.0004653927
4.3329533e-05
0.00045412364
7.1970089e-05
0.00043847725
9.9925523e-05
0.00041860306
0.00012692566
0.00039469155
0.00015270924
0.00036697228
0.0001770265
0.00033571174
0.00019964161
0.00030121084
0.00022033505
0.00026380192
0.00023890572
0.00022384567
0.00025517304
0.00018172755
0.00026897869
0.00013785407
0.00028018821
9.2648882e-05
0.00028869238
4.6548601e-05
0.0002944083
0.00029728023
-4.8802256e-05
0.00034608093
-9.7131513e-05
0.00034273735
-0.00014452236
0.00033608289
-0.00019051706
0.00032618242
-0.00023467149
0.00031313248
-0.00027655945
0.00029706022
-0.00031577686
0.00027812218
-0.00035194562
0.00025650269
-0.00038471729
0.00023241201
-0.00041377646
0.00020608424
-0.00043884377
0.00017777497
-0.00045967857
0.00014775874
-0.00047608121
0.00011632633
-0.00048789492
8.3781875e-05
-0.00049500727
5.0439899e-05
-0.00049735121
1.6622235e-05
-0.00049490564
-1.7345095e-05
-0.00048769555
-5.1135032e-05
-0.00047579175
-8.4422621e-05
-0.00045931013
-0.00011688812
-0.00043841048
-0.00014822004
-0.00041329493
-0.00017811811
-0.00038420598
-0.00020629609
-0.00035142412
-0.00023248448
-0.00031526516
-0.00025643305
-0.00027607714
-0.00027791316
-0.00023423702
-0.00029671989
-0.00019014706
-0.00031267397
-0.00014423095
-0.0003256234
-9.6929784e-05
-0.00033544485
-4.8697866e-05
-0.00034204485
1.6516563e-09
-0.00034536058
4.870116e-05
-0.00034536049
9.693305e-05
-0.0003420446
0.00014423416
-0.00033544443
0.00019015021
-0.0003256228
0.00023424008
-0.00031267319
0.00027608007
-0.00029671892
0.00031526793
-0.00027791198
0.00035142671
-0.00025643168
0.00038420834
-0.00023248291
0.00041329704
-0.00020629433
0.00043841231
-0.00017811618
0.00045931164
-0.00014821796
0.00047579293
-0.0001168859
0.00048769636
-8.4420306e-05
0.00049490608
-5.1132651e-05
0.00049735128
-1.7342685e-05
0.00049500697
1.6624635e-05
0.00048789425
5.0442251e-05
0.00047608019
8.3784145e-05
0.00045967723
0.00011632849
0.00043884213
0.00014776076
0.00041377456
0.00017777682
0.00038471515
0.00020608591
0.00035194327
0.00023241349
0.00031577434
0.00025650397
0.0002765568
0.00027812327
0.00023466872
0.00029706112
0.00019051421
0.0003131332
0.00014451945
0.00032618297
9.7128563e-05
0.00033608327
4.8799282e-05
0.00034273758
0.000346081
-5.1486643e-05
0.000397566
-0.00010247426
0.00039372497
-0.00015247183
0.00038608046
-0.00020099642
0.00037470702
-0.00024757948
0.00035971554
-0.00029177139
0.00034125212
-0.00033314582
0.00031949661
-0.00037130389
0.00029466076
-0.00040587803
0.00026698615
-0.00043653549
0.00023674171
-0.00046298157
0.00020422105
-0.00048496241
0.00016973958
-0.0005022674
0.00013363132
-0.00051473117
9.6245642e-05
-0.00052223511
5.7943839e-05
-0.00052470847
1.9095599e-05
-0.00052212898
-1.9924584e-05
-0.00051452299
-5.8741026e-05
-0.00050196516
-9.6980455e-05
-0.00048457769
-0.00013427558
-0.00046252914
-0.0001702686
-0.00043603269
-0.00020461456
-0.00040534413
-0.00023698464
-0.00037075937
-0.00026706924
-0.00033261153
-0.00029458089
-0.00029126779
-0.00031925689
-0.00024712585
-0.00034086184
-0.00020061009
-0.00035918973
-0.00015216755
-0.00037406594
-0.00010226362
-0.00038534878
-5.1377626e-05
-0.00039293084
1.7437781e-09
-0.00039673995
5.1381105e-05
-0.00039673986
0.00010226707
-0.00039293056
0.00015217096
-0.00038534832
0.00020061344
-0.00037406528
0.00024712911
-0.00035918886
0.00029127093
-0.00034086074
0.00033261451
-0.00031925557
0.00037076216
-0.00029457933
0.0004053467
-0.00026706745
0.00043603498
-0.00023698262
0.00046253112
-0.00020461232
0.00048457934
-0.00017026617
0.00050196643
-0.000134273
0.00051452387
-9.6977747e-05
0.00052212946
-5.8738237e-05
0.00052470854
-1.9921761e-05
0.00052223476
1.9098411e-05
0.00051473042
5.7946592e-05
0.00050226627
9.6248292e-05
0.00048496093
0.00013363383
0.00046297977
0.00016974192
0.0004365334
0.00020422319
0.00040587569
0.00023674362
0.00037130134
0.00026698784
0.0003331431
0.00029466222
0.00029176854
0.00031949783
0.00024757653
0.00034125313
0.00020099339
0.00035971633
0.00015246874
0.00037470762
0.00010247114
0.00038608088
5.1483503e-05
0.00039372522
0.00039756608
-5.468003e-05
0.00045224437
-0.00010883008
0.00044787502
-0.00016192865
0.00043917903
-0.00021346286
0.00042624122
-0.00026293507
0.00040918775
-0.00030986778
0.00038818483
-0.00035380823
0.00036343707
-0.00039433284
0.00033518537
-0.00043105124
0.00030370455
-0.0004636101
0.00026930056
-0.00049169644
0.0002323074
-0.00051504072
0.00019308385
-0.00053341927
0.00015200988
-0.0005466565
0.00010948287
-0.00055462645
6.591379e-05
-0.00055725398
2.1723129e-05
-0.00055451541
-2.2663159e-05
-0.00054643867
-6.6817762e-05
-0.00053310302
-0.00011031611
-0.00051463817
-0.00015274043
-0.00049122304
-0.00019368372
-0.000463084
-0.0002327536
-0.00043049263
-0.00026957602
-0.00039376311
-0.00030379876
-0.00035324922
-0.00033509478
-0.00030934088
-0.00036316523
-0.00026246045
-0.00038774227
-0.00021305866
-0.00040859152
-0.0001616103
-0.0004255143
-0.00010860969
-0.00043834939
-5.4565955e-05
-0.00044697458
1.8414051e-09
-0.00045130774
5.4569632e-05
-0.00045130765
0.00010861335
-0.00044697428
0.00016161392
-0.00043834889
0.00021306223
-0.00042551358
0.00026246394
-0.00040859057
0.00030934425
-0.00038774106
0.00035325244
-0.00036316375
0.00039376614
-0.00033509303
0.00043049542
-0.00030379673
0.00046308651
-0.00026957371
0.00049122522
-0.00023275103
0.00051463998
-0.00019368092
0.00053310442
-0.00015273744
0.00054643964
-0.00011031297
0.00055451592
-6.681452e-05
0.00055725403
-2.2659875e-05
0.00055462605
2.1726398e-05
0.00054665565
6.5916987e-05
0.000533418
0.00010948594
0.00051503906
0.00015201277
0.00049169444
0.00019308654
0.00046360779
0.00023230984
0.00043104868
0.00026930273
0.00039433006
0.00030370645
0.00035380529
0.00033518699
0.0003098647
0.00036343842
0.0002629319
0.00038818593
0.00021345962
0.00040918861
0.00016192538
0.00042624186
0.00010882678
0.00043917947
5.4676715e-05
0.00044787528
0.00045224445
-5.8480589e-05
0.00051072321
-0.00011639438
0.00050578881
-0.00017318358
0.00049596823
-0.00022829964
0.00048135728
-0.00028121035
0.00046209846
-0.00033140502
0.00043837949
-0.00037839943
0.00041043148
-0.00042174057
0.00037852651
-0.000461011
0.00034297498
-0.00049583283
0.00030412239
-0.00052587143
0.00026234599
-0.0005508385
0.00021805093
-0.00057049492
0.00017166629
-0.00058465288
0.00012364083
-0.0005931777
7.4438605e-05
-0.00059598898
2.4534414e-05
-0.00059306138
-2.5590767e-05
-0.0005844247
-7.5454434e-05
-0.00057016364
-0.00012457717
-0.00055041684
-0.00017248723
-0.00052537555
-0.00021872501
-0.00049528177
-0.00026284738
-0.00046042588
-0.00030443191
-0.00042114382
-0.00034308081
-0.00037781391
-0.00037842469
-0.00033085315
-0.00041012599
-0.00028071326
-0.00043788216
-0.00022787631
-0.00046142847
-0.00017285016
-0.00048054045
-0.00011616356
-0.00049503599
-5.8361111e-05
-0.00050477703
1.93977e-09
-0.00050967079
5.8364987e-05
-0.00050967069
0.00011616743
-0.00050477672
0.00017285401
-0.00049503547
0.00022788011
-0.00048053969
0.00028071699
-0.00046142745
0.00033085679
-0.00043788085
0.00037781741
-0.00041012437
0.00042114713
-0.00037842275
0.00046042894
-0.00034307853
0.00049528453
-0.0003044293
0.00052537796
-0.00026284446
0.00055041884
-0.0002187218
0.00057016519
-0.00017248379
0.00058442577
-0.00012457355
0.00059306193
-7.5450684e-05
0.00059598902
-2.5586965e-05
0.00059317722
2.4538197e-05
0.00058465191
7.4442298e-05
0.00057049348
0.00012364437
0.00055083664
0.00017166962
0.00052586918
0.00021805399
0.00049583027
0.00026234876
0.00046100816
0.00030412484
0.00042173752
0.00034297709
0.00037839622
0.0003785283
0.00033140169
0.00041043295
0.00028120695
0.00043838067
0.0002282962
0.00046209936
0.00017318011
0.00048135795
0.0001163909
0.00049596869
5.8477102e-05
0.00050578907
0.0005107233
-6.3012374e-05
0.00057373377
-0.00012541408
0.00056819051
-0.00018660402
0.00055715817
-0.00024599113
0.0005407444
-0.00030300195
0.00051910928
-0.00035708624
0.00049246377
-0.00040772227
0.00046106751
-0.00045442195
0.0004252262
-0.00049673554
0.00038528856
-0.00053425592
0.00034164278
-0.00056662257
0.00029471264
-0.00059352492
0.00024495328
-0.00061470534
0.00019284671
-0.00062996151
0.00013889701
-0.00063914831
8.3625403e-05
-0.0006421791
2.7565206e-05
-0.0006390265
-2.8743363e-05
-0.00062972258
-8.4758359e-05
-0.00061435845
-0.0001399413
-0.00059308339
-0.00019376229
-0.00056610335
-0.00024570505
-0.00053367893
-0.0002952718
-0.0004961229
-0.00034198794
-0.00045379716
-0.00038540656
-0.00040710925
-0.0004251126
-0.00035650847
-0.00046072677
-0.00030248154
-0.00049190909
-0.00024554796
-0.00051836206
-0.00018625499
-0.00053983342
-0.00012517246
-0.00055611851
-6.2887314e-05
-0.00056706217
2.031946e-09
-0.00057256014
6.2891379e-05
-0.00057256004
0.00012517653
-0.00056706187
0.00018625905
-0.00055611799
0.000245552
-0.00053983264
0.00030248555
-0.00051836099
0.0003565124
-0.0004919077
0.00040711305
-0.00046072503
0.00045380078
-0.00042511047
0.00049612628
-0.00038540403
0.00053368199
-0.00034198502
0.00056610602
-0.00029526849
0.00059308562
-0.0002457014
0.00061436018
-0.00019375835
0.00062972376
-0.00013993713
0.00063902711
-8.4754036e-05
0.00064217912
-2.8738975e-05
0.00063914775
2.7569569e-05
0.00062996039
8.3629655e-05
0.0006147037
0.00013890107
0.0005935228
0.00019285051
0.00056662004
0.00024495676
0.00053425305
0.00029471574
0.00049673239
0.0003416455
0.0004544186
0.00038529088
0.00040771876
0.00042522813
0.00035708264
0.00046106907
0.00030299831
0.000492465
0.00024598746
0.00051911021
0.00018660035
0.00054074506
0.00012541042
0.00055715862
6.3008731e-05
0.00056819077
0.00057373385
-6.8426506e-05
0.0006421584
-0.00013618996
0.00063595397
-0.00020263753
0.00062360574
-0.00026712735
0.00060523422
-0.0003290367
0.00058101863
-0.00038776805
0.00055119513
-0.0004427549
0.00051605436
-0.00049346726
0.00047593856
-0.00053941677
0.00043123807
-0.00058016141
0.00038238742
-0.00061530974
0.00032986096
-0.00064452457
0.00027416811
-0.00066752617
0.00021584831
-0.00068409488
0.00015546571
-0.00069407309
9.3603613e-05
-0.00069736669
3.0858806e-05
-0.00069394587
-3.2164182e-05
-0.00068384533
-9.4858901e-05
-0.00066716387
-0.00015662275
-0.00064406343
-0.00021686273
-0.00061476748
-0.00027500101
-0.00057955883
-0.00033048044
-0.00053877698
-0.00038276979
-0.00049281479
-0.00043136874
-0.00044211476
-0.00047581263
-0.00038716475
-0.00051567678
-0.00032849331
-0.00055058052
-0.00026666464
-0.00058019073
-0.00020227314
-0.00060422492
-0.00013593774
-0.00062245391
-6.8295977e-05
-0.00063470393
2.1083669e-09
-0.00064085823
6.8300202e-05
-0.00064085813
0.00013594198
-0.00063470365
0.00020227741
-0.00062245341
0.00026666893
-0.00060422416
0.0003284976
-0.00058018966
0.00038716899
-0.00055057909
0.00044211891
-0.00051567494
0.00049281877
-0.00047581033
0.00053878071
-0.00043136597
0.00057956223
-0.00038276654
0.00061477047
-0.00033047673
0.00064406593
-0.00027499687
0.00066716581
-0.00021685822
0.00068384664
-0.00015661797
0.00069394653
-9.4853926e-05
0.00069736669
-3.2159128e-05
0.00069407242
3.086383e-05
0.00068409358
9.3608499e-05
0.00066752429
0.00015547036
0.00064452216
0.00021585263
0.00061530688
0.00027417203
0.00058015819
0.00032986444
0.00053941327
0.00038239042
0.00049346356
0.00043124059
0.00044275108
0.00047594061
0.00038776417
0.00051605598
0.00032903281
0.00055119636
0.00026712348
0.00058101953
0.0002026337
0.00060523484
0.00013618617
0.00062360615
6.8422741e-05
0.00063595419
0.00064215847
-7.4898945e-05
0.00071705544
-0.00014907229
0.00071012731
-0.00022180529
0.00069633874
-0.00029239538
0.00067582431
-0.00036016095
0.0006487842
-0.00042444798
0.00061548216
-0.00048463642
0.0005762428
-0.00054014619
0.00053144832
-0.00059044279
0.00048153468
-0.00063504247
0.0004269871
-0.0006735168
0.00036833529
-0.00070549678
0.00030614809
-0.00073067626
0.0002410278
-0.00074881482
0.00017360427
-0.00075973992
0.00010452872
-0.00076334849
3.4467378e-05
-0.00075960779
-3.5904883e-05
-0.00074855564
-0.00010591105
-0.00073029999
-0.0001748784
-0.00070501788
-0.00024214485
-0.00067295366
-0.00030706523
-0.00063441671
-0.0003690174
-0.00058977842
-0.00042740808
-0.00053946869
-0.00048167848
-0.00048397175
-0.00053130956
-0.0004238216
-0.00057582693
-0.00035959682
-0.00061480531
-0.00029191504
-0.0006478725
-0.00022142705
-0.00067471291
-0.00014881052
-0.00069507044
-7.4763527e-05
-0.00070875093
2.156482e-09
-0.00071562391
7.4767857e-05
-0.00071562383
0.0001488149
-0.0007087507
0.0002214315
-0.00069507001
0.00029191956
-0.00067471222
0.00035960138
-0.00064787149
0.00042382618
-0.00061480389
0.00048397627
-0.00057582504
0.00053947307
-0.00053130713
0.00058978257
-0.00048167547
0.00063442052
-0.00042740448
0.00067295702
-0.00036901323
0.00070502069
-0.00030706054
0.00073030218
-0.0002421397
0.00074855712
-0.00017487291
0.00075960852
-0.00010590533
0.00076334846
-3.5899062e-05
0.00075973913
3.447316e-05
0.0007488133
0.00010453432
0.00073067408
0.00017360958
0.00070549402
0.0002410327
0.00067351355
0.0003061525
0.00063503883
0.00036833915
0.00059043888
0.00042699038
0.00054014209
0.00048153737
0.00048463224
0.00053145046
0.0004244438
0.00057624443
0.00036015681
0.00061548335
0.00029239132
0.00064878502
0.00022180132
0.00067582484
0.0001490684
0.00069633906
7.4895118e-05
0.00071012748
0.00071705549
-8.2623057e-05
0.00079967661
-0.00016444594
0.00079195019
-0.00024468001
0.00077657281
-0.00032255028
0.00075369458
-0.00039730488
0.0007235388
-0.00046822237
0.00068639966
-0.00053461882
0.00064263924
-0.00059585436
0.00059268387
-0.00065133945
0.00053701976
-0.00070054049
0.00047618814
-0.00074298495
0.00041077975
-0.00077826581
0.00034142895
-0.00080604539
0.00026880738
-0.00082605848
0.00019361735
-0.00083811469
0.00011658493
-0.00084210023
3.8452918e-05
-0.00083797882
-4.0026298e-05
-0.00082579195
-0.00011809792
-0.00080565847
-0.00019501188
-0.00077777337
-0.00027002995
-0.0007424059
-0.00034243269
-0.00069989709
-0.00041152622
-0.00065065639
-0.00047664878
-0.00059515784
-0.00053717702
-0.00053393554
-0.00059253186
-0.00046757851
-0.00064218396
-0.00039672505
-0.00068565877
-0.00032205664
-0.00072254092
-0.00024429136
-0.00075247819
-0.00016417703
-0.00077518477
-8.2484018e-05
-0.00079044394
2.1607207e-09
-0.00079811009
8.248837e-05
-0.00079811004
0.00016418147
-0.0007904438
0.00024429592
-0.00077518447
0.00032206135
-0.00075247764
0.00039672989
-0.00072254003
0.00046758343
-0.00068565743
0.00053394048
-0.00064218208
0.00059516269
-0.00059252934
0.00065066102
-0.0005371738
0.00069990138
-0.00047664484
0.00074240971
-0.00041152157
0.00077777657
-0.00034242739
0.00080566096
-0.00027002409
0.00082579363
-0.00019500558
0.00083797963
-0.00011809133
0.00084210016
-4.0019592e-05
0.00083811375
3.8459575e-05
0.0008260567
0.00011659137
0.00080604286
0.00019362342
0.00077826262
0.00026881294
0.00074298123
0.0003414339
0.00070053636
0.00041078402
0.00065133505
0.00047619169
0.00059584983
0.0005370226
0.00053461426
0.00059268603
0.00046821788
0.00064264081
0.00039730051
0.00068640072
0.00032254607
0.00072353946
0.00024467597
0.00075369495
0.00016444204
0.00077657299
8.2619258e-05
0.00079195027
0.00079967663
-9.1794899e-05
0.00089146972
-0.00018270118
0.00088285647
-0.00027184243
0.00086571406
-0.00035835772
0.00084020986
-0.00044141175
0.00080659283
-0.00052020307
0.00076519099
-0.00059397187
0.00071640804
-0.00066200732
0.00066071932
-0.00072365448
0.00059866692
-0.00077832058
0.00053085423
-0.00082548065
0.00045793983
-0.00086468255
0.00038063084
-0.00089555109
0.00029967593
-0.00091779159
0.00021585785
-0.00093119244
0.00012998578
-0.00093562706
4.2887532e-05
-0.0009310549
-4.4598451e-05
-0.00091752181
-0.00013163101
-0.00089515946
-0.00021737423
-0.00086418413
-0.00030100528
-0.00082489462
-0.0003817222
-0.00077766945
-0.00045875139
-0.00072296326
-0.00053135496
-0.00066130254
-0.00059883774
-0.00059328056
-0.00066055385
-0.0005195517
-0.00071591282
-0.00044082524
-0.00076438523
-0.00035785847
-0.00080550769
-0.00027144946
-0.0008388872
-0.00018242937
-0.00086420486
-9.1654471e-05
-0.00088121885
2.1029834e-09
-0.00088976666
9.1658726e-05
-0.00088976667
0.00018243377
-0.00088121884
0.00027145407
-0.00086420477
0.00035786333
-0.0008388869
0.00044083034
-0.00080550704
0.00051955699
-0.00076438409
0.00059328595
-0.00071591104
0.00066130792
-0.0006605513
0.00072296846
-0.00059883435
0.0007776743
-0.00053135068
0.00082489896
-0.00045874623
0.0008641878
-0.00038171623
0.00089516231
-0.00030099861
0.00091752373
-0.000217367
0.00093105582
-0.00013162342
0.00093562694
-4.4590712e-05
0.0009311913
4.2895207e-05
0.00091778949
0.00012999318
0.00089554813
0.00021586478
0.00086467885
0.00029968223
0.00082547637
0.00038063637
0.00077831587
0.00045794451
0.00072364953
0.00053085803
0.00066200229
0.00059866984
0.00059396689
0.00066072143