/*--------------------------------*- C++ -*----------------------------------*\
| =========                 |                                                 |
| \\      /  F ield         | OpenFOAM: The Open Source CFD Toolbox           |
|  \\    /   O peration     | Version:  2306                                  |
|   \\  /    A nd           | Website:  www.openfoam.com                      |
|    \\/     M anipulation  |                                                 |
\*---------------------------------------------------------------------------*/
FoamFile
{
    version     2.0;
    format      ascii;
    arch        "LSB;label=32;scalar=64";
    class       volVectorField;
    location    "0.3";
    object      U;
}
// * * * * * * * * * * * * * * * * * * * * * * * * * * * * * * * * * * * * * //

dimensions      [0 1 -1 0 0 0 0];

internalField   nonuniform List<vector> 
6400
(
(-8.8426712e-06 -6.1780661e-06 4.2098329e-20)
(-2.6325282e-05 -8.3221993e-07 -4.7549633e-21)
(-4.7922625e-05 -2.2363812e-08 -1.6756348e-20)
(-6.9783536e-05 1.1421078e-06 1.36765e-20)
(-9.344854e-05 1.8014005e-06 2.3852402e-20)
(-0.00011738298 2.0694288e-06 -8.0261699e-21)
(-0.00014131127 2.219518e-06 -1.0706194e-21)
(-0.00016515057 2.3128206e-06 1.4855385e-20)
(-0.0001888715 2.3780445e-06 1.3736208e-20)
(-0.00021246454 2.4301945e-06 -1.5479432e-20)
(-0.00023592875 2.4760819e-06 -1.5116506e-20)
(-0.00025926474 2.5181723e-06 4.1717932e-20)
(-0.00028247152 2.5569703e-06 1.7466654e-20)
(-0.00030554563 2.5919073e-06 -3.0554478e-20)
(-0.00032848108 2.6216268e-06 -2.1946739e-20)
(-0.00035126962 2.6439658e-06 1.990911e-20)
(-0.0003739014 2.6559713e-06 5.3998664e-20)
(-0.00039636813 2.6546439e-06 -6.6478167e-21)
(-0.00041866665 2.6421171e-06 -4.3912944e-20)
(-0.00044078511 2.6336699e-06 1.7159006e-21)
(-0.00046269787 2.6389206e-06 7.8283713e-21)
(-0.00048438046 2.6572252e-06 1.3601103e-20)
(-0.00050581391 2.6847738e-06 7.1828152e-20)
(-0.00052698092 2.7182161e-06 1.2443021e-19)
(-0.00054786362 2.7550089e-06 1.4286072e-19)
(-0.00056844328 2.7933179e-06 -1.2234498e-19)
(-0.00058870027 2.8317719e-06 -3.6666246e-19)
(-0.00060861431 2.8693229e-06 -1.0345515e-19)
(-0.00062816466 2.9051441e-06 1.3638553e-19)
(-0.0006473303 2.9385672e-06 2.0584996e-19)
(-0.00066609008 2.9690306e-06 1.5962771e-19)
(-0.0006844229 2.9960651e-06 -6.2497144e-20)
(-0.0007023078 3.0192791e-06 -5.0220332e-20)
(-0.00071972409 3.0383292e-06 -1.8092469e-19)
(-0.00073665149 3.0529376e-06 -1.5840846e-19)
(-0.00075307023 3.0628726e-06 2.52465e-19)
(-0.00076896114 3.0679538e-06 -2.3179792e-20)
(-0.00078430578 3.0680364e-06 -5.1503332e-19)
(-0.00079908653 3.0630282e-06 1.6652779e-19)
(-0.00081328667 3.0528732e-06 7.100513e-19)
(-0.00082689048 3.0375511e-06 1.2462551e-19)
(-0.00083988331 3.0170786e-06 -3.287498e-19)
(-0.00085225164 2.9915128e-06 -3.0485512e-19)
(-0.00086398318 2.9609357e-06 -1.7613459e-19)
(-0.00087506687 2.9254599e-06 2.4269974e-19)
(-0.00088549297 2.8852277e-06 7.3151985e-19)
(-0.00089525309 2.8404046e-06 -1.3292402e-19)
(-0.00090434021 2.7911863e-06 -3.103044e-19)
(-0.00091274869 2.7377774e-06 -2.4369832e-19)
(-0.00092047433 2.6804093e-06 -9.0899246e-19)
(-0.00092751433 2.6193289e-06 4.4442832e-19)
(-0.00093386729 2.5547931e-06 6.8405992e-19)
(-0.00093953325 2.4870655e-06 3.7365706e-20)
(-0.00094451361 2.4164322e-06 2.8305494e-19)
(-0.00094881113 2.3431786e-06 -7.8410122e-19)
(-0.00095242992 2.2675981e-06 -6.1252888e-19)
(-0.00095537538 2.189973e-06 6.2308467e-19)
(-0.00095765415 2.1106024e-06 2.2594626e-19)
(-0.00095927407 2.0297784e-06 -8.3162817e-20)
(-0.00096024415 1.9477943e-06 1.0006287e-19)
(-0.00096057447 1.864933e-06 -5.1787637e-20)
(-0.00096027615 1.7814759e-06 5.4072796e-20)
(-0.00095936128 1.6977001e-06 -4.0091863e-20)
(-0.00095784286 1.6138699e-06 -3.7651942e-19)
(-0.00095573469 1.5302425e-06 -5.228383e-19)
(-0.00095305136 1.4470722e-06 5.058337e-20)
(-0.00094980814 1.3645977e-06 9.1254004e-19)
(-0.00094602093 1.2830488e-06 6.2796136e-22)
(-0.00094170618 1.2026497e-06 -3.71948e-19)
(-0.0009368808 1.1236045e-06 5.7694278e-19)
(-0.00093156216 1.0461343e-06 -8.6736082e-20)
(-0.00092576798 9.7042885e-07 -3.995227e-19)
(-0.00091951627 8.9668636e-07 1.3177248e-19)
(-0.00091282529 8.251062e-07 1.9351079e-19)
(-0.00090571351 7.5588918e-07 2.2108652e-19)
(-0.00089819956 6.8928355e-07 -4.1704385e-19)
(-0.00089030227 6.2565035e-07 -4.1368827e-19)
(-0.00088204082 5.6563337e-07 3.3495681e-19)
(-0.00087343485 5.1027334e-07 4.4419125e-19)
(-0.00086450379 4.6095748e-07 -2.12273e-19)
(-3.9519962e-05 6.8584318e-05 5.3087675e-20)
(-9.4294226e-05 7.8543498e-05 -1.1158783e-20)
(-0.0001577167 8.214773e-05 1.5756151e-21)
(-0.00022024974 8.5989633e-05 6.3755821e-20)
(-0.00028576667 8.8270591e-05 4.7118896e-20)
(-0.00035165825 8.9375901e-05 -1.7651704e-20)
(-0.0004175296 8.9916321e-05 4.3487909e-20)
(-0.00048322733 9.0147784e-05 2.0599012e-20)
(-0.00054864561 9.0196057e-05 -1.4947672e-20)
(-0.00061370179 9.0127968e-05 1.0160288e-20)
(-0.0006783337 8.9978452e-05 2.2311681e-20)
(-0.00074248999 8.9765118e-05 6.4332309e-20)
(-0.00080612384 8.9496652e-05 1.0567439e-19)
(-0.00086918992 8.9176987e-05 1.1808725e-19)
(-0.00093164316 8.8807365e-05 4.8868044e-20)
(-0.00099343826 8.8387272e-05 6.241823e-20)
(-0.0010545292 8.7915051e-05 1.7147158e-19)
(-0.0011148664 8.7388764e-05 1.8677486e-20)
(-0.0011743929 8.6809714e-05 -1.9519106e-19)
(-0.0012330552 8.6187561e-05 -1.124191e-19)
(-0.0012908097 8.5528418e-05 9.5129957e-21)
(-0.0013476122 8.4831813e-05 4.5051556e-20)
(-0.0014034145 8.4094933e-05 1.4786457e-19)
(-0.0014581665 8.3314957e-05 2.9756205e-19)
(-0.0015118183 8.2489673e-05 1.635845e-19)
(-0.0015643206 8.1617493e-05 -4.1773719e-19)
(-0.0016156249 8.0697304e-05 -4.99309e-19)
(-0.0016656835 7.972836e-05 -1.9125545e-19)
(-0.0017144498 7.8710267e-05 -1.3440958e-19)
(-0.0017618785 7.7642917e-05 5.3626433e-19)
(-0.0018079255 7.6526458e-05 6.9119446e-19)
(-0.0018525484 7.53613e-05 -3.2905138e-19)
(-0.0018957064 7.414808e-05 -6.8186556e-19)
(-0.0019373609 7.2887663e-05 -2.459846e-19)
(-0.0019774749 7.1581128e-05 4.6509463e-19)
(-0.002016014 7.0229774e-05 3.6763021e-19)
(-0.002052946 6.8835107e-05 -5.7805906e-19)
(-0.0020882414 6.7398817e-05 -8.5678327e-19)
(-0.0021218731 6.5922788e-05 6.3455004e-19)
(-0.0021538169 6.4409084e-05 9.0717472e-19)
(-0.0021840517 6.285991e-05 -1.0445944e-18)
(-0.002212559 6.1277629e-05 -3.8288475e-19)
(-0.0022393235 5.9664742e-05 1.5478645e-18)
(-0.0022643331 5.8023861e-05 2.0172021e-18)
(-0.0022875787 5.63577e-05 -1.8215649e-20)
(-0.0023090543 5.4669058e-05 -3.1620109e-18)
(-0.0023287573 5.2960804e-05 -1.8317979e-18)
(-0.002346688 5.1235875e-05 1.4643209e-18)
(-0.00236285 4.9497231e-05 1.4443638e-18)
(-0.0023772501 4.7747867e-05 -8.1266987e-19)
(-0.0023898978 4.5990779e-05 -1.3293443e-18)
(-0.002400806 4.4228951e-05 1.4478423e-18)
(-0.0024099901 4.246535e-05 1.9132834e-18)
(-0.0024174688 4.0702906e-05 -2.9082087e-19)
(-0.002423263 3.8944504e-05 -1.2220679e-18)
(-0.0024273965 3.719296e-05 -1.346533e-18)
(-0.0024298956 3.5451001e-05 -1.6306718e-19)
(-0.0024307889 3.3721286e-05 1.4670518e-18)
(-0.0024301071 3.2006382e-05 5.7483753e-19)
(-0.0024278832 3.030873e-05 -1.433952e-18)
(-0.0024241518 2.8630677e-05 -5.4445042e-19)
(-0.0024189496 2.6974446e-05 1.5419201e-18)
(-0.0024123148 2.5342125e-05 4.271799e-19)
(-0.002404287 2.3735686e-05 -1.8286371e-18)
(-0.0023949071 2.2156958e-05 -1.0158073e-18)
(-0.0023842172 2.0607642e-05 1.085325e-18)
(-0.0023722604 1.9089305e-05 1.2856527e-18)
(-0.0023590805 1.7603375e-05 3.2502028e-19)
(-0.0023447222 1.615116e-05 -6.8576306e-19)
(-0.0023292307 1.4733833e-05 -1.4264799e-18)
(-0.0023126514 1.3352483e-05 1.4972966e-19)
(-0.0022950302 1.2008063e-05 1.0691217e-18)
(-0.002276413 1.0701451e-05 1.7315279e-20)
(-0.0022568461 9.4334419e-06 1.9029323e-19)
(-0.0022363752 8.2047423e-06 4.8504453e-19)
(-0.0022150462 7.0160471e-06 1.4083415e-19)
(-0.0021929045 5.8681187e-06 -7.5886012e-19)
(-0.0021699949 4.7619051e-06 -8.8389755e-19)
(-0.0021463617 3.6983267e-06 1.6391982e-19)
(-0.0021220475 2.6773954e-06 3.8487551e-19)
(-6.3230074e-05 0.00023360381 -7.5839497e-20)
(-0.00014516934 0.00024388521 -3.3945392e-20)
(-0.00023834954 0.0002493096 -3.9168013e-20)
(-0.0003288626 0.00025435703 1.1979332e-20)
(-0.00042258353 0.0002574735 5.5029324e-20)
(-0.00051642846 0.00025903085 -5.2852944e-20)
(-0.00061012323 0.00025967301 2.0131268e-20)
(-0.00070355197 0.00025974106 -2.7013669e-21)
(-0.00079658446 0.0002594254 6.8563889e-20)
(-0.0008890916 0.00025883463 2.0489396e-19)
(-0.00098096261 0.00025803004 1.25213e-19)
(-0.0010721002 0.00025704591 1.2668195e-19)
(-0.001162415 0.00025590157 1.1368874e-20)
(-0.0012518226 0.0002546081 1.423507e-19)
(-0.0013402417 0.0002531721 2.1901307e-19)
(-0.0014275927 0.00025159769 5.5519122e-20)
(-0.0015137975 0.00024988776 9.4962422e-20)
(-0.0015987785 0.00024804459 -4.4317749e-20)
(-0.0016824587 0.00024606797 -1.4195135e-19)
(-0.0017647644 0.00024395146 3.5673915e-20)
(-0.0018456238 0.00024169051 7.0475615e-20)
(-0.0019249649 0.00023928519 7.8820478e-20)
(-0.0020027155 0.00023673727 1.8160197e-19)
(-0.0020788045 0.00023404851 2.0074572e-19)
(-0.0021531623 0.00023122064 -5.6809921e-20)
(-0.0022257218 0.00022825536 -1.5985072e-19)
(-0.0022964177 0.00022515452 -1.0441825e-19)
(-0.0023651872 0.00022192017 -2.294037e-19)
(-0.0024319697 0.0002185547 -2.7860365e-19)
(-0.0024967073 0.00021506087 1.1379369e-19)
(-0.0025593449 0.00021144182 3.0396654e-19)
(-0.0026198301 0.0002077011 -8.0777445e-20)
(-0.0026781139 0.00020384266 -3.9053332e-19)
(-0.0027341503 0.00019987089 -2.9188282e-19)
(-0.0027878969 0.00019579054 2.7682359e-19)
(-0.0028393148 0.00019160679 3.677086e-19)
(-0.0028883689 0.00018732518 -1.3172965e-19)
(-0.0029350279 0.0001829516 -1.8657699e-19)
(-0.0029792645 0.0001784923 3.1424303e-22)
(-0.0030210555 0.0001739538 -3.0061458e-19)
(-0.0030603818 0.00016934291 -4.9752158e-19)
(-0.0030972287 0.00016466667 4.1740873e-19)
(-0.0031315853 0.00015993231 1.0326133e-18)
(-0.0031634456 0.00015514728 8.9528337e-19)
(-0.0031928074 0.00015031909 -1.3376657e-19)
(-0.0032196729 0.0001454554 -1.9447575e-18)
(-0.0032440487 0.00014056389 -8.7136154e-19)
(-0.0032659452 0.0001356523 6.0446912e-19)
(-0.0032853773 0.00013072833 7.5610697e-19)
(-0.0033023636 0.00012579965 6.4511375e-19)
(-0.0033169268 0.00012087384 -8.9059879e-19)
(-0.0033290933 0.00011595836 -4.3079925e-20)
(-0.0033388931 0.00011106052 9.8258629e-19)
(-0.0033463598 0.00010618747 -9.8805566e-20)
(-0.0033515302 0.00010134616 -1.7470754e-19)
(-0.0033544444 9.654327e-05 -3.8617466e-19)
(-0.0033551455 9.1785273e-05 -3.5213772e-19)
(-0.0033536791 8.7078333e-05 5.8796537e-19)
(-0.0033500939 8.2428354e-05 1.7406855e-19)
(-0.0033444404 7.7840889e-05 -8.1558031e-19)
(-0.0033367719 7.3321199e-05 -2.3938706e-19)
(-0.0033271431 6.88742e-05 6.039508e-19)
(-0.0033156109 6.450444e-05 7.8379868e-20)
(-0.0033022336 6.0216153e-05 -4.0188095e-19)
(-0.0032870708 5.6013185e-05 2.4583456e-19)
(-0.0032701833 5.1899043e-05 3.598601e-19)
(-0.0032516329 4.787687e-05 -1.7532749e-19)
(-0.003231482 4.3949459e-05 -3.107782e-20)
(-0.0032097938 4.0119273e-05 -1.0355378e-19)
(-0.0031866316 3.6388433e-05 -6.3265096e-19)
(-0.003162059 3.2758758e-05 -4.1678322e-20)
(-0.0031361397 2.9231751e-05 3.7219603e-19)
(-0.0031089372 2.5808632e-05 -1.3081127e-21)
(-0.0030805147 2.2490326e-05 2.5359425e-19)
(-0.0030509348 1.9277463e-05 2.3845619e-19)
(-0.0030202598 1.6170405e-05 2.1891842e-19)
(-0.0029885512 1.3169333e-05 -1.6724089e-19)
(-0.0029558699 1.0274315e-05 -7.8269325e-19)
(-0.0029222773 7.4851941e-06 -2.1137588e-19)
(-0.0028878366 4.8008003e-06 5.8308545e-19)
(-7.6371647e-05 0.00044664313 -5.022257e-19)
(-0.00017467366 0.00045406758 -1.4422145e-19)
(-0.00028551338 0.00045898823 -3.9843629e-20)
(-0.00039228127 0.000463479 -1.7004208e-19)
(-0.00050226632 0.00046626438 -1.0380779e-20)
(-0.0006120535 0.00046754399 -1.4684121e-19)
(-0.00072150785 0.00046779543 -1.0437945e-19)
(-0.00083058273 0.00046731684 1.913745e-21)
(-0.00093916192 0.00046629454 1.4355034e-19)
(-0.0010471044 0.00046484277 2.0210932e-19)
(-0.001154278 0.00046303051 1.2473052e-19)
(-0.0012605614 0.00046089907 1.3135604e-19)
(-0.0013658407 0.00045847339 -3.5344778e-20)
(-0.0014700082 0.00045576871 1.2523679e-19)
(-0.0015729602 0.00045279456 1.3950015e-19)
(-0.0016745969 0.00044955698 -6.8009808e-20)
(-0.0017748208 0.00044605993 1.0246651e-19)
(-0.0018735368 0.00044230605 2.4264848e-20)
(-0.0019706522 0.00043829692 -6.3096171e-20)
(-0.0020660769 0.0004340334 5.8460705e-20)
(-0.0021597233 0.00042951745 6.2815229e-20)
(-0.0022515056 0.00042475216 8.0665937e-20)
(-0.0023413394 0.00041974085 1.1590242e-19)
(-0.0024291425 0.00041448695 -1.9662515e-20)
(-0.0025148351 0.00040899404 -7.6818437e-20)
(-0.0025983402 0.00040326603 -6.3300064e-20)
(-0.0026795835 0.00039730733 -2.2003935e-19)
(-0.002758494 0.00039112293 -7.0443963e-20)
(-0.0028350042 0.00038471844 5.2736739e-20)
(-0.0029090496 0.00037810015 -4.183903e-20)
(-0.0029805698 0.00037127499 -1.3047148e-19)
(-0.0030495079 0.00036425056 -6.4375241e-20)
(-0.0031158112 0.00035703507 1.5689539e-19)
(-0.0031794311 0.00034963739 4.3009131e-20)
(-0.0032403232 0.00034206698 -2.136248e-19)
(-0.0032984477 0.00033433388 -1.0280478e-19)
(-0.0033537692 0.00032644866 1.5971592e-19)
(-0.0034062572 0.00031842243 1.8187907e-19)
(-0.0034558857 0.00031026673 -6.1229815e-20)
(-0.0035026338 0.00030199353 -2.066312e-19)
(-0.0035464854 0.00029361514 -8.3220066e-20)
(-0.0035874291 0.00028514419 1.5855084e-19)
(-0.0036254588 0.00027659354 2.4495656e-19)
(-0.0036605731 0.00026797625 -2.1923872e-20)
(-0.0036927756 0.0002593055 7.8730729e-21)
(-0.0037220747 0.00025059453 -3.0696248e-19)
(-0.0037484837 0.00024185659 -3.3075308e-19)
(-0.0037720205 0.00023310489 6.9445322e-20)
(-0.0037927076 0.00022435253 1.0489808e-19)
(-0.003810572 0.00021561243 3.9315683e-19)
(-0.0038256449 0.00020689732 5.9184625e-20)
(-0.003837962 0.00019821965 -3.6135116e-19)
(-0.0038475625 0.00018959156 9.3622765e-20)
(-0.0038544898 0.00018102481 1.6552517e-19)
(-0.0038587908 0.00017253078 -4.340122e-20)
(-0.0038605158 0.0001641204 -1.678859e-19)
(-0.0038597182 0.00015580413 -1.4986535e-19)
(-0.0038564544 0.0001475919 1.7488101e-19)
(-0.0038507837 0.00013949315 3.377606e-20)
(-0.0038427676 0.00013151671 -3.5313747e-19)
(-0.0038324702 0.00012367087 -5.6548866e-20)
(-0.0038199572 0.00011596333 2.6142032e-19)
(-0.0038052965 0.00010840116 7.0597162e-20)
(-0.0037885572 0.00010099083 -7.1235886e-20)
(-0.00376981 9.3738223e-05 9.7161815e-20)
(-0.0037491265 8.6648576e-05 7.0504309e-20)
(-0.0037265791 7.9726529e-05 -2.5007366e-19)
(-0.003702241 7.2976124e-05 -1.1617115e-19)
(-0.0036761856 6.6400827e-05 8.7631369e-21)
(-0.0036484867 6.0003511e-05 -3.6789482e-20)
(-0.003619218 5.3786519e-05 1.4974424e-20)
(-0.0035884531 4.775163e-05 2.9482792e-20)
(-0.003556265 4.1900093e-05 -8.628147e-20)
(-0.0035227265 3.6232607e-05 -6.3303296e-20)
(-0.0034879095 3.0749352e-05 1.9532504e-19)
(-0.0034518848 2.5449962e-05 1.7106401e-19)
(-0.0034147225 2.0333623e-05 -2.4432242e-19)
(-0.0033764915 1.5399103e-05 -4.3534653e-19)
(-0.0033372603 1.064497e-05 -6.914563e-20)
(-0.0032970981 6.0694822e-06 1.6961491e-19)
(-8.2463689e-05 0.0006858216 -6.381748e-19)
(-0.00018891448 0.00069037455 -4.6173385e-19)
(-0.00030891361 0.00069396387 -1.4113941e-19)
(-0.00042412606 0.0006971921 1.5034443e-20)
(-0.00054261301 0.00069908136 -3.223588e-19)
(-0.00066066427 0.00069965964 -3.9836419e-19)
(-0.00077821782 0.00069920645 -2.6910947e-19)
(-0.0008952782 0.00069793082 -1.9863416e-19)
(-0.0010117535 0.00069598125 4.9030876e-20)
(-0.0011275099 0.00069345734 2.1016589e-19)
(-0.0012424137 0.00069042406 -7.1235922e-20)
(-0.0013563367 0.0006869234 -2.9976403e-20)
(-0.0014691563 0.00068298265 -4.0977443e-21)
(-0.0015807546 0.00067861989 7.6438089e-20)
(-0.0016910179 0.00067384741 1.2766201e-19)
(-0.0017998363 0.00066867394 -6.7919467e-20)
(-0.0019071028 0.00066310604 3.6019618e-20)
(-0.0020127134 0.0006571489 7.7186042e-22)
(-0.0021165667 0.00065080695 -3.3313119e-20)
(-0.002218564 0.00064408427 1.0018055e-19)
(-0.0023186094 0.00063698535 1.3436189e-19)
(-0.0024166098 0.00062951524 -8.3571894e-20)
(-0.0025124745 0.00062167958 -7.4029488e-20)
(-0.0026061156 0.00061348456 -6.8853714e-21)
(-0.002697448 0.00060493702 -6.1037144e-20)
(-0.0027863896 0.00059604451 -1.5085684e-19)
(-0.0028728618 0.00058681535 -1.9129368e-19)
(-0.0029567893 0.00057725869 -2.9420427e-20)
(-0.0030381009 0.00056738456 8.2437481e-20)
(-0.0031167289 0.00055720386 9.0040246e-20)
(-0.0031926102 0.00054672834 -1.9271358e-19)
(-0.0032656855 0.00053597062 -1.2547228e-19)
(-0.0033359005 0.00052494416 1.105448e-19)
(-0.0034032051 0.00051366324 1.1729165e-19)
(-0.0034675543 0.00050214291 1.1368841e-19)
(-0.0035289077 0.00049039893 -1.2821894e-19)
(-0.0035872303 0.00047844779 -3.2019126e-20)
(-0.0036424918 0.00046630656 -3.2546065e-20)
(-0.0036946676 0.00045399292 -6.9781972e-20)
(-0.0037437378 0.00044152501 -1.2288609e-19)
(-0.0037896883 0.00042892138 -1.4358e-19)
(-0.00383251 0.00041620095 7.779001e-20)
(-0.0038721992 0.00040338286 1.9199196e-19)
(-0.0039087576 0.00039048645 -7.764912e-20)
(-0.003942192 0.00037753113 -1.1538332e-19)
(-0.0039725144 0.00036453633 -1.0267346e-19)
(-0.0039997419 0.00035152139 -1.3793771e-19)
(-0.0040238967 0.00033850552 3.7483235e-20)
(-0.0040450058 0.00032550766 3.9466457e-20)
(-0.0040631006 0.00031254646 5.1733277e-20)
(-0.0040782176 0.00029964019 9.7884912e-20)
(-0.0040903972 0.00028680664 -5.9958777e-20)
(-0.0040996843 0.00027406313 -4.6204295e-20)
(-0.0041061274 0.00026142634 -3.6524976e-20)
(-0.0041097792 0.00024891236 -2.3033975e-20)
(-0.0041106954 0.00023653658 -2.3366802e-20)
(-0.0041089355 0.00022431365 -1.7551808e-19)
(-0.0041045617 0.00021225747 -1.2817697e-19)
(-0.004097639 0.00020038113 -1.4839816e-20)
(-0.0040882351 0.00018869687 -5.9523244e-20)
(-0.0040764199 0.00017721608 6.1763225e-20)
(-0.0040622652 0.00016594931 1.979208e-19)
(-0.0040458447 0.0001549062 1.0941128e-19)
(-0.0040272336 0.00014409547 -1.7923317e-20)
(-0.0040065083 0.00013352501 -1.3150396e-19)
(-0.0039837463 0.00012320178 -1.0653259e-19)
(-0.0039590257 0.00011313188 -7.3352505e-21)
(-0.0039324253 0.00010332056 1.319734e-20)
(-0.0039040242 9.3772215e-05 -1.5945093e-19)
(-0.0038739016 8.4490414e-05 -1.428682e-19)
(-0.0038421364 7.5477959e-05 5.6804737e-20)
(-0.0038088074 6.6736851e-05 1.5097543e-19)
(-0.0037739928 5.8268359e-05 4.5679625e-20)
(-0.00373777 5.0072998e-05 -1.0095487e-19)
(-0.0037002157 4.2150587e-05 -4.8552662e-20)
(-0.0036614056 3.4500249e-05 -3.9744193e-20)
(-0.0036214141 2.7120468e-05 -1.4028381e-19)
(-0.0035803147 2.0009104e-05 -1.7868697e-19)
(-0.00353818 1.3163595e-05 -1.3879606e-19)
(-0.0034950797 6.5814627e-06 -7.5992246e-20)
(-8.4793134e-05 0.00093570462 -1.0280445e-18)
(-0.00019486504 0.00093821171 -6.6709439e-19)
(-0.00031921544 0.00094043384 -6.5921199e-19)
(-0.00043855856 0.0009423239 -5.5040495e-19)
(-0.00056130189 0.00094315464 -4.995151e-19)
(-0.00068349063 0.00094284275 -3.1931515e-19)
(-0.00080507145 0.00094151556 -1.5247777e-19)
(-0.00092606893 0.00093929784 -5.676821e-20)
(-0.0010464082 0.00093629332 2.5062042e-20)
(-0.0011659665 0.00093257937 1.5732096e-19)
(-0.0012846162 0.00092821098 5.2771119e-20)
(-0.0014022313 0.00092322657 8.5425337e-20)
(-0.0015186888 0.00091765305 1.3867738e-19)
(-0.0016338686 0.00091150962 2.9122509e-19)
(-0.0017476539 0.00090481041 2.215743e-19)
(-0.0018599311 0.00089756628 -8.6183117e-20)
(-0.0019705894 0.00088978611 1.6087966e-19)
(-0.0020795207 0.00088147761 2.033529e-19)
(-0.0021866197 0.0008726479 2.1505596e-19)
(-0.0022917838 0.00086330399 1.457113e-19)
(-0.0023949134 0.00085345326 -2.410475e-20)
(-0.0024959113 0.00084310368 -1.3737888e-19)
(-0.0025946835 0.00083226401 -3.9422012e-20)
(-0.0026911387 0.00082094384 1.7550238e-19)
(-0.0027851888 0.00080915367 1.5255723e-19)
(-0.0028767491 0.00079690501 8.2402733e-20)
(-0.0029657383 0.00078421035 -6.3534142e-20)
(-0.0030520788 0.00077108329 -1.2444327e-19)
(-0.0031356972 0.00075753854 -3.662299e-20)
(-0.003216524 0.00074359189 7.7763791e-20)
(-0.0032944942 0.00072926025 -1.7124211e-20)
(-0.0033695473 0.0007145616 5.0563973e-20)
(-0.0034416274 0.00069951498 1.598304e-19)
(-0.0035106838 0.00068414041 1.7490067e-19)
(-0.0035766705 0.00066845887 1.9362365e-19)
(-0.0036395468 0.00065249225 -4.1085334e-20)
(-0.0036992773 0.00063626326 1.5797362e-20)
(-0.0037558318 0.00061979532 -4.262373e-21)
(-0.0038091859 0.00060311255 -1.5597944e-20)
(-0.0038593204 0.0005862396 -3.2009096e-20)
(-0.0039062217 0.00056920162 -1.6166672e-19)
(-0.0039498818 0.0005520241 -6.4289541e-20)
(-0.0039902982 0.00053473278 2.0410254e-19)
(-0.004027474 0.00051735356 1.8592241e-19)
(-0.0040614176 0.00049991238 5.7546062e-22)
(-0.0040921428 0.00048243512 2.598836e-20)
(-0.0041196689 0.00046494747 -5.8877695e-20)
(-0.00414402 0.00044747485 7.5108891e-20)
(-0.0041652256 0.00043004232 1.5023629e-19)
(-0.0041833197 0.00041267443 1.5207324e-20)
(-0.0041983413 0.00039539521 -2.8904076e-20)
(-0.0042103337 0.00037822798 -4.1948704e-20)
(-0.0042193444 0.00036119535 -2.607701e-20)
(-0.0042254254 0.00034431912 -1.1211028e-19)
(-0.004228632 0.00032762021 -9.8729829e-20)
(-0.0042290234 0.00031111857 6.5402955e-20)
(-0.0042266621 0.00029483315 -8.3400434e-21)
(-0.0042216137 0.0002787819 -8.527111e-20)
(-0.0042139465 0.00026298162 -2.5415592e-20)
(-0.0042037315 0.00024744802 -3.4026562e-20)
(-0.0041910419 0.00023219564 -1.2649348e-20)
(-0.0041759529 0.00021723788 7.8603995e-20)
(-0.0041585415 0.00020258695 1.2392929e-19)
(-0.0041388863 0.00018825384 1.3797353e-19)
(-0.0041170669 0.00017424844 7.4649158e-21)
(-0.0040931641 0.00016057939 -7.9597324e-20)
(-0.0040672591 0.00014725422 -2.9926458e-20)
(-0.0040394339 0.0001342793 -6.9909815e-20)
(-0.0040097706 0.00012165993 -1.6554528e-19)
(-0.0039783513 0.00010940029 -4.8695582e-20)
(-0.003945258 9.7503539e-05 5.4099972e-20)
(-0.0039105721 8.5971809e-05 3.2076441e-20)
(-0.0038743746 7.4806259e-05 -1.8605887e-20)
(-0.0038367456 6.4007096e-05 2.151709e-20)
(-0.0037977641 5.3573633e-05 8.7657362e-20)
(-0.0037575081 4.3504332e-05 -6.275383e-20)
(-0.0037160546 3.3796903e-05 -1.1644377e-19)
(-0.003673479 2.4448502e-05 -1.6976123e-19)
(-0.0036298558 1.5456113e-05 -1.7119246e-19)
(-0.0035852585 6.8182877e-06 -1.4728624e-20)
(-8.561062e-05 0.0011895691 -1.1364663e-18)
(-0.00019723516 0.0011908815 -5.2474796e-19)
(-0.00032364012 0.0011920368 -8.229733e-19)
(-0.00044505848 0.001192803 -1.1074822e-18)
(-0.0005700314 0.0011926355 -7.2682273e-19)
(-0.00069442028 0.001191402 -1.2791056e-19)
(-0.00081814647 0.0011891395 -8.2213573e-20)
(-0.00094123168 0.0011859135 -9.4889472e-20)
(-0.0010636068 0.0011817909 1.8115869e-19)
(-0.0011851564 0.0011768284 1.3939932e-19)
(-0.001305759 0.0011710698 -2.771198e-20)
(-0.0014252929 0.0011645484 -4.7178896e-20)
(-0.0015436375 0.0011572891 -1.3998349e-19)
(-0.0016606737 0.001149311 5.7489884e-20)
(-0.0017762847 0.0011406292 2.2594082e-19)
(-0.0018903562 0.0011312563 -5.9241138e-20)
(-0.002002776 0.0011212029 -5.8163114e-21)
(-0.0021134346 0.001110479 7.8793969e-21)
(-0.0022222248 0.0010990943 5.3755751e-20)
(-0.0023290421 0.0010870585 2.6621053e-19)
(-0.0024337847 0.0010743819 2.2159791e-19)
(-0.0025363534 0.0010610755 1.2271918e-19)
(-0.0026366518 0.0010471515 1.1779006e-19)
(-0.0027345869 0.0010326228 2.7838944e-19)
(-0.0028300683 0.0010175037 1.6411142e-19)
(-0.0029230095 0.0010018098 -8.1667997e-21)
(-0.0030133273 0.00098555794 -2.1759077e-20)
(-0.0031009426 0.00096876617 -4.2938179e-20)
(-0.0031857799 0.00095145403 1.4949116e-20)
(-0.0032677685 0.00093364239 1.4659809e-19)
(-0.0033468418 0.00091535345 1.752559e-19)
(-0.003422938 0.00089661073 2.1494953e-19)
(-0.003496 0.00087743901 2.4930839e-19)
(-0.003565976 0.00085786429 1.5806603e-19)
(-0.0036328191 0.00083791368 -2.8532179e-20)
(-0.0036964879 0.00081761538 -1.552576e-19)
(-0.0037569464 0.00079699854 4.1177434e-20)
(-0.003814164 0.00077609318 1.2569038e-20)
(-0.0038681159 0.00075493006 -5.9410064e-20)
(-0.0039187829 0.00073354059 3.5414086e-20)
(-0.0039661515 0.00071195671 3.0482226e-20)
(-0.004010214 0.00069021072 -1.5250539e-20)
(-0.0040509682 0.00066833517 -3.7351226e-20)
(-0.0040884179 0.00064636276 1.2207836e-19)
(-0.0041225722 0.00062432615 7.4360605e-20)
(-0.0041534459 0.00060225787 1.112017e-19)
(-0.0041810593 0.00058019016 1.3892419e-19)
(-0.0042054378 0.00055815486 2.8886952e-20)
(-0.004226612 0.00053618329 -1.8248028e-20)
(-0.0042446178 0.0005143061 -8.8686611e-21)
(-0.0042594954 0.0004925532 2.9494677e-20)
(-0.00427129 0.00047095362 -3.5905309e-20)
(-0.0042800511 0.00044953541 -7.3921459e-20)
(-0.0042858322 0.00042832557 -1.0864391e-19)
(-0.004288691 0.00040734997 -1.8144775e-19)
(-0.0042886885 0.00038663324 -6.0859771e-20)
(-0.0042858894 0.00036619872 9.0017778e-20)
(-0.0042803615 0.00034606844 1.0144844e-19)
(-0.0042721753 0.00032626302 1.9734718e-20)
(-0.0042614039 0.00030680165 -1.9241856e-20)
(-0.004248123 0.00028770206 -7.1946837e-20)
(-0.0042324099 0.00026898055 -5.1348448e-20)
(-0.0042143439 0.00025065189 -4.7476085e-21)
(-0.0041940057 0.00023272936 1.3605935e-19)
(-0.0041714774 0.00021522479 1.2687115e-19)
(-0.0041468416 0.00019814854 7.3147826e-21)
(-0.0041201821 0.0001815095 -4.8752827e-20)
(-0.0040915827 0.00016531515 -9.4756587e-20)
(-0.0040611277 0.0001495716 -1.0537347e-19)
(-0.0040289012 0.00013428361 -3.7459976e-20)
(-0.0039949871 0.00011945461 2.659238e-20)
(-0.0039594688 0.00010508681 1.4258772e-20)
(-0.0039224289 9.1181163e-05 -5.5694853e-20)
(-0.0038839494 7.7737477e-05 -2.6004833e-20)
(-0.0038441112 6.4754459e-05 4.0572209e-20)
(-0.0038029938 5.2229776e-05 -1.7580105e-20)
(-0.0037606756 4.0160156e-05 -6.0461581e-20)
(-0.0037172331 2.8541596e-05 -1.6894476e-19)
(-0.0036727403 1.7369617e-05 -1.2243315e-19)
(-0.0036272691 6.6406079e-06 -4.6126536e-20)
(-8.599985e-05 0.001445079 -1.3583652e-18)
(-0.00019844829 0.001445781 -1.1535824e-18)
(-0.00032601062 0.0014461997 -9.0671067e-19)
(-0.00044867486 0.0014461095 -9.0423547e-19)
(-0.00057504093 0.0014450794 -7.8860494e-19)
(-0.00070084099 0.0014429673 -5.5425988e-19)
(-0.00082596251 0.0014397681 -1.826527e-19)
(-0.0009504139 0.0014355136 -7.9806073e-20)
(-0.0010741236 0.0014302466 1.7314716e-20)
(-0.0011969782 0.0014240081 1.3569692e-19)
(-0.0013188597 0.0014168327 5.0599846e-20)
(-0.0014396496 0.0014087487 -2.1631594e-20)
(-0.0015592296 0.0013997786 -3.1465763e-19)
(-0.0016774822 0.001389941 -1.8754194e-19)
(-0.0017942912 0.0013792514 -1.1566647e-20)
(-0.0019095425 0.0013677232 -7.3637673e-20)
(-0.0020231235 0.0013553689 2.6298748e-20)
(-0.0021349238 0.0013422003 1.9457273e-21)
(-0.0022448354 0.0013282293 -6.8678479e-20)
(-0.0023527523 0.0013134683 1.043804e-19)
(-0.0024585711 0.0012979303 1.8966841e-19)
(-0.0025621913 0.0012816292 -1.0732515e-20)
(-0.0026635146 0.0012645805 9.2101304e-20)
(-0.0027624463 0.0012468006 4.6110073e-19)
(-0.0028588944 0.0012283076 3.9839165e-19)
(-0.0029527704 0.0012091211 -6.4105381e-20)
(-0.0030439897 0.0011892622 -9.0113689e-20)
(-0.0031324712 0.0011687536 -1.1616465e-19)
(-0.003218138 0.0011476197 -2.993771e-20)
(-0.0033009176 0.0011258866 7.0647465e-20)
(-0.003380742 0.0011035817 3.4257885e-20)
(-0.0034575479 0.0010807344 1.8572837e-19)
(-0.0035312769 0.0010573752 1.8083612e-19)
(-0.0036018758 0.0010335361 -9.0528802e-20)
(-0.0036692968 0.0010092508 -1.5106223e-19)
(-0.0037334973 0.00098455365 -9.1619533e-20)
(-0.0037944405 0.00095948058 2.0515719e-20)
(-0.0038520951 0.00093406832 -9.8312126e-20)
(-0.0039064358 0.00090835447 -2.4836118e-19)
(-0.0039574428 0.00088237739 -2.1250808e-19)
(-0.0040051025 0.00085617598 -1.0698999e-19)
(-0.004049407 0.00082978954 1.0565281e-19)
(-0.0040903543 0.00080325765 -4.5951995e-21)
(-0.0041279484 0.00077661997 -1.1750492e-19)
(-0.0041621987 0.00074991608 3.07966e-21)
(-0.0041931207 0.00072318534 1.9234585e-19)
(-0.0042207353 0.00069646673 2.7102151e-19)
(-0.0042450689 0.00066979867 -1.1096295e-20)
(-0.004266153 0.00064321892 -1.4678966e-19)
(-0.0042840245 0.00061676439 9.6758299e-21)
(-0.0042987252 0.00059047102 -5.5952497e-20)
(-0.0043103015 0.00056437368 -2.8364668e-20)
(-0.0043188042 0.000538506 -6.1164346e-20)
(-0.0043242887 0.00051290032 -1.9089347e-19)
(-0.0043268142 0.00048758756 -1.5765988e-19)
(-0.0043264436 0.00046259711 -6.1351673e-20)
(-0.0043232433 0.00043795682 2.4970657e-20)
(-0.0043172829 0.00041369285 -4.862704e-20)
(-0.0043086349 0.00038982971 -6.0259475e-20)
(-0.0042973745 0.00036639013 -2.8315646e-20)
(-0.004283579 0.00034339509 -1.4658724e-20)
(-0.004267328 0.00032086379 3.5914803e-20)
(-0.0042487027 0.0002988136 -7.6605638e-20)
(-0.0042277858 0.00027726009 -2.3923998e-20)
(-0.0042046611 0.00025621707 6.9361297e-20)
(-0.0041794136 0.00023569656 -2.0830542e-20)
(-0.0041521285 0.00021570883 2.9071646e-21)
(-0.0041228917 0.00019626244 -6.5809587e-20)
(-0.0040917893 0.00017736434 -7.7797624e-20)
(-0.004058907 0.00015901979 -2.7152762e-20)
(-0.0040243305 0.00014123254 -1.9289381e-20)
(-0.0039881448 0.00012400484 -1.2891621e-20)
(-0.0039504342 0.00010733747 -4.4074482e-21)
(-0.003911282 9.1229887e-05 1.7839644e-20)
(-0.0038707704 7.5680219e-05 2.0873199e-20)
(-0.0038289805 6.0685401e-05 -3.2712211e-20)
(-0.0037859916 4.6241222e-05 -7.5711434e-20)
(-0.0037418814 3.2342441e-05 -1.4100683e-19)
(-0.0036967248 1.8982897e-05 -1.5016217e-19)
(-0.0036505946 6.1556225e-06 -8.1826423e-20)
(-8.6385907e-05 0.0017017959 -1.8605883e-18)
(-0.00019952668 0.0017022188 -1.6237539e-18)
(-0.00032801393 0.0017021502 -7.6782233e-19)
(-0.00045167933 0.0017014233 -5.0111992e-19)
(-0.00057917195 0.0016996647 -4.0133717e-19)
(-0.00070613338 0.0016967393 -3.918139e-19)
(-0.00083242172 0.0016926285 -5.6280718e-22)
(-0.0009580302 0.0016873491 6.9150876e-20)
(-0.0010828808 0.0016809308 1.9615606e-19)
(-0.0012068587 0.0016734049 3.7595811e-19)
(-0.0013298462 0.0016647999 4.5965708e-19)
(-0.0014517262 0.00165514 3.3986538e-19)
(-0.0015723817 0.0016444457 -1.5713735e-20)
(-0.0016916959 0.0016327349 7.3936959e-20)
(-0.0018095532 0.0016200231 9.2980774e-20)
(-0.0019258393 0.0016063246 -1.5580834e-19)