/*--------------------------------*- C++ -*----------------------------------*\
| =========                 |                                                 |
| \\      /  F ield         | OpenFOAM: The Open Source CFD Toolbox           |
|  \\    /   O peration     | Version:  2106                                  |
|   \\  /    A nd           | Website:  www.openfoam.com                      |
|    \\/     M anipulation  |                                                 |
\*---------------------------------------------------------------------------*/
FoamFile
{
    version     2.0;
    format      ascii;
    arch        "LSB;label=32;scalar=64";
    class       surfaceScalarField;
    location    "0.017";
    object      phi;
}
// * * * * * * * * * * * * * * * * * * * * * * * * * * * * * * * * * * * * * //

dimensions      [0 3 -1 0 0 0 0];

oriented        oriented;

internalField   nonuniform List<scalar> 
130560
(
-8.3548801e-06
8.35488e-06
-1.6705505e-05
8.3506248e-06
-2.504762e-05
8.3421149e-06
-3.3376972e-05
8.3293519e-06
-4.1689309e-05
8.3123377e-06
-4.9980384e-05
8.291075e-06
-5.8245952e-05
8.2655675e-06
-6.6481771e-05
8.2358192e-06
-7.4683606e-05
8.2018353e-06
-8.2847228e-05
8.1636214e-06
-9.0968412e-05
8.1211842e-06
-9.9042943e-05
8.0745312e-06
-0.00010706661
8.0236707e-06
-0.00011503523
7.9686121e-06
-0.00012294459
7.9093658e-06
-0.00013079053
7.845943e-06
-0.00013856889
7.7783563e-06
-0.00014627551
7.7066193e-06
-0.00015390626
7.6307468e-06
-0.00016145701
7.550755e-06
-0.00016892367
7.4666612e-06
-0.00017630216
7.3784844e-06
-0.0001835884
7.2862449e-06
-0.00019077837
7.1899644e-06
-0.00019786803
7.0896665e-06
-0.00020485341
6.9853763e-06
-0.00021173053
6.8771207e-06
-0.00021849546
6.7649283e-06
-0.00022514429
6.6488298e-06
-0.00023167315
6.5288576e-06
-0.00023807819
6.4050464e-06
-0.00024435563
6.2774328e-06
-0.00025050168
6.1460557e-06
-0.00025651264
6.0109561e-06
-0.00026238482
5.8721775e-06
-0.00026811458
5.7297655e-06
-0.00027369835
5.5837685e-06
-0.00027913259
5.4342371e-06
-0.00028441381
5.2812246e-06
-0.0002895386
5.1247867e-06
-0.00029450358
4.9649821e-06
-0.00029930545
4.801872e-06
-0.00030394097
4.6355204e-06
-0.00030840697
4.465994e-06
-0.00031270033
4.2933626e-06
-0.00031681803
4.1176986e-06
-0.0003207571
3.9390776e-06
-0.00032451468
3.7575777e-06
-0.00032808796
3.5732804e-06
-0.00033147423
3.38627e-06
-0.00033467087
3.1966337e-06
-0.00033767533
3.0044617e-06
-0.00034048518
2.8098473e-06
-0.00034309806
2.6128867e-06
-0.00034551174
2.4136791e-06
-0.00034772407
2.2123268e-06
-0.000349733
2.0089347e-06
-0.00035153661
1.803611e-06
-0.00035313308
1.5964664e-06
-0.0003545207
1.3876149e-06
-0.00035569787
1.1771729e-06
-0.00035666313
9.6525966e-07
-0.00035741513
7.5199734e-07
-0.00035795264
5.3751026e-07
-0.00035827456
3.2192351e-07
-0.00035837993
1.0537294e-07
-0.00035826792
-1.120135e-07
-0.00035793782
-3.3010182e-07
-0.00035738906
-5.4875467e-07
-0.00035662123
-7.6783294e-07
-0.00035563403
-9.871957e-07
-0.00035442733
-1.2067001e-06
-0.00035300113
-1.4262014e-06
-0.00035135558
-1.6455532e-06
-0.00034949097
-1.8646075e-06
-0.00034740776
-2.0832147e-06
-0.00034510653
-2.3012239e-06
-0.00034258805
-2.5184831e-06
-0.00033985321
-2.7348391e-06
-0.00033690307
-2.9501378e-06
-0.00033373885
-3.1642243e-06
-0.00033036191
-3.3769432e-06
-0.00032677377
-3.5881385e-06
-0.00032297611
-3.7976538e-06
-0.00031897078
-4.0053326e-06
-0.00031475976
-4.2110186e-06
-0.00031034521
-4.4145554e-06
-0.00030572942
-4.6157871e-06
-0.00030091486
-4.8145582e-06
-0.00029590415
-5.0107141e-06
-0.00029070005
-5.2041007e-06
-0.00028530548
-5.3945653e-06
-0.00027972352
-5.5819563e-06
-0.0002739574
-5.7661234e-06
-0.00026801048
-5.9469179e-06
-0.00026188629
-6.1241931e-06
-0.00025558849
-6.2978038e-06
-0.00024912088
-6.4676073e-06
-0.00024248742
-6.633463e-06
-0.00023569218
-6.7952329e-06
-0.0002287394
-6.9527815e-06
-0.00022163343
-7.1059761e-06
-0.00021437874
-7.2546873e-06
-0.00020697995
-7.3987884e-06
-0.00019944179
-7.5381565e-06
-0.00019176912
-7.6726718e-06
-0.0001839669
-7.8022183e-06
-0.00017604022
-7.926684e-06
-0.00016799426
-8.0459606e-06
-0.00015983431
-8.159944e-06
-0.00015156578
-8.2685344e-06
-0.00014319414
-8.3716363e-06
-0.00013472498
-8.4691589e-06
-0.00012616397
-8.5610157e-06
-0.00011751684
-8.6471255e-06
-0.00010878943
-8.7274115e-06
-9.998763e-05
-8.8018022e-06
-9.1117399e-05
-8.8702311e-06
-8.2184762e-05
-8.9326368e-06
-7.3195798e-05
-8.9889634e-06
-6.4156638e-05
-9.0391603e-06
-5.5073456e-05
-9.0831821e-06
-4.5952467e-05
-9.1209893e-06
-3.6799919e-05
-9.1525477e-06
-2.762209e-05
-9.1778287e-06
-1.8425281e-05
-9.1968096e-06
-9.2158076e-06
-9.209473e-06
-3.9162345e-15
-9.2158076e-06
9.2158076e-06
-9.2158076e-06
1.8425281e-05
-9.209473e-06
2.762209e-05
-9.1968096e-06
3.6799919e-05
-9.1778287e-06
4.5952467e-05
-9.1525477e-06
5.5073456e-05
-9.1209893e-06
6.4156638e-05
-9.0831821e-06
7.3195798e-05
-9.0391603e-06
8.2184762e-05
-8.9889634e-06
9.1117399e-05
-8.9326368e-06
9.998763e-05
-8.8702311e-06
0.00010878943
-8.8018022e-06
0.00011751684
-8.7274115e-06
0.00012616397
-8.6471255e-06
0.00013472498
-8.5610157e-06
0.00014319414
-8.4691589e-06
0.00015156578
-8.3716363e-06
0.00015983431
-8.2685344e-06
0.00016799426
-8.159944e-06
0.00017604022
-8.0459606e-06
0.0001839669
-7.926684e-06
0.00019176912
-7.8022183e-06
0.00019944179
-7.6726718e-06
0.00020697995
-7.5381565e-06
0.00021437874
-7.3987884e-06
0.00022163343
-7.2546873e-06
0.0002287394
-7.1059761e-06
0.00023569218
-6.9527815e-06
0.00024248742
-6.7952329e-06
0.00024912088
-6.633463e-06
0.00025558849
-6.4676073e-06
0.00026188629
-6.2978038e-06
0.00026801048
-6.1241931e-06
0.0002739574
-5.9469179e-06
0.00027972352
-5.7661234e-06
0.00028530548
-5.5819563e-06
0.00029070005
-5.3945653e-06
0.00029590415
-5.2041007e-06
0.00030091486
-5.0107141e-06
0.00030572942
-4.8145582e-06
0.00031034521
-4.6157871e-06
0.00031475976
-4.4145554e-06
0.00031897078
-4.2110186e-06
0.00032297611
-4.0053326e-06
0.00032677377
-3.7976538e-06
0.00033036191
-3.5881385e-06
0.00033373885
-3.3769432e-06
0.00033690307
-3.1642243e-06
0.00033985321
-2.9501378e-06
0.00034258805
-2.7348391e-06
0.00034510653
-2.5184831e-06
0.00034740776
-2.3012239e-06
0.00034949097
-2.0832147e-06
0.00035135558
-1.8646075e-06
0.00035300113
-1.6455532e-06
0.00035442733
-1.4262014e-06
0.00035563403
-1.2067001e-06
0.00035662123
-9.871957e-07
0.00035738906
-7.6783293e-07
0.00035793782
-5.4875466e-07
0.00035826792
-3.3010182e-07
0.00035837993
-1.120135e-07
0.00035827456
1.0537294e-07
0.00035795264
3.2192351e-07
0.00035741513
5.3751026e-07
0.00035666313
7.5199734e-07
0.00035569787
9.6525966e-07
0.0003545207
1.1771729e-06
0.00035313308
1.3876149e-06
0.00035153661
1.5964664e-06
0.000349733
1.803611e-06
0.00034772407
2.0089347e-06
0.00034551174
2.2123268e-06
0.00034309806
2.4136791e-06
0.00034048518
2.6128867e-06
0.00033767533
2.8098473e-06
0.00033467087
3.0044617e-06
0.00033147423
3.1966337e-06
0.00032808796
3.38627e-06
0.00032451468
3.5732804e-06
0.0003207571
3.7575777e-06
0.00031681803
3.9390776e-06
0.00031270033
4.1176986e-06
0.00030840697
4.2933626e-06
0.00030394097
4.465994e-06
0.00029930545
4.6355204e-06
0.00029450358
4.801872e-06
0.0002895386
4.9649821e-06
0.00028441381
5.1247867e-06
0.00027913259
5.2812246e-06
0.00027369835
5.4342371e-06
0.00026811458
5.5837685e-06
0.00026238482
5.7297655e-06
0.00025651264
5.8721775e-06
0.00025050168
6.0109561e-06
0.00024435563
6.1460557e-06
0.00023807819
6.2774328e-06
0.00023167315
6.4050464e-06
0.00022514429
6.5288576e-06
0.00021849546
6.6488298e-06
0.00021173053
6.7649283e-06
0.00020485341
6.8771207e-06
0.00019786803
6.9853763e-06
0.00019077837
7.0896665e-06
0.0001835884
7.1899644e-06
0.00017630216
7.2862449e-06
0.00016892367
7.3784844e-06
0.00016145701
7.4666612e-06
0.00015390626
7.550755e-06
0.00014627551
7.6307468e-06
0.00013856889
7.7066193e-06
0.00013079053
7.7783563e-06
0.00012294459
7.845943e-06
0.00011503523
7.9093658e-06
0.00010706661
7.9686121e-06
9.9042943e-05
8.0236707e-06
9.0968412e-05
8.0745312e-06
8.2847228e-05
8.1211842e-06
7.4683606e-05
8.1636214e-06
6.6481771e-05
8.2018353e-06
5.8245952e-05
8.2358192e-06
4.9980384e-05
8.2655675e-06
4.1689309e-05
8.291075e-06
3.3376972e-05
8.3123377e-06
2.504762e-05
8.3293519e-06
1.6705505e-05
8.3421149e-06
8.3548801e-06
8.3506248e-06
8.35488e-06
-8.3558488e-06
1.6710729e-05
-1.6707444e-05
1.670222e-05
-2.5050531e-05
1.6685203e-05
-3.338086e-05
1.665968e-05
-4.1694179e-05
1.6625657e-05
-4.9986243e-05
1.6583138e-05
-5.8252806e-05
1.6532131e-05
-6.648963e-05
1.6472643e-05
-7.4692481e-05
1.6404686e-05
-8.2857128e-05
1.6328269e-05
-9.0979351e-05
1.6243407e-05
-9.9054934e-05
1.6150114e-05
-0.00010707967
1.6048407e-05
-0.00011504936
1.5938305e-05
-0.00012295983
1.5819828e-05
-0.00013080688
1.5693e-05
-0.00013858637
1.5557844e-05
-0.00014629414
1.5414388e-05
-0.00015392605
1.5262661e-05
-0.00016147799
1.5102696e-05
-0.00016894586
1.4934528e-05
-0.00017632557
1.4758194e-05
-0.00018361306
1.4573735e-05
-0.00019080429
1.4381194e-05
-0.00019789524
1.4180618e-05
-0.00020488192
1.3972057e-05
-0.00021176037
1.3755565e-05
-0.00021852664
1.3531199e-05
-0.00022517683
1.3299021e-05
-0.00023170707
1.3059095e-05
-0.00023811351
1.281149e-05
-0.00024439236
1.2556279e-05
-0.00025053984
1.2293541e-05
-0.00025655224
1.2023357e-05
-0.00026242588
1.1745814e-05
-0.00026815712
1.1461002e-05
-0.00027374237
1.116902e-05
-0.0002791781
1.0869967e-05
-0.00028446082
1.0563951e-05
-0.00028958712
1.0251083e-05
-0.00029455362
9.9314789e-06
-0.00029935701
9.6052626e-06
-0.00030399405
9.2725615e-06
-0.00030846156
8.933509e-06
-0.00031275644
8.5882445e-06
-0.00031687566
8.2369129e-06
-0.00032081625
7.879665e-06
-0.00032457533
7.5166574e-06
-0.0003281501
7.1480528e-06
-0.00033153785
6.7740195e-06
-0.00033473595
6.3947321e-06
-0.00033774186
6.0103711e-06
-0.00034055313
5.6211229e-06
-0.00034316743
5.2271799e-06
-0.00034558249
4.8287405e-06
-0.00034779617
4.4260091e-06
-0.00034980643
4.0191957e-06
-0.00035161134
3.6085164e-06
-0.00035320906
3.194193e-06
-0.0003545979
2.7764531e-06
-0.00035577626
2.3555296e-06
-0.00035674266
1.9316612e-06
-0.00035749575
1.5050919e-06
-0.00035803431
1.0760707e-06
-0.00035835724
6.448514e-07
-0.00035846356
2.1169638e-07
-0.00035835245
-2.2313162e-07
-0.00035802318
-6.5936462e-07
-0.00035747521
-1.0967288e-06
-0.0003567081
-1.5349463e-06
-0.00035572156
-1.9737349e-06
-0.00035451545
-2.412809e-06
-0.00035308977
-2.851879e-06
-0.00035144467
-3.2906519e-06
-0.00034958045
-3.7288317e-06
-0.00034749754
-4.1661191e-06
-0.00034519655
-4.6022123e-06
-0.00034267823
-5.0368071e-06
-0.00033994347
-5.4695971e-06
-0.00033699334
-5.900274e-06
-0.00033382903
-6.3285279e-06
-0.00033045193
-6.7540477e-06
-0.00032686355
-7.1765213e-06
-0.00032306556
-7.595636e-06
-0.00031905982
-8.0110787e-06
-0.0003148483
-8.4225365e-06
-0.00031043316
-8.8296965e-06
-0.0003058167
-9.2322468e-06
-0.00030100138
-9.6298763e-06
-0.00029598982
-1.0022275e-05
-0.00029078478
-1.0409136e-05
-0.0002853892
-1.0790153e-05
-0.00027980613
-1.1165023e-05
-0.00027403881
-1.1533444e-05
-0.00026809061
-1.189512e-05
-0.00026196504
-1.2249756e-05
-0.00025566579
-1.2597063e-05
-0.00024919664
-1.2936754e-05
-0.00024256155
-1.3268549e-05
-0.00023576461
-1.3592171e-05
-0.00022881005
-1.3907349e-05
-0.0002217022
-1.4213818e-05
-0.00021444557
-1.4511319e-05
-0.00020704476
-1.4799597e-05
-0.00019950451
-1.5078408e-05
-0.00019182967
-1.5347511e-05
-0.00018402522
-1.5606674e-05
-0.00017609623
-1.5855674e-05
-0.0001680479
-1.6094292e-05
-0.00015988552
-1.6322322e-05
-0.00015161449
-1.6539564e-05
-0.0001432403
-1.6745826e-05
-0.00013476853
-1.6940926e-05
-0.00012620486
-1.7124692e-05
-0.00011755502
-1.729696e-05
-0.00010882485
-1.7457578e-05
-0.00010002025
-1.7606403e-05
-9.1147186e-05
-1.77433e-05
-8.2211675e-05
-1.7868148e-05
-7.3219805e-05
-1.7980834e-05
-6.4177708e-05
-1.8081257e-05
-5.5091565e-05
-1.8169326e-05
-4.5967591e-05
-1.8244963e-05
-3.6812041e-05
-1.8308098e-05
-2.7631195e-05
-1.8358675e-05
-1.8431357e-05
-1.8396648e-05
-9.2188475e-06
-1.8421982e-05
-4.0459472e-15
-1.8434655e-05
9.2188474e-06
-1.8434655e-05
1.8431357e-05
-1.8421982e-05
2.7631195e-05
-1.8396648e-05
3.6812041e-05
-1.8358675e-05
4.5967591e-05
-1.8308098e-05
5.5091565e-05
-1.8244963e-05
6.4177708e-05
-1.8169326e-05
7.3219805e-05
-1.8081257e-05
8.2211675e-05
-1.7980834e-05
9.1147186e-05
-1.7868148e-05
0.00010002025
-1.77433e-05
0.00010882485
-1.7606403e-05
0.00011755502
-1.7457578e-05
0.00012620486
-1.729696e-05
0.00013476853
-1.7124692e-05
0.0001432403
-1.6940926e-05
0.00015161449
-1.6745826e-05
0.00015988552
-1.6539564e-05
0.0001680479
-1.6322322e-05
0.00017609623
-1.6094292e-05
0.00018402522
-1.5855674e-05
0.00019182967
-1.5606674e-05
0.00019950451
-1.5347511e-05
0.00020704476
-1.5078408e-05
0.00021444557
-1.4799597e-05
0.0002217022
-1.4511319e-05
0.00022881005
-1.4213818e-05
0.00023576461
-1.3907349e-05
0.00024256155
-1.3592171e-05
0.00024919664
-1.3268549e-05
0.00025566579
-1.2936754e-05
0.00026196504
-1.2597063e-05
0.00026809061
-1.2249756e-05
0.00027403881
-1.189512e-05
0.00027980613
-1.1533444e-05
0.0002853892
-1.1165023e-05
0.00029078478
-1.0790153e-05
0.00029598982
-1.0409136e-05
0.00030100138
-1.0022275e-05
0.0003058167
-9.6298763e-06
0.00031043316
-9.2322468e-06
0.0003148483
-8.8296965e-06
0.00031905982
-8.4225365e-06
0.00032306556
-8.0110787e-06
0.00032686355
-7.595636e-06
0.00033045193
-7.1765213e-06
0.00033382903
-6.7540476e-06
0.00033699334
-6.3285278e-06
0.00033994347
-5.900274e-06
0.00034267823
-5.4695971e-06
0.00034519655
-5.0368071e-06
0.00034749754
-4.6022123e-06
0.00034958045
-4.1661191e-06
0.00035144467
-3.7288317e-06
0.00035308977
-3.2906519e-06
0.00035451545
-2.851879e-06
0.00035572156
-2.412809e-06
0.0003567081
-1.9737349e-06
0.00035747521
-1.5349463e-06
0.00035802318
-1.0967288e-06
0.00035835245
-6.5936462e-07
0.00035846356
-2.2313161e-07
0.00035835724
2.1169638e-07
0.00035803431
6.4485141e-07
0.00035749575
1.0760707e-06
0.00035674266
1.5050919e-06
0.00035577626
1.9316612e-06
0.0003545979
2.3555296e-06
0.00035320906
2.7764531e-06
0.00035161134
3.194193e-06
0.00034980643
3.6085164e-06
0.00034779617
4.0191957e-06
0.00034558249
4.4260091e-06
0.00034316743
4.8287406e-06
0.00034055313
5.2271799e-06
0.00033774186
5.6211229e-06
0.00033473595
6.0103711e-06
0.00033153785
6.3947321e-06
0.0003281501
6.7740195e-06
0.00032457533
7.1480528e-06
0.00032081625
7.5166574e-06
0.00031687566
7.879665e-06
0.00031275644
8.2369129e-06
0.00030846156
8.5882445e-06
0.00030399405
8.933509e-06
0.00029935701
9.2725615e-06
0.00029455362
9.6052626e-06
0.00028958712
9.9314789e-06
0.00028446082
1.0251083e-05
0.0002791781
1.0563951e-05
0.00027374237
1.0869967e-05
0.00026815712
1.116902e-05
0.00026242588
1.1461002e-05
0.00025655224
1.1745814e-05
0.00025053984
1.2023357e-05
0.00024439236
1.2293541e-05
0.00023811351
1.2556279e-05
0.00023170707
1.281149e-05
0.00022517683
1.3059095e-05
0.00021852664
1.3299021e-05
0.00021176037
1.3531199e-05
0.00020488192
1.3755565e-05
0.00019789524
1.3972057e-05
0.00019080429
1.4180618e-05
0.00018361306
1.4381194e-05
0.00017632557
1.4573735e-05
0.00016894586
1.4758194e-05
0.00016147799
1.4934528e-05
0.00015392605
1.5102696e-05
0.00014629414
1.5262661e-05
0.00013858637
1.5414388e-05
0.00013080688
1.5557844e-05
0.00012295983
1.5693e-05
0.00011504936
1.5819828e-05
0.00010707967
1.5938305e-05
9.9054934e-05
1.6048407e-05
9.0979351e-05
1.6150114e-05
8.2857128e-05
1.6243407e-05
7.4692481e-05
1.6328269e-05
6.648963e-05
1.6404686e-05
5.8252806e-05
1.6472643e-05
4.9986243e-05
1.6532131e-05
4.1694179e-05
1.6583138e-05
3.338086e-05
1.6625657e-05
2.5050531e-05
1.665968e-05
1.6707444e-05
1.6685203e-05
8.3558489e-06
1.670222e-05
1.6710729e-05
-8.3556162e-06
2.5066345e-05
-1.6706981e-05
2.5053585e-05
-2.5049845e-05
2.5028067e-05
-3.3379959e-05
2.4989794e-05
-4.1693076e-05
2.4938774e-05
-4.9984951e-05
2.4875014e-05
-5.8251345e-05
2.4798524e-05
-6.6488019e-05
2.4709318e-05
-7.4690743e-05
2.4607409e-05
-8.285529e-05
2.4492816e-05
-9.097744e-05
2.4365557e-05
-9.9052982e-05
2.4225656e-05
-0.00010707771
2.4073136e-05
-0.00011504743
2.3908027e-05
-0.00012295796
2.3730357e-05
-0.00013080512
2.3540163e-05
-0.00013858476
2.3337479e-05
-0.00014629272
2.3122348e-05
-0.00015392487
2.2894813e-05
-0.0001614771
2.2654923e-05
-0.0001689453
2.2402729e-05
-0.00017632539
2.2138288e-05
-0.00018361332
2.1861659e-05
-0.00019080503
2.157291e-05
-0.00019789652
2.1272108e-05
-0.0002048838
2.095933e-05
-0.00021176289
2.0634656e-05
-0.00021852986
2.0298172e-05
-0.00022518081
1.9949968e-05
-0.00023171185
1.9590142e-05
-0.00023811916
1.9218797e-05
-0.00024439893
1.8836044e-05
-0.00025054738
1.8441997e-05
-0.00025656081
1.8036781e-05
-0.00026243552
1.7620524e-05
-0.00026816788
1.7193365e-05
-0.00027375431
1.6755446e-05
-0.00027919126
1.630692e-05
-0.00028447525
1.5847946e-05
-0.00028960286
1.5378692e-05
-0.00029457072
1.4899332e-05
-0.0002993755
1.441005e-05
-0.00030401398
1.3911038e-05
-0.00030848297
1.3402496e-05
-0.00031277935
1.2884632e-05
-0.00031690011
1.2357664e-05
-0.00032084226
1.1821818e-05
-0.00032460293
1.1277329e-05
-0.00032817932
1.072444e-05
-0.0003315687
1.0163404e-05
-0.00033476845
9.594482e-06
-0.00033777603
9.0179456e-06
-0.00034058898
8.4340738e-06
-0.00034320495
7.8431554e-06
-0.0003456217
7.2454877e-06
-0.00034783707
6.6413771e-06
-0.00034984901
6.0311388e-06
-0.00035165559
5.4150969e-06
-0.00035325498
4.793584e-06
-0.00035464547
4.1669412e-06
-0.00035582546
3.5355183e-06
-0.00035679347
2.899673e-06
-0.00035754815
2.2597714e-06
-0.00035808827
1.6161874e-06
-0.00035841272
9.6930238e-07
-0.00035852053
3.1950696e-07
-0.00035841086
-3.3280285e-07
-0.000358083
-9.872243e-07
-0.00035753638
-1.643347e-06
-0.00035677057
-2.3007542e-06
-0.00035578528
-2.9590227e-06
-0.00035458037
-3.6177237e-06
-0.00035315583
-4.2764229e-06
-0.0003515118
-4.9346807e-06
-0.00034964858
-5.5920528e-06
-0.0003475666
-6.2480902e-06
-0.00034526648
-6.9023402e-06
-0.00034274894
-7.5543461e-06
-0.00034001489
-8.2036481e-06
-0.00033706538
-8.8497838e-06
-0.00033390162
-9.492288e-06
-0.00033052497
-1.0130694e-05
-0.00032693696
-1.0764533e-05
-0.00032313926
-1.1393337e-05
-0.0003191337
-1.2016634e-05
-0.00031492228
-1.2633956e-05
-0.00031050714
-1.3244834e-05
-0.00030589059
-1.3848798e-05
-0.00030107509
-1.4445383e-05
-0.00029606324
-1.5034123e-05
-0.00029085782
-1.5614556e-05
-0.00028546175
-1.6186224e-05
-0.0002798781
-1.6748671e-05
-0.0002741101
-1.7301446e-05
-0.00026816112
-1.7844102e-05
-0.00026203467
-1.8376199e-05
-0.00025573444
-1.88973e-05
-0.00024926421
-1.9406978e-05
-0.00024262795
-1.990481e-05
-0.00023582974
-2.039038e-05
-0.00022887381
-2.0863283e-05
-0.00022176451
-2.132312e-05
-0.00021450633
-2.1769502e-05
-0.00020710387
-2.2202048e-05
-0.00019956189
-2.262039e-05
-0.00019188524
-2.3024167e-05
-0.00018407888
-2.3413031e-05
-0.00017614791
-2.3786646e-05
-0.00016809751
-2.4144687e-05
-0.00015993299
-2.4486839e-05
-0.00015165975
-2.4812805e-05
-0.00014328328
-2.5122297e-05
-0.00013480917
-2.5415041e-05
-0.00012624308
-2.569078e-05
-0.00011759077
-2.5949267e-05
-0.00010885808
-2.6190273e-05
-0.0001000509
-2.6413583e-05
-9.1175198e-05
-2.6618997e-05
-8.2237015e-05
-2.6806331e-05
-7.3242432e-05
-2.6975417e-05
-6.4197586e-05
-2.7126102e-05
-5.5108662e-05
-2.7258251e-05
-4.5981881e-05
-2.7371744e-05
-3.68235e-05
-2.7466479e-05
-2.7639805e-05
-2.754237e-05
-1.8437104e-05
-2.7599348e-05
-9.2217237e-06
-2.7637363e-05
-4.195296e-15
-2.7656379e-05
9.2217237e-06
-2.7656379e-05
1.8437104e-05
-2.7637363e-05
2.7639805e-05
-2.7599348e-05
3.68235e-05
-2.754237e-05
4.5981881e-05
-2.7466479e-05
5.5108662e-05
-2.7371744e-05
6.4197586e-05
-2.7258251e-05
7.3242432e-05
-2.7126102e-05
8.2237015e-05
-2.6975417e-05
9.1175198e-05
-2.6806331e-05
0.0001000509
-2.6618997e-05
0.00010885808
-2.6413583e-05
0.00011759077
-2.6190273e-05
0.00012624308
-2.5949267e-05
0.00013480917
-2.569078e-05
0.00014328328
-2.5415041e-05
0.00015165975
-2.5122297e-05
0.00015993299
-2.4812805e-05
0.00016809751
-2.4486839e-05
0.00017614791
-2.4144687e-05
0.00018407888
-2.3786646e-05
0.00019188524
-2.3413031e-05
0.00019956189
-2.3024167e-05
0.00020710387
-2.262039e-05
0.00021450633
-2.2202048e-05
0.00022176451
-2.1769502e-05
0.00022887381
-2.132312e-05
0.00023582974
-2.0863283e-05
0.00024262795
-2.039038e-05
0.00024926421
-1.990481e-05
0.00025573444
-1.9406978e-05
0.00026203467
-1.8897301e-05
0.00026816112
-1.8376199e-05
0.0002741101
-1.7844102e-05
0.0002798781
-1.7301446e-05
0.00028546175
-1.6748671e-05
0.00029085782
-1.6186224e-05
0.00029606324
-1.5614556e-05
0.00030107509
-1.5034123e-05
0.00030589059
-1.4445383e-05
0.00031050714
-1.3848798e-05
0.00031492228
-1.3244834e-05
0.0003191337
-1.2633956e-05
0.00032313926
-1.2016634e-05
0.00032693696
-1.1393337e-05
0.00033052497
-1.0764533e-05
0.00033390162
-1.0130694e-05
0.00033706538
-9.492288e-06
0.00034001489
-8.8497837e-06
0.00034274894
-8.2036481e-06
0.00034526648
-7.5543461e-06
0.0003475666
-6.9023402e-06
0.00034964858
-6.2480902e-06
0.0003515118
-5.5920528e-06
0.00035315583
-4.9346807e-06
0.00035458037
-4.2764229e-06
0.00035578528
-3.6177237e-06
0.00035677057
-2.9590226e-06
0.00035753638
-2.3007541e-06
0.000358083
-1.643347e-06
0.00035841086
-9.8722429e-07
0.00035852053
-3.3280284e-07
0.00035841272
3.1950698e-07
0.00035808827
9.6930239e-07
0.00035754815
1.6161874e-06
0.00035679347
2.2597715e-06
0.00035582546
2.899673e-06
0.00035464547
3.5355183e-06
0.00035325498
4.1669412e-06
0.00035165559
4.793584e-06
0.00034984901
5.4150969e-06
0.00034783707
6.0311389e-06
0.0003456217
6.6413771e-06
0.00034320495
7.2454877e-06
0.00034058898
7.8431554e-06
0.00033777603
8.4340739e-06
0.00033476845
9.0179456e-06
0.0003315687
9.594482e-06
0.00032817932
1.0163404e-05
0.00032460293
1.072444e-05
0.00032084226
1.1277329e-05
0.00031690011
1.1821818e-05
0.00031277935
1.2357664e-05
0.00030848297
1.2884632e-05
0.00030401398
1.3402496e-05
0.0002993755
1.3911038e-05
0.00029457072
1.441005e-05
0.00028960286
1.4899332e-05
0.00028447525
1.5378692e-05
0.00027919126
1.5847946e-05
0.00027375431
1.630692e-05
0.00026816788
1.6755446e-05
0.00026243552
1.7193365e-05
0.00025656081
1.7620524e-05
0.00025054738
1.8036781e-05
0.00024439893
1.8441997e-05
0.00023811916
1.8836044e-05
0.00023171185
1.9218797e-05
0.00022518081
1.9590142e-05
0.00021852986
1.9949968e-05
0.00021176289
2.0298172e-05
0.0002048838
2.0634656e-05
0.00019789652
2.095933e-05
0.00019080503
2.1272108e-05
0.00018361332
2.157291e-05
0.00017632539
2.1861659e-05
0.0001689453
2.2138288e-05
0.0001614771
2.2402729e-05
0.00015392487
2.2654923e-05
0.00014629272
2.2894813e-05
0.00013858476
2.3122348e-05
0.00013080512
2.3337479e-05
0.00012295796
2.3540163e-05
0.00011504743
2.3730357e-05
0.00010707771
2.3908027e-05
9.9052982e-05
2.4073136e-05
9.097744e-05
2.4225656e-05
8.285529e-05
2.4365557e-05
7.4690743e-05
2.4492816e-05
6.6488019e-05
2.4607409e-05
5.8251345e-05
2.4709318e-05
4.9984951e-05
2.4798524e-05
4.1693076e-05
2.4875014e-05
3.3379959e-05
2.4938774e-05
2.5049845e-05
2.4989794e-05
1.6706981e-05
2.5028067e-05
8.3556162e-06
2.5053585e-05
2.5066345e-05
-8.3541536e-06
3.3420499e-05
-1.6704061e-05
3.3403492e-05
-2.5045476e-05
3.3369482e-05
-3.3374156e-05
3.3318474e-05
-4.1685857e-05
3.3250475e-05
-4.997634e-05
3.3165497e-05
-5.8241368e-05
3.3063553e-05
-6.647671e-05
3.294466e-05
-7.4678138e-05
3.2808837e-05
-8.284143e-05
3.2656108e-05
-9.0962371e-05
3.2486498e-05
-9.9036751e-05
3.2300037e-05
-0.00010706037
3.2096757e-05
-0.00011502904
3.1876697e-05
-0.00012293858
3.1639895e-05
-0.00013078482
3.1386398e-05
-0.00013856359
3.1116255e-05
-0.00014627076
3.0829519e-05
-0.0001539022
3.0526249e-05
-0.00016145378
3.0206508e-05
-0.00016892142
2.9870367e-05
-0.00017630103
2.9517899e-05
-0.00018358856
2.9149185e-05
-0.00019077996
2.8764311e-05
-0.00019787122
2.836337e-05
-0.00020485835
2.7946463e-05
-0.00021173739
2.7513696e-05
-0.0002185044
2.7065182e-05
-0.00022515548
2.6601043e-05
-0.00023168674
2.6121408e-05
-0.00023809436
2.5626415e-05
-0.00024437453
2.511621e-05
-0.00025052348
2.4590947e-05
-0.00025653749
2.4050789e-05
-0.00026241287
2.3495909e-05
-0.00026814599
2.2926489e-05
-0.00027373327
2.2342722e-05
-0.00027917116
2.1744809e-05
-0.00028445618
2.1132962e-05
-0.00028958489
2.0507405e-05
-0.00029455393
1.9868369e-05
-0.00029935998
1.92161e-05
-0.00030399979
1.8550853e-05
-0.00030847019
1.7872894e-05
-0.00031276806
1.7182501e-05
-0.00031689036
1.6479964e-05
-0.00032083412
1.5765584e-05
-0.00032459647
1.5039672e-05
-0.00032817458
1.4302555e-05
-0.00033156575
1.3554569e-05
-0.00033476733
1.2796062e-05
-0.00033777678
1.2027396e-05
-0.00034059164
1.1248941e-05
-0.00034320957
1.0461084e-05
-0.0003456283
9.6642195e-06
-0.00034784568
8.8587573e-06
-0.00034985966
8.0451171e-06
-0.0003516683
7.2237308e-06
-0.00035326975
6.3950418e-06
-0.00035466232
5.5595051e-06
-0.00035584439
4.7175866e-06
-0.00035681448
3.8697636e-06
-0.00035757123
3.016524e-06
-0.00035811341
2.1583665e-06
-0.00035843991
1.2958e-06
-0.00035854974
4.2934407e-07
-0.00035844207
-4.4047276e-07
-0.00035811619
-1.3131128e-06
-0.0003575715
-2.1880289e-06
-0.00035680759
-3.0646652e-06
-0.00035582416
-3.9424577e-06
-0.00035462105
-4.8208345e-06
-0.00035319825
-5.6992161e-06
-0.00035155592
-6.5770163e-06
-0.00034969433
-7.4536425e-06
-0.00034761392
-8.328496e-06
-0.00034531529
-9.2009726e-06
-0.00034279917
-1.0070464e-05
-0.00034006647
-1.0936355e-05
-0.00033711822
-1.1798031e-05
-0.00033395564
-1.265487e-05
-0.00033058008
-1.350625e-05
-0.00032699307
-1.4351546e-05
-0.00032319627
-1.5190132e-05
-0.00031919152
-1.6021381e-05
-0.00031498081
-1.6844667e-05
-0.00031056628
-1.7659363e-05
-0.00030595024
-1.8464845e-05
-0.00030113513
-1.926049e-05
-0.00029612358
-2.0045678e-05
-0.00029091834
-2.0819792e-05
-0.00028552234
-2.158222e-05
-0.00027993866
-2.2332355e-05
-0.00027417051
-2.3069595e-05
-0.00026822127
-2.3793343e-05
-0.00026209446
-2.4503012e-05
-0.00025579374
-2.5198021e-05
-0.00024932292
-2.5877796e-05
-0.00024268595
-2.6541775e-05
-0.00023588693
-2.7189404e-05
-0.00022893007
-2.7820141e-05
-0.00022181974
-2.8433454e-05
-0.00021456041
-2.9028824e-05
-0.00020715672
-2.9605743e-05
-0.00019961339
-3.0163718e-05
-0.00019193529
-3.0702269e-05
-0.00018412739
-3.1220933e-05
-0.00017619478
-3.1719258e-05
-0.00016814265
-3.2196812e-05
-0.00015997631
-3.2653177e-05
-0.00015170117
-3.3087952e-05
-0.00014332271
-3.3500756e-05
-0.00013484652
-3.3891223e-05
-0.0001262783
-3.4259008e-05
-0.00011762378
-3.4603785e-05
-0.00010888881
-3.4925245e-05
-0.00010007929
-3.5223102e-05
-9.1201194e-05
-3.549709e-05
-8.2260563e-05
-3.5746963e-05
-7.3263484e-05
-3.5972495e-05
-6.4216101e-05
-3.6173485e-05
-5.5124602e-05
-3.634975e-05
-4.5995214e-05
-3.6501132e-05
-3.6834199e-05
-3.6627493e-05
-2.7647848e-05
-3.672872e-05
-1.8442476e-05
-3.6804721e-05
-9.224412e-06
-3.6855427e-05
-4.3599572e-15
-3.6880791e-05
9.224412e-06
-3.6880791e-05
1.8442476e-05
-3.6855427e-05
2.7647848e-05
-3.6804721e-05
3.6834199e-05
-3.672872e-05
4.5995214e-05
-3.6627493e-05
5.5124602e-05
-3.6501132e-05
6.4216101e-05
-3.634975e-05
7.3263484e-05
-3.6173485e-05
8.2260563e-05
-3.5972495e-05
9.1201194e-05
-3.5746963e-05
0.00010007929
-3.549709e-05
0.00010888881
-3.5223102e-05
0.00011762378
-3.4925245e-05
0.0001262783
-3.4603785e-05
0.00013484652
-3.4259008e-05
0.00014332271
-3.3891223e-05
0.00015170117
-3.3500756e-05
0.00015997631
-3.3087952e-05
0.00016814265
-3.2653177e-05
0.00017619478
-3.2196812e-05
0.00018412739
-3.1719258e-05
0.00019193529
-3.1220933e-05
0.00019961339
-3.0702269e-05
0.00020715672
-3.0163718e-05
0.00021456041
-2.9605743e-05
0.00022181974
-2.9028824e-05
0.00022893007
-2.8433454e-05
0.00023588693
-2.7820141e-05
0.00024268595
-2.7189404e-05
0.00024932292
-2.6541775e-05
0.00025579374
-2.5877796e-05
0.00026209446
-2.5198021e-05
0.00026822127
-2.4503012e-05
0.00027417051
-2.3793343e-05
0.00027993866
-2.3069595e-05
0.00028552234
-2.2332355e-05
0.00029091834
-2.158222e-05
0.00029612358
-2.0819792e-05
0.00030113513
-2.0045678e-05
0.00030595024
-1.926049e-05
0.00031056628
-1.8464845e-05
0.00031498081
-1.7659363e-05
0.00031919152
-1.6844667e-05
0.00032319627
-1.6021381e-05
0.00032699307
-1.5190132e-05
0.00033058008
-1.4351546e-05
0.00033395564
-1.350625e-05
0.00033711822
-1.265487e-05
0.00034006647
-1.1798031e-05
0.00034279917
-1.0936355e-05
0.00034531529
-1.0070464e-05
0.00034761392
-9.2009726e-06
0.00034969433
-8.328496e-06
0.00035155592
-7.4536425e-06
0.00035319825
-6.5770163e-06
0.00035462105
-5.6992161e-06
0.00035582416
-4.8208345e-06
0.00035680759
-3.9424577e-06
0.0003575715
-3.0646652e-06
0.00035811619
-2.1880289e-06
0.00035844207
-1.3131128e-06
0.00035854974
-4.4047275e-07
0.00035843991
4.2934408e-07
0.00035811341
1.2958e-06
0.00035757123
2.1583665e-06
0.00035681448
3.016524e-06
0.00035584439
3.8697636e-06
0.00035466232
4.7175866e-06
0.00035326975
5.5595051e-06
0.0003516683
6.3950419e-06
0.00034985966
7.2237308e-06
0.00034784568
8.0451171e-06
0.0003456283
8.8587573e-06
0.00034320957
9.6642195e-06
0.00034059164
1.0461084e-05
0.00033777678
1.1248941e-05
0.00033476733
1.2027396e-05
0.00033156575
1.2796062e-05
0.00032817458
1.3554569e-05
0.00032459647
1.4302555e-05
0.00032083412
1.5039672e-05
0.00031689036
1.5765584e-05
0.00031276806
1.6479964e-05
0.00030847019
1.7182501e-05
0.00030399979
1.7872894e-05
0.00029935998
1.8550853e-05
0.00029455393
1.92161e-05
0.00028958489
1.9868369e-05
0.00028445618
2.0507405e-05
0.00027917116
2.1132962e-05
0.00027373327
2.1744809e-05
0.00026814599
2.2342722e-05
0.00026241287
2.2926489e-05
0.00025653749
2.3495909e-05
0.00025052348
2.4050789e-05
0.00024437453
2.4590947e-05
0.00023809436
2.511621e-05
0.00023168674
2.5626415e-05
0.00022515548
2.6121408e-05
0.0002185044
2.6601043e-05
0.00021173739
2.7065182e-05
0.00020485835
2.7513696e-05
0.00019787122
2.7946463e-05
0.00019077996
2.836337e-05
0.00018358856
2.8764311e-05
0.00017630103
2.9149185e-05
0.00016892142
2.9517899e-05
0.00016145378
2.9870367e-05
0.0001539022
3.0206508e-05
0.00014627076
3.0526249e-05
0.00013856359
3.0829519e-05
0.00013078482
3.1116255e-05
0.00012293858
3.1386398e-05
0.00011502904
3.1639895e-05
0.00010706037
3.1876697e-05
9.9036751e-05
3.2096757e-05