/*--------------------------------*- C++ -*----------------------------------*\
| =========                 |                                                 |
| \\      /  F ield         | OpenFOAM: The Open Source CFD Toolbox           |
|  \\    /   O peration     | Version:  2106                                  |
|   \\  /    A nd           | Website:  www.openfoam.com                      |
|    \\/     M anipulation  |                                                 |
\*---------------------------------------------------------------------------*/
FoamFile
{
    version     2.0;
    format      ascii;
    arch        "LSB;label=32;scalar=64";
    class       volVectorField;
    location    "0.017";
    object      U;
}
// * * * * * * * * * * * * * * * * * * * * * * * * * * * * * * * * * * * * * //

dimensions      [0 1 -1 0 0 0 0];

internalField   nonuniform List<vector> 
65536
(
(-0.0010695617 0.0010694342 0)
(-0.0032081405 0.0010688895 0)
(-0.0053450852 0.0010678002 0)
(-0.0074793069 0.0010661664 0)
(-0.009609717 0.0010639884 0)
(-0.011735227 0.0010612666 0)
(-0.013854751 0.0010580014 0)
(-0.015967202 0.0010541933 0)
(-0.018071494 0.0010498431 0)
(-0.020166545 0.0010449514 0)
(-0.022251272 0.001039519 0)
(-0.024324595 0.001033547 0)
(-0.026385435 0.0010270364 0)
(-0.028432717 0.0010199884 0)
(-0.030465368 0.0010124044 0)
(-0.032482316 0.0010042857 0)
(-0.034482494 0.00099563403 0)
(-0.036464838 0.0009864511 0)
(-0.038428286 0.00097673879 0)
(-0.040371783 0.00096649919 0)
(-0.042294276 0.00095573452 0)
(-0.044194717 0.0009444472 0)
(-0.046072063 0.00093263984 0)
(-0.047925278 0.00092031522 0)
(-0.049753328 0.00090747635 0)
(-0.05155519 0.00089412646 0)
(-0.053329844 0.00088026899 0)
(-0.055076279 0.0008659076 0)
(-0.05679349 0.00085104622 0)
(-0.058480482 0.00083568902 0)
(-0.060136268 0.00081984041 0)
(-0.061759869 0.0008035051 0)
(-0.063350316 0.00078668807 0)
(-0.064906652 0.00076939456 0)
(-0.066427928 0.00075163015 0)
(-0.067913209 0.00073340068 0)
(-0.06936157 0.00071471233 0)
(-0.070772101 0.0006955716 0)
(-0.072143902 0.00067598529 0)
(-0.07347609 0.00065596057 0)
(-0.074767795 0.00063550492 0)
(-0.076018163 0.00061462619 0)
(-0.077226355 0.00059333256 0)
(-0.078391551 0.0005716326 0)
(-0.079512946 0.00054953522 0)
(-0.080589754 0.00052704971 0)
(-0.081621209 0.00050418571 0)
(-0.082606563 0.00048095326 0)
(-0.08354509 0.00045736278 0)
(-0.084436084 0.00043342504 0)
(-0.085278862 0.00040915122 0)
(-0.086072762 0.00038455288 0)
(-0.086817147 0.00035964195 0)
(-0.087511405 0.00033443075 0)
(-0.088154946 0.00030893198 0)
(-0.088747209 0.00028315872 0)
(-0.089287658 0.00025712441 0)
(-0.089775784 0.00023084289 0)
(-0.090211107 0.00020432836 0)
(-0.090593176 0.00017759537 0)
(-0.090921567 0.00015065884 0)
(-0.091195888 0.00012353405 0)
(-0.09141578 9.6236601e-05 0)
(-0.091580911 6.8782369e-05 0)
(-0.091690986 4.1187211e-05 0)
(-0.091745735 1.3469728e-05 0)
(-0.091744936 -1.4355727e-05 0)
(-0.091688385 -4.22707e-05 0)
(-0.091575923 -7.0257862e-05 0)
(-0.091407422 -9.8299434e-05 0)
(-0.091182792 -0.00012637738 0)
(-0.090901978 -0.00015447341 0)
(-0.090564961 -0.00018256901 0)
(-0.090171762 -0.00021064543 0)
(-0.089722437 -0.00023868372 0)
(-0.089217082 -0.00026666475 0)
(-0.08865583 -0.0002945692 0)
(-0.088038854 -0.00032237762 0)
(-0.087366365 -0.00035007039 0)
(-0.086638615 -0.00037762781 0)
(-0.085855894 -0.00040503003 0)
(-0.085018531 -0.00043225716 0)
(-0.084126897 -0.00045928924 0)
(-0.083181402 -0.00048610626 0)
(-0.082182497 -0.0005126882 0)
(-0.08113067 -0.00053901502 0)
(-0.080026453 -0.00056506673 0)
(-0.078870416 -0.00059082336 0)
(-0.077663168 -0.00061626503 0)
(-0.07640536 -0.00064137192 0)
(-0.075097681 -0.00066612435 0)
(-0.073740858 -0.00069050275 0)
(-0.072335661 -0.00071448772 0)
(-0.070882894 -0.00073806002 0)
(-0.069383403 -0.00076120064 0)
(-0.06783807 -0.00078389077 0)
(-0.066247814 -0.00080611186 0)
(-0.064613592 -0.00082784562 0)
(-0.062936396 -0.00084907408 0)
(-0.061217256 -0.00086977956 0)
(-0.059457234 -0.00088994472 0)
(-0.057657429 -0.0009095526 0)
(-0.055818972 -0.0009285866 0)
(-0.053943026 -0.00094703054 0)
(-0.052030789 -0.00096486866 0)
(-0.050083487 -0.00098208566 0)
(-0.048102378 -0.00099866668 0)
(-0.046088748 -0.0010145974 0)
(-0.044043913 -0.0010298639 0)
(-0.041969213 -0.0010444529 0)
(-0.039866018 -0.0010583517 0)
(-0.03773572 -0.0010715479 0)
(-0.035579737 -0.0010840301 0)
(-0.033399508 -0.001095787 0)
(-0.031196494 -0.0011068084 0)
(-0.028972176 -0.0011170844 0)
(-0.026728055 -0.0011266058 0)
(-0.02446565 -0.0011353642 0)
(-0.022186494 -0.0011433516 0)
(-0.019892136 -0.0011505609 0)
(-0.017584141 -0.0011569857 0)
(-0.015264083 -0.0011626202 0)
(-0.012933548 -0.0011674592 0)
(-0.010594133 -0.0011714984 0)
(-0.0082474401 -0.0011747342 0)
(-0.0058950808 -0.0011771636 0)
(-0.0035386701 -0.0011787844 0)
(-0.001179827 -0.0011795952 0)
(0.001179827 -0.0011795952 0)
(0.00353867 -0.0011787844 0)
(0.0058950808 -0.0011771636 0)
(0.0082474401 -0.0011747342 0)
(0.010594133 -0.0011714984 0)
(0.012933548 -0.0011674592 0)
(0.015264083 -0.0011626202 0)
(0.017584141 -0.0011569857 0)
(0.019892136 -0.0011505609 0)
(0.022186494 -0.0011433516 0)
(0.02446565 -0.0011353642 0)
(0.026728055 -0.0011266058 0)
(0.028972176 -0.0011170844 0)
(0.031196494 -0.0011068084 0)
(0.033399508 -0.001095787 0)
(0.035579737 -0.0010840301 0)
(0.03773572 -0.0010715479 0)
(0.039866018 -0.0010583517 0)
(0.041969213 -0.0010444529 0)
(0.044043913 -0.0010298639 0)
(0.046088748 -0.0010145974 0)
(0.048102378 -0.00099866668 0)
(0.050083487 -0.00098208566 0)
(0.052030789 -0.00096486866 0)
(0.053943026 -0.00094703054 0)
(0.055818972 -0.0009285866 0)
(0.057657429 -0.0009095526 0)
(0.059457234 -0.00088994472 0)
(0.061217256 -0.00086977956 0)
(0.062936396 -0.00084907408 0)
(0.064613592 -0.00082784562 0)
(0.066247814 -0.00080611186 0)
(0.06783807 -0.00078389077 0)
(0.069383403 -0.00076120064 0)
(0.070882894 -0.00073806002 0)
(0.072335661 -0.00071448772 0)
(0.073740858 -0.00069050275 0)
(0.075097681 -0.00066612435 0)
(0.07640536 -0.00064137192 0)
(0.077663168 -0.00061626503 0)
(0.078870416 -0.00059082336 0)
(0.080026453 -0.00056506673 0)
(0.08113067 -0.00053901502 0)
(0.082182497 -0.0005126882 0)
(0.083181402 -0.00048610626 0)
(0.084126897 -0.00045928924 0)
(0.085018531 -0.00043225716 0)
(0.085855894 -0.00040503003 0)
(0.086638615 -0.0003776278 0)
(0.087366365 -0.00035007039 0)
(0.088038854 -0.00032237762 0)
(0.08865583 -0.0002945692 0)
(0.089217082 -0.00026666475 0)
(0.089722437 -0.00023868372 0)
(0.090171762 -0.00021064543 0)
(0.090564961 -0.00018256901 0)
(0.090901978 -0.00015447341 0)
(0.091182792 -0.00012637738 0)
(0.091407422 -9.8299434e-05 0)
(0.091575923 -7.0257862e-05 0)
(0.091688385 -4.2270699e-05 0)
(0.091744936 -1.4355727e-05 0)
(0.091745735 1.3469728e-05 0)
(0.091690986 4.1187211e-05 0)
(0.091580911 6.8782369e-05 0)
(0.09141578 9.6236602e-05 0)
(0.091195888 0.00012353405 0)
(0.090921567 0.00015065884 0)
(0.090593176 0.00017759537 0)
(0.090211107 0.00020432836 0)
(0.089775784 0.00023084289 0)
(0.089287658 0.00025712441 0)
(0.088747209 0.00028315872 0)
(0.088154946 0.00030893198 0)
(0.087511405 0.00033443075 0)
(0.086817147 0.00035964195 0)
(0.086072762 0.00038455288 0)
(0.085278862 0.00040915122 0)
(0.084436084 0.00043342504 0)
(0.08354509 0.00045736278 0)
(0.082606563 0.00048095326 0)
(0.081621209 0.00050418571 0)
(0.080589754 0.00052704971 0)
(0.079512946 0.00054953522 0)
(0.078391551 0.0005716326 0)
(0.077226355 0.00059333256 0)
(0.076018163 0.00061462619 0)
(0.074767795 0.00063550492 0)
(0.07347609 0.00065596057 0)
(0.072143902 0.00067598529 0)
(0.070772101 0.0006955716 0)
(0.06936157 0.00071471233 0)
(0.067913209 0.00073340068 0)
(0.066427928 0.00075163015 0)
(0.064906652 0.00076939456 0)
(0.063350316 0.00078668807 0)
(0.061759869 0.0008035051 0)
(0.060136268 0.00081984041 0)
(0.058480482 0.00083568902 0)
(0.05679349 0.00085104622 0)
(0.055076279 0.0008659076 0)
(0.053329844 0.00088026899 0)
(0.05155519 0.00089412646 0)
(0.049753328 0.00090747635 0)
(0.047925278 0.00092031522 0)
(0.046072063 0.00093263984 0)
(0.044194717 0.0009444472 0)
(0.042294276 0.00095573452 0)
(0.040371783 0.00096649919 0)
(0.038428286 0.00097673879 0)
(0.036464838 0.0009864511 0)
(0.034482494 0.00099563403 0)
(0.032482316 0.0010042857 0)
(0.030465368 0.0010124044 0)
(0.028432717 0.0010199884 0)
(0.026385435 0.0010270364 0)
(0.024324595 0.001033547 0)
(0.022251272 0.001039519 0)
(0.020166545 0.0010449514 0)
(0.018071494 0.0010498431 0)
(0.015967202 0.0010541933 0)
(0.013854751 0.0010580014 0)
(0.011735227 0.0010612666 0)
(0.009609717 0.0010639884 0)
(0.0074793069 0.0010661664 0)
(0.0053450852 0.0010678002 0)
(0.0032081405 0.0010688895 0)
(0.0010695617 0.0010694342 0)
(-0.0010696856 0.0032083959 0)
(-0.0032085123 0.0032067619 0)
(-0.0053457055 0.0032034941 0)
(-0.0074801765 0.0031985931 0)
(-0.009610837 0.0031920597 0)
(-0.011736599 0.003183895 0)
(-0.013856377 0.0031741001 0)
(-0.015969083 0.0031626769 0)
(-0.018073634 0.0031496272 0)
(-0.020168946 0.0031349531 0)
(-0.022253937 0.0031186574 0)
(-0.024327527 0.0031007427 0)
(-0.026388638 0.0030812124 0)
(-0.028436195 0.00306007 0)
(-0.030469124 0.0030373195 0)
(-0.032486355 0.0030129653 0)
(-0.03448682 0.0029870121 0)
(-0.036469456 0.0029594651 0)
(-0.038433201 0.0029303302 0)
(-0.040376999 0.0028996133 0)
(-0.042299798 0.0028673213 0)
(-0.04420055 0.0028334614 0)
(-0.046078212 0.0027980414 0)
(-0.047931747 0.0027610696 0)
(-0.049760124 0.0027225551 0)
(-0.051562317 0.0026825075 0)
(-0.053337307 0.0026409371 0)
(-0.055084083 0.002597855 0)
(-0.056801641 0.0025532728 0)
(-0.058488984 0.0025072031 0)
(-0.060145125 0.0024596591 0)
(-0.061769085 0.002410655 0)
(-0.063359897 0.0023602056 0)
(-0.0649166 0.0023083267 0)
(-0.066438248 0.0022550349 0)
(-0.067923904 0.0022003479 0)
(-0.069372643 0.0021442842 0)
(-0.070783555 0.0020868631 0)
(-0.072155739 0.0020281052 0)
(-0.073488313 0.0019680318 0)
(-0.074780405 0.0019066656 0)
(-0.076031161 0.0018440299 0)
(-0.077239742 0.0017801493 0)
(-0.078405328 0.0017150496 0)
(-0.079527112 0.0016487574 0)
(-0.080604309 0.0015813006 0)
(-0.081636151 0.0015127081 0)
(-0.082621891 0.0014430101 0)
(-0.083560801 0.0013722377 0)
(-0.084452175 0.0013004234 0)
(-0.08529533 0.0012276006 0)
(-0.086089603 0.001153804 0)
(-0.086834357 0.0010790693 0)
(-0.087528977 0.0010034336 0)
(-0.088172876 0.00092693498 0)
(-0.088765489 0.00084961259 0)
(-0.089306282 0.00077150683 0)
(-0.089794743 0.00069265918 0)
(-0.090230394 0.00061311223 0)
(-0.09061278 0.00053290965 0)
(-0.090941479 0.0004520962 0)
(-0.091216099 0.0003707177 0)
(-0.091436277 0.00028882098 0)
(-0.091601683 0.00020645384 0)
(-0.09171202 0.00012366484 0)
(-0.091767022 4.0504675e-05 0)
(-0.091766458 -4.2976139e-05 0)
(-0.091710129 -0.00012672652 0)
(-0.091597875 -0.00021069379 0)
(-0.091429566 -0.00029482455 0)
(-0.091205112 -0.00037906465 0)
(-0.090924458 -0.00046335924 0)
(-0.090587584 -0.00054765274 0)
(-0.09019451 -0.0006318889 0)
(-0.089745293 -0.00071601088 0)
(-0.089240026 -0.00079996125 0)
(-0.088678845 -0.00088368209 0)
(-0.088061919 -0.00096711497 0)
(-0.087389462 -0.0010502011 0)
(-0.086661722 -0.0011328813 0)
(-0.085878991 -0.001215096 0)
(-0.085041597 -0.0012967856 0)
(-0.084149912 -0.0013778902 0)
(-0.083204344 -0.0014583496 0)
(-0.082205343 -0.001538104 0)
(-0.0811534 -0.001617093 0)
(-0.080049045 -0.0016952568 0)
(-0.078892846 -0.0017725354 0)
(-0.077685415 -0.0018488692 0)
(-0.076427402 -0.0019241986 0)
(-0.075119494 -0.0019984647 0)
(-0.073762421 -0.0020716087 0)
(-0.072356951 -0.0021435724 0)
(-0.070903889 -0.002214298 0)
(-0.069404081 -0.0022837286 0)
(-0.067858408 -0.0023518076 0)
(-0.06626779 -0.0024184794 0)
(-0.064633184 -0.0024836892 0)
(-0.062955584 -0.002547383 0)
(-0.061236018 -0.0026095077 0)
(-0.059475549 -0.0026700113 0)
(-0.057675276 -0.0027288429 0)
(-0.055836331 -0.0027859528 0)
(-0.053959879 -0.0028412923 0)
(-0.052047115 -0.0028948141 0)
(-0.050099267 -0.0029464724 0)
(-0.048117594 -0.0029962225 0)
(-0.046103383 -0.0030440215 0)
(-0.044057949 -0.0030898276 0)
(-0.041982634 -0.003133601 0)
(-0.039878808 -0.0031753034 0)
(-0.037747864 -0.003214898 0)
(-0.03559122 -0.0032523499 0)
(-0.033410317 -0.0032876261 0)
(-0.031206615 -0.0033206952 0)
(-0.028981598 -0.0033515277 0)
(-0.026736767 -0.0033800963 0)
(-0.024473639 -0.0034063753 0)
(-0.022193752 -0.0034303413 0)
(-0.019898655 -0.0034519727 0)
(-0.017589911 -0.00347125 0)
(-0.015269098 -0.0034881559 0)
(-0.012937802 -0.0035026752 0)
(-0.010597621 -0.0035147947 0)
(-0.0082501574 -0.0035245035 0)
(-0.0058970241 -0.0035317928 0)
(-0.003539837 -0.003536656 0)
(-0.0011802162 -0.0035390887 0)
(0.0011802162 -0.0035390887 0)
(0.003539837 -0.003536656 0)
(0.0058970241 -0.0035317928 0)
(0.0082501574 -0.0035245035 0)
(0.010597621 -0.0035147947 0)
(0.012937802 -0.0035026752 0)
(0.015269098 -0.0034881559 0)
(0.017589911 -0.00347125 0)
(0.019898655 -0.0034519727 0)
(0.022193752 -0.0034303413 0)
(0.024473639 -0.0034063753 0)
(0.026736767 -0.0033800963 0)
(0.028981598 -0.0033515277 0)
(0.031206615 -0.0033206952 0)
(0.033410317 -0.0032876261 0)
(0.03559122 -0.0032523499 0)
(0.037747864 -0.003214898 0)
(0.039878808 -0.0031753034 0)
(0.041982634 -0.003133601 0)
(0.044057949 -0.0030898276 0)
(0.046103383 -0.0030440215 0)
(0.048117594 -0.0029962225 0)
(0.050099267 -0.0029464724 0)
(0.052047115 -0.0028948141 0)
(0.053959879 -0.0028412923 0)
(0.055836331 -0.0027859528 0)
(0.057675276 -0.0027288429 0)
(0.059475549 -0.0026700113 0)
(0.061236018 -0.0026095077 0)
(0.062955584 -0.002547383 0)
(0.064633184 -0.0024836892 0)
(0.06626779 -0.0024184794 0)
(0.067858408 -0.0023518076 0)
(0.069404081 -0.0022837286 0)
(0.070903889 -0.002214298 0)
(0.072356951 -0.0021435724 0)
(0.073762421 -0.0020716087 0)
(0.075119494 -0.0019984647 0)
(0.076427402 -0.0019241986 0)
(0.077685415 -0.0018488692 0)
(0.078892846 -0.0017725354 0)
(0.080049045 -0.0016952568 0)
(0.0811534 -0.001617093 0)
(0.082205343 -0.001538104 0)
(0.083204344 -0.0014583496 0)
(0.084149912 -0.0013778902 0)
(0.085041597 -0.0012967856 0)
(0.085878991 -0.001215096 0)
(0.086661722 -0.0011328813 0)
(0.087389462 -0.0010502011 0)
(0.088061919 -0.00096711497 0)
(0.088678845 -0.00088368208 0)
(0.089240026 -0.00079996125 0)
(0.089745293 -0.00071601088 0)
(0.09019451 -0.0006318889 0)
(0.090587584 -0.00054765273 0)
(0.090924458 -0.00046335924 0)
(0.091205112 -0.00037906465 0)
(0.091429566 -0.00029482455 0)
(0.091597875 -0.00021069379 0)
(0.091710129 -0.00012672652 0)
(0.091766458 -4.2976137e-05 0)
(0.091767022 4.0504677e-05 0)
(0.09171202 0.00012366484 0)
(0.091601683 0.00020645385 0)
(0.091436277 0.00028882098 0)
(0.091216099 0.0003707177 0)
(0.090941479 0.0004520962 0)
(0.09061278 0.00053290965 0)
(0.090230394 0.00061311223 0)
(0.089794743 0.00069265918 0)
(0.089306282 0.00077150684 0)
(0.088765489 0.00084961259 0)
(0.088172876 0.00092693498 0)
(0.087528977 0.0010034336 0)
(0.086834357 0.0010790693 0)
(0.086089603 0.001153804 0)
(0.08529533 0.0012276006 0)
(0.084452175 0.0013004234 0)
(0.083560801 0.0013722377 0)
(0.082621891 0.0014430101 0)
(0.081636151 0.0015127081 0)
(0.080604309 0.0015813006 0)
(0.079527112 0.0016487574 0)
(0.078405328 0.0017150496 0)
(0.077239742 0.0017801493 0)
(0.076031161 0.0018440299 0)
(0.074780405 0.0019066656 0)
(0.073488313 0.0019680318 0)
(0.072155739 0.0020281052 0)
(0.070783555 0.0020868631 0)
(0.069372643 0.0021442842 0)
(0.067923904 0.0022003479 0)
(0.066438248 0.0022550349 0)
(0.0649166 0.0023083267 0)
(0.063359897 0.0023602056 0)
(0.061769085 0.002410655 0)
(0.060145125 0.0024596591 0)
(0.058488984 0.0025072031 0)
(0.056801641 0.0025532728 0)
(0.055084083 0.002597855 0)
(0.053337307 0.0026409371 0)
(0.051562317 0.0026825075 0)
(0.049760124 0.0027225551 0)
(0.047931747 0.0027610696 0)
(0.046078212 0.0027980414 0)
(0.04420055 0.0028334614 0)
(0.042299798 0.0028673213 0)
(0.040376999 0.0028996133 0)
(0.038433201 0.0029303302 0)
(0.036469456 0.0029594651 0)
(0.03448682 0.0029870121 0)
(0.032486355 0.0030129653 0)
(0.030469124 0.0030373195 0)
(0.028436195 0.00306007 0)
(0.026388638 0.0030812124 0)
(0.024327527 0.0031007427 0)
(0.022253937 0.0031186574 0)
(0.020168946 0.0031349531 0)
(0.018073634 0.0031496272 0)
(0.015969083 0.0031626769 0)
(0.013856377 0.0031741001 0)
(0.011736599 0.003183895 0)
(0.009610837 0.0031920597 0)
(0.0074801765 0.0031985931 0)
(0.0053457055 0.0032034941 0)
(0.0032085123 0.0032067619 0)
(0.0010696856 0.0032083959 0)
(-0.0010696557 0.0053475093 0)
(-0.0032084231 0.0053447866 0)
(-0.0053455581 0.0053393416 0)
(-0.0074799728 0.0053311751 0)
(-0.0096105796 0.0053202886 0)
(-0.011736292 0.0053066837 0)
(-0.013856023 0.0052903626 0)
(-0.015968688 0.0052713281 0)
(-0.018073204 0.0052495833 0)
(-0.020168486 0.005225132 0)
(-0.022253455 0.0051979782 0)
(-0.02432703 0.0051681268 0)
(-0.026388135 0.0051355831 0)
(-0.028435695 0.0051003531 0)
(-0.030468636 0.0050624433 0)
(-0.032485889 0.005021861 0)
(-0.034486386 0.0049786141 0)
(-0.036469065 0.0049327114 0)
(-0.038432865 0.0048841622 0)
(-0.04037673 0.0048329769 0)
(-0.042299608 0.0047791665 0)
(-0.044200452 0.0047227431 0)
(-0.046078219 0.0046637197 0)
(-0.047931872 0.0046021102 0)
(-0.04976038 0.0045379295 0)
(-0.051562718 0.0044711938 0)
(-0.053337867 0.0044019201 0)
(-0.055084815 0.0043301267 0)
(-0.056802559 0.0042558332 0)
(-0.058490102 0.0041790604 0)
(-0.060146458 0.0040998303 0)
(-0.061770646 0.0040181664 0)
(-0.063361699 0.0039340935 0)
(-0.064918658 0.0038476378 0)
(-0.066440575 0.003758827 0)
(-0.067926512 0.0036676904 0)
(-0.069375546 0.0035742588 0)
(-0.070786764 0.0034785646 0)
(-0.072159268 0.0033806418 0)
(-0.073492172 0.0032805262 0)
(-0.074784606 0.0031782551 0)
(-0.076035715 0.0030738677 0)
(-0.077244659 0.0029674049 0)
(-0.078410616 0.0028589095 0)
(-0.079532782 0.002748426 0)
(-0.080610368 0.0026360007 0)
(-0.081642608 0.0025216819 0)
(-0.082628752 0.0024055197 0)
(-0.083568073 0.0022875662 0)
(-0.084459864 0.0021678752 0)
(-0.085303439 0.0020465026 0)
(-0.086098137 0.0019235061 0)
(-0.086843318 0.0017989453 0)
(-0.087538368 0.0016728819 0)
(-0.088182698 0.0015453793 0)
(-0.088775744 0.0014165029 0)
(-0.089316967 0.0012863199 0)
(-0.089805859 0.0011548995 0)
(-0.090241937 0.0010223127 0)
(-0.090624748 0.00088863214 0)
(-0.090953868 0.00075393253 0)
(-0.091228902 0.0006182902 0)
(-0.09144949 0.00048178322 0)
(-0.091615298 0.0003444913 0)
(-0.09172603 0.0002064958 0)
(-0.091781417 6.7880232e-05 0)
(-0.091781228 -7.1270985e-05 0)
(-0.091725265 -0.00021087208 0)
(-0.091613364 -0.00035083547 0)
(-0.091445396 -0.00049107221 0)
(-0.09122127 -0.00063149206 0)
(-0.090940929 -0.00077200356 0)
(-0.090604353 -0.00091251405 0)
(-0.090211561 -0.0010529298 0)
(-0.089762609 -0.001193156 0)
(-0.089257591 -0.0013330969 0)
(-0.088696639 -0.0014726559 0)
(-0.088079925 -0.0016117357 0)
(-0.087407658 -0.0017502381 0)
(-0.086680089 -0.0018880646 0)
(-0.085897508 -0.0020251159 0)
(-0.085060243 -0.0021612925 0)
(-0.084168664 -0.0022964945 0)
(-0.083223179 -0.0024306219 0)
(-0.082224239 -0.0025635743 0)
(-0.081172333 -0.0026952516 0)
(-0.080067991 -0.0028255538 0)
(-0.078911781 -0.002954381 0)
(-0.077704315 -0.0030816336 0)
(-0.07644624 -0.0032072126 0)
(-0.075138247 -0.0033310193 0)
(-0.073781063 -0.003452956 0)
(-0.072375457 -0.0035729254 0)
(-0.070922233 -0.0036908315 0)
(-0.069422237 -0.0038065789 0)
(-0.067876352 -0.0039200737 0)
(-0.066285496 -0.004031223 0)
(-0.064650628 -0.0041399352 0)
(-0.062972739 -0.0042461204 0)
(-0.06125286 -0.0043496902 0)
(-0.059492054 -0.0044505577 0)
(-0.057691419 -0.0045486382 0)
(-0.055852089 -0.0046438484 0)
(-0.053975227 -0.0047361075 0)
(-0.052062031 -0.0048253366 0)
(-0.050113729 -0.0049114591 0)
(-0.04813158 -0.0049944006 0)
(-0.046116871 -0.0050740894 0)
(-0.044070919 -0.005150456 0)
(-0.041995067 -0.0052234339 0)
(-0.039890684 -0.0052929592 0)
(-0.037759164 -0.0053589705 0)
(-0.035601927 -0.0054214098 0)
(-0.033420414 -0.0054802218 0)
(-0.031216087 -0.0055353543 0)
(-0.02899043 -0.0055867581 0)
(-0.026744944 -0.0056343875 0)
(-0.02448115 -0.0056781999 0)
(-0.022200584 -0.0057181559 0)
(-0.019904797 -0.0057542198 0)
(-0.017595354 -0.005786359 0)
(-0.015273833 -0.0058145447 0)
(-0.012941822 -0.0058387513 0)
(-0.010600918 -0.005858957 0)
(-0.0082527274 -0.0058751436 0)
(-0.0058988627 -0.0058872964 0)
(-0.0035409413 -0.0058954044 0)
(-0.0011805845 -0.0058994602 0)
(0.0011805845 -0.0058994602 0)
(0.0035409413 -0.0058954044 0)
(0.0058988627 -0.0058872964 0)
(0.0082527274 -0.0058751436 0)
(0.010600918 -0.005858957 0)
(0.012941822 -0.0058387513 0)
(0.015273833 -0.0058145447 0)
(0.017595354 -0.005786359 0)
(0.019904797 -0.0057542198 0)
(0.022200584 -0.0057181559 0)
(0.02448115 -0.0056781999 0)
(0.026744944 -0.0056343875 0)
(0.02899043 -0.0055867581 0)
(0.031216087 -0.0055353543 0)
(0.033420414 -0.0054802218 0)
(0.035601927 -0.0054214098 0)
(0.037759164 -0.0053589705 0)
(0.039890684 -0.0052929592 0)
(0.041995067 -0.0052234339 0)
(0.044070919 -0.005150456 0)
(0.046116871 -0.0050740894 0)
(0.04813158 -0.0049944006 0)
(0.050113729 -0.0049114591 0)
(0.052062031 -0.0048253366 0)
(0.053975227 -0.0047361075 0)
(0.055852089 -0.0046438484 0)
(0.057691419 -0.0045486382 0)
(0.059492054 -0.0044505577 0)
(0.06125286 -0.0043496902 0)
(0.062972739 -0.0042461204 0)
(0.064650628 -0.0041399352 0)
(0.066285496 -0.004031223 0)
(0.067876352 -0.0039200737 0)
(0.069422237 -0.0038065789 0)
(0.070922233 -0.0036908315 0)
(0.072375457 -0.0035729254 0)
(0.073781063 -0.003452956 0)
(0.075138247 -0.0033310193 0)
(0.07644624 -0.0032072126 0)
(0.077704315 -0.0030816336 0)
(0.078911781 -0.002954381 0)
(0.080067991 -0.0028255538 0)
(0.081172333 -0.0026952516 0)
(0.082224239 -0.0025635743 0)
(0.083223179 -0.0024306219 0)
(0.084168664 -0.0022964945 0)
(0.085060243 -0.0021612925 0)
(0.085897508 -0.0020251159 0)
(0.086680089 -0.0018880646 0)
(0.087407658 -0.0017502381 0)
(0.088079925 -0.0016117356 0)
(0.088696639 -0.0014726559 0)
(0.089257591 -0.0013330968 0)
(0.089762609 -0.0011931559 0)
(0.090211561 -0.0010529298 0)
(0.090604353 -0.00091251405 0)
(0.090940929 -0.00077200356 0)
(0.09122127 -0.00063149206 0)
(0.091445396 -0.0004910722 0)
(0.091613364 -0.00035083547 0)
(0.091725265 -0.00021087207 0)
(0.091781228 -7.1270983e-05 0)
(0.091781417 6.7880234e-05 0)
(0.09172603 0.0002064958 0)
(0.091615298 0.0003444913 0)
(0.09144949 0.00048178322 0)
(0.091228902 0.0006182902 0)
(0.090953868 0.00075393254 0)
(0.090624748 0.00088863214 0)
(0.090241937 0.0010223127 0)
(0.089805859 0.0011548995 0)
(0.089316967 0.0012863199 0)
(0.088775744 0.0014165029 0)
(0.088182698 0.0015453793 0)
(0.087538368 0.0016728819 0)
(0.086843318 0.0017989453 0)
(0.086098137 0.0019235061 0)
(0.085303439 0.0020465026 0)
(0.084459864 0.0021678752 0)
(0.083568073 0.0022875662 0)
(0.082628752 0.0024055197 0)
(0.081642608 0.0025216819 0)
(0.080610368 0.0026360007 0)
(0.079532782 0.002748426 0)
(0.078410616 0.0028589095 0)
(0.077244659 0.0029674049 0)
(0.076035715 0.0030738677 0)
(0.074784606 0.0031782551 0)
(0.073492172 0.0032805262 0)
(0.072159268 0.0033806418 0)
(0.070786764 0.0034785646 0)
(0.069375546 0.0035742588 0)
(0.067926512 0.0036676904 0)
(0.066440575 0.003758827 0)
(0.064918658 0.0038476378 0)
(0.063361699 0.0039340935 0)
(0.061770646 0.0040181664 0)
(0.060146458 0.0040998303 0)
(0.058490102 0.0041790604 0)
(0.056802559 0.0042558332 0)
(0.055084815 0.0043301267 0)
(0.053337867 0.0044019201 0)
(0.051562718 0.0044711938 0)
(0.04976038 0.0045379295 0)
(0.047931872 0.0046021102 0)
(0.046078219 0.0046637197 0)
(0.044200452 0.0047227431 0)
(0.042299608 0.0047791665 0)
(0.04037673 0.0048329769 0)
(0.038432865 0.0048841622 0)
(0.036469065 0.0049327114 0)
(0.034486386 0.0049786141 0)
(0.032485889 0.005021861 0)
(0.030468636 0.0050624433 0)
(0.028435695 0.0051003531 0)
(0.026388135 0.0051355831 0)
(0.02432703 0.0051681268 0)
(0.022253455 0.0051979782 0)
(0.020168486 0.005225132 0)
(0.018073204 0.0052495833 0)
(0.015968688 0.0052713281 0)
(0.013856023 0.0052903626 0)
(0.011736292 0.0053066837 0)
(0.0096105796 0.0053202886 0)
(0.0074799728 0.0053311751 0)
(0.0053455581 0.0053393416 0)
(0.0032084231 0.0053447866 0)
(0.0010696557 0.0053475093 0)
(-0.0010694684 0.0074864414 0)
(-0.0032078616 0.007482631 0)
(-0.0053446242 0.0074750106 0)
(-0.0074786696 0.0074635816 0)
(-0.0096089114 0.0074483458 0)
(-0.011734264 0.0074293055 0)
(-0.013853642 0.007406464 0)
(-0.015965962 0.0073798248 0)
(-0.01807014 0.0073493925 0)
(-0.020165096 0.0073151721 0)
(-0.022249749 0.0072771696 0)
(-0.024323021 0.0072353915 0)
(-0.026383835 0.0071898453 0)
(-0.028431118 0.0071405392 0)
(-0.030463797 0.0070874825 0)
(-0.032480804 0.0070306852 0)
(-0.034481073 0.0069701583 0)
(-0.036463541 0.0069059141 0)
(-0.038427148 0.0068379656 0)
(-0.040370839 0.0067663271 0)
(-0.042293562 0.0066910143 0)
(-0.044194272 0.0066120438 0)
(-0.046071926 0.0065294338 0)
(-0.047925488 0.0064432036 0)
(-0.049753926 0.0063533742 0)
(-0.051556217 0.0062599679 0)
(-0.053331341 0.0061630086 0)
(-0.055078287 0.006062522 0)
(-0.056796053 0.0059585353 0)
(-0.05848364 0.0058510775 0)
(-0.060140064 0.0057401794 0)
(-0.061764343 0.0056258737 0)
(-0.063355511 0.0055081951 0)
(-0.064912608 0.0053871804 0)
(-0.066434685 0.0052628681 0)
(-0.067920807 0.0051352992 0)
(-0.069370047 0.0050045167 0)
(-0.070781494 0.0048705659 0)
(-0.072154248 0.0047334943 0)
(-0.073487424 0.004593352 0)
(-0.074780151 0.0044501912 0)
(-0.076031573 0.0043040667 0)
(-0.07724085 0.0041550356 0)
(-0.07840716 0.0040031578 0)
(-0.079529696 0.0038484955 0)
(-0.08060767 0.0036911135 0)
(-0.081640315 0.0035310795 0)
(-0.08262688 0.0033684634 0)
(-0.083566636 0.0032033381 0)
(-0.084458876 0.003035779 0)
(-0.085302914 0.0028658642 0)
(-0.086098086 0.0026936744 0)
(-0.086843753 0.0025192933 0)
(-0.087539299 0.0023428069 0)
(-0.088184133 0.002164304 0)
(-0.088777691 0.0019838762 0)
(-0.089319433 0.0018016177 0)
(-0.089808848 0.0016176251 0)
(-0.090245454 0.0014319978 0)
(-0.090628795 0.0012448377 0)
(-0.090958447 0.0010562492 0)
(-0.091234014 0.00086633924 0)
(-0.091455133 0.0006752171 0)
(-0.091621472 0.00048299445 0)
(-0.091732729 0.0002897853 0)
(-0.091788638 9.5706112e-05 0)
(-0.091788966 -9.9124767e-05 0)
(-0.091733511 -0.00029458695 0)
(-0.09162211 -0.0004905579 0)
(-0.091454634 -0.0006869131 0)
(-0.091230987 -0.00088352621 0)
(-0.090951114 -0.0010802691 0)
(-0.090614994 -0.0012770121 0)
(-0.090222644 -0.0014736239 0)
(-0.089774118 -0.0016699717 0)
(-0.089269509 -0.0018659214 0)
(-0.088708949 -0.0020613378 0)
(-0.088092608 -0.0022560846 0)
(-0.087420696 -0.0024500242 0)
(-0.086693461 -0.0026430187 0)
(-0.085911192 -0.002834929 0)
(-0.085074217 -0.0030256157 0)
(-0.084182906 -0.0032149389 0)
(-0.083237665 -0.0034027584 0)
(-0.082238945 -0.0035889339 0)
(-0.081187233 -0.003773325 0)
(-0.080083059 -0.0039557915 0)
(-0.078926992 -0.0041361935 0)
(-0.077719641 -0.0043143917 0)
(-0.076461656 -0.0044902472 0)
(-0.075153723 -0.0046636219 0)
(-0.073796573 -0.0048343787 0)
(-0.072390971 -0.0050023816 0)
(-0.070937724 -0.0051674958 0)
(-0.069437677 -0.0053295879 0)
(-0.06789171 -0.0054885262 0)
(-0.066300746 -0.0056441806 0)
(-0.064665739 -0.0057964229 0)
(-0.062987685 -0.0059451269 0)
(-0.061267611 -0.0060901689 0)
(-0.059506582 -0.0062314272 0)
(-0.057705697 -0.0063687829 0)
(-0.055866088 -0.0065021197 0)
(-0.053988921 -0.006631324 0)
(-0.052075394 -0.0067562854 0)
(-0.050126735 -0.0068768966 0)
(-0.048144203 -0.0069930534 0)
(-0.046129086 -0.0071046551 0)
(-0.044082702 -0.0072116047 0)
(-0.042006395 -0.0073138088 0)
(-0.039901535 -0.0074111777 0)
(-0.037769517 -0.0075036258 0)
(-0.035611761 -0.0075910714 0)
(-0.033429708 -0.0076734372 0)
(-0.031224824 -0.0077506501 0)
(-0.028998592 -0.0078226412 0)
(-0.026752516 -0.0078893463 0)
(-0.024488115 -0.0079507058 0)
(-0.022206929 -0.0080066646 0)
(-0.019910509 -0.0080571724 0)
(-0.017600421 -0.0081021837 0)
(-0.015278245 -0.0081416581 0)
(-0.01294557 -0.0081755599 0)
(-0.010603995 -0.0082038584 0)
(-0.0082551276 -0.008226528 0)
(-0.0059005806 -0.0082435482 0)
(-0.0035419735 -0.0082549036 0)
(-0.0011809287 -0.0082605838 0)
(0.0011809287 -0.0082605838 0)
(0.0035419735 -0.0082549036 0)
(0.0059005806 -0.0082435482 0)
(0.0082551275 -0.008226528 0)
(0.010603995 -0.0082038584 0)
(0.01294557 -0.0081755599 0)
(0.015278245 -0.0081416581 0)
(0.017600421 -0.0081021837 0)
(0.019910509 -0.0080571724 0)
(0.022206929 -0.0080066646 0)
(0.024488115 -0.0079507058 0)
(0.026752516 -0.0078893463 0)
(0.028998592 -0.0078226412 0)
(0.031224824 -0.0077506501 0)
(0.033429708 -0.0076734372 0)
(0.035611761 -0.0075910714 0)
(0.037769517 -0.0075036258 0)
(0.039901535 -0.0074111777 0)
(0.042006395 -0.0073138088 0)
(0.044082702 -0.0072116047 0)
(0.046129086 -0.0071046551 0)
(0.048144203 -0.0069930534 0)
(0.050126735 -0.0068768966 0)
(0.052075394 -0.0067562854 0)
(0.053988921 -0.006631324 0)
(0.055866088 -0.0065021197 0)
(0.057705697 -0.0063687829 0)
(0.059506582 -0.0062314272 0)
(0.061267611 -0.0060901689 0)
(0.062987685 -0.0059451269 0)
(0.064665739 -0.0057964229 0)
(0.066300746 -0.0056441806 0)
(0.06789171 -0.0054885262 0)
(0.069437677 -0.0053295879 0)
(0.070937724 -0.0051674958 0)
(0.072390971 -0.0050023816 0)
(0.073796573 -0.0048343787 0)
(0.075153723 -0.0046636219 0)
(0.076461656 -0.0044902472 0)
(0.077719641 -0.0043143917 0)
(0.078926992 -0.0041361935 0)
(0.080083059 -0.0039557915 0)
(0.081187233 -0.003773325 0)
(0.082238945 -0.0035889339 0)
(0.083237665 -0.0034027584 0)
(0.084182906 -0.0032149389 0)
(0.085074217 -0.0030256157 0)
(0.085911192 -0.002834929 0)
(0.086693461 -0.0026430187 0)
(0.087420696 -0.0024500242 0)
(0.088092608 -0.0022560846 0)
(0.088708949 -0.0020613378 0)
(0.089269509 -0.0018659214 0)
(0.089774118 -0.0016699717 0)
(0.090222644 -0.0014736239 0)
(0.090614994 -0.0012770121 0)
(0.090951114 -0.0010802691 0)
(0.091230987 -0.0008835262 0)
(0.091454634 -0.0006869131 0)
(0.09162211 -0.0004905579 0)
(0.091733511 -0.00029458695 0)
(0.091788966 -9.9124764e-05 0)
(0.091788638 9.5706115e-05 0)
(0.091732729 0.00028978531 0)
(0.091621472 0.00048299446 0)
(0.091455133 0.0006752171 0)
(0.091234014 0.00086633924 0)
(0.090958447 0.0010562492 0)