/*--------------------------------*- C++ -*----------------------------------*\
| =========                 |                                                 |
| \\      /  F ield         | OpenFOAM: The Open Source CFD Toolbox           |
|  \\    /   O peration     | Version:  2106                                  |
|   \\  /    A nd           | Website:  www.openfoam.com                      |
|    \\/     M anipulation  |                                                 |
\*---------------------------------------------------------------------------*/
FoamFile
{
    version     2.0;
    format      ascii;
    arch        "LSB;label=32;scalar=64";
    class       volVectorField;
    location    "0.017";
    object      U_0;
}
// * * * * * * * * * * * * * * * * * * * * * * * * * * * * * * * * * * * * * //

dimensions      [0 1 -1 0 0 0 0];

internalField   nonuniform List<vector> 
65536
(
(-0.0010710454 0.0010709175 0)
(-0.0032125905 0.0010703719 0)
(-0.0053524989 0.0010692808 0)
(-0.0074896799 0.0010676443 0)
(-0.0096230431 0.0010654628 0)
(-0.011751499 0.0010627366 0)
(-0.013873958 0.0010594661 0)
(-0.015989332 0.0010556518 0)
(-0.018096535 0.0010512945 0)
(-0.020194482 0.0010463949 0)
(-0.022282088 0.0010409538 0)
(-0.024358272 0.0010349722 0)
(-0.026421953 0.0010284511 0)
(-0.028472054 0.0010213918 0)
(-0.0305075 0.0010137956 0)
(-0.032527218 0.0010056639 0)
(-0.034530139 0.00099699841 0)
(-0.036515198 0.00098780083 0)
(-0.038481331 0.00097807308 0)
(-0.040427481 0.00096781723 0)
(-0.042352594 0.00095703553 0)
(-0.04425562 0.00094573039 0)
(-0.046135514 0.00093390444 0)
(-0.047991239 0.00092156047 0)
(-0.049821761 0.00090870152 0)
(-0.051626053 0.0008953308 0)
(-0.053403094 0.00088145177 0)
(-0.055151873 0.00086706812 0)
(-0.056871383 0.00085218377 0)
(-0.058560627 0.00083680292 0)
(-0.060218617 0.00082092999 0)
(-0.061844373 0.00080456971 0)
(-0.063436924 0.00078772705 0)
(-0.064995312 0.0007704073 0)
(-0.066518588 0.00075261602 0)
(-0.068005813 0.0007343591 0)
(-0.069456064 0.00071564272 0)
(-0.070868427 0.00069647339 0)
(-0.072242003 0.00067685793 0)
(-0.073575907 0.00065680354 0)
(-0.074869268 0.0006363177 0)
(-0.076121231 0.00061540829 0)
(-0.077330957 0.00059408351 0)
(-0.078497624 0.00057235194 0)
(-0.079620426 0.0005502225 0)
(-0.080698577 0.00052770451 0)
(-0.081731309 0.00050480764 0)
(-0.082717874 0.00048154194 0)
(-0.083657545 0.00045791784 0)
(-0.084549615 0.00043394615 0)
(-0.085393401 0.00040963806 0)
(-0.086188241 0.00038500515 0)
(-0.086933496 0.00036005937 0)
(-0.087628553 0.00033481306 0)
(-0.088272824 0.00030927894 0)
(-0.088865746 0.00028347011 0)
(-0.089406782 0.00025740004 0)
(-0.089895424 0.00023108259 0)
(-0.09033119 0.00020453197 0)
(-0.09071363 0.00017776277 0)
(-0.091042319 0.00015078992 0)
(-0.091316867 0.00012362873 0)
(-0.091536911 9.6294811e-05 0)
(-0.091702122 6.8804068e-05 0)
(-0.091812204 4.1172377e-05 0)
(-0.091866887 1.3418372e-05 0)
(-0.091865948 -1.4443586e-05 0)
(-0.091809186 -4.2395014e-05 0)
(-0.091696438 -7.0418562e-05 0)
(-0.09152758 -9.8496429e-05 0)
(-0.091302519 -0.00012661055 0)
(-0.091021202 -0.00015474263 0)
(-0.090683611 -0.00018287412 0)
(-0.090289766 -0.00021098624 0)
(-0.089839724 -0.00023906005 0)
(-0.08933358 -0.00026707636 0)
(-0.08877147 -0.00029501586 0)
(-0.088153566 -0.00032285905 0)
(-0.08748008 -0.00035058631 0)
(-0.086751263 -0.0003781779 0)
(-0.085967407 -0.00040561398 0)
(-0.085128843 -0.00043287462 0)
(-0.08423594 -0.00045993983 0)
(-0.083289111 -0.00048678959 0)
(-0.082288806 -0.00051340386 0)
(-0.081235516 -0.00053976258 0)
(-0.080129772 -0.00056584575 0)
(-0.078972146 -0.00059163337 0)
(-0.077763247 -0.00061710553 0)
(-0.076503727 -0.00064224242 0)
(-0.075194277 -0.00066702432 0)
(-0.073835625 -0.00069143164 0)
(-0.072428541 -0.00071544497 0)
(-0.070973832 -0.00073904507 0)
(-0.069472343 -0.00076221288 0)
(-0.067924958 -0.00078492959 0)
(-0.066332598 -0.00080717664 0)
(-0.06469622 -0.00082893572 0)
(-0.063016819 -0.00085018883 0)
(-0.061295425 -0.00087091829 0)
(-0.059533102 -0.00089110675 0)
(-0.057730949 -0.00091073722 0)
(-0.0558901 -0.00092979309 0)
(-0.05401172 -0.00094825818 0)
(-0.052097006 -0.00096611671 0)
(-0.050147188 -0.00098335335 0)
(-0.048163524 -0.00099995326 0)
(-0.046147302 -0.0010159021 0)
(-0.044099839 -0.0010311859 0)
(-0.042022478 -0.0010457914 0)
(-0.03991659 -0.0010597059 0)
(-0.037783568 -0.001072917 0)
(-0.035624832 -0.0010854132 0)
(-0.033441822 -0.0010971834 0)
(-0.031236002 -0.0011082172 0)
(-0.029008855 -0.0011185047 0)
(-0.026761882 -0.0011280368 0)
(-0.024496604 -0.0011368049 0)
(-0.022214557 -0.0011448013 0)
(-0.019917291 -0.0011520187 0)
(-0.017606372 -0.0011584506 0)
(-0.015283377 -0.0011640914 0)
(-0.012949894 -0.0011689358 0)
(-0.01060752 -0.0011729795 0)
(-0.0082578609 -0.0011762189 0)
(-0.0059025287 -0.0011786509 0)
(-0.0035431406 -0.0011802736 0)
(-0.0011813175 -0.0011810852 0)
(0.0011813175 -0.0011810852 0)
(0.0035431406 -0.0011802736 0)
(0.0059025287 -0.0011786509 0)
(0.0082578609 -0.0011762189 0)
(0.01060752 -0.0011729795 0)
(0.012949894 -0.0011689358 0)
(0.015283377 -0.0011640914 0)
(0.017606372 -0.0011584506 0)
(0.019917291 -0.0011520187 0)
(0.022214557 -0.0011448013 0)
(0.024496604 -0.0011368049 0)
(0.026761882 -0.0011280368 0)
(0.029008855 -0.0011185047 0)
(0.031236002 -0.0011082172 0)
(0.033441822 -0.0010971834 0)
(0.035624832 -0.0010854132 0)
(0.037783568 -0.001072917 0)
(0.03991659 -0.0010597059 0)
(0.042022478 -0.0010457914 0)
(0.044099839 -0.0010311859 0)
(0.046147302 -0.0010159021 0)
(0.048163524 -0.00099995326 0)
(0.050147188 -0.00098335335 0)
(0.052097006 -0.00096611671 0)
(0.05401172 -0.00094825818 0)
(0.0558901 -0.00092979309 0)
(0.057730949 -0.00091073722 0)
(0.059533102 -0.00089110675 0)
(0.061295425 -0.00087091829 0)
(0.063016819 -0.00085018883 0)
(0.06469622 -0.00082893572 0)
(0.066332598 -0.00080717664 0)
(0.067924958 -0.00078492959 0)
(0.069472343 -0.00076221288 0)
(0.070973832 -0.00073904507 0)
(0.072428541 -0.00071544497 0)
(0.073835625 -0.00069143164 0)
(0.075194277 -0.00066702432 0)
(0.076503727 -0.00064224242 0)
(0.077763247 -0.00061710553 0)
(0.078972146 -0.00059163337 0)
(0.080129772 -0.00056584575 0)
(0.081235516 -0.00053976258 0)
(0.082288806 -0.00051340386 0)
(0.083289111 -0.00048678959 0)
(0.08423594 -0.00045993983 0)
(0.085128843 -0.00043287462 0)
(0.085967407 -0.00040561398 0)
(0.086751263 -0.0003781779 0)
(0.08748008 -0.00035058631 0)
(0.088153566 -0.00032285905 0)
(0.08877147 -0.00029501586 0)
(0.08933358 -0.00026707636 0)
(0.089839724 -0.00023906005 0)
(0.090289766 -0.00021098624 0)
(0.090683611 -0.00018287412 0)
(0.091021202 -0.00015474263 0)
(0.091302519 -0.00012661055 0)
(0.09152758 -9.8496429e-05 0)
(0.091696438 -7.0418563e-05 0)
(0.091809186 -4.2395014e-05 0)
(0.091865948 -1.4443586e-05 0)
(0.091866887 1.3418372e-05 0)
(0.091812204 4.1172377e-05 0)
(0.091702122 6.8804068e-05 0)
(0.091536911 9.6294811e-05 0)
(0.091316867 0.00012362873 0)
(0.091042319 0.00015078992 0)
(0.09071363 0.00017776277 0)
(0.09033119 0.00020453197 0)
(0.089895424 0.00023108259 0)
(0.089406782 0.00025740004 0)
(0.088865746 0.00028347011 0)
(0.088272824 0.00030927894 0)
(0.087628553 0.00033481306 0)
(0.086933496 0.00036005937 0)
(0.086188241 0.00038500515 0)
(0.085393401 0.00040963806 0)
(0.084549615 0.00043394615 0)
(0.083657545 0.00045791784 0)
(0.082717874 0.00048154194 0)
(0.081731309 0.00050480764 0)
(0.080698577 0.00052770451 0)
(0.079620426 0.0005502225 0)
(0.078497624 0.00057235194 0)
(0.077330957 0.00059408351 0)
(0.076121231 0.00061540829 0)
(0.074869268 0.0006363177 0)
(0.073575907 0.00065680354 0)
(0.072242003 0.00067685793 0)
(0.070868427 0.00069647339 0)
(0.069456064 0.00071564272 0)
(0.068005813 0.0007343591 0)
(0.066518588 0.00075261602 0)
(0.064995312 0.0007704073 0)
(0.063436924 0.00078772705 0)
(0.061844373 0.00080456971 0)
(0.060218617 0.00082092999 0)
(0.058560627 0.00083680292 0)
(0.056871383 0.00085218377 0)
(0.055151873 0.00086706812 0)
(0.053403094 0.00088145177 0)
(0.051626053 0.0008953308 0)
(0.049821761 0.00090870152 0)
(0.047991239 0.00092156047 0)
(0.046135514 0.00093390444 0)
(0.04425562 0.00094573039 0)
(0.042352594 0.00095703553 0)
(0.040427481 0.00096781723 0)
(0.038481331 0.00097807308 0)
(0.036515198 0.00098780083 0)
(0.034530139 0.00099699841 0)
(0.032527218 0.0010056639 0)
(0.0305075 0.0010137956 0)
(0.028472054 0.0010213918 0)
(0.026421953 0.0010284511 0)
(0.024358272 0.0010349722 0)
(0.022282088 0.0010409538 0)
(0.020194482 0.0010463949 0)
(0.018096535 0.0010512945 0)
(0.015989332 0.0010556518 0)
(0.013873958 0.0010594661 0)
(0.011751499 0.0010627366 0)
(0.0096230431 0.0010654628 0)
(0.0074896799 0.0010676443 0)
(0.0053524989 0.0010692808 0)
(0.0032125905 0.0010703719 0)
(0.0010710454 0.0010709175 0)
(-0.0010711704 0.0032128465 0)
(-0.0032129659 0.0032112098 0)
(-0.0053531252 0.0032079368 0)
(-0.0074905579 0.0032030278 0)
(-0.0096241739 0.0031964838 0)
(-0.011752884 0.0031883058 0)
(-0.013875599 0.0031784951 0)
(-0.015991232 0.0031670533 0)
(-0.018098696 0.0031539825 0)
(-0.020196905 0.0031392847 0)
(-0.022284778 0.0031229626 0)
(-0.024361231 0.0031050191 0)
(-0.026425185 0.0030854573 0)
(-0.028475563 0.003064281 0)
(-0.03051129 0.003041494 0)
(-0.032531293 0.0030171007 0)
(-0.034534504 0.0029911061 0)
(-0.036519856 0.0029635152 0)
(-0.038486288 0.0029343339 0)
(-0.040432742 0.0029035683 0)
(-0.042358162 0.0028712252 0)
(-0.044261501 0.0028373118 0)
(-0.046141714 0.002801836 0)
(-0.047997762 0.0027648062 0)
(-0.049828612 0.0027262313 0)
(-0.051633237 0.0026861212 0)
(-0.053410617 0.0026444862 0)
(-0.055159739 0.0026013372 0)
(-0.056879597 0.0025566862 0)
(-0.058569194 0.0025105455 0)
(-0.060227541 0.0024629286 0)
(-0.061853658 0.0024138495 0)
(-0.063446575 0.0023633232 0)
(-0.065005332 0.0023113655 0)
(-0.066528981 0.0022579932 0)
(-0.068016583 0.0022032238 0)
(-0.069467214 0.0021470759 0)
(-0.070879959 0.002089569 0)
(-0.07225392 0.0020307236 0)
(-0.073588211 0.0019705613 0)
(-0.074881961 0.0019091044 0)
(-0.076134314 0.0018463767 0)
(-0.07734443 0.0017824026 0)
(-0.078511487 0.001717208 0)
(-0.079634679 0.0016508197 0)
(-0.08071322 0.0015832654 0)
(-0.08174634 0.0015145743 0)
(-0.082733292 0.0014447765 0)
(-0.083673347 0.0013739033 0)
(-0.084565799 0.0013019871 0)
(-0.085409963 0.0012290614 0)
(-0.086205176 0.001155161 0)
(-0.0869508 0.0010803218 0)
(-0.087646221 0.0010045808 0)
(-0.08829085 0.00092797607 0)
(-0.088884122 0.00085054697 0)
(-0.089425502 0.00077233391 0)
(-0.08991448 0.00069337844 0)
(-0.090350574 0.00061372321 0)
(-0.090733332 0.00053341197 0)
(-0.09106233 0.00045248954 0)
(-0.091337176 0.0003710018 0)
(-0.091557507 0.00028899566 0)
(-0.091722993 0.00020651896 0)
(-0.091833337 0.00012362035 0)
(-0.091888273 4.0350577e-05 0)
(-0.091887569 -4.3239765e-05 0)
(-0.091831028 -0.00012709954 0)
(-0.091718488 -0.00021117599 0)
(-0.091549822 -0.00029541565 0)
(-0.091324937 -0.00037976432 0)
(-0.09104378 -0.00046416707 0)
(-0.090706331 -0.00054856825 0)
(-0.090312611 -0.00063291156 0)
(-0.089862675 -0.00071714009 0)
(-0.08935662 -0.00080119634 0)
(-0.088794579 -0.00088502232 0)
(-0.088176725 -0.00096855955 0)
(-0.087503269 -0.0010517492 0)
(-0.086774462 -0.0011345319 0)
(-0.085990595 -0.0012168482 0)
(-0.085151999 -0.0012986384 0)
(-0.084259044 -0.0013798423 0)
(-0.083312141 -0.0014604001 0)
(-0.08231174 -0.0015402514 0)
(-0.081258332 -0.0016193362 0)
(-0.080152448 -0.0016975943 0)
(-0.078994659 -0.0017749659 0)
(-0.077785576 -0.0018513912 0)
(-0.076525849 -0.0019268107 0)
(-0.075216169 -0.0020011652 0)
(-0.073857266 -0.002074396 0)
(-0.072449907 -0.0021464447 0)
(-0.070994901 -0.0022172538 0)
(-0.069493093 -0.0022867659 0)
(-0.067945367 -0.0023549247 0)
(-0.066352643 -0.0024216745 0)
(-0.064715881 -0.0024869602 0)
(-0.063036073 -0.0025507279 0)
(-0.061314251 -0.0026129246 0)
(-0.059551479 -0.0026734981 0)
(-0.057748857 -0.0027323975 0)
(-0.055907518 -0.002789573 0)
(-0.054028628 -0.002844976 0)
(-0.052113386 -0.002898559 0)
(-0.05016302 -0.0029502763 0)
(-0.04817879 -0.0030000831 0)
(-0.046161985 -0.0030479363 0)
(-0.044113921 -0.0030937944 0)
(-0.042035943 -0.0031376174 0)
(-0.039929421 -0.0031793669 0)
(-0.037795751 -0.0032190062 0)
(-0.035636352 -0.0032565003 0)
(-0.033452666 -0.0032918161 0)
(-0.031246156 -0.0033249224 0)
(-0.029018307 -0.0033557895 0)
(-0.026770621 -0.0033843901 0)
(-0.024504619 -0.0034106985 0)
(-0.022221838 -0.0034346913 0)
(-0.01992383 -0.0034563468 0)
(-0.017612161 -0.0034756456 0)
(-0.015288408 -0.0034925704 0)
(-0.012954162 -0.0035071058 0)
(-0.010611019 -0.0035192388 0)
(-0.0082605868 -0.0035289585 0)
(-0.0059044782 -0.0035362559 0)
(-0.0035443112 -0.0035411245 0)
(-0.0011817079 -0.0035435599 0)
(0.0011817079 -0.0035435599 0)
(0.0035443112 -0.0035411245 0)
(0.0059044782 -0.0035362559 0)
(0.0082605868 -0.0035289585 0)
(0.010611019 -0.0035192389 0)
(0.012954162 -0.0035071058 0)
(0.015288408 -0.0034925704 0)
(0.017612161 -0.0034756456 0)
(0.01992383 -0.0034563468 0)
(0.022221838 -0.0034346913 0)
(0.024504619 -0.0034106985 0)
(0.026770621 -0.0033843901 0)
(0.029018307 -0.0033557895 0)
(0.031246156 -0.0033249224 0)
(0.033452666 -0.0032918161 0)
(0.035636352 -0.0032565003 0)
(0.037795751 -0.0032190062 0)
(0.039929421 -0.0031793669 0)
(0.042035943 -0.0031376174 0)
(0.044113921 -0.0030937944 0)
(0.046161985 -0.0030479363 0)
(0.04817879 -0.0030000831 0)
(0.05016302 -0.0029502763 0)
(0.052113386 -0.002898559 0)
(0.054028628 -0.002844976 0)
(0.055907518 -0.002789573 0)
(0.057748857 -0.0027323975 0)
(0.059551479 -0.0026734981 0)
(0.061314251 -0.0026129246 0)
(0.063036073 -0.0025507279 0)
(0.064715881 -0.0024869602 0)
(0.066352643 -0.0024216745 0)
(0.067945367 -0.0023549247 0)
(0.069493093 -0.0022867659 0)
(0.070994901 -0.0022172538 0)
(0.072449907 -0.0021464447 0)
(0.073857266 -0.002074396 0)
(0.075216169 -0.0020011652 0)
(0.076525849 -0.0019268107 0)
(0.077785576 -0.0018513912 0)
(0.078994659 -0.0017749659 0)
(0.080152448 -0.0016975943 0)
(0.081258332 -0.0016193362 0)
(0.08231174 -0.0015402514 0)
(0.083312141 -0.0014604001 0)
(0.084259044 -0.0013798423 0)
(0.085151999 -0.0012986384 0)
(0.085990595 -0.0012168482 0)
(0.086774462 -0.0011345319 0)
(0.087503269 -0.0010517492 0)
(0.088176725 -0.00096855955 0)
(0.088794579 -0.00088502232 0)
(0.08935662 -0.00080119634 0)
(0.089862675 -0.00071714009 0)
(0.090312611 -0.00063291156 0)
(0.090706331 -0.00054856825 0)
(0.09104378 -0.00046416707 0)
(0.091324937 -0.00037976432 0)
(0.091549822 -0.00029541565 0)
(0.091718488 -0.00021117599 0)
(0.091831028 -0.00012709954 0)
(0.091887569 -4.3239766e-05 0)
(0.091888273 4.0350577e-05 0)
(0.091833337 0.00012362035 0)
(0.091722993 0.00020651896 0)
(0.091557507 0.00028899566 0)
(0.091337176 0.0003710018 0)
(0.09106233 0.00045248954 0)
(0.090733332 0.00053341197 0)
(0.090350574 0.00061372321 0)
(0.08991448 0.00069337844 0)
(0.089425502 0.00077233391 0)
(0.088884122 0.00085054697 0)
(0.08829085 0.00092797607 0)
(0.087646221 0.0010045808 0)
(0.0869508 0.0010803218 0)
(0.086205176 0.001155161 0)
(0.085409963 0.0012290614 0)
(0.084565799 0.0013019871 0)
(0.083673347 0.0013739033 0)
(0.082733292 0.0014447765 0)
(0.08174634 0.0015145743 0)
(0.08071322 0.0015832654 0)
(0.079634679 0.0016508197 0)
(0.078511487 0.001717208 0)
(0.07734443 0.0017824026 0)
(0.076134314 0.0018463767 0)
(0.074881961 0.0019091044 0)
(0.073588211 0.0019705613 0)
(0.07225392 0.0020307236 0)
(0.070879959 0.002089569 0)
(0.069467214 0.0021470759 0)
(0.068016584 0.0022032238 0)
(0.066528981 0.0022579932 0)
(0.065005332 0.0023113655 0)
(0.063446575 0.0023633232 0)
(0.061853658 0.0024138495 0)
(0.060227541 0.0024629286 0)
(0.058569194 0.0025105455 0)
(0.056879597 0.0025566862 0)
(0.055159739 0.0026013372 0)
(0.053410617 0.0026444862 0)
(0.051633237 0.0026861212 0)
(0.049828612 0.0027262313 0)
(0.047997762 0.0027648062 0)
(0.046141714 0.002801836 0)
(0.044261501 0.0028373118 0)
(0.042358162 0.0028712252 0)
(0.040432742 0.0029035683 0)
(0.038486288 0.0029343339 0)
(0.036519856 0.0029635152 0)
(0.034534504 0.0029911061 0)
(0.032531293 0.0030171007 0)
(0.03051129 0.003041494 0)
(0.028475563 0.003064281 0)
(0.026425185 0.0030854573 0)
(0.024361231 0.0031050191 0)
(0.022284778 0.0031229626 0)
(0.020196905 0.0031392847 0)
(0.018098696 0.0031539825 0)
(0.015991232 0.0031670533 0)
(0.013875599 0.0031784951 0)
(0.011752884 0.0031883058 0)
(0.0096241739 0.0031964838 0)
(0.0074905579 0.0032030278 0)
(0.0053531252 0.0032079368 0)
(0.0032129659 0.0032112098 0)
(0.0010711704 0.0032128465 0)
(-0.0010711425 0.0053549307 0)
(-0.0032128825 0.0053522036 0)
(-0.0053529875 0.0053467497 0)
(-0.0074903678 0.00533857 0)
(-0.0096239341 0.0053276657 0)
(-0.011752598 0.0053140387 0)
(-0.013875271 0.0052976912 0)
(-0.015990866 0.0052786258 0)
(-0.018098298 0.0052568458 0)
(-0.020196483 0.0052323549 0)
(-0.022284337 0.0052051572 0)
(-0.024360779 0.0051752576 0)
(-0.026424731 0.0051426615 0)
(-0.028475115 0.0051073748 0)
(-0.030510857 0.0050694042 0)
(-0.032530886 0.0050287569 0)
(-0.034534133 0.0049854408 0)
(-0.036519532 0.0049394648 0)
(-0.038486023 0.0048908384 0)
(-0.040432546 0.0048395718 0)
(-0.04235805 0.0047856762 0)
(-0.044261484 0.0047291637 0)
(-0.046141805 0.0046700472 0)
(-0.047997974 0.0046083409 0)
(-0.049828958 0.0045440597 0)
(-0.051633732 0.0044772197 0)
(-0.053411273 0.0044078382 0)
(-0.055160571 0.0043359334 0)
(-0.056880618 0.004261525 0)
(-0.058570418 0.0041846339 0)
(-0.060228982 0.0041052821 0)
(-0.06185533 0.0040234932 0)
(-0.063448492 0.0039392921 0)
(-0.065007508 0.0038527051 0)
(-0.066531428 0.0037637599 0)
(-0.068019314 0.003672486 0)
(-0.069470242 0.0035789141 0)
(-0.070883297 0.0034830768 0)
(-0.072257579 0.0033850082 0)
(-0.073592203 0.0032847441 0)
(-0.074886296 0.0031823219 0)
(-0.076139004 0.003077781 0)
(-0.077349485 0.0029711624 0)
(-0.078516916 0.0028625088 0)
(-0.079640492 0.0027518649 0)
(-0.080719424 0.0026392771 0)
(-0.081752943 0.0025247938 0)
(-0.082740301 0.0024084653 0)
(-0.083680769 0.0022903436 0)
(-0.084573638 0.0021704827 0)
(-0.085418224 0.0020489386 0)
(-0.086213863 0.0019257691 0)
(-0.086959916 0.0018010339 0)
(-0.087655768 0.0016747948 0)
(-0.088300829 0.0015471154 0)
(-0.088894535 0.001418061 0)
(-0.089436347 0.0012876991 0)
(-0.089925755 0.0011560989 0)
(-0.090362278 0.0010233315 0)
(-0.09074546 0.00088946981 0)
(-0.091074879 0.00075458847 0)
(-0.09135014 0.00061876398 0)
(-0.091570881 0.00048207452 0)
(-0.09173677 0.00034459992 0)
(-0.091847508 0.00020642164 0)
(-0.091902829 6.7623302e-05 0)
(-0.091902501 -7.1710556e-05 0)
(-0.091846325 -0.00021149406 0)
(-0.091734138 -0.00035163951 0)
(-0.091565812 -0.00049205785 0)
(-0.091341255 -0.00063265874 0)
(-0.09106041 -0.0007733506 0)
(-0.090723259 -0.00091404066 0)
(-0.090329819 -0.0010546351 0)
(-0.089880149 -0.0011950389 0)
(-0.089374341 -0.0013351564 0)
(-0.088812528 -0.0014748907 0)
(-0.088194884 -0.0016141445 0)
(-0.087521617 -0.0017528195 0)
(-0.08679298 -0.001890817 0)
(-0.086009262 -0.0020280377 0)
(-0.085170792 -0.002164382 0)
(-0.084277942 -0.0022997498 0)
(-0.083331121 -0.0024340409 0)
(-0.082330778 -0.0025671552 0)
(-0.081277405 -0.0026989922 0)
(-0.080171533 -0.0028294517 0)
(-0.07901373 -0.0029584339 0)
(-0.077804609 -0.0030858392 0)
(-0.076544819 -0.0032115682 0)
(-0.075235051 -0.0033355224 0)
(-0.073876035 -0.0034576038 0)
(-0.072468537 -0.0035777151 0)
(-0.071013367 -0.0036957602 0)
(-0.069511369 -0.0038116438 0)
(-0.067963427 -0.0039252716 0)
(-0.066370463 -0.0040365507 0)
(-0.064733434 -0.0041453896 0)
(-0.063053336 -0.0042516982 0)
(-0.061331198 -0.0043553879 0)
(-0.059568085 -0.004456372 0)
(-0.057765098 -0.0045545655 0)
(-0.055923371 -0.0046498852 0)
(-0.054044069 -0.0047422501 0)
(-0.052128391 -0.0048315813 0)
(-0.050177568 -0.0049178021 0)
(-0.048192858 -0.0050008381 0)
(-0.046175552 -0.0050806174 0)
(-0.044126966 -0.0051570708 0)
(-0.042048447 -0.0052301313 0)
(-0.039941364 -0.0052997351 0)
(-0.037807115 -0.005365821 0)
(-0.035647119 -0.0054283306 0)
(-0.03346282 -0.0054872088 0)
(-0.031255681 -0.0055424031 0)
(-0.029027188 -0.0055938647 0)
(-0.026778844 -0.0056415474 0)
(-0.024512171 -0.0056854088 0)
(-0.022228707 -0.0057254095 0)
(-0.019930006 -0.0057615137 0)
(-0.017617633 -0.0057936888 0)
(-0.015293169 -0.0058219059 0)
(-0.012958203 -0.0058461395 0)
(-0.010614334 -0.0058663677 0)
(-0.0082631707 -0.0058825723 0)
(-0.0059063267 -0.0058947387 0)
(-0.0035454216 -0.0059028557 0)
(-0.0011820782 -0.005906916 0)
(0.0011820782 -0.005906916 0)
(0.0035454216 -0.0059028557 0)
(0.0059063267 -0.0058947387 0)
(0.0082631707 -0.0058825723 0)
(0.010614334 -0.0058663677 0)
(0.012958203 -0.0058461395 0)
(0.015293169 -0.0058219059 0)
(0.017617633 -0.0057936888 0)
(0.019930006 -0.0057615137 0)
(0.022228707 -0.0057254095 0)
(0.024512171 -0.0056854088 0)
(0.026778844 -0.0056415474 0)
(0.029027188 -0.0055938647 0)
(0.031255681 -0.0055424031 0)
(0.03346282 -0.0054872088 0)
(0.035647119 -0.0054283306 0)
(0.037807115 -0.005365821 0)
(0.039941364 -0.0052997351 0)
(0.042048447 -0.0052301313 0)
(0.044126966 -0.0051570708 0)
(0.046175552 -0.0050806174 0)
(0.048192858 -0.0050008381 0)
(0.050177568 -0.0049178021 0)
(0.052128391 -0.0048315813 0)
(0.054044069 -0.0047422501 0)
(0.055923371 -0.0046498852 0)
(0.057765098 -0.0045545655 0)
(0.059568085 -0.004456372 0)
(0.061331198 -0.0043553879 0)
(0.063053336 -0.0042516982 0)
(0.064733434 -0.0041453896 0)
(0.066370463 -0.0040365507 0)
(0.067963427 -0.0039252716 0)
(0.069511369 -0.0038116438 0)
(0.071013367 -0.0036957602 0)
(0.072468537 -0.0035777151 0)
(0.073876035 -0.0034576038 0)
(0.075235051 -0.0033355224 0)
(0.076544819 -0.0032115682 0)
(0.077804609 -0.0030858392 0)
(0.07901373 -0.0029584339 0)
(0.080171533 -0.0028294517 0)
(0.081277405 -0.0026989922 0)
(0.082330778 -0.0025671552 0)
(0.083331121 -0.0024340409 0)
(0.084277942 -0.0022997498 0)
(0.085170792 -0.002164382 0)
(0.086009262 -0.0020280377 0)
(0.08679298 -0.001890817 0)
(0.087521617 -0.0017528195 0)
(0.088194884 -0.0016141445 0)
(0.088812528 -0.0014748907 0)
(0.089374341 -0.0013351564 0)
(0.089880149 -0.0011950389 0)
(0.090329819 -0.0010546351 0)
(0.090723259 -0.00091404066 0)
(0.09106041 -0.0007733506 0)
(0.091341255 -0.00063265874 0)
(0.091565812 -0.00049205785 0)
(0.091734138 -0.00035163951 0)
(0.091846325 -0.00021149406 0)
(0.091902501 -7.1710557e-05 0)
(0.091902829 6.7623302e-05 0)
(0.091847508 0.00020642164 0)
(0.09173677 0.00034459992 0)
(0.091570881 0.00048207452 0)
(0.09135014 0.00061876398 0)
(0.091074879 0.00075458847 0)
(0.09074546 0.00088946981 0)
(0.090362278 0.0010233315 0)
(0.089925755 0.0011560989 0)
(0.089436347 0.0012876991 0)
(0.088894535 0.001418061 0)
(0.088300829 0.0015471154 0)
(0.087655768 0.0016747948 0)
(0.086959916 0.0018010339 0)
(0.086213863 0.0019257691 0)
(0.085418224 0.0020489386 0)
(0.084573638 0.0021704827 0)
(0.083680769 0.0022903436 0)
(0.082740301 0.0024084653 0)
(0.081752943 0.0025247938 0)
(0.080719424 0.0026392771 0)
(0.079640492 0.0027518649 0)
(0.078516916 0.0028625088 0)
(0.077349485 0.0029711624 0)
(0.076139004 0.003077781 0)
(0.074886296 0.0031823219 0)
(0.073592203 0.0032847441 0)
(0.072257579 0.0033850082 0)
(0.070883297 0.0034830768 0)
(0.069470242 0.0035789141 0)
(0.068019314 0.003672486 0)
(0.066531428 0.0037637599 0)
(0.065007508 0.0038527051 0)
(0.063448492 0.0039392921 0)
(0.06185533 0.0040234932 0)
(0.060228982 0.0041052821 0)
(0.058570418 0.0041846339 0)
(0.056880618 0.004261525 0)
(0.055160571 0.0043359334 0)
(0.053411273 0.0044078382 0)
(0.051633732 0.0044772197 0)
(0.049828958 0.0045440597 0)
(0.047997974 0.0046083409 0)
(0.046141805 0.0046700472 0)
(0.044261484 0.0047291637 0)
(0.04235805 0.0047856762 0)
(0.040432546 0.0048395718 0)
(0.038486023 0.0048908384 0)
(0.036519532 0.0049394648 0)
(0.034534133 0.0049854408 0)
(0.032530886 0.0050287569 0)
(0.030510857 0.0050694042 0)
(0.028475115 0.0051073748 0)
(0.026424731 0.0051426615 0)
(0.024360779 0.0051752576 0)
(0.022284337 0.0052051572 0)
(0.020196483 0.0052323549 0)
(0.018098298 0.0052568458 0)
(0.015990866 0.0052786258 0)
(0.013875271 0.0052976912 0)
(0.011752598 0.0053140387 0)
(0.0096239341 0.0053276657 0)
(0.0074903678 0.00533857 0)
(0.0053529875 0.0053467497 0)
(0.0032128825 0.0053522036 0)
(0.0010711425 0.0053549307 0)
(-0.0010709579 0.0074968383 0)
(-0.0032123292 0.0074930216 0)
(-0.0053520672 0.0074853889 0)
(-0.0074890836 0.0074739413 0)
(-0.0096222902 0.0074586806 0)
(-0.011750599 0.0074396094 0)
(-0.013872925 0.0074167308 0)
(-0.01598818 0.0073900484 0)
(-0.018095281 0.0073595667 0)
(-0.020193144 0.0073252909 0)
(-0.022280687 0.0072872269 0)
(-0.024356831 0.0072453813 0)
(-0.026420497 0.0071997617 0)
(-0.02847061 0.0071503762 0)
(-0.030506096 0.0070972342 0)
(-0.032525884 0.0070403458 0)
(-0.034528907 0.0069797221 0)
(-0.0365141 0.0069153752 0)
(-0.038480402 0.0068473184 0)
(-0.040426757 0.0067755662 0)
(-0.042352111 0.0067001339 0)
(-0.044255416 0.0066210386 0)
(-0.046135628 0.0065382982 0)
(-0.04799171 0.0064519325 0)
(-0.04982263 0.0063619622 0)
(-0.05162736 0.0062684099 0)
(-0.053404882 0.0061712996 0)
(-0.055154181 0.0060706569 0)
(-0.056874254 0.0059665092 0)
(-0.058564103 0.0058588856 0)
(-0.060222739 0.005747817 0)
(-0.061849183 0.0056333363 0)
(-0.063442463 0.0055154782 0)
(-0.06500162 0.0053942794 0)
(-0.066525705 0.0052697788 0)
(-0.068013779 0.0051420175 0)
(-0.069464916 0.0050110385 0)
(-0.070878203 0.0048768872 0)
(-0.072252739 0.0047396114 0)
(-0.073587638 0.0045992611 0)
(-0.074882028 0.0044558887 0)
(-0.076135052 0.0043095491 0)
(-0.077345869 0.0041602996 0)
(-0.078513655 0.0040082002 0)
(-0.079637604 0.0038533132 0)
(-0.080716926 0.0036957037 0)
(-0.081750853 0.0035354392 0)
(-0.082738633 0.00337259 0)
(-0.083679539 0.0032072291 0)
(-0.08457286 0.003039432 0)
(-0.08541791 0.0028692769 0)
(-0.086214025 0.0026968448 0)
(-0.086960566 0.0025222194 0)
(-0.087656915 0.0023454868 0)
(-0.088302482 0.0021667362 0)
(-0.0888967 0.0019860591 0)
(-0.089439032 0.0018035499 0)
(-0.089928965 0.0016193054 0)
(-0.090366016 0.0014334252 0)
(-0.09074973 0.0012460113 0)
(-0.091079682 0.0010571682 0)
(-0.091355476 0.00086700304 0)
(-0.091576749 0.00067562526 0)
(-0.091743167 0.00048314668 0)
(-0.091854432 0.00028968147 0)
(-0.091910275 9.5346226e-05 0)
(-0.091910462 -9.9740525e-05 0)
(-0.091854795 -0.00029545825 0)
(-0.091743108 -0.00049168426 0)
(-0.091575272 -0.00068829388 0)
(-0.091351194 -0.00088516061 0)
(-0.091070816 -0.0010821562 0)
(-0.090734119 -0.0012791508 0)
(-0.09034112 -0.0014760128 0)
(-0.089891874 -0.0016726095 0)
(-0.089386474 -0.0018688066 0)
(-0.088825052 -0.0020644687 0)
(-0.088207779 -0.0022594592 0)
(-0.087534865 -0.0024536406 0)
(-0.08680656 -0.0026468747 0)
(-0.086023152 -0.0028390223 0)
(-0.085184971 -0.0030299438 0)
(-0.084292386 -0.0032194993 0)
(-0.083345806 -0.0034075483 0)
(-0.082345681 -0.0035939504 0)
(-0.0812925 -0.0037785652 0)
(-0.080186793 -0.0039612522 0)
(-0.07902913 -0.0041418715 0)
(-0.077820122 -0.0043202834 0)
(-0.076560418 -0.0044963491 0)
(-0.075250707 -0.0046699304 0)
(-0.07389172 -0.0048408899 0)
(-0.072484224 -0.0050090917 0)
(-0.071029027 -0.0051744007 0)
(-0.069526973 -0.0053366835 0)
(-0.067978947 -0.0054958081 0)
(-0.06638587 -0.0056516444 0)
(-0.064748699 -0.0058040641 0)
(-0.06306843 -0.005952941 0)
(-0.061346093 -0.0060981511 0)
(-0.059582754 -0.0062395727 0)
(-0.057779512 -0.0063770868 0)
(-0.055937502 -0.0065105769 0)
(-0.054057891 -0.0066399295 0)
(-0.052141877 -0.0067650339 0)
(-0.050190691 -0.0068857828 0)
(-0.048205594 -0.0070020719 0)
(-0.046187875 -0.0071138006 0)
(-0.044138853 -0.0072208716 0)
(-0.042059874 -0.0073231914 0)
(-0.03995231 -0.0074206704 0)
(-0.037817557 -0.0075132229 0)
(-0.035657036 -0.0076007671 0)
(-0.033472193 -0.0076832256 0)
(-0.031264491 -0.0077605252 0)
(-0.029035418 -0.0078325971 0)
(-0.026786478 -0.007899377 0)
(-0.024519194 -0.0079608051 0)
(-0.022235104 -0.0080168265 0)
(-0.019935764 -0.0080673907 0)
(-0.017622742 -0.0081124524 0)
(-0.015297617 -0.0081519708 0)
(-0.012961982 -0.0081859103 0)
(-0.010617437 -0.0082142403 0)
(-0.0082655902 -0.0082369352 0)
(-0.0059080585 -0.0082539744 0)
(-0.003546462 -0.0082653424 0)
(-0.0011824252 -0.008271029 0)
(0.0011824252 -0.008271029 0)
(0.003546462 -0.0082653424 0)
(0.0059080585 -0.0082539744 0)
(0.0082655902 -0.0082369352 0)
(0.010617437 -0.0082142403 0)
(0.012961982 -0.0081859103 0)
(0.015297617 -0.0081519708 0)
(0.017622742 -0.0081124524 0)
(0.019935764 -0.0080673907 0)
(0.022235104 -0.0080168265 0)
(0.024519194 -0.0079608051 0)
(0.026786478 -0.007899377 0)
(0.029035418 -0.0078325971 0)
(0.031264491 -0.0077605252 0)
(0.033472193 -0.0076832256 0)
(0.035657036 -0.0076007671 0)
(0.037817557 -0.0075132229 0)
(0.03995231 -0.0074206704 0)
(0.042059874 -0.0073231914 0)
(0.044138853 -0.0072208716 0)
(0.046187875 -0.0071138006 0)
(0.048205594 -0.0070020719 0)
(0.050190691 -0.0068857828 0)
(0.052141877 -0.0067650339 0)
(0.054057891 -0.0066399295 0)
(0.055937502 -0.0065105769 0)
(0.057779512 -0.0063770868 0)
(0.059582754 -0.0062395727 0)
(0.061346093 -0.0060981511 0)
(0.06306843 -0.005952941 0)
(0.064748699 -0.0058040641 0)
(0.06638587 -0.0056516444 0)
(0.067978947 -0.0054958081 0)
(0.069526973 -0.0053366835 0)
(0.071029027 -0.0051744007 0)
(0.072484224 -0.0050090917 0)
(0.07389172 -0.0048408899 0)
(0.075250707 -0.0046699304 0)
(0.076560418 -0.0044963491 0)
(0.077820122 -0.0043202834 0)
(0.07902913 -0.0041418715 0)
(0.080186793 -0.0039612522 0)
(0.0812925 -0.0037785652 0)
(0.082345681 -0.0035939505 0)
(0.083345806 -0.0034075483 0)
(0.084292386 -0.0032194993 0)
(0.085184971 -0.0030299438 0)
(0.086023152 -0.0028390223 0)
(0.08680656 -0.0026468747 0)
(0.087534865 -0.0024536406 0)
(0.088207779 -0.0022594592 0)
(0.088825052 -0.0020644687 0)
(0.089386474 -0.0018688066 0)
(0.089891874 -0.0016726095 0)
(0.09034112 -0.0014760128 0)
(0.090734119 -0.0012791508 0)
(0.091070816 -0.0010821562 0)
(0.091351194 -0.00088516061 0)
(0.091575272 -0.00068829388 0)
(0.091743108 -0.00049168426 0)
(0.091854795 -0.00029545826 0)
(0.091910462 -9.9740525e-05 0)
(0.091910275 9.5346226e-05 0)
(0.091854432 0.00028968147 0)
(0.091743167 0.00048314668 0)
(0.091576749 0.00067562526 0)
(0.091355476 0.00086700304 0)