/*--------------------------------*- C++ -*----------------------------------*\
| =========                 |                                                 |
| \\      /  F ield         | OpenFOAM: The Open Source CFD Toolbox           |
|  \\    /   O peration     | Version:  2106                                  |
|   \\  /    A nd           | Website:  www.openfoam.com                      |
|    \\/     M anipulation  |                                                 |
\*---------------------------------------------------------------------------*/
FoamFile
{
    version     2.0;
    format      ascii;
    arch        "LSB;label=32;scalar=64";
    class       surfaceScalarField;
    location    "0.03";
    object      phi;
}
// * * * * * * * * * * * * * * * * * * * * * * * * * * * * * * * * * * * * * //

dimensions      [0 3 -1 0 0 0 0];

oriented        oriented;

internalField   nonuniform List<scalar> 
32512
(
5.6762909e-06
-5.6762912e-06
1.1335702e-05
-5.6594109e-06
1.6961424e-05
-5.6257227e-06
2.2536796e-05
-5.5753712e-06
2.8045367e-05
-5.5085717e-06
3.3470976e-05
-5.425609e-06
3.8797812e-05
-5.3268353e-06
4.4010479e-05
-5.2126677e-06
4.9094065e-05
-5.0835854e-06
5.4034191e-05
-4.9401265e-06
5.8817075e-05
-4.7828839e-06
6.3429577e-05
-4.6125018e-06
6.7859248e-05
-4.4296712e-06
7.2094374e-05
-4.2351253e-06
7.6124008e-05
-4.0296348e-06
7.9938012e-05
-3.8140032e-06
8.3527073e-05
-3.5890616e-06
8.6882737e-05
-3.3556639e-06
8.9997418e-05
-3.1146812e-06
9.2864416e-05
-2.8669976e-06
9.547792e-05
-2.6135043e-06
9.7833016e-05
-2.3550955e-06
9.9925679e-05
-2.0926631e-06
0.00010175277
-1.8270923e-06
0.00010331203
-1.5592571e-06
0.00010460204
-1.2900163e-06
0.00010562225
-1.0202096e-06
0.00010637291
-7.5065369e-07
0.00010685505
-4.8213915e-07
0.00010707047
-2.1542709e-07
0.00010702172
4.8755962e-08
0.00010671201
3.0970862e-07
0.00010614523
5.6678143e-07
0.00010532588
8.1935096e-07
0.00010425904
1.0668389e-06
0.00010295033
1.3087074e-06
0.00010140587
1.5444608e-06
9.9632224e-05
1.7736456e-06
9.7636373e-05
1.995851e-06
9.5425665e-05
2.2107086e-06
9.3007773e-05
2.417892e-06
9.0390657e-05
2.6171154e-06
8.7582524e-05
2.8081331e-06
8.4591787e-05
2.9907376e-06
8.1427028e-05
3.1647583e-06
7.809697e-05
3.3300589e-06
7.4610434e-05
3.4865356e-06
7.097632e-05
3.6341142e-06
6.7203572e-05
3.772748e-06
6.3301157e-05
3.9024146e-06
5.9278044e-05
4.0231129e-06
5.5143184e-05
4.1348604e-06
5.0905494e-05
4.2376896e-06
4.6573849e-05
4.3316456e-06
4.2157066e-05
4.4167823e-06
3.7663906e-05
4.4931601e-06
3.3103064e-05
4.5608423e-06
2.8483171e-05
4.619893e-06
2.3812797e-05
4.6703742e-06
1.9100453e-05
4.7123436e-06
1.43546e-05
4.7458527e-06
9.5836557e-06
4.7709448e-06
4.7960022e-06
4.7876535e-06
2.7414983e-13
4.7960019e-06
-4.7960017e-06
4.7960019e-06
-9.5836551e-06
4.7876535e-06
-1.43546e-05
4.7709448e-06
-1.9100453e-05
4.7458527e-06
-2.3812796e-05
4.7123436e-06
-2.848317e-05
4.6703742e-06
-3.3103063e-05
4.619893e-06
-3.7663906e-05
4.5608423e-06
-4.2157066e-05
4.4931601e-06
-4.6573848e-05
4.4167824e-06
-5.0905494e-05
4.3316456e-06
-5.5143183e-05
4.2376896e-06
-5.9278044e-05
4.1348604e-06
-6.3301157e-05
4.023113e-06
-6.7203571e-05
3.9024146e-06
-7.0976319e-05
3.7727481e-06
-7.4610434e-05
3.6341142e-06
-7.8096969e-05
3.4865356e-06
-8.1427028e-05
3.330059e-06
-8.4591786e-05
3.1647584e-06
-8.7582524e-05
2.9907377e-06
-9.0390657e-05
2.8081331e-06
-9.3007773e-05
2.6171154e-06
-9.5425665e-05
2.417892e-06
-9.7636373e-05
2.2107087e-06
-9.9632224e-05
1.995851e-06
-0.00010140587
1.7736456e-06
-0.00010295033
1.5444608e-06
-0.00010425904
1.3087075e-06
-0.00010532588
1.0668389e-06
-0.00010614523
8.1935099e-07
-0.00010671201
5.6678145e-07
-0.00010702172
3.0970865e-07
-0.00010707047
4.8755989e-08
-0.00010685505
-2.1542707e-07
-0.00010637291
-4.8213912e-07
-0.00010562225
-7.5065366e-07
-0.00010460204
-1.0202096e-06
-0.00010331203
-1.2900163e-06
-0.00010175277
-1.5592571e-06
-9.9925679e-05
-1.8270923e-06
-9.7833016e-05
-2.0926631e-06
-9.547792e-05
-2.3550955e-06
-9.2864416e-05
-2.6135043e-06
-8.9997419e-05
-2.8669975e-06
-8.6882737e-05
-3.1146812e-06
-8.3527074e-05
-3.3556638e-06
-7.9938012e-05
-3.5890616e-06
-7.6124009e-05
-3.8140032e-06
-7.2094374e-05
-4.0296348e-06
-6.7859249e-05
-4.2351253e-06
-6.3429577e-05
-4.4296712e-06
-5.8817076e-05
-4.6125018e-06
-5.4034192e-05
-4.7828839e-06
-4.9094065e-05
-4.9401265e-06
-4.401048e-05
-5.0835854e-06
-3.8797812e-05
-5.2126677e-06
-3.3470977e-05
-5.3268352e-06
-2.8045368e-05
-5.425609e-06
-2.2536796e-05
-5.5085717e-06
-1.6961425e-05
-5.5753712e-06
-1.1335702e-05
-5.6257227e-06
-5.6762914e-06
-5.6594109e-06
-5.6762912e-06
5.7219345e-06
-1.1398226e-05
1.1426857e-05
-1.1364333e-05
1.7097826e-05
-1.1296692e-05
2.271805e-05
-1.1195595e-05
2.827095e-05
-1.1061472e-05
3.3740237e-05
-1.0894896e-05
3.9109977e-05
-1.0696575e-05
4.4364654e-05
-1.0467345e-05
4.9489238e-05
-1.0208169e-05
5.4469239e-05
-9.9201278e-06
5.9290766e-05
-9.6044112e-06
6.3940578e-05
-9.2623129e-06
6.8406126e-05
-8.8952201e-06
7.2675606e-05
-8.5046048e-06
7.6737985e-05
-8.0920144e-06
8.0583044e-05
-7.659062e-06
8.4201399e-05
-7.2074159e-06
8.7584525e-05
-6.73879e-06
9.0724777e-05
-6.2549335e-06
9.36154e-05
-5.7576206e-06
9.6250536e-05
-5.2486404e-06
9.8625228e-05
-4.7297876e-06
0.00010073542
-4.2028524e-06
0.00010257794
-3.6696115e-06
0.0001041505
-3.1318194e-06
0.00010545168
-2.5911998e-06
0.00010648091
-2.0494378e-06
0.00010723843
-1.508173e-06
0.00010772528
-9.6899191e-07
0.00010794328
-4.3342244e-07
0.00010789496
9.7072312e-08
0.00010758357
6.210971e-07
0.00010701302
1.1373334e-06
0.00010618784
1.6445372e-06
0.00010511313
2.1415457e-06
0.00010379456
2.6272789e-06
0.00010223828
3.1007407e-06
0.0001004509
3.5610204e-06
9.843946e-05
4.0072927e-06
9.6211352e-05
4.4388171e-06
9.3774306e-05
4.8549373e-06
9.1136343e-05
5.2550789e-06
8.8305728e-05
5.6387475e-06
8.529094e-05
6.0055259e-06
8.2100628e-05
6.3550702e-06
7.8743581e-05
6.6871058e-06
7.5228694e-05
7.0014233e-06
7.1564935e-05
7.2978731e-06
6.7761323e-05
7.5763602e-06
6.3826899e-05
7.8368386e-06
5.9770706e-05
8.0793056e-06
5.5601771e-05
8.303795e-06
5.1329089e-05
8.5103719e-06
4.6961609e-05
8.6991257e-06
4.2508227e-05
8.8701643e-06
3.7977779e-05
9.0236079e-06
3.3379038e-05
9.1595837e-06
2.8720711e-05
9.2782196e-06
2.4011445e-05
9.3796398e-06
1.9259829e-05
9.46396e-06
1.4474399e-05
9.531283e-06
9.6636481e-06
9.5816955e-06
4.8360365e-06
9.6152651e-06
2.745898e-13
9.6320382e-06
-4.8360359e-06
9.6320382e-06
-9.6636476e-06
9.6152651e-06
-1.4474398e-05
9.5816955e-06
-1.9259829e-05
9.531283e-06
-2.4011445e-05
9.46396e-06
-2.8720711e-05
9.3796399e-06
-3.3379037e-05
9.2782196e-06
-3.7977779e-05
9.1595837e-06
-4.2508227e-05
9.023608e-06
-4.6961609e-05
8.8701643e-06
-5.1329089e-05
8.6991257e-06
-5.5601771e-05
8.5103719e-06
-5.9770706e-05
8.303795e-06
-6.3826898e-05
8.0793056e-06
-6.7761322e-05
7.8368387e-06
-7.1564934e-05
7.5763602e-06
-7.5228693e-05
7.2978731e-06
-7.8743581e-05
7.0014234e-06
-8.2100628e-05
6.6871059e-06
-8.529094e-05
6.3550702e-06
-8.8305728e-05
6.005526e-06
-9.1136343e-05
5.6387476e-06
-9.3774306e-05
5.2550789e-06
-9.6211352e-05
4.8549373e-06
-9.843946e-05
4.4388172e-06
-0.0001004509
4.0072928e-06
-0.00010223828
3.5610205e-06
-0.00010379456
3.1007408e-06
-0.00010511313
2.6272789e-06
-0.00010618783
2.1415457e-06
-0.00010701302
1.6445372e-06
-0.00010758357
1.1373335e-06
-0.00010789496
6.2109715e-07
-0.00010794328
9.7072368e-08
-0.00010772528
-4.3342238e-07
-0.00010723843
-9.6899186e-07
-0.00010648091
-1.5081729e-06
-0.00010545168
-2.0494378e-06
-0.0001041505
-2.5911997e-06
-0.00010257794
-3.1318193e-06
-0.00010073542
-3.6696115e-06
-9.8625228e-05
-4.2028523e-06
-9.6250536e-05
-4.7297876e-06
-9.36154e-05
-5.2486404e-06
-9.0724777e-05
-5.7576205e-06
-8.7584525e-05
-6.2549335e-06
-8.4201399e-05
-6.73879e-06
-8.0583045e-05
-7.2074158e-06
-7.6737986e-05
-7.6590619e-06
-7.2675606e-05
-8.0920144e-06
-6.8406127e-05
-8.5046047e-06
-6.3940578e-05
-8.89522e-06
-5.9290767e-05
-9.2623129e-06
-5.446924e-05
-9.6044112e-06
-4.9489238e-05
-9.9201278e-06
-4.4364654e-05
-1.0208169e-05
-3.9109977e-05
-1.0467345e-05
-3.3740238e-05
-1.0696575e-05
-2.8270951e-05
-1.0894896e-05
-2.271805e-05
-1.1061472e-05
-1.7097827e-05
-1.1195595e-05
-1.1426857e-05
-1.1296692e-05
-5.721935e-06
-1.1364333e-05
-1.1398226e-05
5.8057772e-06
-1.7204003e-05
1.1594311e-05
-1.7152866e-05
1.734843e-05
-1.7050812e-05
2.3051113e-05
-1.6898278e-05
2.8685557e-05
-1.6695916e-05
3.423525e-05
-1.6444589e-05
3.9684039e-05
-1.6145364e-05
4.5016198e-05
-1.5799504e-05
5.0216489e-05
-1.540846e-05
5.5270223e-05
-1.4973862e-05
6.0163316e-05
-1.4497505e-05
6.4882343e-05
-1.398134e-05
6.9414581e-05
-1.3427458e-05
7.3748057e-05
-1.283808e-05
7.7871581e-05
-1.2215539e-05
8.1774787e-05
-1.1562268e-05
8.5448152e-05
-1.0880781e-05
8.8883026e-05
-1.0173664e-05
9.2071646e-05
-9.4435535e-06
9.500715e-05
-8.6931246e-06
9.7683585e-05
-7.9250752e-06
0.00010009591
-7.1421109e-06
0.00010223999
-6.3469308e-06
0.00010411259
-5.542214e-06
0.00010571138
-4.7306056e-06
0.00010703488
-3.9147048e-06
0.0001080825
-3.0970529e-06
0.00010885444
-2.2801218e-06
0.00010935176
-1.4663048e-06
0.00010957624
-6.5790618e-07
0.00010953045
1.4286641e-07
0.00010921763
9.3390992e-07
0.00010864174
1.713232e-06
0.00010780732
2.4789564e-06
0.00010671953
3.2293279e-06
0.0001053841
3.9627152e-06
0.00010380722
4.6776139e-06
0.0001019956
5.3726476e-06
9.9956322e-05
6.0465686e-06
9.7696882e-05
6.698257e-06
9.52251e-05
7.3267194e-06
9.2549092e-05
7.931086e-06
8.9677232e-05
8.5106075e-06
8.6618108e-05
9.0646503e-06
8.3380486e-05
9.5926918e-06
7.9973278e-05
1.0094314e-05
7.6405504e-05
1.0569197e-05
7.2686266e-05
1.1017111e-05
6.8824718e-05
1.1437909e-05
6.4830039e-05
1.1831517e-05
6.0711416e-05
1.2197929e-05
5.6478021e-05
1.253719e-05
5.2138996e-05
1.2849397e-05
4.7703442e-05
1.313468e-05
4.3180407e-05
1.33932e-05
3.857888e-05
1.3625135e-05
3.390779e-05
1.3830674e-05
2.9176001e-05
1.4010008e-05
2.4392317e-05
1.4163324e-05
1.9565485e-05
1.4290792e-05
1.4704201e-05
1.4392568e-05
9.8171159e-06
1.446878e-05
4.9128503e-06
1.4519531e-05
2.7521331e-13
1.4544888e-05
-4.9128498e-06
1.4544888e-05
-9.8171153e-06
1.4519531e-05
-1.47042e-05
1.446878e-05
-1.9565485e-05
1.4392568e-05
-2.4392317e-05
1.4290792e-05
-2.9176001e-05
1.4163324e-05
-3.3907789e-05
1.4010008e-05
-3.857888e-05
1.3830674e-05
-4.3180406e-05
1.3625135e-05
-4.7703441e-05
1.33932e-05
-5.2138996e-05
1.313468e-05
-5.647802e-05
1.2849397e-05
-6.0711415e-05
1.253719e-05
-6.4830038e-05
1.2197929e-05
-6.8824717e-05
1.1831517e-05
-7.2686266e-05
1.1437909e-05
-7.6405504e-05
1.1017111e-05
-7.9973278e-05
1.0569197e-05
-8.3380486e-05
1.0094314e-05
-8.6618108e-05
9.5926919e-06
-8.9677232e-05
9.0646504e-06
-9.2549092e-05
8.5106075e-06
-9.5225099e-05
7.9310861e-06
-9.7696881e-05
7.3267195e-06
-9.9956321e-05
6.6982571e-06
-0.0001019956
6.0465687e-06
-0.00010380722
5.3726477e-06
-0.0001053841
4.6776139e-06
-0.00010671953
3.9627153e-06
-0.00010780732
3.229328e-06
-0.00010864174
2.4789565e-06
-0.00010921763
1.7132321e-06
-0.00010953045
9.3391e-07
-0.00010957624
1.428665e-07
-0.00010935176
-6.5790609e-07
-0.00010885444
-1.4663047e-06
-0.0001080825
-2.2801217e-06
-0.00010703488
-3.0970528e-06
-0.00010571138
-3.9147047e-06
-0.00010411259
-4.7306055e-06
-0.00010223999
-5.5422139e-06
-0.00010009591
-6.3469307e-06
-9.7683585e-05
-7.1421108e-06
-9.5007151e-05
-7.9250751e-06
-9.2071647e-05
-8.6931246e-06
-8.8883027e-05
-9.4435534e-06
-8.5448153e-05
-1.0173664e-05
-8.1774788e-05
-1.0880781e-05
-7.7871582e-05
-1.1562268e-05
-7.3748057e-05
-1.2215539e-05
-6.9414582e-05
-1.283808e-05
-6.4882344e-05
-1.3427458e-05
-6.0163317e-05
-1.398134e-05
-5.5270223e-05
-1.4497505e-05
-5.0216489e-05
-1.4973862e-05
-4.5016198e-05
-1.540846e-05
-3.9684039e-05
-1.5799504e-05
-3.423525e-05
-1.6145364e-05
-2.8685558e-05
-1.6444589e-05
-2.3051114e-05
-1.6695916e-05
-1.7348431e-05
-1.6898278e-05
-1.1594311e-05
-1.7050812e-05
-5.8057777e-06
-1.7152866e-05
-1.7204003e-05
5.9282995e-06
-2.3132303e-05
1.1839024e-05
-2.3063591e-05
1.7714672e-05
-2.292646e-05
2.3537894e-05
-2.27215e-05
2.9291563e-05
-2.2449585e-05
3.4958848e-05
-2.2111874e-05
4.0523284e-05
-2.17098e-05
4.5968839e-05
-2.1245058e-05
5.1279977e-05
-2.0719598e-05
5.6441722e-05
-2.0135607e-05
6.1439712e-05
-1.9495495e-05
6.6260254e-05
-1.8801882e-05
7.0890371e-05
-1.8057575e-05
7.5317846e-05
-1.7265556e-05
7.9531263e-05
-1.6428956e-05
8.3520036e-05
-1.5551041e-05
8.7274443e-05
-1.4635187e-05
9.0785643e-05
-1.3684864e-05
9.4045701e-05
-1.2703611e-05
9.7047596e-05
-1.169502e-05
9.978523e-05
-1.066271e-05
0.00010225343
-9.6103138e-06
0.00010444796
-8.5414545e-06
0.00010636547
-7.4597279e-06
0.00010800355
-6.368685e-06
0.00010936066
-5.2718151e-06
0.00011043614
-4.1725301e-06
0.00011123017
-3.0741495e-06
0.00011174375
-1.9798869e-06
0.00011197868
-8.928378e-07
0.00011193751
1.8403219e-07
0.00011162353
1.247897e-06
0.00011104068
2.2960784e-06
0.00011019358
3.3260537e-06
0.00010908745
4.335462e-06
0.00010772806
5.3221081e-06
0.0001061217
6.2839666e-06
0.00010427517
7.2191833e-06
0.00010219566
8.1260762e-06
9.9890782e-05
9.0031345e-06
9.7368485e-05
9.8490165e-06
9.4637025e-05
1.0662546e-05
9.1704922e-05
1.144271e-05
8.8580925e-05
1.2188647e-05
8.5273969e-05
1.2899648e-05
8.179314e-05
1.3575143e-05
7.8147645e-05
1.4214693e-05
7.4346776e-05
1.481798e-05
7.0399886e-05
1.5384799e-05
6.6316362e-05
1.5915042e-05
6.2105599e-05
1.6408691e-05
5.7776987e-05
1.6865803e-05
5.3339888e-05
1.7286495e-05
4.8803628e-05
1.767094e-05
4.4177484e-05
1.8019343e-05
3.9470678e-05
1.8331941e-05
3.4692373e-05
1.8608979e-05
2.985167e-05
1.8850711e-05
2.4957612e-05
1.9057381e-05
2.0019187e-05
1.9229217e-05
1.5045333e-05
1.9366422e-05
1.0044945e-05
1.9469168e-05
5.0268873e-06
1.9537588e-05
2.7600602e-13
1.9571775e-05
-5.0268867e-06
1.9571775e-05
-1.0044944e-05
1.9537588e-05
-1.5045332e-05
1.9469168e-05
-2.0019186e-05
1.9366422e-05
-2.4957611e-05
1.9229217e-05
-2.9851669e-05
1.9057381e-05
-3.4692372e-05
1.8850712e-05
-3.9470678e-05
1.8608979e-05
-4.4177484e-05
1.8331941e-05
-4.8803628e-05
1.8019343e-05
-5.3339887e-05
1.767094e-05
-5.7776986e-05
1.7286495e-05
-6.2105599e-05
1.6865803e-05
-6.6316361e-05
1.6408691e-05
-7.0399886e-05
1.5915042e-05
-7.4346776e-05
1.5384799e-05
-7.8147644e-05
1.481798e-05
-8.179314e-05
1.4214693e-05
-8.5273969e-05
1.3575143e-05
-8.8580925e-05
1.2899648e-05
-9.1704922e-05
1.2188647e-05
-9.4637024e-05
1.144271e-05
-9.7368485e-05
1.0662547e-05
-9.9890782e-05
9.8490166e-06
-0.00010219566
9.0031346e-06
-0.00010427517
8.1260763e-06
-0.0001061217
7.2191834e-06
-0.00010772806
6.2839667e-06
-0.00010908745
5.3221082e-06
-0.00011019358
4.3354621e-06
-0.00011104068
3.3260538e-06
-0.00011162353
2.2960785e-06
-0.00011193751
1.2478971e-06
-0.00011197868
1.840323e-07
-0.00011174375
-8.9283769e-07
-0.00011123017
-1.9798868e-06
-0.00011043614
-3.0741494e-06
-0.00010936066
-4.17253e-06
-0.00010800355
-5.271815e-06
-0.00010636547
-6.3686849e-06
-0.00010444796
-7.4597278e-06
-0.00010225343
-8.5414544e-06
-9.9785231e-05
-9.6103137e-06
-9.7047596e-05
-1.066271e-05
-9.4045701e-05
-1.169502e-05
-9.0785643e-05
-1.2703611e-05
-8.7274443e-05
-1.3684864e-05
-8.3520037e-05
-1.4635187e-05
-7.9531264e-05
-1.5551041e-05
-7.5317847e-05
-1.6428956e-05
-7.0890371e-05
-1.7265556e-05
-6.6260254e-05
-1.8057575e-05
-6.1439712e-05
-1.8801881e-05
-5.6441722e-05
-1.9495495e-05
-5.1279977e-05
-2.0135607e-05
-4.5968839e-05
-2.0719598e-05
-4.0523285e-05
-2.1245058e-05
-3.4958849e-05
-2.17098e-05
-2.9291564e-05
-2.2111874e-05
-2.3537894e-05
-2.2449585e-05
-1.7714672e-05
-2.27215e-05
-1.1839024e-05
-2.292646e-05
-5.9283e-06
-2.3063591e-05
-2.3132303e-05
6.089571e-06
-2.9221874e-05
1.2161134e-05
-2.9135154e-05
1.8196759e-05
-2.8962085e-05
2.4178666e-05
-2.8703407e-05
3.0089308e-05
-2.8360226e-05
3.5911436e-05
-2.7934002e-05
4.1628177e-05
-2.7426541e-05
4.72231e-05
-2.6839981e-05
5.2680281e-05
-2.6176779e-05
5.7984367e-05
-2.5439693e-05
6.3120633e-05
-2.4631761e-05
6.8075035e-05
-2.3756284e-05
7.2834264e-05
-2.2816804e-05
7.7385784e-05
-2.1817076e-05
8.1717876e-05
-2.0761048e-05
8.5819669e-05
-1.9652835e-05
8.9681175e-05
-1.8496693e-05
9.3293306e-05
-1.7296995e-05
9.6647895e-05
-1.60582e-05
9.973771e-05
-1.4784835e-05
0.00010255646
-1.3481463e-05
0.00010509881
-1.2152659e-05
0.00010736034
-1.0802991e-05
0.00010933761
-9.4369908e-06
0.00011102806
-8.0591339e-06
0.00011243006
-6.673819e-06
0.00011354288
-5.2853477e-06
0.00011436663
-3.8979058e-06
0.00011490229
-2.5155462e-06
0.00011515163
-1.1421739e-06
0.00011511719
2.1846892e-07
0.00011480228
1.5628152e-06
0.00011421087
2.8874826e-06
0.00011334764
4.1892847e-06
0.00011221786
5.4652371e-06
0.00011082741
6.712564e-06
0.00010918267
7.9287019e-06
0.00010729055
9.1113026e-06
0.0001051584
1.0258234e-05
0.00010279395
1.1367578e-05
0.00010020534
1.2437631e-05
9.740099e-05
1.3466896e-05
9.4389621e-05
1.4454079e-05
9.1180185e-05
1.5398083e-05
8.7781837e-05
1.6297996e-05
8.4203896e-05
1.7153084e-05
8.0455809e-05
1.7962779e-05
7.6547123e-05
1.8726666e-05
7.2487451e-05
1.944447e-05
6.8286452e-05
2.0116041e-05
6.3953802e-05
2.0741342e-05
5.9499175e-05
2.1320429e-05
5.4932231e-05
2.185344e-05
5.0262593e-05
2.2340578e-05
4.5499844e-05
2.2782092e-05
4.0653516e-05
2.3178268e-05
3.5733086e-05
2.3529409e-05
3.0747974e-05
2.3835824e-05
2.5707543e-05
2.4097812e-05
2.0621105e-05
2.4315655e-05
1.5497924e-05
2.4489604e-05
1.0347221e-05
2.461987e-05
5.1781903e-06
2.4706619e-05
2.7691573e-13
2.4749965e-05
-5.1781898e-06
2.4749965e-05
-1.0347221e-05
2.4706619e-05
-1.5497923e-05
2.461987e-05
-2.0621105e-05
2.4489604e-05
-2.5707543e-05
2.4315655e-05
-3.0747973e-05
2.4097812e-05
-3.5733085e-05
2.3835824e-05
-4.0653515e-05
2.3529409e-05
-4.5499843e-05
2.3178269e-05
-5.0262592e-05
2.2782092e-05
-5.493223e-05
2.2340578e-05
-5.9499175e-05
2.185344e-05
-6.3953801e-05
2.1320429e-05
-6.8286452e-05
2.0741342e-05
-7.2487451e-05
2.0116041e-05
-7.6547122e-05
1.944447e-05
-8.0455809e-05
1.8726666e-05
-8.4203896e-05
1.796278e-05
-8.7781837e-05
1.7153084e-05
-9.1180185e-05
1.6297996e-05
-9.438962e-05
1.5398083e-05
-9.740099e-05
1.4454079e-05
-0.00010020534
1.3466896e-05
-0.00010279395
1.2437631e-05
-0.0001051584
1.1367578e-05
-0.00010729055
1.0258234e-05
-0.00010918267
9.1113027e-06
-0.00011082741
7.928702e-06
-0.00011221786
6.7125641e-06
-0.00011334764
5.4652373e-06
-0.00011421087
4.1892848e-06
-0.00011480228
2.8874827e-06
-0.00011511719
1.5628153e-06
-0.00011515163
2.1846906e-07
-0.00011490229
-1.1421738e-06
-0.00011436663
-2.5155461e-06
-0.00011354288
-3.8979056e-06
-0.00011243006
-5.2853476e-06
-0.00011102806
-6.6738189e-06
-0.00010933761
-8.0591337e-06
-0.00010736035
-9.4369907e-06
-0.00010509881
-1.0802991e-05
-0.00010255646
-1.2152659e-05
-9.973771e-05
-1.3481462e-05
-9.6647895e-05
-1.4784835e-05
-9.3293306e-05
-1.60582e-05
-8.9681176e-05
-1.7296995e-05
-8.581967e-05
-1.8496693e-05
-8.1717876e-05
-1.9652835e-05
-7.7385784e-05
-2.0761048e-05
-7.2834265e-05
-2.1817076e-05
-6.8075036e-05
-2.2816804e-05
-6.3120633e-05
-2.3756284e-05
-5.7984367e-05
-2.4631761e-05
-5.2680281e-05
-2.5439692e-05
-4.72231e-05
-2.6176779e-05
-4.1628178e-05
-2.6839981e-05
-3.5911436e-05
-2.7426541e-05
-3.0089308e-05
-2.7934002e-05
-2.4178667e-05
-2.8360226e-05
-1.8196759e-05
-2.8703407e-05
-1.2161135e-05
-2.8962085e-05
-6.0895715e-06
-2.9135154e-05
-2.9221874e-05
6.2892414e-06
-3.5511116e-05
1.2559943e-05
-3.5405855e-05
1.8793642e-05
-3.5195784e-05
2.4972035e-05
-3.48818e-05
3.1077051e-05
-3.4465243e-05
3.7090931e-05
-3.3947883e-05
4.2996298e-05
-3.3331908e-05
4.8776228e-05
-3.2619911e-05
5.4414319e-05
-3.181487e-05
5.9894754e-05
-3.0920127e-05
6.5202358e-05
-2.9939365e-05
7.0322658e-05
-2.8876585e-05
7.524193e-05
-2.7736076e-05
7.9947246e-05
-2.6522391e-05
8.4426512e-05
-2.5240314e-05
8.8668507e-05
-2.389483e-05
9.2662911e-05
-2.2491097e-05
9.6400328e-05
-2.1034411e-05
9.9872306e-05
-1.9530178e-05
0.00010307135
-1.798388e-05
0.00010599093
-1.6401045e-05
0.00010862549
-1.4787218e-05
0.00011097043
-1.3147933e-05
0.00011302212
-1.1488682e-05
0.00011477788
-9.8148871e-06
0.00011623594
-8.1318812e-06
0.00011739547
-6.4448781e-06
0.00011825652
-4.7589532e-06
0.00011881999
-3.0790219e-06
0.00011908764
-1.4098212e-06
0.000119062
2.4410747e-07
0.00011874638
1.8784334e-06
0.00011814482
3.4890484e-06
0.00011726202
5.07208e-06
0.00011610336
6.623899e-06
0.0001146748
8.1411272e-06
0.00011298286
9.6206426e-06
0.00011103458
1.1059582e-05
0.00010883747
1.2455344e-05
0.00010639946
1.3805584e-05
0.00010372888
1.5108216e-05
0.00010083437
1.6361404e-05
9.7724889e-05
1.7563559e-05
9.4409645e-05
1.8713326e-05
9.0898062e-05
1.9809579e-05
8.7199743e-05
2.0851404e-05
8.3324434e-05
2.1838088e-05
7.9281996e-05
2.2769105e-05
7.5082368e-05
2.3644098e-05
7.0735543e-05
2.4462865e-05
6.6251547e-05
2.5225338e-05
6.1640411e-05
2.5931564e-05
5.691216e-05
2.6581692e-05
5.2076791e-05
2.7175946e-05
4.7144269e-05
2.7714614e-05
4.2124514e-05
2.8198024e-05
3.7027394e-05
2.8626529e-05
3.1862729e-05
2.9000489e-05
2.6640282e-05
2.9320258e-05
2.1369772e-05
2.9586165e-05
1.6060869e-05
2.9798507e-05
1.0723207e-05
2.9957532e-05
5.3663901e-06
3.0063437e-05
2.7785318e-13
3.0116355e-05
-5.3663895e-06
3.0116355e-05
-1.0723207e-05
3.0063437e-05
-1.6060869e-05
2.9957532e-05
-2.1369772e-05
2.9798507e-05
-2.6640282e-05
2.9586165e-05
-3.1862728e-05
2.9320258e-05
-3.7027394e-05
2.9000489e-05
-4.2124513e-05
2.8626529e-05
-4.7144269e-05
2.8198024e-05
-5.2076791e-05
2.7714614e-05
-5.6912159e-05
2.7175946e-05
-6.1640411e-05
2.6581692e-05
-6.6251547e-05
2.5931564e-05
-7.0735543e-05
2.5225338e-05
-7.5082367e-05
2.4462866e-05
-7.9281996e-05
2.3644099e-05
-8.3324434e-05
2.2769105e-05
-8.7199742e-05
2.1838088e-05
-9.0898062e-05
2.0851404e-05
-9.4409645e-05
1.9809579e-05
-9.7724889e-05
1.8713326e-05
-0.00010083437
1.7563559e-05
-0.00010372888
1.6361404e-05
-0.00010639946
1.5108216e-05
-0.00010883747
1.3805584e-05
-0.00011103458
1.2455344e-05
-0.00011298286
1.1059582e-05
-0.0001146748
9.6206428e-06
-0.00011610336
8.1411273e-06
-0.00011726202
6.6238991e-06
-0.00011814482
5.0720801e-06
-0.00011874638
3.4890486e-06
-0.000119062
1.8784336e-06
-0.00011908764
2.4410764e-07
-0.00011881999
-1.409821e-06
-0.00011825652
-3.0790218e-06
-0.00011739547
-4.7589531e-06
-0.00011623594
-6.444878e-06
-0.00011477788
-8.131881e-06
-0.00011302212
-9.8148869e-06
-0.00011097043
-1.1488681e-05
-0.00010862549
-1.3147933e-05
-0.00010599093
-1.4787218e-05
-0.00010307135
-1.6401045e-05
-9.9872306e-05
-1.798388e-05
-9.6400328e-05
-1.9530178e-05
-9.2662911e-05
-2.1034411e-05
-8.8668507e-05
-2.2491097e-05
-8.4426512e-05
-2.389483e-05
-7.9947246e-05
-2.5240314e-05
-7.5241931e-05
-2.6522391e-05
-7.0322659e-05
-2.7736076e-05
-6.5202359e-05
-2.8876584e-05
-5.9894754e-05
-2.9939365e-05
-5.441432e-05
-3.0920127e-05
-4.8776229e-05
-3.181487e-05
-4.2996299e-05
-3.2619911e-05
-3.7090932e-05
-3.3331908e-05
-3.1077052e-05
-3.3947882e-05
-2.4972035e-05
-3.4465243e-05
-1.8793642e-05
-3.48818e-05
-1.2559943e-05
-3.5195784e-05
-6.289242e-06
-3.5405855e-05
-3.5511116e-05
6.526547e-06
-4.2037663e-05
1.3033923e-05
-4.1913231e-05
1.9503036e-05
-4.1664897e-05
2.5914959e-05
-4.1293723e-05
3.2251005e-05
-4.0801289e-05
3.8492805e-05
-4.0189683e-05
4.4622387e-05
-3.9461489e-05
5.0622243e-05
-3.8619767e-05
5.6475404e-05
-3.7668031e-05
6.2165501e-05
-3.6610224e-05
6.767683e-05
-3.5450693e-05
7.2994404e-05
-3.4194159e-05
7.810401e-05
-3.2845682e-05
8.2992253e-05
-3.1410634e-05
8.7646598e-05
-2.9894658e-05
9.2055404e-05
-2.8303636e-05
9.6207958e-05
-2.6643651e-05
0.0001000945
-2.4920952e-05
0.00010370623
-2.3141914e-05
0.00010703536
-2.1313003e-05
0.00011007505
-1.9440741e-05
0.00011281951
-1.753167e-05
0.00011526389
-1.5592315e-05
0.00011740436
-1.3629155e-05
0.00011923807
-1.1648592e-05
0.0001207631
-9.6569158e-06
0.0001219785
-7.6602813e-06
0.00012288423
-5.6646803e-06
0.00012348113
-3.6759179e-06
0.0001237709
-1.6995901e-06
0.00012375607
2.5893555e-07
0.00012343996
2.1945384e-06
0.00012282665
4.102358e-06
0.00012192092
5.9778096e-06
0.00012072823
7.8165936e-06
0.00011925465
9.6147044e-06
0.00011750686
1.1368436e-05
0.00011549205
1.3074387e-05
0.00011321794
1.472946e-05
0.00011069266
1.6330863e-05
0.00010792477
1.7876104e-05
0.00010492319
1.9362987e-05
0.00010169714
2.0789605e-05
9.8256139e-05
2.2154328e-05
9.4609926e-05
2.3455792e-05
9.0768444e-05
2.4692886e-05
8.6741794e-05
2.5864737e-05
8.2540208e-05
2.6970691e-05
7.8174012e-05
2.8010294e-05
7.3653601e-05
2.8983276e-05
6.8989414e-05
2.9889525e-05
6.4191908e-05
3.072907e-05
5.9271545e-05
3.1502055e-05
5.4238769e-05
3.2208722e-05
4.9104e-05
3.2849383e-05
4.3877621e-05
3.3424403e-05
3.8569971e-05
3.3934179e-05
3.3191345e-05
3.4379116e-05
2.7751988e-05
3.4759615e-05
2.2262103e-05
3.507605e-05
1.6731849e-05
3.532876e-05
1.1171353e-05
3.5518028e-05
5.5907106e-06
3.5644079e-05
2.7871936e-13
3.5707065e-05
-5.59071e-06
3.5707065e-05
-1.1171352e-05
3.5644079e-05
-1.6731849e-05
3.5518028e-05
-2.2262102e-05
3.532876e-05
-2.7751987e-05
3.5076051e-05
-3.3191344e-05
3.4759615e-05
-3.8569971e-05
3.4379116e-05
-4.3877621e-05
3.3934179e-05
-4.9104e-05
3.3424403e-05
-5.4238769e-05
3.2849383e-05
-5.9271544e-05
3.2208722e-05
-6.4191908e-05
3.1502055e-05
-6.8989413e-05
3.072907e-05
-7.3653601e-05
2.9889525e-05
-7.8174012e-05
2.8983276e-05
-8.2540208e-05
2.8010295e-05
-8.6741794e-05
2.6970691e-05
-9.0768443e-05
2.5864737e-05
-9.4609926e-05
2.4692886e-05
-9.8256138e-05
2.3455792e-05
-0.00010169714
2.2154328e-05
-0.00010492319
2.0789605e-05
-0.00010792477
1.9362987e-05
-0.00011069266
1.7876104e-05
-0.00011321794
1.6330863e-05
-0.00011549205
1.472946e-05
-0.00011750686
1.3074387e-05
-0.00011925465
1.1368436e-05
-0.00012072823
9.6147046e-06
-0.00012192092
7.8165938e-06
-0.00012282665
5.9778098e-06
-0.00012343996
4.1023581e-06
-0.00012375607
2.1945386e-06
-0.0001237709
2.5893574e-07
-0.00012348113
-1.6995899e-06
-0.00012288423
-3.6759177e-06
-0.0001219785
-5.6646801e-06
-0.0001207631
-7.6602811e-06
-0.00011923807
-9.6569156e-06
-0.00011740436
-1.1648592e-05
-0.00011526389
-1.3629155e-05
-0.00011281951
-1.5592314e-05
-0.00011007505
-1.7531669e-05
-0.00010703536
-1.9440741e-05
-0.00010370623
-2.1313003e-05
-0.0001000945
-2.3141914e-05
-9.6207959e-05
-2.4920952e-05
-9.2055404e-05
-2.6643651e-05
-8.7646598e-05
-2.8303636e-05
-8.2992254e-05
-2.9894658e-05
-7.8104011e-05
-3.1410634e-05
-7.2994404e-05
-3.2845682e-05
-6.767683e-05
-3.4194159e-05
-6.2165501e-05
-3.5450693e-05
-5.6475404e-05
-3.6610224e-05
-5.0622243e-05
-3.7668031e-05
-4.4622387e-05
-3.8619767e-05
-3.8492806e-05
-3.9461489e-05
-3.2251006e-05
-4.0189683e-05
-2.591496e-05
-4.0801289e-05
-1.9503037e-05
-4.1293723e-05
-1.3033923e-05
-4.1664897e-05
-6.5265475e-06
-4.1913231e-05
-4.2037663e-05
6.8003212e-06
-4.8837985e-05
1.3580744e-05
-4.8693653e-05
2.0321452e-05
-4.8405606e-05
2.70028e-05
-4.7975071e-05
3.3605387e-05
-4.7403876e-05
4.0110147e-05
-4.6694443e-05
4.6498419e-05
-4.5849761e-05
5.2752023e-05
-4.4873372e-05
5.8853337e-05
-4.3769345e-05
6.4785358e-05
-4.2542245e-05
7.0531769e-05
-4.1197104e-05
7.6076994e-05
-3.9739384e-05
8.1406257e-05
-3.8174945e-05
8.6505623e-05
-3.6510001e-05
9.1362048e-05
-3.4751083e-05
9.596341e-05
-3.2904998e-05
0.00010029854
-3.0978785e-05
0.00010435727
-2.8979674e-05
0.00010813039
-2.691504e-05
0.00011160975
-2.4792365e-05
0.00011478821
-2.2619196e-05
0.00011765964
-2.0403101e-05
0.00012021896
-1.815163e-05
0.00012246208
-1.5872284e-05
0.00012438596
-1.3572467e-05
0.00012598851
-1.1259465e-05
0.00012726863
-8.9404016e-06
0.00012822617
-6.6222179e-06
0.00012886189
-4.3116389e-06
0.00012917745
-2.015151e-06
0.00012917536
2.6102196e-07
0.00012885896
2.5109387e-06
0.00012823236
4.7289562e-06
0.00012730042
6.9097477e-06
0.00012606871
9.0483134e-06
0.00012454342
1.1139991e-05
0.00012273139
1.3180462e-05
0.00012064002
1.5165757e-05
0.00011827723
1.7092256e-05
0.0001156514
1.8956693e-05
0.00011277136
2.0756142e-05
0.00010964632
2.2488023e-05
0.00010628584
2.4150086e-05
0.00010269977
2.57404e-05
9.8898217e-05
2.7257344e-05
9.4891515e-05
2.8699588e-05
9.0690177e-05
3.0066076e-05
8.630486e-05
3.1356008e-05
8.1746339e-05
3.2568815e-05
7.7025472e-05
3.3704143e-05
7.2153176e-05
3.4761822e-05
6.7140401e-05
3.5741845e-05
6.1998113e-05
3.6644343e-05
5.6737275e-05
3.746956e-05
5.1368832e-05
3.8217825e-05
4.5903705e-05
3.888953e-05
4.0352778e-05
3.9485106e-05
3.4726895e-05
4.0004999e-05
2.9036862e-05
4.0449648e-05
2.3293442e-05
4.081947e-05
1.7507363e-05
4.1114839e-05
1.1689319e-05
4.1336072e-05
5.8499812e-06
4.1483417e-05
2.7946348e-13
4.1557046e-05
-5.8499807e-06
4.1557046e-05
-1.1689319e-05
4.1483417e-05
-1.7507362e-05
4.1336072e-05
-2.3293442e-05
4.1114839e-05
-2.9036861e-05
4.081947e-05
-3.4726895e-05
4.0449648e-05
-4.0352777e-05
4.0004999e-05
-4.5903705e-05
3.9485106e-05
-5.1368832e-05
3.888953e-05
-5.6737274e-05
3.8217825e-05
-6.1998112e-05
3.746956e-05
-6.71404e-05
3.6644343e-05
-7.2153175e-05
3.5741845e-05
-7.7025472e-05
3.4761822e-05
-8.1746339e-05
3.3704143e-05
-8.630486e-05
3.2568816e-05
-9.0690176e-05
3.1356008e-05
-9.4891515e-05
3.0066076e-05
-9.8898217e-05
2.8699588e-05
-0.00010269977
2.7257344e-05
-0.00010628584
2.57404e-05
-0.00010964632
2.4150086e-05
-0.00011277136
2.2488024e-05
-0.0001156514
2.0756142e-05
-0.00011827723
1.8956693e-05
-0.00012064002
1.7092257e-05
-0.00012273139
1.5165757e-05
-0.00012454342
1.3180462e-05
-0.00012606871
1.1139991e-05
-0.00012730042
9.0483136e-06
-0.00012823236
6.9097479e-06
-0.00012885896
4.7289564e-06
-0.00012917536
2.510939e-06
-0.00012917745
2.6102218e-07
-0.00012886189
-2.0151507e-06
-0.00012822617
-4.3116387e-06
-0.00012726863
-6.6222177e-06
-0.00012598851
-8.9404014e-06
-0.00012438596
-1.1259464e-05
-0.00012246208
-1.3572467e-05
-0.00012021896
-1.5872283e-05
-0.00011765964
-1.815163e-05
-0.00011478821
-2.04031e-05
-0.00011160975
-2.2619196e-05
-0.00010813039
-2.4792365e-05
-0.00010435727
-2.691504e-05
-0.00010029854
-2.8979674e-05
-9.5963411e-05
-3.0978785e-05
-9.1362048e-05
-3.2904998e-05
-8.6505624e-05
-3.4751083e-05
-8.1406257e-05
-3.651e-05
-7.6076995e-05
-3.8174945e-05
-7.0531769e-05
-3.9739384e-05
-6.4785359e-05
-4.1197104e-05
-5.8853338e-05
-4.2542245e-05
-5.2752024e-05
-4.3769345e-05