/*--------------------------------*- C++ -*----------------------------------*\
| =========                 |                                                 |
| \\      /  F ield         | OpenFOAM: The Open Source CFD Toolbox           |
|  \\    /   O peration     | Version:  2106                                  |
|   \\  /    A nd           | Website:  www.openfoam.com                      |
|    \\/     M anipulation  |                                                 |
\*---------------------------------------------------------------------------*/
FoamFile
{
    version     2.0;
    format      ascii;
    arch        "LSB;label=32;scalar=64";
    class       volVectorField;
    location    "0.03";
    object      U_0;
}
// * * * * * * * * * * * * * * * * * * * * * * * * * * * * * * * * * * * * * //

dimensions      [0 1 -1 0 0 0 0];

internalField   nonuniform List<vector> 
16384
(
(0.00036243297 -0.00036171238 0)
(0.0010862202 -0.000360636 0)
(0.0018067755 -0.00035848785 0)
(0.0025219599 -0.00035527717 0)
(0.0032296572 -0.00035101769 0)
(0.0039277834 -0.00034572761 0)
(0.0046142952 -0.0003394294 0)
(0.0052871985 -0.0003321497 0)
(0.0059445569 -0.0003239191 0)
(0.0065844986 -0.00031477193 0)
(0.0072052247 -0.00030474606 0)
(0.0078050151 -0.00029388261 0)
(0.0083822355 -0.00028222567 0)
(0.0089353426 -0.00026982206 0)
(0.0094628893 -0.00025672097 0)
(0.0099635294 -0.00024297369 0)
(0.010436021 -0.00022863326 0)
(0.010879231 -0.00021375417 0)
(0.011292135 -0.00019839204 0)
(0.011673822 -0.00018260327 0)
(0.012023495 -0.00016644474 0)
(0.01234047 -0.00014997352 0)
(0.012624178 -0.0001332465 0)
(0.012874163 -0.00011632016 0)
(0.013090084 -9.9250281e-05 0)
(0.013271706 -8.209163e-05 0)
(0.013418908 -6.4897764e-05 0)
(0.01353167 -4.7720772e-05 0)
(0.013610079 -3.0611066e-05 0)
(0.013654317 -1.3617203e-05 0)
(0.013664665 3.2143745e-06 0)
(0.013641492 1.9839295e-05 0)
(0.013585255 3.6216066e-05 0)
(0.013496493 5.2304844e-05 0)
(0.013375819 6.8068826e-05 0)
(0.013223919 8.3473797e-05 0)
(0.013041545 9.84882e-05 0)
(0.012829509 0.00011308319 0)
(0.012588678 0.00012723265 0)
(0.01231997 0.00014091317 0)
(0.012024344 0.000154104 0)
(0.011702801 0.00016678704 0)
(0.011356374 0.00017894669 0)
(0.010986126 0.00019056985 0)
(0.010593143 0.00020164571 0)
(0.01017853 0.0002121657 0)
(0.0097434087 0.0002221233 0)
(0.0092889096 0.0002315139 0)
(0.0088161725 0.00024033463 0)
(0.0083263404 0.00024858414 0)
(0.007820558 0.0002562625 0)
(0.0072999683 0.0002633709 0)
(0.0067657112 0.00026991153 0)
(0.0062189209 0.00027588735 0)
(0.0056607255 0.0002813019 0)
(0.0050922453 0.00028615909 0)
(0.0045145925 0.00029046305 0)
(0.003928871 0.00029421793 0)
(0.0033361763 0.00029742777 0)
(0.0027375963 0.00030009628 0)
(0.0021342116 0.00030222679 0)
(0.0015270968 0.0003038221 0)
(0.00091732129 0.0003048844 0)
(0.00030595091 0.00030541517 0)
(-0.00030595084 0.00030541517 0)
(-0.00091732122 0.0003048844 0)
(-0.0015270967 0.0003038221 0)
(-0.0021342115 0.00030222679 0)
(-0.0027375962 0.00030009628 0)
(-0.0033361762 0.00029742777 0)
(-0.0039288709 0.00029421794 0)
(-0.0045145924 0.00029046305 0)
(-0.0050922453 0.00028615909 0)
(-0.0056607255 0.0002813019 0)
(-0.0062189209 0.00027588735 0)
(-0.0067657111 0.00026991153 0)
(-0.0072999683 0.0002633709 0)
(-0.0078205579 0.0002562625 0)
(-0.0083263404 0.00024858415 0)
(-0.0088161724 0.00024033463 0)
(-0.0092889096 0.0002315139 0)
(-0.0097434086 0.0002221233 0)
(-0.01017853 0.0002121657 0)
(-0.010593143 0.00020164571 0)
(-0.010986126 0.00019056985 0)
(-0.011356374 0.0001789467 0)
(-0.011702801 0.00016678704 0)
(-0.012024344 0.000154104 0)
(-0.01231997 0.00014091317 0)
(-0.012588678 0.00012723265 0)
(-0.012829509 0.00011308319 0)
(-0.013041545 9.8488202e-05 0)
(-0.013223919 8.3473799e-05 0)
(-0.013375819 6.8068827e-05 0)
(-0.013496493 5.2304846e-05 0)
(-0.013585255 3.6216067e-05 0)
(-0.013641492 1.9839297e-05 0)
(-0.013664665 3.2143763e-06 0)
(-0.013654317 -1.3617201e-05 0)
(-0.013610079 -3.0611064e-05 0)
(-0.01353167 -4.772077e-05 0)
(-0.013418908 -6.4897763e-05 0)
(-0.013271706 -8.2091628e-05 0)
(-0.013090084 -9.9250279e-05 0)
(-0.012874164 -0.00011632016 0)
(-0.012624178 -0.0001332465 0)
(-0.01234047 -0.00014997352 0)
(-0.012023495 -0.00016644474 0)
(-0.011673822 -0.00018260327 0)
(-0.011292135 -0.00019839204 0)
(-0.010879231 -0.00021375417 0)
(-0.010436021 -0.00022863326 0)
(-0.0099635294 -0.00024297369 0)
(-0.0094628894 -0.00025672097 0)
(-0.0089353427 -0.00026982206 0)
(-0.0083822356 -0.00028222567 0)
(-0.0078050152 -0.00029388261 0)
(-0.0072052247 -0.00030474606 0)
(-0.0065844987 -0.00031477193 0)
(-0.0059445569 -0.0003239191 0)
(-0.0052871986 -0.0003321497 0)
(-0.0046142952 -0.0003394294 0)
(-0.0039277834 -0.00034572761 0)
(-0.0032296573 -0.00035101769 0)
(-0.0025219599 -0.00035527717 0)
(-0.0018067756 -0.00035848785 0)
(-0.0010862202 -0.000360636 0)
(-0.00036243304 -0.00036171238 0)
(0.00036535377 -0.0010873377 0)
(0.0010949741 -0.0010841021 0)
(0.0018213372 -0.0010776447 0)
(0.0025422871 -0.0010679933 0)
(0.0032556911 -0.0010551892 0)
(0.0039594489 -0.0010392872 0)
(0.0046515011 -0.0010203547 0)
(0.005329838 -0.00099847178 0)
(0.0059925078 -0.0009737305 0)
(0.0066376244 -0.00094623406 0)
(0.0072633746 -0.00091609626 0)
(0.0078680249 -0.0008834407 0)
(0.0084499281 -0.00084839999 0)
(0.0090075288 -0.0008111148 0)
(0.0095393686 -0.00077173302 0)
(0.010044091 -0.00073040882 0)
(0.010520443 -0.00068730164 0)
(0.010967284 -0.00064257528 0)
(0.011383581 -0.00059639688 0)
(0.011768415 -0.000548936 0)
(0.012120983 -0.0005003636 0)
(0.012440595 -0.00045085117 0)
(0.012726678 -0.00040056976 0)
(0.012978771 -0.00034968911 0)
(0.013196529 -0.00029837682 0)
(0.013379716 -0.00024679756 0)
(0.013528208 -0.00019511227 0)
(0.013641986 -0.00014347751 0)
(0.013721134 -9.2044789e-05 0)
(0.013765838 -4.0960007e-05 0)
(0.013776377 9.6371148e-06 0)
(0.013753124 5.9613774e-05 0)
(0.013696537 0.00010884395 0)
(0.013607159 0.00015720894 0)
(0.013485608 0.00020459794 0)
(0.013332572 0.00025090802 0)
(0.01314881 0.0002960443 0)
(0.012935139 0.00033992005 0)
(0.012692432 0.00038245676 0)
(0.012421611 0.00042358401 0)
(0.012123646 0.00046323944 0)
(0.011799543 0.00050136856 0)
(0.011450344 0.00053792451 0)
(0.011077118 0.0005728678 0)
(0.010680961 0.00060616597 0)
(0.010262987 0.0006377932 0)
(0.0098243241 0.00066772987 0)
(0.0093661144 0.00069596207 0)
(0.0088895059 0.00072248112 0)
(0.0083956513 0.00074728301 0)
(0.0078857047 0.00077036784 0)
(0.0073608189 0.00079173922 0)
(0.0068221432 0.00081140368 0)
(0.0062708219 0.0008293701 0)
(0.0057079928 0.00084564909 0)
(0.005134786 0.00086025243 0)
(0.0045523235 0.0008731925 0)
(0.003961719 0.00088448178 0)
(0.0033640779 0.00089413234 0)
(0.0027604979 0.0009021554 0)
(0.0021520694 0.00090856094 0)
(0.0015398767 0.00091335737 0)
(0.00092499897 0.00091655124 0)
(0.00030851176 0.00091814704 0)
(-0.00030851169 0.00091814704 0)
(-0.0009249989 0.00091655124 0)
(-0.0015398766 0.00091335737 0)
(-0.0021520694 0.00090856094 0)
(-0.0027604979 0.0009021554 0)
(-0.0033640779 0.00089413234 0)
(-0.0039617189 0.00088448178 0)
(-0.0045523234 0.0008731925 0)
(-0.0051347859 0.00086025243 0)
(-0.0057079928 0.00084564909 0)
(-0.0062708219 0.0008293701 0)
(-0.0068221431 0.00081140368 0)
(-0.0073608188 0.00079173922 0)
(-0.0078857047 0.00077036784 0)
(-0.0083956513 0.00074728302 0)
(-0.0088895058 0.00072248112 0)
(-0.0093661143 0.00069596207 0)
(-0.0098243241 0.00066772987 0)
(-0.010262987 0.00063779321 0)
(-0.010680961 0.00060616598 0)
(-0.011077118 0.00057286781 0)
(-0.011450344 0.00053792451 0)
(-0.011799543 0.00050136856 0)
(-0.012123646 0.00046323944 0)
(-0.012421611 0.00042358401 0)
(-0.012692432 0.00038245676 0)
(-0.012935139 0.00033992006 0)
(-0.01314881 0.0002960443 0)
(-0.013332572 0.00025090802 0)
(-0.013485607 0.00020459795 0)
(-0.013607159 0.00015720894 0)
(-0.013696537 0.00010884395 0)
(-0.013753124 5.961378e-05 0)
(-0.013776377 9.6371202e-06 0)
(-0.013765838 -4.0960002e-05 0)
(-0.013721134 -9.2044783e-05 0)
(-0.013641986 -0.0001434775 0)
(-0.013528208 -0.00019511226 0)
(-0.013379716 -0.00024679755 0)
(-0.013196529 -0.00029837682 0)
(-0.012978771 -0.0003496891 0)
(-0.012726678 -0.00040056975 0)
(-0.012440595 -0.00045085117 0)
(-0.012120983 -0.0005003636 0)
(-0.011768415 -0.00054893599 0)
(-0.011383581 -0.00059639688 0)
(-0.010967284 -0.00064257528 0)
(-0.010520443 -0.00068730164 0)
(-0.010044091 -0.00073040882 0)
(-0.0095393686 -0.00077173302 0)
(-0.0090075288 -0.00081111479 0)
(-0.0084499281 -0.00084839998 0)
(-0.0078680249 -0.0008834407 0)
(-0.0072633746 -0.00091609625 0)
(-0.0066376245 -0.00094623406 0)
(-0.0059925079 -0.0009737305 0)
(-0.005329838 -0.00099847178 0)
(-0.0046515011 -0.0010203547 0)
(-0.003959449 -0.0010392872 0)
(-0.0032556912 -0.0010551892 0)
(-0.0025422871 -0.0010679933 0)
(-0.0018213372 -0.0010776447 0)
(-0.0010949742 -0.0010841021 0)
(-0.00036535384 -0.0010873377 0)
(0.00037071788 -0.0018217146 0)
(0.0011110516 -0.0018162949 0)
(0.0018480837 -0.0018054788 0)
(0.002579629 -0.0017893128 0)
(0.0033035256 -0.001767866 0)
(0.0040176444 -0.00174123 0)
(0.004719898 -0.001709518 0)
(0.0054082492 -0.0016728641 0)
(0.0060807194 -0.0016314223 0)
(0.0067353964 -0.0015853656 0)
(0.0073704419 -0.0015348845 0)
(0.0079840985 -0.0014801859 0)
(0.0085746959 -0.001421492 0)
(0.0091406567 -0.0013590383 0)
(0.0096805018 -0.0012930724 0)
(0.010192855 -0.0012238526 0)
(0.010676446 -0.0011516456 0)
(0.011130116 -0.0010767259 0)
(0.011552816 -0.00099937324 0)
(0.011943615 -0.00091987146 0)
(0.012301695 -0.00083850685 0)
(0.012626356 -0.00075556646 0)
(0.012917012 -0.00067133667 0)
(0.013173197 -0.00058610165 0)
(0.013394556 -0.00050014201 0)
(0.013580847 -0.0004137334 0)
(0.013731942 -0.00032714531 0)
(0.013847818 -0.00024063985 0)
(0.013928557 -0.00015447071 0)
(0.013974344 -6.8882121e-05 0)
(0.013985458 1.5891985e-05 0)
(0.013962274 9.9628775e-05 0)
(0.013905253 0.00018211736 0)
(0.013814941 0.00026315907 0)
(0.013691961 0.00034256814 0)
(0.01353701 0.00042017207 0)
(0.01335085 0.00049581181 0)
(0.013134309 0.00056934195 0)
(0.012888269 0.00064063078 0)
(0.012613663 0.00070956017 0)
(0.012311471 0.00077602546 0)
(0.011982711 0.00083993511 0)
(0.011628439 0.00090121041 0)
(0.011249738 0.00095978492 0)
(0.010847718 0.001015604 0)
(0.010423508 0.0010686241 0)
(0.0099782533 0.0011188122 0)
(0.0095131114 0.0011661445 0)
(0.0090292478 0.0012106064 0)
(0.0085278327 0.0012521908 0)
(0.0080100383 0.0012908976 0)
(0.0074770357 0.0013267326 0)
(0.0069299931 0.0013597065 0)
(0.006370074 0.001389834 0)
(0.0057984352 0.0014171327 0)
(0.0052162267 0.0014416221 0)
(0.0046245902 0.0014633227 0)
(0.0040246593 0.0014822553 0)
(0.0034175596 0.00149844 0)
(0.0028044088 0.0015118955 0)
(0.0021863177 0.0015226384 0)
(0.0015643908 0.0015306827 0)
(0.00093972789 0.0015360393 0)
(0.00031342481 0.0015387157 0)
(-0.00031342474 0.0015387157 0)
(-0.00093972782 0.0015360393 0)
(-0.0015643908 0.0015306827 0)
(-0.0021863176 0.0015226384 0)
(-0.0028044087 0.0015118955 0)
(-0.0034175595 0.00149844 0)
(-0.0040246592 0.0014822553 0)
(-0.0046245901 0.0014633227 0)
(-0.0052162266 0.0014416221 0)
(-0.0057984352 0.0014171327 0)
(-0.0063700739 0.001389834 0)
(-0.0069299931 0.0013597065 0)
(-0.0074770356 0.0013267326 0)
(-0.0080100382 0.0012908976 0)
(-0.0085278327 0.0012521908 0)
(-0.0090292477 0.0012106064 0)
(-0.0095131114 0.0011661445 0)
(-0.0099782533 0.0011188122 0)
(-0.010423508 0.0010686242 0)
(-0.010847718 0.001015604 0)
(-0.011249738 0.00095978493 0)
(-0.011628439 0.00090121041 0)
(-0.011982711 0.00083993512 0)
(-0.01231147 0.00077602547 0)
(-0.012613663 0.00070956018 0)
(-0.012888269 0.00064063079 0)
(-0.013134309 0.00056934196 0)
(-0.01335085 0.00049581182 0)
(-0.01353701 0.00042017208 0)
(-0.013691961 0.00034256815 0)
(-0.013814941 0.00026315908 0)
(-0.013905253 0.00018211737 0)
(-0.013962274 9.9628784e-05 0)
(-0.013985458 1.5891994e-05 0)
(-0.013974344 -6.8882112e-05 0)
(-0.013928557 -0.0001544707 0)
(-0.013847818 -0.00024063984 0)
(-0.013731942 -0.0003271453 0)
(-0.013580847 -0.00041373339 0)
(-0.013394556 -0.000500142 0)
(-0.013173197 -0.00058610164 0)
(-0.012917012 -0.00067133666 0)
(-0.012626356 -0.00075556645 0)
(-0.012301695 -0.00083850684 0)
(-0.011943615 -0.00091987146 0)
(-0.011552816 -0.00099937323 0)
(-0.011130116 -0.0010767259 0)
(-0.010676446 -0.0011516456 0)
(-0.010192855 -0.0012238526 0)
(-0.0096805019 -0.0012930724 0)
(-0.0091406568 -0.0013590383 0)
(-0.008574696 -0.001421492 0)
(-0.0079840986 -0.0014801859 0)
(-0.007370442 -0.0015348844 0)
(-0.0067353965 -0.0015853656 0)
(-0.0060807195 -0.0016314223 0)
(-0.0054082493 -0.0016728641 0)
(-0.0047198981 -0.001709518 0)
(-0.0040176445 -0.00174123 0)
(-0.0033035256 -0.001767866 0)
(-0.0025796291 -0.0017893128 0)
(-0.0018480838 -0.0018054788 0)
(-0.0011110517 -0.0018162949 0)
(-0.00037071795 -0.0018217146 0)
(0.00037855698 -0.0025692582 0)
(0.0011345477 -0.0025616185 0)
(0.0018871732 -0.0025463719 0)
(0.0026342061 -0.0025235838 0)
(0.0033734429 -0.0024933518 0)
(0.0041027133 -0.0024558049 0)
(0.0048198895 -0.0024111026 0)
(0.0055228947 -0.0023594338 0)
(0.0062097117 -0.0023010154 0)
(0.0068783908 -0.0022360911 0)
(0.0075270576 -0.0021649293 0)
(0.0081539197 -0.0020878217 0)
(0.0087572735 -0.002005081 0)
(0.0093355098 -0.0019170391 0)
(0.0098871193 -0.0018240448 0)
(0.010410697 -0.0017264617 0)
(0.010904947 -0.0016246657 0)
(0.011368683 -0.0015190432 0)
(0.011800836 -0.0014099884 0)
(0.012200452 -0.0012979009 0)
(0.012566693 -0.001183184 0)
(0.012898843 -0.0010662419 0)
(0.0131963 -0.00094747803 0)
(0.013458584 -0.00082729255 0)
(0.013685328 -0.00070608069 0)
(0.013876283 -0.00058423074 0)
(0.014031308 -0.0004621223 0)
(0.014150378 -0.00034012465 0)
(0.014233569 -0.0002185952 0)
(0.014281063 -9.7878119e-05 0)
(0.01429314 2.1696914e-05 0)
(0.014270175 0.00013981583 0)
(0.014212634 0.00025618117 0)
(0.014121065 0.00037051283 0)
(0.013996098 0.00048254875 0)
(0.013838439 0.00059204545 0)
(0.013648859 0.00069877839 0)
(0.013428198 0.0008025422 0)
(0.013177349 0.0009031507 0)
(0.012897262 0.0010004369 0)
(0.01258893 0.0010942525 0)
(0.012253391 0.001184468 0)
(0.011891716 0.0012709718 0)
(0.011505011 0.0013536693 0)
(0.011094404 0.001432483 0)
(0.010661049 0.0015073505 0)
(0.010206112 0.0015782246 0)
(0.0097307753 0.0016450711 0)
(0.0092362299 0.0017078685 0)
(0.0087236716 0.0017666061 0)
(0.0081942991 0.001821283 0)
(0.0076493111 0.0018719068 0)
(0.0070899036 0.0019184918 0)
(0.0065172684 0.0019610581 0)
(0.0059325918 0.0019996299 0)
(0.0053370529 0.0020342341 0)
(0.0047318234 0.0020648993 0)
(0.0041180672 0.0020916542 0)
(0.0034969401 0.0021145267 0)
(0.0028695907 0.0021335429 0)
(0.0022371605 0.0021487259 0)
(0.0016007854 0.0021600952 0)
(0.00096159591 0.0021676661 0)
(0.00032071936 0.0021714488 0)
(-0.00032071929 0.0021714488 0)
(-0.00096159584 0.0021676661 0)
(-0.0016007853 0.0021600952 0)
(-0.0022371605 0.0021487259 0)
(-0.0028695906 0.0021335429 0)
(-0.00349694 0.0021145267 0)
(-0.0041180671 0.0020916542 0)
(-0.0047318234 0.0020648993 0)
(-0.0053370529 0.0020342341 0)
(-0.0059325918 0.0019996299 0)
(-0.0065172684 0.0019610581 0)
(-0.0070899035 0.0019184918 0)
(-0.007649311 0.0018719068 0)
(-0.0081942991 0.001821283 0)
(-0.0087236715 0.0017666061 0)
(-0.0092362298 0.0017078685 0)
(-0.0097307752 0.0016450711 0)
(-0.010206112 0.0015782246 0)
(-0.010661048 0.0015073506 0)
(-0.011094404 0.001432483 0)
(-0.011505011 0.0013536693 0)
(-0.011891716 0.0012709718 0)
(-0.012253391 0.0011844681 0)
(-0.01258893 0.0010942525 0)
(-0.012897262 0.0010004369 0)
(-0.013177349 0.00090315071 0)
(-0.013428198 0.00080254221 0)
(-0.013648859 0.0006987784 0)
(-0.013838439 0.00059204546 0)
(-0.013996098 0.00048254876 0)
(-0.014121065 0.00037051284 0)
(-0.014212634 0.00025618119 0)
(-0.014270175 0.00013981584 0)
(-0.01429314 2.1696927e-05 0)
(-0.014281063 -9.7878106e-05 0)
(-0.014233569 -0.00021859519 0)
(-0.014150378 -0.00034012464 0)
(-0.014031308 -0.00046212229 0)
(-0.013876283 -0.00058423073 0)
(-0.013685328 -0.00070608067 0)
(-0.013458584 -0.00082729254 0)
(-0.013196301 -0.00094747802 0)
(-0.012898843 -0.0010662419 0)
(-0.012566693 -0.001183184 0)
(-0.012200452 -0.0012979009 0)
(-0.011800836 -0.0014099884 0)
(-0.011368683 -0.0015190432 0)
(-0.010904947 -0.0016246657 0)
(-0.010410697 -0.0017264617 0)
(-0.0098871194 -0.0018240448 0)
(-0.0093355099 -0.0019170391 0)
(-0.0087572736 -0.002005081 0)
(-0.0081539198 -0.0020878217 0)
(-0.0075270576 -0.0021649293 0)
(-0.0068783908 -0.0022360911 0)
(-0.0062097117 -0.0023010154 0)
(-0.0055228948 -0.0023594338 0)
(-0.0048198896 -0.0024111026 0)
(-0.0041027134 -0.0024558049 0)
(-0.003373443 -0.0024933518 0)
(-0.0026342062 -0.0025235838 0)
(-0.0018871733 -0.0025463719 0)
(-0.0011345477 -0.0025616185 0)
(-0.00037855705 -0.0025692582 0)
(0.0003888755 -0.0033349264 0)
(0.0011654756 -0.0033250179 0)
(0.0019386276 -0.0033052435 0)
(0.0027060491 -0.0032756878 0)
(0.0034654822 -0.0032364775 0)
(0.0042147031 -0.0031877795 0)
(0.004951531 -0.0031298005 0)
(0.0056738375 -0.0030627855 0)
(0.0063795549 -0.0029870155 0)
(0.0070666847 -0.0029028061 0)
(0.0077333051 -0.0028105053 0)
(0.0083775782 -0.0027104909 0)
(0.0089977564 -0.002603168 0)
(0.0095921888 -0.0024889666 0)
(0.010159327 -0.0023683386 0)
(0.010697727 -0.002241755 0)
(0.011206059 -0.0021097029 0)
(0.011683103 -0.0019726826 0)
(0.01212776 -0.0018312048 0)
(0.012539048 -0.0016857872 0)
(0.012916103 -0.001536952 0)
(0.013258184 -0.001385223 0)
(0.013564671 -0.0012311227 0)
(0.013835063 -0.0010751694 0)
(0.014068978 -0.00091787517 0)
(0.014266153 -0.00075974315 0)
(0.014426439 -0.00060126517 0)
(0.014549797 -0.00044291979 0)
(0.014636301 -0.00028517028 0)
(0.014686127 -0.00012846283 0)
(0.014699554 2.6775052e-05 0)
(0.014676959 0.000180136 0)
(0.014618809 0.00033123403 0)
(0.014525658 0.00047970555 0)
(0.014398146 0.00062521025 0)
(0.014236985 0.0007674318 0)
(0.014042961 0.00090607828 0)
(0.013816926 0.0010408825 0)
(0.013559792 0.0011716021 0)
(0.013272524 0.0012980194 0)
(0.012956138 0.001419941 0)
(0.012611692 0.0015371976 0)
(0.012240282 0.0016496431 0)
(0.011843039 0.0017571538 0)
(0.011421119 0.0018596273 0)
(0.010975703 0.0019569816 0)
(0.01050799 0.0020491537 0)
(0.010019192 0.0021360981 0)
(0.0095105336 0.0022177851 0)
(0.0089832447 0.0022941996 0)
(0.0084385592 0.0023653391 0)
(0.0078777119 0.0024312118 0)
(0.0073019363 0.0024918353 0)
(0.006712462 0.0025472342 0)
(0.006110514 0.0025974388 0)
(0.0054973109 0.0026424829 0)
(0.0048740641 0.0026824026 0)
(0.004241978 0.0027172343 0)
(0.0036022495 0.0027470135 0)
(0.0029560682 0.0027717731 0)
(0.0023046172 0.0027915426 0)
(0.001649074 0.0028063468 0)
(0.00099061122 0.0028162052 0)
(0.00033039816 0.002821131 0)
(-0.00033039809 0.002821131 0)
(-0.00099061115 0.0028162052 0)
(-0.0016490739 0.0028063468 0)
(-0.0023046171 0.0027915426 0)
(-0.0029560681 0.0027717731 0)
(-0.0036022494 0.0027470135 0)
(-0.004241978 0.0027172343 0)
(-0.004874064 0.0026824026 0)
(-0.0054973108 0.0026424829 0)
(-0.006110514 0.0025974388 0)
(-0.006712462 0.0025472343 0)
(-0.0073019362 0.0024918353 0)
(-0.0078777119 0.0024312118 0)
(-0.0084385591 0.0023653391 0)
(-0.0089832446 0.0022941996 0)
(-0.0095105335 0.0022177851 0)
(-0.010019192 0.0021360981 0)
(-0.01050799 0.0020491537 0)
(-0.010975703 0.0019569816 0)
(-0.011421119 0.0018596273 0)
(-0.011843039 0.0017571538 0)
(-0.012240282 0.0016496431 0)
(-0.012611692 0.0015371977 0)
(-0.012956138 0.001419941 0)
(-0.013272524 0.0012980194 0)
(-0.013559792 0.0011716021 0)
(-0.013816926 0.0010408825 0)
(-0.014042961 0.0009060783 0)
(-0.014236985 0.00076743182 0)
(-0.014398146 0.00062521027 0)
(-0.014525658 0.00047970557 0)
(-0.014618809 0.00033123405 0)
(-0.014676959 0.00018013602 0)
(-0.014699554 2.6775068e-05 0)
(-0.014686127 -0.00012846282 0)
(-0.014636301 -0.00028517026 0)
(-0.014549797 -0.00044291977 0)
(-0.014426439 -0.00060126515 0)
(-0.014266153 -0.00075974313 0)
(-0.014068978 -0.00091787516 0)
(-0.013835063 -0.0010751694 0)
(-0.013564671 -0.0012311226 0)
(-0.013258184 -0.001385223 0)
(-0.012916103 -0.001536952 0)
(-0.012539048 -0.0016857872 0)
(-0.012127761 -0.0018312048 0)
(-0.011683103 -0.0019726826 0)
(-0.011206059 -0.0021097029 0)
(-0.010697727 -0.002241755 0)
(-0.010159327 -0.0023683386 0)
(-0.0095921889 -0.0024889666 0)
(-0.0089977564 -0.002603168 0)
(-0.0083775782 -0.0027104909 0)
(-0.0077333052 -0.0028105053 0)
(-0.0070666848 -0.0029028061 0)
(-0.006379555 -0.0029870155 0)
(-0.0056738375 -0.0030627855 0)
(-0.0049515311 -0.0031298005 0)
(-0.0042147032 -0.0031877794 0)
(-0.0034654823 -0.0032364774 0)
(-0.0027060492 -0.0032756878 0)
(-0.0019386276 -0.0033052435 0)
(-0.0011654757 -0.0033250179 0)
(-0.00038887558 -0.0033349264 0)
(0.00040165101 -0.0041236898 0)
(0.001203768 -0.0041114508 0)
(0.0020023348 -0.0040870253 0)
(0.0027950013 -0.0040505178 0)
(0.0035794426 -0.0040020844 0)
(0.0043533687 -0.0039419312 0)
(0.0051145338 -0.0038703134 0)
(0.0058607458 -0.0037875327 0)
(0.006589875 -0.0036939362 0)
(0.0072998624 -0.0035899132 0)
(0.0079887277 -0.0034758927 0)
(0.0086545768 -0.0033523408 0)
(0.0092956082 -0.0032197574 0)
(0.0099101193 -0.0030786726 0)
(0.010496512 -0.0029296437 0)
(0.011053298 -0.0027732518 0)
(0.011579101 -0.0026100973 0)
(0.012072663 -0.0024407975 0)
(0.012532845 -0.0022659819 0)
(0.012958629 -0.0020862891 0)
(0.013349122 -0.001902363 0)
(0.013703552 -0.0017148495 0)
(0.014021273 -0.0015243928 0)
(0.014301761 -0.0013316324 0)
(0.014544614 -0.0011371999 0)
(0.014749552 -0.0009417158 0)
(0.01491641 -0.00074578695 0)
(0.015045141 -0.0005500039 0)
(0.015135808 -0.00035493843 0)
(0.015188583 -0.00016114141 0)
(0.015203743 3.0859209e-05 0)
(0.015181664 0.00022056015 0)
(0.015122817 0.00040748434 0)
(0.015027763 0.00059118216 0)
(0.014897149 0.00077123258 0)
(0.0147317 0.00094724392 0)
(0.014532217 0.0011188545 0)
(0.014299567 0.001285733 0)
(0.014034683 0.0014475784 0)
(0.013738552 0.0016041203 0)
(0.013412214 0.0017551179 0)
(0.013056755 0.0019003602 0)
(0.012673299 0.0020396644 0)
(0.012263009 0.0021728756 0)
(0.011827075 0.0022998652 0)
(0.011366713 0.0024205294 0)
(0.010883158 0.0025347881 0)
(0.010377664 0.0026425826 0)
(0.0098514949 0.002743874 0)
(0.0093059227 0.0028386412 0)
(0.0087422256 0.0029268789 0)
(0.0081616834 0.0030085951 0)
(0.0075655756 0.0030838093 0)
(0.0069551796 0.0031525499 0)
(0.0063317683 0.0032148525 0)
(0.0056966096 0.0032707571 0)
(0.0050509649 0.0033203066 0)
(0.0043960892 0.0033635446 0)
(0.0037332304 0.0034005135 0)
(0.0030636298 0.003431253 0)
(0.0023885226 0.0034557987 0)
(0.0017091385 0.0034741803 0)
(0.0010267028 0.0034864214 0)
(0.0003424375 0.0034925378 0)
(-0.00034243743 0.0034925378 0)
(-0.0010267027 0.0034864214 0)
(-0.0017091384 0.0034741803 0)
(-0.0023885225 0.0034557987 0)
(-0.0030636297 0.003431253 0)
(-0.0037332303 0.0034005135 0)
(-0.0043960892 0.0033635446 0)
(-0.0050509649 0.0033203066 0)
(-0.0056966095 0.0032707571 0)
(-0.0063317682 0.0032148525 0)
(-0.0069551795 0.0031525499 0)
(-0.0075655756 0.0030838093 0)
(-0.0081616833 0.0030085951 0)
(-0.0087422256 0.0029268789 0)
(-0.0093059227 0.0028386412 0)
(-0.0098514948 0.002743874 0)
(-0.010377664 0.0026425826 0)
(-0.010883158 0.0025347881 0)
(-0.011366713 0.0024205294 0)
(-0.011827075 0.0022998652 0)
(-0.012263009 0.0021728756 0)
(-0.012673299 0.0020396644 0)
(-0.013056755 0.0019003602 0)
(-0.013412214 0.001755118 0)
(-0.013738552 0.0016041203 0)
(-0.014034683 0.0014475784 0)
(-0.014299567 0.001285733 0)
(-0.014532217 0.0011188545 0)
(-0.0147317 0.00094724394 0)
(-0.014897149 0.0007712326 0)
(-0.015027763 0.00059118218 0)
(-0.015122817 0.00040748436 0)
(-0.015181664 0.00022056017 0)
(-0.015203743 3.0859228e-05 0)
(-0.015188583 -0.00016114139 0)
(-0.015135808 -0.00035493841 0)
(-0.015045141 -0.00055000388 0)
(-0.01491641 -0.00074578693 0)
(-0.014749552 -0.00094171578 0)
(-0.014544614 -0.0011371999 0)
(-0.014301761 -0.0013316324 0)
(-0.014021273 -0.0015243928 0)
(-0.013703552 -0.0017148494 0)
(-0.013349122 -0.001902363 0)
(-0.012958629 -0.0020862891 0)
(-0.012532845 -0.0022659819 0)
(-0.012072663 -0.0024407975 0)
(-0.011579101 -0.0026100973 0)
(-0.011053298 -0.0027732517 0)
(-0.010496512 -0.0029296437 0)
(-0.0099101194 -0.0030786726 0)
(-0.0092956082 -0.0032197574 0)
(-0.0086545769 -0.0033523408 0)
(-0.0079887278 -0.0034758927 0)
(-0.0072998624 -0.0035899132 0)
(-0.006589875 -0.0036939362 0)
(-0.0058607459 -0.0037875327 0)
(-0.0051145339 -0.0038703134 0)
(-0.0043533688 -0.0039419312 0)
(-0.0035794427 -0.0040020844 0)
(-0.0027950014 -0.0040505178 0)
(-0.0020023348 -0.0040870253 0)
(-0.0012037681 -0.0041114508 0)
(-0.00040165108 -0.0041236898 0)
(0.00041683452 -0.0049404267 0)
(0.0012492781 -0.0049257827 0)
(0.0020780505 -0.0048965574 0)
(0.0029007214 -0.0048528757 0)
(0.0037148864 -0.0047949241 0)
(0.004518177 -0.0047229489 0)
(0.0053082705 -0.0046372548 0)
(0.0060828993 -0.0045382025 0)
(0.0068398599 -0.0044262063 0)
(0.0075770218 -0.0043017315 0)
(0.0082923357 -0.0041652905 0)
(0.0089838403 -0.0040174401 0)
(0.0096496703 -0.003858777 0)
(0.010288062 -0.0036899347 0)
(0.010897359 -0.0035115788 0)
(0.011476017 -0.0033244028 0)
(0.01202261 -0.0031291242 0)
(0.01253583 -0.0029264797 0)
(0.013014492 -0.0027172211 0)
(0.013457539 -0.0025021111 0)
(0.013864037 -0.0022819184 0)
(0.01423318 -0.0020574144 0)
(0.014564292 -0.0018293683 0)
(0.01485682 -0.001598544 0)
(0.015110338 -0.0013656956 0)
(0.015324546 -0.0011315646 0)
(0.015499261 -0.00089687601 0)
(0.015634423 -0.00066233554 0)
(0.015730084 -0.00042862673 0)
(0.015786411 -0.00019640829 0)
(0.015803675 3.3688215e-05 0)
(0.015782254 0.00026106045 0)
(0.015722623 0.00048513716 0)
(0.015625348 0.00070537963 0)
(0.015491087 0.00092128307 0)
(0.015320579 0.0011323775 0)
(0.015114641 0.0013382285 0)
(0.014874161 0.0015384377 0)
(0.014600092 0.0017326428 0)
(0.01429345 0.0019205176 0)
(0.013955302 0.0021017717 0)
(0.013586765 0.0022761492 0)
(0.013189001 0.0024434288 0)
(0.012763207 0.0026034218 0)
(0.012310613 0.0027559708 0)
(0.011832478 0.0029009484 0)
(0.011330082 0.0030382553 0)
(0.010804723 0.0031678176 0)
(0.010257716 0.0032895856 0)
(0.0096903817 0.0034035306 0)
(0.0091040514 0.0035096427 0)
(0.0085000583 0.0036079284 0)
(0.0078797373 0.003698408 0)
(0.0072444221 0.0037811125 0)
(0.0065954435 0.0038560816 0)
(0.0059341279 0.0039233608 0)
(0.0052617966 0.003982999 0)
(0.0045797651 0.0040350462 0)
(0.0038893423 0.0040795514 0)
(0.0031918316 0.0041165603 0)
(0.0024885303 0.0041461141 0)
(0.0017807308 0.0041682475 0)
(0.0010697216 0.0041829874 0)
(0.00035678765 0.0041903527 0)
(-0.00035678758 0.0041903527 0)
(-0.0010697215 0.0041829874 0)
(-0.0017807308 0.0041682475 0)
(-0.0024885302 0.0041461141 0)
(-0.0031918315 0.0041165604 0)
(-0.0038893423 0.0040795514 0)
(-0.004579765 0.0040350462 0)
(-0.0052617966 0.003982999 0)
(-0.0059341278 0.0039233608 0)
(-0.0065954434 0.0038560816 0)
(-0.0072444221 0.0037811125 0)
(-0.0078797373 0.003698408 0)
(-0.0085000583 0.0036079284 0)
(-0.0091040513 0.0035096427 0)
(-0.0096903816 0.0034035306 0)
(-0.010257716 0.0032895856 0)
(-0.010804723 0.0031678177 0)
(-0.011330082 0.0030382553 0)
(-0.011832478 0.0029009485 0)
(-0.012310613 0.0027559708 0)
(-0.012763207 0.0026034218 0)
(-0.013189001 0.0024434289 0)
(-0.013586765 0.0022761493 0)
(-0.013955302 0.0021017717 0)
(-0.01429345 0.0019205177 0)
(-0.014600092 0.0017326428 0)
(-0.014874161 0.0015384377 0)
(-0.015114641 0.0013382285 0)
(-0.015320579 0.0011323775 0)
(-0.015491087 0.00092128309 0)
(-0.015625348 0.00070537966 0)
(-0.015722623 0.00048513718 0)
(-0.015782254 0.00026106048 0)
(-0.015803675 3.3688237e-05 0)
(-0.015786411 -0.00019640826 0)
(-0.015730084 -0.0004286267 0)
(-0.015634423 -0.00066233552 0)
(-0.015499261 -0.00089687599 0)
(-0.015324546 -0.0011315646 0)
(-0.015110338 -0.0013656956 0)
(-0.01485682 -0.001598544 0)
(-0.014564292 -0.0018293683 0)
(-0.01423318 -0.0020574144 0)
(-0.013864037 -0.0022819184 0)
(-0.013457539 -0.0025021111 0)
(-0.013014492 -0.0027172211 0)
(-0.01253583 -0.0029264797 0)
(-0.01202261 -0.0031291241 0)
(-0.011476018 -0.0033244028 0)
(-0.010897359 -0.0035115788 0)
(-0.010288062 -0.0036899347 0)
(-0.0096496704 -0.003858777 0)
(-0.0089838404 -0.0040174401 0)
(-0.0082923357 -0.0041652905 0)
(-0.0075770219 -0.0043017315 0)
(-0.0068398599 -0.0044262063 0)
(-0.0060828993 -0.0045382025 0)
(-0.0053082706 -0.0046372548 0)
(-0.0045181771 -0.0047229489 0)
(-0.0037148864 -0.0047949241 0)
(-0.0029007214 -0.0048528757 0)
(-0.0020780506 -0.0048965574 0)
(-0.0012492782 -0.0049257827 0)
(-0.00041683459 -0.0049404267 0)
(0.0004343513 -0.0057898867 0)
(0.0013017819 -0.0057727507 0)
(0.0021654018 -0.005738552 0)
(0.0030226883 -0.0056874366 0)
(0.0038711455 -0.0056196222 0)
(0.0047083146 -0.0055353966 0)
(0.005531784 -0.0054351156 0)
(0.0063391991 -0.0053192007 0)
(0.0071282716 -0.0051881358 0)
(0.0078967887 -0.0050424642 0)
(0.0086426211 -0.0048827845 0)
(0.0093637309 -0.0047097467 0)
(0.010058179 -0.0045240479 0)
(0.010724131 -0.0043264276 0)
(0.011359863 -0.004117663 0)
(0.011963769 -0.0038985639 0)
(0.012534361 -0.0036699678 0)
(0.013070276 -0.0034327349 0)
(0.013570278 -0.0031877428 0)
(0.01403326 -0.0029358818 0)
(0.014458245 -0.0026780495 0)
(0.014844388 -0.0024151462 0)
(0.015190974 -0.0021480702 0)
(0.015497421 -0.0018777133 0)
(0.015763274 -0.0016049562 0)
(0.015988206 -0.0013306649 0)
(0.016172019 -0.0010556864 0)
(0.016314633 -0.00078084536 0)
(0.01641609 -0.00050694079 0)
(0.016476549 -0.00023474295 0)
(0.016496276 3.500931e-05 0)
(0.016475649 0.00030161097 0)
(0.016415146 0.00056439294 0)
(0.016315342 0.00082272386 0)
(0.016176905 0.0010760116 0)
(0.016000591 0.0013237043 0)
(0.015787233 0.0015652916 0)
(0.015537743 0.0018003044 0)
(0.015253101 0.002028316 0)
(0.01493435 0.0022489413 0)
(0.014582593 0.0024618366 0)
(0.014198982 0.0026666989 0)
(0.013784718 0.0028632646 0)
(0.013341041 0.0030513088 0)
(0.012869227 0.0032306427 0)
(0.012370583 0.0034011128 0)
(0.01184644 0.0035625977 0)
(0.011298151 0.0037150067 0)
(0.010727085 0.0038582766 0)
(0.010134622 0.0039923693 0)
(0.0095221536 0.0041172687 0)
(0.0088910749 0.004232978 0)
(0.0082427847 0.0043395167 0)