/*--------------------------------*- C++ -*----------------------------------*\
| =========                 |                                                 |
| \\      /  F ield         | OpenFOAM: The Open Source CFD Toolbox           |
|  \\    /   O peration     | Version:  2306                                  |
|   \\  /    A nd           | Website:  www.openfoam.com                      |
|    \\/     M anipulation  |                                                 |
\*---------------------------------------------------------------------------*/
FoamFile
{
    version     2.0;
    format      ascii;
    arch        "LSB;label=32;scalar=64";
    class       surfaceScalarField;
    location    "0.28";
    object      phi;
}
// * * * * * * * * * * * * * * * * * * * * * * * * * * * * * * * * * * * * * //

dimensions      [0 3 -1 0 0 0 0];

oriented        oriented;

internalField   nonuniform List<scalar> 
12640
(
1.8787314e-07
-7.1673027e-07
7.4966251e-07
-2.1337559e-06
1.6692202e-06
-3.4309995e-06
2.9178685e-06
-4.515542e-06
4.4527365e-06
-5.2844702e-06
6.2191519e-06
-5.6503674e-06
8.1543559e-06
-5.5427188e-06
1.0187469e-05
-4.9039119e-06
1.2243852e-05
-3.6910631e-06
1.4244738e-05
-1.8737512e-06
1.610728e-05
5.6419278e-07
1.7750117e-05
3.6190871e-06
1.9094168e-05
7.2746131e-06
2.0064568e-05
1.1498551e-05
2.0592242e-05
1.6244569e-05
2.0615428e-05
2.1453206e-05
2.0080965e-05
2.7053251e-05
1.8945066e-05
3.2963596e-05
1.7173976e-05
3.9094656e-05
1.4744526e-05
4.5350027e-05
1.1644229e-05
5.1627573e-05
7.8715504e-06
5.7821018e-05
3.4361576e-06
6.3821136e-05
-1.6329901e-06
6.9513208e-05
-7.3148281e-06
7.4801458e-05
-1.3553182e-05
7.9545081e-05
-2.0287522e-05
8.364332e-05
-2.7441109e-05
8.6984891e-05
-3.4921424e-05
8.9464728e-05
-4.262024e-05
9.0986504e-05
-5.0414067e-05
9.1466276e-05
-5.8165509e-05
9.0837051e-05
-6.5725738e-05
8.9053712e-05
-7.2938233e-05
8.6098011e-05
-7.9643843e-05
8.1983159e-05
-8.5687017e-05
7.6757388e-05
-9.092291e-05
7.050584e-05
-9.5224779e-05
6.3350194e-05
-9.8491015e-05
5.5445746e-05
-0.00010065122
4.6976298e-05
-0.00010167072
3.8146601e-05
-0.00010155291
2.9172852e-05
-0.00010033915
2.0272084e-05
-9.8106769e-05
1.1652023e-05
-9.4961853e-05
3.499405e-06
-9.1033441e-05
-4.0308786e-06
-8.6475141e-05
-1.0798171e-05
-8.1443506e-05
-1.6720354e-05
-7.6097651e-05
-2.174452e-05
-7.0591102e-05
-2.585474e-05
-6.5065863e-05
-2.9068487e-05
-5.9647677e-05
-3.1432133e-05
-5.4442676e-05
-3.3015468e-05
-4.9535404e-05
-3.3905714e-05
-4.4988004e-05
-3.4201598e-05
-4.0840541e-05
-3.4007763e-05
-3.7112459e-05
-3.3429161e-05
-3.3804857e-05
-3.2566255e-05
-3.0903395e-05
-3.151108e-05
-2.8381602e-05
-3.0344288e-05
-2.6204344e-05
-2.9133244e-05
-2.433123e-05
-2.793117e-05
-2.2719722e-05
-2.677729e-05
-2.1327747e-05
-2.5697871e-05
-2.0115899e-05
-2.4707701e-05
-1.9049003e-05
-2.3812055e-05
-1.8097005e-05
-2.3008962e-05
-1.7235301e-05
-2.2291436e-05
-1.6444599e-05
-2.1649504e-05
-1.5710421e-05
-2.1071921e-05
-1.5022398e-05
-2.0547486e-05
-1.4373439e-05
-2.0065974e-05
-1.3758912e-05
-1.9618676e-05
-1.3175885e-05
-1.9198618e-05
-1.2622496e-05
-1.8800538e-05
-1.2097465e-05
-1.8420694e-05
-1.1599754e-05
-1.8056577e-05
-1.1128351e-05
-1.7706603e-05
-1.0682168e-05
-1.7369822e-05
-1.7045675e-05
2.2110208e-07
-9.3783235e-07
8.82191e-07
-2.7948448e-06
1.9633525e-06
-4.5121609e-06
3.4303576e-06
-5.9825472e-06
5.232286e-06
-7.0863986e-06
7.3061527e-06
-7.7242342e-06
9.5793574e-06
-7.8159235e-06
1.1971401e-05
-7.2959555e-06
1.4395427e-05
-6.1150896e-06
1.6760886e-05
-4.2392095e-06
1.8977494e-05
-1.6524159e-06
2.0948854e-05
1.6477269e-06
2.2584581e-05
5.638887e-06
2.3799754e-05
1.0283378e-05
2.4516033e-05
1.552829e-05
2.4663667e-05
2.1305572e-05
2.4182827e-05
2.7534091e-05
2.3024515e-05
3.4121908e-05
2.115113e-05
4.0968042e-05
1.8536589e-05
4.7964568e-05
1.5166325e-05
5.4997837e-05
1.1037417e-05
6.1949925e-05
6.1601296e-06
6.8698424e-05
5.5374392e-07
7.5119593e-05
-5.7345674e-06
8.1089769e-05
-1.2667712e-05
8.6478225e-05
-2.0176668e-05
9.1152277e-05
-2.8177543e-05
9.4985766e-05
-3.6568608e-05
9.7855793e-05
-4.5229179e-05
9.9647075e-05
-5.4019479e-05
0.00010025658
-6.2781669e-05
9.9599241e-05
-7.1342347e-05
9.761439e-05
-7.9516738e-05
9.4272402e-05
-8.7114716e-05
8.9581136e-05
-9.3948551e-05
8.3591224e-05
-9.9842003e-05
7.6399292e-05
-0.00010464002
6.8148211e-05
-0.00010821809
5.9023817e-05
-0.00011049038
4.9248588e-05
-0.0001114158
3.9072022e-05
-0.00011100128
2.8758328e-05
-0.00010930163
1.8572437e-05
-0.00010641795
8.7683377e-06
-0.00010247546
-4.4307745e-07
-9.7650895e-05
-8.8554476e-06
-9.212802e-05
-1.6321047e-05
-8.6101475e-05
-2.2746899e-05
-7.976545e-05
-2.8080545e-05
-7.330513e-05
-3.2315061e-05
-6.6889408e-05
-3.5484209e-05
-6.0665341e-05
-3.76562e-05
-5.4754406e-05
-3.8926404e-05
-4.9250506e-05
-3.9409614e-05
-4.4219313e-05
-3.9232791e-05
-3.9699156e-05
-3.8527921e-05
-3.5703209e-05
-3.7425108e-05
-3.2222669e-05
-3.6046795e-05
-2.9230651e-05
-3.4503098e-05
-2.6686522e-05
-3.2888418e-05
-2.454038e-05
-3.1279387e-05
-2.2737367e-05
-2.9734183e-05
-2.1221465e-05
-2.8293193e-05
-1.9938826e-05
-2.698051e-05
-1.8840442e-05
-2.5806085e-05
-1.788384e-05
-2.4768657e-05
-1.7033937e-05
-2.3858865e-05
-1.6263159e-05
-2.3062214e-05
-1.5550979e-05
-2.2361684e-05
-1.4883037e-05
-2.1739863e-05
-1.4250015e-05
-2.1180507e-05
-1.3646443e-05
-2.0669547e-05
-1.3069525e-05
-2.0195595e-05
-1.2518131e-05
-1.9750012e-05
-1.1992e-05
-1.9326669e-05
-1.1491164e-05
-1.8921531e-05
-1.1015571e-05
-1.8532169e-05
-1.05649e-05
-1.8157274e-05
-1.0138492e-05
-1.779623e-05
-1.7448788e-05
2.6033886e-07
-1.1981712e-06
1.038531e-06
-3.573037e-06
2.3090871e-06
-5.782717e-06
4.0306848e-06
-7.7041449e-06
6.1419605e-06
-9.1976743e-06
8.5700484e-06
-1.0152322e-05
1.1231604e-05
-1.047748e-05
1.4035179e-05
-1.009953e-05
1.6881891e-05
-8.961801e-06
1.966806e-05
-7.0253793e-06
2.228804e-05
-4.2723953e-06
2.4638557e-05
-7.0279048e-07
2.6608651e-05
3.6687933e-06
2.8104898e-05
8.7871304e-06
2.9038003e-05
1.4595185e-05
2.9329397e-05
2.1014179e-05
2.8912253e-05
2.7951234e-05
2.7732254e-05
3.5301907e-05
2.574778e-05
4.2952516e-05
2.2930032e-05
5.0782316e-05
1.9262569e-05
5.86653e-05
1.4741531e-05
6.6470963e-05
9.3763573e-06
7.4063597e-05
3.1887096e-06
8.1307241e-05
-3.7836529e-06
8.8062131e-05
-1.1494406e-05
9.4188978e-05
-1.9871454e-05
9.9529325e-05
-2.8826494e-05
0.00010394081
-3.8249457e-05
0.00010727876
-4.8006962e-05
0.00010940458
-5.7941653e-05
0.00011019127
-6.7872669e-05
0.00010953026
-7.7597967e-05
0.00010733969
-8.6898898e-05
0.00010357333
-9.5547299e-05
9.8229538e-05
-0.00010331513
9.1359051e-05
-0.00010998615
8.3070315e-05
-0.00011536879
7.3530847e-05
-0.00011930869
6.2963719e-05
-0.00012169976
5.1639659e-05
-0.00012249251
3.9864772e-05
-0.00012169827
2.7964085e-05
-0.00011938975
1.6263919e-05
-0.00011569681
5.0753937e-06
-0.00011077662
-5.3632624e-06
-0.00010485818
-1.4773886e-05
-9.816899e-05
-2.3010239e-05
-9.0949911e-05
-2.9965977e-05
-8.343849e-05
-3.5591966e-05
-7.5858268e-05
-3.9895282e-05
-6.8410037e-05
-4.2932441e-05
-6.1265423e-05
-4.4800813e-05
-5.456283e-05
-4.5628997e-05
-4.8405496e-05
-4.5566947e-05
-4.2861245e-05
-4.4777043e-05
-3.7964095e-05
-4.342507e-05
-3.3717484e-05
-4.1671719e-05
-3.0098615e-05
-3.9665664e-05
-2.706365e-05
-3.7538063e-05
-2.4553328e-05
-3.5398739e-05
-2.2498728e-05
-3.3333987e-05
-2.0826604e-05
-3.1406307e-05
-1.9464136e-05
-2.965566e-05
-1.8343259e-05
-2.8101387e-05
-1.7403741e-05
-2.6745602e-05
-1.6595019e-05
-2.5577379e-05
-1.5876902e-05
-2.4576982e-05
-1.521934e-05
-2.3719775e-05
-1.4601473e-05
-2.2979551e-05
-1.4010237e-05
-2.23311e-05
-1.3438659e-05
-2.1752085e-05
-1.2884086e-05
-2.122412e-05
-1.2346591e-05
-2.0733089e-05
-1.1827677e-05
-2.0268926e-05
-1.1329284e-05
-1.9825061e-05
-1.0853143e-05
-1.9397672e-05
-1.0400404e-05
-1.8984909e-05
-9.9715026e-06
-1.8586175e-05
-9.5661923e-06
-1.8201541e-05
-1.7831311e-05
3.0714858e-07
-1.5053198e-06
1.2247859e-06
-4.4906744e-06
2.7184004e-06
-7.2763315e-06
4.7376343e-06
-9.7233788e-06
7.2068841e-06
-1.1666924e-05
1.0042232e-05
-1.298767e-05
1.3149173e-05
-1.358442e-05
1.6424029e-05
-1.3374387e-05
1.9755309e-05
-1.2293081e-05
2.30252e-05
-1.029527e-05
2.6110181e-05
-7.3573769e-06
2.8888847e-05
-3.481456e-06
3.1244539e-05
1.3131011e-06
3.3062996e-05
6.9686738e-06
3.4244035e-05
1.3414146e-05
3.4699851e-05
2.0558363e-05
3.4356366e-05
2.8294719e-05
3.3153993e-05
3.650428e-05
3.1047628e-05
4.5058881e-05
2.8005986e-05
5.3823958e-05
2.401115e-05
6.2660135e-05
1.9058521e-05
7.1423592e-05
1.3154899e-05
7.9967219e-05
6.3222099e-06
8.813993e-05
-1.4026135e-06
9.5786955e-05
-9.9762956e-06
0.00010276266
-1.9321671e-05
0.0001088747
-2.9348061e-05
0.0001139672
-3.993805e-05
0.00011786874
-5.0945822e-05
0.00012041235
-6.219549e-05
0.00012144094
-7.3480595e-05
0.00012081536
-8.4565905e-05
0.000118425
-9.5192181e-05
0.00011419961
-0.00010508441
0.00010812177
-0.00011396372
0.00010023836
-0.0001215625
9.0669094e-05
-0.00012764152
7.9609866e-05
-0.00013200708
6.7329277e-05
-0.00013452613
5.415871e-05
-0.00013513782
4.0476464e-05
-0.00013385957
2.668583e-05
-0.00013078701
1.3191359e-05
-0.000126084
3.7239227e-07
-0.00011996151
-1.1485761e-05
-0.00011270502
-2.2030375e-05
-0.00010460179
-3.1113469e-05
-9.5950225e-05
-3.8617538e-05
-8.7041354e-05
-4.4500838e-05
-7.8145128e-05
-4.8791508e-05
-6.9500006e-05
-5.1577563e-05
-6.1305693e-05
-5.2995127e-05
-5.3718891e-05
-5.3215799e-05
-4.6851567e-05
-5.2434271e-05
-4.0771478e-05
-5.0857131e-05
-3.5504693e-05
-4.8691856e-05
-3.1040206e-05
-4.6136205e-05
-2.733586e-05
-4.337001e-05
-2.4325195e-05
-4.0548728e-05
-2.1924646e-05
-3.7799288e-05
-2.0040921e-05
-3.5217712e-05
-1.8577408e-05
-3.2869819e-05
-1.7440552e-05
-3.0792516e-05
-1.6545176e-05
-2.8996763e-05
-1.5818095e-05
-2.7472683e-05
-1.5199989e-05
-2.6195485e-05
-1.4645787e-05
-2.5131184e-05
-1.4123895e-05
-2.4241668e-05
-1.3614688e-05
-2.3488758e-05
-1.3108226e-05
-2.2837562e-05
-1.2601644e-05
-2.2258666e-05
-1.2096717e-05
-2.1729048e-05
-1.1597735e-05
-2.123207e-05
-1.1109848e-05
-2.0756813e-05
-1.0637889e-05
-2.0297021e-05
-1.0185675e-05
-1.9849886e-05
-9.755706e-06
-1.9414878e-05
-9.349157e-06
-1.8992724e-05
-8.9660683e-06
-1.858463e-05
-1.8191746e-05
3.6382591e-07
-1.8691457e-06
1.449803e-06
-5.5766514e-06
3.2077023e-06
-9.0342308e-06
5.576219e-06
-1.2091896e-05
8.4589112e-06
-1.4549616e-05
1.1761057e-05
-1.6289816e-05
1.5376566e-05
-1.7199929e-05
1.9189701e-05
-1.7187521e-05
2.3075125e-05
-1.6178506e-05
2.6897509e-05
-1.4117654e-05
3.0516001e-05
-1.0975869e-05
3.3789362e-05
-6.7548169e-06
3.6584972e-05
-1.4825094e-06
3.877e-05
4.7836462e-06
4.0232471e-05
1.1951674e-05
4.0874035e-05
1.9916799e-05
4.0613343e-05
2.8555411e-05
3.9386009e-05
3.7731614e-05
3.7144002e-05
4.7300888e-05
3.3854572e-05
5.7113388e-05
2.9499093e-05
6.7015615e-05
2.4070704e-05
7.6851981e-05
1.7575385e-05
8.6462539e-05
1.0032167e-05
9.5683148e-05
1.4731784e-06
0.00010434594
-8.0450737e-06
0.00011228091
-1.8464754e-05
0.00011929438
-2.9689591e-05
0.00012519203
-4.1596007e-05
0.00012977516
-5.4026976e-05
0.00013284332
-6.67878e-05
0.00013420176
-7.9644117e-05
0.00013367168
-9.2322575e-05
0.00013110346
-0.00010451542
0.00012639245
-0.00011588978
0.00011949614
-0.00012610233
0.00011045091
-0.00013481883
9.9385587e-05
-0.00014173716
8.6528202e-05
-0.00014661107
7.2203189e-05
-0.00014927122
5.6818858e-05
-0.00014964166
4.0846902e-05
-0.00014774838
2.4792547e-05
-0.00014372509
9.1680676e-06
-0.00013773618
-5.6165109e-06
-0.00013013587
-1.9086074e-05
-0.00012124035
-3.0925895e-05
-0.00011141829
-4.0935529e-05
-0.00010104225
-4.8993584e-05
-9.0469492e-05
-5.5073592e-05
-8.0026001e-05
-5.9234999e-05
-6.9994393e-05
-6.160917e-05
-6.0606034e-05
-6.2383486e-05
-5.2036844e-05
-6.1784988e-05
-4.4406011e-05
-6.0065105e-05
-3.7777892e-05
-5.7485251e-05
-3.2165543e-05
-5.4304205e-05
-2.7537191e-05
-5.0764557e-05
-2.3824303e-05
-4.7082899e-05
-2.0930603e-05
-4.3442427e-05
-1.874099e-05
-3.9988901e-05
-1.7130987e-05
-3.6827715e-05
-1.5974557e-05
-3.402625e-05
-1.5152594e-05
-3.1614479e-05
-1.4559434e-05
-2.9589923e-05
-1.410713e-05
-2.7924988e-05
-1.3727156e-05
-2.6575458e-05
-1.337023e-05
-2.5488109e-05
-1.3005077e-05
-2.4606821e-05
-1.2615742e-05
-2.3878093e-05
-1.219793e-05
-2.3255374e-05
-1.1755353e-05
-2.2701243e-05
-1.1296373e-05
-2.2188029e-05
-1.0831211e-05
-2.1697231e-05
-1.0369883e-05
-2.1218142e-05
-9.9208548e-06
-2.0746048e-05
-9.4903656e-06
-2.0280375e-05
-9.0822816e-06
-1.9822962e-05
-8.6983304e-06
-1.9376675e-05
-8.3385539e-06
-1.8944406e-05
-1.8528463e-05
4.3396358e-07
-2.3031093e-06
1.7274064e-06
-6.8700943e-06
3.8007733e-06
-1.1107598e-05
6.5811752e-06
-1.4872297e-05
9.9392587e-06
-1.79077e-05
1.3772934e-05
-2.0123492e-05
1.7965932e-05
-2.1392926e-05
2.2391496e-05
-2.1613085e-05
2.6909758e-05
-2.0696768e-05
3.1365867e-05
-1.8573763e-05
3.5596894e-05
-1.5206896e-05
3.9438662e-05
-1.0596584e-05
4.2734147e-05
-4.7779951e-06
4.5335953e-05
2.1818403e-06
4.7115891e-05
1.0171737e-05
4.7964525e-05
1.9068165e-05
4.7793645e-05
2.8726292e-05
4.6535189e-05
3.899007e-05
4.4139744e-05
4.9696333e-05
4.0574447e-05
6.0678684e-05
3.5820532e-05
7.176953e-05
2.9871762e-05
8.2800751e-05
2.273153e-05
9.360277e-05
1.4414924e-05
0.00010399975
4.9509101e-06
0.00011380996
-5.6119878e-06
0.00012284381
-1.7221812e-05
0.0001309042
-2.9781792e-05
0.00013775201
-4.3168011e-05
0.00014316138
-5.7215658e-05
0.00014689097
-7.1712317e-05
0.00014869842
-8.6394078e-05
0.00014835344
-0.0001009444
0.00014565378
-0.00011499781
0.00014044586
-0.00012815
0.00013264833
-0.00013997545
0.00012227636
-0.00015005276
0.0001094629
-0.00015799591
9.4471353e-05
-0.00016348737
7.7694644e-05
-0.00016630793
5.9639417e-05
-0.00016635988
4.0898859e-05
-0.00016367989
2.2112556e-05
-0.00015843713
3.925303e-06
-0.00015087886
-1.3174775e-05
-0.00014142784
-2.8537095e-05
-0.00013051137
-4.1842373e-05
-0.00011859265
-5.285424e-05
-0.00010613588
-6.145036e-05
-9.357951e-05
-6.762996e-05
-8.1316582e-05
-7.1497927e-05
-6.9680913e-05
-7.3244839e-05
-5.8938903e-05
-7.3125497e-05
-4.928574e-05
-7.1438151e-05
-4.0845028e-05
-6.8505817e-05
-3.3672858e-05
-6.4657421e-05
-2.7762517e-05
-6.0214546e-05
-2.3052863e-05
-5.547421e-05
-1.9439917e-05
-5.0695845e-05
-1.6788607e-05
-4.6093738e-05
-1.4942833e-05
-4.1834675e-05
-1.3738594e-05
-3.8031953e-05
-1.3012948e-05
-3.4751897e-05
-1.2615401e-05
-3.2012025e-05
-1.2415818e-05
-2.9789507e-05
-1.2309667e-05
-2.8031138e-05
-1.2219072e-05
-2.6666053e-05
-1.2092238e-05
-2.5614943e-05
-1.1901258e-05
-2.4797801e-05
-1.1637293e-05
-2.4142059e-05
-1.1305332e-05
-2.3587335e-05
-1.0919039e-05
-2.3087536e-05
-1.0496198e-05
-2.261087e-05
-1.0055113e-05
-2.2138316e-05
-9.6120895e-06
-2.1661165e-05
-9.1799499e-06
-2.1178188e-05
-8.7675192e-06
-2.0692806e-05
-8.3798079e-06
-2.0210673e-05
-8.0186439e-06
-1.9737839e-05
-7.6835427e-06
-1.9279507e-05
-1.8839426e-05
5.2344266e-07
-2.8265519e-06
2.0807064e-06
-8.4273581e-06
4.5329045e-06
-1.3559796e-05
7.8017057e-06
-1.8141099e-05
1.1701897e-05
-2.1807891e-05
1.613497e-05
-2.4556565e-05
2.097787e-05
-2.6235826e-05
2.609688e-05
-2.6732095e-05
3.1337587e-05
-2.5937475e-05
3.6520871e-05
-2.3757047e-05
4.1455512e-05
-2.0141536e-05
4.5947797e-05
-1.5088869e-05
4.9814885e-05
-8.6450837e-06
5.2888907e-05
-8.921821e-07
5.5024008e-05
8.0366366e-06
5.6099492e-05
1.799268e-05
5.6021466e-05
2.8804317e-05
5.4720141e-05
4.0291395e-05
5.2147105e-05
5.226937e-05
4.8271795e-05
6.4553994e-05
4.3077586e-05
7.696374e-05
3.6558397e-05
8.931994e-05
2.8716804e-05
0.00010144436
1.9563e-05
0.00011315356
9.1173414e-06
0.00012425562
-2.5817016e-06
0.00013454285
-1.5498434e-05
0.00014382094
-2.9535033e-05
0.00015178861
-4.4576197e-05
0.00015820254
-6.0454439e-05
0.00016276921
-7.6942635e-05
0.00016518661
-9.3746881e-05
0.00016515769
-0.00011050268
0.00016240958
-0.0001267765
0.00015671969
-0.00014207588
0.0001479477
-0.00015587009
0.00013607058
-0.00016762282
0.00012121563
-0.00017683468
0.00010368321
-0.00018309023
8.3950196e-05
-0.00018610154
6.2650723e-05
-0.0001857428
4.0540116e-05
-0.00018207247
1.8442229e-05
-0.00017525074
-2.8964312e-06
-0.00016572094
-2.2704573e-05
-0.00015396797
-4.0290061e-05
-0.00014055466
-5.5255685e-05
-0.00012607165
-6.7337247e-05
-0.00011109945
-7.6422557e-05
-9.6176229e-05
-8.2553185e-05
-8.1774687e-05
-8.5899469e-05
-6.8287074e-05
-8.6732452e-05
-5.6017493e-05
-8.5395077e-05
-4.5179126e-05
-8.2276517e-05
-3.5895332e-05
-7.7789611e-05
-2.8206668e-05
-7.2346085e-05
-2.2078492e-05
-6.6342721e-05
-1.7408203e-05
-6.01445e-05
-1.4044773e-05
-5.4059275e-05
-1.1803514e-05
-4.8334996e-05
-1.0474015e-05
-4.3164174e-05
-9.8436035e-06
-3.8662364e-05
-9.7028048e-06
-3.4892696e-05
-9.8629517e-06
-3.1851878e-05
-1.0164532e-05
-2.9487926e-05
-1.0484646e-05
-2.7711025e-05
-1.0736577e-05
-2.6414123e-05
-1.0869402e-05
-2.5482117e-05
-1.0862925e-05
-2.4804278e-05
-1.0720517e-05
-2.4284467e-05
-1.0461539e-05
-2.3846312e-05
-1.0114172e-05
-2.3434903e-05
-9.7093388e-06
-2.3015703e-05
-9.2761125e-06
-2.2571543e-05
-8.8386065e-06
-2.2098671e-05
-8.4145734e-06
-2.1602221e-05
-8.015285e-06
-2.1092094e-05
-7.6462487e-06
-2.0579709e-05
-7.3085297e-06
-2.0075558e-05
-7.0002408e-06
-1.9587796e-05
-1.9121774e-05
6.4266716e-07
-3.4692191e-06
2.5491655e-06
-1.0333856e-05
5.4581596e-06
-1.646879e-05
9.3085819e-06
-2.1991521e-05
1.3816739e-05
-2.6316048e-05
1.8915046e-05
-2.9654872e-05
2.4480335e-05
-3.1801116e-05
3.038116e-05
-3.2632919e-05
3.6447228e-05
-3.2003543e-05
4.2467565e-05
-2.9777384e-05
4.8213377e-05
-2.5887348e-05
5.3454824e-05
-2.0330317e-05
5.7973843e-05
-1.3164102e-05
6.1581071e-05
-4.4994108e-06
6.4107367e-05
5.5103408e-06
6.5425316e-05
1.6674732e-05
6.5436182e-05
2.8793451e-05
6.4071548e-05
4.1656029e-05
6.1287681e-05
5.5053237e-05
5.7060044e-05
6.8781631e-05
5.1377103e-05
8.2646681e-05
4.4235184e-05
9.6461858e-05
3.563504e-05
0.00011004451
2.5579149e-05
0.00012320945
1.407456e-05
0.00013576021
1.1348192e-06
0.00014748259
-1.3180812e-05
0.00015813657
-2.883311e-05
0.00016744091
-4.5712457e-05
0.00017508189
-6.3654233e-05
0.00018071099
-8.2422321e-05
0.0001839547
-0.00010169475
0.00018443012
-0.00012105536
0.00018177019
-0.00013999149
0.00017565581
-0.0001579024
0.00016585861
-0.00017412257
0.00015229075
-0.00018796296
0.00013505602
-0.00019876919
0.00011448944
-0.00020598888
9.1169882e-05
-0.00020923495
6.5896793e-05
-0.00020833716
3.964233e-05
-0.00020338268
1.348775e-05
-0.00019458951
-1.1689602e-05
-0.000182547
-3.4747084e-05
-0.000167904
-5.4933065e-05
-0.00015139117
-7.1768516e-05
-0.00013376235
-8.4966069e-05
-0.00011574399
-9.4440912e-05
-9.7995571e-05
-0.00010030161
-8.1083174e-05
-0.00010281187
-6.5464168e-05
-0.00010235146
-5.1481379e-05
-9.9377867e-05
-3.9362709e-05
-9.4395187e-05
-2.9224538e-05
-8.7927783e-05
-2.1080225e-05
-8.0490398e-05
-1.4859569e-05
-7.2563378e-05
-1.03999e-05
-6.4604169e-05
-7.4886722e-06
-5.6970503e-05
-5.880202e-06
-4.9943466e-05
-5.2879568e-06
-4.3756419e-05
-5.4434836e-06
-3.8506837e-05
-6.077119e-06
-3.425906e-05
-6.9555176e-06
-3.0973479e-05
-7.8833326e-06
-2.8560111e-05
-8.7173565e-06
-2.6877001e-05
-9.3641952e-06
-2.5767284e-05
-9.7786689e-06
-2.5067644e-05
-9.9549284e-06
-2.4628019e-05
-9.9158794e-06
-2.4323516e-05
-9.7023089e-06
-2.4059883e-05
-9.3630789e-06
-2.3774133e-05
-8.947173e-06
-2.3431609e-05
-8.4975275e-06
-2.3021188e-05
-8.0475828e-06
-2.2548616e-05
-7.6202809e-06
-2.2029523e-05
-7.2285842e-06
-2.1483791e-05
-6.8771817e-06
-2.0931112e-05
-6.5649054e-06
-2.0387834e-05
-6.2871043e-06
-1.9865597e-05
-1.9371245e-05
8.1235002e-07
-4.2815691e-06
3.2004418e-06
-1.2721948e-05
6.6630397e-06
-1.9931388e-05
1.1203904e-05
-2.6532386e-05
1.637245e-05
-3.1484593e-05
2.2188836e-05
-3.5471258e-05
2.8542953e-05
-3.8155233e-05
3.5323644e-05
-3.941361e-05
4.2339286e-05
-3.9019185e-05
4.9330297e-05
-3.6768396e-05
5.6016917e-05
-3.2573968e-05
6.2121264e-05
-2.6434664e-05
6.7386238e-05
-1.8429076e-05
7.1587944e-05
-8.7011168e-06
7.4540715e-05
2.5575697e-06
7.6109862e-05
1.5105585e-05
7.6194589e-05
2.8708724e-05
7.4732844e-05
4.3117774e-05
7.1691487e-05
5.8094593e-05
6.7057516e-05
7.3415601e-05
6.0829193e-05
8.8875004e-05
5.3008336e-05
0.00010428272
4.359399e-05
0.00011945885
3.2580823e-05
0.00013422262
1.9959955e-05
0.00014838107
5.7261685e-06
0.00016171638
-1.0111778e-05
0.00017397451
-2.7522992e-05
0.00018485212
-4.6428443e-05
0.00019398734
-6.6682488e-05
0.00020096503
-8.8051432e-05
0.00020532365
-0.00011019181
0.0002065705
-0.00013263451
0.00020421288
-0.00015477688
0.00019779818
-0.00017588645
0.00018696819
-0.00019512498
0.00017152927
-0.00021159925
0.0001515303
-0.00022444066
0.00012733085
-0.00023290279
9.9632017e-05
-0.00023645648
6.9450481e-05
-0.00023486423
3.8050079e-05
-0.00022824867
6.8721917e-06
-0.00021691862
-2.3019648e-05
-0.00020167505
-4.9990658e-05
-0.00018338753
-7.3220588e-05
-0.00016301161
-9.2144435e-05
-0.00014151308
-0.00010646459
-0.00011980134
-0.00011615265
-9.8681882e-05
-0.00012142106
-7.8828042e-05
-0.00012266571
-6.0767335e-05
-0.00012041217
-4.4879308e-05
-0.00011526589
-3.1400026e-05
-0.00010787447
-2.0430121e-05
-9.8897687e-05
-1.1936028e-05
-8.898449e-05
-5.8156938e-06
-7.8683713e-05
-1.811226e-06
-6.8608637e-05
3.6259679e-07
-5.9144326e-05
1.0642383e-06
-5.0645108e-05
6.2462687e-07
-4.3316808e-05
-5.7041064e-07
-3.73118e-05
-2.2027974e-06
-3.2626674e-05
-3.9892642e-06
-2.9187013e-05
-5.6869334e-06
-2.6862442e-05
-7.1281943e-06
-2.543574e-05
-8.2168448e-06
-2.4678634e-05
-8.9209337e-06
-2.4363555e-05
-9.2588494e-06
-2.4290103e-05
-9.2834542e-06
-2.4298911e-05
-9.0666852e-06
-2.4276652e-05
-8.6866403e-06
-2.4154178e-05
-8.2164514e-06
-2.3901797e-05
-7.7164282e-06
-2.3521211e-05
-7.2306742e-06
-2.303437e-05
-6.7868599e-06
-2.2473337e-05
-6.397815e-06
-2.1872836e-05
-6.0650962e-06
-2.1263831e-05
-5.782953e-06
-2.0669978e-05
-5.5419525e-06
-2.0106598e-05
-1.9581397e-05
1.0802678e-06
-5.3618369e-06
4.1743537e-06
-1.5816034e-05
8.2944143e-06
-2.4051448e-05
1.3631037e-05
-3.1869008e-05
1.9468436e-05
-3.7321992e-05
2.6022002e-05
-4.2024825e-05
3.3218982e-05
-4.5352213e-05
4.0997971e-05
-4.7192599e-05
4.9124766e-05
-4.714598e-05
5.7259816e-05
-4.4903446e-05
6.5048355e-05
-4.0362506e-05
7.2150951e-05
-3.353726e-05
7.8262899e-05
-2.4541024e-05
8.3126827e-05
-1.3565044e-05
8.6531437e-05
-8.4704072e-07
8.8348937e-05
1.3288084e-05
8.8474572e-05
2.8583089e-05
8.6861805e-05
4.4730541e-05
8.3496687e-05
6.1459711e-05
7.8385824e-05
7.8526465e-05
7.1544066e-05
9.5716762e-05
6.2982987e-05
0.00011284379
5.2702474e-05
0.00012973937
4.0685137e-05
0.00014623995
2.6899996e-05
0.00016216621
1.1307384e-05
0.00017730899
-6.1235633e-06
0.00019140546
-2.5414534e-05
0.00020414309
-4.6525544e-05
0.00021509835
-6.9348463e-05
0.00022378795
-9.3668941e-05
0.00022964412
-0.00011913495
0.00023203651
-0.00014522822
0.00023030615
-0.00017124716
0.00022381713
-0.00019630142
0.00021202244
-0.00021933235
0.0001945602
-0.00023917291
0.00017137085
-0.00025465511
0.00014281305
-0.00026475446
0.00010973137
-0.00026873653
7.3432552e-05
-0.00026628147
3.559502e-05
-0.00025742292
-1.9863623e-06
-0.00024282743
-3.7615135e-05
-0.00022347949
-6.9338597e-05
-0.00020056829
-9.6131787e-05
-0.00017535675
-0.00011735598
-0.00014908638
-0.00013273497
-0.00012289404
-0.00014234499
-9.7757929e-05
-0.00014655718
-7.4470576e-05
-0.00014595306
-5.3630727e-05
-0.00014125202
-3.564785e-05
-0.00013324877
-2.0754861e-05
-0.00012276746
-9.0329151e-06
-0.00011061963
-3.9225389e-07
-9.7625151e-05
5.4492267e-06
-8.4525193e-05
8.7230073e-06
-7.1882417e-05
9.8394623e-06
-6.0260781e-05
9.2378033e-06
-5.0043449e-05
7.4007022e-06
-4.1479707e-05
4.7830659e-06
-3.4694164e-05
1.8216042e-06
-2.9665212e-05
-1.1057183e-06
-2.625969e-05
-3.7388426e-06
-2.4229318e-05
-5.8836221e-06
-2.3290961e-05
-7.4483812e-06
-2.3113874e-05
-8.4264882e-06
-2.3385448e-05
-8.8752722e-06
-2.3841319e-05
-8.8922933e-06
-2.428189e-05
-8.5944043e-06
-2.4574541e-05
-8.1003936e-06
-2.4648189e-05
-7.5149263e-06
-2.4487265e-05
-6.91952e-06
-2.4116618e-05
-6.369735e-06
-2.3584155e-05
-5.8959076e-06
-2.2947165e-05
-5.5073801e-06
-2.2261363e-05
-5.1987631e-06
-2.1572448e-05
-4.9561395e-06
-2.0912601e-05
-4.7623964e-06
-2.0300341e-05
-1.9742653e-05
1.5535731e-06
-6.91541e-06
5.750115e-06
-2.0012576e-05
1.0595369e-05
-2.8896703e-05
1.6761488e-05
-3.8035127e-05
2.3167252e-05
-4.3727757e-05
3.0410851e-05
-4.9268424e-05
3.849269e-05
-5.3434051e-05
4.7440195e-05
-5.6140105e-05
5.6918256e-05
-5.6624041e-05
6.6443128e-05
-5.4428318e-05
7.5547029e-05
-4.9466407e-05
8.3812371e-05
-4.1802602e-05
9.0882727e-05
-3.161138e-05
9.6467838e-05
-1.9150156e-05
0.00010034879
-4.727997e-06
0.0001023805
1.1256384e-05
0.00010248417
2.8479418e-05
0.00010063589
4.6578817e-05
9.6851872e-05
6.5243731e-05
9.1169718e-05
8.4208619e-05
8.3630701e-05
0.00010325578
7.4262918e-05
0.00012221158
6.3068777e-05
0.00014093351
5.0018152e-05
0.00015929058
3.5047717e-05
0.00017713665
1.8071844e-05
0.00019428487
-1.0047739e-06
0.00021048208
-2.2264705e-05
0.00022540303
-4.5738473e-05
0.00023857212
-7.1383093e-05
0.00024943257
-9.9028671e-05
0.0002572897
-0.00012833666
0.0002613445
-0.00015875344
0.00026072293
-0.00018947474
0.00025453842
-0.00021942598
0.00024197369
-0.00024727008
0.0002224043
-0.00027147174
0.00019557251
-0.00029043895
0.00016178026
-0.00030273682
0.00012202924
-0.00030731901
7.8014742e-05
-0.00030372483
3.2000838e-05
-0.00029197433
-1.3736861e-05
-0.00027307705
-5.651242e-05
-0.00024839989
-9.401575e-05
-0.00021957731
-0.00012495437
-0.0001882854
-0.00014864789
-0.00015611927
-0.0001649011
-0.00012449374
-0.00017397052
-9.4585372e-05
-0.00017646554
-6.731223e-05
-0.0001732262
-4.3337801e-05
-0.00016522644
-2.3088217e-05
-0.00015349835
-6.7864617e-06
-0.00013906921
5.6184083e-06
-0.0001230245
1.424703e-05
-0.00010625377
1.9376153e-05
-8.9654317e-05
2.1460272e-05
-7.3966536e-05
2.101821e-05
-5.9818719e-05
1.863457e-05
-4.765981e-05
1.4923273e-05
-3.7768409e-05
1.0479601e-05
-3.0250492e-05
5.8505914e-06
-2.5036203e-05
1.485046e-06
-2.1894145e-05
-2.2700822e-06
-2.0474189e-05
-5.2113488e-06
-2.0349694e-05
-7.2625761e-06
-2.1062647e-05
-8.4612972e-06
-2.2186727e-05
-8.9254904e-06
-2.3377126e-05
-8.8182652e-06
-2.4389116e-05
-8.3211825e-06
-2.5071623e-05
-7.6083142e-06
-2.5361057e-05
-6.824886e-06
-2.5270693e-05
-6.0775104e-06
-2.4863993e-05
-5.4323507e-06
-2.4229315e-05
-4.917852e-06
-2.3461663e-05
-4.5341286e-06
-2.2645087e-05
-4.2628714e-06
-2.1843705e-05
-4.0766916e-06
-2.1098781e-05
-3.9467828e-06
-2.043025e-05
-1.9841182e-05
2.3838718e-06
-9.2992819e-06
8.3431537e-06
-2.5971858e-05
1.3837242e-05
-3.4390791e-05
2.0640592e-05
-4.4838477e-05
2.7314192e-05
-5.0401357e-05
3.5111817e-05
-5.7066049e-05
4.4145462e-05
-6.2467696e-05
5.4562147e-05
-6.6556789e-05
6.5796433e-05
-6.7858327e-05
7.7102811e-05
-6.5734696e-05
8.7835082e-05
-6.0198678e-05
9.7477201e-05
-5.1444721e-05
0.00010563043
-3.9764611e-05
0.0001119878
-2.550752e-05
0.00011632699
-9.0671893e-06
0.00011850702
9.0763566e-06
0.00011848339
2.8503047e-05
0.00011627026
4.8791941e-05
0.00011193028
6.9583709e-05
0.00010554794
9.0590962e-05
9.7204599e-05
0.00011159912
8.6954625e-05
0.00013246155
7.4806974e-05
0.00015308116
6.0714645e-05
0.00017338291
4.4573243e-05
0.00019327805
2.6231514e-05
0.00021262659
5.5124629e-06
0.00023120113
-1.7753188e-05
0.00024866868
-4.3707896e-05
0.00026452683
-7.2407911e-05
0.00027813258
-0.00010376503
0.00028864682
-0.00013748944
0.00029506891
-0.00017302083
0.00029625433
-0.00020946104
0.00029097862
-0.00024552796
0.00027804062
-0.0002795378
0.00025641414
-0.00030946216
0.00022549686
-0.00033310648
0.00018542458
-0.00034842513
0.00013734789
-0.00035389601
8.3485618e-05
-0.00034885045
2.6955278e-05
-0.00033325317
-2.9334146e-05
-0.00030860571
-8.1159875e-05
-0.00027693127
-0.00012569018
-0.00024049378
-0.00016139186
-0.0002015245
-0.00018761717
-0.00016206596
-0.00020435964
-0.0001238641
-0.00021217238
-8.8313728e-05
-0.00021201591
-5.6455266e-05
-0.00020508466
-2.8998042e-05
-0.00019268367
-6.3555364e-06
-0.00017614086
1.1389358e-05
-0.00015681411
2.4224891e-05
-0.00013586004
3.2420607e-05
-0.00011444949
3.6395488e-05
-9.3629199e-05
3.673327e-05
-7.4304317e-05
3.4124566e-05
-5.7210015e-05
2.9333993e-05
-4.2869238e-05
2.3150804e-05
-3.158522e-05
1.6338649e-05
-2.3438336e-05
9.594171e-06
-1.8291725e-05
3.4762281e-06
-1.5776202e-05
-1.6048817e-06
-1.539308e-05
-5.4200346e-06
-1.6534541e-05
-7.9263678e-06
-1.8556314e-05
-9.2336357e-06
-2.0879459e-05
-9.551696e-06
-2.3059066e-05
-9.1395242e-06
-2.4801287e-05
-8.2705714e-06
-2.5940576e-05
-7.193135e-06
-2.6438494e-05
-6.1036864e-06
-2.6360142e-05
-5.1370941e-06
-2.5830585e-05
-4.3659689e-06
-2.500044e-05
-3.8084247e-06
-2.4019207e-05
-3.4459652e-06
-2.3007546e-05
-3.2382639e-06
-2.2051406e-05
-3.136845e-06
-2.12002e-05
-3.0959386e-06
-2.0471156e-05
-1.9857768e-05
3.4707197e-06
-1.2770002e-05
1.1985072e-05
-3.448621e-05
1.7759615e-05
-4.0165335e-05
2.4584278e-05
-5.1663139e-05
3.1026085e-05
-5.6843164e-05
3.9239741e-05
-6.5279704e-05
4.9481231e-05
-7.2709187e-05
6.1962455e-05
-7.9038012e-05
7.5666842e-05
-8.1562714e-05
8.9426014e-05
-7.9493868e-05
0.0001023095
-7.3082162e-05
0.0001136639
-6.2799121e-05
0.00012306344
-4.9164151e-05
0.0001302257
-3.2669784e-05
0.00013496191
-1.3803396e-05
0.00013716467
6.8735991e-06
0.00013684293
2.8824789e-05
0.00013406918
5.1565686e-05
0.00012897499
7.4677896e-05
0.00012171389
9.7852062e-05
0.00011242664
0.00012088638
0.00010120772
0.00014368047
8.8078504e-05
0.00016621037
7.2971993e-05
0.00018848942
5.5729626e-05
0.00021052042
3.6113912e-05
0.00023224231
1.3835436e-05
0.00025347961
-1.1408157e-05
0.00027391227
-3.9902666e-05
0.00029302134
-7.185092e-05
0.00031008084
-0.00010730339
0.00032409929
-0.00014607375
0.00033383927
-0.00018764699
0.00033782756
-0.00023106829
0.00033439992
-0.00027483914
0.00032181147
-0.00031685587
0.00029843087
-0.00035443141
0.00026307241
-0.00038450278
0.00021549595
-0.00040408888
0.000156934
-0.00041092323
9.0319968e-05
-0.00040376909
1.9801131e-05
-0.00038300791
-5.009532e-05
-0.00035062542
-0.00011354237
-0.00030965115
-0.00016666445
-0.0002633151
-0.00020772792
-0.00021460712
-0.00023632514
-0.00016612272
-0.00025284405