/*--------------------------------*- C++ -*----------------------------------*\
| =========                 |                                                 |
| \\      /  F ield         | OpenFOAM: The Open Source CFD Toolbox           |
|  \\    /   O peration     | Version:  2106                                  |
|   \\  /    A nd           | Website:  www.openfoam.com                      |
|    \\/     M anipulation  |                                                 |
\*---------------------------------------------------------------------------*/
FoamFile
{
    version     2.0;
    format      ascii;
    arch        "LSB;label=32;scalar=64";
    class       volScalarField;
    location    "0.7";
    object      p;
}
// * * * * * * * * * * * * * * * * * * * * * * * * * * * * * * * * * * * * * //

dimensions      [1 -1 -2 0 0 0 0];

internalField   nonuniform List<scalar> 
90000
(
0
9.85771e-10
4.18051e-09
8.92756e-09
1.52099e-08
2.35345e-08
3.38857e-08
4.58694e-08
5.92693e-08
7.41716e-08
9.07211e-08
1.08933e-07
1.28714e-07
1.49971e-07
1.72655e-07
1.96749e-07
2.22229e-07
2.49051e-07
2.77157e-07
3.0649e-07
3.36997e-07
3.68629e-07
4.01334e-07
4.35056e-07
4.69735e-07
5.05304e-07
5.41702e-07
5.78863e-07
6.16722e-07
6.55217e-07
6.94279e-07
7.33843e-07
7.73838e-07
8.14192e-07
8.54832e-07
8.95682e-07
9.3667e-07
9.77727e-07
1.01878e-06
1.05977e-06
1.10061e-06
1.14124e-06
1.18158e-06
1.22156e-06
1.2611e-06
1.30016e-06
1.33865e-06
1.37652e-06
1.4137e-06
1.45013e-06
1.48572e-06
1.52042e-06
1.55416e-06
1.5869e-06
1.61859e-06
1.64915e-06
1.67854e-06
1.70671e-06
1.73358e-06
1.75913e-06
1.78329e-06
1.80605e-06
1.82737e-06
1.8472e-06
1.86551e-06
1.88226e-06
1.89743e-06
1.91098e-06
1.92289e-06
1.93316e-06
1.94176e-06
1.94868e-06
1.95391e-06
1.95742e-06
1.95922e-06
1.9593e-06
1.95768e-06
1.95435e-06
1.94932e-06
1.9426e-06
1.93419e-06
1.9241e-06
1.91237e-06
1.899e-06
1.88404e-06
1.86749e-06
1.84938e-06
1.82975e-06
1.80863e-06
1.78606e-06
1.76207e-06
1.73672e-06
1.71003e-06
1.68207e-06
1.65288e-06
1.62251e-06
1.59102e-06
1.55847e-06
1.52491e-06
1.4904e-06
1.45499e-06
1.41874e-06
1.38173e-06
1.34401e-06
1.30567e-06
1.26676e-06
1.22736e-06
1.18752e-06
1.14733e-06
1.10683e-06
1.06613e-06
1.02528e-06
9.84355e-07
9.43436e-07
9.02585e-07
8.61869e-07
8.21356e-07
7.81122e-07
7.41243e-07
7.01794e-07
6.62846e-07
6.24462e-07
5.86704e-07
5.49637e-07
5.13333e-07
4.77859e-07
4.43282e-07
4.09657e-07
3.77038e-07
3.45478e-07
3.15033e-07
2.8576e-07
2.57713e-07
2.3094e-07
2.05482e-07
1.81381e-07
1.58682e-07
1.37433e-07
1.17674e-07
9.94369e-08
8.27473e-08
6.76318e-08
5.41218e-08
4.22493e-08
3.20379e-08
2.35003e-08
1.6643e-08
1.14752e-08
8.01014e-09
6.26426e-09
-0.00666667
-0.00666667
-0.00666666
-0.00666666
-0.00666665
-0.00666664
-0.00666663
-0.00666662
-0.00666661
-0.00666659
-0.00666658
-0.00666656
-0.00666654
-0.00666652
-0.0066665
-0.00666647
-0.00666645
-0.00666642
-0.00666639
-0.00666636
-0.00666633
-0.0066663
-0.00666627
-0.00666623
-0.0066662
-0.00666616
-0.00666613
-0.00666609
-0.00666605
-0.00666601
-0.00666597
-0.00666593
-0.00666589
-0.00666585
-0.00666581
-0.00666577
-0.00666573
-0.00666569
-0.00666565
-0.00666561
-0.00666557
-0.00666553
-0.00666548
-0.00666544
-0.00666541
-0.00666537
-0.00666533
-0.00666529
-0.00666525
-0.00666522
-0.00666518
-0.00666515
-0.00666511
-0.00666508
-0.00666505
-0.00666502
-0.00666499
-0.00666496
-0.00666493
-0.00666491
-0.00666488
-0.00666486
-0.00666484
-0.00666482
-0.0066648
-0.00666478
-0.00666477
-0.00666475
-0.00666474
-0.00666473
-0.00666472
-0.00666472
-0.00666471
-0.00666471
-0.00666471
-0.00666471
-0.00666471
-0.00666471
-0.00666472
-0.00666472
-0.00666473
-0.00666474
-0.00666475
-0.00666477
-0.00666478
-0.0066648
-0.00666482
-0.00666484
-0.00666486
-0.00666488
-0.0066649
-0.00666493
-0.00666496
-0.00666498
-0.00666501
-0.00666504
-0.00666507
-0.00666511
-0.00666514
-0.00666518
-0.00666521
-0.00666525
-0.00666528
-0.00666532
-0.00666536
-0.0066654
-0.00666544
-0.00666548
-0.00666552
-0.00666556
-0.0066656
-0.00666564
-0.00666568
-0.00666572
-0.00666576
-0.00666581
-0.00666585
-0.00666589
-0.00666593
-0.00666597
-0.006666
-0.00666604
-0.00666608
-0.00666612
-0.00666615
-0.00666619
-0.00666622
-0.00666626
-0.00666629
-0.00666632
-0.00666635
-0.00666638
-0.00666641
-0.00666644
-0.00666646
-0.00666649
-0.00666651
-0.00666653
-0.00666655
-0.00666657
-0.00666659
-0.0066666
-0.00666661
-0.00666663
-0.00666664
-0.00666664
-0.00666665
-0.00666666
-0.00666666
-0.00666666
-0.0133333
-0.0133333
-0.0133333
-0.0133333
-0.0133333
-0.0133333
-0.0133333
-0.0133333
-0.0133333
-0.0133333
-0.0133332
-0.0133332
-0.0133332
-0.0133332
-0.0133332
-0.0133331
-0.0133331
-0.0133331
-0.0133331
-0.013333
-0.013333
-0.013333
-0.0133329
-0.0133329
-0.0133329
-0.0133328
-0.0133328
-0.0133328
-0.0133327
-0.0133327
-0.0133326
-0.0133326
-0.0133326
-0.0133325
-0.0133325
-0.0133324
-0.0133324
-0.0133324
-0.0133323
-0.0133323
-0.0133322
-0.0133322
-0.0133322
-0.0133321
-0.0133321
-0.013332
-0.013332
-0.013332
-0.0133319
-0.0133319
-0.0133318
-0.0133318
-0.0133318
-0.0133317
-0.0133317
-0.0133317
-0.0133317
-0.0133316
-0.0133316
-0.0133316
-0.0133315
-0.0133315
-0.0133315
-0.0133315
-0.0133315
-0.0133314
-0.0133314
-0.0133314
-0.0133314
-0.0133314
-0.0133314
-0.0133314
-0.0133314
-0.0133314
-0.0133314
-0.0133314
-0.0133314
-0.0133314
-0.0133314
-0.0133314
-0.0133314
-0.0133314
-0.0133314
-0.0133314
-0.0133314
-0.0133315
-0.0133315
-0.0133315
-0.0133315
-0.0133315
-0.0133316
-0.0133316
-0.0133316
-0.0133316
-0.0133317
-0.0133317
-0.0133317
-0.0133318
-0.0133318
-0.0133318
-0.0133319
-0.0133319
-0.0133319
-0.013332
-0.013332
-0.0133321
-0.0133321
-0.0133321
-0.0133322
-0.0133322
-0.0133323
-0.0133323
-0.0133323
-0.0133324
-0.0133324
-0.0133325
-0.0133325
-0.0133326
-0.0133326
-0.0133326
-0.0133327
-0.0133327
-0.0133327
-0.0133328
-0.0133328
-0.0133329
-0.0133329
-0.0133329
-0.013333
-0.013333
-0.013333
-0.0133331
-0.0133331
-0.0133331
-0.0133331
-0.0133332
-0.0133332
-0.0133332
-0.0133332
-0.0133332
-0.0133333
-0.0133333
-0.0133333
-0.0133333
-0.0133333
-0.0133333
-0.0133333
-0.0133333
-0.0133333
-0.0133333
-0.02
-0.02
-0.02
-0.02
-0.02
-0.02
-0.02
-0.02
-0.02
-0.0199999
-0.0199999
-0.0199999
-0.0199999
-0.0199999
-0.0199998
-0.0199998
-0.0199998
-0.0199998
-0.0199997
-0.0199997
-0.0199997
-0.0199996
-0.0199996
-0.0199996
-0.0199995
-0.0199995
-0.0199995
-0.0199994
-0.0199994
-0.0199993
-0.0199993
-0.0199993
-0.0199992
-0.0199992
-0.0199991
-0.0199991
-0.0199991
-0.019999
-0.019999
-0.0199989
-0.0199989
-0.0199989
-0.0199988
-0.0199988
-0.0199987
-0.0199987
-0.0199987
-0.0199986
-0.0199986
-0.0199985
-0.0199985
-0.0199985
-0.0199984
-0.0199984
-0.0199984
-0.0199983
-0.0199983
-0.0199983
-0.0199983
-0.0199982
-0.0199982
-0.0199982
-0.0199982
-0.0199981
-0.0199981
-0.0199981
-0.0199981
-0.0199981
-0.0199981
-0.0199981
-0.019998
-0.019998
-0.019998
-0.019998
-0.019998
-0.019998
-0.019998
-0.019998
-0.019998
-0.019998
-0.0199981
-0.0199981
-0.0199981
-0.0199981
-0.0199981
-0.0199981
-0.0199981
-0.0199982
-0.0199982
-0.0199982
-0.0199982
-0.0199983
-0.0199983
-0.0199983
-0.0199983
-0.0199984
-0.0199984
-0.0199984
-0.0199985
-0.0199985
-0.0199985
-0.0199986
-0.0199986
-0.0199987
-0.0199987
-0.0199987
-0.0199988
-0.0199988
-0.0199989
-0.0199989
-0.0199989
-0.019999
-0.019999
-0.0199991
-0.0199991
-0.0199991
-0.0199992
-0.0199992
-0.0199993
-0.0199993
-0.0199993
-0.0199994
-0.0199994
-0.0199995
-0.0199995
-0.0199995
-0.0199996
-0.0199996
-0.0199996
-0.0199997
-0.0199997
-0.0199997
-0.0199997
-0.0199998
-0.0199998
-0.0199998
-0.0199999
-0.0199999
-0.0199999
-0.0199999
-0.0199999
-0.0199999
-0.02
-0.02
-0.02
-0.02
-0.02
-0.02
-0.02
-0.02
-0.0266667
-0.0266667
-0.0266667
-0.0266667
-0.0266667
-0.0266667
-0.0266666
-0.0266666
-0.0266666
-0.0266666
-0.0266666
-0.0266666
-0.0266666
-0.0266665
-0.0266665
-0.0266665
-0.0266665
-0.0266664
-0.0266664
-0.0266664
-0.0266663
-0.0266663
-0.0266663
-0.0266662
-0.0266662
-0.0266662
-0.0266661
-0.0266661
-0.0266661
-0.026666
-0.026666
-0.0266659
-0.0266659
-0.0266659
-0.0266658
-0.0266658
-0.0266657
-0.0266657
-0.0266656
-0.0266656
-0.0266656
-0.0266655
-0.0266655
-0.0266654
-0.0266654
-0.0266654
-0.0266653
-0.0266653
-0.0266652
-0.0266652
-0.0266652
-0.0266651
-0.0266651
-0.0266651
-0.026665
-0.026665
-0.026665
-0.0266649
-0.0266649
-0.0266649
-0.0266649
-0.0266648
-0.0266648
-0.0266648
-0.0266648
-0.0266648
-0.0266648
-0.0266647
-0.0266647
-0.0266647
-0.0266647
-0.0266647
-0.0266647
-0.0266647
-0.0266647
-0.0266647
-0.0266647
-0.0266647
-0.0266647
-0.0266647
-0.0266647
-0.0266647
-0.0266647
-0.0266648
-0.0266648
-0.0266648
-0.0266648
-0.0266648
-0.0266648
-0.0266649
-0.0266649
-0.0266649
-0.0266649
-0.026665
-0.026665
-0.026665
-0.0266651
-0.0266651
-0.0266651
-0.0266652
-0.0266652
-0.0266652
-0.0266653
-0.0266653
-0.0266654
-0.0266654
-0.0266654
-0.0266655
-0.0266655
-0.0266656
-0.0266656
-0.0266656
-0.0266657
-0.0266657
-0.0266658
-0.0266658
-0.0266658
-0.0266659
-0.0266659
-0.026666
-0.026666
-0.026666
-0.0266661
-0.0266661
-0.0266662
-0.0266662
-0.0266662
-0.0266663
-0.0266663
-0.0266663
-0.0266664
-0.0266664
-0.0266664
-0.0266664
-0.0266665
-0.0266665
-0.0266665
-0.0266665
-0.0266666
-0.0266666
-0.0266666
-0.0266666
-0.0266666
-0.0266666
-0.0266667
-0.0266667
-0.0266667
-0.0266667
-0.0266667
-0.0266667
-0.0333334
-0.0333334
-0.0333334
-0.0333334
-0.0333333
-0.0333333
-0.0333333
-0.0333333
-0.0333333
-0.0333333
-0.0333333
-0.0333332
-0.0333332
-0.0333332
-0.0333332
-0.0333332
-0.0333331
-0.0333331
-0.0333331
-0.033333
-0.033333
-0.033333
-0.0333329
-0.0333329
-0.0333329
-0.0333328
-0.0333328
-0.0333328
-0.0333327
-0.0333327
-0.0333326
-0.0333326
-0.0333326
-0.0333325
-0.0333325
-0.0333324
-0.0333324
-0.0333324
-0.0333323
-0.0333323
-0.0333322
-0.0333322
-0.0333321
-0.0333321
-0.0333321
-0.033332
-0.033332
-0.0333319
-0.0333319
-0.0333319
-0.0333318
-0.0333318
-0.0333318
-0.0333317
-0.0333317
-0.0333317
-0.0333316
-0.0333316
-0.0333316
-0.0333316
-0.0333315
-0.0333315
-0.0333315
-0.0333315
-0.0333314
-0.0333314
-0.0333314
-0.0333314
-0.0333314
-0.0333314
-0.0333314
-0.0333314
-0.0333314
-0.0333314
-0.0333313
-0.0333313
-0.0333313
-0.0333314
-0.0333314
-0.0333314
-0.0333314
-0.0333314
-0.0333314
-0.0333314
-0.0333314
-0.0333314
-0.0333315
-0.0333315
-0.0333315
-0.0333315
-0.0333316
-0.0333316
-0.0333316
-0.0333316
-0.0333317
-0.0333317
-0.0333317
-0.0333318
-0.0333318
-0.0333318
-0.0333319
-0.0333319
-0.0333319
-0.033332
-0.033332
-0.0333321
-0.0333321
-0.0333321
-0.0333322
-0.0333322
-0.0333323
-0.0333323
-0.0333323
-0.0333324
-0.0333324
-0.0333325
-0.0333325
-0.0333326
-0.0333326
-0.0333326
-0.0333327
-0.0333327
-0.0333328
-0.0333328
-0.0333328
-0.0333329
-0.0333329
-0.0333329
-0.033333
-0.033333
-0.033333
-0.0333331
-0.0333331
-0.0333331
-0.0333331
-0.0333332
-0.0333332
-0.0333332
-0.0333332
-0.0333333
-0.0333333
-0.0333333
-0.0333333
-0.0333333
-0.0333333
-0.0333333
-0.0333333
-0.0333333
-0.0333334
-0.0333334
-0.04
-0.04
-0.04
-0.04
-0.04
-0.04
-0.04
-0.04
-0.04
-0.04
-0.0399999
-0.0399999
-0.0399999
-0.0399999
-0.0399999
-0.0399998
-0.0399998
-0.0399998
-0.0399997
-0.0399997
-0.0399997
-0.0399997
-0.0399996
-0.0399996
-0.0399995
-0.0399995
-0.0399995
-0.0399994
-0.0399994
-0.0399994
-0.0399993
-0.0399993
-0.0399992
-0.0399992
-0.0399991
-0.0399991
-0.0399991
-0.039999
-0.039999
-0.0399989
-0.0399989
-0.0399989
-0.0399988
-0.0399988
-0.0399987
-0.0399987
-0.0399986
-0.0399986
-0.0399986
-0.0399985
-0.0399985
-0.0399985
-0.0399984
-0.0399984
-0.0399984
-0.0399983
-0.0399983
-0.0399983
-0.0399982
-0.0399982
-0.0399982
-0.0399982
-0.0399981
-0.0399981
-0.0399981
-0.0399981
-0.0399981
-0.0399981
-0.039998
-0.039998
-0.039998
-0.039998
-0.039998
-0.039998
-0.039998
-0.039998
-0.039998
-0.039998
-0.039998
-0.039998
-0.039998
-0.039998
-0.0399981
-0.0399981
-0.0399981
-0.0399981
-0.0399981
-0.0399981
-0.0399982
-0.0399982
-0.0399982
-0.0399982
-0.0399983
-0.0399983
-0.0399983
-0.0399984
-0.0399984
-0.0399984
-0.0399985
-0.0399985
-0.0399985
-0.0399986
-0.0399986
-0.0399986
-0.0399987
-0.0399987
-0.0399988
-0.0399988
-0.0399988
-0.0399989
-0.0399989
-0.039999
-0.039999
-0.0399991
-0.0399991
-0.0399991
-0.0399992
-0.0399992
-0.0399993
-0.0399993
-0.0399993
-0.0399994
-0.0399994
-0.0399995
-0.0399995
-0.0399995
-0.0399996
-0.0399996
-0.0399996
-0.0399997
-0.0399997
-0.0399997
-0.0399998
-0.0399998
-0.0399998
-0.0399998
-0.0399999
-0.0399999
-0.0399999
-0.0399999
-0.04
-0.04
-0.04
-0.04
-0.04
-0.04
-0.04
-0.04
-0.04
-0.04
-0.0466667
-0.0466667
-0.0466667
-0.0466667
-0.0466667
-0.0466667
-0.0466667
-0.0466667
-0.0466667
-0.0466666
-0.0466666
-0.0466666
-0.0466666
-0.0466666
-0.0466665
-0.0466665
-0.0466665
-0.0466665
-0.0466664
-0.0466664
-0.0466664
-0.0466663
-0.0466663
-0.0466663
-0.0466662
-0.0466662
-0.0466661
-0.0466661
-0.0466661
-0.046666
-0.046666
-0.0466659
-0.0466659
-0.0466659
-0.0466658
-0.0466658
-0.0466657
-0.0466657
-0.0466656
-0.0466656
-0.0466656
-0.0466655
-0.0466655
-0.0466654
-0.0466654
-0.0466654
-0.0466653
-0.0466653
-0.0466652
-0.0466652
-0.0466652
-0.0466651
-0.0466651
-0.046665
-0.046665
-0.046665
-0.046665
-0.0466649
-0.0466649
-0.0466649
-0.0466648
-0.0466648
-0.0466648
-0.0466648
-0.0466648
-0.0466647
-0.0466647
-0.0466647
-0.0466647
-0.0466647
-0.0466647
-0.0466647
-0.0466647
-0.0466647
-0.0466647
-0.0466647
-0.0466647
-0.0466647
-0.0466647
-0.0466647
-0.0466647
-0.0466647
-0.0466647
-0.0466647
-0.0466647
-0.0466648
-0.0466648
-0.0466648
-0.0466648
-0.0466648
-0.0466649
-0.0466649
-0.0466649
-0.0466649
-0.046665
-0.046665
-0.046665
-0.0466651
-0.0466651
-0.0466652
-0.0466652
-0.0466652
-0.0466653
-0.0466653
-0.0466653
-0.0466654
-0.0466654
-0.0466655
-0.0466655
-0.0466656
-0.0466656
-0.0466656
-0.0466657
-0.0466657
-0.0466658
-0.0466658
-0.0466659
-0.0466659
-0.0466659
-0.046666
-0.046666
-0.0466661
-0.0466661
-0.0466661
-0.0466662
-0.0466662
-0.0466663
-0.0466663
-0.0466663
-0.0466664
-0.0466664
-0.0466664
-0.0466664
-0.0466665
-0.0466665
-0.0466665
-0.0466665
-0.0466666
-0.0466666
-0.0466666
-0.0466666
-0.0466666
-0.0466667
-0.0466667
-0.0466667
-0.0466667
-0.0466667
-0.0466667
-0.0466667
-0.0466667
-0.0533334
-0.0533334
-0.0533334
-0.0533334
-0.0533334
-0.0533334
-0.0533334
-0.0533333
-0.0533333
-0.0533333
-0.0533333
-0.0533333
-0.0533333
-0.0533332
-0.0533332
-0.0533332
-0.0533332
-0.0533331
-0.0533331
-0.0533331
-0.053333
-0.053333
-0.053333
-0.0533329
-0.0533329
-0.0533329
-0.0533328
-0.0533328
-0.0533327
-0.0533327
-0.0533327
-0.0533326
-0.0533326
-0.0533325
-0.0533325
-0.0533324
-0.0533324
-0.0533324
-0.0533323
-0.0533323
-0.0533322
-0.0533322
-0.0533321
-0.0533321
-0.0533321
-0.053332
-0.053332
-0.0533319
-0.0533319
-0.0533319
-0.0533318
-0.0533318
-0.0533317
-0.0533317
-0.0533317
-0.0533316
-0.0533316
-0.0533316
-0.0533316
-0.0533315
-0.0533315
-0.0533315
-0.0533315
-0.0533314
-0.0533314
-0.0533314
-0.0533314
-0.0533314
-0.0533314
-0.0533313
-0.0533313
-0.0533313
-0.0533313
-0.0533313
-0.0533313
-0.0533313
-0.0533313
-0.0533313
-0.0533313
-0.0533313
-0.0533313
-0.0533313
-0.0533314
-0.0533314
-0.0533314
-0.0533314
-0.0533314
-0.0533314
-0.0533315
-0.0533315
-0.0533315
-0.0533315
-0.0533316
-0.0533316
-0.0533316
-0.0533317
-0.0533317
-0.0533317
-0.0533318
-0.0533318
-0.0533318
-0.0533319
-0.0533319
-0.053332
-0.053332
-0.053332
-0.0533321
-0.0533321
-0.0533322
-0.0533322
-0.0533323
-0.0533323
-0.0533323
-0.0533324
-0.0533324
-0.0533325
-0.0533325
-0.0533326
-0.0533326
-0.0533326
-0.0533327
-0.0533327
-0.0533328
-0.0533328
-0.0533329
-0.0533329
-0.0533329
-0.053333
-0.053333
-0.053333
-0.0533331
-0.0533331
-0.0533331
-0.0533332
-0.0533332
-0.0533332
-0.0533332
-0.0533333
-0.0533333
-0.0533333
-0.0533333
-0.0533333
-0.0533333
-0.0533334
-0.0533334
-0.0533334
-0.0533334
-0.0533334
-0.0533334
-0.0533334
-0.0600001
-0.0600001
-0.0600001
-0.0600001
-0.0600001
-0.0600001
-0.06
-0.06
-0.06
-0.06
-0.06
-0.06
-0.0599999
-0.0599999
-0.0599999
-0.0599999
-0.0599998
-0.0599998
-0.0599998
-0.0599997
-0.0599997
-0.0599997
-0.0599996
-0.0599996
-0.0599996
-0.0599995
-0.0599995
-0.0599995
-0.0599994
-0.0599994
-0.0599993
-0.0599993
-0.0599992
-0.0599992
-0.0599992
-0.0599991
-0.0599991
-0.059999
-0.059999
-0.0599989
-0.0599989
-0.0599988
-0.0599988
-0.0599988
-0.0599987
-0.0599987
-0.0599986
-0.0599986
-0.0599986
-0.0599985
-0.0599985
-0.0599984
-0.0599984
-0.0599984
-0.0599983
-0.0599983
-0.0599983
-0.0599982
-0.0599982
-0.0599982
-0.0599982
-0.0599981
-0.0599981
-0.0599981
-0.0599981
-0.059998
-0.059998
-0.059998
-0.059998
-0.059998
-0.059998
-0.059998
-0.059998
-0.059998
-0.059998
-0.059998
-0.059998
-0.059998
-0.059998
-0.059998
-0.059998
-0.059998
-0.059998
-0.059998
-0.059998
-0.0599981
-0.0599981
-0.0599981
-0.0599981
-0.0599981
-0.0599982
-0.0599982
-0.0599982
-0.0599983
-0.0599983
-0.0599983
-0.0599984
-0.0599984
-0.0599984
-0.0599985
-0.0599985
-0.0599985
-0.0599986
-0.0599986
-0.0599987
-0.0599987
-0.0599988
-0.0599988
-0.0599988
-0.0599989
-0.0599989
-0.059999
-0.059999
-0.0599991
-0.0599991
-0.0599991
-0.0599992
-0.0599992
-0.0599993
-0.0599993
-0.0599994
-0.0599994
-0.0599994
-0.0599995
-0.0599995
-0.0599996
-0.0599996
-0.0599996
-0.0599997
-0.0599997
-0.0599997
-0.0599998
-0.0599998
-0.0599998
-0.0599999
-0.0599999
-0.0599999
-0.0599999
-0.06
-0.06
-0.06
-0.06
-0.06
-0.06
-0.06
-0.0600001
-0.0600001
-0.0600001
-0.0600001
-0.0600001
-0.0666668
-0.0666668
-0.0666668
-0.0666668
-0.0666667
-0.0666667
-0.0666667
-0.0666667
-0.0666667
-0.0666667
-0.0666667
-0.0666666
-0.0666666
-0.0666666
-0.0666666
-0.0666665
-0.0666665
-0.0666665
-0.0666665
-0.0666664
-0.0666664
-0.0666664
-0.0666663
-0.0666663
-0.0666662
-0.0666662
-0.0666662
-0.0666661
-0.0666661
-0.066666
-0.066666
-0.066666
-0.0666659
-0.0666659
-0.0666658
-0.0666658
-0.0666657
-0.0666657
-0.0666656
-0.0666656
-0.0666656
-0.0666655
-0.0666655
-0.0666654
-0.0666654
-0.0666653
-0.0666653
-0.0666653
-0.0666652
-0.0666652
-0.0666651
-0.0666651
-0.0666651
-0.066665
-0.066665
-0.066665
-0.0666649
-0.0666649
-0.0666649
-0.0666648
-0.0666648
-0.0666648
-0.0666648
-0.0666647
-0.0666647
-0.0666647
-0.0666647
-0.0666647
-0.0666647
-0.0666646
-0.0666646
-0.0666646
-0.0666646
-0.0666646
-0.0666646
-0.0666646
-0.0666646
-0.0666646
-0.0666646
-0.0666646
-0.0666646
-0.0666647
-0.0666647
-0.0666647
-0.0666647
-0.0666647
-0.0666647
-0.0666648
-0.0666648
-0.0666648
-0.0666648
-0.0666649
-0.0666649
-0.0666649
-0.0666649
-0.066665
-0.066665
-0.0666651
-0.0666651
-0.0666651
-0.0666652
-0.0666652
-0.0666652
-0.0666653
-0.0666653
-0.0666654
-0.0666654
-0.0666655
-0.0666655
-0.0666655
-0.0666656
-0.0666656
-0.0666657
-0.0666657
-0.0666658
-0.0666658
-0.0666659
-0.0666659
-0.0666659
-0.066666
-0.066666
-0.0666661
-0.0666661
-0.0666662
-0.0666662
-0.0666662
-0.0666663
-0.0666663
-0.0666663
-0.0666664
-0.0666664
-0.0666664
-0.0666665
-0.0666665
-0.0666665
-0.0666666
-0.0666666
-0.0666666
-0.0666666
-0.0666667
-0.0666667
-0.0666667
-0.0666667
-0.0666667
-0.0666667
-0.0666667
-0.0666667
-0.0666668
-0.0666668
-0.0666668
-0.0733335
-0.0733334
-0.0733334
-0.0733334
-0.0733334
-0.0733334
-0.0733334
-0.0733334
-0.0733334
-0.0733334
-0.0733333
-0.0733333
-0.0733333
-0.0733333
-0.0733333
-0.0733332
-0.0733332
-0.0733332
-0.0733331
-0.0733331
-0.0733331
-0.073333
-0.073333
-0.073333
-0.0733329
-0.0733329
-0.0733328
-0.0733328
-0.0733328
-0.0733327
-0.0733327
-0.0733326
-0.0733326
-0.0733325
-0.0733325
-0.0733324
-0.0733324
-0.0733324
-0.0733323
-0.0733323
-0.0733322
-0.0733322
-0.0733321
-0.0733321
-0.073332
-0.073332
-0.073332
-0.0733319
-0.0733319
-0.0733318
-0.0733318
-0.0733317
-0.0733317
-0.0733317
-0.0733316
-0.0733316
-0.0733316
-0.0733315
-0.0733315
-0.0733315
-0.0733315
-0.0733314
-0.0733314
-0.0733314
-0.0733314
-0.0733313
-0.0733313
-0.0733313
-0.0733313
-0.0733313
-0.0733313
-0.0733313
-0.0733313
-0.0733313
-0.0733313
-0.0733313
-0.0733313
-0.0733313
-0.0733313
-0.0733313
-0.0733313
-0.0733313
-0.0733313
-0.0733313
-0.0733313
-0.0733314
-0.0733314
-0.0733314
-0.0733314
-0.0733315
-0.0733315
-0.0733315
-0.0733315
-0.0733316
-0.0733316
-0.0733316
-0.0733317
-0.0733317
-0.0733317
-0.0733318
-0.0733318
-0.0733319
-0.0733319
-0.0733319
-0.073332
-0.073332
-0.0733321
-0.0733321
-0.0733322
-0.0733322
-0.0733323
-0.0733323
-0.0733323
-0.0733324
-0.0733324
-0.0733325
-0.0733325
-0.0733326
-0.0733326
-0.0733327
-0.0733327
-0.0733328
-0.0733328
-0.0733328
-0.0733329
-0.0733329
-0.073333
-0.073333
-0.073333
-0.0733331
-0.0733331
-0.0733331
-0.0733332
-0.0733332
-0.0733332
-0.0733332
-0.0733333
-0.0733333
-0.0733333
-0.0733333
-0.0733334
-0.0733334
-0.0733334
-0.0733334
-0.0733334
-0.0733334
-0.0733334
-0.0733334
-0.0733334
-0.0733334
-0.0800001
-0.0800001
-0.0800001
-0.0800001
-0.0800001
-0.0800001
-0.0800001
-0.0800001
-0.0800001
-0.0800001
-0.08
-0.08
-0.08
-0.08
-0.0799999
-0.0799999
-0.0799999
-0.0799999
-0.0799998
-0.0799998
-0.0799998
-0.0799997
-0.0799997
-0.0799996
-0.0799996
-0.0799996
-0.0799995
-0.0799995
-0.0799994
-0.0799994
-0.0799993
-0.0799993
-0.0799993
-0.0799992
-0.0799992
-0.0799991
-0.0799991
-0.079999
-0.079999
-0.0799989
-0.0799989
-0.0799988
-0.0799988
-0.0799987
-0.0799987
-0.0799987
-0.0799986
-0.0799986
-0.0799985
-0.0799985
-0.0799984
-0.0799984
-0.0799984
-0.0799983
-0.0799983
-0.0799983
-0.0799982
-0.0799982
-0.0799982
-0.0799981
-0.0799981
-0.0799981
-0.0799981
-0.079998
-0.079998
-0.079998
-0.079998
-0.079998
-0.0799979
-0.0799979
-0.0799979
-0.0799979
-0.0799979
-0.0799979
-0.0799979
-0.0799979
-0.0799979
-0.0799979
-0.0799979
-0.0799979
-0.0799979
-0.0799979
-0.079998
-0.079998
-0.079998
-0.079998
-0.079998
-0.0799981
-0.0799981
-0.0799981
-0.0799981
-0.0799982
-0.0799982
-0.0799982
-0.0799983
-0.0799983
-0.0799983
-0.0799984
-0.0799984
-0.0799984
-0.0799985
-0.0799985
-0.0799986
-0.0799986
-0.0799986
-0.0799987
-0.0799987
-0.0799988
-0.0799988
-0.0799989
-0.0799989
-0.079999
-0.079999
-0.0799991
-0.0799991
-0.0799992
-0.0799992
-0.0799992
-0.0799993
-0.0799993
-0.0799994
-0.0799994
-0.0799995
-0.0799995
-0.0799996
-0.0799996
-0.0799996
-0.0799997
-0.0799997
-0.0799997
-0.0799998
-0.0799998
-0.0799998
-0.0799999
-0.0799999
-0.0799999
-0.08
-0.08
-0.08
-0.08
-0.08
-0.0800001
-0.0800001
-0.0800001
-0.0800001
-0.0800001
-0.0800001
-0.0800001
-0.0800001
-0.0800001
-0.0866668
-0.0866668
-0.0866668
-0.0866668
-0.0866668
-0.0866668
-0.0866668
-0.0866668
-0.0866668
-0.0866667
-0.0866667
-0.0866667
-0.0866667
-0.0866667
-0.0866666
-0.0866666
-0.0866666
-0.0866665
-0.0866665
-0.0866665
-0.0866664
-0.0866664
-0.0866664
-0.0866663
-0.0866663
-0.0866662
-0.0866662
-0.0866662
-0.0866661
-0.0866661
-0.086666
-0.086666
-0.0866659
-0.0866659
-0.0866658
-0.0866658
-0.0866657
-0.0866657
-0.0866656
-0.0866656
-0.0866655
-0.0866655
-0.0866655
-0.0866654
-0.0866654
-0.0866653
-0.0866653
-0.0866652
-0.0866652
-0.0866651
-0.0866651
-0.0866651
-0.086665
-0.086665
-0.0866649
-0.0866649
-0.0866649
-0.0866648
-0.0866648
-0.0866648
-0.0866648
-0.0866647
-0.0866647
-0.0866647
-0.0866647
-0.0866646
-0.0866646
-0.0866646
-0.0866646
-0.0866646
-0.0866646
-0.0866646
-0.0866646
-0.0866645
-0.0866645
-0.0866645
-0.0866645
-0.0866646
-0.0866646
-0.0866646
-0.0866646
-0.0866646
-0.0866646
-0.0866646
-0.0866646
-0.0866647
-0.0866647
-0.0866647
-0.0866647
-0.0866647
-0.0866648
-0.0866648
-0.0866648
-0.0866649
-0.0866649
-0.0866649
-0.086665
-0.086665
-0.0866651
-0.0866651
-0.0866651
-0.0866652
-0.0866652
-0.0866653
-0.0866653
-0.0866654
-0.0866654
-0.0866654
-0.0866655
-0.0866655
-0.0866656
-0.0866656
-0.0866657
-0.0866657
-0.0866658
-0.0866658
-0.0866659
-0.0866659
-0.086666
-0.086666
-0.0866661
-0.0866661
-0.0866661
-0.0866662
-0.0866662
-0.0866663
-0.0866663
-0.0866664
-0.0866664
-0.0866664
-0.0866665
-0.0866665
-0.0866665
-0.0866666
-0.0866666
-0.0866666
-0.0866666
-0.0866667
-0.0866667
-0.0866667
-0.0866667
-0.0866667
-0.0866668
-0.0866668
-0.0866668
-0.0866668
-0.0866668
-0.0866668
-0.0866668
-0.0866668
-0.0933335
-0.0933335
-0.0933335
-0.0933335
-0.0933335
-0.0933335
-0.0933335
-0.0933335
-0.0933334
-0.0933334
-0.0933334
-0.0933334
-0.0933334
-0.0933333
-0.0933333
-0.0933333
-0.0933333
-0.0933332
-0.0933332
-0.0933332
-0.0933331
-0.0933331
-0.093333
-0.093333
-0.093333
-0.0933329
-0.0933329
-0.0933328
-0.0933328
-0.0933327
-0.0933327
-0.0933326
-0.0933326
-0.0933326
-0.0933325
-0.0933325
-0.0933324
-0.0933324
-0.0933323
-0.0933323
-0.0933322
-0.0933322
-0.0933321
-0.0933321
-0.093332
-0.093332
-0.0933319
-0.0933319
-0.0933318
-0.0933318
-0.0933318
-0.0933317
-0.0933317
-0.0933316
-0.0933316
-0.0933316
-0.0933315
-0.0933315
-0.0933315
-0.0933314
-0.0933314
-0.0933314
-0.0933313
-0.0933313
-0.0933313
-0.0933313
-0.0933313
-0.0933312
-0.0933312
-0.0933312
-0.0933312
-0.0933312
-0.0933312
-0.0933312
-0.0933312
-0.0933312
-0.0933312
-0.0933312
-0.0933312
-0.0933312
-0.0933312
-0.0933312
-0.0933312
-0.0933313
-0.0933313
-0.0933313
-0.0933313
-0.0933313
-0.0933314
-0.0933314
-0.0933314
-0.0933315
-0.0933315
-0.0933315
-0.0933316
-0.0933316
-0.0933316
-0.0933317
-0.0933317
-0.0933317
-0.0933318
-0.0933318
-0.0933319
-0.0933319
-0.093332
-0.093332
-0.0933321
-0.0933321
-0.0933322
-0.0933322
-0.0933323
-0.0933323
-0.0933323
-0.0933324
-0.0933324
-0.0933325
-0.0933325
-0.0933326
-0.0933326
-0.0933327
-0.0933327
-0.0933328
-0.0933328
-0.0933329
-0.0933329
-0.093333
-0.093333
-0.093333
-0.0933331
-0.0933331
-0.0933331
-0.0933332
-0.0933332
-0.0933332
-0.0933333
-0.0933333
-0.0933333
-0.0933334
-0.0933334
-0.0933334
-0.0933334
-0.0933334
-0.0933335
-0.0933335
-0.0933335
-0.0933335
-0.0933335
-0.0933335
-0.0933335
-0.0933335
-0.1
-0.1
-0.1
-0.1
-0.1
-0.1
-0.1
-0.1
-0.1
-0.1
-0.1
-0.1
-0.1
-0.1
-0.1
-0.1
-0.0999999
-0.0999999
-0.0999999
-0.0999998
-0.0999998
-0.0999998
-0.0999997
-0.0999997
-0.0999996
-0.0999996
-0.0999996
-0.0999995
-0.0999995
-0.0999994
-0.0999994
-0.0999993
-0.0999993
-0.0999992
-0.0999992
-0.0999991
-0.0999991
-0.099999
-0.099999
-0.0999989
-0.0999989
-0.0999988
-0.0999988
-0.0999987
-0.0999987
-0.0999986
-0.0999986
-0.0999985
-0.0999985
-0.0999984
-0.0999984
-0.0999984
-0.0999983
-0.0999983
-0.0999982
-0.0999982
-0.0999982
-0.0999981
-0.0999981
-0.0999981
-0.099998
-0.099998
-0.099998
-0.099998
-0.0999979
-0.0999979
-0.0999979
-0.0999979
-0.0999979
-0.0999979
-0.0999978
-0.0999978
-0.0999978
-0.0999978
-0.0999978
-0.0999978
-0.0999978
-0.0999978
-0.0999978
-0.0999978
-0.0999979
-0.0999979
-0.0999979
-0.0999979
-0.0999979
-0.0999979
-0.099998
-0.099998
-0.099998
-0.099998
-0.0999981
-0.0999981
-0.0999981
-0.0999982
-0.0999982
-0.0999982
-0.0999983
-0.0999983
-0.0999984
-0.0999984
-0.0999984
-0.0999985
-0.0999985
-0.0999986
-0.0999986
-0.0999987
-0.0999987
-0.0999988
-0.0999988
-0.0999989
-0.0999989
-0.099999
-0.099999
-0.0999991
-0.0999991
-0.0999992
-0.0999992
-0.0999993
-0.0999993
-0.0999994
-0.0999994
-0.0999995
-0.0999995
-0.0999995
-0.0999996
-0.0999996
-0.0999997
-0.0999997
-0.0999998
-0.0999998
-0.0999998
-0.0999999
-0.0999999
-0.0999999
-0.1
-0.1
-0.1
-0.1
-0.1
-0.1
-0.1
-0.1
-0.1
-0.1
-0.1
-0.1
-0.1
-0.1
-0.1
-0.1
-0.106667
-0.106667
-0.106667
-0.106667
-0.106667
-0.106667
-0.106667
-0.106667
-0.106667
-0.106667
-0.106667
-0.106667
-0.106667
-0.106667
-0.106667
-0.106667
-0.106667
-0.106667
-0.106667
-0.106667
-0.106666
-0.106666
-0.106666
-0.106666
-0.106666
-0.106666
-0.106666
-0.106666
-0.106666
-0.106666
-0.106666
-0.106666
-0.106666
-0.106666
-0.106666
-0.106666
-0.106666
-0.106666
-0.106666
-0.106666
-0.106666
-0.106665
-0.106665
-0.106665
-0.106665
-0.106665
-0.106665
-0.106665
-0.106665
-0.106665
-0.106665
-0.106665
-0.106665
-0.106665
-0.106665
-0.106665
-0.106665
-0.106665
-0.106665
-0.106665
-0.106665
-0.106665
-0.106665
-0.106665
-0.106665
-0.106665
-0.106665
-0.106665
-0.106665
-0.106664
-0.106664
-0.106664
-0.106664
-0.106664
-0.106664
-0.106664
-0.106664
-0.106664
-0.106664
-0.106664
-0.106664
-0.106665
-0.106665
-0.106665
-0.106665
-0.106665
-0.106665
-0.106665
-0.106665
-0.106665
-0.106665
-0.106665
-0.106665
-0.106665
-0.106665
-0.106665
-0.106665
-0.106665
-0.106665
-0.106665
-0.106665
-0.106665
-0.106665
-0.106665
-0.106665
-0.106665
-0.106665
-0.106665
-0.106665
-0.106666
-0.106666
-0.106666
-0.106666
-0.106666
-0.106666
-0.106666
-0.106666
-0.106666
-0.106666
-0.106666
-0.106666
-0.106666
-0.106666
-0.106666
-0.106666
-0.106666
-0.106666
-0.106666
-0.106666
-0.106666
-0.106667
-0.106667
-0.106667
-0.106667
-0.106667
-0.106667
-0.106667
-0.106667
-0.106667
-0.106667
-0.106667
-0.106667
-0.106667
-0.106667
-0.106667
-0.106667
-0.106667
-0.106667
-0.106667
-0.106667
-0.113334
-0.113334
-0.113334
-0.113334
-0.113334
-0.113334
-0.113334
-0.113334
-0.113334
-0.113334
-0.113333
-0.113333
-0.113333
-0.113333
-0.113333
-0.113333
-0.113333
-0.113333
-0.113333
-0.113333
-0.113333
-0.113333
-0.113333
-0.113333
-0.113333
-0.113333
-0.113333
-0.113333
-0.113333
-0.113333
-0.113333
-0.113333
-0.113333
-0.113333
-0.113333
-0.113332
-0.113332
-0.113332
-0.113332
-0.113332
-0.113332
-0.113332
-0.113332
-0.113332
-0.113332
-0.113332
-0.113332
-0.113332
-0.113332
-0.113332
-0.113332
-0.113332
-0.113332
-0.113332
-0.113332
-0.113331
-0.113331
-0.113331
-0.113331
-0.113331
-0.113331
-0.113331
-0.113331
-0.113331
-0.113331
-0.113331
-0.113331
-0.113331
-0.113331
-0.113331
-0.113331
-0.113331
-0.113331
-0.113331
-0.113331
-0.113331
-0.113331
-0.113331
-0.113331
-0.113331
-0.113331
-0.113331
-0.113331
-0.113331
-0.113331
-0.113331
-0.113331
-0.113331
-0.113331
-0.113331
-0.113331
-0.113331
-0.113331
-0.113331
-0.113331
-0.113332
-0.113332
-0.113332
-0.113332
-0.113332
-0.113332
-0.113332
-0.113332
-0.113332
-0.113332
-0.113332
-0.113332
-0.113332
-0.113332
-0.113332
-0.113332
-0.113332
-0.113332
-0.113332
-0.113332
-0.113333
-0.113333
-0.113333
-0.113333
-0.113333
-0.113333
-0.113333
-0.113333
-0.113333
-0.113333
-0.113333
-0.113333
-0.113333
-0.113333
-0.113333
-0.113333
-0.113333
-0.113333
-0.113333
-0.113333
-0.113333
-0.113333
-0.113333
-0.113333
-0.113333
-0.113334
-0.113334
-0.113334
-0.113334
-0.113334
-0.113334
-0.113334
-0.113334
-0.113334
-0.113334
-0.12
-0.12
-0.12
-0.12
-0.12
-0.12
-0.12
-0.12
-0.12
-0.12
-0.12
-0.12
-0.12
-0.12
-0.12
-0.12