/*--------------------------------*- C++ -*----------------------------------*\
| =========                 |                                                 |
| \\      /  F ield         | OpenFOAM: The Open Source CFD Toolbox           |
|  \\    /   O peration     | Version:  2106                                  |
|   \\  /    A nd           | Website:  www.openfoam.com                      |
|    \\/     M anipulation  |                                                 |
\*---------------------------------------------------------------------------*/
FoamFile
{
    version     2.0;
    format      ascii;
    arch        "LSB;label=32;scalar=64";
    class       surfaceScalarField;
    location    "0.7";
    object      phi;
}
// * * * * * * * * * * * * * * * * * * * * * * * * * * * * * * * * * * * * * //

dimensions      [0 3 -1 0 0 0 0];

oriented        oriented;

internalField   nonuniform List<scalar> 
179250
(
-6.90761e-10
6.90758e-10
-1.37985e-09
6.89087e-10
-2.06617e-09
6.86338e-10
-2.74867e-09
6.82497e-10
-3.42622e-09
6.77521e-10
-4.09765e-09
6.71416e-10
-4.76181e-09
6.6417e-10
-5.41757e-09
6.55773e-10
-6.0638e-09
6.46236e-10
-6.69938e-09
6.35576e-10
-7.3232e-09
6.23813e-10
-7.93416e-09
6.10963e-10
-8.5312e-09
5.97044e-10
-9.11328e-09
5.82077e-10
-9.67937e-09
5.6609e-10
-1.02285e-08
5.49111e-10
-1.07596e-08
5.31169e-10
-1.12719e-08
5.12297e-10
-1.17645e-08
4.92526e-10
-1.22364e-08
4.7189e-10
-1.26868e-08
4.50427e-10
-1.3115e-08
4.28174e-10
-1.35201e-08
4.0517e-10
-1.39016e-08
3.81456e-10
-1.42587e-08
3.57072e-10
-1.45907e-08
3.32062e-10
-1.48972e-08
3.0647e-10
-1.51775e-08
2.8034e-10
-1.54313e-08
2.53718e-10
-1.56579e-08
2.26651e-10
-1.58571e-08
1.99187e-10
-1.60285e-08
1.71373e-10
-1.61717e-08
1.43258e-10
-1.62866e-08
1.14892e-10
-1.63729e-08
8.63248e-11
-1.64306e-08
5.76059e-11
-1.64593e-08
2.8786e-11
-1.64593e-08
-8.44015e-14
-1.64303e-08
-2.89547e-11
-1.63725e-08
-5.77742e-11
-1.6286e-08
-8.64925e-11
-1.6171e-08
-1.15059e-10
-1.60276e-08
-1.43424e-10
-1.5856e-08
-1.71537e-10
-1.56567e-08
-1.9935e-10
-1.54299e-08
-2.26812e-10
-1.5176e-08
-2.53877e-10
-1.48955e-08
-2.80497e-10
-1.45889e-08
-3.06625e-10
-1.42566e-08
-3.32215e-10
-1.38994e-08
-3.57222e-10
-1.35178e-08
-3.81603e-10
-1.31125e-08
-4.05313e-10
-1.26842e-08
-4.28313e-10
-1.22336e-08
-4.50562e-10
-1.17616e-08
-4.7202e-10
-1.1269e-08
-4.92652e-10
-1.07565e-08
-5.12419e-10
-1.02253e-08
-5.31287e-10
-9.67603e-09
-5.49223e-10
-9.10983e-09
-5.66195e-10
-8.52766e-09
-5.82174e-10
-7.93053e-09
-5.97133e-10
-7.31948e-09
-6.11044e-10
-6.6956e-09
-6.23884e-10
-6.05997e-09
-6.35629e-10
-5.41371e-09
-6.46259e-10
-4.75796e-09
-6.55755e-10
-4.09386e-09
-6.641e-10
-3.42258e-09
-6.71281e-10
-2.74529e-09
-6.77285e-10
-2.06319e-09
-6.82101e-10
-1.37747e-09
-6.8572e-10
-6.89339e-10
-6.88136e-10
7.55709e-15
-6.89345e-10
6.89354e-10
-6.89344e-10
1.37749e-09
-6.88135e-10
2.06321e-09
-6.85718e-10
2.74531e-09
-6.82099e-10
3.42259e-09
-6.77284e-10
4.09388e-09
-6.7128e-10
4.75798e-09
-6.64099e-10
5.41373e-09
-6.55753e-10
6.05999e-09
-6.46256e-10
6.69562e-09
-6.35627e-10
7.3195e-09
-6.23883e-10
7.93054e-09
-6.11044e-10
8.52768e-09
-5.97134e-10
9.10985e-09
-5.82175e-10
9.67605e-09
-5.66195e-10
1.02253e-08
-5.49222e-10
1.07566e-08
-5.31286e-10
1.1269e-08
-5.12419e-10
1.17616e-08
-4.92652e-10
1.22337e-08
-4.72021e-10
1.26842e-08
-4.50562e-10
1.31125e-08
-4.28313e-10
1.35178e-08
-4.05313e-10
1.38994e-08
-3.81602e-10
1.42567e-08
-3.57221e-10
1.45889e-08
-3.32215e-10
1.48955e-08
-3.06625e-10
1.5176e-08
-2.80497e-10
1.54299e-08
-2.53877e-10
1.56567e-08
-2.26812e-10
1.5856e-08
-1.99349e-10
1.60276e-08
-1.71536e-10
1.6171e-08
-1.43423e-10
1.62861e-08
-1.15058e-10
1.63725e-08
-8.64919e-11
1.64303e-08
-5.77737e-11
1.64593e-08
-2.89542e-11
1.64594e-08
-8.39365e-14
1.64306e-08
2.87864e-11
1.6373e-08
5.76062e-11
1.62866e-08
8.63247e-11
1.61717e-08
1.14892e-10
1.60285e-08
1.43258e-10
1.58571e-08
1.71373e-10
1.56579e-08
1.99187e-10
1.54313e-08
2.26652e-10
1.51776e-08
2.53719e-10
1.48972e-08
2.8034e-10
1.45907e-08
3.0647e-10
1.42587e-08
3.32063e-10
1.39016e-08
3.57073e-10
1.35202e-08
3.81457e-10
1.3115e-08
4.05171e-10
1.26868e-08
4.28174e-10
1.22364e-08
4.50427e-10
1.17645e-08
4.7189e-10
1.1272e-08
4.92525e-10
1.07597e-08
5.12296e-10
1.02285e-08
5.31169e-10
9.67938e-09
5.4911e-10
9.11329e-09
5.66089e-10
8.53121e-09
5.82075e-10
7.93417e-09
5.97042e-10
7.32321e-09
6.10963e-10
6.69939e-09
6.23815e-10
6.06381e-09
6.35577e-10
5.41758e-09
6.46232e-10
4.76181e-09
6.55765e-10
4.09765e-09
6.64163e-10
3.42623e-09
6.71418e-10
2.74869e-09
6.77529e-10
2.06619e-09
6.82501e-10
1.37985e-09
6.86344e-10
6.90759e-10
6.89085e-10
6.90758e-10
-6.92428e-10
1.38319e-09
-1.38319e-09
1.37983e-09
-2.07118e-09
1.37433e-09
-2.75529e-09
1.36664e-09
-3.43443e-09
1.35667e-09
-4.10745e-09
1.34443e-09
-4.7732e-09
1.3299e-09
-5.43052e-09
1.31309e-09
-6.07829e-09
1.29401e-09
-6.71538e-09
1.27267e-09
-7.34069e-09
1.24912e-09
-7.95311e-09
1.22338e-09
-8.55158e-09
1.19551e-09
-9.13504e-09
1.16554e-09
-9.70248e-09
1.13353e-09
-1.02529e-08
1.09953e-09
-1.07853e-08
1.06361e-09
-1.12989e-08
1.02582e-09
-1.17926e-08
9.86226e-10
-1.22656e-08
9.44907e-10
-1.27171e-08
9.0193e-10
-1.31463e-08
8.57371e-10
-1.35524e-08
8.11308e-10
-1.39348e-08
7.63822e-10
-1.42927e-08
7.14996e-10
-1.46256e-08
6.64917e-10
-1.49328e-08
6.13671e-10
-1.52138e-08
5.61349e-10
-1.54681e-08
5.08041e-10
-1.56953e-08
4.53843e-10
-1.5895e-08
3.98848e-10
-1.60667e-08
3.43154e-10
-1.62103e-08
2.86857e-10
-1.63255e-08
2.30058e-10
-1.6412e-08
1.72855e-10
-1.64698e-08
1.15349e-10
-1.64986e-08
5.76401e-11
-1.64986e-08
-1.69559e-13
-1.64695e-08
-5.79791e-11
-1.64116e-08
-1.15687e-10
-1.63249e-08
-1.73192e-10
-1.62096e-08
-2.30393e-10
-1.60658e-08
-2.87191e-10
-1.58939e-08
-3.43484e-10
-1.56941e-08
-3.99176e-10
-1.54667e-08
-4.54167e-10
-1.52122e-08
-5.08362e-10
-1.49311e-08
-5.61665e-10
-1.46237e-08
-6.13982e-10
-1.42907e-08
-6.65223e-10
-1.39326e-08
-7.15296e-10
-1.35501e-08
-7.64115e-10
-1.31438e-08
-8.11593e-10
-1.27145e-08
-8.57648e-10
-1.22628e-08
-9.022e-10
-1.17897e-08
-9.45169e-10
-1.12959e-08
-9.8648e-10
-1.07822e-08
-1.02606e-09
-1.02497e-08
-1.06384e-09
-9.69914e-09
-1.09976e-09
-9.13159e-09
-1.13374e-09
-8.54803e-09
-1.16574e-09
-7.94947e-09
-1.19569e-09
-7.33696e-09
-1.22355e-09
-6.71159e-09
-1.24926e-09
-6.07445e-09
-1.27278e-09
-5.42664e-09
-1.29406e-09
-4.76932e-09
-1.31307e-09
-4.10364e-09
-1.32979e-09
-3.43075e-09
-1.34417e-09
-2.75185e-09
-1.35619e-09
-2.06812e-09
-1.36583e-09
-1.38076e-09
-1.37308e-09
-6.90984e-10
-1.37791e-09
8.20693e-15
-1.38033e-09
6.91001e-10
-1.38033e-09
1.38078e-09
-1.37791e-09
2.06814e-09
-1.37307e-09
2.75187e-09
-1.36583e-09
3.43077e-09
-1.35618e-09
4.10365e-09
-1.34416e-09
4.76934e-09
-1.32978e-09
5.42666e-09
-1.31307e-09
6.07446e-09
-1.29406e-09
6.71161e-09
-1.27277e-09
7.33698e-09
-1.24926e-09
7.94948e-09
-1.22355e-09
8.54804e-09
-1.19569e-09
9.13161e-09
-1.16574e-09
9.69916e-09
-1.13374e-09
1.02497e-08
-1.09976e-09
1.07822e-08
-1.06384e-09
1.12959e-08
-1.02606e-09
1.17897e-08
-9.8648e-10
1.22629e-08
-9.45169e-10
1.27145e-08
-9.022e-10
1.31438e-08
-8.57649e-10
1.35501e-08
-8.11594e-10
1.39326e-08
-7.64115e-10
1.42907e-08
-7.15296e-10
1.46237e-08
-6.65222e-10
1.49311e-08
-6.13981e-10
1.52122e-08
-5.61663e-10
1.54667e-08
-5.08359e-10
1.56941e-08
-4.54165e-10
1.58939e-08
-3.99173e-10
1.60659e-08
-3.43482e-10
1.62096e-08
-2.87189e-10
1.6325e-08
-2.30392e-10
1.64117e-08
-1.7319e-10
1.64696e-08
-1.15686e-10
1.64986e-08
-5.79783e-11
1.64987e-08
-1.69027e-13
1.64698e-08
5.76406e-11
1.64121e-08
1.15349e-10
1.63255e-08
1.72856e-10
1.62104e-08
2.30059e-10
1.60668e-08
2.86859e-10
1.5895e-08
3.43155e-10
1.56953e-08
3.9885e-10
1.54681e-08
4.53844e-10
1.52138e-08
5.08043e-10
1.49328e-08
5.6135e-10
1.46256e-08
6.13673e-10
1.42927e-08
6.64918e-10
1.39348e-08
7.14998e-10
1.35524e-08
7.63823e-10
1.31463e-08
8.11308e-10
1.27171e-08
8.5737e-10
1.22656e-08
9.01929e-10
1.17926e-08
9.44905e-10
1.12989e-08
9.86224e-10
1.07854e-08
1.02581e-09
1.02529e-08
1.0636e-09
9.7025e-09
1.09953e-09
9.13505e-09
1.13353e-09
8.55159e-09
1.16554e-09
7.95312e-09
1.19551e-09
7.3407e-09
1.22338e-09
6.71539e-09
1.24912e-09
6.0783e-09
1.27267e-09
5.43053e-09
1.294e-09
4.7732e-09
1.31309e-09
4.10746e-09
1.3299e-09
3.43444e-09
1.34443e-09
2.7553e-09
1.35667e-09
2.07117e-09
1.36663e-09
1.38318e-09
1.37433e-09
6.92428e-10
1.37984e-09
1.38318e-09
-6.95171e-10
2.07837e-09
-1.38868e-09
2.07332e-09
-2.07942e-09
2.06505e-09
-2.76626e-09
2.05348e-09
-3.44809e-09
2.03852e-09
-4.12377e-09
2.02012e-09
-4.79216e-09
1.99829e-09
-5.45209e-09
1.97302e-09
-6.10244e-09
1.94435e-09
-6.74206e-09
1.91229e-09
-7.36984e-09
1.87691e-09
-7.98469e-09
1.83824e-09
-8.58554e-09
1.79635e-09
-9.17132e-09
1.75132e-09
-9.74101e-09
1.70322e-09
-1.02936e-08
1.65214e-09
-1.08282e-08
1.59816e-09
-1.13437e-08
1.54138e-09
-1.18394e-08
1.48189e-09
-1.23143e-08
1.4198e-09
-1.27676e-08
1.35523e-09
-1.31985e-08
1.28827e-09
-1.36062e-08
1.21906e-09
-1.39901e-08
1.14771e-09
-1.43495e-08
1.07434e-09
-1.46836e-08
9.99094e-10
-1.49921e-08
9.22093e-10
-1.52742e-08
8.43474e-10
-1.55295e-08
7.63375e-10
-1.57576e-08
6.81937e-10
-1.59581e-08
5.99303e-10
-1.61305e-08
5.15617e-10
-1.62747e-08
4.31028e-10
-1.63903e-08
3.45682e-10
-1.64772e-08
2.5973e-10
-1.65352e-08
1.73322e-10
-1.65642e-08
8.66098e-11
-1.65641e-08
-2.54334e-13
-1.65349e-08
-8.71181e-11
-1.64768e-08
-1.73829e-10
-1.63898e-08
-2.60235e-10
-1.6274e-08
-3.46185e-10
-1.61296e-08
-4.31528e-10
-1.5957e-08
-5.16114e-10
-1.57564e-08
-5.99795e-10
-1.55281e-08
-6.82424e-10
-1.52726e-08
-7.63856e-10
-1.49904e-08
-8.43948e-10
-1.46818e-08
-9.22559e-10
-1.43474e-08
-9.99552e-10
-1.39879e-08
-1.07479e-09
-1.36039e-08
-1.14815e-09
-1.3196e-08
-1.21949e-09
-1.2765e-08
-1.28869e-09
-1.23115e-08
-1.35563e-09
-1.18365e-08
-1.4202e-09
-1.13407e-08
-1.48227e-09
-1.0825e-08
-1.54174e-09
-1.02904e-08
-1.59851e-09
-9.73765e-09
-1.65248e-09
-9.16785e-09
-1.70354e-09
-8.58197e-09
-1.75162e-09
-7.98104e-09
-1.79663e-09
-7.3661e-09
-1.83848e-09
-6.73824e-09
-1.87711e-09
-6.09857e-09
-1.91245e-09
-5.44819e-09
-1.94443e-09
-4.78826e-09
-1.973e-09
-4.11993e-09
-1.99812e-09
-3.44438e-09
-2.01972e-09
-2.76278e-09
-2.03779e-09
-2.07633e-09
-2.05227e-09
-1.38625e-09
-2.06316e-09
-6.93727e-10
-2.07043e-09
8.87191e-15
-2.07407e-09
6.93745e-10
-2.07407e-09
1.38626e-09
-2.07043e-09
2.07635e-09
-2.06316e-09
2.76279e-09
-2.05227e-09
3.44439e-09
-2.03778e-09
4.11995e-09
-2.01972e-09
4.78828e-09
-1.99811e-09
5.44821e-09
-1.973e-09
6.09859e-09
-1.94443e-09
6.73826e-09
-1.91245e-09
7.36612e-09
-1.87711e-09
7.98105e-09
-1.83848e-09
8.58199e-09
-1.79663e-09
9.16787e-09
-1.75162e-09
9.73767e-09
-1.70354e-09
1.02904e-08
-1.65248e-09
1.08251e-08
-1.59851e-09
1.13407e-08
-1.54174e-09
1.18365e-08
-1.48227e-09
1.23116e-08
-1.42019e-09
1.2765e-08
-1.35563e-09
1.3196e-08
-1.28869e-09
1.36039e-08
-1.21949e-09
1.3988e-08
-1.14815e-09
1.43475e-08
-1.07479e-09
1.46818e-08
-9.99551e-10
1.49904e-08
-9.22556e-10
1.52727e-08
-8.43944e-10
1.55281e-08
-7.63852e-10
1.57564e-08
-6.8242e-10
1.5957e-08
-5.99792e-10
1.61297e-08
-5.16111e-10
1.6274e-08
-4.31525e-10
1.63898e-08
-3.46183e-10
1.64768e-08
-2.60233e-10
1.6535e-08
-1.73827e-10
1.65641e-08
-8.71168e-11
1.65642e-08
-2.53197e-13
1.65352e-08
8.66109e-11
1.64772e-08
1.73323e-10
1.63904e-08
2.59731e-10
1.62747e-08
3.45684e-10
1.61306e-08
4.3103e-10
1.59581e-08
5.1562e-10
1.57576e-08
5.99305e-10
1.55296e-08
6.81939e-10
1.52742e-08
7.63376e-10
1.49921e-08
8.43475e-10
1.46837e-08
9.22093e-10
1.43495e-08
9.99094e-10
1.39901e-08
1.07434e-09
1.36063e-08
1.14771e-09
1.31985e-08
1.21906e-09
1.27676e-08
1.28827e-09
1.23143e-08
1.35522e-09
1.18394e-08
1.4198e-09
1.13437e-08
1.48189e-09
1.08282e-08
1.54137e-09
1.02936e-08
1.59816e-09
9.74102e-09
1.65214e-09
9.17133e-09
1.70322e-09
8.58555e-09
1.75132e-09
7.9847e-09
1.79635e-09
7.36985e-09
1.83823e-09
6.74206e-09
1.8769e-09
6.10244e-09
1.91229e-09
5.4521e-09
1.94435e-09
4.79216e-09
1.97302e-09
4.12378e-09
1.99828e-09
3.44809e-09
2.02011e-09
2.76625e-09
2.0385e-09
2.0794e-09
2.05347e-09
1.38867e-09
2.06506e-09
6.9517e-10
2.07334e-09
2.07835e-09
-6.99024e-10
2.7774e-09
-1.39638e-09
2.7707e-09
-2.09097e-09
2.75962e-09
-2.78165e-09
2.74414e-09
-3.46728e-09
2.72415e-09
-4.14672e-09
2.69957e-09
-4.81882e-09
2.67039e-09
-5.48242e-09
2.63663e-09
-6.13638e-09
2.59831e-09
-6.77956e-09
2.55547e-09
-7.41084e-09
2.50818e-09
-8.02911e-09
2.45651e-09
-8.6333e-09
2.40054e-09
-9.22234e-09
2.34036e-09
-9.7952e-09
2.27609e-09
-1.03509e-08
2.20782e-09
-1.08884e-08
2.13568e-09
-1.14068e-08
2.0598e-09
-1.19053e-08
1.98031e-09
-1.23828e-08
1.89734e-09
-1.28386e-08
1.81104e-09
-1.32719e-08
1.72157e-09
-1.36819e-08
1.62908e-09
-1.40679e-08
1.53373e-09
-1.44293e-08
1.43569e-09
-1.47653e-08
1.33513e-09
-1.50755e-08
1.23223e-09
-1.53592e-08
1.12717e-09
-1.56159e-08
1.02013e-09
-1.58453e-08
9.113e-10
-1.60469e-08
8.00873e-10
-1.62203e-08
6.89041e-10
-1.63652e-08
5.76001e-10
-1.64815e-08
4.6195e-10
-1.65689e-08
3.47089e-10
-1.66272e-08
2.31618e-10
-1.66563e-08
1.15741e-10
-1.66562e-08
-3.39296e-13
-1.66269e-08
-1.16419e-10
-1.65685e-08
-2.32295e-10
-1.64809e-08
-3.47763e-10
-1.63645e-08
-4.62621e-10
-1.62194e-08
-5.76668e-10
-1.60458e-08
-6.89703e-10
-1.5844e-08
-8.01529e-10
-1.56145e-08
-9.11949e-10
-1.53576e-08
-1.02077e-09
-1.50737e-08
-1.1278e-09
-1.47634e-08
-1.23285e-09
-1.44273e-08
-1.33574e-09
-1.40658e-08
-1.43629e-09
-1.36796e-08
-1.53432e-09
-1.32694e-08
-1.62965e-09
-1.2836e-08
-1.72213e-09
-1.238e-08
-1.81159e-09
-1.19024e-08
-1.89787e-09
-1.14038e-08
-1.98082e-09
-1.08853e-08
-2.0603e-09
-1.03476e-08
-2.13616e-09
-9.79182e-09
-2.20827e-09
-9.21885e-09
-2.27652e-09
-8.62971e-09
-2.34076e-09
-8.02543e-09
-2.40091e-09
-7.40708e-09
-2.45684e-09
-6.77573e-09
-2.50846e-09
-6.13249e-09
-2.55568e-09
-5.4785e-09
-2.59842e-09
-4.8149e-09
-2.6366e-09
-4.14285e-09
-2.67016e-09
-3.46354e-09
-2.69903e-09
-2.77815e-09
-2.72317e-09
-2.08788e-09
-2.74253e-09
-1.39396e-09
-2.75709e-09
-6.97586e-10
-2.7668e-09
9.20362e-15
-2.77166e-09
6.97604e-10
-2.77166e-09
1.39397e-09
-2.7668e-09
2.0879e-09
-2.75708e-09
2.77816e-09
-2.74253e-09
3.46355e-09
-2.72317e-09
4.14287e-09
-2.69903e-09
4.81492e-09
-2.67016e-09
5.47852e-09
-2.6366e-09
6.13251e-09
-2.59842e-09
6.77575e-09
-2.55568e-09
7.40709e-09
-2.50846e-09
8.02545e-09
-2.45684e-09
8.62973e-09
-2.4009e-09
9.21887e-09
-2.34076e-09
9.79184e-09
-2.27651e-09
1.03476e-08
-2.20827e-09
1.08853e-08
-2.13615e-09
1.14038e-08
-2.06029e-09
1.19024e-08
-1.98082e-09
1.23801e-08
-1.89786e-09
1.2836e-08
-1.81158e-09
1.32694e-08
-1.72213e-09
1.36796e-08
-1.62965e-09
1.40658e-08
-1.53431e-09
1.44273e-08
-1.43629e-09
1.47635e-08
-1.33574e-09
1.50738e-08
-1.23285e-09
1.53576e-08
-1.1278e-09
1.56145e-08
-1.02077e-09
1.58441e-08
-9.11946e-10
1.60458e-08
-8.01526e-10
1.62194e-08
-6.897e-10
1.63645e-08
-5.76665e-10
1.64809e-08
-4.62618e-10
1.65685e-08
-3.4776e-10
1.66269e-08
-2.32292e-10
1.66562e-08
-1.16416e-10
1.66563e-08
-3.36766e-13
1.66272e-08
1.15743e-10
1.65689e-08
2.3162e-10
1.64815e-08
3.4709e-10
1.63653e-08
4.61952e-10
1.62203e-08
5.76003e-10
1.60469e-08
6.89043e-10
1.58453e-08
8.00874e-10
1.56159e-08
9.11301e-10
1.53592e-08
1.02013e-09
1.50755e-08
1.12717e-09
1.47653e-08
1.23223e-09
1.44293e-08
1.33513e-09
1.4068e-08
1.43569e-09
1.36819e-08
1.53373e-09
1.32719e-08
1.62908e-09
1.28386e-08
1.72157e-09
1.23828e-08
1.81104e-09
1.19053e-08
1.89734e-09
1.14068e-08
1.9803e-09
1.08884e-08
2.0598e-09
1.03509e-08
2.13568e-09
9.79521e-09
2.20782e-09
9.22235e-09
2.27608e-09
8.63331e-09
2.34036e-09
8.02912e-09
2.40053e-09
7.41085e-09
2.4565e-09
6.77957e-09
2.50818e-09
6.13639e-09
2.55547e-09
5.48243e-09
2.5983e-09
4.81882e-09
2.63663e-09
4.14672e-09
2.67039e-09
3.46727e-09
2.69956e-09
2.78164e-09
2.72414e-09
2.09097e-09
2.74415e-09
1.39639e-09
2.75963e-09
6.99028e-10
2.7707e-09
2.77738e-09
-7.0405e-10
3.48144e-09
-1.4064e-09
3.47308e-09
-2.10597e-09
3.4592e-09
-2.80161e-09
3.43978e-09
-3.49217e-09
3.4147e-09
-4.1765e-09
3.38389e-09
-4.85343e-09
3.34732e-09
-5.5218e-09
3.305e-09
-6.18046e-09
3.25696e-09
-6.82825e-09
3.20327e-09
-7.46407e-09
3.14399e-09
-8.08678e-09
3.07922e-09
-8.6953e-09
3.00906e-09
-9.28857e-09
2.93363e-09
-9.86555e-09
2.85306e-09
-1.04252e-08
2.76749e-09
-1.09666e-08
2.67707e-09
-1.14888e-08
2.58195e-09
-1.19908e-08
2.48231e-09
-1.24717e-08
2.37831e-09
-1.29308e-08
2.27013e-09
-1.33672e-08
2.15798e-09
-1.37802e-08
2.04204e-09
-1.4169e-08
1.92252e-09
-1.45329e-08
1.79963e-09
-1.48714e-08
1.67358e-09
-1.51837e-08
1.5446e-09
-1.54695e-08
1.4129e-09
-1.57281e-08
1.27873e-09
-1.59591e-08
1.14231e-09
-1.61621e-08
1.00389e-09
-1.63368e-08
8.63711e-10
-1.64828e-08
7.22016e-10
-1.65999e-08
5.79053e-10
-1.66879e-08
4.35075e-10
-1.67466e-08
2.90333e-10
-1.67759e-08
1.45081e-10
-1.67759e-08
-4.24817e-13
-1.67463e-08
-1.4593e-10
-1.66875e-08
-2.9118e-10
-1.65993e-08
-4.35918e-10
-1.6482e-08
-5.79892e-10
-1.63358e-08
-7.2285e-10
-1.6161e-08
-8.64539e-10
-1.59578e-08
-1.00471e-09
-1.57267e-08
-1.14312e-09
-1.54679e-08
-1.27953e-09
-1.5182e-08
-1.41369e-09
-1.48695e-08
-1.54537e-09
-1.45309e-08
-1.67435e-09
-1.41668e-08
-1.80038e-09
-1.37778e-08
-1.92326e-09
-1.33647e-08
-2.04276e-09
-1.29282e-08
-2.15868e-09
-1.2469e-08
-2.27082e-09
-1.19878e-08
-2.37897e-09
-1.14857e-08
-2.48295e-09
-1.09634e-08
-2.58257e-09
-1.04219e-08
-2.67766e-09
-9.86215e-09
-2.76806e-09
-9.28507e-09
-2.8536e-09
-8.69169e-09
-2.93414e-09
-8.08307e-09
-3.00953e-09
-7.46028e-09
-3.07964e-09
-6.82439e-09
-3.14434e-09
-6.17654e-09
-3.20354e-09
-5.51785e-09
-3.25711e-09
-4.84948e-09
-3.30497e-09
-4.17261e-09
-3.34703e-09
-3.48841e-09
-3.38323e-09
-2.7981e-09
-3.41348e-09
-2.10288e-09
-3.43775e-09
-1.40397e-09
-3.45599e-09
-7.02596e-10
-3.46817e-09
8.99258e-15
-3.47427e-09
7.02614e-10
-3.47427e-09
1.40399e-09
-3.46817e-09
2.1029e-09
-3.45599e-09
2.79812e-09
-3.43775e-09
3.48843e-09
-3.41348e-09
4.17262e-09
-3.38323e-09
4.8495e-09
-3.34703e-09
5.51787e-09
-3.30497e-09
6.17656e-09
-3.25711e-09
6.82441e-09
-3.20354e-09
7.4603e-09
-3.14434e-09
8.08309e-09
-3.07963e-09
8.69171e-09
-3.00952e-09
9.28508e-09
-2.93413e-09
9.86217e-09
-2.8536e-09
1.0422e-08
-2.76806e-09
1.09635e-08
-2.67766e-09
1.14857e-08
-2.58257e-09
1.19879e-08
-2.48294e-09
1.2469e-08
-2.37896e-09
1.29282e-08
-2.27081e-09
1.33648e-08
-2.15868e-09
1.37779e-08
-2.04276e-09
1.41668e-08
-1.92325e-09
1.45309e-08
-1.80038e-09
1.48695e-08
-1.67434e-09
1.5182e-08
-1.54537e-09
1.54679e-08
-1.41369e-09
1.57267e-08
-1.27953e-09
1.59578e-08
-1.14312e-09
1.6161e-08
-1.00471e-09
1.63359e-08
-8.64536e-10
1.6482e-08
-7.22847e-10
1.65993e-08
-5.79889e-10
1.66875e-08
-4.35915e-10
1.67464e-08
-2.91176e-10
1.67759e-08
-1.45926e-10
1.6776e-08
-4.20912e-13
1.67466e-08
1.45085e-10
1.66879e-08
2.90335e-10
1.65999e-08
4.35077e-10
1.64828e-08
5.79054e-10
1.63368e-08
7.22016e-10
1.61621e-08
8.63712e-10
1.59591e-08
1.00389e-09
1.57281e-08
1.14231e-09
1.54695e-08
1.27873e-09
1.51838e-08
1.4129e-09
1.48714e-08
1.54459e-09
1.45329e-08
1.67358e-09
1.4169e-08
1.79963e-09
1.37802e-08
1.92252e-09
1.33672e-08
2.04204e-09
1.29308e-08
2.15798e-09
1.24717e-08
2.27013e-09
1.19908e-08
2.3783e-09
1.14888e-08
2.4823e-09
1.09666e-08
2.58195e-09
1.04252e-08
2.67707e-09
9.86556e-09
2.76749e-09
9.28858e-09
2.85306e-09
8.69531e-09
2.93363e-09
8.08679e-09
3.00906e-09
7.46407e-09
3.07922e-09
6.82826e-09
3.14399e-09
6.18046e-09
3.20327e-09
5.5218e-09
3.25696e-09
4.85343e-09
3.305e-09
4.1765e-09
3.34732e-09
3.49217e-09
3.38389e-09
2.80161e-09
3.4147e-09
2.10598e-09
3.43978e-09
1.40641e-09
3.45919e-09
7.04043e-10
3.47306e-09
3.48142e-09
-7.10251e-10
4.19167e-09
-1.4188e-09
4.18163e-09
-2.12452e-09
4.16493e-09
-2.82629e-09
4.14155e-09
-3.52294e-09
4.11135e-09
-4.2133e-09
4.07425e-09
-4.8962e-09
4.03022e-09
-5.57046e-09
3.97926e-09
-6.23492e-09
3.92143e-09
-6.88842e-09
3.85678e-09
-7.52984e-09
3.7854e-09
-8.15804e-09
3.70742e-09
-8.77192e-09
3.62295e-09
-9.37042e-09
3.53213e-09
-9.95248e-09
3.43512e-09
-1.05171e-08
3.3321e-09
-1.10632e-08
3.22323e-09
-1.159e-08
3.1087e-09
-1.20964e-08
2.98873e-09
-1.25816e-08
2.86351e-09
-1.30448e-08
2.73327e-09
-1.3485e-08
2.59824e-09
-1.39016e-08
2.45865e-09
-1.42938e-08
2.31474e-09
-1.4661e-08
2.16678e-09
-1.50024e-08
2.01501e-09
-1.53175e-08
1.85971e-09
-1.56058e-08
1.70115e-09
-1.58667e-08
1.5396e-09
-1.60997e-08
1.37536e-09
-1.63045e-08
1.2087e-09
-1.64807e-08
1.03992e-09
-1.6628e-08
8.69317e-10
-1.67462e-08
6.97188e-10
-1.68349e-08
5.23836e-10
-1.68942e-08
3.49564e-10
-1.69238e-08
1.7468e-10
-1.69237e-08
-5.10925e-13
-1.68939e-08
-1.75701e-10
-1.68345e-08
-3.50583e-10
-1.67456e-08
-5.2485e-10
-1.66273e-08
-6.98197e-10
-1.64798e-08
-8.70319e-10
-1.63034e-08
-1.04092e-09
-1.60985e-08
-1.20969e-09
-1.58652e-08
-1.37633e-09
-1.56042e-08
-1.54057e-09
-1.53158e-08
-1.7021e-09
-1.50005e-08
-1.86065e-09
-1.46589e-08
-2.01593e-09
-1.42916e-08
-2.16768e-09
-1.38993e-08
-2.31563e-09
-1.34825e-08
-2.45951e-09
-1.30421e-08
-2.59908e-09
-1.25788e-08
-2.73409e-09
-1.20935e-08
-2.86431e-09
-1.15869e-08
-2.9895e-09
-1.10601e-08
-3.10945e-09
-1.05138e-08
-3.22394e-09
-9.94906e-09
-3.33278e-09
-9.36689e-09
-3.43577e-09
-8.76829e-09
-3.53274e-09
-8.1543e-09
-3.62351e-09
-7.52602e-09
-3.70792e-09
-6.88453e-09
-3.78583e-09
-6.23097e-09
-3.8571e-09
-5.56647e-09
-3.9216e-09
-4.89222e-09
-3.97923e-09
-4.20938e-09
-4.02987e-09
-3.51915e-09
-4.07345e-09
-2.82276e-09
-4.10988e-09
-2.12141e-09
-4.1391e-09
-1.41634e-09
-4.16106e-09
-7.08788e-10
-4.17572e-09
8.62897e-15
-4.18306e-09
7.08806e-10
-4.18306e-09
1.41636e-09
-4.17572e-09
2.12143e-09
-4.16106e-09
2.82278e-09
-4.1391e-09
3.51917e-09
-4.10988e-09
4.20939e-09
-4.07345e-09
4.89223e-09
-4.02987e-09
5.56649e-09
-3.97923e-09
6.23099e-09
-3.9216e-09
6.88455e-09
-3.8571e-09
7.52604e-09
-3.78583e-09
8.15432e-09
-3.70792e-09
8.7683e-09
-3.62351e-09
9.36691e-09
-3.53274e-09
9.94908e-09
-3.43577e-09
1.05138e-08
-3.33278e-09
1.10601e-08
-3.22394e-09
1.1587e-08
-3.10944e-09
1.20935e-08
-2.9895e-09
1.25788e-08
-2.8643e-09
1.30421e-08
-2.73409e-09
1.34825e-08
-2.59908e-09
1.38993e-08
-2.45951e-09
1.42916e-08
-2.31562e-09
1.46589e-08
-2.16768e-09
1.50005e-08
-2.01593e-09
1.53158e-08
-1.86065e-09
1.56042e-08
-1.7021e-09
1.58653e-08
-1.54057e-09
1.60985e-08
-1.37633e-09
1.63034e-08
-1.20968e-09
1.64798e-08
-1.04091e-09
1.66273e-08
-8.70317e-10
1.67456e-08
-6.98194e-10
1.68345e-08
-5.24847e-10
1.68939e-08
-3.50579e-10
1.69237e-08
-1.75697e-10
1.69238e-08
-5.06695e-13
1.68942e-08
1.74684e-10
1.68349e-08
3.49567e-10
1.67462e-08
5.23838e-10
1.66281e-08
6.97189e-10
1.64808e-08
8.69317e-10
1.63045e-08
1.03992e-09
1.60997e-08
1.2087e-09
1.58667e-08
1.37536e-09
1.56058e-08
1.5396e-09
1.53176e-08
1.70115e-09
1.50024e-08
1.85971e-09
1.4661e-08
2.01501e-09
1.42939e-08
2.16677e-09
1.39016e-08
2.31474e-09
1.3485e-08
2.45864e-09
1.30448e-08
2.59823e-09
1.25816e-08
2.73327e-09
1.20964e-08
2.86351e-09
1.159e-08
2.98872e-09
1.10633e-08
3.1087e-09
1.05171e-08
3.22322e-09
9.95249e-09
3.33209e-09
9.37043e-09
3.43512e-09
8.77193e-09
3.53213e-09
8.15805e-09
3.62294e-09
7.52985e-09
3.70742e-09
6.88843e-09
3.7854e-09
6.23492e-09
3.85677e-09
5.57046e-09
3.92142e-09
4.8962e-09
3.97926e-09
4.2133e-09
4.03021e-09
3.52294e-09
4.07425e-09
2.82629e-09
4.11135e-09
2.12453e-09
4.14155e-09
1.4188e-09
4.16492e-09
7.10245e-10
4.18161e-09
4.19167e-09
-7.17655e-10
4.90933e-09
-1.43361e-09
4.89757e-09
-2.1467e-09
4.87802e-09
-2.85579e-09
4.85064e-09
-3.55971e-09
4.81527e-09
-4.25728e-09
4.77181e-09
-4.9473e-09
4.72024e-09
-5.6286e-09
4.66056e-09
-6.3e-09
4.59282e-09
-6.96033e-09
4.51711e-09
-7.60844e-09
4.43351e-09
-8.24319e-09
4.34218e-09
-8.86349e-09
4.24324e-09
-9.46823e-09
4.13688e-09
-1.00564e-08
4.02326e-09
-1.06269e-08
3.90259e-09
-1.11787e-08
3.77508e-09
-1.1711e-08
3.64095e-09
-1.22227e-08
3.50044e-09
-1.2713e-08
3.35378e-09
-1.31809e-08
3.20124e-09
-1.36258e-08
3.04309e-09
-1.40467e-08
2.8796e-09
-1.4443e-08
2.71106e-09
-1.4814e-08
2.53776e-09
-1.5159e-08
2.36001e-09
-1.54774e-08
2.17812e-09
-1.57687e-08
1.99241e-09
-1.60323e-08
1.80321e-09
-1.62678e-08
1.61084e-09
-1.64747e-08
1.41564e-09
-1.66528e-08
1.21797e-09
-1.68016e-08
1.01815e-09
-1.6921e-08
8.16555e-10
-1.70107e-08
6.13523e-10
-1.70705e-08
4.09414e-10
-1.71004e-08
2.04588e-10
-1.71003e-08
-5.97461e-13
-1.70703e-08
-2.05782e-10
-1.70102e-08
-4.10606e-10
-1.69204e-08
-6.1471e-10
-1.68008e-08
-8.17737e-10
-1.66518e-08
-1.01933e-09
-1.64736e-08
-1.21913e-09
-1.62665e-08
-1.4168e-09
-1.60309e-08
-1.61198e-09
-1.57671e-08
-1.80433e-09
-1.54757e-08
-1.99352e-09
-1.51571e-08
-2.17922e-09
-1.48119e-08
-2.36109e-09
-1.44408e-08
-2.53882e-09
-1.40443e-08
-2.71209e-09
-1.36232e-08
-2.88061e-09
-1.31782e-08
-3.04408e-09
-1.27101e-08
-3.2022e-09
-1.22197e-08
-3.35471e-09
-1.17079e-08
-3.50134e-09
-1.11755e-08
-3.64183e-09
-1.06235e-08
-3.77592e-09
-1.00529e-08
-3.90339e-09
-9.46467e-09
-4.02402e-09
-8.85982e-09
-4.13759e-09
-8.23943e-09
-4.2439e-09
-7.60458e-09
-4.34277e-09
-6.9564e-09
-4.43401e-09
-6.29601e-09
-4.51749e-09
-5.62458e-09
-4.59303e-09
-4.94329e-09
-4.66052e-09
-4.25332e-09
-4.71984e-09
-3.55589e-09
-4.77087e-09
-2.85222e-09
-4.81354e-09
-2.14356e-09
-4.84777e-09
-1.43113e-09
-4.87349e-09
-7.16188e-10
-4.89066e-09
8.40296e-15
-4.89925e-09
7.16205e-10
-4.89925e-09
1.43114e-09
-4.89066e-09
2.14357e-09
-4.87349e-09
2.85224e-09
-4.84777e-09
3.55591e-09
-4.81354e-09
4.25334e-09
-4.77087e-09
4.9433e-09
-4.71984e-09
5.6246e-09
-4.66052e-09
6.29603e-09
-4.59303e-09
6.95642e-09
-4.51748e-09
7.6046e-09
-4.43401e-09
8.23944e-09
-4.34277e-09
8.85983e-09
-4.2439e-09
9.46469e-09
-4.13759e-09
1.00529e-08
-4.02402e-09
1.06236e-08
-3.90339e-09
1.11755e-08
-3.77592e-09
1.17079e-08
-3.64182e-09
1.22197e-08
-3.50134e-09
1.27102e-08
-3.35471e-09
1.31783e-08
-3.2022e-09
1.36233e-08
-3.04407e-09
1.40444e-08
-2.88061e-09
1.44408e-08
-2.71209e-09
1.4812e-08
-2.53881e-09
1.51571e-08
-2.36108e-09
1.54757e-08
-2.17921e-09
1.57671e-08
-1.99352e-09
1.60309e-08
-1.80433e-09
1.62665e-08
-1.61198e-09
1.64736e-08
-1.4168e-09
1.66518e-08
-1.21913e-09
1.68009e-08
-1.01933e-09
1.69204e-08
-8.17733e-10
1.70103e-08
-6.14707e-10
1.70703e-08
-4.10602e-10
1.71004e-08
-2.05778e-10
1.71004e-08
-5.94084e-13
1.70705e-08
2.04591e-10
1.70107e-08
4.09418e-10
1.6921e-08
6.13526e-10
1.68016e-08
8.16558e-10
1.66528e-08
1.01816e-09
1.64747e-08
1.21797e-09
1.62678e-08
1.41564e-09
1.60323e-08
1.61084e-09
1.57687e-08
1.8032e-09
1.54774e-08
1.99241e-09
1.5159e-08
2.17812e-09
1.4814e-08
2.36001e-09
1.44431e-08
2.53775e-09
1.40467e-08
2.71105e-09
1.36258e-08
2.87959e-09
1.31809e-08
3.04308e-09
1.2713e-08
3.20124e-09
1.22227e-08
3.35378e-09
1.1711e-08
3.50043e-09
1.11787e-08
3.64095e-09
1.06269e-08
3.77508e-09
1.00564e-08
3.90259e-09
9.46824e-09
4.02326e-09
8.8635e-09
4.13687e-09
8.2432e-09
4.24324e-09
7.60844e-09
4.34217e-09
6.96033e-09
4.43351e-09
6.3e-09
4.5171e-09
5.6286e-09
4.59282e-09
4.9473e-09
4.66056e-09
4.25728e-09
4.72024e-09
3.55971e-09
4.77181e-09
2.85579e-09
4.81527e-09
2.1467e-09
4.85064e-09
1.43361e-09
4.87802e-09
7.17658e-10
4.89756e-09
4.90932e-09
-7.26299e-10
5.63563e-09
-1.45088e-09
5.62214e-09
-2.17257e-09
5.59971e-09
-2.8902e-09
5.56828e-09
-3.6026e-09
5.52767e-09
-4.30857e-09
5.47779e-09
-5.00691e-09
5.41858e-09
-5.69642e-09
5.35008e-09
-6.37591e-09
5.27231e-09
-7.0442e-09
5.18539e-09
-7.70012e-09
5.08943e-09
-8.34252e-09
4.98458e-09
-8.97029e-09
4.87101e-09
-9.58232e-09
4.74891e-09
-1.01775e-08
4.61849e-09
-1.07549e-08
4.47997e-09
-1.13134e-08
4.33359e-09
-1.18521e-08
4.17962e-09
-1.237e-08
4.01831e-09
-1.28661e-08
3.84996e-09
-1.33398e-08
3.67485e-09
-1.379e-08
3.4933e-09
-1.4216e-08
3.30562e-09
-1.46171e-08
3.11215e-09
-1.49925e-08
2.91321e-09
-1.53417e-08
2.70916e-09
-1.56639e-08
2.50036e-09
-1.59587e-08
2.28718e-09
-1.62255e-08
2.06998e-09
-1.64638e-08
1.84916e-09
-1.66732e-08
1.62508e-09
-1.68534e-08
1.39816e-09
-1.70041e-08
1.16879e-09
-1.71249e-08
9.37361e-10
-1.72156e-08
7.04291e-10
-1.72762e-08
4.69986e-10
-1.73065e-08
2.34857e-10
-1.73064e-08
-6.84523e-13
-1.7276e-08
-2.36225e-10
-1.72152e-08
-4.71353e-10
-1.71243e-08
-7.05653e-10
-1.70033e-08
-9.38717e-10
-1.68525e-08
-1.17013e-09
-1.66721e-08
-1.3995e-09
-1.64625e-08
-1.62641e-09
-1.6224e-08
-1.85047e-09
-1.59571e-08
-2.07128e-09
-1.56622e-08
-2.28846e-09
-1.53397e-08
-2.50162e-09
-1.49904e-08
-2.7104e-09
-1.46148e-08
-2.91442e-09
-1.42136e-08
-3.11333e-09
-1.37874e-08
-3.30678e-09
-1.33371e-08
-3.49443e-09
-1.28633e-08
-3.67596e-09
-1.2367e-08
-3.85103e-09
-1.1849e-08
-4.01935e-09
-1.13102e-08
-4.18062e-09
-1.07515e-08
-4.33455e-09
-1.01741e-08
-4.48089e-09
-9.57872e-09
-4.61936e-09
-8.96658e-09
-4.74973e-09
-8.33871e-09
-4.87177e-09
-7.69622e-09
-4.98526e-09
-7.04023e-09
-5.09001e-09
-6.37188e-09
-5.18583e-09
-5.69236e-09
-5.27255e-09
-5.00286e-09
-5.35003e-09
-4.30457e-09
-5.41812e-09
-3.59874e-09
-5.47671e-09
-2.8866e-09
-5.52569e-09
-2.16939e-09
-5.56498e-09
-1.44837e-09
-5.5945e-09
-7.24818e-10
-5.61421e-09
8.55393e-15
-5.62408e-09
7.24835e-10
-5.62408e-09
1.44839e-09
-5.61421e-09
2.1694e-09
-5.5945e-09
2.88661e-09
-5.56497e-09
3.59876e-09
-5.52569e-09
4.30459e-09
-5.47671e-09
5.00287e-09
-5.41812e-09
5.69238e-09
-5.35003e-09
6.3719e-09
-5.27255e-09
7.04024e-09
-5.18583e-09
7.69624e-09
-5.09001e-09
8.33873e-09
-4.98526e-09
8.9666e-09
-4.87177e-09
9.57874e-09
-4.74973e-09
1.01741e-08
-4.61936e-09
1.07516e-08
-4.48088e-09
1.13102e-08
-4.33455e-09
1.1849e-08
-4.18062e-09
1.2367e-08
-4.01935e-09
1.28633e-08
-3.85103e-09
1.33371e-08
-3.67595e-09
1.37874e-08
-3.49443e-09
1.42136e-08
-3.30678e-09
1.46148e-08
-3.11333e-09
1.49905e-08
-2.91442e-09
1.53398e-08
-2.7104e-09
1.56622e-08
-2.50162e-09
1.59571e-08
-2.28845e-09
1.6224e-08
-2.07127e-09
1.64625e-08
-1.85046e-09
1.66721e-08
-1.6264e-09
1.68525e-08
-1.39949e-09
1.70033e-08
-1.17013e-09
1.71243e-08
-9.38713e-10
1.72152e-08
-7.0565e-10
1.7276e-08
-4.71349e-10
1.73064e-08
-2.36223e-10
1.73065e-08
-6.8221e-13
1.72762e-08
2.3486e-10
1.72157e-08
4.6999e-10
1.71249e-08
7.04295e-10
1.70041e-08
9.37364e-10
1.68534e-08
1.16879e-09
1.66733e-08
1.39816e-09
1.64638e-08
1.62508e-09
1.62255e-08
1.84916e-09
1.59587e-08
2.06998e-09
1.56639e-08
2.28718e-09
1.53417e-08
2.50036e-09
1.49925e-08
2.70916e-09
1.46171e-08
2.9132e-09