/*--------------------------------*- C++ -*----------------------------------*\
| =========                 |                                                 |
| \\      /  F ield         | OpenFOAM: The Open Source CFD Toolbox           |
|  \\    /   O peration     | Version:  2106                                  |
|   \\  /    A nd           | Website:  www.openfoam.com                      |
|    \\/     M anipulation  |                                                 |
\*---------------------------------------------------------------------------*/
FoamFile
{
    version     2.0;
    format      ascii;
    arch        "LSB;label=32;scalar=64";
    class       volVectorField;
    location    "0.7";
    object      U;
}
// * * * * * * * * * * * * * * * * * * * * * * * * * * * * * * * * * * * * * //

dimensions      [0 1 -1 0 0 0 0];

internalField   nonuniform List<vector> 
90000
(
(-5.18269e-08 5.17866e-08 0)
(-1.55358e-07 5.16577e-08 0)
(-2.58568e-07 5.14474e-08 0)
(-3.61277e-07 5.1158e-08 0)
(-4.6332e-07 5.07846e-08 0)
(-5.64534e-07 5.03268e-08 0)
(-6.64744e-07 4.97835e-08 0)
(-7.6378e-07 4.91541e-08 0)
(-8.6147e-07 4.84392e-08 0)
(-9.57646e-07 4.76401e-08 0)
(-1.05214e-06 4.67584e-08 0)
(-1.14479e-06 4.57952e-08 0)
(-1.23543e-06 4.47518e-08 0)
(-1.3239e-06 4.363e-08 0)
(-1.41005e-06 4.24317e-08 0)
(-1.49372e-06 4.1159e-08 0)
(-1.57478e-06 3.98142e-08 0)
(-1.65307e-06 3.83996e-08 0)
(-1.72847e-06 3.69176e-08 0)
(-1.80083e-06 3.53709e-08 0)
(-1.87003e-06 3.37621e-08 0)
(-1.93596e-06 3.20941e-08 0)
(-1.99848e-06 3.03698e-08 0)
(-2.05751e-06 2.85923e-08 0)
(-2.11292e-06 2.67646e-08 0)
(-2.16463e-06 2.48899e-08 0)
(-2.21254e-06 2.29716e-08 0)
(-2.25657e-06 2.1013e-08 0)
(-2.29664e-06 1.90176e-08 0)
(-2.33268e-06 1.69888e-08 0)
(-2.36463e-06 1.49302e-08 0)
(-2.39244e-06 1.28454e-08 0)
(-2.41604e-06 1.0738e-08 0)
(-2.43541e-06 8.61182e-09 0)
(-2.45051e-06 6.47053e-09 0)
(-2.46131e-06 4.31789e-09 0)
(-2.46779e-06 2.15768e-09 0)
(-2.46995e-06 -6.32281e-12 0)
(-2.46777e-06 -2.17032e-09 0)
(-2.46126e-06 -4.33051e-09 0)
(-2.45044e-06 -6.4831e-09 0)
(-2.43531e-06 -8.62434e-09 0)
(-2.41592e-06 -1.07504e-08 0)
(-2.39229e-06 -1.28577e-08 0)
(-2.36446e-06 -1.49424e-08 0)
(-2.33248e-06 -1.70009e-08 0)
(-2.29642e-06 -1.90295e-08 0)
(-2.25632e-06 -2.10248e-08 0)
(-2.21227e-06 -2.29833e-08 0)
(-2.16433e-06 -2.49014e-08 0)
(-2.1126e-06 -2.67758e-08 0)
(-2.05717e-06 -2.86033e-08 0)
(-1.99813e-06 -3.03805e-08 0)
(-1.93558e-06 -3.21045e-08 0)
(-1.86963e-06 -3.37722e-08 0)
(-1.80041e-06 -3.53806e-08 0)
(-1.72803e-06 -3.6927e-08 0)
(-1.65262e-06 -3.84087e-08 0)
(-1.5743e-06 -3.9823e-08 0)
(-1.49323e-06 -4.11674e-08 0)
(-1.40954e-06 -4.24395e-08 0)
(-1.32338e-06 -4.36373e-08 0)
(-1.23489e-06 -4.47585e-08 0)
(-1.14424e-06 -4.58012e-08 0)
(-1.05158e-06 -4.67636e-08 0)
(-9.57075e-07 -4.7644e-08 0)
(-8.60893e-07 -4.84408e-08 0)
(-7.632e-07 -4.91525e-08 0)
(-6.64169e-07 -4.97781e-08 0)
(-5.63973e-07 -5.03163e-08 0)
(-4.62787e-07 -5.07663e-08 0)
(-3.6079e-07 -5.11273e-08 0)
(-2.5816e-07 -5.13986e-08 0)
(-1.55077e-07 -5.15797e-08 0)
(-5.17219e-08 -5.16703e-08 0)
(5.17241e-08 -5.16703e-08 0)
(1.55079e-07 -5.15796e-08 0)
(2.58162e-07 -5.13985e-08 0)
(3.60793e-07 -5.11272e-08 0)
(4.6279e-07 -5.07663e-08 0)
(5.63975e-07 -5.03163e-08 0)
(6.64172e-07 -4.9778e-08 0)
(7.63203e-07 -4.91524e-08 0)
(8.60896e-07 -4.84406e-08 0)
(9.57078e-07 -4.76439e-08 0)
(1.05158e-06 -4.67636e-08 0)
(1.14424e-06 -4.58013e-08 0)
(1.23489e-06 -4.47586e-08 0)
(1.32338e-06 -4.36373e-08 0)
(1.40954e-06 -4.24396e-08 0)
(1.49323e-06 -4.11673e-08 0)
(1.57431e-06 -3.98229e-08 0)
(1.65262e-06 -3.84087e-08 0)
(1.72803e-06 -3.69271e-08 0)
(1.80041e-06 -3.53807e-08 0)
(1.86964e-06 -3.37722e-08 0)
(1.93558e-06 -3.21045e-08 0)
(1.99813e-06 -3.03805e-08 0)
(2.05717e-06 -2.86032e-08 0)
(2.11261e-06 -2.67758e-08 0)
(2.16434e-06 -2.49014e-08 0)
(2.21227e-06 -2.29833e-08 0)
(2.25632e-06 -2.10248e-08 0)
(2.29642e-06 -1.90295e-08 0)
(2.33249e-06 -1.70008e-08 0)
(2.36446e-06 -1.49423e-08 0)
(2.39229e-06 -1.28576e-08 0)
(2.41592e-06 -1.07504e-08 0)
(2.43532e-06 -8.62427e-09 0)
(2.45044e-06 -6.48305e-09 0)
(2.46126e-06 -4.33047e-09 0)
(2.46777e-06 -2.17028e-09 0)
(2.46995e-06 -6.29192e-12 0)
(2.4678e-06 2.15771e-09 0)
(2.46131e-06 4.31791e-09 0)
(2.45051e-06 6.47053e-09 0)
(2.43542e-06 8.6118e-09 0)
(2.41605e-06 1.0738e-08 0)
(2.39244e-06 1.28454e-08 0)
(2.36463e-06 1.49302e-08 0)
(2.33268e-06 1.69888e-08 0)
(2.29664e-06 1.90177e-08 0)
(2.25657e-06 2.10131e-08 0)
(2.21254e-06 2.29717e-08 0)
(2.16463e-06 2.489e-08 0)
(2.11292e-06 2.67647e-08 0)
(2.05751e-06 2.85923e-08 0)
(1.99849e-06 3.03699e-08 0)
(1.93596e-06 3.20941e-08 0)
(1.87003e-06 3.37621e-08 0)
(1.80083e-06 3.53708e-08 0)
(1.72847e-06 3.69175e-08 0)
(1.65308e-06 3.83995e-08 0)
(1.57478e-06 3.98141e-08 0)
(1.49373e-06 4.11589e-08 0)
(1.41005e-06 4.24316e-08 0)
(1.3239e-06 4.36299e-08 0)
(1.23543e-06 4.47517e-08 0)
(1.14479e-06 4.57952e-08 0)
(1.05214e-06 4.67585e-08 0)
(9.57648e-07 4.76402e-08 0)
(8.61471e-07 4.84389e-08 0)
(7.6378e-07 4.91534e-08 0)
(6.64744e-07 4.97829e-08 0)
(5.64534e-07 5.03268e-08 0)
(4.63321e-07 5.07848e-08 0)
(3.61277e-07 5.11574e-08 0)
(2.58573e-07 5.14455e-08 0)
(1.55373e-07 5.16519e-08 0)
(5.18341e-08 5.17793e-08 0)
(-5.19557e-08 1.55483e-07 0)
(-1.55744e-07 1.55097e-07 0)
(-2.59198e-07 1.54474e-07 0)
(-3.62148e-07 1.53608e-07 0)
(-4.64432e-07 1.52487e-07 0)
(-5.65885e-07 1.51111e-07 0)
(-6.66335e-07 1.49479e-07 0)
(-7.65607e-07 1.47589e-07 0)
(-8.6353e-07 1.45444e-07 0)
(-9.59936e-07 1.43045e-07 0)
(-1.05466e-06 1.40398e-07 0)
(-1.14752e-06 1.37505e-07 0)
(-1.23838e-06 1.34373e-07 0)
(-1.32706e-06 1.31004e-07 0)
(-1.41342e-06 1.27406e-07 0)
(-1.49729e-06 1.23585e-07 0)
(-1.57854e-06 1.19547e-07 0)
(-1.65702e-06 1.15299e-07 0)
(-1.7326e-06 1.10849e-07 0)
(-1.80513e-06 1.06205e-07 0)
(-1.8745e-06 1.01375e-07 0)
(-1.94058e-06 9.63663e-08 0)
(-2.00326e-06 9.1189e-08 0)
(-2.06242e-06 8.58517e-08 0)
(-2.11797e-06 8.03638e-08 0)
(-2.1698e-06 7.4735e-08 0)
(-2.21782e-06 6.89751e-08 0)
(-2.26196e-06 6.30942e-08 0)
(-2.30212e-06 5.71026e-08 0)
(-2.33825e-06 5.10108e-08 0)
(-2.37028e-06 4.48296e-08 0)
(-2.39815e-06 3.85697e-08 0)
(-2.42182e-06 3.22421e-08 0)
(-2.44123e-06 2.5858e-08 0)
(-2.45637e-06 1.94285e-08 0)
(-2.46719e-06 1.29649e-08 0)
(-2.47369e-06 6.47863e-09 0)
(-2.47585e-06 -1.90397e-11 0)
(-2.47366e-06 -6.51669e-09 0)
(-2.46714e-06 -1.30029e-08 0)
(-2.45629e-06 -1.94663e-08 0)
(-2.44113e-06 -2.58956e-08 0)
(-2.42169e-06 -3.22795e-08 0)
(-2.398e-06 -3.86068e-08 0)
(-2.37011e-06 -4.48663e-08 0)
(-2.33806e-06 -5.10472e-08 0)
(-2.3019e-06 -5.71385e-08 0)
(-2.26171e-06 -6.31297e-08 0)
(-2.21755e-06 -6.90101e-08 0)
(-2.16951e-06 -7.47694e-08 0)
(-2.11765e-06 -8.03976e-08 0)
(-2.06208e-06 -8.58847e-08 0)
(-2.0029e-06 -9.12211e-08 0)
(-1.9402e-06 -9.63976e-08 0)
(-1.8741e-06 -1.01405e-07 0)
(-1.80471e-06 -1.06235e-07 0)
(-1.73216e-06 -1.10878e-07 0)
(-1.65656e-06 -1.15327e-07 0)
(-1.57807e-06 -1.19573e-07 0)
(-1.4968e-06 -1.2361e-07 0)
(-1.41291e-06 -1.2743e-07 0)
(-1.32654e-06 -1.31026e-07 0)
(-1.23784e-06 -1.34393e-07 0)
(-1.14697e-06 -1.37524e-07 0)
(-1.05409e-06 -1.40413e-07 0)
(-9.59362e-07 -1.43057e-07 0)
(-8.6295e-07 -1.45449e-07 0)
(-7.65024e-07 -1.47586e-07 0)
(-6.65756e-07 -1.49465e-07 0)
(-5.6532e-07 -1.51081e-07 0)
(-4.63893e-07 -1.52432e-07 0)
(-3.61652e-07 -1.53516e-07 0)
(-2.58777e-07 -1.5433e-07 0)
(-1.55448e-07 -1.54874e-07 0)
(-5.18454e-08 -1.55146e-07 0)
(5.18478e-08 -1.55146e-07 0)
(1.5545e-07 -1.54874e-07 0)
(2.58779e-07 -1.5433e-07 0)
(3.61655e-07 -1.53516e-07 0)
(4.63896e-07 -1.52432e-07 0)
(5.65323e-07 -1.51081e-07 0)
(6.65759e-07 -1.49464e-07 0)
(7.65027e-07 -1.47586e-07 0)
(8.62953e-07 -1.45449e-07 0)
(9.59365e-07 -1.43057e-07 0)
(1.05409e-06 -1.40413e-07 0)
(1.14697e-06 -1.37524e-07 0)
(1.23784e-06 -1.34393e-07 0)
(1.32654e-06 -1.31026e-07 0)
(1.41291e-06 -1.2743e-07 0)
(1.4968e-06 -1.2361e-07 0)
(1.57807e-06 -1.19573e-07 0)
(1.65657e-06 -1.15327e-07 0)
(1.73216e-06 -1.10878e-07 0)
(1.80471e-06 -1.06235e-07 0)
(1.8741e-06 -1.01405e-07 0)
(1.9402e-06 -9.63976e-08 0)
(2.0029e-06 -9.12211e-08 0)
(2.06209e-06 -8.58846e-08 0)
(2.11766e-06 -8.03975e-08 0)
(2.16951e-06 -7.47694e-08 0)
(2.21756e-06 -6.901e-08 0)
(2.26171e-06 -6.31295e-08 0)
(2.30191e-06 -5.71384e-08 0)
(2.33806e-06 -5.1047e-08 0)
(2.37011e-06 -4.48661e-08 0)
(2.39801e-06 -3.86066e-08 0)
(2.42169e-06 -3.22793e-08 0)
(2.44113e-06 -2.58954e-08 0)
(2.45629e-06 -1.94662e-08 0)
(2.46714e-06 -1.30028e-08 0)
(2.47367e-06 -6.51659e-09 0)
(2.47585e-06 -1.89639e-11 0)
(2.47369e-06 6.47869e-09 0)
(2.46719e-06 1.2965e-08 0)
(2.45637e-06 1.94285e-08 0)
(2.44123e-06 2.5858e-08 0)
(2.42182e-06 3.22422e-08 0)
(2.39815e-06 3.85698e-08 0)
(2.37028e-06 4.48297e-08 0)
(2.33826e-06 5.1011e-08 0)
(2.30213e-06 5.71028e-08 0)
(2.26196e-06 6.30944e-08 0)
(2.21783e-06 6.89753e-08 0)
(2.1698e-06 7.47352e-08 0)
(2.11797e-06 8.0364e-08 0)
(2.06242e-06 8.58518e-08 0)
(2.00326e-06 9.11891e-08 0)
(1.94058e-06 9.63663e-08 0)
(1.8745e-06 1.01375e-07 0)
(1.80513e-06 1.06205e-07 0)
(1.7326e-06 1.10849e-07 0)
(1.65702e-06 1.15299e-07 0)
(1.57854e-06 1.19547e-07 0)
(1.4973e-06 1.23585e-07 0)
(1.41342e-06 1.27406e-07 0)
(1.32706e-06 1.31004e-07 0)
(1.23838e-06 1.34372e-07 0)
(1.14753e-06 1.37505e-07 0)
(1.05466e-06 1.40398e-07 0)
(9.59937e-07 1.43045e-07 0)
(8.63531e-07 1.45443e-07 0)
(7.65607e-07 1.47588e-07 0)
(6.66336e-07 1.49478e-07 0)
(5.65887e-07 1.51111e-07 0)
(4.64433e-07 1.52486e-07 0)
(3.62147e-07 1.53605e-07 0)
(2.59197e-07 1.54471e-07 0)
(1.55751e-07 1.55089e-07 0)
(5.19614e-08 1.55467e-07 0)
(-5.21658e-08 2.595e-07 0)
(-1.56366e-07 2.58867e-07 0)
(-2.60228e-07 2.57835e-07 0)
(-3.63588e-07 2.56391e-07 0)
(-4.6628e-07 2.54522e-07 0)
(-5.68135e-07 2.52224e-07 0)
(-6.68982e-07 2.49498e-07 0)
(-7.68648e-07 2.46344e-07 0)
(-8.6696e-07 2.42764e-07 0)
(-9.63749e-07 2.38762e-07 0)
(-1.05884e-06 2.34343e-07 0)
(-1.15208e-06 2.29515e-07 0)
(-1.2433e-06 2.24285e-07 0)
(-1.33233e-06 2.18663e-07 0)
(-1.41903e-06 2.12658e-07 0)
(-1.50324e-06 2.0628e-07 0)
(-1.58481e-06 1.9954e-07 0)
(-1.6636e-06 1.9245e-07 0)
(-1.73948e-06 1.85023e-07 0)
(-1.8123e-06 1.77271e-07 0)
(-1.88194e-06 1.69208e-07 0)
(-1.94829e-06 1.60848e-07 0)
(-2.01121e-06 1.52207e-07 0)
(-2.07061e-06 1.43298e-07 0)
(-2.12638e-06 1.34138e-07 0)
(-2.17841e-06 1.24743e-07 0)
(-2.22663e-06 1.15129e-07 0)
(-2.27094e-06 1.05313e-07 0)
(-2.31127e-06 9.53119e-08 0)
(-2.34754e-06 8.51439e-08 0)
(-2.37969e-06 7.48265e-08 0)
(-2.40767e-06 6.43779e-08 0)
(-2.43143e-06 5.38163e-08 0)
(-2.45093e-06 4.31604e-08 0)
(-2.46612e-06 3.24288e-08 0)
(-2.47699e-06 2.16402e-08 0)
(-2.48351e-06 1.08137e-08 0)
(-2.48568e-06 -3.17859e-11 0)
(-2.48349e-06 -1.08772e-08 0)
(-2.47694e-06 -2.17036e-08 0)
(-2.46604e-06 -3.2492e-08 0)
(-2.45083e-06 -4.32233e-08 0)
(-2.43131e-06 -5.38788e-08 0)
(-2.40753e-06 -6.44399e-08 0)
(-2.37952e-06 -7.4888e-08 0)
(-2.34734e-06 -8.52047e-08 0)
(-2.31104e-06 -9.5372e-08 0)
(-2.27069e-06 -1.05372e-07 0)
(-2.22636e-06 -1.15187e-07 0)
(-2.17812e-06 -1.248e-07 0)
(-2.12606e-06 -1.34194e-07 0)
(-2.07027e-06 -1.43353e-07 0)
(-2.01085e-06 -1.5226e-07 0)
(-1.94791e-06 -1.60901e-07 0)
(-1.88154e-06 -1.69259e-07 0)
(-1.81188e-06 -1.7732e-07 0)
(-1.73904e-06 -1.8507e-07 0)
(-1.66314e-06 -1.92496e-07 0)
(-1.58433e-06 -1.99584e-07 0)
(-1.50274e-06 -2.06322e-07 0)
(-1.41852e-06 -2.12698e-07 0)
(-1.33181e-06 -2.18701e-07 0)
(-1.24276e-06 -2.2432e-07 0)
(-1.15153e-06 -2.29546e-07 0)
(-1.05828e-06 -2.34369e-07 0)
(-9.63172e-07 -2.38781e-07 0)
(-8.66377e-07 -2.42774e-07 0)
(-7.68062e-07 -2.46341e-07 0)
(-6.684e-07 -2.49477e-07 0)
(-5.67565e-07 -2.52174e-07 0)
(-4.65735e-07 -2.5443e-07 0)
(-3.63088e-07 -2.56239e-07 0)
(-2.59804e-07 -2.57598e-07 0)
(-1.56065e-07 -2.58506e-07 0)
(-5.20511e-08 -2.5896e-07 0)
(5.20538e-08 -2.5896e-07 0)
(1.56067e-07 -2.58505e-07 0)
(2.59807e-07 -2.57598e-07 0)
(3.63091e-07 -2.56238e-07 0)
(4.65738e-07 -2.54429e-07 0)
(5.67568e-07 -2.52174e-07 0)
(6.68403e-07 -2.49476e-07 0)
(7.68065e-07 -2.46341e-07 0)
(8.66379e-07 -2.42774e-07 0)
(9.63174e-07 -2.38781e-07 0)
(1.05828e-06 -2.34369e-07 0)
(1.15153e-06 -2.29546e-07 0)
(1.24276e-06 -2.2432e-07 0)
(1.33181e-06 -2.187e-07 0)
(1.41852e-06 -2.12697e-07 0)
(1.50275e-06 -2.06321e-07 0)
(1.58434e-06 -1.99584e-07 0)
(1.66315e-06 -1.92496e-07 0)
(1.73904e-06 -1.8507e-07 0)
(1.81188e-06 -1.7732e-07 0)
(1.88155e-06 -1.69259e-07 0)
(1.94791e-06 -1.60901e-07 0)
(2.01086e-06 -1.5226e-07 0)
(2.07028e-06 -1.43353e-07 0)
(2.12606e-06 -1.34194e-07 0)
(2.17812e-06 -1.248e-07 0)
(2.22636e-06 -1.15187e-07 0)
(2.2707e-06 -1.05372e-07 0)
(2.31105e-06 -9.53715e-08 0)
(2.34734e-06 -8.52042e-08 0)
(2.37952e-06 -7.48876e-08 0)
(2.40753e-06 -6.44395e-08 0)
(2.43131e-06 -5.38785e-08 0)
(2.45083e-06 -4.3223e-08 0)
(2.46605e-06 -3.24917e-08 0)
(2.47694e-06 -2.17034e-08 0)
(2.48349e-06 -1.08771e-08 0)
(2.48568e-06 -3.16576e-11 0)
(2.48351e-06 1.08138e-08 0)
(2.47699e-06 2.16404e-08 0)
(2.46612e-06 3.24289e-08 0)
(2.45093e-06 4.31606e-08 0)
(2.43144e-06 5.38166e-08 0)
(2.40768e-06 6.43782e-08 0)
(2.3797e-06 7.48268e-08 0)
(2.34754e-06 8.51441e-08 0)
(2.31127e-06 9.53121e-08 0)
(2.27094e-06 1.05313e-07 0)
(2.22663e-06 1.15129e-07 0)
(2.17842e-06 1.24743e-07 0)
(2.12638e-06 1.34138e-07 0)
(2.07061e-06 1.43298e-07 0)
(2.01122e-06 1.52207e-07 0)
(1.94829e-06 1.60848e-07 0)
(1.88195e-06 1.69208e-07 0)
(1.8123e-06 1.7727e-07 0)
(1.73948e-06 1.85022e-07 0)
(1.6636e-06 1.92449e-07 0)
(1.58481e-06 1.99539e-07 0)
(1.50324e-06 2.06279e-07 0)
(1.41903e-06 2.12657e-07 0)
(1.33233e-06 2.18663e-07 0)
(1.2433e-06 2.24285e-07 0)
(1.15208e-06 2.29514e-07 0)
(1.05885e-06 2.34342e-07 0)
(9.6375e-07 2.38761e-07 0)
(8.66961e-07 2.42763e-07 0)
(7.68649e-07 2.46344e-07 0)
(6.68983e-07 2.49498e-07 0)
(5.68136e-07 2.52223e-07 0)
(4.66279e-07 2.5452e-07 0)
(3.63586e-07 2.56388e-07 0)
(2.60227e-07 2.57834e-07 0)
(1.56369e-07 2.58867e-07 0)
(5.21681e-08 2.59495e-07 0)
(-5.24565e-08 3.64019e-07 0)
(-1.57234e-07 3.63139e-07 0)
(-2.61672e-07 3.61689e-07 0)
(-3.65609e-07 3.59662e-07 0)
(-4.68874e-07 3.57041e-07 0)
(-5.71296e-07 3.53819e-07 0)
(-6.72704e-07 3.49995e-07 0)
(-7.72924e-07 3.4557e-07 0)
(-8.71783e-07 3.40548e-07 0)
(-9.6911e-07 3.34933e-07 0)
(-1.06473e-06 3.28735e-07 0)
(-1.15849e-06 3.21963e-07 0)
(-1.25021e-06 3.14627e-07 0)
(-1.33974e-06 3.0674e-07 0)
(-1.42692e-06 2.98316e-07 0)
(-1.5116e-06 2.89368e-07 0)
(-1.59363e-06 2.79914e-07 0)
(-1.67286e-06 2.69968e-07 0)
(-1.74915e-06 2.59549e-07 0)
(-1.82238e-06 2.48675e-07 0)
(-1.89241e-06 2.37364e-07 0)
(-1.95912e-06 2.25638e-07 0)
(-2.0224e-06 2.13515e-07 0)
(-2.08213e-06 2.01018e-07 0)
(-2.13821e-06 1.88169e-07 0)
(-2.19053e-06 1.74989e-07 0)
(-2.23901e-06 1.61502e-07 0)
(-2.28357e-06 1.47732e-07 0)
(-2.32412e-06 1.33703e-07 0)
(-2.3606e-06 1.1944e-07 0)
(-2.39293e-06 1.04966e-07 0)
(-2.42107e-06 9.03092e-08 0)
(-2.44496e-06 7.54935e-08 0)
(-2.46456e-06 6.05454e-08 0)
(-2.47984e-06 4.54911e-08 0)
(-2.49077e-06 3.0357e-08 0)
(-2.49733e-06 1.51695e-08 0)
(-2.49951e-06 -4.45079e-11 0)
(-2.4973e-06 -1.52585e-08 0)
(-2.49072e-06 -3.04457e-08 0)
(-2.47976e-06 -4.55796e-08 0)
(-2.46446e-06 -6.06335e-08 0)
(-2.44483e-06 -7.5581e-08 0)
(-2.42092e-06 -9.0396e-08 0)
(-2.39276e-06 -1.05053e-07 0)
(-2.3604e-06 -1.19525e-07 0)
(-2.3239e-06 -1.33787e-07 0)
(-2.28332e-06 -1.47815e-07 0)
(-2.23874e-06 -1.61584e-07 0)
(-2.19024e-06 -1.75069e-07 0)
(-2.13789e-06 -1.88247e-07 0)
(-2.08179e-06 -2.01095e-07 0)
(-2.02204e-06 -2.1359e-07 0)
(-1.95874e-06 -2.25711e-07 0)
(-1.89201e-06 -2.37436e-07 0)
(-1.82196e-06 -2.48744e-07 0)
(-1.74871e-06 -2.59616e-07 0)
(-1.67239e-06 -2.70033e-07 0)
(-1.59315e-06 -2.79976e-07 0)
(-1.5111e-06 -2.89427e-07 0)
(-1.42641e-06 -2.98372e-07 0)
(-1.33921e-06 -3.06792e-07 0)
(-1.24967e-06 -3.14675e-07 0)
(-1.15793e-06 -3.22006e-07 0)
(-1.06416e-06 -3.28772e-07 0)
(-9.6853e-07 -3.34961e-07 0)
(-8.71196e-07 -3.40562e-07 0)
(-7.72335e-07 -3.45567e-07 0)
(-6.72118e-07 -3.49965e-07 0)
(-5.70723e-07 -3.53749e-07 0)
(-4.68326e-07 -3.56913e-07 0)
(-3.65108e-07 -3.5945e-07 0)
(-2.6125e-07 -3.61358e-07 0)
(-1.56933e-07 -3.62631e-07 0)
(-5.23406e-08 -3.63268e-07 0)
(5.23433e-08 -3.63268e-07 0)
(1.56935e-07 -3.62631e-07 0)
(2.61252e-07 -3.61357e-07 0)
(3.65111e-07 -3.5945e-07 0)
(4.68329e-07 -3.56912e-07 0)
(5.70725e-07 -3.53749e-07 0)
(6.72121e-07 -3.49965e-07 0)
(7.72337e-07 -3.45566e-07 0)
(8.71199e-07 -3.40562e-07 0)
(9.68532e-07 -3.34961e-07 0)
(1.06417e-06 -3.28771e-07 0)
(1.15794e-06 -3.22005e-07 0)
(1.24967e-06 -3.14675e-07 0)
(1.33922e-06 -3.06792e-07 0)
(1.42641e-06 -2.98371e-07 0)
(1.51111e-06 -2.89427e-07 0)
(1.59315e-06 -2.79975e-07 0)
(1.6724e-06 -2.70032e-07 0)
(1.74871e-06 -2.59616e-07 0)
(1.82196e-06 -2.48744e-07 0)
(1.89201e-06 -2.37435e-07 0)
(1.95874e-06 -2.25711e-07 0)
(2.02204e-06 -2.1359e-07 0)
(2.08179e-06 -2.01095e-07 0)
(2.13789e-06 -1.88247e-07 0)
(2.19024e-06 -1.75069e-07 0)
(2.23875e-06 -1.61583e-07 0)
(2.28333e-06 -1.47815e-07 0)
(2.3239e-06 -1.33787e-07 0)
(2.3604e-06 -1.19524e-07 0)
(2.39276e-06 -1.05052e-07 0)
(2.42092e-06 -9.03956e-08 0)
(2.44484e-06 -7.55806e-08 0)
(2.46446e-06 -6.0633e-08 0)
(2.47977e-06 -4.55792e-08 0)
(2.49072e-06 -3.04454e-08 0)
(2.4973e-06 -1.52582e-08 0)
(2.49951e-06 -4.42321e-11 0)
(2.49733e-06 1.51698e-08 0)
(2.49077e-06 3.03572e-08 0)
(2.47984e-06 4.54914e-08 0)
(2.46456e-06 6.05457e-08 0)
(2.44496e-06 7.54938e-08 0)
(2.42107e-06 9.03094e-08 0)
(2.39293e-06 1.04967e-07 0)
(2.3606e-06 1.1944e-07 0)
(2.32413e-06 1.33703e-07 0)
(2.28357e-06 1.47732e-07 0)
(2.23902e-06 1.61502e-07 0)
(2.19053e-06 1.74989e-07 0)
(2.13821e-06 1.88168e-07 0)
(2.08213e-06 2.01018e-07 0)
(2.0224e-06 2.13515e-07 0)
(1.95913e-06 2.25638e-07 0)
(1.89241e-06 2.37364e-07 0)
(1.82238e-06 2.48674e-07 0)
(1.74915e-06 2.59549e-07 0)
(1.67286e-06 2.69968e-07 0)
(1.59363e-06 2.79913e-07 0)
(1.5116e-06 2.89368e-07 0)
(1.42693e-06 2.98315e-07 0)
(1.33975e-06 3.06739e-07 0)
(1.25022e-06 3.14626e-07 0)
(1.15849e-06 3.21962e-07 0)
(1.06474e-06 3.28734e-07 0)
(9.69111e-07 3.34933e-07 0)
(8.71784e-07 3.40547e-07 0)
(7.72925e-07 3.4557e-07 0)
(6.72705e-07 3.49994e-07 0)
(5.71296e-07 3.53818e-07 0)
(4.68873e-07 3.57039e-07 0)
(3.65609e-07 3.59661e-07 0)
(2.61674e-07 3.6169e-07 0)
(1.57237e-07 3.63141e-07 0)
(5.24576e-08 3.64018e-07 0)
(-5.28341e-08 4.69208e-07 0)
(-1.58364e-07 4.68079e-07 0)
(-2.6355e-07 4.66208e-07 0)
(-3.68232e-07 4.63592e-07 0)
(-4.7224e-07 4.60213e-07 0)
(-5.75399e-07 4.56061e-07 0)
(-6.77536e-07 4.51132e-07 0)
(-7.78476e-07 4.45428e-07 0)
(-8.78045e-07 4.38954e-07 0)
(-9.7607e-07 4.31717e-07 0)
(-1.07238e-06 4.23728e-07 0)
(-1.16681e-06 4.14999e-07 0)
(-1.25919e-06 4.05543e-07 0)
(-1.34937e-06 3.95377e-07 0)
(-1.43717e-06 3.84519e-07 0)
(-1.52246e-06 3.72986e-07 0)
(-1.60507e-06 3.60799e-07 0)
(-1.68487e-06 3.4798e-07 0)
(-1.76172e-06 3.3455e-07 0)
(-1.83547e-06 3.20534e-07 0)
(-1.906e-06 3.05955e-07 0)
(-1.9732e-06 2.9084e-07 0)
(-2.03693e-06 2.75214e-07 0)
(-2.09708e-06 2.59106e-07 0)
(-2.15356e-06 2.42543e-07 0)
(-2.20626e-06 2.25555e-07 0)
(-2.2551e-06 2.08171e-07 0)
(-2.29997e-06 1.90422e-07 0)
(-2.34081e-06 1.72339e-07 0)
(-2.37755e-06 1.53954e-07 0)
(-2.41012e-06 1.35298e-07 0)
(-2.43846e-06 1.16406e-07 0)
(-2.46252e-06 9.73088e-08 0)
(-2.48226e-06 7.80412e-08 0)
(-2.49765e-06 5.86367e-08 0)
(-2.50866e-06 3.91292e-08 0)
(-2.51526e-06 1.95531e-08 0)
(-2.51746e-06 -5.72889e-11 0)
(-2.51524e-06 -1.96676e-08 0)
(-2.50861e-06 -3.92434e-08 0)
(-2.49757e-06 -5.87504e-08 0)
(-2.48216e-06 -7.81544e-08 0)
(-2.46239e-06 -9.74213e-08 0)
(-2.43831e-06 -1.16517e-07 0)
(-2.40994e-06 -1.35409e-07 0)
(-2.37735e-06 -1.54063e-07 0)
(-2.34059e-06 -1.72447e-07 0)
(-2.29972e-06 -1.90529e-07 0)
(-2.25482e-06 -2.08276e-07 0)
(-2.20597e-06 -2.25658e-07 0)
(-2.15324e-06 -2.42644e-07 0)
(-2.09674e-06 -2.59205e-07 0)
(-2.03656e-06 -2.75311e-07 0)
(-1.97281e-06 -2.90934e-07 0)
(-1.9056e-06 -3.06047e-07 0)
(-1.83504e-06 -3.20623e-07 0)
(-1.76127e-06 -3.34637e-07 0)
(-1.68441e-06 -3.48063e-07 0)
(-1.60459e-06 -3.60879e-07 0)
(-1.52196e-06 -3.73062e-07 0)
(-1.43665e-06 -3.84591e-07 0)
(-1.34883e-06 -3.95445e-07 0)
(-1.25864e-06 -4.05606e-07 0)
(-1.16625e-06 -4.15055e-07 0)
(-1.07181e-06 -4.23776e-07 0)
(-9.75486e-07 -4.31753e-07 0)
(-8.77454e-07 -4.38973e-07 0)
(-7.77882e-07 -4.45424e-07 0)
(-6.76946e-07 -4.51093e-07 0)
(-5.74822e-07 -4.55971e-07 0)
(-4.7169e-07 -4.60049e-07 0)
(-3.6773e-07 -4.63319e-07 0)
(-2.63126e-07 -4.65778e-07 0)
(-1.5806e-07 -4.67419e-07 0)
(-5.27165e-08 -4.6824e-07 0)
(5.27192e-08 -4.6824e-07 0)
(1.58063e-07 -4.67419e-07 0)
(2.63129e-07 -4.65778e-07 0)
(3.67733e-07 -4.63319e-07 0)
(4.71692e-07 -4.60048e-07 0)
(5.74824e-07 -4.5597e-07 0)
(6.76948e-07 -4.51093e-07 0)
(7.77884e-07 -4.45424e-07 0)
(8.77456e-07 -4.38973e-07 0)
(9.75489e-07 -4.31753e-07 0)
(1.07181e-06 -4.23775e-07 0)
(1.16625e-06 -4.15054e-07 0)
(1.25865e-06 -4.05605e-07 0)
(1.34884e-06 -3.95445e-07 0)
(1.43666e-06 -3.84591e-07 0)
(1.52196e-06 -3.73062e-07 0)
(1.60459e-06 -3.60879e-07 0)
(1.68441e-06 -3.48063e-07 0)
(1.76127e-06 -3.34636e-07 0)
(1.83505e-06 -3.20622e-07 0)
(1.9056e-06 -3.06046e-07 0)
(1.97281e-06 -2.90934e-07 0)
(2.03656e-06 -2.7531e-07 0)
(2.09674e-06 -2.59204e-07 0)
(2.15325e-06 -2.42644e-07 0)
(2.20597e-06 -2.25657e-07 0)
(2.25483e-06 -2.08275e-07 0)
(2.29973e-06 -1.90528e-07 0)
(2.34059e-06 -1.72447e-07 0)
(2.37735e-06 -1.54063e-07 0)
(2.40994e-06 -1.35409e-07 0)
(2.43831e-06 -1.16517e-07 0)
(2.46239e-06 -9.74208e-08 0)
(2.48216e-06 -7.8154e-08 0)
(2.49758e-06 -5.875e-08 0)
(2.50861e-06 -3.9243e-08 0)
(2.51524e-06 -1.96671e-08 0)
(2.51746e-06 -5.68042e-11 0)
(2.51527e-06 1.95536e-08 0)
(2.50866e-06 3.91296e-08 0)
(2.49765e-06 5.86369e-08 0)
(2.48226e-06 7.80414e-08 0)
(2.46252e-06 9.73089e-08 0)
(2.43846e-06 1.16406e-07 0)
(2.41012e-06 1.35298e-07 0)
(2.37755e-06 1.53954e-07 0)
(2.34082e-06 1.72339e-07 0)
(2.29998e-06 1.90422e-07 0)
(2.2551e-06 2.08171e-07 0)
(2.20627e-06 2.25555e-07 0)
(2.15356e-06 2.42543e-07 0)
(2.09709e-06 2.59106e-07 0)
(2.03693e-06 2.75214e-07 0)
(1.9732e-06 2.90839e-07 0)
(1.90601e-06 3.05954e-07 0)
(1.83547e-06 3.20533e-07 0)
(1.76172e-06 3.3455e-07 0)
(1.68487e-06 3.47979e-07 0)
(1.60507e-06 3.60799e-07 0)
(1.52246e-06 3.72985e-07 0)
(1.43717e-06 3.84518e-07 0)
(1.34937e-06 3.95376e-07 0)
(1.25919e-06 4.05542e-07 0)
(1.16681e-06 4.14998e-07 0)
(1.07238e-06 4.23727e-07 0)
(9.76071e-07 4.31717e-07 0)
(8.78045e-07 4.38953e-07 0)
(7.78476e-07 4.45427e-07 0)
(6.77536e-07 4.51131e-07 0)
(5.75399e-07 4.56059e-07 0)
(4.7224e-07 4.60212e-07 0)
(3.68233e-07 4.63592e-07 0)
(2.63552e-07 4.66209e-07 0)
(1.58365e-07 4.68078e-07 0)
(5.2834e-08 4.69206e-07 0)
(-5.32997e-08 5.75235e-07 0)
(-1.5976e-07 5.73855e-07 0)
(-2.65873e-07 5.71563e-07 0)
(-3.71476e-07 5.68354e-07 0)
(-4.764e-07 5.6421e-07 0)
(-5.80469e-07 5.59119e-07 0)
(-6.83506e-07 5.53077e-07 0)
(-7.85335e-07 5.46084e-07 0)
(-8.85782e-07 5.38147e-07 0)
(-9.84671e-07 5.29275e-07 0)
(-1.08183e-06 5.1948e-07 0)
(-1.17709e-06 5.08778e-07 0)
(-1.27029e-06 4.97186e-07 0)
(-1.36126e-06 4.84723e-07 0)
(-1.44984e-06 4.71411e-07 0)
(-1.53587e-06 4.57272e-07 0)
(-1.61922e-06 4.42331e-07 0)
(-1.69972e-06 4.26615e-07 0)
(-1.77724e-06 4.10151e-07 0)
(-1.85164e-06 3.92967e-07 0)
(-1.9228e-06 3.75094e-07 0)
(-1.99058e-06 3.56562e-07 0)
(-2.05487e-06 3.37406e-07 0)
(-2.11556e-06 3.17658e-07 0)
(-2.17254e-06 2.97352e-07 0)
(-2.22571e-06 2.76525e-07 0)
(-2.27497e-06 2.55213e-07 0)
(-2.32024e-06 2.33453e-07 0)
(-2.36144e-06 2.11284e-07 0)
(-2.3985e-06 1.88744e-07 0)
(-2.43136e-06 1.65873e-07 0)
(-2.45994e-06 1.42711e-07 0)
(-2.48422e-06 1.19298e-07 0)
(-2.50413e-06 9.56768e-08 0)
(-2.51966e-06 7.18872e-08 0)
(-2.53076e-06 4.79716e-08 0)
(-2.53743e-06 2.39717e-08 0)
(-2.53964e-06 -7.0158e-11 0)
(-2.5374e-06 -2.41119e-08 0)
(-2.53071e-06 -4.81114e-08 0)
(-2.51958e-06 -7.20265e-08 0)
(-2.50403e-06 -9.58154e-08 0)
(-2.48409e-06 -1.19436e-07 0)
(-2.45979e-06 -1.42847e-07 0)
(-2.43118e-06 -1.66008e-07 0)
(-2.3983e-06 -1.88878e-07 0)
(-2.36122e-06 -2.11416e-07 0)
(-2.31999e-06 -2.33584e-07 0)
(-2.27469e-06 -2.55342e-07 0)
(-2.22541e-06 -2.76652e-07 0)
(-2.17222e-06 -2.97476e-07 0)
(-2.11522e-06 -3.17779e-07 0)
(-2.05451e-06 -3.37525e-07 0)
(-1.9902e-06 -3.56679e-07 0)
(-1.92239e-06 -3.75206e-07 0)
(-1.85121e-06 -3.93076e-07 0)
(-1.77679e-06 -4.10257e-07 0)
(-1.69925e-06 -4.26717e-07 0)
(-1.61873e-06 -4.42429e-07 0)
(-1.53537e-06 -4.57366e-07 0)
(-1.44931e-06 -4.71499e-07 0)
(-1.36072e-06 -4.84806e-07 0)
(-1.26974e-06 -4.97263e-07 0)
(-1.17653e-06 -5.08847e-07 0)
(-1.08125e-06 -5.19539e-07 0)
(-9.84082e-07 -5.29319e-07 0)
(-8.85186e-07 -5.38171e-07 0)
(-7.84737e-07 -5.46079e-07 0)
(-6.82911e-07 -5.53029e-07 0)
(-5.79887e-07 -5.59009e-07 0)
(-4.75847e-07 -5.64009e-07 0)
(-3.70971e-07 -5.68019e-07 0)
(-2.65445e-07 -5.71033e-07 0)
(-1.59453e-07 -5.73045e-07 0)
(-5.31812e-08 -5.74052e-07 0)
(5.31838e-08 -5.74052e-07 0)
(1.59455e-07 -5.73045e-07 0)
(2.65447e-07 -5.71033e-07 0)
(3.70974e-07 -5.68019e-07 0)
(4.75849e-07 -5.64009e-07 0)
(5.7989e-07 -5.59009e-07 0)
(6.82913e-07 -5.53029e-07 0)
(7.84739e-07 -5.46079e-07 0)
(8.85189e-07 -5.38171e-07 0)
(9.84085e-07 -5.29319e-07 0)
(1.08126e-06 -5.19538e-07 0)
(1.17653e-06 -5.08847e-07 0)
(1.26974e-06 -4.97263e-07 0)
(1.36072e-06 -4.84806e-07 0)
(1.44932e-06 -4.71499e-07 0)
(1.53537e-06 -4.57365e-07 0)
(1.61873e-06 -4.42429e-07 0)
(1.69925e-06 -4.26717e-07 0)
(1.77679e-06 -4.10256e-07 0)
(1.85122e-06 -3.93075e-07 0)
(1.92239e-06 -3.75206e-07 0)
(1.9902e-06 -3.56678e-07 0)
(2.05451e-06 -3.37524e-07 0)
(2.11522e-06 -3.17778e-07 0)
(2.17222e-06 -2.97475e-07 0)
(2.22541e-06 -2.76651e-07 0)
(2.2747e-06 -2.55341e-07 0)
(2.31999e-06 -2.33583e-07 0)
(2.36122e-06 -2.11416e-07 0)
(2.3983e-06 -1.88877e-07 0)
(2.43118e-06 -1.66008e-07 0)
(2.45979e-06 -1.42847e-07 0)
(2.48409e-06 -1.19436e-07 0)
(2.50403e-06 -9.58149e-08 0)
(2.51958e-06 -7.2026e-08 0)
(2.53071e-06 -4.81108e-08 0)
(2.5374e-06 -2.41113e-08 0)
(2.53964e-06 -6.95448e-11 0)
(2.53743e-06 2.39723e-08 0)
(2.53076e-06 4.7972e-08 0)
(2.51966e-06 7.18875e-08 0)
(2.50414e-06 9.56769e-08 0)
(2.48422e-06 1.19299e-07 0)
(2.45995e-06 1.42711e-07 0)
(2.43136e-06 1.65873e-07 0)
(2.3985e-06 1.88744e-07 0)
(2.36144e-06 2.11283e-07 0)
(2.32024e-06 2.33453e-07 0)
(2.27497e-06 2.55213e-07 0)
(2.22571e-06 2.76525e-07 0)
(2.17254e-06 2.97352e-07 0)
(2.11556e-06 3.17657e-07 0)
(2.05488e-06 3.37406e-07 0)
(1.99058e-06 3.56562e-07 0)
(1.9228e-06 3.75093e-07 0)
(1.85164e-06 3.92966e-07 0)
(1.77724e-06 4.1015e-07 0)
(1.69972e-06 4.26614e-07 0)
(1.61922e-06 4.42331e-07 0)
(1.53587e-06 4.57271e-07 0)
(1.44984e-06 4.7141e-07 0)
(1.36126e-06 4.84722e-07 0)
(1.27029e-06 4.97185e-07 0)
(1.17709e-06 5.08778e-07 0)
(1.08183e-06 5.1948e-07 0)
(9.84672e-07 5.29274e-07 0)
(8.85782e-07 5.38146e-07 0)
(7.85336e-07 5.46083e-07 0)
(6.83506e-07 5.53076e-07 0)
(5.80469e-07 5.59118e-07 0)
(4.76401e-07 5.6421e-07 0)
(3.71477e-07 5.68354e-07 0)
(2.65873e-07 5.71562e-07 0)
(1.5976e-07 5.73853e-07 0)
(5.32994e-08 5.75234e-07 0)
(-5.38554e-08 6.82282e-07 0)
(-1.61427e-07 6.80647e-07 0)
(-2.68648e-07 6.77931e-07 0)
(-3.75354e-07 6.74125e-07 0)
(-4.81372e-07 6.69209e-07 0)
(-5.86527e-07 6.6317e-07 0)
(-6.9064e-07 6.56003e-07 0)
(-7.93533e-07 6.47709e-07 0)
(-8.95028e-07 6.38295e-07 0)
(-9.9495e-07 6.27772e-07 0)
(-1.09312e-06 6.16154e-07 0)
(-1.18938e-06 6.0346e-07 0)
(-1.28355e-06 5.89711e-07 0)
(-1.37547e-06 5.74929e-07 0)
(-1.46497e-06 5.59139e-07 0)
(-1.5519e-06 5.42369e-07 0)
(-1.63612e-06 5.24648e-07 0)
(-1.71746e-06 5.06007e-07 0)
(-1.79579e-06 4.86479e-07 0)
(-1.87097e-06 4.66097e-07 0)
(-1.94287e-06 4.44898e-07 0)
(-2.01136e-06 4.22918e-07 0)
(-2.07632e-06 4.00196e-07 0)
(-2.13765e-06 3.76773e-07 0)
(-2.19522e-06 3.52689e-07 0)
(-2.24894e-06 3.27986e-07 0)
(-2.29871e-06 3.02707e-07 0)
(-2.34446e-06 2.76898e-07 0)
(-2.38609e-06 2.50603e-07 0)
(-2.42354e-06 2.23869e-07 0)
(-2.45673e-06 1.96741e-07 0)
(-2.48562e-06 1.69269e-07 0)
(-2.51015e-06 1.415e-07 0)
(-2.53027e-06 1.13482e-07 0)
(-2.54596e-06 8.52653e-08 0)
(-2.55718e-06 5.6899e-08 0)
(-2.56391e-06 2.84329e-08 0)
(-2.56615e-06 -8.31036e-11 0)
(-2.56389e-06 -2.8599e-08 0)
(-2.55713e-06 -5.70647e-08 0)
(-2.54588e-06 -8.54304e-08 0)
(-2.53017e-06 -1.13646e-07 0)
(-2.51002e-06 -1.41663e-07 0)
(-2.48547e-06 -1.69431e-07 0)
(-2.45656e-06 -1.96902e-07 0)
(-2.42334e-06 -2.24027e-07 0)
(-2.38586e-06 -2.5076e-07 0)
(-2.34421e-06 -2.77053e-07 0)
(-2.29844e-06 -3.0286e-07 0)
(-2.24864e-06 -3.28136e-07 0)
(-2.19489e-06 -3.52836e-07 0)
(-2.1373e-06 -3.76917e-07 0)
(-2.07596e-06 -4.00337e-07 0)
(-2.01097e-06 -4.23055e-07 0)
(-1.94246e-06 -4.45031e-07 0)
(-1.87054e-06 -4.66227e-07 0)
(-1.79534e-06 -4.86604e-07 0)
(-1.71699e-06 -5.06128e-07 0)
(-1.63563e-06 -5.24764e-07 0)
(-1.5514e-06 -5.4248e-07 0)
(-1.46444e-06 -5.59244e-07 0)
(-1.37492e-06 -5.75028e-07 0)
(-1.28299e-06 -5.89802e-07 0)
(-1.18881e-06 -6.03542e-07 0)
(-1.09254e-06 -6.16224e-07 0)
(-9.94355e-07 -6.27824e-07 0)
(-8.94426e-07 -6.38324e-07 0)
(-7.92929e-07 -6.47703e-07 0)
(-6.9004e-07 -6.55947e-07 0)
(-5.85941e-07 -6.63039e-07 0)
(-4.80814e-07 -6.68969e-07 0)
(-3.74844e-07 -6.73726e-07 0)
(-2.68216e-07 -6.773e-07 0)
(-1.61117e-07 -6.79687e-07 0)
(-5.37364e-08 -6.80881e-07 0)
(5.37389e-08 -6.80881e-07 0)
(1.6112e-07 -6.79687e-07 0)
(2.68218e-07 -6.773e-07 0)
(3.74846e-07 -6.73726e-07 0)
(4.80816e-07 -6.68969e-07 0)
(5.85943e-07 -6.6304e-07 0)
(6.90042e-07 -6.55947e-07 0)
(7.92931e-07 -6.47703e-07 0)
(8.94429e-07 -6.38323e-07 0)
(9.94358e-07 -6.27824e-07 0)
(1.09254e-06 -6.16224e-07 0)
(1.18881e-06 -6.03542e-07 0)
(1.28299e-06 -5.89802e-07 0)
(1.37493e-06 -5.75028e-07 0)
(1.46445e-06 -5.59244e-07 0)
(1.5514e-06 -5.4248e-07 0)
(1.63563e-06 -5.24764e-07 0)
(1.71699e-06 -5.06128e-07 0)
(1.79534e-06 -4.86604e-07 0)
(1.87054e-06 -4.66226e-07 0)
(1.94246e-06 -4.45031e-07 0)
(2.01097e-06 -4.23055e-07 0)
(2.07596e-06 -4.00336e-07 0)
(2.1373e-06 -3.76916e-07 0)
(2.1949e-06 -3.52835e-07 0)
(2.24864e-06 -3.28135e-07 0)
(2.29844e-06 -3.02859e-07 0)
(2.34421e-06 -2.77052e-07 0)
(2.38587e-06 -2.5076e-07 0)
(2.42334e-06 -2.24027e-07 0)
(2.45656e-06 -1.96901e-07 0)
(2.48547e-06 -1.6943e-07 0)
(2.51002e-06 -1.41662e-07 0)
(2.53017e-06 -1.13646e-07 0)