/*--------------------------------*- C++ -*----------------------------------*\
| =========                 |                                                 |
| \\      /  F ield         | OpenFOAM: The Open Source CFD Toolbox           |
|  \\    /   O peration     | Version:  2306                                  |
|   \\  /    A nd           | Website:  www.openfoam.com                      |
|    \\/     M anipulation  |                                                 |
\*---------------------------------------------------------------------------*/
FoamFile
{
    version     2.0;
    format      ascii;
    arch        "LSB;label=32;scalar=64";
    class       surfaceScalarField;
    location    "0.14";
    object      phi_0;
}
// * * * * * * * * * * * * * * * * * * * * * * * * * * * * * * * * * * * * * //

dimensions      [0 3 -1 0 0 0 0];

oriented        oriented;

internalField   nonuniform List<scalar> 
12640
(
-4.968416e-06
-8.4273573e-06
-4.794873e-06
-8.3077341e-06
-4.6293132e-06
-8.1917261e-06
-4.4712602e-06
-8.0792481e-06
-4.32027e-06
-7.9702154e-06
-4.1759285e-06
-7.8645435e-06
-4.0378494e-06
-7.7621491e-06
-3.9056717e-06
-7.6629499e-06
-3.7790581e-06
-7.5668655e-06
-3.6576933e-06
-7.473817e-06
-3.5412817e-06
-7.3837275e-06
-3.429547e-06
-7.2965224e-06
-3.3222296e-06
-7.2121292e-06
-3.2190866e-06
-7.1304775e-06
-3.1198896e-06
-7.0514994e-06
-3.0244242e-06
-6.9751293e-06
-2.932489e-06
-6.9013041e-06
-2.8438943e-06
-6.8299628e-06
-2.758462e-06
-6.7610469e-06
-2.676024e-06
-6.6945002e-06
-2.596422e-06
-6.6302689e-06
-2.519507e-06
-6.5683012e-06
-2.4451381e-06
-6.5085478e-06
-2.3731825e-06
-6.4509615e-06
-2.3035145e-06
-6.395497e-06
-2.2360156e-06
-6.3421114e-06
-2.1705736e-06
-6.2907636e-06
-2.1070822e-06
-6.2414145e-06
-2.0454409e-06
-6.1940271e-06
-1.9855543e-06
-6.1485661e-06
-1.9273322e-06
-6.1049979e-06
-1.8706888e-06
-6.0632909e-06
-1.8155427e-06
-6.0234152e-06
-1.7618166e-06
-5.9853423e-06
-1.7094371e-06
-5.9490456e-06
-1.6583342e-06
-5.9144998e-06
-1.6084414e-06
-5.8816813e-06
-1.5596953e-06
-5.850568e-06
-1.5120355e-06
-5.821139e-06
-1.4654043e-06
-5.793375e-06
-1.4197468e-06
-5.7672579e-06
-1.3750102e-06
-5.7427709e-06
-1.3311444e-06
-5.7198985e-06
-1.2881013e-06
-5.6986264e-06
-1.2458348e-06
-5.6789415e-06
-1.2043007e-06
-5.6608318e-06
-1.1634567e-06
-5.6442863e-06
-1.1232622e-06
-5.6292953e-06
-1.083678e-06
-5.6158498e-06
-1.0446668e-06
-5.603942e-06
-1.0061923e-06
-5.593565e-06
-9.6822001e-07
-5.5847129e-06
-9.3071638e-07
-5.5773806e-06
-8.9364937e-07
-5.5715638e-06
-8.5698802e-07
-5.5672592e-06
-8.2070264e-07
-5.5644643e-06
-7.8476455e-07
-5.5631775e-06
-7.4914626e-07
-5.5633981e-06
-7.1382133e-07
-5.5651263e-06
-6.7876427e-07
-5.568363e-06
-6.4395059e-07
-5.5731105e-06
-6.0935675e-07
-5.5793718e-06
-5.7495998e-07
-5.5871512e-06
-5.4073835e-07
-5.596454e-06
-5.0667052e-07
-5.6072871e-06
-4.7273578e-07
-5.6196585e-06
-4.3891386e-07
-5.6335776e-06
-4.0518467e-07
-5.6490555e-06
-3.7152831e-07
-5.6661046e-06
-3.3792483e-07
-5.6847392e-06
-3.043539e-07
-5.704975e-06
-2.7079481e-07
-5.7268292e-06
-2.3722626e-07
-5.7503207e-06
-2.0362596e-07
-5.7754693e-06
-1.6997086e-07
-5.8022961e-06
-1.3623673e-07
-5.8308216e-06
-1.0239841e-07
-5.8610618e-06
-6.8429983e-08
-5.8930164e-06
-3.4305569e-08
-5.9266406e-06
-5.9618599e-06
-4.745132e-06
-8.6028711e-06
-4.5779153e-06
-8.4749509e-06
-4.4184884e-06
-8.351153e-06
-4.2663797e-06
-8.2313568e-06
-4.1211504e-06
-8.1154447e-06
-3.9823919e-06
-8.0033021e-06
-3.8497231e-06
-7.8948179e-06
-3.7227888e-06
-7.7898842e-06
-3.6012572e-06
-7.688397e-06
-3.4848185e-06
-7.5902557e-06
-3.3731829e-06
-7.4953631e-06
-3.2660792e-06
-7.4036261e-06
-3.1632535e-06
-7.3149548e-06
-3.064468e-06
-7.229263e-06
-2.9694994e-06
-7.146468e-06
-2.8781384e-06
-7.0664903e-06
-2.7901884e-06
-6.9892541e-06
-2.7054647e-06
-6.9146865e-06
-2.6237934e-06
-6.8427181e-06
-2.5450111e-06
-6.7732825e-06
-2.468964e-06
-6.706316e-06
-2.3955069e-06
-6.6417583e-06
-2.324503e-06
-6.5795516e-06
-2.2558236e-06
-6.5196409e-06
-2.1893466e-06
-6.4619739e-06
-2.1249571e-06
-6.4065008e-06
-2.0625465e-06
-6.3531742e-06
-2.0020117e-06
-6.3019493e-06
-1.9432555e-06
-6.2527833e-06
-1.8861857e-06
-6.2056358e-06
-1.830715e-06
-6.1604686e-06
-1.7767606e-06
-6.1172454e-06
-1.7242438e-06
-6.075932e-06
-1.6730899e-06
-6.0364962e-06
-1.6232283e-06
-5.9989073e-06
-1.5745912e-06
-5.9631368e-06
-1.5271147e-06
-5.9291579e-06
-1.4807376e-06
-5.8969451e-06
-1.4354018e-06
-5.8664749e-06
-1.3910516e-06
-5.8377251e-06
-1.3476342e-06
-5.8106752e-06
-1.305099e-06
-5.7853061e-06
-1.2633976e-06
-5.7615999e-06
-1.2224837e-06
-5.7395403e-06
-1.182313e-06
-5.7191122e-06
-1.142843e-06
-5.7003017e-06
-1.1040331e-06
-5.6830962e-06
-1.0658441e-06
-5.6674842e-06
-1.0282386e-06
-5.6534553e-06
-9.9118043e-07
-5.6410002e-06
-9.5463493e-07
-5.6301105e-06
-9.1856879e-07
-5.6207791e-06
-8.8294989e-07
-5.6129995e-06
-8.477474e-07
-5.6067663e-06
-8.129317e-07
-5.6020749e-06
-7.7847422e-07
-5.5989218e-06
-7.4434765e-07
-5.5973041e-06
-7.1052567e-07
-5.5972201e-06
-6.7698315e-07
-5.5986688e-06
-6.4369586e-07
-5.6016503e-06
-6.1064073e-07
-5.6061656e-06
-5.7779555e-07
-5.612217e-06
-5.4513902e-07
-5.6198077e-06
-5.1265073e-07
-5.6289423e-06
-4.8031098e-07
-5.6396269e-06
-4.4810062e-07
-5.6518688e-06
-4.1600112e-07
-5.6656771e-06
-3.8399408e-07
-5.6810625e-06
-3.5206143e-07
-5.6980373e-06
-3.2018483e-07
-5.7166159e-06
-2.8834574e-07
-5.7368141e-06
-2.5652505e-07
-5.75865e-06
-2.2470279e-07
-5.7821429e-06
-1.928581e-07
-5.807314e-06
-1.6096885e-07
-5.8341854e-06
-1.2901165e-07
-5.8627788e-06
-9.6961875e-08
-5.8931115e-06
-6.4793807e-08
-5.9251845e-06
-3.2481644e-08
-5.9589528e-06
-5.9943415e-06
-4.5114013e-06
-8.7711781e-06
-4.3511447e-06
-8.6352075e-06
-4.1984398e-06
-8.5038579e-06
-4.0528233e-06
-8.3769732e-06
-3.9138651e-06
-8.254403e-06
-3.7811646e-06
-8.1360025e-06
-3.6543493e-06
-8.0216332e-06
-3.5330719e-06
-7.9111616e-06
-3.4170086e-06
-7.8044604e-06
-3.305857e-06
-7.7014072e-06
-3.1993349e-06
-7.6018853e-06
-3.0971782e-06
-7.5057828e-06
-2.9991401e-06
-7.4129929e-06
-2.9049894e-06
-7.3234138e-06
-2.8145094e-06
-7.236948e-06
-2.727497e-06
-7.1535027e-06
-2.6437616e-06
-7.0729894e-06
-2.5631243e-06
-6.9953239e-06
-2.4854168e-06
-6.9204256e-06
-2.4104811e-06
-6.8482182e-06
-2.3381682e-06
-6.7786289e-06
-2.2683383e-06
-6.7115883e-06
-2.2008591e-06
-6.6470308e-06
-2.1356063e-06
-6.5848938e-06
-2.0724623e-06
-6.5251179e-06
-2.0113165e-06
-6.4676467e-06
-1.9520639e-06
-6.4124268e-06
-1.8946057e-06
-6.3594075e-06
-1.8388481e-06
-6.3085409e-06
-1.7847025e-06
-6.2597814e-06
-1.732085e-06
-6.2130861e-06
-1.6809159e-06
-6.1684145e-06
-1.6311197e-06
-6.1257281e-06
-1.582625e-06
-6.0849909e-06
-1.5353635e-06
-6.0461688e-06
-1.4892706e-06
-6.0092298e-06
-1.4442848e-06
-5.9741437e-06
-1.4003475e-06
-5.9408823e-06
-1.3574031e-06
-5.9094193e-06
-1.3153983e-06
-5.8797299e-06
-1.2742824e-06
-5.8517912e-06
-1.2340069e-06
-5.8255816e-06
-1.1945256e-06
-5.8010812e-06
-1.1557941e-06
-5.7782718e-06
-1.1177702e-06
-5.7571362e-06
-1.0804131e-06
-5.7376588e-06
-1.0436839e-06
-5.7198254e-06
-1.0075452e-06
-5.7036229e-06
-9.7196115e-07
-5.6890394e-06
-9.3689711e-07
-5.6760642e-06
-9.0231992e-07
-5.6646877e-06
-8.6819768e-07
-5.6549013e-06
-8.3449969e-07
-5.6466975e-06
-8.0119643e-07
-5.6400695e-06
-7.6825957e-07
-5.6350117e-06
-7.3566187e-07
-5.6315195e-06
-7.0337726e-07
-5.6295887e-06
-6.7138075e-07
-5.6292166e-06
-6.3964851e-07
-5.6304011e-06
-6.0815767e-07
-5.6331411e-06
-5.7688653e-07
-5.6374368e-06
-5.4581438e-07
-5.6432891e-06
-5.1492147e-07
-5.6507006e-06
-4.84189e-07
-5.6596748e-06
-4.5359894e-07
-5.6702169e-06
-4.2313403e-07
-5.6823337e-06
-3.9277747e-07
-5.6960337e-06
-3.6251295e-07
-5.711327e-06
-3.3232418e-07
-5.7282261e-06
-3.0219492e-07
-5.7467451e-06
-2.721085e-07
-5.7669005e-06
-2.4204763e-07
-5.7887109e-06
-2.1199398e-07
-5.8121965e-06
-1.8192814e-07
-5.8373799e-06
-1.5182915e-07
-5.8642844e-06
-1.2167447e-07
-5.8929334e-06
-9.1439929e-08
-5.9233461e-06
-6.1100003e-08
-5.9555244e-06
-3.0628597e-08
-5.9894242e-06
-6.0249701e-06
-4.2675582e-06
-8.9316082e-06
-4.1148832e-06
-8.7878825e-06
-3.969477e-06
-8.6492641e-06
-3.8308886e-06
-8.5155615e-06
-3.6986997e-06
-8.3865919e-06
-3.5725211e-06
-8.2621811e-06
-3.4519913e-06
-8.142163e-06
-3.3367736e-06
-8.0263794e-06
-3.2265541e-06
-7.9146798e-06
-3.1210405e-06
-7.8069208e-06
-3.0199597e-06
-7.7029661e-06
-2.9230567e-06
-7.6026858e-06
-2.8300932e-06
-7.5059565e-06
-2.740846e-06
-7.4126609e-06
-2.6551065e-06
-7.3226875e-06
-2.572679e-06
-7.2359303e-06
-2.4933799e-06
-7.1522885e-06
-2.4170372e-06
-7.0716666e-06
-2.3434892e-06
-6.9939736e-06
-2.2725841e-06
-6.9191234e-06
-2.2041788e-06
-6.8470341e-06
-2.138139e-06
-6.7776281e-06
-2.0743381e-06
-6.7108317e-06
-2.0126569e-06
-6.6465751e-06
-1.9529827e-06
-6.584792e-06
-1.8952094e-06
-6.5254199e-06
-1.8392369e-06
-6.4683993e-06
-1.7849704e-06
-6.4136741e-06
-1.7323203e-06
-6.3611909e-06
-1.681202e-06
-6.3108997e-06
-1.6315352e-06
-6.2627529e-06
-1.583244e-06
-6.2167057e-06
-1.5362562e-06
-6.1727159e-06
-1.4905037e-06
-6.1307435e-06
-1.4459213e-06
-6.0907511e-06
-1.4024476e-06
-6.0527035e-06
-1.3600238e-06
-6.0165674e-06
-1.3185942e-06
-5.9823119e-06
-1.2781057e-06
-5.9499078e-06
-1.2385076e-06
-5.919328e-06
-1.1997517e-06
-5.8905471e-06
-1.1617919e-06
-5.8635414e-06
-1.124584e-06
-5.8382891e-06
-1.088086e-06
-5.8147698e-06
-1.0522575e-06
-5.7929647e-06
-1.0170599e-06
-5.7728565e-06
-9.8245604e-07
-5.7544293e-06
-9.4841035e-07
-5.7376686e-06
-9.1488861e-07
-5.7225611e-06
-8.8185794e-07
-5.7090949e-06
-8.4928669e-07
-5.697259e-06
-8.1714442e-07
-5.6870436e-06
-7.8540189e-07
-5.67844e-06
-7.5403095e-07
-5.6714404e-06
-7.2300463e-07
-5.6660381e-06
-6.9229702e-07
-5.6622271e-06
-6.6188333e-07
-5.6600024e-06
-6.3173991e-07
-5.65936e-06
-6.0184423e-07
-5.6602968e-06
-5.7217488e-07
-5.6628105e-06
-5.4271157e-07
-5.6669001e-06
-5.1343513e-07
-5.6725656e-06
-4.8432743e-07
-5.6798083e-06
-4.5537135e-07
-5.6886308e-06
-4.2655076e-07
-5.6990375e-06
-3.9785033e-07
-5.7110342e-06
-3.6925531e-07
-5.7246287e-06
-3.4075153e-07
-5.7398308e-06
-3.1232494e-07
-5.7566526e-06
-2.839615e-07
-5.7751086e-06
-2.5564671e-07
-5.7952153e-06
-2.2736542e-07
-5.8169922e-06
-1.9910125e-07
-5.8404607e-06
-1.7083639e-07
-5.8656447e-06
-1.4255125e-07
-5.8925695e-06
-1.1422419e-07
-5.9212605e-06
-8.5831509e-08
-5.9517388e-06
-5.7347556e-08
-5.9840084e-06
-2.8745896e-08
-6.0180259e-06
-6.053716e-06
-4.0139943e-06
-9.0835091e-06
-3.869505e-06
-8.9323719e-06
-3.7319576e-06
-8.7868115e-06
-3.6009173e-06
-8.6466019e-06
-3.4759805e-06
-8.5115287e-06
-3.3567729e-06
-8.3813887e-06
-3.2429464e-06
-8.2559894e-06
-3.1341775e-06
-8.1351483e-06
-3.0301649e-06
-8.0186925e-06
-2.9306278e-06
-7.906458e-06
-2.8353044e-06
-7.7982894e-06
-2.7439505e-06
-7.6940397e-06
-2.6563377e-06
-7.5935693e-06
-2.5722527e-06
-7.4967459e-06
-2.4914958e-06
-7.4034444e-06
-2.4138801e-06
-7.313546e-06
-2.3392303e-06
-7.2269383e-06
-2.2673821e-06
-7.1435147e-06
-2.1981813e-06
-7.0631744e-06
-2.1314831e-06
-6.9858216e-06
-2.0671513e-06
-6.9113659e-06
-2.005058e-06
-6.8397215e-06
-1.9450825e-06
-6.7708072e-06
-1.8871113e-06
-6.7045462e-06
-1.8310375e-06
-6.6408658e-06
-1.7767602e-06
-6.5796973e-06
-1.7241841e-06
-6.5209754e-06
-1.6732193e-06
-6.4646389e-06
-1.6237807e-06
-6.4106295e-06
-1.5757881e-06
-6.3588924e-06
-1.5291651e-06
-6.3093758e-06
-1.4838399e-06
-6.262031e-06
-1.4397441e-06
-6.2168117e-06
-1.396813e-06
-6.1736747e-06
-1.354985e-06
-6.1325791e-06
-1.3142018e-06
-6.0934867e-06
-1.2744079e-06
-6.0563614e-06
-1.2355504e-06
-6.0211694e-06
-1.1975792e-06
-5.987879e-06
-1.1604464e-06
-5.9564609e-06
-1.1241062e-06
-5.9268873e-06
-1.0885151e-06
-5.8991326e-06
-1.0536313e-06
-5.8731728e-06
-1.0194152e-06
-5.8489859e-06
-9.8582846e-07
-5.8265514e-06
-9.5283457e-07
-5.8058503e-06
-9.2039843e-07
-5.7868654e-06
-8.8848635e-07
-5.7695806e-06
-8.5706591e-07
-5.7539816e-06
-8.2610592e-07
-5.7400549e-06
-7.955764e-07
-5.7277885e-06
-7.6544844e-07
-5.7171715e-06
-7.3569429e-07
-5.7081942e-06
-7.0628716e-07
-5.7008475e-06
-6.772015e-07
-5.6951238e-06
-6.484127e-07
-5.6910159e-06
-6.1989728e-07
-5.6885178e-06
-5.91633e-07
-5.6876243e-06
-5.6359861e-07
-5.6883312e-06
-5.3577412e-07
-5.690635e-06
-5.0814075e-07
-5.6945335e-06
-4.8068087e-07
-5.7000255e-06
-4.5337807e-07
-5.7071111e-06
-4.2621703e-07
-5.7157919e-06
-3.991836e-07
-5.7260709e-06
-3.7226452e-07
-5.7379532e-06
-3.4544739e-07
-5.7514458e-06
-3.1872036e-07
-5.7665578e-06
-2.9207191e-07
-5.7833011e-06
-2.6549055e-07
-5.8016899e-06
-2.3896428e-07
-5.8217416e-06
-2.1248043e-07
-5.843476e-06
-1.8602492e-07
-5.8669162e-06
-1.5958189e-07
-5.8920878e-06
-1.3313329e-07
-5.9190181e-06
-1.0665856e-07
-5.9477353e-06
-8.0134286e-08
-5.978263e-06
-5.3534722e-08
-6.0106079e-06
-2.6832529e-08
-6.0447281e-06
-6.0805485e-06
-3.7511572e-06
-9.2262519e-06
-3.6154356e-06
-9.0680935e-06
-3.4862863e-06
-8.9159608e-06
-3.3632938e-06
-8.7695943e-06
-3.2460733e-06
-8.6287492e-06
-3.1342677e-06
-8.4931943e-06
-3.0275455e-06
-8.3627117e-06
-2.9255985e-06
-8.2370953e-06
-2.8281401e-06
-8.1161508e-06
-2.7349035e-06
-7.9996946e-06
-2.64564e-06
-7.887553e-06
-2.5601175e-06
-7.7795622e-06
-2.4781194e-06
-7.6755673e-06
-2.3994434e-06
-7.5754219e-06
-2.3239002e-06
-7.4789876e-06
-2.2513127e-06
-7.3861335e-06
-2.181515e-06
-7.2967359e-06
-2.1143517e-06
-7.2106781e-06
-2.0496768e-06
-7.1278492e-06
-1.9873535e-06
-7.0481449e-06
-1.927253e-06
-6.9714664e-06
-1.8692545e-06
-6.89772e-06
-1.8132441e-06
-6.8268176e-06
-1.7591147e-06
-6.7586756e-06
-1.7067654e-06
-6.6932151e-06
-1.656101e-06
-6.6303616e-06
-1.6070318e-06
-6.5700446e-06
-1.559473e-06
-6.5121977e-06
-1.5133445e-06
-6.456758e-06
-1.4685707e-06
-6.4036663e-06
-1.4250798e-06
-6.3528667e-06
-1.3828041e-06
-6.3043066e-06
-1.3416794e-06
-6.2579364e-06
-1.3016446e-06
-6.2137094e-06
-1.2626421e-06
-6.1715816e-06
-1.224617e-06
-6.1315118e-06
-1.1875171e-06
-6.0934613e-06
-1.1512928e-06
-6.0573937e-06
-1.1158969e-06
-6.0232749e-06
-1.0812844e-06
-5.9910733e-06
-1.0474125e-06
-5.9607591e-06
-1.0142403e-06
-5.9323048e-06
-9.8172862e-07
-5.9056845e-06
-9.4984008e-07
-5.8808745e-06
-9.1853883e-07
-5.8578526e-06
-8.8779054e-07
-5.8365986e-06
-8.5756224e-07
-5.8170937e-06
-8.2782218e-07
-5.7993207e-06
-7.9853989e-07
-5.7832638e-06
-7.6968597e-07
-5.7689088e-06
-7.4123208e-07
-5.7562424e-06
-7.1315096e-07
-5.7452527e-06
-6.854163e-07
-5.7359288e-06
-6.5800283e-07
-5.728261e-06
-6.3088628e-07
-5.7222403e-06
-6.0404343e-07
-5.7178587e-06
-5.7745216e-07
-5.7151091e-06
-5.5109143e-07
-5.7139851e-06
-5.2494138e-07
-5.7144812e-06
-4.9898346e-07
-5.7165929e-06
-4.7320035e-07
-5.7203166e-06
-4.4757602e-07
-5.7256498e-06
-4.2209578e-07
-5.7325913e-06
-3.9674632e-07
-5.7411414e-06
-3.7151547e-07
-5.7513018e-06
-3.4639231e-07
-5.7630764e-06
-3.2136691e-07
-5.7764712e-06
-2.9643009e-07
-5.7914947e-06
-2.7157316e-07
-5.808158e-06
-2.4678752e-07
-5.8264756e-06
-2.2206423e-07
-5.8464648e-06
-1.9739344e-07
-5.8681468e-06
-1.7276386e-07
-5.8915458e-06
-1.48162e-07
-5.9166896e-06
-1.2357169e-07
-5.9436084e-06
-9.8973536e-08
-5.9723334e-06
-7.4344601e-08
-6.002892e-06
-4.965858e-08
-6.0352939e-06
-2.4886896e-08
-6.0694998e-06
-6.1054354e-06
-3.4795493e-06
-9.359236e-06
-3.3531506e-06
-9.1944922e-06
-3.2329133e-06
-9.0361982e-06
-3.1184449e-06
-8.8840627e-06
-3.0093823e-06
-8.7378118e-06
-2.9053887e-06
-8.5971879e-06
-2.8061516e-06
-8.4619487e-06
-2.7113809e-06
-8.331866e-06
-2.6208067e-06
-8.206725e-06
-2.534178e-06
-8.0863233e-06
-2.4512608e-06
-7.9704701e-06
-2.3718373e-06
-7.8589858e-06
-2.2957038e-06
-7.7517008e-06
-2.2226703e-06
-7.6484553e-06
-2.1525594e-06
-7.5490985e-06
-2.0852049e-06
-7.453488e-06
-2.0204511e-06
-7.3614897e-06
-1.9581524e-06
-7.2729768e-06
-1.8981722e-06
-7.1878295e-06
-1.8403821e-06
-7.105935e-06
-1.7846618e-06
-7.0271867e-06
-1.7308981e-06
-6.9514837e-06
-1.6789846e-06
-6.8787311e-06
-1.628821e-06
-6.8088392e-06
-1.5803131e-06
-6.7417231e-06
-1.5333719e-06
-6.6773028e-06
-1.4879135e-06
-6.615503e-06
-1.4438589e-06
-6.5562523e-06
-1.4011332e-06
-6.4994837e-06
-1.3596658e-06
-6.4451337e-06
-1.3193898e-06
-6.3931426e-06
-1.2802421e-06
-6.3434544e-06
-1.2421627e-06
-6.2960158e-06
-1.2050948e-06
-6.2507773e-06
-1.1689846e-06
-6.2076918e-06
-1.1337809e-06
-6.1667155e-06
-1.0994352e-06
-6.127807e-06
-1.0659012e-06
-6.0909276e-06
-1.033135e-06
-6.0560411e-06
-1.0010948e-06
-6.0231136e-06
-9.6974057e-07
-5.9921134e-06
-9.390343e-07
-5.9630111e-06
-9.0893955e-07
-5.9357792e-06
-8.794215e-07
-5.9103925e-06
-8.5044678e-07
-5.8868274e-06
-8.2198337e-07
-5.865062e-06
-7.9400055e-07
-5.8450766e-06
-7.6646866e-07
-5.8268526e-06
-7.3935918e-07
-5.8103733e-06
-7.1264459e-07
-5.7956234e-06
-6.8629832e-07
-5.7825886e-06
-6.6029471e-07
-5.7712563e-06
-6.3460898e-07
-5.7616146e-06
-6.0921729e-07
-5.7536527e-06
-5.8409675e-07
-5.7473609e-06
-5.5922542e-07
-5.74273e-06
-5.3458245e-07
-5.739752e-06
-5.1014808e-07
-5.7384194e-06
-4.8590383e-07
-5.7387254e-06
-4.6183246e-07
-5.7406642e-06
-4.3791808e-07
-5.7442309e-06
-4.1414635e-07
-5.7494215e-06
-3.9050436e-07
-5.7562333e-06
-3.6698068e-07
-5.764665e-06
-3.4356545e-07
-5.774717e-06
-3.2025015e-07
-5.7863917e-06
-2.9702755e-07
-5.7996938e-06
-2.7389146e-07
-5.8146307e-06
-2.5083641e-07
-5.8312131e-06
-2.2785725e-07
-5.8494548e-06
-2.0494845e-07
-5.8693736e-06
-1.8210373e-07
-5.8909915e-06
-1.5931502e-07
-5.9143345e-06
-1.3657188e-07
-5.9394327e-06
-1.1386046e-07
-5.9663198e-06
-9.1162849e-08
-5.995031e-06
-6.8456571e-08
-6.0255982e-06
-4.5714653e-08
-6.0580359e-06
-2.2906553e-08
-6.0923079e-06
-6.128342e-06
-3.1997255e-06
-9.4818943e-06
-3.0831738e-06
-9.3110439e-06
-2.9723329e-06
-9.147039e-06
-2.8668373e-06
-8.9895583e-06
-2.7663484e-06
-8.8383007e-06
-2.6705526e-06
-8.6929838e-06
-2.579159e-06
-8.5533423e-06
-2.4918976e-06
-8.4191274e-06
-2.4085175e-06
-8.2901051e-06
-2.3287853e-06
-8.1660555e-06
-2.2524836e-06
-8.0467718e-06
-2.1794099e-06
-7.9320595e-06
-2.1093754e-06
-7.8217354e-06
-2.0422035e-06
-7.7156272e-06
-1.9777297e-06
-7.6135724e-06
-1.9157996e-06
-7.5154181e-06
-1.8562693e-06
-7.4210201e-06
-1.7990035e-06
-7.3302425e-06
-1.7438757e-06
-7.2429573e-06
-1.6907671e-06
-7.1590436e-06
-1.6395661e-06
-7.0783876e-06
-1.5901681e-06
-7.0008818e-06
-1.5424744e-06
-6.9264248e-06
-1.4963925e-06
-6.8549211e-06
-1.4518351e-06
-6.7862805e-06
-1.4087198e-06
-6.720418e-06
-1.3669693e-06
-6.6572535e-06
-1.3265104e-06
-6.5967113e-06
-1.2872739e-06
-6.5387201e-06
-1.2491947e-06
-6.4832129e-06
-1.2122109e-06
-6.4301264e-06
-1.1762643e-06
-6.379401e-06
-1.1412994e-06
-6.3309807e-06
-1.1072639e-06
-6.2848127e-06
-1.0741082e-06
-6.2408476e-06
-1.0417849e-06
-6.1990388e-06
-1.0102494e-06
-6.1593426e-06
-9.7945898e-07
-6.1217181e-06
-9.4937317e-07
-6.0861269e-06
-9.1995333e-07
-6.0525334e-06
-8.911627e-07
-6.020904e-06
-8.6296613e-07
-5.9912076e-06
-8.353301e-07
-5.9634153e-06
-8.0822246e-07
-5.9375002e-06
-7.8161247e-07
-5.9134373e-06
-7.5547056e-07
-5.8912039e-06
-7.297683e-07
-5.8707788e-06
-7.0447829e-07
-5.8521426e-06
-6.7957404e-07
-5.8352776e-06
-6.5502997e-07
-5.8201675e-06
-6.3082128e-07
-5.8067973e-06
-6.0692398e-07
-5.7951536e-06
-5.8331481e-07
-5.7852237e-06
-5.5997139e-07
-5.7769961e-06
-5.3687207e-07
-5.7704602e-06
-5.1399624e-07
-5.7656059e-06
-4.9132421e-07
-5.7624241e-06
-4.6883751e-07
-5.7609061e-06
-4.4651884e-07
-5.7610441e-06
-4.2435223e-07
-5.7628309e-06
-4.0232331e-07
-5.7662599e-06
-3.8041925e-07
-5.7713256e-06
-3.586289e-07
-5.7780237e-06
-3.3694291e-07
-5.786351e-06
-3.1535366e-07
-5.7963063e-06
-2.9385528e-07
-5.8078901e-06
-2.7244353e-07
-5.8211056e-06
-2.5111548e-07
-5.8359588e-06
-2.2986931e-07
-5.8524592e-06
-2.0870376e-07
-5.8706203e-06
-1.8761759e-07
-5.8904598e-06
-1.666086e-07
-5.9120005e-06
-1.4567291e-07
-5.9352702e-06
-1.248038e-07
-5.9603019e-06
-1.0399048e-07
-5.9871331e-06
-8.3217058e-08
-6.0158045e-06
-6.2461693e-08
-6.0463536e-06
-4.1696359e-08
-6.0788012e-06
-2.0887891e-08
-6.1131163e-06
-6.1492299e-06
-2.9122911e-06
-9.5936983e-06
-2.8060743e-06
-9.4172607e-06
-2.7050812e-06
-9.2480321e-06
-2.6089759e-06
-9.0856636e-06
-2.5174475e-06
-8.9298291e-06
-2.4302082e-06
-8.780223e-06
-2.3469912e-06
-8.6365594e-06
-2.2675486e-06
-8.49857e-06
-2.1916504e-06
-8.3660033e-06
-2.1190825e-06
-8.2386233e-06
-2.0496459e-06
-8.1162085e-06
-1.9831549e-06
-7.9985505e-06
-1.9194365e-06
-7.8854538e-06
-1.8583292e-06
-7.7767345e-06
-1.7996821e-06
-7.6722195e-06
-1.7433542e-06
-7.571746e-06
-1.6892135e-06
-7.4751608e-06
-1.6371364e-06
-7.3823196e-06
-1.5870071e-06
-7.2930866e-06
-1.5387169e-06
-7.2073337e-06
-1.492164e-06
-7.1249405e-06
-1.4472526e-06
-7.0457932e-06
-1.4038926e-06
-6.9697848e-06
-1.3619994e-06
-6.8968143e-06
-1.3214932e-06
-6.8267867e-06
-1.2822989e-06
-6.7596123e-06
-1.2443458e-06
-6.6952066e-06
-1.2075671e-06
-6.63349e-06
-1.1718996e-06
-6.5743875e-06
-1.1372839e-06
-6.5178286e-06
-1.1036636e-06
-6.4637467e-06
-1.0709855e-06
-6.4120791e-06
-1.039199e-06
-6.3627671e-06
-1.0082565e-06
-6.3157553e-06
-9.7811247e-07
-6.2709916e-06
-9.4872405e-07
-6.2284272e-06
-9.2005037e-07
-6.1880162e-06
-8.9205254e-07
-6.1497159e-06
-8.646937e-07
-6.1134858e-06
-8.3793864e-07
-6.0792885e-06
-8.1175382e-07
-6.0470888e-06
-7.8610728e-07
-6.0168542e-06
-7.6096842e-07
-5.9885541e-06
-7.3630802e-07
-5.9621606e-06
-7.1209797e-07
-5.9376474e-06
-6.8831134e-07
-5.9149906e-06
-6.6492211e-07
-5.894168e-06
-6.4190518e-07
-5.8751595e-06
-6.1923625e-07
-5.8579465e-06
-5.9689168e-07
-5.842512e-06
-5.7484852e-07
-5.8288405e-06
-5.5308446e-07
-5.8169177e-06
-5.3157776e-07
-5.8067304e-06
-5.1030736e-07
-5.7982665e-06
-4.8925296e-07
-5.7915146e-06
-4.6839507e-07
-5.7864638e-06
-4.477152e-07
-5.783104e-06
-4.2719585e-07
-5.7814255e-06
-4.0682091e-07
-5.7814191e-06
-3.8657565e-07
-5.7830761e-06
-3.6644704e-07
-5.7863885e-06
-3.4642367e-07
-5.7913489e-06
-3.264962e-07
-5.7979511e-06
-3.0665728e-07
-5.8061899e-06
-2.8690164e-07
-5.8160619e-06
-2.6722622e-07
-5.8275655e-06
-2.4762986e-07
-5.8407019e-06
-2.2811339e-07
-5.8554753e-06
-2.086791e-07
-5.8718935e-06
-1.8933028e-07
-5.8899691e-06
-1.7007062e-07
-5.9097195e-06
-1.5090311e-07
-5.931168e-06
-1.31829e-07
-5.9543443e-06
-1.1284638e-07
-5.9792845e-06
-9.3948581e-08
-6.0060309e-06
-7.5122529e-08
-6.0346305e-06
-5.6347439e-08
-6.0651287e-06
-3.7594079e-08
-6.0975546e-06
-1.8825581e-08
-6.1318848e-06
-6.1680554e-06
-2.6178982e-06
-9.6941626e-06
-2.5224644e-06
-9.5126944e-06
-2.4317332e-06
-9.3387634e-06
-2.3454012e-06
-9.1719956e-06
-2.2631881e-06
-9.0120421e-06
-2.1848343e-06
-8.8585769e-06
-2.110099e-06
-8.7112948e-06
-2.0387587e-06
-8.5699103e-06
-1.970606e-06
-8.434156e-06
-1.9054479e-06
-8.3037814e-06
-1.8431049e-06
-8.1785514e-06
-1.7834097e-06
-8.0582457e-06
-1.7262063e-06
-7.9426572e-06
-1.6713492e-06
-7.8315916e-06
-1.6187024e-06
-7.7248663e-06
-1.5681389e-06
-7.6223095e-06
-1.5195398e-06
-7.5237599e-06
-1.4727937e-06
-7.4290657e-06
-1.4277963e-06
-7.3380839e-06
-1.38445e-06
-7.2506801e-06
-1.3426627e-06
-7.1667278e-06
-1.3023483e-06
-7.0861076e-06
-1.2634259e-06
-7.0087073e-06
-1.225819e-06
-6.9344212e-06
-1.1894561e-06
-6.8631496e-06
-1.1542694e-06
-6.7947989e-06
-1.1201955e-06
-6.7292806e-06
-1.087174e-06
-6.6665115e-06
-1.0551483e-06
-6.6064132e-06
-1.0240649e-06
-6.5489121e-06
-9.9387301e-07
-6.4939385e-06
-9.6452483e-07
-6.4414273e-06
-9.3597495e-07
-6.391317e-06
-9.0818038e-07
-6.3435499e-06
-8.8110041e-07
-6.2980716e-06
-8.5469637e-07
-6.2548312e-06
-8.289315e-07
-6.2137811e-06
-8.0377098e-07
-6.1748764e-06
-7.7918159e-07
-6.1380752e-06
-7.551317e-07
-6.1033383e-06
-7.3159121e-07
-6.0706293e-06
-7.0853137e-07
-6.039914e-06
-6.8592477e-07
-6.0111608e-06
-6.637451e-07
-5.9843402e-06
-6.4196713e-07
-5.9594254e-06
-6.2056659e-07
-5.9363911e-06
-5.9952007e-07
-5.9152146e-06
-5.7880485e-07
-5.8958748e-06
-5.5839887e-07
-5.8783525e-06
-5.3828056e-07
-5.8626303e-06
-5.1842884e-07
-5.8486922e-06
-4.9882303e-07
-5.8365235e-06
-4.7944293e-07
-5.8261105e-06
-4.6026879e-07
-5.8174407e-06
-4.4128148e-07
-5.8105019e-06
-4.2246257e-07
-5.8052827e-06
-4.037945e-07
-5.801772e-06
-3.8526083e-07
-5.7999591e-06
-3.6684637e-07
-5.7998335e-06
-3.4853746e-07
-5.801385e-06
-3.3032219e-07
-5.8046037e-06
-3.121906e-07
-5.8094805e-06
-2.9413498e-07
-5.8160068e-06
-2.7614992e-07
-5.824175e-06
-2.5823257e-07
-5.8339792e-06
-2.4038268e-07
-5.8454154e-06
-2.2260256e-07
-5.858482e-06
-2.0489701e-07
-5.8731808e-06
-1.87273e-07
-5.8895175e-06
-1.6973912e-07
-5.907503e-06
-1.5230484e-07
-5.9271538e-06
-1.349795e-07
-5.9484934e-06
-1.1777091e-07
-5.9715529e-06
-1.0068343e-07
-5.996372e-06
-8.3716041e-08
-6.0229984e-06
-6.6859868e-08
-6.0514867e-06
-5.0095952e-08
-6.0818926e-06
-3.3393827e-08
-6.1142567e-06
-1.6711866e-08
-6.1485668e-06
-6.1847673e-06
-2.3172421e-06
-9.7828493e-06
-2.2329955e-06
-9.596941e-06
-2.1528995e-06
-9.4188594e-06
-2.0766863e-06
-9.2482087e-06
-2.0041085e-06
-9.08462e-06
-1.9349367e-06
-8.9277487e-06
-1.8689582e-06
-8.7772732e-06
-1.8059759e-06
-8.6328926e-06
-1.7458063e-06
-8.4943256e-06
-1.6882791e-06
-8.3613086e-06
-1.6332356e-06
-8.2335949e-06
-1.5805281e-06
-8.1109532e-06
-1.5300188e-06
-7.9931665e-06
-1.4815791e-06
-7.8800313e-06
-1.4350889e-06
-7.7713565e-06
-1.3904359e-06
-7.6669625e-06
-1.3475152e-06
-7.5666807e-06
-1.3062282e-06
-7.4703526e-06
-1.266483e-06
-7.3778291e-06
-1.2281931e-06
-7.2889701e-06
-1.1912772e-06
-7.2036436e-06
-1.1556593e-06
-7.1217254e-06
-1.1212678e-06
-7.0430988e-06
-1.0880353e-06
-6.9676537e-06
-1.0558983e-06
-6.8952866e-06
-1.0247973e-06
-6.8258999e-06
-9.9467589e-07
-6.759402e-06
-9.6548102e-07
-6.6957064e-06
-9.3716257e-07
-6.6347317e-06
-9.096732e-07
-6.5764014e-06
-8.829682e-07
-6.5206436e-06
-8.5700519e-07
-6.4673903e-06
-8.3174414e-07
-6.4165781e-06
-8.0714711e-07
-6.3681469e-06
-7.8317806e-07
-6.3220406e-06
-7.5980287e-07
-6.2782064e-06
-7.3698912e-07
-6.2365949e-06
-7.1470598e-07
-6.1971595e-06
-6.9292413e-07
-6.159857e-06
-6.7161568e-07
-6.1246468e-06
-6.5075406e-07
-6.0914909e-06
-6.3031393e-07
-6.0603542e-06
-6.1027104e-07
-6.0312037e-06
-5.906022e-07
-6.0040091e-06
-5.7128516e-07
-5.9787424e-06
-5.522985e-07
-5.9553778e-06
-5.3362148e-07
-5.9338916e-06
-5.152339e-07
-5.9142623e-06
-4.9711606e-07
-5.8964704e-06
-4.792485e-07
-5.8804979e-06
-4.6161203e-07
-5.8663287e-06
-4.4418764e-07
-5.8539478e-06
-4.2695661e-07
-5.8433416e-06
-4.0990043e-07
-5.8344969e-06
-3.9300096e-07
-5.8274013e-06
-3.7624073e-07
-5.8220429e-06
-3.5960295e-07
-5.8184098e-06
-3.4307197e-07
-5.8164901e-06
-3.2663335e-07
-5.8162722e-06
-3.1027425e-07
-5.8177441e-06
-2.9398377e-07
-5.8208942e-06
-2.7775315e-07
-5.8257112e-06
-2.6157605e-07
-5.8321838e-06
-2.4544904e-07
-5.840302e-06
-2.2937155e-07
-5.8500567e-06
-2.1334623e-07
-5.8614407e-06
-1.9737904e-07
-5.8744492e-06
-1.8147903e-07
-5.8890808e-06
-1.6565839e-07
-5.9053382e-06
-1.4993172e-07
-5.9232296e-06
-1.3431551e-07
-5.94277e-06
-1.1882679e-07
-5.9639821e-06
-1.0348158e-07
-5.9868981e-06
-8.8292748e-08
-6.0115608e-06
-7.3266985e-08
-6.0380241e-06
-5.84018e-08
-6.0663519e-06
-4.3681658e-08
-6.0966127e-06
-2.9075489e-08
-6.1288629e-06
-1.4535475e-08
-6.1631068e-06
-6.1993028e-06
-2.0110544e-06
-9.8593717e-06
-1.938352e-06
-9.6696435e-06
-1.869221e-06
-9.4879903e-06
-1.8034319e-06
-9.3139979e-06
-1.7407719e-06
-9.14728e-06
-1.681044e-06
-8.9874766e-06
-1.6240656e-06
-8.8342517e-06
-1.5696669e-06
-8.6872913e-06
-1.5176903e-06
-8.5463021e-06
-1.4679893e-06
-8.4110096e-06
-1.4204273e-06
-8.2811569e-06
-1.3748772e-06
-8.1565034e-06
-1.3312202e-06
-8.0368235e-06
-1.2893457e-06
-7.9219058e-06
-1.2491502e-06
-7.811552e-06
-1.210537e-06
-7.7055757e-06
-1.1734155e-06
-7.6038022e-06
-1.137701e-06
-7.5060671e-06
-1.1033141e-06
-7.4122161e-06
-1.0701801e-06
-7.3221041e-06
-1.0382292e-06
-7.2355945e-06
-1.0073956e-06
-7.152559e-06
-9.7761761e-07
-7.0728768e-06
-9.4883706e-07
-6.9964343e-06
-9.2099926e-07
-6.9231244e-06
-8.9405271e-07
-6.8528465e-06
-8.6794883e-07
-6.7855059e-06
-8.4264177e-07
-6.7210134e-06
-8.1808834e-07
-6.6592851e-06
-7.9424763e-07
-6.6002421e-06
-7.7108106e-07
-6.5438101e-06
-7.4855206e-07
-6.4899193e-06
-7.2662606e-07
-6.4385041e-06
-7.0527023e-07
-6.3895027e-06
-6.8445358e-07
-6.3428573e-06
-6.6414657e-07
-6.2985134e-06
-6.443212e-07
-6.2564202e-06
-6.2495087e-07
-6.2165299e-06
-6.060103e-07
-6.1787976e-06
-5.8747534e-07
-6.1431817e-06
-5.6932311e-07
-6.1096432e-06
-5.5153171e-07
-6.0781455e-06
-5.3408027e-07
-6.0486551e-06
-5.1694883e-07
-6.0211405e-06
-5.0011824e-07
-5.995573e-06
-4.8357005e-07
-5.971926e-06
-4.6728633e-07
-5.9501753e-06
-4.5124959e-07
-5.9302991e-06
-4.354425e-07
-5.9122774e-06
-4.1984786e-07
-5.8960925e-06
-4.044484e-07
-5.8817281e-06
-3.8922684e-07
-5.8691694e-06
-3.7416577e-07
-5.8584026e-06
-3.5924782e-07
-5.8494148e-06
-3.4445572e-07
-5.8421934e-06
-3.2977272e-07
-5.8367259e-06
-3.1518262e-07
-5.8329999e-06
-3.0067024e-07
-5.8310025e-06
-2.8622166e-07
-5.8307207e-06
-2.7182464e-07
-5.8321411e-06
-2.5746889e-07
-5.83525e-06
-2.4314657e-07
-5.8400335e-06
-2.2885267e-07
-5.8464778e-06
-2.145853e-07
-5.8545694e-06
-2.0034609e-07
-5.8642959e-06
-1.8614064e-07
-5.8756462e-06
-1.7197846e-07
-5.8886114e-06
-1.5787332e-07
-5.9031859e-06
-1.4384298e-07
-5.9193685e-06
-1.2990902e-07
-5.9371636e-06
-1.1609593e-07
-5.9565831e-06
-1.0243022e-07
-5.9776478e-06
-8.8938383e-08
-6.00039e-06
-7.5644342e-08
-6.0248549e-06
-6.2565922e-08
-6.0511025e-06
-4.9710309e-08
-6.0792075e-06
-3.7068294e-08
-6.1092547e-06
-2.4609593e-08
-6.1413216e-06
-1.2280256e-08
-6.1754361e-06
-6.211583e-06
-1.7000885e-06
-9.9233973e-06
-1.6392373e-06
-9.7304946e-06
-1.5813555e-06
-9.5458722e-06
-1.5262531e-06
-9.3691002e-06
-1.4737544e-06
-9.1997787e-06
-1.4236963e-06
-9.0375347e-06
-1.3759274e-06
-8.8820205e-06
-1.3303072e-06
-8.7329115e-06
-1.2867049e-06
-8.5899045e-06
-1.2449987e-06
-8.4527158e-06
-1.2050753e-06
-8.3210803e-06
-1.1668289e-06
-8.1947497e-06
-1.130161e-06
-8.0734914e-06
-1.0949794e-06
-7.9570875e-06
-1.0611979e-06
-7.8453334e-06
-1.0287361e-06
-7.7380375e-06
-9.975185e-07
-7.6350198e-06
-9.6747442e-07
-7.5361112e-06
-9.3853761e-07
-7.4411529e-06
-9.1064586e-07
-7.3499958e-06
-8.8374083e-07
-7.2624996e-06
-8.5776759e-07
-7.1785322e-06