/*--------------------------------*- C++ -*----------------------------------*\
| =========                 |                                                 |
| \\      /  F ield         | OpenFOAM: The Open Source CFD Toolbox           |
|  \\    /   O peration     | Version:  2306                                  |
|   \\  /    A nd           | Website:  www.openfoam.com                      |
|    \\/     M anipulation  |                                                 |
\*---------------------------------------------------------------------------*/
FoamFile
{
    version     2.0;
    format      ascii;
    arch        "LSB;label=32;scalar=64";
    class       volVectorField;
    location    "0.14";
    object      U_0;
}
// * * * * * * * * * * * * * * * * * * * * * * * * * * * * * * * * * * * * * //

dimensions      [0 1 -1 0 0 0 0];

internalField   nonuniform List<vector> 
6400
(
(-0.0020101078 -0.0033143262 -1.2700297e-19)
(-0.0019157003 -0.0032283451 -1.3883836e-19)
(-0.0018267729 -0.0031457516 -1.0931283e-19)
(-0.0017429397 -0.0030663981 -1.7831152e-19)
(-0.0016638459 -0.0029901437 -1.0020133e-19)
(-0.0015891648 -0.0029168537 1.6005882e-19)
(-0.0015185957 -0.0028463995 1.1747571e-20)
(-0.0014518611 -0.0027786586 5.5532541e-20)
(-0.001388705 -0.0027135141 2.7009225e-20)
(-0.0013288909 -0.0026508547 -4.9701118e-20)
(-0.0012722003 -0.0025905745 -1.3357212e-20)
(-0.0012184308 -0.0025325726 2.9684827e-20)
(-0.0011673952 -0.0024767529 -3.092211e-20)
(-0.0011189199 -0.0024230243 -3.1307654e-20)
(-0.001072844 -0.0023712998 -1.4664946e-20)
(-0.0010290179 -0.0023214967 -3.1321205e-20)
(-0.00098730285 -0.0022735366 -1.2318066e-20)
(-0.00094756986 -0.0022273448 -2.8587739e-20)
(-0.00090969887 -0.0021828501 -6.2636321e-20)
(-0.00087357813 -0.0021399849 -1.1692017e-20)
(-0.00083910352 -0.0020986851 -2.4350604e-20)
(-0.00080617798 -0.0020588895 -2.5959527e-20)
(-0.00077471098 -0.0020205399 -1.7179068e-20)
(-0.00074461797 -0.001983581 -1.8695594e-20)
(-0.00071582 -0.0019479603 3.5205789e-21)
(-0.00068824325 -0.0019136275 1.7419846e-21)
(-0.00066181868 -0.0018805352 -1.5798998e-20)
(-0.00063648165 -0.0018486379 1.188532e-20)
(-0.00061217164 -0.0018178925 -8.5085219e-21)
(-0.00058883192 -0.0017882578 -1.711288e-20)
(-0.0005664093 -0.0017596947 -1.0702492e-20)
(-0.00054485387 -0.001732166 1.3535554e-20)
(-0.00052411875 -0.0017056362 -1.330896e-20)
(-0.00050415993 -0.0016800714 -1.7382571e-20)
(-0.000484936 -0.0016554394 1.2149786e-20)
(-0.00046640804 -0.0016317095 2.9525157e-22)
(-0.00044853939 -0.0016088524 3.4006814e-21)
(-0.00043129556 -0.0015868402 -9.6732489e-21)
(-0.00041464402 -0.0015656464 -2.5667754e-20)
(-0.00039855411 -0.0015452455 -3.1723555e-21)
(-0.00038299689 -0.0015256133 7.7363695e-21)
(-0.00036794507 -0.0015067269 9.4383622e-21)
(-0.00035337284 -0.001488564 -5.2810517e-21)
(-0.00033925581 -0.0014711039 -1.1534258e-20)
(-0.00032557092 -0.0014543263 -3.2330722e-21)
(-0.00031229636 -0.0014382122 1.4202866e-20)
(-0.00029941146 -0.0014227433 1.6808945e-20)
(-0.00028689664 -0.0014079022 1.2927543e-21)
(-0.00027473335 -0.0013936721 -4.0497918e-21)
(-0.00026290399 -0.0013800373 7.5749214e-21)
(-0.00025139187 -0.0013669824 1.5327743e-20)
(-0.00024018115 -0.001354493 5.0186509e-21)
(-0.00022925677 -0.0013425551 -8.6077023e-22)
(-0.00021860447 -0.0013311556 -5.3582337e-21)
(-0.00020821068 -0.0013202818 -9.6561228e-21)
(-0.00019806251 -0.0013099215 -7.5980236e-22)
(-0.00018814773 -0.0013000634 -2.6177339e-21)
(-0.00017845472 -0.0012906962 6.4032269e-22)
(-0.00016897244 -0.0012818097 -1.3161571e-21)
(-0.0001596904 -0.0012733937 -3.3687883e-21)
(-0.00015059866 -0.0012654389 4.0222253e-21)
(-0.00014168774 -0.0012579363 2.2423913e-22)
(-0.00013294863 -0.0012508774 1.4597858e-21)
(-0.00012437278 -0.0012442542 2.5602301e-21)
(-0.000115952 -0.0012380592 -5.0889728e-21)
(-0.00010767848 -0.0012322856 4.4000554e-21)
(-9.9544727e-05 -0.0012269266 7.4931099e-21)
(-9.1543536e-05 -0.0012219764 -3.345051e-21)
(-8.3667924e-05 -0.0012174294 -3.1226346e-22)
(-7.5911116e-05 -0.0012132805 8.7698239e-21)
(-6.8266469e-05 -0.0012095252 3.4169448e-21)
(-6.0727435e-05 -0.0012061591 -3.9424342e-21)
(-5.3287536e-05 -0.0012031785 4.2391053e-21)
(-4.5940292e-05 -0.0012005799 7.403456e-21)
(-3.8679217e-05 -0.0011983603 6.8612044e-21)
(-3.1497921e-05 -0.0011965163 8.1413062e-21)
(-2.4389979e-05 -0.0011950439 -4.2812319e-21)
(-1.734637e-05 -0.0011939359 -1.1481235e-21)
(-1.0355343e-05 -0.0011931764 3.8557862e-21)
(-3.427122e-06 -0.0011927426 9.9455218e-21)
(-0.0019200831 -0.0033854475 -2.5024082e-19)
(-0.001829302 -0.0032952934 -2.0064856e-19)
(-0.0017438372 -0.0032088259 -1.0832865e-19)
(-0.0016633105 -0.0031258731 -1.5754044e-19)
(-0.0015873745 -0.0030462721 -6.1408245e-20)
(-0.0015157097 -0.0029698679 5.1495369e-20)
(-0.0014480224 -0.0028965137 -4.5552116e-20)
(-0.0013840416 -0.0028260701 -1.7164615e-20)
(-0.0013235177 -0.0027584052 -3.579195e-21)
(-0.0012662204 -0.0026933936 -6.9437593e-20)
(-0.0012119367 -0.0026309168 -1.1485611e-21)
(-0.0011604701 -0.0025708622 -6.0207699e-20)
(-0.0011116384 -0.0025131231 -9.3156859e-20)
(-0.0010652731 -0.0024575985 -1.7316275e-20)
(-0.0010212179 -0.0024041926 -3.0404149e-20)
(-0.00097932781 -0.0023528144 -5.1521762e-20)
(-0.00093946842 -0.002303378 -6.5013062e-20)
(-0.0009015147 -0.0022558014 -5.5601e-20)
(-0.00086535046 -0.0022100075 1.4278508e-20)
(-0.00083086759 -0.0021659225 -1.7689611e-21)
(-0.00079796542 -0.002123477 -3.0865102e-20)
(-0.00076655018 -0.0020826046 -4.3680986e-20)
(-0.00073653441 -0.0020432426 -3.8623976e-20)
(-0.00070783651 -0.0020053314 -1.3000225e-20)
(-0.00068038031 -0.0019688145 -1.022868e-21)
(-0.00065409462 -0.0019336381 -1.3037715e-20)
(-0.0006289129 -0.0018997511 -3.2575733e-20)
(-0.00060477287 -0.0018671051 2.6538028e-21)
(-0.00058161625 -0.0018356539 -2.6551769e-21)
(-0.00055938843 -0.0018053539 -5.21421e-21)
(-0.00053803824 -0.0017761632 -1.5253007e-20)
(-0.00051751766 -0.0017480424 -8.4769389e-21)
(-0.00049778164 -0.0017209537 1.0806395e-20)
(-0.00047878786 -0.0016948614 -3.1436884e-21)
(-0.00046049656 -0.0016697312 -6.0077438e-21)
(-0.00044287034 -0.0016455308 -2.1894909e-20)
(-0.00042587403 -0.0016222293 8.1130399e-21)
(-0.00040947451 -0.0015997972 1.0030237e-20)
(-0.00039364057 -0.0015782066 -1.2932663e-20)
(-0.0003783428 -0.0015574307 -2.7222894e-21)
(-0.00036355347 -0.0015374441 -6.7677224e-21)
(-0.0003492464 -0.0015182227 -3.457081e-21)
(-0.00033539686 -0.0014997432 -9.6286862e-21)
(-0.00032198148 -0.0014819838 -3.4392012e-21)
(-0.00030897817 -0.0014649234 -3.4196338e-21)
(-0.00029636604 -0.001448542 -6.9924388e-21)
(-0.00028412528 -0.0014328206 4.0657376e-22)
(-0.00027223716 -0.0014177409 -8.4885279e-22)
(-0.00026068392 -0.0014032855 2.3711967e-21)
(-0.00024944871 -0.0013894379 4.4088527e-21)
(-0.00023851554 -0.0013761823 -2.3249038e-21)
(-0.00022786926 -0.0013635034 -6.766199e-21)
(-0.00021749547 -0.0013513869 -6.7799456e-21)
(-0.00020738052 -0.0013398189 -5.2103304e-21)
(-0.00019751144 -0.0013287863 -2.731528e-21)
(-0.00018787592 -0.0013182765 -6.1419501e-21)
(-0.00017846227 -0.0013082776 -1.6892776e-21)
(-0.00016925943 -0.001298778 -1.0940925e-20)
(-0.00016025688 -0.0012897669 -4.0727182e-21)
(-0.00015144466 -0.0012812338 5.6222047e-21)
(-0.00014281332 -0.001273169 1.7086537e-21)
(-0.0001343539 -0.0012655631 -3.3991582e-21)
(-0.00012605791 -0.0012584073 -6.5056859e-21)
(-0.00011791729 -0.0012516933 -1.4191254e-20)
(-0.00010992437 -0.0012454134 -8.3178131e-21)
(-0.00010207183 -0.0012395603 -2.7953946e-21)
(-9.4352704e-05 -0.0012341272 2.5931963e-21)
(-8.6760271e-05 -0.0012291081 -6.1184996e-21)
(-7.9288051e-05 -0.0012244972 1.0865485e-21)
(-7.1929746e-05 -0.0012202894 4.909578e-21)
(-6.4679175e-05 -0.00121648 -3.3038594e-21)
(-5.7530236e-05 -0.0012130648 -5.8770291e-21)
(-5.0476839e-05 -0.0012100401 -2.1813226e-21)
(-4.3512863e-05 -0.0012074026 -1.2232141e-21)
(-3.663213e-05 -0.0012051491 3.1912268e-21)
(-2.982848e-05 -0.0012032766 2.0554991e-21)
(-2.3095676e-05 -0.0012017811 3.6522048e-21)
(-1.6424941e-05 -0.0012006557 3.6058074e-21)
(-9.8048703e-06 -0.0011998841 6.3679904e-21)
(-3.2448622e-06 -0.0011994434 1.2328669e-20)
(-0.0018257752 -0.003453839 -1.7416496e-19)
(-0.0017389311 -0.0033596326 -1.9276235e-19)
(-0.0016572139 -0.0032694064 -9.7138919e-20)
(-0.0015802553 -0.0031829644 -9.4606924e-20)
(-0.0015077177 -0.0031001215 -2.9558101e-20)
(-0.0014392907 -0.003020703 -2.1459319e-20)
(-0.0013746889 -0.0029445436 -1.1157781e-19)
(-0.0013136499 -0.0028714878 6.1489423e-20)
(-0.0012559317 -0.0028013882 7.8908436e-20)
(-0.0012013113 -0.0027341061 -7.6326176e-20)
(-0.0011495828 -0.0026695102 -1.7439861e-20)
(-0.0011005559 -0.0026074764 -2.3402552e-20)
(-0.0010540549 -0.0025478877 -4.5886893e-20)
(-0.0010099171 -0.0024906335 -2.2268153e-22)
(-0.00096799158 -0.002435609 -1.760568e-20)
(-0.00092813874 -0.0023827155 -1.9536688e-20)
(-0.00089022894 -0.0023318592 -2.9557331e-20)
(-0.00085414182 -0.0022829519 -3.6798989e-20)
(-0.00081976556 -0.0022359097 6.9390612e-21)
(-0.00078699618 -0.0021906534 2.7117421e-20)
(-0.0007557369 -0.002147108 -1.0132254e-20)
(-0.00072589762 -0.0021052024 -2.2514553e-20)
(-0.00069739435 -0.0020648695 -1.2548666e-21)
(-0.00067014875 -0.0020260453 -1.0590229e-20)
(-0.00064408774 -0.0019886695 -2.3400132e-22)
(-0.00061914304 -0.0019526848 1.7311033e-20)
(-0.00059525087 -0.0019180368 -2.4795048e-20)
(-0.00057235155 -0.001884674 -5.8707259e-21)
(-0.00055038926 -0.0018525475 3.9681426e-21)
(-0.00052931172 -0.0018216108 3.0934508e-21)
(-0.00050906994 -0.0017918199 -2.6657821e-21)
(-0.00048961798 -0.001763133 -1.1096518e-20)
(-0.00047091275 -0.0017355101 5.4531479e-21)
(-0.00045291381 -0.0017089137 2.7165298e-20)
(-0.00043558314 -0.0016833077 2.6324826e-20)
(-0.00041888502 -0.001658658 -7.0160343e-21)
(-0.00040278584 -0.0016349321 1.873223e-21)
(-0.00038725398 -0.0016120992 2.9374092e-20)
(-0.00037225967 -0.0015901299 8.3950305e-21)
(-0.00035777483 -0.0015689963 -6.8920648e-22)
(-0.000343773 -0.0015486717 -8.176071e-21)
(-0.0003302292 -0.0015291309 -1.5001632e-20)
(-0.00031711985 -0.0015103496 5.1901457e-21)
(-0.00030442268 -0.001492305 7.4733696e-21)
(-0.00029211663 -0.0014749752 2.3798024e-21)
(-0.00028018176 -0.0014583392 4.3435557e-21)
(-0.00026859921 -0.0014423773 1.4949892e-21)
(-0.00025735114 -0.0014270706 -1.0194756e-20)
(-0.00024642059 -0.0014124008 -1.0381434e-20)
(-0.00023579153 -0.0013983508 1.142707e-20)
(-0.00022544871 -0.0013849042 -2.3510435e-21)
(-0.0002153777 -0.0013720453 4.2190216e-23)
(-0.00020556478 -0.001359759 2.2273355e-21)
(-0.00019599693 -0.001348031 -6.0194408e-21)
(-0.00018666182 -0.0013368477 -3.5459668e-21)
(-0.00017754774 -0.001326196 -4.099328e-21)
(-0.00016864357 -0.0013160635 -4.2267376e-22)
(-0.0001599388 -0.0013064383 3.6517451e-21)
(-0.00015142348 -0.0012973089 -2.5245663e-21)
(-0.00014308816 -0.0012886648 1.0689194e-21)
(-0.00013492394 -0.0012804956 4.1507242e-21)
(-0.0001269224 -0.0012727916 1.8787734e-21)
(-0.00011907557 -0.0012655437 -5.9889309e-21)
(-0.00011137592 -0.0012587433 -1.3823446e-20)
(-0.00010381632 -0.0012523824 -6.2804222e-21)
(-9.6390016e-05 -0.0012464533 -4.913165e-21)
(-8.9090558e-05 -0.0012409493 -8.0323022e-21)
(-8.1911785e-05 -0.0012358639 1.7997802e-21)
(-7.4847756e-05 -0.0012311913 1.026113e-21)
(-6.7892697e-05 -0.0012269264 4.7728857e-21)
(-6.104095e-05 -0.0012230643 -3.0566063e-21)
(-5.4286895e-05 -0.0012196011 -2.4861329e-21)
(-4.7624883e-05 -0.001216533 1.7551734e-21)
(-4.1049187e-05 -0.0012138568 -2.6701898e-21)
(-3.4553962e-05 -0.0012115696 1.2162981e-21)
(-2.8133304e-05 -0.0012096686 -1.9455775e-21)
(-2.1781149e-05 -0.00120815 4.0453561e-21)
(-1.5488957e-05 -0.0012070068 6.2869077e-21)
(-9.2456308e-06 -0.001206223 1.0380009e-21)
(-3.0596835e-06 -0.0012057754 9.8669298e-21)
(-0.0017273195 -0.0035192313 -7.6574911e-20)
(-0.0016447164 -0.0034211158 -1.5760735e-19)
(-0.0015670253 -0.0033272666 -2.5087039e-19)
(-0.0014938906 -0.0032374639 -1.3380164e-19)
(-0.001424986 -0.0031515008 1.3010061e-20)
(-0.0013600124 -0.0030691829 6.9652282e-20)
(-0.0012986947 -0.0029903273 4.3618061e-21)
(-0.0012407803 -0.0029147621 5.2222697e-20)
(-0.0011860363 -0.0028423254 -1.8189706e-20)
(-0.0011342483 -0.0027728647 -4.8487314e-20)
(-0.0010852185 -0.0027062367 -6.6579627e-20)
(-0.0010387643 -0.0026423062 1.5959869e-20)
(-0.00099471682 -0.0025809458 -4.9649389e-20)
(-0.00095292014 -0.0025220355 -6.5908398e-20)
(-0.00091322978 -0.0024654623 -2.4035236e-20)
(-0.00087551191 -0.0024111192 -3.9220556e-21)
(-0.00083964243 -0.0023589056 1.709256e-20)
(-0.0008055062 -0.0023087264 -7.7064727e-21)
(-0.00077299629 -0.0022604919 -7.0483604e-20)
(-0.0007420133 -0.0022141171 -1.5988877e-20)
(-0.00071246479 -0.0021695219 1.113506e-20)
(-0.0006842647 -0.0021266307 -1.0525024e-21)
(-0.00065733287 -0.0020853716 -1.149896e-20)
(-0.00063159458 -0.002045677 -3.2066781e-20)
(-0.00060698011 -0.0020074826 4.6660822e-21)
(-0.0005834244 -0.0019707278 1.8976657e-20)
(-0.00056086664 -0.001935355 3.2983318e-20)
(-0.00053925 -0.0019013097 -7.3049138e-21)
(-0.00051852133 -0.0018685403 -5.8344495e-21)
(-0.00049863086 -0.0018369979 -1.1579684e-20)
(-0.00047953198 -0.001806636 -1.1984319e-20)
(-0.00046118101 -0.0017774106 2.2400397e-20)
(-0.00044353696 -0.00174928 2.2085871e-21)
(-0.00042656138 -0.0017222044 3.4050447e-21)
(-0.00041021815 -0.0016961462 1.2728444e-20)
(-0.00039447334 -0.0016710696 2.8121065e-21)
(-0.00037929504 -0.0016469408 -7.3376894e-21)
(-0.00036465321 -0.0016237274 -9.4727056e-21)
(-0.00035051958 -0.0016013987 -4.475768e-21)
(-0.00033686752 -0.0015799255 -2.1749093e-21)
(-0.00032367192 -0.0015592803 6.2178144e-21)
(-0.00031090909 -0.0015394364 1.1754131e-20)
(-0.00029855666 -0.001520369 1.4904784e-20)
(-0.00028659351 -0.001502054 -5.087122e-21)
(-0.00027499967 -0.0014844688 7.2776933e-22)
(-0.00026375624 -0.0014675916 1.4257861e-20)
(-0.00025284535 -0.001451402 2.0334475e-21)
(-0.00024225005 -0.0014358802 -6.6072015e-21)
(-0.00023195428 -0.0014210075 -2.3594811e-20)
(-0.00022194284 -0.001406766 -2.1421746e-21)
(-0.00021220126 -0.0013931388 3.7477413e-22)
(-0.00020271585 -0.0013801096 5.4575785e-21)
(-0.0001934736 -0.0013676629 2.8700687e-21)
(-0.00018446217 -0.0013557838 -9.9257725e-22)
(-0.00017566987 -0.0013444582 7.3762884e-21)
(-0.00016708559 -0.0013336726 4.1002826e-21)
(-0.00015869882 -0.0013234141 1.6620484e-21)
(-0.00015049963 -0.0013136704 9.4308781e-21)
(-0.0001424786 -0.0013044297 2.7858749e-21)
(-0.00013462688 -0.0012956808 -1.1560755e-21)
(-0.00012693609 -0.0012874131 6.0168042e-22)
(-0.00011939837 -0.0012796165 1.0205214e-21)
(-0.00011200631 -0.0012722816 -2.6422566e-21)
(-0.00010475294 -0.0012653994 -3.5083782e-21)
(-9.7631697e-05 -0.0012589616 -5.0931164e-21)
(-9.0636405e-05 -0.0012529603 -2.3991697e-21)
(-8.3761207e-05 -0.0012473885 -1.3897407e-21)
(-7.7000534e-05 -0.0012422396 -1.7148103e-21)
(-7.0349042e-05 -0.0012375076 -1.8014234e-21)
(-6.3801545e-05 -0.0012331872 7.0434643e-21)
(-5.7352953e-05 -0.0012292739 1.0919621e-21)
(-5.0998187e-05 -0.0012257635 7.9384163e-21)
(-4.473211e-05 -0.0012226524 6.3069308e-21)
(-3.8549434e-05 -0.0012199377 1.9064583e-21)
(-3.244468e-05 -0.0012176168 3.678604e-21)
(-2.6412222e-05 -0.001215687 4.720267e-21)
(-2.0446173e-05 -0.0012141449 3.4684011e-21)
(-1.4538195e-05 -0.0012129837 3.1201529e-22)
(-8.6774614e-06 -0.0012121874 2.1397062e-21)
(-2.8715293e-06 -0.0012117326 2.8037361e-21)
(-0.0016248751 -0.0035813612 -2.8704554e-20)
(-0.0015468082 -0.0034795021 -1.3751017e-19)
(-0.0014734135 -0.0033821859 -1.987872e-19)
(-0.0014043501 -0.0032891691 -1.8017601e-21)
(-0.0013393057 -0.0032002239 1.7660349e-19)
(-0.0012779941 -0.0031151367 1.5518678e-19)
(-0.0012201524 -0.0030337074 4.1533133e-20)
(-0.001165539 -0.0029557481 3.367557e-20)
(-0.0011139318 -0.0028810828 -3.7751076e-20)
(-0.0010651261 -0.002809546 3.8210847e-20)
(-0.0010189334 -0.0027409824 2.6882943e-20)
(-0.00097517943 -0.0026752461 -2.7043936e-20)
(-0.00093370367 -0.0026121997 -6.8568717e-20)
(-0.00089435751 -0.0025517144 2.588026e-20)
(-0.00085700353 -0.0024936685 3.7533656e-20)
(-0.00082151445 -0.002437948 2.4511727e-20)
(-0.00078777235 -0.0023844449 7.8985224e-21)
(-0.00075566782 -0.0023330581 -1.5154389e-20)
(-0.00072509933 -0.0022836917 -1.2702149e-20)
(-0.00069597256 -0.0022362556 1.9247567e-20)
(-0.00066819977 -0.0021906648 1.19667e-20)
(-0.00064169938 -0.0021468389 9.9435643e-21)
(-0.00061639538 -0.002104702 -1.5642679e-20)
(-0.00059221697 -0.0020641826 1.1525483e-20)
(-0.00056909811 -0.0020252128 4.8681726e-20)
(-0.00054697719 -0.0019877287 2.0866507e-20)
(-0.00052579666 -0.0019516698 1.7120596e-20)
(-0.00050550275 -0.0019169786 -7.5275287e-22)
(-0.00048604518 -0.001883601 1.8614949e-21)
(-0.00046737688 -0.0018514857 1.2948869e-20)
(-0.00044945379 -0.0018205838 2.6393155e-20)
(-0.00043223463 -0.0017908495 3.1101433e-20)
(-0.00041568068 -0.0017622388 -7.9911397e-21)
(-0.00039975563 -0.0017347105 -3.1710091e-21)
(-0.00038442537 -0.0017082252 5.4394155e-22)
(-0.00036965786 -0.0016827456 1.1438931e-20)
(-0.00035542299 -0.0016582362 3.5697091e-22)
(-0.00034169243 -0.0016346636 -2.5113102e-20)
(-0.00032843951 -0.0016119957 7.0819557e-21)
(-0.00031563912 -0.0015902023 6.6746054e-21)
(-0.00030326756 -0.0015692545 1.435262e-20)
(-0.00029130251 -0.001549125 1.595218e-20)
(-0.00027972289 -0.0015297877 5.4778867e-21)
(-0.00026850879 -0.0015112179 -4.3670735e-21)
(-0.00025764138 -0.001493392 3.9886283e-21)
(-0.00024710285 -0.0014762876 1.8503759e-21)
(-0.00023687636 -0.0014598835 -5.9183258e-21)
(-0.00022694593 -0.0014441593 1.0722139e-20)
(-0.00021729643 -0.0014290956 2.377307e-21)
(-0.00020791349 -0.0014146741 -1.8707423e-21)
(-0.0001987835 -0.0014008771 1.5934312e-22)
(-0.00018989351 -0.0013876879 3.2897394e-21)
(-0.00018123126 -0.0013750905 -2.2044587e-22)
(-0.0001727851 -0.0013630696 2.1566846e-22)
(-0.00016454398 -0.0013516106 1.2037849e-20)
(-0.00015649744 -0.0013406994 1.1399154e-20)
(-0.00014863558 -0.0013303229 9.5430829e-21)
(-0.00014094903 -0.0013204682 6.5594353e-21)
(-0.00013342897 -0.0013111231 4.6612308e-21)
(-0.0001260671 -0.0013022761 2.8999793e-21)
(-0.00011885563 -0.0012939162 -2.0898986e-21)
(-0.00011178725 -0.0012860329 8.5684224e-22)
(-0.00010485512 -0.0012786164 -2.1183436e-21)
(-9.8052863e-05 -0.0012716573 3.8123934e-22)
(-9.1374524e-05 -0.0012651469 -1.2219572e-21)
(-8.4814537e-05 -0.0012590773 1.0444393e-21)
(-7.8367685e-05 -0.0012534411 8.3759405e-21)
(-7.2029046e-05 -0.0012482314 -2.7123102e-21)
(-6.5793928e-05 -0.0012434423 2.3899079e-21)
(-5.9657806e-05 -0.0012390683 3.472576e-21)
(-5.3616225e-05 -0.0012351049 3.002076e-21)
(-4.7664726e-05 -0.001231548 4.2683403e-21)
(-4.1798752e-05 -0.0012283943 4.2854818e-21)
(-3.6013521e-05 -0.0012256411 9.92953e-21)
(-3.0303974e-05 -0.0012232859 1.6222374e-21)
(-2.4664793e-05 -0.0012213268 3.9467635e-21)
(-1.9090263e-05 -0.0012197605 8.2241873e-21)
(-1.3572229e-05 -0.0012185807 2.1812649e-21)
(-8.1000717e-06 -0.0012177713 1.8459283e-21)
(-2.6802933e-06 -0.0012173091 5.8441188e-22)
(-0.0015186245 -0.0036399736 -1.1728828e-19)
(-0.0014453779 -0.0035345583 -1.9477857e-19)
(-0.0013765392 -0.0034339505 -2.0702987e-20)
(-0.001311785 -0.0033378841 7.4506182e-20)
(-0.0012508188 -0.0032461111 9.2451672e-20)
(-0.0011933693 -0.0031583994 1.0810505e-19)
(-0.0011391873 -0.003074532 -5.5203332e-20)
(-0.001088044 -0.0029943062 4.2871954e-20)
(-0.0010397291 -0.002917532 1.8265228e-20)
(-0.00099404906 -0.0028440315 4.5442544e-20)
(-0.00095082548 -0.0027736379 1.0171318e-19)
(-0.00090989392 -0.002706195 -1.8431413e-20)
(-0.00087110258 -0.002641556 -2.80008e-20)
(-0.0008343112 -0.0025795834 7.6891558e-20)
(-0.00079939009 -0.0025201477 4.5570535e-20)
(-0.00076621921 -0.0024631274 2.5471618e-20)
(-0.00073468737 -0.0024084082 -3.2909959e-20)
(-0.00070469146 -0.0023558827 -1.2519791e-20)
(-0.00067613583 -0.0023054496 2.5695207e-20)
(-0.00064893165 -0.0022570136 1.6277238e-20)
(-0.00062299634 -0.0022104849 1.3544211e-20)
(-0.00059825311 -0.002165779 -1.9190497e-21)
(-0.00057463047 -0.0021228158 5.4080279e-21)
(-0.00055206184 -0.0020815202 3.769679e-20)
(-0.00053048515 -0.0020418211 3.5398335e-20)
(-0.00050984248 -0.0020036512 1.3462718e-20)
(-0.00049007977 -0.0019669471 -1.6862903e-20)
(-0.00047114654 -0.0019316488 1.4001886e-20)
(-0.00045299556 -0.0018976997 1.3167117e-20)
(-0.00043558265 -0.001865046 3.1236007e-21)
(-0.00041886648 -0.0018336371 1.0260412e-20)
(-0.00040280831 -0.0018034248 4.6263388e-21)
(-0.00038737183 -0.0017743636 4.4331211e-21)
(-0.00037252299 -0.0017464104 3.7713127e-21)
(-0.00035822982 -0.0017195243 -1.1226887e-21)
(-0.0003444623 -0.0016936665 1.6604502e-21)
(-0.0003311922 -0.0016688003 6.8995016e-21)
(-0.00031839299 -0.0016448908 1.3840683e-21)
(-0.00030603969 -0.0016219049 9.3910429e-21)
(-0.00029410877 -0.0015998113 9.8496588e-21)
(-0.00028257806 -0.00157858 3.8970835e-21)
(-0.00027142667 -0.0015581829 5.2628546e-21)
(-0.00026063485 -0.0015385928 -1.0225484e-22)
(-0.00025018397 -0.0015197844 6.7479017e-21)
(-0.00024005641 -0.0015017332 -2.7977383e-21)
(-0.0002302355 -0.0014844163 6.780116e-21)
(-0.00022070546 -0.0014678115 6.2684261e-21)
(-0.00021145134 -0.0014518979 -1.4585118e-21)
(-0.00020245894 -0.0014366557 4.9351425e-21)
(-0.00019371482 -0.001422066 -3.3282364e-21)
(-0.0001852062 -0.0014081105 -1.7723387e-21)
(-0.00017692093 -0.001394772 -1.3803856e-21)
(-0.0001688475 -0.0013820341 -7.9502256e-21)
(-0.00016097497 -0.001369881 -1.1220069e-21)
(-0.00015329296 -0.0013582977 -8.5043371e-22)
(-0.00014579165 -0.0013472698 2.1586133e-21)
(-0.00013846175 -0.0013367835 -4.8942776e-21)
(-0.0001312945 -0.0013268257 3.6647124e-23)
(-0.00012428165 -0.0013173838 -4.4504599e-21)
(-0.00011741547 -0.0013084457 1.1161352e-21)
(-0.00011068875 -0.0013000002 -1.4277598e-21)
(-0.00010409476 -0.0012920363 4.9030958e-21)
(-9.7627243e-05 -0.0012845437 6.8775394e-21)
(-9.1280448e-05 -0.0012775128 4.9663972e-21)
(-8.5049047e-05 -0.0012709347 1.5473916e-21)
(-7.8928125e-05 -0.0012648008 5.7868451e-21)
(-7.2913151e-05 -0.0012591037 1.1544599e-21)
(-6.6999909e-05 -0.0012538362 7.7293355e-22)
(-6.118443e-05 -0.0012489922 6.2428463e-21)
(-5.546292e-05 -0.0012445664 -8.1541609e-22)
(-4.9831662e-05 -0.0012405539 8.0769083e-22)
(-4.4286905e-05 -0.0012369511 -7.6478466e-23)
(-3.8824755e-05 -0.0012337547 6.115582e-21)
(-3.3441035e-05 -0.0012309625 4.7535244e-21)
(-2.8131176e-05 -0.0012285724 2.9339435e-21)
(-2.2890208e-05 -0.0012265828 8.4230838e-22)
(-1.7712609e-05 -0.0012249913 -2.0918257e-21)
(-1.2590367e-05 -0.0012237918 -7.613592e-23)
(-7.5129909e-06 -0.0012229687 -2.3337546e-22)
(-2.4858088e-06 -0.0012224985 -5.2263881e-21)
(-0.0014087729 -0.0036948238 1.4690904e-19)
(-0.0013406171 -0.0035860608 -4.9622162e-20)
(-0.001276582 -0.0034823559 1.0893501e-19)
(-0.0012163632 -0.0033834218 -1.7549494e-19)
(-0.0011596826 -0.0032889908 -1.2574218e-19)
(-0.0011062852 -0.0031988133 1.5938982e-20)
(-0.0010559373 -0.0031126566 -1.0140003e-20)
(-0.0010084245 -0.0030303032 1.1895276e-19)
(-0.00096354944 -0.0029515503 -2.6099716e-20)
(-0.00092113085 -0.002876208 -7.5549583e-20)
(-0.00088100169 -0.0028040988 5.069568e-20)
(-0.00084300801 -0.0027350566 -1.6886365e-20)
(-0.00080700775 -0.0026689257 2.6107957e-20)
(-0.00077286975 -0.0026055602 5.337285e-21)
(-0.00074047274 -0.0025448234 -2.5610312e-20)
(-0.00070970453 -0.0024865868 -2.3097161e-20)
(-0.00068046123 -0.0024307299 -4.845445e-20)
(-0.00065264654 -0.0023771395 7.5886066e-21)
(-0.00062617116 -0.002325709 2.5672361e-20)
(-0.00060095217 -0.0022763385 -1.9681452e-20)
(-0.00057691254 -0.0022289335 -1.0589832e-20)
(-0.00055398063 -0.0021834055 -7.508555e-21)
(-0.00053208978 -0.0021396707 1.9079154e-20)
(-0.00051117793 -0.0020976505 -1.0396283e-20)
(-0.00049118721 -0.0020572705 -9.2544099e-21)
(-0.0004720637 -0.0020184606 -9.5997389e-21)
(-0.00045375701 -0.0019811546 -1.680278e-20)
(-0.00043622013 -0.0019452901 4.1345947e-20)
(-0.00041940911 -0.0019108081 1.3952753e-20)
(-0.00040328283 -0.0018776526 -1.243159e-20)
(-0.00038780282 -0.001845771 -1.5108195e-20)
(-0.00037293304 -0.0018151134 -1.1951038e-20)
(-0.00035863973 -0.0017856324 9.7356383e-21)
(-0.00034489122 -0.0017572834 -1.1581325e-20)
(-0.00033165779 -0.0017300241 -1.5813603e-20)
(-0.00031891152 -0.0017038142 -3.0471965e-21)
(-0.0003066262 -0.0016786159 7.8984796e-21)
(-0.00029477716 -0.0016543929 8.2108537e-21)
(-0.0002833412 -0.0016311112 -1.8560723e-20)
(-0.00027229647 -0.0016087383 2.0028239e-21)
(-0.00026162238 -0.0015872434 1.6994088e-20)
(-0.00025129951 -0.0015665973 1.721571e-20)
(-0.00024130955 -0.0015467723 3.5341335e-21)
(-0.00023163518 -0.0015277421 4.1304575e-21)
(-0.00022226005 -0.0015094817 -1.2293237e-21)
(-0.00021316867 -0.0014919671 7.2161092e-21)
(-0.00020434639 -0.001475176 5.361083e-21)
(-0.00019577929 -0.0014590868 -3.7737838e-21)
(-0.0001874542 -0.001443679 6.4073432e-21)
(-0.00017935858 -0.0014289332 -5.1844501e-21)
(-0.00017148053 -0.0014148308 -5.4035595e-21)
(-0.00016380873 -0.0014013541 -4.0885066e-21)
(-0.00015633243 -0.0013884863 7.4683326e-21)
(-0.0001490414 -0.0013762111 7.0961826e-21)
(-0.00014192596 -0.0013645131 -6.4222803e-21)
(-0.00013497693 -0.0013533775 6.2800243e-22)
(-0.00012818563 -0.0013427901 -5.2723359e-21)
(-0.00012154389 -0.0013327375 -2.7067706e-21)
(-0.00011504406 -0.0013232065 -3.6029428e-21)
(-0.00010867897 -0.0013141848 3.6224542e-21)
(-0.00010244198 -0.0013056606 1.1026768e-20)
(-9.6326954e-05 -0.0012976225 5.7261966e-21)
(-9.0328258e-05 -0.0012900599 1.4203466e-20)
(-8.4440748e-05 -0.0012829628 1.2774752e-20)
(-7.865976e-05 -0.0012763217 8.1590174e-21)
(-7.298108e-05 -0.0012701279 6.7359549e-21)
(-6.7400902e-05 -0.0012643736 4.5830039e-21)
(-6.1915777e-05 -0.0012590513 -2.4765997e-21)
(-5.6522541e-05 -0.0012541549 -1.9059624e-21)
(-5.1218234e-05 -0.0012496787 -2.9469951e-21)
(-4.5999972e-05 -0.0012456183 2.7251373e-21)
(-4.0864834e-05 -0.0012419697 2.1672738e-21)
(-3.5809707e-05 -0.0012387304 1.0390323e-20)
(-3.0831131e-05 -0.0012358981 3.0208811e-21)
(-2.5925137e-05 -0.0012334718 4.9576708e-21)
(-2.1087172e-05 -0.0012314502 2.8557844e-23)
(-1.6311932e-05 -0.0012298318 -4.1236694e-21)
(-1.1591529e-05 -0.0012286111 1.1096534e-21)
(-6.9154983e-06 -0.001227773 -1.6233836e-22)
(-2.2878217e-06 -0.0012272942 -5.317006e-21)
(-0.0012955472 -0.0037456792 -5.6682518e-20)
(-0.0012327376 -0.0036337972 -1.3183098e-20)
(-0.0011737389 -0.0035272082 1.0451268e-20)
(-0.0011182687 -0.0034256046 -1.3166293e-19)
(-0.0010660686 -0.0033287004 3.0920193e-20)
(-0.0010169021 -0.0032362294 5.3935494e-20)
(-0.00097055245 -0.003147944 8.2171243e-20)
(-0.00092682063 -0.0030636132 1.5092585e-19)
(-0.00088552392 -0.0029830219 6.4595662e-20)
(-0.00084649426 -0.002905969 -5.1052227e-21)
(-0.00080957694 -0.0028322669 2.6567923e-20)
(-0.00077462943 -0.0027617402 8.6151033e-20)
(-0.00074152023 -0.0026942249 3.3768708e-20)
(-0.00071012797 -0.0026295674 -1.8609651e-20)
(-0.00068034047 -0.002567624 7.44839e-21)
(-0.00065205397 -0.0025082598 2.2058467e-20)
(-0.00062517243 -0.0024513484 3.4890366e-20)
(-0.00059960686 -0.0023967713 1.767456e-20)
(-0.00057527473 -0.002344417 7.8390393e-21)
(-0.00055209945 -0.0022941809 3.905203e-20)
(-0.00053000987 -0.0022459646 2.7438934e-20)
(-0.00050893986 -0.0021996756 4.7441574e-20)
(-0.00048882788 -0.0021552268 3.2691596e-20)
(-0.00046961665 -0.0021125361 -2.0963267e-20)
(-0.00045125281 -0.0020715263 1.87033e-20)
(-0.00043368657 -0.0020321246 4.6825119e-20)
(-0.00041687151 -0.0019942622 2.9019626e-20)
(-0.00040076426 -0.0019578743 1.513703e-20)
(-0.00038532429 -0.0019228997 -5.2814e-21)
(-0.00037051373 -0.0018892806 1.5740577e-20)
(-0.00035629712 -0.0018569624 2.0022581e-20)
(-0.00034264125 -0.0018258934 1.9846231e-20)
(-0.00032951503 -0.0017960248 2.092999e-20)
(-0.00031688929 -0.0017673105 1.6527843e-20)
(-0.00030473666 -0.0017397066 1.3918935e-20)
(-0.00029303145 -0.0017131719 -5.7299801e-23)
(-0.00028174951 -0.001687667 6.5836866e-21)
(-0.00027086815 -0.0016631549 1.2896651e-20)
(-0.00026036602 -0.0016396003 -3.9363363e-21)
(-0.00025022301 -0.0016169698 2.5970705e-21)
(-0.00024042018 -0.0015952318 9.3824493e-21)
(-0.00023093967 -0.0015743564 -2.012576e-21)
(-0.00022176463 -0.0015543149 5.9606077e-21)
(-0.00021287912 -0.0015350803 -8.2797767e-22)
(-0.00020426812 -0.001516627 6.3955599e-21)
(-0.00019591736 -0.0014989306 -3.8731844e-22)
(-0.00018781335 -0.001481968 1.3470083e-20)
(-0.00017994328 -0.0014657171 6.4969883e-21)
(-0.00017229499 -0.001450157 1.0554399e-20)
(-0.00016485691 -0.0014352678 1.0386619e-20)
(-0.00015761804 -0.0014210306 1.743294e-21)
(-0.0001505679 -0.0014074271 6.7058164e-21)
(-0.00014369651 -0.0013944402 2.0955888e-20)
(-0.00013699438 -0.0013820532 1.6870852e-21)
(-0.00013045251 -0.0013702505 2.5110849e-21)
(-0.00012406235 -0.0013590167 5.7244066e-21)
(-0.00011781585 -0.0013483373 1.017559e-20)
(-0.00011170542 -0.0013381984 6.0677693e-21)
(-0.00010572398 -0.0013285866 6.2143112e-21)
(-9.9864932e-05 -0.001319489 1.0617968e-20)
(-9.412221e-05 -0.0013108933 1.4614268e-20)
(-8.8490263e-05 -0.001302788 1.220995e-20)
(-8.2964063e-05 -0.0012951617 1.0062306e-20)
(-7.7539112e-05 -0.0012880041 9.8256444e-21)
(-7.2211428e-05 -0.0012813054 6.1843576e-21)
(-6.6977525e-05 -0.0012750563 7.2979457e-21)
(-6.1834385e-05 -0.0012692487 8.2708666e-21)
(-5.6779393e-05 -0.0012638749 7.2376588e-21)
(-5.1810273e-05 -0.0012589284 -1.3010211e-21)
(-4.6924995e-05 -0.0012544035 9.8212991e-21)
(-4.2121648e-05 -0.0012502958 1.2718999e-20)
(-3.7398282e-05 -0.0012466015 1.0792897e-20)
(-3.2752728e-05 -0.0012433183 4.8317247e-21)
(-2.8182399e-05 -0.0012404446 4.2470363e-21)
(-2.3684071e-05 -0.00123798 -2.1407606e-22)
(-1.9253731e-05 -0.0012359241 -4.6784817e-21)
(-1.488635e-05 -0.0012342763 6.4071152e-22)
(-1.0574138e-05 -0.0012330322 2.4974059e-21)
(-6.3065334e-06 -0.0012321774 6.1795336e-22)
(-2.0859563e-06 -0.0012316889 -3.5231418e-21)
(-0.0011791956 -0.0037923218 -9.6889093e-20)
(-0.0011219695 -0.0036775686 -1.0865416e-19)
(-0.0010682242 -0.0035683256 -1.7785621e-19)
(-0.0010177007 -0.0034642662 -9.7135863e-21)
(-0.00097016245 -0.0033650875 9.8950294e-20)
(-0.00092539298 -0.003270508 7.9326305e-20)