/*--------------------------------*- C++ -*----------------------------------*\
| =========                 |                                                 |
| \\      /  F ield         | OpenFOAM: The Open Source CFD Toolbox           |
|  \\    /   O peration     | Version:  2106                                  |
|   \\  /    A nd           | Website:  www.openfoam.com                      |
|    \\/     M anipulation  |                                                 |
\*---------------------------------------------------------------------------*/
FoamFile
{
    version     2.0;
    format      ascii;
    arch        "LSB;label=32;scalar=64";
    class       surfaceScalarField;
    location    "0.048";
    object      phi_0;
}
// * * * * * * * * * * * * * * * * * * * * * * * * * * * * * * * * * * * * * //

dimensions      [0 3 -1 0 0 0 0];

oriented        oriented;

internalField   nonuniform List<scalar> 
32512
(
-7.2233043e-06
7.2233042e-06
-1.4429573e-05
7.2062687e-06
-2.1601808e-05
7.1722352e-06
-2.8723087e-05
7.1212783e-06
-3.5776596e-05
7.05351e-06
-4.2745676e-05
6.9690793e-06
-4.9613848e-05
6.8681722e-06
-5.6364859e-05
6.7510111e-06
-6.2982714e-05
6.617855e-06
-6.9451712e-05
6.4689985e-06
-7.5756484e-05
6.3047718e-06
-8.1882024e-05
6.1255402e-06
-8.7813728e-05
5.9317033e-06
-9.3537422e-05
5.7236944e-06
-9.9039402e-05
5.50198e-06
-0.00010430646
5.267059e-06
-0.00010932592
5.0194615e-06
-0.00011408567
4.7597484e-06
-0.00011857418
4.4885099e-06
-0.00012278055
4.2063648e-06
-0.0001266945
3.9139591e-06
-0.00013030647
3.611965e-06
-0.00013360755
3.3010792e-06
-0.00013658957
2.9820219e-06
-0.00013924511
2.6555351e-06
-0.00014156749
2.3223813e-06
-0.00014355083
1.9833413e-06
-0.00014519004
1.6392133e-06
-0.00014648085
1.2908105e-06
-0.00014741981
9.3895948e-07
-0.00014800431
5.844972e-07
-0.00014823258
2.2827471e-07
-0.00014810373
-1.288546e-07
-0.0001476177
-4.8603043e-07
-0.00014677531
-8.4238797e-07
-0.00014557825
-1.1970614e-06
-0.00014402906
-1.5491859e-06
-0.00014213116
-1.8978996e-06
-0.00013988882
-2.2423459e-06
-0.00013730714
-2.5816755e-06
-0.00013439209
-2.9150489e-06
-0.00013115046
-3.2416383e-06
-0.00012758983
-3.5606301e-06
-0.0001237186
-3.8712268e-06
-0.00011954595
-4.1726496e-06
-0.00011508181
-4.4641402e-06
-0.00011033685
-4.744963e-06
-0.00010532244
-5.0144074e-06
-0.00010005065
-5.2717894e-06
-9.4534195e-05
-5.5164541e-06
-8.8786417e-05
-5.7477772e-06
-8.282125e-05
-5.965167e-06
-7.6653184e-05
-6.1680661e-06
-7.0297231e-05
-6.3559533e-06
-6.3768886e-05
-6.5283449e-06
-5.708409e-05
-6.684796e-06
-5.0259188e-05
-6.8249025e-06
-4.3310886e-05
-6.9483018e-06
-3.6256212e-05
-7.0546742e-06
-2.9112468e-05
-7.1437435e-06
-2.1897189e-05
-7.2152785e-06
-1.4628096e-05
-7.2690933e-06
-7.3230484e-06
-7.3050478e-06
1.1152355e-13
-7.3230485e-06
7.3230486e-06
-7.3230485e-06
1.4628096e-05
-7.3050478e-06
2.189719e-05
-7.2690933e-06
2.9112468e-05
-7.2152785e-06
3.6256212e-05
-7.1437435e-06
4.3310886e-05
-7.0546742e-06
5.0259188e-05
-6.9483018e-06
5.708409e-05
-6.8249025e-06
6.3768886e-05
-6.684796e-06
7.0297231e-05
-6.5283448e-06
7.6653184e-05
-6.3559533e-06
8.2821251e-05
-6.1680661e-06
8.8786418e-05
-5.965167e-06
9.4534195e-05
-5.7477772e-06
0.00010005065
-5.5164541e-06
0.00010532244
-5.2717894e-06
0.00011033685
-5.0144074e-06
0.00011508181
-4.744963e-06
0.00011954595
-4.4641402e-06
0.0001237186
-4.1726496e-06
0.00012758983
-3.8712268e-06
0.00013115046
-3.5606301e-06
0.00013439209
-3.2416383e-06
0.00013730714
-2.9150489e-06
0.00013988882
-2.5816755e-06
0.00014213116
-2.2423459e-06
0.00014402906
-1.8978996e-06
0.00014557825
-1.5491859e-06
0.00014677531
-1.1970614e-06
0.0001476177
-8.4238796e-07
0.00014810373
-4.8603041e-07
0.00014823258
-1.2885459e-07
0.00014800431
2.2827472e-07
0.00014741981
5.8449721e-07
0.00014648085
9.389595e-07
0.00014519004
1.2908105e-06
0.00014355083
1.6392133e-06
0.00014156749
1.9833413e-06
0.00013924511
2.3223813e-06
0.00013658957
2.6555351e-06
0.00013360755
2.9820219e-06
0.00013030647
3.3010792e-06
0.0001266945
3.611965e-06
0.00012278055
3.9139591e-06
0.00011857418
4.2063648e-06
0.00011408567
4.4885099e-06
0.00010932592
4.7597484e-06
0.00010430646
5.0194615e-06
9.9039402e-05
5.267059e-06
9.3537422e-05
5.50198e-06
8.7813728e-05
5.7236944e-06
8.1882024e-05
5.9317033e-06
7.5756484e-05
6.1255402e-06
6.9451712e-05
6.3047718e-06
6.2982714e-05
6.4689985e-06
5.6364859e-05
6.617855e-06
4.9613848e-05
6.7510111e-06
4.2745676e-05
6.8681722e-06
3.5776596e-05
6.9690793e-06
2.8723086e-05
7.05351e-06
2.1601808e-05
7.1212783e-06
1.4429573e-05
7.1722352e-06
7.2233041e-06
7.2062687e-06
7.2233042e-06
-7.242169e-06
1.4465473e-05
-1.4467259e-05
1.4431359e-05
-2.1658229e-05
1.4363205e-05
-2.8798112e-05
1.4261161e-05
-3.5870054e-05
1.4125452e-05
-4.285735e-05
1.3956375e-05
-4.9743482e-05
1.3754304e-05
-5.6512153e-05
1.3519683e-05
-6.3147328e-05
1.325303e-05
-6.9633267e-05
1.2954937e-05
-7.5954558e-05
1.2626063e-05
-8.2096158e-05
1.2267141e-05
-8.8043425e-05
1.187897e-05
-9.3782149e-05
1.1462418e-05
-9.9298589e-05
1.101842e-05
-0.0001045795
1.0547973e-05
-0.00010961218
1.005214e-05
-0.00011438448
9.5320443e-06
-0.00011888483
8.9888668e-06
-0.00012310232
8.423847e-06
-0.00012702664
7.8382784e-06
-0.00013064818
7.2335071e-06
-0.00013395803
6.6109283e-06
-0.00013694799
5.9719842e-06
-0.00013961062
5.3181608e-06
-0.00014193922
4.6509845e-06
-0.0001439279
3.9720196e-06
-0.00014557155
3.282864e-06
-0.00014686588
2.5851465e-06
-0.00014780745
1.8805222e-06
-0.00014839362
1.1706693e-06
-0.00014862263
4.5728734e-07
-0.00014849357
-2.5791162e-07
-0.0001480064
-9.7320419e-07
-0.00014716193
-1.6868592e-06
-0.00014596185
-2.3971428e-06
-0.00014440871
-3.1023231e-06
-0.00014250594
-3.8006739e-06
-0.0001402578
-4.4904798e-06
-0.00013766944
-5.17004e-06
-0.00013474681
-5.837673e-06
-0.00013149673
-6.4917212e-06
-0.00012792681
-7.1305549e-06
-0.00012404546
-7.7525773e-06
-0.00011986188
-8.3562283e-06
-0.00011538603
-8.9399894e-06
-0.0001106286
-9.5023873e-06
-0.00010560101
-1.0041999e-05
-0.00010031535
-1.0557454e-05
-9.4784361e-05
-1.1047441e-05
-8.9021428e-05
-1.151071e-05
-8.304052e-05
-1.1946075e-05
-7.6856166e-05
-1.235242e-05
-7.0483417e-05
-1.2728702e-05
-6.3937811e-05
-1.3073951e-05
-5.7235331e-05
-1.3387276e-05
-5.0392365e-05
-1.3667868e-05
-4.3425666e-05
-1.3915001e-05
-3.6352306e-05
-1.4128034e-05
-2.9189635e-05
-1.4306414e-05
-2.1955235e-05
-1.4449678e-05
-1.4666875e-05
-1.4557454e-05
-7.342462e-06
-1.462946e-05
1.1142366e-13
-1.4665511e-05
7.3424623e-06
-1.4665511e-05
1.4666875e-05
-1.462946e-05
2.1955235e-05
-1.4557454e-05
2.9189635e-05
-1.4449678e-05
3.6352306e-05
-1.4306414e-05
4.3425666e-05
-1.4128034e-05
5.0392365e-05
-1.3915001e-05
5.7235331e-05
-1.3667868e-05
6.3937811e-05
-1.3387276e-05
7.0483417e-05
-1.3073951e-05
7.6856166e-05
-1.2728702e-05
8.304052e-05
-1.235242e-05
8.9021428e-05
-1.1946075e-05
9.4784361e-05
-1.151071e-05
0.00010031535
-1.1047441e-05
0.00010560101
-1.0557454e-05
0.0001106286
-1.0041999e-05
0.00011538603
-9.5023873e-06
0.00011986188
-8.9399894e-06
0.00012404546
-8.3562283e-06
0.00012792681
-7.7525773e-06
0.00013149673
-7.1305549e-06
0.00013474681
-6.4917211e-06
0.00013766944
-5.837673e-06
0.0001402578
-5.17004e-06
0.00014250594
-4.4904798e-06
0.00014440871
-3.8006739e-06
0.00014596185
-3.102323e-06
0.00014716193
-2.3971428e-06
0.0001480064
-1.6868591e-06
0.00014849357
-9.7320416e-07
0.00014862263
-2.579116e-07
0.00014839362
4.5728736e-07
0.00014780745
1.1706694e-06
0.00014686588
1.8805222e-06
0.00014557155
2.5851465e-06
0.0001439279
3.2828641e-06
0.00014193922
3.9720196e-06
0.00013961062
4.6509846e-06
0.00013694799
5.3181608e-06
0.00013395803
5.9719843e-06
0.00013064818
6.6109283e-06
0.00012702664
7.2335071e-06
0.00012310232
7.8382785e-06
0.00011888483
8.423847e-06
0.00011438448
8.9888668e-06
0.00010961218
9.5320443e-06
0.0001045795
1.005214e-05
9.9298588e-05
1.0547973e-05
9.3782149e-05
1.101842e-05
8.8043425e-05
1.1462418e-05
8.2096158e-05
1.187897e-05
7.5954558e-05
1.2267141e-05
6.9633266e-05
1.2626063e-05
6.3147328e-05
1.2954937e-05
5.6512153e-05
1.325303e-05
4.9743482e-05
1.3519683e-05
4.285735e-05
1.3754304e-05
3.5870054e-05
1.3956375e-05
2.8798112e-05
1.4125452e-05
2.1658229e-05
1.4261161e-05
1.4467259e-05
1.4363205e-05
7.2421688e-06
1.4431359e-05
1.4465473e-05
-7.2717036e-06
2.1737177e-05
-1.4526259e-05
2.1685915e-05
-2.1746558e-05
2.1583503e-05
-2.8915563e-05
2.1430167e-05
-3.6016354e-05
2.1226243e-05
-4.3032157e-05
2.0972179e-05
-4.9946389e-05
2.0668535e-05
-5.6742686e-05
2.031598e-05
-6.3404948e-05
1.9915292e-05
-6.991737e-05
1.9467359e-05
-7.6264481e-05
1.8973174e-05
-8.2431175e-05
1.8433834e-05
-8.8402748e-05
1.7850544e-05
-9.4164936e-05
1.7224605e-05
-9.9703939e-05
1.6557423e-05
-0.00010500646
1.5850497e-05
-0.00011005974
1.5105423e-05
-0.00011485159
1.4323887e-05
-0.00011937039
1.3507667e-05
-0.00012360516
1.2658624e-05
-0.00012754559
1.1778701e-05
-0.000131182
1.0869921e-05
-0.00013450545
9.9343814e-06
-0.00013750772
8.9742482e-06
-0.00014018131
7.9917547e-06
-0.00014251952
6.9891947e-06
-0.00014451642
5.9689186e-06
-0.00014616688
4.9333277e-06
-0.00014746661
3.8848693e-06
-0.00014841212
2.826031e-06
-0.00014900078
1.7593351e-06
-0.00014923083
6.8733346e-07
-0.00014910134
-3.8740014e-07
-0.00014861227
-1.4622754e-06
-0.00014776444
-2.5346911e-06
-0.00014655954
-3.6020421e-06
-0.00014500013
-4.6617256e-06
-0.00014308966
-5.711148e-06
-0.00014083241
-6.7477311e-06
-0.00013823353
-7.7689192e-06
-0.00013529902
-8.7721856e-06
-0.0001320357
-9.7550392e-06
-0.00012845122
-1.0715031e-05
-0.00012455404
-1.1649762e-05
-0.00012035338
-1.2556886e-05
-0.00011585925
-1.3434123e-05
-0.00011108238
-1.4279258e-05
-0.00010603422
-1.5090152e-05
-0.00010072693
-1.5864747e-05
-9.51733e-05
-1.6601071e-05
-8.9386765e-05
-1.7297245e-05
-8.3381351e-05
-1.7951488e-05
-7.7171649e-05
-1.8562123e-05
-7.077277e-05
-1.912758e-05
-6.4200318e-05
-1.9646404e-05
-5.7470339e-05
-2.0117254e-05
-5.0599292e-05
-2.0538916e-05
-4.3603997e-05
-2.0910296e-05
-3.6501599e-05
-2.1230433e-05
-2.9309518e-05
-2.1498495e-05
-2.2045409e-05
-2.1713787e-05
-1.4727116e-05
-2.1875747e-05
-7.3726202e-06
-2.1983956e-05
1.1114695e-13
-2.2038131e-05
7.3726204e-06
-2.2038131e-05
1.4727116e-05
-2.1983956e-05
2.204541e-05
-2.1875747e-05
2.9309518e-05
-2.1713787e-05
3.6501599e-05
-2.1498495e-05
4.3603998e-05
-2.1230433e-05
5.0599292e-05
-2.0910296e-05
5.747034e-05
-2.0538916e-05
6.4200318e-05
-2.0117254e-05
7.077277e-05
-1.9646404e-05
7.7171649e-05
-1.912758e-05
8.3381352e-05
-1.8562123e-05
8.9386765e-05
-1.7951488e-05
9.51733e-05
-1.7297245e-05
0.00010072693
-1.6601071e-05
0.00010603422
-1.5864747e-05
0.00011108238
-1.5090152e-05
0.00011585925
-1.4279258e-05
0.00012035338
-1.3434123e-05
0.00012455404
-1.2556886e-05
0.00012845122
-1.1649762e-05
0.0001320357
-1.0715031e-05
0.00013529902
-9.7550392e-06
0.00013823353
-8.7721856e-06
0.00014083241
-7.7689192e-06
0.00014308966
-6.7477311e-06
0.00014500013
-5.7111479e-06
0.00014655954
-4.6617256e-06
0.00014776444
-3.6020421e-06
0.00014861227
-2.5346911e-06
0.00014910134
-1.4622754e-06
0.00014923083
-3.8740011e-07
0.00014900078
6.8733349e-07
0.00014841212
1.7593352e-06
0.00014746661
2.8260311e-06
0.00014616688
3.8848694e-06
0.00014451642
4.9333278e-06
0.00014251952
5.9689186e-06
0.00014018131
6.9891948e-06
0.00013750772
7.9917547e-06
0.00013450545
8.9742482e-06
0.000131182
9.9343814e-06
0.00012754559
1.0869921e-05
0.00012360516
1.1778701e-05
0.00011937039
1.2658624e-05
0.00011485159
1.3507667e-05
0.00011005974
1.4323887e-05
0.00010500646
1.5105423e-05
9.9703939e-05
1.5850497e-05
9.4164935e-05
1.6557423e-05
8.8402748e-05
1.7224605e-05
8.2431174e-05
1.7850544e-05
7.6264481e-05
1.8433834e-05
6.991737e-05
1.8973174e-05
6.3404948e-05
1.9467359e-05
5.6742686e-05
1.9915292e-05
4.9946388e-05
2.031598e-05
4.3032157e-05
2.0668535e-05
3.6016354e-05
2.0972179e-05
2.8915563e-05
2.1226243e-05
2.1746557e-05
2.1430167e-05
1.4526259e-05
2.1583503e-05
7.2717034e-06
2.1685915e-05
2.1737177e-05
-7.3121444e-06
2.9049321e-05
-1.4607046e-05
2.8980816e-05
-2.1867501e-05
2.8843958e-05
-2.907638e-05
2.8639046e-05
-3.6216666e-05
2.836653e-05
-4.3271496e-05
2.8027009e-05
-5.0224192e-05
2.762123e-05
-5.7058301e-05
2.7150089e-05
-6.3757633e-05
2.6614625e-05
-7.0306297e-05
2.6016023e-05
-7.6688733e-05
2.535561e-05
-8.2889753e-05
2.4634854e-05
-8.8894572e-05
2.3855363e-05
-9.4688844e-05
2.3018878e-05
-0.0001002587
2.2127274e-05
-0.00010559075
2.1182557e-05
-0.00011067219
2.0186858e-05
-0.00011549074
1.9142433e-05
-0.00012003472
1.8051654e-05
-0.00012429311
1.691701e-05
-0.00012825551
1.5741098e-05
-0.00013191221
1.4526621e-05
-0.0001352542
1.327638e-05
-0.00013827323
1.1993273e-05
-0.00014096176
1.0680282e-05
-0.00014331303
9.3404728e-06
-0.0001453211
7.976987e-06
-0.00014698081
6.5930334e-06
-0.00014828782
5.1918827e-06
-0.00014923865
3.7768591e-06
-0.00014983065
2.3513337e-06
-0.00015006203
9.187161e-07
-0.00014993188
-5.1755391e-07
-0.00014944014
-1.9540143e-06
-0.00014858764
-3.387189e-06
-0.00014737609
-4.8135965e-06
-0.00014580805
-6.2297585e-06
-0.00014388699
-7.632209e-06
-0.00014161722
-9.0175025e-06
-0.00013900392
-1.0382224e-05
-0.00013605311
-1.1722996e-05
-0.00013277166
-1.3036489e-05
-0.00012916726
-1.4319432e-05
-0.0001252484
-1.5568617e-05
-0.00012102438
-1.678091e-05
-0.00011650524
-1.7953263e-05
-0.00011170178
-1.9082716e-05
-0.00010662552
-2.016641e-05
-0.00010128867
-2.1201594e-05
-9.5704111e-05
-2.2185635e-05
-8.9885337e-05
-2.3116019e-05
-8.3846458e-05
-2.3990367e-05
-7.7602145e-05
-2.4806437e-05
-7.1167595e-05
-2.5562131e-05
-6.4558496e-05
-2.6255502e-05
-5.7790987e-05
-2.6884763e-05
-5.0881617e-05
-2.7448286e-05
-4.3847301e-05
-2.7944612e-05
-3.6705279e-05
-2.8372455e-05
-2.9473071e-05
-2.8730703e-05
-2.216843e-05
-2.9018427e-05
-1.4809299e-05
-2.9234878e-05
-7.4137629e-06
-2.9379492e-05
1.1068914e-13
-2.9451894e-05
7.4137632e-06
-2.9451894e-05
1.48093e-05
-2.9379492e-05
2.216843e-05
-2.9234878e-05
2.9473071e-05
-2.9018427e-05
3.6705279e-05
-2.8730703e-05
4.3847301e-05
-2.8372455e-05
5.0881617e-05
-2.7944612e-05
5.7790987e-05
-2.7448286e-05
6.4558496e-05
-2.6884763e-05
7.1167595e-05
-2.6255502e-05
7.7602145e-05
-2.5562131e-05
8.3846459e-05
-2.4806437e-05
8.9885337e-05
-2.3990367e-05
9.5704111e-05
-2.3116019e-05
0.00010128867
-2.2185635e-05
0.00010662552
-2.1201594e-05
0.00011170178
-2.016641e-05
0.00011650524
-1.9082716e-05
0.00012102438
-1.7953263e-05
0.0001252484
-1.678091e-05
0.00012916726
-1.5568616e-05
0.00013277166
-1.4319432e-05
0.00013605311
-1.3036489e-05
0.00013900392
-1.1722995e-05
0.00014161722
-1.0382224e-05
0.00014388699
-9.0175024e-06
0.00014580805
-7.6322089e-06
0.00014737609
-6.2297585e-06
0.00014858764
-4.8135965e-06
0.00014944014
-3.387189e-06
0.00014993188
-1.9540143e-06
0.00015006203
-5.1755387e-07
0.00014983065
9.1871614e-07
0.00014923865
2.3513338e-06
0.00014828782
3.7768592e-06
0.00014698081
5.1918827e-06
0.0001453211
6.5930335e-06
0.00014331303
7.976987e-06
0.00014096176
9.3404729e-06
0.00013827323
1.0680282e-05
0.0001352542
1.1993273e-05
0.00013191221
1.3276381e-05
0.00012825551
1.4526621e-05
0.00012429311
1.5741098e-05
0.00012003472
1.691701e-05
0.00011549074
1.8051654e-05
0.00011067219
1.9142433e-05
0.00010559075
2.0186858e-05
0.00010025869
2.1182557e-05
9.4688844e-05
2.2127274e-05
8.8894572e-05
2.3018878e-05
8.2889753e-05
2.3855363e-05
7.6688733e-05
2.4634854e-05
7.0306296e-05
2.535561e-05
6.3757633e-05
2.6016023e-05
5.7058301e-05
2.6614625e-05
5.0224191e-05
2.7150089e-05
4.3271496e-05
2.762123e-05
3.6216666e-05
2.8027009e-05
2.907638e-05
2.836653e-05
2.1867501e-05
2.8639046e-05
1.4607046e-05
2.8843958e-05
7.3121442e-06
2.8980816e-05
2.9049321e-05
-7.3636704e-06
3.6412991e-05
-1.4709977e-05
3.6327123e-05
-2.2021595e-05
3.6155576e-05
-2.9281274e-05
3.5898725e-05
-3.6471879e-05
3.5557135e-05
-4.3576426e-05
3.5131556e-05
-5.0578121e-05
3.4622925e-05
-5.7460396e-05
3.4032364e-05
-6.4206946e-05
3.3361175e-05
-7.0801767e-05
3.2610844e-05
-7.7229192e-05
3.1783034e-05
-8.3473924e-05
3.0879586e-05
-8.9521074e-05
2.9902513e-05
-9.5356195e-05
2.8853998e-05
-0.00010096531
2.7736393e-05
-0.00010633497
2.655221e-05
-0.00011145223
2.5304122e-05
-0.00011630475
2.3994954e-05
-0.00012088078
2.2627683e-05
-0.0001251692
2.1205425e-05
-0.00012915954
1.9731438e-05
-0.00013284202
1.8209109e-05
-0.00013620759
1.664195e-05
-0.00013924791
1.5033591e-05
-0.0001419554
1.3387772e-05
-0.00014432327
1.1708337e-05
-0.0001463455
9.9992223e-06
-0.00014801692
8.2644506e-06
-0.00014933316
6.5081216e-06
-0.0001502907
4.7344024e-06
-0.00015088689
2.9475185e-06
-0.00015111991
1.1517437e-06
-0.00015098886
-6.4861028e-07
-0.00015049367
-2.4492037e-06
-0.00014963518
-4.2456793e-06
-0.0001484151
-6.0336732e-06
-0.00014683603
-7.8088255e-06
-0.00014490145
-9.5667914e-06
-0.0001426157
-1.1303252e-05
-0.000139984
-1.3013927e-05
-0.00013701241
-1.4694584e-05
-0.00013370785
-1.6341048e-05
-0.00013007806
-1.7949218e-05
-0.00012613161
-1.9515075e-05
-0.00012187783
-2.103469e-05
-0.00011732685
-2.250424e-05
-0.00011248955
-2.3920018e-05
-0.00010737752
-2.5278438e-05
-0.00010200306
-2.6576053e-05
-9.6379135e-05
-2.7809559e-05
-9.0519345e-05
-2.8975809e-05
-8.4437894e-05
-3.0071818e-05
-7.8149555e-05
-3.1094776e-05
-7.1669633e-05
-3.2042053e-05
-6.5013927e-05
-3.2911209e-05
-5.8198689e-05
-3.3700001e-05
-5.1240585e-05
-3.440639e-05
-4.415665e-05
-3.5028547e-05
-3.6964246e-05
-3.5564859e-05
-2.9681016e-05
-3.6013933e-05
-2.2324841e-05
-3.6374603e-05
-1.4913788e-05
-3.664593e-05
-7.466072e-06
-3.6827209e-05
1.1004225e-13
-3.6917966e-05
7.4660722e-06
-3.6917966e-05
1.4913788e-05
-3.6827209e-05
2.2324841e-05
-3.664593e-05
2.9681017e-05
-3.6374603e-05
3.6964246e-05
-3.6013933e-05
4.4156651e-05
-3.5564859e-05
5.1240585e-05
-3.5028547e-05
5.8198689e-05
-3.440639e-05
6.5013927e-05
-3.3700001e-05
7.1669633e-05
-3.2911209e-05
7.8149555e-05
-3.2042053e-05
8.4437894e-05
-3.1094776e-05
9.0519345e-05
-3.0071818e-05
9.6379136e-05
-2.8975809e-05
0.00010200306
-2.7809559e-05
0.00010737752
-2.6576053e-05
0.00011248955
-2.5278438e-05
0.00011732685
-2.3920018e-05
0.00012187783
-2.250424e-05
0.00012613161
-2.103469e-05
0.00013007806
-1.9515075e-05
0.00013370785
-1.7949218e-05
0.00013701241
-1.6341048e-05
0.000139984
-1.4694584e-05
0.0001426157
-1.3013927e-05
0.00014490145
-1.1303252e-05
0.00014683603
-9.5667914e-06
0.0001484151
-7.8088254e-06
0.00014963518
-6.0336731e-06
0.00015049367
-4.2456792e-06
0.00015098886
-2.4492036e-06
0.00015111991
-6.4861022e-07
0.00015088689
1.1517438e-06
0.0001502907
2.9475186e-06
0.00014933316
4.7344025e-06
0.00014801692
6.5081216e-06
0.0001463455
8.2644507e-06
0.00014432327
9.9992224e-06
0.0001419554
1.1708337e-05
0.00013924791
1.3387772e-05
0.00013620759
1.5033591e-05
0.00013284202
1.664195e-05
0.00012915954
1.8209109e-05
0.0001251692
1.9731438e-05
0.00012088078
2.1205425e-05
0.00011630475
2.2627683e-05
0.00011145223
2.3994954e-05
0.00010633497
2.5304122e-05
0.00010096531
2.655221e-05
9.5356195e-05
2.7736393e-05
8.9521074e-05
2.8853998e-05
8.3473924e-05
2.9902513e-05
7.7229192e-05
3.0879586e-05
7.0801767e-05
3.1783034e-05
6.4206946e-05
3.2610844e-05
5.7460396e-05
3.3361175e-05
5.0578121e-05
3.4032364e-05
4.3576426e-05
3.4622925e-05
3.6471879e-05
3.5131556e-05
2.9281274e-05
3.5557135e-05
2.2021595e-05
3.5898725e-05
1.4709977e-05
3.6155576e-05
7.3636702e-06
3.6327123e-05
3.6412991e-05
-7.4264009e-06
4.3839392e-05
-1.483529e-05
4.3736013e-05
-2.2209195e-05
4.352948e-05
-2.9530719e-05
4.3220249e-05
-3.6782581e-05
4.2808996e-05
-4.3947652e-05
4.2296627e-05
-5.1008995e-05
4.1684268e-05
-5.7949901e-05
4.0973269e-05
-6.4753926e-05
4.01652e-05
-7.1404929e-05
3.9261847e-05
-7.7887109e-05
3.8265214e-05
-8.4185039e-05
3.7177517e-05
-9.0283703e-05
3.6001177e-05
-9.6168531e-05
3.4738826e-05
-0.00010182543
3.3393292e-05
-0.00010724082
3.1967602e-05
-0.00011240167
3.0464972e-05
-0.00011729552
2.8888804e-05
-0.00012191052
2.7242682e-05
-0.00012623545
2.5530358e-05
-0.00013025977
2.3755754e-05
-0.00013397361
2.1922947e-05
-0.00013736782
2.0036167e-05
-0.00014043402
1.8099783e-05
-0.00014316455
1.61183e-05
-0.00014555255
1.4096344e-05
-0.00014759198
1.2038654e-05
-0.00014927761
9.9500752e-06
-0.00015060503
7.8355419e-06
-0.0001515707
5.7000718e-06
-0.00015217193
3.5487521e-06
-0.00015240692
1.386728e-06
-0.00015227472
-7.8080921e-07
-0.00015177529
-2.9486347e-06
-0.00015090946
-5.1115027e-06
-0.00014967898
-7.2641594e-06
-0.00014808645
-9.4013558e-06
-0.00014613538
-1.1517861e-05
-0.00014383015
-1.3608477e-05
-0.00014117603
-1.5668048e-05
-0.00013817914
-1.7691479e-05
-0.00013484644
-1.9673746e-05
-0.00013118575
-2.160991e-05
-0.00012720569
-2.3495132e-05
-0.0001229157
-2.5324683e-05
-0.00011832598
-2.7093961e-05
-0.00011344749
-2.87985e-05
-0.00010829195
-3.0433985e-05
-0.00010287173
-3.1996265e-05
-9.719993e-05
-3.3481363e-05
-9.1290251e-05
-3.4885488e-05
-8.5157022e-05
-3.6205048e-05
-7.8815141e-05
-3.7436657e-05
-7.2280043e-05
-3.8577151e-05
-6.5567662e-05
-3.962359e-05
-5.8694387e-05
-4.0573275e-05
-5.1677026e-05
-4.142375e-05
-4.453276e-05
-4.2172813e-05
-3.7279098e-05
-4.2818521e-05
-2.9933835e-05
-4.3359197e-05
-2.2515002e-05
-4.3793436e-05
-1.5040824e-05
-4.4120109e-05
-7.5296682e-06
-4.4338364e-05
1.0920057e-13
-4.4447634e-05
7.5296684e-06
-4.4447634e-05
1.5040824e-05
-4.4338364e-05
2.2515002e-05
-4.4120109e-05
2.9933835e-05
-4.3793436e-05
3.7279098e-05
-4.3359197e-05
4.453276e-05
-4.2818521e-05
5.1677026e-05
-4.2172813e-05
5.8694387e-05
-4.142375e-05
6.5567662e-05
-4.0573275e-05
7.2280044e-05
-3.962359e-05
7.8815141e-05
-3.8577151e-05
8.5157022e-05
-3.7436657e-05
9.1290252e-05
-3.6205047e-05
9.719993e-05
-3.4885488e-05
0.00010287173
-3.3481363e-05
0.00010829195
-3.1996265e-05
0.00011344749
-3.0433985e-05
0.00011832598
-2.87985e-05
0.0001229157
-2.7093961e-05
0.00012720569
-2.5324683e-05
0.00013118575
-2.3495132e-05
0.00013484644
-2.160991e-05
0.00013817914
-1.9673746e-05
0.00014117603
-1.7691479e-05
0.00014383015
-1.5668048e-05
0.00014613538
-1.3608477e-05
0.00014808645
-1.1517861e-05
0.00014967898
-9.4013557e-06
0.00015090946
-7.2641593e-06
0.00015177529
-5.1115027e-06
0.00015227472
-2.9486346e-06
0.00015240692
-7.8080915e-07
0.00015217193
1.386728e-06
0.0001515707
3.5487521e-06
0.00015060503
5.7000719e-06
0.00014927761
7.8355419e-06
0.00014759198
9.9500752e-06
0.00014555255
1.2038655e-05
0.00014316455
1.4096344e-05
0.00014043402
1.61183e-05
0.00013736782
1.8099783e-05
0.00013397361
2.0036167e-05
0.00013025977
2.1922947e-05
0.00012623545
2.3755754e-05
0.00012191052
2.5530358e-05
0.00011729552
2.7242682e-05
0.00011240167
2.8888804e-05
0.00010724082
3.0464972e-05
0.00010182543
3.1967602e-05
9.6168531e-05
3.3393292e-05
9.0283703e-05
3.4738826e-05
8.4185039e-05
3.6001177e-05
7.7887109e-05
3.7177517e-05
7.1404929e-05
3.8265214e-05
6.4753925e-05
3.9261847e-05
5.7949901e-05
4.01652e-05
5.1008995e-05
4.0973269e-05
4.3947652e-05
4.1684268e-05
3.6782581e-05
4.2296627e-05
2.9530719e-05
4.2808996e-05
2.2209195e-05
4.3220249e-05
1.483529e-05
4.3529481e-05
7.4264007e-06
4.3736013e-05
4.3839392e-05
-7.500397e-06
5.1339789e-05
-1.4983108e-05
5.1218723e-05
-2.2430485e-05
5.0976858e-05
-2.9824959e-05
5.0614723e-05
-3.7149077e-05
5.0133114e-05
-4.4385537e-05
4.9533088e-05
-5.1517235e-05
4.8815966e-05
-5.8527294e-05
4.7983328e-05
-6.5399106e-05
4.7037012e-05
-7.2116369e-05
4.5979111e-05
-7.8663125e-05
4.481197e-05
-8.5023792e-05
4.3538184e-05
-9.1183205e-05
4.216059e-05
-9.7126646e-05
4.0682267e-05
-0.00010283988
3.9106529e-05
-0.0001083092
3.7436921e-05
-0.00011352144
3.5677208e-05
-0.00011846401
3.3831375e-05
-0.00012312495
3.1903618e-05
-0.00012749292
2.9898333e-05
-0.00013155728
2.7820111e-05
-0.00013530806
2.5673728e-05
-0.00013873603
2.3464138e-05
-0.0001418327
2.1196458e-05
-0.00014459037
1.8875962e-05
-0.00014700209
1.6508069e-05
-0.00014906177
1.4098329e-05
-0.00015076411
1.1652416e-05
-0.00015210467
9.1761097e-06
-0.00015307989
6.6752854e-06
-0.00015368704
4.1559009e-06
-0.00015392429
1.6239818e-06
-0.00015379071
-9.143925e-07
-0.00015328624
-3.4531034e-06
-0.00015241173
-5.9860078e-06
-0.00015116894
-8.5069531e-06
-0.0001495605
-1.1009793e-05
-0.00014758996
-1.3488401e-05
-0.00014526175
-1.593669e-05
-0.00014258117
-1.8348624e-05
-0.00013955442
-2.0718235e-05
-0.00013618852
-2.3039641e-05
-0.00013249138
-2.5307058e-05
-0.00012847169
-2.7514818e-05
-0.00012413899
-2.9657384e-05
-0.00011950358
-3.1729367e-05
-0.00011457655
-3.3725537e-05
-0.00010936969
-3.5640841e-05
-0.00010389554
-3.7470418e-05
-9.8167291e-05
-3.9209609e-05
-9.2198803e-05
-4.0853975e-05
-8.6004541e-05
-4.239931e-05
-7.959955e-05
-4.3841648e-05
-7.2999419e-05
-4.5177282e-05
-6.6220239e-05
-4.6402771e-05
-5.9278562e-05
-4.7514952e-05
-5.2191364e-05
-4.8510948e-05
-4.4975996e-05
-4.9388181e-05
-3.7650142e-05
-5.0144375e-05
-3.0231772e-05
-5.0777566e-05
-2.2739099e-05
-5.1286108e-05
-1.519053e-05
-5.1668679e-05
-7.6046134e-06
-5.192428e-05
1.0815802e-13
-5.2052248e-05
7.6046136e-06
-5.2052248e-05
1.519053e-05
-5.192428e-05
2.27391e-05
-5.1668679e-05
3.0231772e-05
-5.1286108e-05
3.7650142e-05
-5.0777566e-05
4.4975996e-05
-5.0144375e-05
5.2191365e-05
-4.9388181e-05
5.9278562e-05
-4.8510948e-05
6.6220239e-05
-4.7514952e-05
7.2999419e-05
-4.6402771e-05
7.959955e-05
-4.5177282e-05
8.6004541e-05
-4.3841648e-05
9.2198803e-05
-4.239931e-05
9.8167291e-05
-4.0853975e-05
0.00010389554
-3.9209609e-05
0.00010936969
-3.7470418e-05
0.00011457655
-3.5640841e-05
0.00011950358
-3.3725537e-05
0.00012413899
-3.1729367e-05
0.00012847169
-2.9657384e-05
0.00013249138
-2.7514818e-05
0.00013618852
-2.5307057e-05
0.00013955442
-2.3039641e-05
0.00014258117
-2.0718235e-05
0.00014526175
-1.8348624e-05
0.00014758996
-1.593669e-05
0.0001495605
-1.3488401e-05
0.00015116894
-1.1009793e-05
0.00015241173
-8.506953e-06
0.00015328624
-5.9860077e-06
0.00015379071
-3.4531034e-06
0.00015392429
-9.1439242e-07
0.00015368704
1.6239819e-06
0.00015307989
4.155901e-06
0.00015210467
6.6752855e-06
0.00015076411
9.1761098e-06
0.00014906177
1.1652416e-05
0.00014700209
1.4098329e-05
0.00014459037
1.6508069e-05
0.0001418327
1.8875962e-05
0.00013873603
2.1196458e-05
0.00013530806
2.3464138e-05
0.00013155728
2.5673728e-05
0.00012749292
2.7820111e-05
0.00012312495
2.9898333e-05
0.00011846401
3.1903618e-05
0.00011352144
3.3831375e-05
0.0001083092
3.5677208e-05
0.00010283988
3.7436921e-05
9.7126646e-05
3.910653e-05
9.1183204e-05
4.0682267e-05
8.5023792e-05
4.216059e-05
7.8663125e-05
4.3538184e-05
7.2116369e-05
4.481197e-05
6.5399106e-05
4.5979111e-05
5.8527293e-05
4.7037012e-05
5.1517235e-05
4.7983328e-05
4.4385537e-05
4.8815966e-05
3.7149076e-05
4.9533088e-05
2.9824959e-05
5.0133114e-05
2.2430485e-05
5.0614723e-05
1.4983108e-05
5.0976858e-05
7.5003968e-06
5.1218723e-05
5.1339789e-05
-7.5856665e-06
5.8925455e-05
-1.5153445e-05
5.8786502e-05
-2.2685488e-05
5.8508901e-05
-3.0164025e-05
5.809326e-05
-3.7571404e-05
5.7540492e-05
-4.4890127e-05
5.6851811e-05
-5.2102894e-05
5.6028733e-05
-5.9192636e-05
5.507307e-05
-6.6142556e-05
5.3986932e-05
-7.2936166e-05
5.2772721e-05
-7.9557325e-05
5.1433129e-05
-8.5990274e-05
4.9971133e-05
-9.2219675e-05
4.838999e-05
-9.8230642e-05
4.6693235e-05
-0.00010400878
4.488467e-05
-0.00010954022
4.2968362e-05
-0.00011481165
4.0948636e-05
-0.00011981034
3.8830065e-05
-0.00012452419
3.6617464e-05
-0.00012894173
3.4315878e-05
-0.0001330522
3.1930579e-05
-0.00013684552
2.9467049e-05
-0.00014031236
2.6930972e-05
-0.00014344412
2.4328222e-05
-0.00014623301
2.1664855e-05
-0.00014867203
1.8947088e-05
-0.000150755
1.6181294e-05
-0.00015247657
1.3373984e-05
-0.00015383225
1.0531792e-05
-0.00015481842
7.6614616e-06
-0.00015543235
4.7698315e-06
-0.00015567219
1.8638175e-06
-0.00015553698
-1.049603e-06
-0.00015502668
-3.9634073e-06
-0.00015414214
-6.8705449e-06
-0.00015288514
-9.7639544e-06
-0.00015125835
-1.2636581e-05
-0.00014926535
-1.5481396e-05
-0.00014691063
-1.829141e-05
-0.00014419956
-2.1059697e-05
-0.00014113839
-2.3779409e-05
-0.00013773423
-2.6443794e-05
-0.00013399508
-2.9046213e-05
-0.00012992973
-3.1580164e-05
-0.00012554783
-3.403929e-05
-0.00012085979
-3.6417406e-05
-0.00011587681
-3.8708509e-05
-0.00011061085
-4.0906802e-05
-0.00010507457
-4.3006703e-05
-9.9281312e-05
-4.5002866e-05
-9.324509e-05
-4.6890197e-05
-8.6980534e-05
-4.8663866e-05
-8.050286e-05
-5.0319322e-05
-7.3827832e-05
-5.185231e-05
-6.6971723e-05
-5.325888e-05
-5.9951274e-05
-5.4535401e-05
-5.2783651e-05
-5.5678571e-05
-4.5486403e-05
-5.6685429e-05
-3.8077414e-05
-5.7553364e-05
-3.0574858e-05
-5.8280122e-05
-2.2997156e-05
-5.8863811e-05
-1.5362921e-05
-5.9302914e-05
-7.6909154e-06
-5.9596286e-05
1.0691784e-13
-5.9743163e-05
7.6909156e-06
-5.9743163e-05
1.5362921e-05
-5.9596286e-05
2.2997156e-05
-5.9302914e-05
3.0574859e-05
-5.8863811e-05
3.8077414e-05
-5.8280122e-05
4.5486403e-05
-5.7553364e-05
5.2783651e-05
-5.6685429e-05
5.9951274e-05
-5.5678571e-05
6.6971723e-05
-5.45354e-05
7.3827832e-05
-5.325888e-05
8.050286e-05
-5.185231e-05
8.6980534e-05
-5.0319322e-05
9.324509e-05
-4.8663866e-05
9.9281312e-05
-4.6890197e-05
0.00010507457
-4.5002866e-05
0.00011061085
-4.3006703e-05
0.00011587681
-4.0906802e-05
0.00012085979
-3.8708509e-05
0.00012554783
-3.6417406e-05
0.00012992973
-3.403929e-05
0.00013399508
-3.1580164e-05
0.00013773423
-2.9046213e-05
0.00014113839
-2.6443794e-05
0.00014419956
-2.3779409e-05
0.00014691063
-2.1059697e-05
0.00014926535
-1.829141e-05
0.00015125835
-1.5481396e-05
0.00015288514
-1.2636581e-05
0.00015414214
-9.7639543e-06
0.00015502668
-6.8705448e-06
0.00015553698
-3.9634072e-06
0.00015567219
-1.0496029e-06
0.00015543235
1.8638176e-06
0.00015481842
4.7698316e-06
0.00015383225
7.6614616e-06
0.00015247657
1.0531792e-05
0.000150755
1.3373984e-05
0.00014867203
1.6181294e-05
0.00014623301
1.8947088e-05
0.00014344412
2.1664855e-05
0.00014031236
2.4328222e-05
0.00013684552
2.6930972e-05
0.0001330522
2.9467049e-05
0.00012894173
3.1930579e-05
0.00012452419
3.4315878e-05
0.00011981034
3.6617464e-05
0.00011481165
3.8830065e-05
0.00010954022
4.0948636e-05
0.00010400878
4.2968362e-05
9.8230642e-05
4.488467e-05
9.2219675e-05
4.6693235e-05
8.5990274e-05
4.838999e-05
7.9557324e-05
4.9971133e-05
7.2936165e-05