/*--------------------------------*- C++ -*----------------------------------*\
| =========                 |                                                 |
| \\      /  F ield         | OpenFOAM: The Open Source CFD Toolbox           |
|  \\    /   O peration     | Version:  2106                                  |
|   \\  /    A nd           | Website:  www.openfoam.com                      |
|    \\/     M anipulation  |                                                 |
\*---------------------------------------------------------------------------*/
FoamFile
{
    version     2.0;
    format      ascii;
    arch        "LSB;label=32;scalar=64";
    class       volVectorField;
    location    "0.048";
    object      U_0;
}
// * * * * * * * * * * * * * * * * * * * * * * * * * * * * * * * * * * * * * //

dimensions      [0 1 -1 0 0 0 0];

internalField   nonuniform List<vector> 
16384
(
(-0.00046256141 0.00046211417 0)
(-0.0013865933 0.00046102431 0)
(-0.0023073551 0.00045884698 0)
(-0.0032226745 0.00045558697 0)
(-0.0041303913 0.00045125143 0)
(-0.0050283621 0.0004458499 0)
(-0.0059144648 0.00043939427 0)
(-0.0067866036 0.00043189879 0)
(-0.0076427133 0.00042338001 0)
(-0.0084807642 0.00041385679 0)
(-0.0092987669 0.00040335025 0)
(-0.010094776 0.00039188377 0)
(-0.010866896 0.00037948289 0)
(-0.011613283 0.00036617536 0)
(-0.012332153 0.00035199102 0)
(-0.013021781 0.00033696178 0)
(-0.013680512 0.00032112155 0)
(-0.014306756 0.00030450623 0)
(-0.014899 0.00028715357 0)
(-0.015455807 0.00026910315 0)
(-0.015975823 0.00025039632 0)
(-0.016457775 0.00023107607 0)
(-0.01690048 0.00021118697 0)
(-0.017302846 0.00019077511 0)
(-0.017663873 0.00016988796 0)
(-0.017982659 0.00014857427 0)
(-0.018258399 0.00012688404 0)
(-0.018490392 0.0001048683 0)
(-0.018678036 8.2579083e-05 0)
(-0.018820837 6.0069257e-05 0)
(-0.018918408 3.7392329e-05 0)
(-0.018970467 1.460305e-05 0)
(-0.018976846 -8.2444717e-06 0)
(-0.018937481 -3.1094917e-05 0)
(-0.018852423 -5.389299e-05 0)
(-0.018721831 -7.6583312e-05 0)
(-0.018545977 -9.9110556e-05 0)
(-0.018325242 -0.00012141958 0)
(-0.018060118 -0.00014345559 0)
(-0.017751205 -0.00016516426 0)
(-0.017399213 -0.00018649186 0)
(-0.017004957 -0.00020738545 0)
(-0.016569358 -0.00022779297 0)
(-0.016093441 -0.00024766341 0)
(-0.01557833 -0.00026694694 0)
(-0.015025249 -0.00028559505 0)
(-0.014435517 -0.00030356068 0)
(-0.013810546 -0.00032079837 0)
(-0.013151837 -0.00033726436 0)
(-0.012460976 -0.00035291676 0)
(-0.011739633 -0.00036771563 0)
(-0.010989554 -0.00038162311 0)
(-0.010212559 -0.00039460354 0)
(-0.0094105385 -0.00040662359 0)
(-0.008585445 -0.0004176523 0)
(-0.0077392922 -0.00042766123 0)
(-0.0068741475 -0.00043662451 0)
(-0.0059921276 -0.00044451895 0)
(-0.0050953929 -0.00045132409 0)
(-0.0041861418 -0.00045702228 0)
(-0.0032666055 -0.00046159871 0)
(-0.0023390416 -0.00046504149 0)
(-0.0014057287 -0.00046734167 0)
(-0.00046896049 -0.00046849326 0)
(0.00046896051 -0.00046849326 0)
(0.0014057287 -0.00046734167 0)
(0.0023390416 -0.00046504149 0)
(0.0032666055 -0.00046159871 0)
(0.0041861418 -0.00045702228 0)
(0.0050953929 -0.00045132409 0)
(0.0059921276 -0.00044451895 0)
(0.0068741475 -0.00043662451 0)
(0.0077392922 -0.00042766123 0)
(0.0085854451 -0.0004176523 0)
(0.0094105385 -0.00040662359 0)
(0.010212559 -0.00039460354 0)
(0.010989554 -0.00038162311 0)
(0.011739633 -0.00036771563 0)
(0.012460976 -0.00035291676 0)
(0.013151837 -0.00033726436 0)
(0.013810546 -0.00032079837 0)
(0.014435517 -0.00030356068 0)
(0.015025249 -0.00028559505 0)
(0.01557833 -0.00026694694 0)
(0.016093441 -0.00024766341 0)
(0.016569358 -0.00022779297 0)
(0.017004957 -0.00020738545 0)
(0.017399213 -0.00018649186 0)
(0.017751205 -0.00016516426 0)
(0.018060118 -0.00014345559 0)
(0.018325242 -0.00012141958 0)
(0.018545977 -9.9110555e-05 0)
(0.018721831 -7.6583312e-05 0)
(0.018852423 -5.389299e-05 0)
(0.018937481 -3.1094917e-05 0)
(0.018976846 -8.244471e-06 0)
(0.018970467 1.460305e-05 0)
(0.018918408 3.739233e-05 0)
(0.018820837 6.0069258e-05 0)
(0.018678036 8.2579083e-05 0)
(0.018490392 0.0001048683 0)
(0.018258399 0.00012688404 0)
(0.017982659 0.00014857428 0)
(0.017663873 0.00016988796 0)
(0.017302846 0.00019077511 0)
(0.01690048 0.00021118697 0)
(0.016457775 0.00023107607 0)
(0.015975823 0.00025039632 0)
(0.015455807 0.00026910315 0)
(0.014899 0.00028715357 0)
(0.014306756 0.00030450623 0)
(0.013680512 0.00032112155 0)
(0.013021781 0.00033696178 0)
(0.012332153 0.00035199102 0)
(0.011613283 0.00036617536 0)
(0.010866896 0.00037948289 0)
(0.010094776 0.00039188377 0)
(0.0092987669 0.00040335025 0)
(0.0084807642 0.00041385679 0)
(0.0076427132 0.00042338001 0)
(0.0067866036 0.00043189879 0)
(0.0059144648 0.00043939427 0)
(0.0050283621 0.0004458499 0)
(0.0041303913 0.00045125143 0)
(0.0032226744 0.00045558697 0)
(0.002307355 0.00045884698 0)
(0.0013865933 0.00046102431 0)
(0.00046256138 0.00046211417 0)
(-0.00046376967 0.0013872984 0)
(-0.0013902153 0.0013840266 0)
(-0.0023133825 0.0013774902 0)
(-0.0032310934 0.0013677036 0)
(-0.0041411825 0.0013546883 0)
(-0.0050415006 0.0013384728 0)
(-0.0059299204 0.001319093 0)
(-0.0068043406 0.0012965914 0)
(-0.0076626907 0.0012710179 0)
(-0.008502936 0.001242429 0)
(-0.0093230817 0.0012108882 0)
(-0.010121178 0.0011764655 0)
(-0.010895323 0.0011392378 0)
(-0.01164367 0.0010992882 0)
(-0.012364428 0.0010567064 0)
(-0.01305587 0.0010115881 0)
(-0.013716335 0.00096403517 0)
(-0.014344229 0.00091415531 0)
(-0.014938036 0.0008620619 0)
(-0.015496314 0.00080787375 0)
(-0.016017705 0.00075171494 0)
(-0.016500934 0.00069371455 0)
(-0.016944815 0.00063400641 0)
(-0.017348251 0.00057272883 0)
(-0.017710241 0.00051002432 0)
(-0.018029879 0.00044603928 0)
(-0.01830636 0.00038092373 0)
(-0.018538978 0.00031483093 0)
(-0.018727133 0.00024791706 0)
(-0.018870327 0.00018034089 0)
(-0.018968171 0.00011226329 0)
(-0.019020386 4.3847344e-05 0)
(-0.019026798 -2.4742722e-05 0)
(-0.018987347 -9.3341742e-05 0)
(-0.018902083 -0.00016178365 0)
(-0.018771164 -0.00022990216 0)
(-0.018594864 -0.00029753117 0)
(-0.018373563 -0.00036450514 0)
(-0.018107756 -0.00043065956 0)
(-0.017798044 -0.00049583132 0)
(-0.017445138 -0.00055985915 0)
(-0.017049857 -0.00062258409 0)
(-0.016613122 -0.00068384987 0)
(-0.016135961 -0.00074350332 0)
(-0.015619502 -0.00080139486 0)
(-0.015064971 -0.00085737885 0)
(-0.014473691 -0.000911314 0)
(-0.013847077 -0.00096306382 0)
(-0.013186634 -0.001012497 0)
(-0.012493954 -0.0010594876 0)
(-0.011770709 -0.0011039159 0)
(-0.011018651 -0.0011456681 0)
(-0.010239605 -0.0011846373 0)
(-0.0094354654 -0.0012207232 0)
(-0.0086081906 -0.0012538331 0)
(-0.0077597995 -0.0012838814 0)
(-0.0068923651 -0.0013107905 0)
(-0.0060080098 -0.0013344909 0)
(-0.0051088998 -0.001354921 0)
(-0.0041972396 -0.0013720278 0)
(-0.0032752661 -0.001385767 0)
(-0.0023452433 -0.0013961028 0)
(-0.001409456 -0.0014030083 0)
(-0.00047020397 -0.0014064655 0)
(0.000470204 -0.0014064655 0)
(0.0014094561 -0.0014030083 0)
(0.0023452434 -0.0013961028 0)
(0.0032752661 -0.001385767 0)
(0.0041972396 -0.0013720278 0)
(0.0051088998 -0.001354921 0)
(0.0060080098 -0.0013344909 0)
(0.0068923651 -0.0013107905 0)
(0.0077597995 -0.0012838814 0)
(0.0086081906 -0.0012538331 0)
(0.0094354654 -0.0012207232 0)
(0.010239605 -0.0011846373 0)
(0.011018651 -0.0011456681 0)
(0.011770709 -0.0011039159 0)
(0.012493954 -0.0010594876 0)
(0.013186634 -0.001012497 0)
(0.013847077 -0.00096306382 0)
(0.014473691 -0.000911314 0)
(0.015064971 -0.00085737884 0)
(0.015619502 -0.00080139486 0)
(0.016135961 -0.00074350332 0)
(0.016613122 -0.00068384986 0)
(0.017049857 -0.00062258409 0)
(0.017445138 -0.00055985915 0)
(0.017798044 -0.00049583131 0)
(0.018107756 -0.00043065956 0)
(0.018373563 -0.00036450514 0)
(0.018594864 -0.00029753117 0)
(0.018771164 -0.00022990216 0)
(0.018902083 -0.00016178365 0)
(0.018987347 -9.334174e-05 0)
(0.019026798 -2.474272e-05 0)
(0.019020386 4.3847346e-05 0)
(0.018968171 0.00011226329 0)
(0.018870327 0.00018034089 0)
(0.018727133 0.00024791707 0)
(0.018538978 0.00031483093 0)
(0.01830636 0.00038092373 0)
(0.018029879 0.00044603928 0)
(0.017710241 0.00051002432 0)
(0.017348251 0.00057272883 0)
(0.016944815 0.00063400641 0)
(0.016500934 0.00069371455 0)
(0.016017705 0.00075171494 0)
(0.015496314 0.00080787375 0)
(0.014938036 0.0008620619 0)
(0.014344229 0.00091415532 0)
(0.013716335 0.00096403517 0)
(0.01305587 0.0010115881 0)
(0.012364428 0.0010567064 0)
(0.01164367 0.0010992882 0)
(0.010895323 0.0011392378 0)
(0.010121178 0.0011764655 0)
(0.0093230817 0.0012108882 0)
(0.008502936 0.001242429 0)
(0.0076626907 0.0012710179 0)
(0.0068043405 0.0012965914 0)
(0.0059299204 0.001319093 0)
(0.0050415006 0.0013384728 0)
(0.0041411824 0.0013546883 0)
(0.0032310934 0.0013677036 0)
(0.0023133825 0.0013774902 0)
(0.0013902153 0.0013840266 0)
(0.00046376964 0.0013872984 0)
(-0.00046566097 0.0023158491 0)
(-0.0013958848 0.0023103876 0)
(-0.002322817 0.0022994767 0)
(-0.0032442709 0.0022831402 0)
(-0.0041580723 0.0022614141 0)
(-0.0050620633 0.0022343461 0)
(-0.0059541081 0.0022019958 0)
(-0.0068320967 0.0021644345 0)
(-0.0076939505 0.0021217453 0)
(-0.0085376264 0.0020740224 0)
(-0.0093611215 0.002021372 0)
(-0.010162478 0.0019639108 0)
(-0.010939786 0.0019017672 0)
(-0.011691192 0.0018350799 0)
(-0.012414898 0.0017639985 0)
(-0.013109169 0.0016886829 0)
(-0.013772337 0.0016093031 0)
(-0.014402802 0.0015260388 0)
(-0.014999042 0.0014390793 0)
(-0.015559609 0.0013486229 0)
(-0.016083139 0.0012548767 0)
(-0.016568351 0.0011580561 0)
(-0.017014056 0.0010583847 0)
(-0.017419151 0.00095609318 0)
(-0.017782631 0.00085141949 0)
(-0.018103587 0.00074460804 0)
(-0.018381209 0.0006359092 0)
(-0.01861479 0.00052557884 0)
(-0.018803726 0.00041387766 0)
(-0.018947518 0.0003010707 0)
(-0.019045775 0.00018742665 0)
(-0.019098215 7.3217449e-05 0)
(-0.019104666 -4.1282703e-05 0)
(-0.019065066 -0.00015579789 0)
(-0.018979465 -0.00027005096 0)
(-0.018848023 -0.00038376437 0)
(-0.018671012 -0.00049666082 0)
(-0.018448818 -0.00060846398 0)
(-0.018181934 -0.00071889919 0)
(-0.017870965 -0.00082769417 0)
(-0.017516624 -0.00093457972 0)
(-0.017119734 -0.0010392904 0)
(-0.01668122 -0.0011415655 0)
(-0.016202113 -0.0012411491 0)
(-0.015683546 -0.0013377916 0)
(-0.01512675 -0.0014312499 0)
(-0.014533054 -0.001521288 0)
(-0.013903878 -0.0016076782 0)
(-0.013240734 -0.001690201 0)
(-0.012545219 -0.0017686466 0)
(-0.011819013 -0.0018428146 0)
(-0.011063874 -0.0019125154 0)
(-0.010281635 -0.0019775703 0)
(-0.0094741987 -0.002037812 0)
(-0.0086435313 -0.0020930855 0)
(-0.00779166 -0.0021432482 0)
(-0.0069206664 -0.0021881703 0)
(-0.0060326815 -0.0022277357 0)
(-0.0051298807 -0.0022618418 0)
(-0.0042144774 -0.0022904001 0)
(-0.0032887181 -0.0023133364 0)
(-0.0023548759 -0.002330591 0)
(-0.0014152452 -0.0023421191 0)
(-0.00047213528 -0.0023478907 0)
(0.00047213531 -0.0023478907 0)
(0.0014152452 -0.0023421191 0)
(0.0023548759 -0.002330591 0)
(0.0032887181 -0.0023133364 0)
(0.0042144774 -0.0022904001 0)
(0.0051298807 -0.0022618418 0)
(0.0060326816 -0.0022277357 0)
(0.0069206664 -0.0021881703 0)
(0.00779166 -0.0021432482 0)
(0.0086435313 -0.0020930855 0)
(0.0094741987 -0.002037812 0)
(0.010281635 -0.0019775703 0)
(0.011063874 -0.0019125154 0)
(0.011819013 -0.0018428146 0)
(0.012545219 -0.0017686466 0)
(0.013240734 -0.001690201 0)
(0.013903878 -0.0016076782 0)
(0.014533054 -0.001521288 0)
(0.01512675 -0.0014312499 0)
(0.015683546 -0.0013377916 0)
(0.016202113 -0.0012411491 0)
(0.01668122 -0.0011415655 0)
(0.017119734 -0.0010392904 0)
(0.017516624 -0.00093457971 0)
(0.017870965 -0.00082769416 0)
(0.018181934 -0.00071889918 0)
(0.018448818 -0.00060846397 0)
(0.018671012 -0.00049666081 0)
(0.018848023 -0.00038376437 0)
(0.018979465 -0.00027005096 0)
(0.019065066 -0.00015579788 0)
(0.019104666 -4.12827e-05 0)
(0.019098215 7.3217453e-05 0)
(0.019045775 0.00018742665 0)
(0.018947518 0.0003010707 0)
(0.018803726 0.00041387766 0)
(0.01861479 0.00052557884 0)
(0.018381209 0.00063590921 0)
(0.018103587 0.00074460804 0)
(0.017782631 0.0008514195 0)
(0.017419151 0.00095609318 0)
(0.017014055 0.0010583847 0)
(0.016568351 0.0011580561 0)
(0.016083139 0.0012548767 0)
(0.015559609 0.0013486229 0)
(0.014999042 0.0014390793 0)
(0.014402802 0.0015260388 0)
(0.013772337 0.0016093031 0)
(0.013109169 0.0016886829 0)
(0.012414898 0.0017639985 0)
(0.011691192 0.0018350799 0)
(0.010939786 0.0019017672 0)
(0.010162478 0.0019639108 0)
(0.0093611215 0.002021372 0)
(0.0085376264 0.0020740224 0)
(0.0076939505 0.0021217453 0)
(0.0068320967 0.0021644345 0)
(0.005954108 0.0022019958 0)
(0.0050620633 0.0022343461 0)
(0.0041580722 0.0022614141 0)
(0.0032442709 0.0022831402 0)
(0.002322817 0.0022994767 0)
(0.0013958848 0.0023103876 0)
(0.00046566095 0.0023158491 0)
(-0.00046825068 0.0032488829 0)
(-0.0014036479 0.0032412212 0)
(-0.0023357352 0.0032259148 0)
(-0.003262314 0.0032029971 0)
(-0.0041811979 0.0031725185 0)
(-0.0050902173 0.003134546 0)
(-0.0059872243 0.0030891631 0)
(-0.0068700975 0.00303647 0)
(-0.0077367466 0.002976583 0)
(-0.0085851171 0.0029096346 0)
(-0.0094131952 0.0028357732 0)
(-0.010219012 0.0027551631 0)
(-0.011000648 0.0026679839 0)
(-0.011756237 0.0025744306 0)
(-0.012483973 0.0024747127 0)
(-0.013182111 0.0023690547 0)
(-0.013848973 0.002257695 0)
(-0.014482951 0.0021408857 0)
(-0.015082514 0.0020188923 0)
(-0.015646205 0.001891993 0)
(-0.016172654 0.0017604784 0)
(-0.016660574 0.0016246506 0)
(-0.017108764 0.0014848232 0)
(-0.017516121 0.00134132 0)
(-0.01788163 0.0011944746 0)
(-0.01820438 0.00104463 0)
(-0.018483554 0.0008921375 0)
(-0.018718442 0.0007373559 0)
(-0.018908437 0.00058065102 0)
(-0.019053036 0.00042239467 0)
(-0.019151847 0.00026296384 0)
(-0.019204587 0.0001027399 0)
(-0.019211081 -5.789245e-05 0)
(-0.019171268 -0.00021854604 0)
(-0.019085197 -0.00037883208 0)
(-0.01895303 -0.00053836122 0)
(-0.018775041 -0.00069674443 0)
(-0.018551615 -0.00085359406 0)
(-0.018283252 -0.0010085248 0)
(-0.017970557 -0.0011611546 0)
(-0.01761425 -0.0013111059 0)
(-0.017215154 -0.0014580063 0)
(-0.016774203 -0.0016014898 0)
(-0.016292433 -0.0017411977 0)
(-0.015770982 -0.0018767797 0)
(-0.015211089 -0.0020078946 0)
(-0.014614088 -0.0021342115 0)
(-0.01398141 -0.0022554107 0)
(-0.013314574 -0.0023711846 0)
(-0.012615185 -0.0024812384 0)
(-0.011884933 -0.0025852914 0)
(-0.011125587 -0.0026830772 0)
(-0.010338989 -0.0027743453 0)
(-0.0095270514 -0.0028588609 0)
(-0.0086917529 -0.0029364064 0)
(-0.0078351314 -0.0030067818 0)
(-0.0069592802 -0.0030698052 0)
(-0.0060663423 -0.0031253134 0)
(-0.0051585052 -0.0031731625 0)
(-0.0042379947 -0.0032132283 0)
(-0.00330707 -0.0032454068 0)
(-0.002368017 -0.0032696142 0)
(-0.0014231429 -0.0032857876 0)
(-0.00047477004 -0.0032938848 0)
(0.00047477006 -0.0032938848 0)
(0.0014231429 -0.0032857876 0)
(0.002368017 -0.0032696142 0)
(0.00330707 -0.0032454068 0)
(0.0042379948 -0.0032132283 0)
(0.0051585052 -0.0031731625 0)
(0.0060663423 -0.0031253134 0)
(0.0069592802 -0.0030698052 0)
(0.0078351314 -0.0030067818 0)
(0.0086917529 -0.0029364064 0)
(0.0095270514 -0.0028588609 0)
(0.010338989 -0.0027743453 0)
(0.011125587 -0.0026830772 0)
(0.011884933 -0.0025852914 0)
(0.012615185 -0.0024812384 0)
(0.013314574 -0.0023711846 0)
(0.01398141 -0.0022554107 0)
(0.014614088 -0.0021342115 0)
(0.015211089 -0.0020078946 0)
(0.015770982 -0.0018767797 0)
(0.016292433 -0.0017411977 0)
(0.016774203 -0.0016014898 0)
(0.017215154 -0.0014580063 0)
(0.01761425 -0.0013111059 0)
(0.017970557 -0.0011611546 0)
(0.018283252 -0.0010085248 0)
(0.018551615 -0.00085359406 0)
(0.018775041 -0.00069674443 0)
(0.01895303 -0.00053836121 0)
(0.019085197 -0.00037883208 0)
(0.019171268 -0.00021854603 0)
(0.019211081 -5.7892445e-05 0)
(0.019204587 0.0001027399 0)
(0.019151847 0.00026296385 0)
(0.019053036 0.00042239467 0)
(0.018908437 0.00058065102 0)
(0.018718442 0.0007373559 0)
(0.018483554 0.0008921375 0)
(0.01820438 0.0010446301 0)
(0.01788163 0.0011944746 0)
(0.017516121 0.00134132 0)
(0.017108764 0.0014848232 0)
(0.016660574 0.0016246506 0)
(0.016172654 0.0017604784 0)
(0.015646205 0.001891993 0)
(0.015082514 0.0020188923 0)
(0.014482951 0.0021408857 0)
(0.013848973 0.002257695 0)
(0.013182111 0.0023690547 0)
(0.012483973 0.0024747127 0)
(0.011756237 0.0025744306 0)
(0.011000647 0.0026679839 0)
(0.010219012 0.0027551631 0)
(0.0094131951 0.0028357732 0)
(0.0085851171 0.0029096346 0)
(0.0077367466 0.002976583 0)
(0.0068700975 0.00303647 0)
(0.0059872243 0.0030891631 0)
(0.0050902173 0.003134546 0)
(0.0041811979 0.0031725185 0)
(0.003262314 0.0032029971 0)
(0.0023357352 0.0032259148 0)
(0.0014036479 0.0032412212 0)
(0.00046825066 0.0032488829 0)
(-0.00047155027 0.0041877846 0)
(-0.0014135389 0.004177909 0)
(-0.0023521944 0.0041581795 0)
(-0.0032853026 0.0041286393 0)
(-0.0042106619 0.0040893534 0)
(-0.0051260873 0.0040404081 0)
(-0.0060294159 0.0039819111 0)
(-0.0069185112 0.0039139913 0)
(-0.0077912684 0.0038367987 0)
(-0.0086456185 0.0037505041 0)
(-0.0094795333 0.0036552988 0)
(-0.01029103 0.0035513945 0)
(-0.011078176 0.0034390228 0)
(-0.011839092 0.0033184347 0)
(-0.012571958 0.0031899006 0)
(-0.013275019 0.0030537097 0)
(-0.013946582 0.0029101692 0)
(-0.014585031 0.0027596041 0)
(-0.015188821 0.0026023566 0)
(-0.015756488 0.0024387854 0)
(-0.016286649 0.0022692649 0)
(-0.016778009 0.0020941847 0)
(-0.017229361 0.0019139488 0)
(-0.01763959 0.0017289746 0)
(-0.018007678 0.0015396924 0)
(-0.018332704 0.001346544 0)
(-0.018613848 0.0011499822 0)
(-0.018850393 0.00095046974 0)
(-0.019041728 0.00074847803 0)
(-0.019187349 0.00054448635 0)
(-0.019286858 0.00033898064 0)
(-0.019339971 0.00013245244 0)
(-0.019346513 -7.460236e-05 0)
(-0.019306421 -0.00028168467 0)
(-0.019219745 -0.00048829336 0)
(-0.019086649 -0.00069392655 0)
(-0.018907407 -0.00089808281 0)
(-0.01868241 -0.0011002625 0)
(-0.018412157 -0.0012999688 0)
(-0.018097261 -0.0014967095 0)
(-0.017738445 -0.0016899977 0)
(-0.017336539 -0.0018793535 0)
(-0.016892482 -0.0020643051 0)
(-0.016407319 -0.0022443902 0)
(-0.015882195 -0.0024191571 0)
(-0.015318357 -0.0025881661 0)
(-0.014717151 -0.0027509907 0)
(-0.014080015 -0.0029072187 0)
(-0.013408479 -0.0030564535 0)
(-0.012704161 -0.0031983153 0)
(-0.011968762 -0.003332442 0)
(-0.011204063 -0.0034584905 0)
(-0.010411919 -0.0035761374 0)
(-0.0095942569 -0.0036850805 0)
(-0.0087530682 -0.0037850391 0)
(-0.0078904055 -0.0038757552 0)
(-0.007008377 -0.0039569945 0)
(-0.0061091407 -0.0040285464 0)
(-0.0051948996 -0.0040902256 0)
(-0.0042678954 -0.004141872 0)
(-0.003330403 -0.0041833512 0)
(-0.0023847247 -0.0042145555 0)
(-0.0014331841 -0.0042354036 0)
(-0.00047811986 -0.0042458413 0)
(0.00047811989 -0.0042458413 0)
(0.0014331841 -0.0042354036 0)
(0.0023847248 -0.0042145555 0)
(0.0033304031 -0.0041833512 0)
(0.0042678954 -0.004141872 0)
(0.0051948997 -0.0040902256 0)
(0.0061091408 -0.0040285464 0)
(0.007008377 -0.0039569945 0)
(0.0078904056 -0.0038757552 0)
(0.0087530682 -0.0037850391 0)
(0.0095942569 -0.0036850805 0)
(0.010411919 -0.0035761374 0)
(0.011204063 -0.0034584905 0)
(0.011968762 -0.003332442 0)
(0.012704161 -0.0031983153 0)
(0.013408479 -0.0030564535 0)
(0.014080015 -0.0029072187 0)
(0.014717151 -0.0027509907 0)
(0.015318357 -0.0025881661 0)
(0.015882195 -0.0024191571 0)
(0.016407319 -0.0022443902 0)
(0.016892482 -0.0020643051 0)
(0.017336539 -0.0018793535 0)
(0.017738445 -0.0016899977 0)
(0.018097261 -0.0014967095 0)
(0.018412157 -0.0012999688 0)
(0.01868241 -0.0011002625 0)
(0.018907407 -0.00089808281 0)
(0.019086649 -0.00069392655 0)
(0.019219745 -0.00048829336 0)
(0.019306421 -0.00028168466 0)
(0.019346513 -7.4602354e-05 0)
(0.019339971 0.00013245245 0)
(0.019286858 0.00033898065 0)
(0.019187349 0.00054448635 0)
(0.019041728 0.00074847803 0)
(0.018850393 0.00095046974 0)
(0.018613848 0.0011499822 0)
(0.018332704 0.001346544 0)
(0.018007678 0.0015396924 0)
(0.01763959 0.0017289746 0)
(0.017229361 0.0019139488 0)
(0.016778009 0.0020941847 0)
(0.016286649 0.0022692649 0)
(0.015756488 0.0024387854 0)
(0.015188821 0.0026023566 0)
(0.014585031 0.0027596041 0)
(0.013946582 0.0029101692 0)
(0.013275018 0.0030537097 0)
(0.012571958 0.0031899006 0)
(0.011839092 0.0033184347 0)
(0.011078176 0.0034390228 0)
(0.01029103 0.0035513945 0)
(0.0094795333 0.0036552989 0)
(0.0086456185 0.0037505041 0)
(0.0077912684 0.0038367987 0)
(0.0069185112 0.0039139913 0)
(0.0060294158 0.0039819111 0)
(0.0051260873 0.0040404081 0)
(0.0042106619 0.0040893534 0)
(0.0032853026 0.0041286393 0)
(0.0023521943 0.0041581795 0)
(0.0014135389 0.004177909 0)
(0.00047155024 0.0041877846 0)
(-0.00047556735 0.0051339935 0)
(-0.0014255807 0.0051218868 0)
(-0.0023722325 0.0050976999 0)
(-0.0033132898 0.0050614858 0)
(-0.0042465322 0.0050133241 0)
(-0.0051697561 0.0049533207 0)
(-0.0060807802 0.0048816075 0)
(-0.0069774499 0.0047983427 0)
(-0.0078576422 0.00470371 0)
(-0.0087192705 0.0045979188 0)
(-0.0095602895 0.0044812036 0)
(-0.010378699 0.0043538238 0)
(-0.011172551 0.0042160634 0)
(-0.011939949 0.0040682302 0)
(-0.012679058 0.0039106557 0)
(-0.013388107 0.0037436941 0)
(-0.014065391 0.0035677222 0)
(-0.014709277 0.0033831385 0)
(-0.015318209 0.0031903625 0)
(-0.01589071 0.0029898337 0)
(-0.016425386 0.0027820114 0)
(-0.016920929 0.002567373 0)
(-0.017376123 0.0023464139 0)
(-0.017789844 0.0021196459 0)
(-0.018161064 0.0018875963 0)
(-0.018488856 0.0016508068 0)
(-0.018772391 0.0014098328 0)
(-0.019010947 0.0011652412 0)
(-0.019203908 0.00091761013 0)
(-0.019350765 0.00066752716 0)
(-0.019451118 0.00041558802 0)
(-0.01950468 0.00016239529 0)
(-0.019511274 -9.1443103e-05 0)
(-0.019470837 -0.00034531528 0)
(-0.019383421 -0.00059860691 0)
(-0.019249188 -0.0008507027 0)
(-0.019068418 -0.001100988 0)
(-0.018841502 -0.0013488501 0)
(-0.018568947 -0.0015936802 0)
(-0.018251368 -0.0018348748 0)
(-0.017889496 -0.0020718369 0)
(-0.017484168 -0.0023039783 0)
(-0.01703633 -0.0025307206 0)
(-0.016547036 -0.0027514969 0)
(-0.016017441 -0.0029657536 0)
(-0.015448803 -0.0031729517 0)
(-0.014842479 -0.0033725681 0)
(-0.014199919 -0.0035640976 0)
(-0.013522666 -0.003747054 0)
(-0.012812352 -0.0039209716 0)
(-0.012070693 -0.0040854064 0)
(-0.011299483 -0.0042399379 0)
(-0.010500595 -0.0043841695 0)
(-0.0096759703 -0.0045177306 0)
(-0.0088276188 -0.0046402771 0)
(-0.0079576101 -0.0047514928 0)
(-0.0070680702 -0.0048510902 0)
(-0.0061611756 -0.0049388113 0)
(-0.0052391481 -0.0050144287 0)
(-0.0043042484 -0.005077746 0)
(-0.003358771 -0.0051285988 0)
(-0.0024050377 -0.0051668546 0)
(-0.0014453919 -0.005192414 0)
(-0.0004821925 -0.0052052104 0)
(0.00048219253 -0.0052052104 0)
(0.001445392 -0.005192414 0)
(0.0024050377 -0.0051668546 0)
(0.003358771 -0.0051285988 0)
(0.0043042485 -0.005077746 0)
(0.0052391481 -0.0050144287 0)
(0.0061611757 -0.0049388113 0)
(0.0070680702 -0.0048510902 0)
(0.0079576101 -0.0047514928 0)
(0.0088276188 -0.0046402771 0)
(0.0096759703 -0.0045177306 0)
(0.010500595 -0.0043841695 0)
(0.011299483 -0.0042399379 0)
(0.012070693 -0.0040854064 0)
(0.012812352 -0.0039209716 0)
(0.013522666 -0.003747054 0)
(0.014199919 -0.0035640976 0)
(0.014842479 -0.0033725681 0)
(0.015448803 -0.0031729517 0)
(0.016017441 -0.0029657536 0)
(0.016547036 -0.0027514969 0)
(0.01703633 -0.0025307206 0)
(0.017484168 -0.0023039783 0)
(0.017889496 -0.0020718369 0)
(0.018251368 -0.0018348748 0)
(0.018568947 -0.0015936802 0)
(0.018841502 -0.0013488501 0)
(0.019068418 -0.0011009879 0)
(0.019249188 -0.00085070269 0)
(0.019383421 -0.0005986069 0)
(0.019470837 -0.00034531527 0)
(0.019511274 -9.1443095e-05 0)
(0.01950468 0.0001623953 0)
(0.019451118 0.00041558803 0)
(0.019350765 0.00066752717 0)
(0.019203908 0.00091761013 0)
(0.019010947 0.0011652412 0)
(0.018772391 0.0014098328 0)
(0.018488856 0.0016508069 0)
(0.018161064 0.0018875963 0)
(0.017789844 0.0021196459 0)
(0.017376123 0.0023464139 0)
(0.016920929 0.002567373 0)
(0.016425386 0.0027820114 0)
(0.01589071 0.0029898337 0)
(0.015318209 0.0031903625 0)
(0.014709277 0.0033831385 0)
(0.014065391 0.0035677222 0)
(0.013388107 0.0037436941 0)
(0.012679058 0.0039106557 0)
(0.011939949 0.0040682302 0)
(0.011172551 0.0042160634 0)
(0.010378699 0.0043538238 0)
(0.0095602895 0.0044812036 0)
(0.0087192705 0.0045979188 0)
(0.0078576421 0.00470371 0)
(0.0069774498 0.0047983427 0)
(0.0060807802 0.0048816075 0)
(0.0051697561 0.0049533207 0)
(0.0042465322 0.0050133241 0)
(0.0033132898 0.0050614858 0)
(0.0023722325 0.0050976999 0)
(0.0014255807 0.0051218868 0)
(0.00047556733 0.0051339935 0)
(-0.00048030586 0.0060889527 0)
(-0.001439785 0.0060745942 0)
(-0.0023958691 0.0060459086 0)
(-0.003346303 0.0060029589 0)
(-0.0042888439 0.0059458394 0)
(-0.0052212665 0.0058746755 0)
(-0.0061413675 0.0057896239 0)
(-0.0070469709 0.005690872 0)
(-0.0079359325 0.0055786378 0)
(-0.008806145 0.0054531695 0)
(-0.0096555424 0.0053147452 0)
(-0.010482105 0.0051636727 0)
(-0.011283864 0.0050002886 0)
(-0.012058906 0.0048249581 0)
(-0.012805377 0.004638074 0)
(-0.013521486 0.0044400569 0)
(-0.014205514 0.0042313533 0)
(-0.014855811 0.0040124359 0)
(-0.015470806 0.0037838022 0)
(-0.016049005 0.0035459737 0)
(-0.016589001 0.0032994948 0)
(-0.017089474 0.003044932 0)
(-0.017549196 0.0027828727 0)
(-0.01796703 0.0025139239 0)
(-0.01834194 0.002238711 0)
(-0.018672987 0.0019578767 0)
(-0.018959338 0.0016720794 0)
(-0.019200261 0.0013819917 0)
(-0.019395135 0.0010882993 0)
(-0.019543445 0.00079169887 0)
(-0.019644788 0.00049289712 0)
(-0.019698874 0.00019260864 0)
(-0.019705525 -0.00010844553 0)
(-0.019664677 -0.00040953972 0)
(-0.019576382 -0.00070994534 0)
(-0.019440805 -0.0010089327 0)
(-0.019258228 -0.0013057727 0)
(-0.019029048 -0.0015997389 0)
(-0.018753773 -0.0018901092 0)
(-0.018433028 -0.0021761678 0)
(-0.018067549 -0.0024572068 0)
(-0.017658183 -0.0027325285 0)
(-0.017205885 -0.003001447 0)
(-0.016711719 -0.00326329 0)
(-0.016176851 -0.003517401 0)
(-0.015602553 -0.0037631405 0)
(-0.014990194 -0.0039998883 0)
(-0.014341239 -0.0042270453 0)
(-0.013657246 -0.0044440347 0)
(-0.012939864 -0.0046503042 0)
(-0.012190823 -0.0048453273 0)
(-0.011411939 -0.0050286049 0)
(-0.010605101 -0.005199667 0)
(-0.0097722708 -0.0053580738 0)
(-0.008915477 -0.0055034173 0)
(-0.0080368102 -0.0056353223 0)
(-0.0071384177 -0.0057534477 0)
(-0.0062224976 -0.0058574876 0)
(-0.0052912937 -0.0059471723 0)
(-0.0043470892 -0.0060222687 0)
(-0.0033922016 -0.0060825818 0)
(-0.0024289757 -0.0061279546 0)
(-0.0014597784 -0.0061582689 0)
(-0.00048699191 -0.0061734459 0)
(0.00048699194 -0.0061734459 0)
(0.0014597784 -0.0061582689 0)
(0.0024289757 -0.0061279546 0)
(0.0033922016 -0.0060825818 0)
(0.0043470893 -0.0060222687 0)
(0.0052912937 -0.0059471723 0)
(0.0062224976 -0.0058574876 0)
(0.0071384177 -0.0057534477 0)
(0.0080368103 -0.0056353222 0)
(0.008915477 -0.0055034173 0)
(0.0097722708 -0.0053580738 0)
(0.010605101 -0.005199667 0)
(0.011411939 -0.0050286049 0)
(0.012190824 -0.0048453273 0)
(0.012939864 -0.0046503042 0)
(0.013657246 -0.0044440347 0)
(0.014341239 -0.0042270453 0)
(0.014990194 -0.0039998883 0)
(0.015602553 -0.0037631405 0)
(0.016176851 -0.003517401 0)
(0.016711719 -0.00326329 0)
(0.017205885 -0.003001447 0)
(0.017658183 -0.0027325285 0)
(0.018067549 -0.0024572068 0)
(0.018433028 -0.0021761677 0)
(0.018753773 -0.0018901092 0)
(0.019029048 -0.0015997389 0)
(0.019258228 -0.0013057727 0)
(0.019440805 -0.0010089327 0)
(0.019576382 -0.00070994533 0)
(0.019664677 -0.00040953971 0)
(0.019705525 -0.00010844552 0)
(0.019698874 0.00019260865 0)
(0.019644788 0.00049289713 0)
(0.019543445 0.00079169888 0)
(0.019395135 0.0010882993 0)
(0.019200261 0.0013819917 0)
(0.018959338 0.0016720794 0)
(0.018672987 0.0019578767 0)
(0.01834194 0.002238711 0)
(0.01796703 0.0025139239 0)
(0.017549196 0.0027828727 0)
(0.017089474 0.003044932 0)
(0.016589001 0.0032994948 0)
(0.016049005 0.0035459737 0)
(0.015470806 0.0037838023 0)
(0.014855811 0.0040124359 0)
(0.014205514 0.0042313533 0)
(0.013521486 0.0044400569 0)
(0.012805377 0.0046380741 0)
(0.012058906 0.0048249581 0)
(0.011283864 0.0050002887 0)
(0.010482105 0.0051636727 0)
(0.0096555424 0.0053147452 0)
(0.0088061449 0.0054531695 0)
(0.0079359325 0.0055786378 0)
(0.0070469709 0.005690872 0)
(0.0061413675 0.0057896239 0)
(0.0052212665 0.0058746755 0)
(0.0042888439 0.0059458394 0)
(0.003346303 0.0060029589 0)
(0.0023958691 0.0060459086 0)
(0.001439785 0.0060745942 0)
(0.00048030583 0.0060889527 0)
(-0.00048576629 0.0070541057 0)
(-0.0014561534 0.0070374713 0)
(-0.0024231068 0.007004239 0)
(-0.0033843456 0.0069544816 0)
(-0.0043376015 0.0068883085 0)
(-0.0052806238 0.0068058649 0)
(-0.0062111842 0.0067073322 0)
(-0.0071270817 0.0065929276 0)
(-0.0080261479 0.0064629036 0)
(-0.0089062512 0.0063175477 0)
(-0.0097653023 0.0061571823 0)
(-0.010601258 0.0059821636 0)
(-0.011412128 0.0057928817 0)
(-0.012195976 0.0055897595 0)
(-0.012950927 0.0053732525 0)
(-0.013675172 0.0051438474 0)
(-0.014366968 0.004902062 0)
(-0.01502465 0.0046484436 0)
(-0.015646626 0.0043835687 0)
(-0.016231387 0.0041080414 0)
(-0.016777511 0.0038224925 0)
(-0.017283661 0.0035275783 0)
(-0.017748596 0.0032239793 0)
(-0.018171166 0.0029123988 0)
(-0.018550323 0.0025935614 0)
(-0.018885119 0.0022682117 0)
(-0.019174709 0.0019371124 0)
(-0.019418355 0.0016010428 0)
(-0.019615427 0.0012607973 0)
(-0.019765407 0.00091718316 0)
(-0.019867887 0.00057101893 0)
(-0.019922573 0.00022313255 0)
(-0.019929285 -0.00012564067 0)
(-0.019887959 -0.00047446005 0)
(-0.019798648 -0.00082248151 0)
(-0.019661519 -0.0011688597 0)
(-0.019476857 -0.0015127501 0)
(-0.019245063 -0.0018533111 0)
(-0.018966654 -0.0021897062 0)
(-0.018642259 -0.002521106 0)
(-0.018272623 -0.0028466908 0)
(-0.017858602 -0.0031656522 0)
(-0.017401164 -0.0034771955 0)
(-0.016901384 -0.0037805421 0)
(-0.016360442 -0.0040749312 0)
(-0.015779622 -0.0043596222 0)
(-0.015160311 -0.0046338966 0)
(-0.014503989 -0.0048970601 0)
(-0.013812232 -0.0051484448 0)
(-0.013086708 -0.0053874106 0)
(-0.012329167 -0.0056133476 0)
(-0.011541443 -0.0058256776 0)
(-0.010725449 -0.0060238561 0)
(-0.0098831681 -0.0062073734 0)
(-0.0090166516 -0.0063757568 0)
(-0.008128014 -0.0065285716 0)
(-0.0072194267 -0.0066654227 0)