/*--------------------------------*- C++ -*----------------------------------*\
| =========                 |                                                 |
| \\      /  F ield         | OpenFOAM: The Open Source CFD Toolbox           |
|  \\    /   O peration     | Version:  2306                                  |
|   \\  /    A nd           | Website:  www.openfoam.com                      |
|    \\/     M anipulation  |                                                 |
\*---------------------------------------------------------------------------*/
FoamFile
{
    version     2.0;
    format      ascii;
    arch        "LSB;label=32;scalar=64";
    class       volVectorField;
    location    "0.07";
    object      U;
}
// * * * * * * * * * * * * * * * * * * * * * * * * * * * * * * * * * * * * * //

dimensions      [0 1 -1 0 0 0 0];

internalField   nonuniform List<vector> 
51200
(
(-1.4881991e-05 1.3008876e-05 3.1433418e-20)
(-3.4839238e-05 1.4925867e-05 -1.686522e-21)
(-5.7608361e-05 1.4878239e-05 -1.2764013e-20)
(-7.9883234e-05 1.4964284e-05 1.6066372e-21)
(-0.00010266604 1.498149e-05 6.8105089e-21)
(-0.00012529922 1.4921849e-05 -5.9301405e-21)
(-0.00014775384 1.4836424e-05 -4.5636503e-21)
(-0.0001699965 1.4727255e-05 6.5794469e-21)
(-0.00019199285 1.4598316e-05 6.2520008e-21)
(-0.00021371036 1.4452022e-05 -9.3231764e-21)
(-0.0002351189 1.4289773e-05 -1.0577579e-20)
(-0.00025618963 1.4112582e-05 1.126537e-20)
(-0.00027689429 1.3921298e-05 -3.3741122e-21)
(-0.00029720581 1.3716674e-05 -8.8882916e-21)
(-0.00031709847 1.3499401e-05 -5.5072234e-22)
(-0.00033654787 1.327017e-05 8.2084032e-22)
(-0.00035553094 1.3029667e-05 4.4903034e-21)
(-0.00037402598 1.2778589e-05 -5.270052e-21)
(-0.00039201266 1.2517641e-05 -7.4321817e-21)
(-0.00040947214 1.2247521e-05 3.1830492e-21)
(-0.00042638702 1.1968927e-05 -8.8813685e-22)
(-0.00044274142 1.1682549e-05 -3.0177761e-21)
(-0.00045852094 1.1389064e-05 6.6920065e-21)
(-0.00047371273 1.1089124e-05 1.9185861e-20)
(-0.00048830547 1.0783349e-05 3.3018156e-20)
(-0.00050228933 1.0472322e-05 -1.1790162e-20)
(-0.00051565602 1.0156562e-05 -6.3981021e-20)
(-0.0005283987 9.8365077e-06 -6.5258584e-21)
(-0.00054051199 9.5124838e-06 3.7921875e-20)
(-0.00055199192 9.1846359e-06 2.2572747e-20)
(-0.00056283591 8.85288e-06 1.1751775e-20)
(-0.00057304275 8.5167979e-06 -1.3992239e-21)
(-0.00058261314 8.1756678e-06 2.0963897e-20)
(-0.00059155206 7.8290919e-06 -2.8542633e-20)
(-0.00059986891 7.4814023e-06 -5.6318911e-20)
(-0.00060756657 7.1436104e-06 4.6534737e-20)
(-0.0006146431 6.8185858e-06 2.5092112e-20)
(-0.0006211021 6.5050313e-06 -8.4831063e-20)
(-0.00062695109 6.201172e-06 1.7192836e-20)
(-0.00063219923 5.9056937e-06 1.187269e-19)
(-0.00063685653 5.6177652e-06 3.6373354e-20)
(-0.00064093366 5.3368936e-06 -5.4965846e-20)
(-0.00064444195 5.0628025e-06 -1.0842429e-19)
(-0.00064739334 4.7953485e-06 -1.0524661e-19)
(-0.00064980034 4.5344747e-06 3.5159749e-20)
(-0.00065167604 4.280171e-06 2.2878298e-19)
(-0.00065303401 4.0324744e-06 4.4232452e-20)
(-0.00065388827 3.7914499e-06 -7.4178167e-20)
(-0.00065425324 3.5572017e-06 -7.8299797e-20)
(-0.00065414368 3.3298774e-06 -1.7192761e-19)
(-0.00065357464 3.1096267e-06 1.1082477e-19)
(-0.00065256147 2.8965619e-06 1.0073163e-19)
(-0.00065111968 2.6906952e-06 -4.1873269e-20)
(-0.00064926496 2.4920028e-06 7.2272325e-20)
(-0.00064701304 2.3004477e-06 -1.3165142e-19)
(-0.00064437969 2.1159893e-06 -1.0327806e-19)
(-0.00064138071 1.9385709e-06 1.4771713e-19)
(-0.00063803181 1.7681336e-06 2.7478323e-20)
(-0.00063434865 1.6046103e-06 -4.1872535e-20)
(-0.00063034676 1.4479309e-06 2.9872098e-20)
(-0.00062604151 1.2980218e-06 0)
(-0.00062144811 1.1548135e-06 -2.7205586e-20)
(-0.00061658154 1.0182282e-06 -1.7103995e-20)
(-0.00061145655 8.8820787e-07 1.4169548e-20)
(-0.00060608765 7.6470389e-07 -3.3324649e-20)
(-0.00060048904 6.4768272e-07 -3.8305535e-20)
(-0.00059467466 5.3714659e-07 1.0873199e-19)
(-0.00058865813 4.3314264e-07 -1.8076297e-20)
(-0.00058245277 3.3578328e-07 -5.1978213e-20)
(-0.0005760716 2.4526606e-07 1.7655564e-19)
(-0.00056952734 1.6185015e-07 -3.1094252e-20)
(-0.00056283232 8.5744175e-08 -1.4022894e-19)
(-0.00055599817 1.6963931e-08 2.9094782e-20)
(-0.00054903376 -4.5173647e-08 5.5433946e-20)
(-0.00054194277 -1.0756049e-07 4.2067801e-20)
(-0.00053473954 -1.9123926e-07 -1.2385943e-19)
(-0.00052744782 -2.9151569e-07 -9.3946916e-20)
(-0.0005200774 -3.9011612e-07 1.147581e-19)
(-0.0005126314 -4.8251105e-07 1.3423294e-19)
(-0.00050511715 -5.6814035e-07 -3.5872055e-20)
(-0.00049754318 -6.4731672e-07 -1.5771415e-19)
(-0.00048991793 -7.2063189e-07 4.2111973e-20)
(-0.00048224948 -7.8866722e-07 9.1505251e-20)
(-0.00047454554 -8.519104e-07 -2.2984544e-21)
(-0.00046681339 -9.1076163e-07 4.4674301e-20)
(-0.00045905995 -9.655529e-07 -4.439207e-20)
(-0.00045129176 -1.0165622e-06 -3.2585259e-21)
(-0.00044351503 -1.0640348e-06 -3.1614351e-21)
(-0.00043573562 -1.1081772e-06 -6.0449509e-20)
(-0.00042795906 -1.1491873e-06 4.862077e-20)
(-0.00042019057 -1.1872364e-06 -6.2931736e-20)
(-0.00041243506 -1.2224926e-06 -3.0421678e-20)
(-0.00040469715 -1.2551064e-06 7.9567151e-20)
(-0.00039698115 -1.2852208e-06 2.3275129e-20)
(-0.00038929113 -1.3129761e-06 -9.7485972e-21)
(-0.00038163084 -1.3384931e-06 -6.8606041e-20)
(-0.00037400381 -1.3619e-06 -8.4118291e-21)
(-0.00036641332 -1.3833094e-06 3.4271618e-20)
(-0.00035886238 -1.4028316e-06 6.1224723e-20)
(-0.0003513538 -1.4205748e-06 7.2404843e-21)
(-0.00034389015 -1.4366439e-06 -9.5473835e-20)
(-0.00033647378 -1.4511275e-06 1.6282644e-20)
(-0.00032910686 -1.4641176e-06 1.9935884e-20)
(-0.00032179136 -1.4757103e-06 3.0562478e-20)
(-0.00031452904 -1.4859854e-06 1.4971165e-20)
(-0.00030732149 -1.49502e-06 -8.3604678e-20)
(-0.00030017015 -1.5028964e-06 2.0765525e-20)
(-0.00029307627 -1.5096853e-06 4.2757897e-20)
(-0.00028604097 -1.515452e-06 5.6765823e-21)
(-0.00027906522 -1.5202746e-06 -3.5651967e-21)
(-0.00027214981 -1.5242059e-06 -6.3764664e-20)
(-0.00026529546 -1.5273138e-06 1.5642192e-22)
(-0.00025850272 -1.5296515e-06 3.2703065e-20)
(-0.00025177204 -1.5312748e-06 2.0854824e-21)
(-0.00024510374 -1.5322389e-06 1.5509676e-20)
(-0.00023849806 -1.5325963e-06 -1.7311884e-20)
(-0.00023195512 -1.532389e-06 1.862568e-21)
(-0.00022547494 -1.5316615e-06 6.020143e-21)
(-0.00021905748 -1.530461e-06 2.2925319e-21)
(-0.00021270259 -1.5288254e-06 2.2328849e-20)
(-0.00020641005 -1.5267981e-06 -2.0239338e-20)
(-0.00020017956 -1.5244071e-06 -1.0819075e-20)
(-0.00019401077 -1.5216951e-06 1.4890559e-20)
(-0.00018790324 -1.5186927e-06 2.4570533e-20)
(-0.00018185649 -1.5154313e-06 4.4351384e-21)
(-0.00017586997 -1.5119367e-06 -4.6271844e-20)
(-0.0001699431 -1.5082455e-06 -1.8581915e-20)
(-0.00016407523 -1.5043726e-06 2.2369757e-20)
(-0.00015826567 -1.5003518e-06 1.7405778e-20)
(-0.0001525137 -1.4962e-06 -8.0253464e-21)
(-0.00014681856 -1.4919433e-06 -1.5591492e-20)
(-0.00014117944 -1.4876036e-06 -4.2789893e-22)
(-0.00013559552 -1.483199e-06 -6.1450538e-21)
(-0.00013006593 -1.4787453e-06 -7.5294277e-21)
(-0.00012458979 -1.4742604e-06 -7.8397973e-21)
(-0.00011916621 -1.469765e-06 7.9720841e-21)
(-0.00011379424 -1.4652639e-06 2.0107336e-20)
(-0.00010847295 -1.4607836e-06 2.0508695e-21)
(-0.00010320137 -1.4563289e-06 -3.4235292e-22)
(-9.7978536e-05 -1.4519122e-06 -1.8392752e-21)
(-9.2803456e-05 -1.4475451e-06 -5.918094e-21)
(-8.7675138e-05 -1.4432405e-06 4.1242503e-21)
(-8.2592579e-05 -1.4390075e-06 -2.0116907e-21)
(-7.7554771e-05 -1.43485e-06 2.2405633e-21)
(-7.2560704e-05 -1.4307807e-06 1.0393736e-20)
(-6.7609366e-05 -1.4268049e-06 -1.0552827e-20)
(-6.2699746e-05 -1.422923e-06 -8.418124e-21)
(-5.7830833e-05 -1.4191485e-06 7.3774749e-21)
(-5.3001629e-05 -1.4154762e-06 9.0182103e-21)
(-4.8211148e-05 -1.4119056e-06 -1.2601406e-21)
(-4.3458422e-05 -1.4084256e-06 -9.4275372e-21)
(-3.8742531e-05 -1.4050031e-06 -3.6481179e-21)
(-3.4062654e-05 -1.4015523e-06 4.9978543e-21)
(-2.941816e-05 -1.3978819e-06 2.3370845e-21)
(-2.4808865e-05 -1.3934886e-06 -2.4311866e-21)
(-2.0235638e-05 -1.3872555e-06 -2.2724186e-21)
(-1.5702211e-05 -1.3772005e-06 7.5203001e-23)
(-1.1218299e-05 -1.3633794e-06 1.1348612e-21)
(-6.7793905e-06 -1.3849772e-06 2.4335122e-22)
(-2.2566884e-06 -1.6454543e-06 -1.2782925e-21)
(-2.574702e-05 7.6234459e-05 2.7526945e-20)
(-5.7768025e-05 7.7621047e-05 -1.2660347e-21)
(-9.4455142e-05 7.7707438e-05 1.2381786e-21)
(-0.00013028868 7.7835382e-05 1.5758064e-20)
(-0.00016686977 7.77234e-05 1.1865712e-20)
(-0.00020322248 7.7427677e-05 -8.4420445e-21)
(-0.00023930611 7.7020309e-05 1.2197835e-20)
(-0.00027506788 7.6520191e-05 2.1198102e-21)
(-0.00031044901 7.5937602e-05 -6.6875569e-21)
(-0.00034539233 7.5278815e-05 -3.4065132e-21)
(-0.00037984512 7.454806e-05 2.5727551e-21)
(-0.00041375761 7.3748717e-05 1.7985657e-21)
(-0.00044708192 7.2883785e-05 -5.633797e-21)
(-0.00047977257 7.1956077e-05 2.6473253e-20)
(-0.00051178671 7.0968344e-05 9.7667645e-21)
(-0.0005430839 6.9923373e-05 2.9456562e-21)
(-0.00057362614 6.8824009e-05 2.855021e-20)
(-0.00060337782 6.7673159e-05 1.4231252e-21)
(-0.00063230576 6.6473808e-05 -2.6874558e-20)
(-0.00066037925 6.5228995e-05 -1.826639e-20)
(-0.00068757007 6.394181e-05 -2.700956e-21)
(-0.00071385253 6.2615367e-05 -6.0471378e-21)
(-0.00073920345 6.1252819e-05 6.2848031e-22)
(-0.00076360219 5.9857303e-05 2.8772404e-20)
(-0.00078703068 5.8431949e-05 4.7336921e-20)
(-0.00080947336 5.6979848e-05 -1.6109405e-20)
(-0.00083091718 5.550403e-05 -5.9173019e-20)
(-0.00085135159 5.4007429e-05 -2.4027224e-20)
(-0.00087076855 5.2492852e-05 -2.0170124e-20)
(-0.00088916243 5.0962911e-05 5.0419827e-20)
(-0.00090653008 4.9420003e-05 8.8722202e-20)
(-0.00092287076 4.7866248e-05 -2.2874649e-20)
(-0.00093818584 4.630359e-05 -5.4799021e-20)
(-0.00095247661 4.4734388e-05 -3.9823698e-20)
(-0.00096574336 4.3164554e-05 1.3389366e-20)
(-0.0009779937 4.1604816e-05 4.0120524e-20)
(-0.00098924152 4.0060085e-05 -6.3554236e-20)
(-0.00099949922 3.8531623e-05 -1.1188641e-19)
(-0.0010087791 3.7019944e-05 1.1720865e-19)
(-0.0010170949 3.5525766e-05 1.5736819e-19)
(-0.0010244617 3.4050116e-05 -1.9055917e-19)
(-0.0010308961 3.2594219e-05 -7.9306528e-20)
(-0.0010364162 3.1159376e-05 1.9378829e-19)
(-0.0010410413 2.9746904e-05 2.0316772e-19)
(-0.0010447914 2.8358078e-05 1.2529032e-20)
(-0.0010476879 2.6994087e-05 -3.7027882e-19)
(-0.0010497528 2.5656026e-05 -2.2919114e-19)
(-0.0010510088 2.4344869e-05 2.3367182e-19)
(-0.0010514794 2.3061454e-05 2.0833419e-19)
(-0.0010511884 2.1806475e-05 -1.1934735e-19)
(-0.0010501605 2.0580468e-05 -2.0293783e-19)
(-0.0010484207 1.9383948e-05 1.5751129e-19)
(-0.0010459943 1.8217427e-05 2.5259827e-19)
(-0.0010429067 1.7081354e-05 -2.1441015e-20)
(-0.0010391833 1.5976094e-05 -1.5481767e-19)
(-0.0010348498 1.4901937e-05 -1.8948221e-19)
(-0.0010299317 1.3859078e-05 -1.849637e-20)
(-0.0010244543 1.284764e-05 2.5001376e-19)
(-0.001018443 1.1867658e-05 9.0192266e-20)
(-0.0010119228 1.0919097e-05 -2.613151e-19)
(-0.0010049184 1.0001849e-05 -8.7768875e-20)
(-0.00099745447 9.1157482e-06 2.5667042e-19)
(-0.000989555 8.2605507e-06 8.067385e-20)
(-0.00098124374 7.4359725e-06 -2.5457403e-19)
(-0.00097254396 6.6416715e-06 -1.1451504e-19)
(-0.00096347846 5.8772576e-06 1.4769424e-19)
(-0.00095406953 5.1423059e-06 1.1365075e-19)
(-0.0009443389 4.4363608e-06 4.1964905e-20)
(-0.00093430777 3.7589475e-06 -5.951033e-20)
(-0.00092399677 3.1096136e-06 -1.7806684e-19)
(-0.00091342603 2.4879308e-06 3.3894237e-20)
(-0.00090261531 1.8935166e-06 1.1563376e-19)
(-0.00089158491 1.3260313e-06 -4.1116838e-20)
(-0.00088035946 7.8517249e-07 2.0375841e-20)
(-0.00086896955 2.6785989e-07 1.065407e-19)
(-0.00085742227 -2.3753931e-07 2.4826099e-20)
(-0.00084570623 -7.2598008e-07 -1.537337e-19)
(-0.00083383653 -1.190952e-06 -9.7431218e-20)
(-0.00082184136 -1.6322211e-06 6.8817031e-20)
(-0.00080973952 -2.0506781e-06 4.2338586e-20)
(-0.00079754589 -2.4473235e-06 -1.2612027e-20)
(-0.00078527396 -2.8231146e-06 2.087439e-20)
(-0.0007729364 -3.1789122e-06 5.562783e-20)
(-0.0007605452 -3.515515e-06 -6.4708382e-20)
(-0.0007481118 -3.8336777e-06 -5.9816168e-21)
(-0.00073564704 -4.1341234e-06 7.8400316e-20)
(-0.00072316127 -4.417553e-06 -9.6414679e-20)
(-0.00071066428 -4.6846551e-06 3.0470621e-21)
(-0.00069816533 -4.9360883e-06 5.3941794e-20)
(-0.0006856732 -5.1725029e-06 -1.8239347e-20)
(-0.00067319613 -5.3945341e-06 -2.5276719e-20)
(-0.00066074191 -5.6027974e-06 -6.9161973e-20)
(-0.00064831784 -5.7979021e-06 5.4660956e-20)
(-0.00063593078 -5.9804315e-06 5.0544633e-20)
(-0.00062358712 -6.1509609e-06 -2.6753645e-20)
(-0.00061129285 -6.3100392e-06 -1.3704755e-20)
(-0.00059905352 -6.4582115e-06 -1.3205837e-20)
(-0.00058687431 -6.5959937e-06 4.0735119e-20)
(-0.00057475999 -6.7238955e-06 9.9466474e-21)
(-0.00056271498 -6.8424065e-06 -5.9342018e-20)
(-0.00055074334 -6.9520128e-06 -1.6444886e-20)
(-0.00053884879 -7.0531576e-06 4.0088507e-20)
(-0.00052703472 -7.1462814e-06 4.0680163e-20)
(-0.00051530421 -7.2318265e-06 8.8924319e-21)
(-0.00050366006 -7.3102005e-06 -4.5590749e-20)
(-0.00049210476 -7.3817939e-06 -4.6226e-20)
(-0.00048064054 -7.4469924e-06 2.1929392e-20)
(-0.00046926938 -7.5061638e-06 6.8476567e-20)
(-0.000457993 -7.5596579e-06 5.6012376e-21)
(-0.00044681289 -7.6078247e-06 -6.5614815e-20)
(-0.00043573032 -7.6509776e-06 -1.57755e-20)
(-0.00042474635 -7.6894336e-06 1.6526973e-21)
(-0.00041386185 -7.7234917e-06 4.6887867e-20)
(-0.00040307748 -7.7534357e-06 5.1193306e-20)
(-0.00039239374 -7.779544e-06 -4.1963565e-20)
(-0.00038181094 -7.8020831e-06 -4.4692379e-20)
(-0.00037132926 -7.8212941e-06 -7.7477176e-21)
(-0.0003609487 -7.8374156e-06 3.8912252e-20)
(-0.00035066915 -7.850684e-06 2.1726234e-20)
(-0.00034049033 -7.8613167e-06 -4.545011e-20)
(-0.00033041188 -7.869523e-06 -1.4981203e-20)
(-0.00032043327 -7.8754903e-06 3.3850651e-20)
(-0.00031055392 -7.8794188e-06 2.951069e-20)
(-0.00030077311 -7.8814826e-06 -9.8276942e-21)
(-0.00029109003 -7.8818527e-06 -4.4751076e-20)
(-0.00028150379 -7.8806893e-06 -7.3993386e-21)
(-0.00027201342 -7.8781518e-06 2.5669124e-20)
(-0.00026261786 -7.8743762e-06 1.8455284e-20)
(-0.00025331601 -7.8695098e-06 -3.7679061e-21)
(-0.00024410666 -7.8636815e-06 -2.8806323e-20)
(-0.00023498859 -7.8570134e-06 -8.1002586e-21)
(-0.00022596048 -7.8496224e-06 3.0046597e-20)
(-0.000217021 -7.8416227e-06 2.1593634e-20)
(-0.00020816876 -7.8331124e-06 -1.5224581e-20)
(-0.00019940233 -7.8241918e-06 -4.0076561e-20)
(-0.00019072023 -7.8149579e-06 -1.0768605e-21)
(-0.00018212098 -7.8054849e-06 3.4382978e-20)
(-0.00017360304 -7.7958704e-06 1.2799099e-20)
(-0.00016516486 -7.7861785e-06 -8.1168245e-21)
(-0.00015680488 -7.7764835e-06 -1.2197513e-20)
(-0.0001485215 -7.7668539e-06 -4.6650041e-22)
(-0.00014031311 -7.7573488e-06 5.6354316e-21)
(-0.00013217812 -7.7480299e-06 4.7152314e-21)
(-0.00012411488 -7.7389393e-06 -4.1009096e-21)
(-0.00011612177 -7.7301334e-06 -8.4612943e-21)
(-0.00010819717 -7.7216562e-06 -2.3660036e-22)
(-0.00010033943 -7.713538e-06 5.1921168e-21)
(-9.2546933e-05 -7.7058189e-06 7.5958576e-21)
(-8.4818065e-05 -7.6985159e-06 -1.6476861e-21)
(-7.7151213e-05 -7.6916414e-06 -9.8660388e-21)
(-6.9544785e-05 -7.6851904e-06 -9.7011318e-22)
(-6.199721e-05 -7.6791e-06 5.0715778e-21)
(-5.4506936e-05 -7.6732284e-06 4.1213111e-21)
(-4.7072414e-05 -7.6672464e-06 -1.9290412e-21)
(-3.9692013e-05 -7.6603637e-06 -4.3708544e-21)
(-3.2363692e-05 -7.6509121e-06 8.5702543e-23)
(-2.5083922e-05 -7.636157e-06 1.6062156e-21)
(-1.7845834e-05 -7.6142096e-06 3.1655937e-22)
(-1.0641193e-05 -7.5950789e-06 -8.7718789e-22)
(-3.5069315e-06 -7.6523907e-06 -1.1887968e-21)
(-2.8611609e-05 0.00015900998 -2.6684277e-20)
(-6.3762871e-05 0.0001598044 -1.1815567e-20)
(-0.00010416414 0.00015983047 1.0694944e-21)
(-0.00014347248 0.00015968623 1.113516e-20)
(-0.00018359503 0.00015925447 -1.4695344e-21)
(-0.00022344999 0.00015857943 -1.6960069e-20)
(-0.00026300655 0.00015771158 2.2945344e-20)
(-0.00030221221 0.00015667047 -1.6886917e-21)
(-0.0003410031 0.00015546829 4.2707653e-21)
(-0.00037931589 0.00015411378 3.7234659e-20)
(-0.00041709181 0.00015261381 7.0885499e-21)
(-0.0004542753 0.00015097446 1.4524678e-20)
(-0.00049081307 0.00014920145 -1.5871431e-20)
(-0.00052665459 0.0001473004 1.4310144e-20)
(-0.00056175226 0.00014527697 3.0867495e-20)
(-0.00059606129 0.00014313694 -4.449256e-22)
(-0.00062953959 0.00014088621 2.2103381e-20)
(-0.00066214783 0.00013853088 -6.8141142e-21)
(-0.00069384937 0.00013607718 -2.1809189e-20)
(-0.00072461038 0.00013353148 1.5477379e-20)
(-0.0007543998 0.00013090025 7.5429125e-21)
(-0.00078318937 0.00012819008 -8.3135467e-22)
(-0.00081095365 0.0001254076 1.0015033e-20)
(-0.00083767003 0.00012255949 2.9263334e-20)
(-0.00086331873 0.00011965245 2.4692001e-20)
(-0.00088788275 0.00011669315 -1.9535104e-21)
(-0.0009113479 0.00011368826 -1.9964309e-20)
(-0.00093370272 0.00011064438 -3.7069245e-20)
(-0.00095493848 0.00010756804 -3.7503926e-20)
(-0.0009750491 0.0001044657 1.7216585e-21)
(-0.00099403107 0.0001013438 1.8171465e-20)
(-0.0010118834 9.8208746e-05 1.7898335e-20)
(-0.0010286072 9.5067052e-05 -1.5821683e-20)
(-0.0010442055 9.192521e-05 -5.4255411e-20)
(-0.0010586831 8.8787939e-05 2.4307217e-21)
(-0.0010720487 8.5657067e-05 2.8356761e-20)
(-0.0010843138 8.253734e-05 -5.4754967e-22)
(-0.001095491 7.9434494e-05 -1.843417e-20)
(-0.0011055942 7.6353903e-05 1.4891334e-21)
(-0.0011146386 7.3300435e-05 -2.8373817e-21)
(-0.0011226414 7.0278535e-05 -4.1780561e-20)
(-0.0011296212 6.7292307e-05 1.6670945e-20)
(-0.001135598 6.4345532e-05 6.0610548e-20)
(-0.0011405932 6.1441689e-05 6.4371518e-20)
(-0.0011446294 5.8583975e-05 1.8288428e-20)
(-0.0011477301 5.577528e-05 -1.2082809e-19)
(-0.0011499199 5.3018207e-05 -6.225344e-20)
(-0.001151224 5.0315069e-05 4.4204925e-20)
(-0.0011516686 4.7667867e-05 4.9271252e-20)
(-0.0011512802 4.5078283e-05 3.2096272e-20)
(-0.0011500858 4.2547739e-05 -7.8323678e-20)
(-0.0011481128 4.0077476e-05 2.4903341e-21)
(-0.0011453888 3.7668645e-05 8.1631427e-20)
(-0.0011419417 3.5322235e-05 -2.4919173e-21)
(-0.0011377996 3.3039044e-05 -8.6281591e-21)
(-0.0011329905 3.0819666e-05 -3.2259375e-20)
(-0.0011275427 2.8664519e-05 -2.6650378e-20)
(-0.001121484 2.6573845e-05 6.0802732e-20)
(-0.0011148423 2.4547698e-05 1.599763e-20)
(-0.0011076451 2.2585987e-05 -7.832989e-20)
(-0.0010999197 2.0688454e-05 -2.329068e-20)
(-0.001091693 1.8854706e-05 6.0322235e-20)
(-0.0010829914 1.7084199e-05 2.6827865e-20)
(-0.0010738412 1.5376268e-05 -3.8018496e-20)
(-0.0010642678 1.3730124e-05 -6.5389469e-22)
(-0.0010542964 1.2144864e-05 1.4971616e-20)
(-0.0010439514 1.0619472e-05 -9.0236096e-21)
(-0.0010332569 9.1528238e-06 2.5119424e-20)
(-0.0010222362 7.7437098e-06 -6.702443e-21)
(-0.001010912 6.3908385e-06 -4.9465791e-20)
(-0.0009993064 5.0928978e-06 8.2636424e-21)
(-0.00098744065 3.8486599e-06 2.4568202e-20)
(-0.0009753349 2.6569891e-06 -1.0878419e-20)
(-0.00096300841 1.5169025e-06 1.3151571e-20)
(-0.00095048132 4.3208887e-07 2.1129301e-20)
(-0.00093777078 -5.8369941e-07 4.1465889e-21)
(-0.00092489525 -1.535962e-06 -2.2903599e-20)
(-0.00091187503 -2.4400641e-06 -3.9891143e-20)
(-0.00089872597 -3.3004166e-06 -1.2062965e-20)
(-0.00088546292 -4.1189401e-06 3.0199764e-20)
(-0.00087210072 -4.8971283e-06 2.9184781e-20)
(-0.00085865381 -5.6362181e-06 -3.0774188e-20)
(-0.00084513607 -6.337351e-06 -1.2182043e-20)
(-0.00083156074 -7.0017071e-06 -1.9132471e-20)
(-0.00081794041 -7.6304775e-06 -1.3442296e-20)
(-0.00080428706 -8.2248732e-06 2.8859896e-20)
(-0.00079061201 -8.786128e-06 -2.3952133e-20)
(-0.00077692599 -9.3154728e-06 5.0699935e-21)
(-0.00076323915 -9.8141252e-06 2.7806873e-20)
(-0.00074956105 -1.0283303e-05 -5.1365092e-21)
(-0.00073590071 -1.07242e-05 -1.2053188e-21)
(-0.00072226661 -1.1137997e-05 -1.5116342e-20)
(-0.00070866671 -1.1525853e-05 1.2738914e-20)
(-0.00069510845 -1.1888903e-05 9.973372e-22)
(-0.00068159881 -1.2228256e-05 -4.6724718e-21)
(-0.00066814429 -1.2544993e-05 2.4043395e-20)
(-0.00065475092 -1.2840163e-05 -9.9260593e-21)
(-0.00064142433 -1.3114787e-05 -6.7181052e-21)
(-0.00062816969 -1.3369867e-05 -1.5641794e-20)
(-0.00061499179 -1.3606357e-05 -1.0508837e-20)
(-0.00060189504 -1.3825206e-05 2.1712831e-20)
(-0.00058888347 -1.4027306e-05 3.4715436e-21)
(-0.00057596075 -1.4213532e-05 8.4615237e-21)
(-0.0005631302 -1.4384732e-05 -1.2248099e-20)
(-0.00055039485 -1.4541721e-05 -7.8579087e-21)
(-0.00053775739 -1.4685282e-05 2.0133145e-20)
(-0.00052522022 -1.4816167e-05 -1.1979541e-21)
(-0.00051278547 -1.4935108e-05 5.9720394e-21)
(-0.00050045499 -1.5042803e-05 -9.8490761e-21)
(-0.00048823038 -1.5139932e-05 -2.4741064e-20)
(-0.00047611301 -1.5227129e-05 1.1257442e-20)
(-0.00046410398 -1.5305019e-05 7.1758889e-21)
(-0.00045220423 -1.5374195e-05 5.9833177e-21)
(-0.00044041446 -1.5435219e-05 9.9806908e-21)
(-0.00042873517 -1.5488651e-05 -1.0666053e-20)
(-0.00041716669 -1.5535e-05 -7.7498628e-21)
(-0.00040570918 -1.5574763e-05 -5.5277778e-21)
(-0.00039436263 -1.5608417e-05 9.9441893e-21)
(-0.00038312688 -1.563642e-05 3.978868e-21)
(-0.00037200162 -1.5659208e-05 -1.0707237e-20)
(-0.00036098641 -1.567719e-05 4.4432462e-21)
(-0.00035008069 -1.5690753e-05 5.6723694e-21)
(-0.00033928377 -1.5700283e-05 2.4696089e-21)
(-0.00032859486 -1.5706126e-05 -7.2344595e-21)
(-0.00031801305 -1.5708625e-05 -8.7762339e-21)
(-0.00030753737 -1.5708108e-05 1.0359983e-20)
(-0.00029716671 -1.570487e-05 6.9986327e-21)
(-0.00028689992 -1.5699206e-05 4.9800818e-22)
(-0.00027673577 -1.569139e-05 -6.8030188e-21)
(-0.00026667294 -1.5681687e-05 -5.4531075e-21)
(-0.00025671006 -1.5670342e-05 6.9132987e-21)
(-0.0002468457 -1.5657577e-05 5.1841711e-21)
(-0.00023707837 -1.5643626e-05 1.3656247e-21)
(-0.00022740655 -1.5628685e-05 -5.1332695e-21)
(-0.00021782866 -1.5612957e-05 -5.7904229e-21)
(-0.00020834309 -1.5596619e-05 1.1341329e-21)
(-0.00019894819 -1.5579849e-05 4.9761409e-21)
(-0.00018964228 -1.5562808e-05 2.9895966e-21)
(-0.00018042365 -1.5545644e-05 -4.4864388e-21)
(-0.00017129059 -1.55285e-05 -3.0798198e-21)
(-0.00016224134 -1.5511512e-05 3.0806836e-21)
(-0.00015327414 -1.5494801e-05 -1.7687318e-21)
(-0.00014438721 -1.547848e-05 9.2162635e-22)
(-0.00013557879 -1.5462646e-05 -1.632944e-21)
(-0.00012684707 -1.5447406e-05 -1.7744742e-21)
(-0.00011819027 -1.5432845e-05 4.9754838e-21)
(-0.0001096066 -1.541904e-05 -3.6434387e-22)
(-0.00010109427 -1.5406054e-05 -6.0779426e-22)
(-9.2651486e-05 -1.5393944e-05 -1.4407212e-21)
(-8.4276485e-05 -1.5382754e-05 -1.1208213e-21)
(-7.5967496e-05 -1.5372503e-05 4.4848723e-21)
(-6.7722755e-05 -1.5363173e-05 1.3814544e-21)
(-5.9540488e-05 -1.5354709e-05 9.346526e-23)
(-5.1418866e-05 -1.5346984e-05 -3.9377533e-21)
(-4.3355904e-05 -1.5339764e-05 -1.4597185e-21)
(-3.5349235e-05 -1.5332758e-05 4.3591375e-21)
(-2.7395508e-05 -1.5326195e-05 8.0005996e-22)
(-1.9488579e-05 -1.5323183e-05 -7.045069e-22)
(-1.1620632e-05 -1.5336119e-05 -4.4068808e-22)
(-3.8384108e-06 -1.5390899e-05 1.6335161e-21)
(-2.9036868e-05 0.00024207207 -1.4184797e-19)
(-6.5106642e-05 0.0002423174 -4.4729782e-20)
(-0.00010652125 0.00024208602 2.1385442e-20)
(-0.00014672162 0.00024161422 -2.8621776e-20)
(-0.00018776628 0.00024082547 1.110028e-20)
(-0.00022851925 0.00023974141 -1.2151311e-20)
(-0.00026895707 0.00023839106 -6.775369e-21)
(-0.0003090302 0.00023679037 -2.9457714e-21)
(-0.00034867517 0.00023495147 8.0945883e-21)
(-0.00038782817 0.0002328844 2.2408921e-20)
(-0.0004264295 0.00023059805 1.0827124e-20)
(-0.00046442242 0.00022810082 2.001668e-20)
(-0.00050175241 0.00022540103 -1.9889938e-20)
(-0.00053836769 0.00022250705 2.5014084e-22)
(-0.00057421949 0.00021942743 1.8225408e-20)
(-0.00060926185 0.00021617097 -1.9272132e-20)
(-0.00064345165 0.00021274669 2.0193208e-20)
(-0.00067674856 0.00020916387 7.9943238e-21)
(-0.00070911507 0.00020543205 -1.3325088e-20)
(-0.00074051653 0.00020156094 1.1018073e-20)
(-0.00077092117 0.00019756042 3.6263142e-21)
(-0.00080030011 0.00019344052 3.7398003e-21)
(-0.0008286274 0.00018921136 2.5564438e-20)
(-0.00085587998 0.00018488312 1.082795e-20)
(-0.00088203771 0.00018046598 -1.6904939e-20)
(-0.00090708333 0.00017597011 -2.0956985e-20)
(-0.00093100246 0.00017140563 -1.7569764e-20)
(-0.00095378352 0.00016678257 1.8112505e-21)
(-0.00097541773 0.00016211082 2.2710199e-22)
(-0.00099589903 0.00015740014 -8.7692548e-21)
(-0.001015224 0.00015266013 -1.0417003e-20)
(-0.0010333916 0.00014790019 5.5810173e-22)
(-0.0010504035 0.00014312951 2.0068791e-20)
(-0.0010662633 0.00013835693 -1.5826341e-20)
(-0.0010809771 0.00013359051 -3.5822551e-20)
(-0.0010945536 0.00012883749 1.1147145e-20)
(-0.001107004 0.00012410562 3.5353241e-20)
(-0.0011183412 0.00011940272 8.8606318e-21)
(-0.0011285797 0.00011473618 2.9491162e-21)
(-0.0011377357 0.00011011284 -2.2817393e-21)
(-0.0011458269 0.00010553903 -3.5506176e-21)
(-0.0011528727 0.00010102061 9.2644599e-21)
(-0.0011588939 9.6563069e-05 8.6723642e-21)
(-0.0011639126 9.2171448e-05 -2.1259321e-20)
(-0.0011679519 8.785042e-05 9.1031082e-21)
(-0.0011710363 8.3604264e-05 -9.4318417e-22)
(-0.0011731908 7.9436891e-05 -1.8818096e-20)
(-0.0011744416 7.5351855e-05 1.889884e-21)
(-0.0011748155 7.1352363e-05 -2.2592506e-20)
(-0.0011743397 6.7441278e-05 1.0490305e-20)
(-0.0011730421 6.3621155e-05 1.9354536e-20)
(-0.001170951 5.9894137e-05 -9.5228288e-21)
(-0.0011680947 5.6261957e-05 1.0185669e-20)
(-0.001164502 5.2726029e-05 -2.8509109e-21)
(-0.0011602017 4.9287446e-05 -1.1153095e-21)
(-0.0011552226 4.5947002e-05 5.6598726e-21)
(-0.0011495935 4.2705227e-05 -8.8555935e-21)
(-0.0011433431 3.9562391e-05 7.891691e-21)
(-0.0011364999 3.6518489e-05 1.6716184e-21)
(-0.0011290921 3.357331e-05 -2.4012596e-20)
(-0.0011211476 3.0726411e-05 -2.7745548e-21)
(-0.001112694 2.7977144e-05 1.6913149e-20)
(-0.0011037583 2.532467e-05 5.9501158e-21)
(-0.0010943673 2.276798e-05 -4.479281e-21)
(-0.0010845471 2.0305902e-05 2.6292128e-21)
(-0.0010743232 1.7937125e-05 -4.7307897e-21)
(-0.0010637207 1.5660212e-05 -1.444391e-20)
(-0.001052764 1.3473613e-05 9.5981395e-21)
(-0.0010414769 1.1375689e-05 3.902872e-21)
(-0.0010298824 9.3647052e-06 5.713205e-21)
(-0.0010180031 7.4388762e-06 -1.6245984e-21)
(-0.0010058605 5.5963312e-06 -1.7976811e-21)
(-0.00099347592 3.8349913e-06 -5.6801067e-21)
(-0.00098086912 2.1521993e-06 -1.2264281e-20)
(-0.0009680584 5.4664957e-07 6.2179156e-21)
(-0.00095506422 -9.7824682e-07 -3.6559931e-21)
(-0.00094190806 -2.4296386e-06 -2.4158901e-21)
(-0.00092860667 -3.811964e-06 -1.2368394e-20)
(-0.00091517495 -5.1267465e-06 -1.7742679e-20)
(-0.00090162883 -6.3758657e-06 7.3946772e-21)
(-0.0008879838 -7.5614559e-06 6.0170577e-21)
(-0.00087425465 -8.6856785e-06 -1.2409647e-20)
(-0.00086045546 -9.7506836e-06 7.632164e-23)
(-0.00084659963 -1.0758606e-05 -1.8738159e-21)
(-0.00083269992 -1.1711543e-05 1.8187541e-21)
(-0.00081876844 -1.2611558e-05 8.2164148e-21)
(-0.00080481667 -1.3460688e-05 -1.2605476e-20)
(-0.0007908555 -1.4260935e-05 -1.4096603e-21)
(-0.00077689519 -1.5014247e-05 -3.8691814e-21)
(-0.00076294544 -1.572256e-05 -1.7967366e-21)
(-0.00074901539 -1.6387743e-05 2.944305e-21)
(-0.00073511361 -1.7011648e-05 -4.1081173e-21)
(-0.00072124816 -1.7596067e-05 1.3516212e-20)
(-0.00070742659 -1.8142763e-05 -2.583425e-21)
(-0.00069365593 -1.8653443e-05 2.9979414e-23)
(-0.00067994276 -1.9129775e-05 1.0877562e-20)
(-0.00066629317 -1.9573365e-05 -1.037277e-20)
(-0.00065271285 -1.9985784e-05 -1.2807585e-21)
(-0.00063920702 -2.0368565e-05 -3.1908398e-21)
(-0.0006257805 -2.0723173e-05 -3.9169435e-22)
(-0.00061243773 -2.1051037e-05 8.2302139e-21)
(-0.00059918277 -2.1353533e-05 -4.6118602e-21)
(-0.00058601932 -2.1632005e-05 5.0254268e-21)
(-0.00057295071 -2.1887728e-05 -5.4541454e-21)
(-0.00055997998 -2.2121947e-05 1.7369659e-21)
(-0.00054710983 -2.233585e-05 1.0031923e-20)
(-0.00053434267 -2.2530594e-05 -7.2213247e-21)
(-0.00052168062 -2.2707279e-05 -3.7888452e-22)
(-0.00050912551 -2.2866971e-05 -8.3834906e-21)
(-0.00049667895 -2.3010694e-05 -1.0086299e-20)
(-0.00048434229 -2.3139418e-05 2.0536281e-21)
(-0.00047211663 -2.3254096e-05 5.3229244e-21)
(-0.00046000287 -2.3355614e-05 7.0758948e-21)
(-0.00044800169 -2.3444836e-05 -2.8729439e-21)
(-0.00043611358 -2.3522604e-05 -6.8057909e-21)
(-0.00042433884 -2.3589694e-05 1.9914542e-21)
(-0.0004126776 -2.3646859e-05 -2.8558774e-21)
(-0.00040112982 -2.369482e-05 4.5338794e-21)
(-0.00038969531 -2.373427e-05 2.443228e-21)
(-0.00037837373 -2.3765861e-05 4.5593193e-22)
(-0.00036716461 -2.379022e-05 1.9753083e-21)
(-0.00035606734 -2.3807937e-05 -4.7310177e-21)
(-0.00034508121 -2.3819584e-05 -8.1805896e-22)
(-0.00033420538 -2.3825695e-05 1.8190206e-21)
(-0.00032343892 -2.3826788e-05 4.984539e-21)
(-0.00031278079 -2.382335e-05 5.6174448e-21)
(-0.00030222988 -2.3815836e-05 2.8565532e-22)
(-0.00029178498 -2.3804691e-05 1.2413467e-21)
(-0.00028144481 -2.3790322e-05 -6.7072256e-21)
(-0.00027120802 -2.3773131e-05 -4.5765878e-22)
(-0.0002610732 -2.3753492e-05 6.475027e-21)
(-0.00025103887 -2.3731743e-05 2.1282352e-21)
(-0.00024110351 -2.3708223e-05 3.5129839e-21)
(-0.00023126555 -2.3683245e-05 -3.7732373e-21)
(-0.00022152337 -2.3657104e-05 -4.9615095e-21)
(-0.00021187531 -2.3630071e-05 -3.7343203e-21)
(-0.00020231968 -2.3602419e-05 2.0319505e-21)
(-0.00019285477 -2.3574375e-05 6.2100873e-22)
(-0.00018347882 -2.3546183e-05 -2.8295524e-21)
(-0.00017419007 -2.3518044e-05 -1.2421204e-22)
(-0.00016498673 -2.3490166e-05 2.273664e-21)
(-0.000155867 -2.3462734e-05 -1.7211281e-22)
(-0.00014682905 -2.3435913e-05 3.0389428e-21)
(-0.00013787107 -2.3409861e-05 2.2727551e-22)
(-0.00012899123 -2.3384729e-05 -2.0903454e-21)
(-0.00012018769 -2.3360644e-05 1.397449e-21)
(-0.00011145862 -2.3337734e-05 -3.0207658e-21)
(-0.00010280219 -2.3316093e-05 9.6373436e-22)
(-9.4216561e-05 -2.3295811e-05 3.4222766e-21)
(-8.5699922e-05 -2.3276972e-05 2.5112293e-21)
(-7.7250445e-05 -2.3259619e-05 2.0055091e-21)
(-6.8866308e-05 -2.3243789e-05 3.1689401e-22)
(-6.054567e-05 -2.3229485e-05 1.504653e-21)
(-5.2286643e-05 -2.3216684e-05 -4.2916281e-21)
(-4.4087244e-05 -2.3205351e-05 -9.5273271e-22)
(-3.5945367e-05 -2.3195529e-05 3.0794247e-21)
(-2.785864e-05 -2.3187688e-05 3.9289452e-23)
(-1.9822611e-05 -2.3183698e-05 1.6394482e-21)
(-1.1830752e-05 -2.3189112e-05 1.4080024e-21)