/*--------------------------------*- C++ -*----------------------------------*\
| =========                 |                                                 |
| \\      /  F ield         | OpenFOAM: The Open Source CFD Toolbox           |
|  \\    /   O peration     | Version:  2306                                  |
|   \\  /    A nd           | Website:  www.openfoam.com                      |
|    \\/     M anipulation  |                                                 |
\*---------------------------------------------------------------------------*/
FoamFile
{
    version     2.0;
    format      ascii;
    arch        "LSB;label=32;scalar=64";
    class       volVectorField;
    location    "0.07";
    object      U_0;
}
// * * * * * * * * * * * * * * * * * * * * * * * * * * * * * * * * * * * * * //

dimensions      [0 1 -1 0 0 0 0];

internalField   nonuniform List<vector> 
51200
(
(-1.4855943e-05 1.2988482e-05 3.1433418e-20)
(-3.4780747e-05 1.4902174e-05 -1.6396741e-21)
(-5.7511678e-05 1.4854447e-05 -1.2735899e-20)
(-7.9748898e-05 1.49402e-05 1.5865543e-21)
(-0.00010249311 1.4957288e-05 6.7636476e-21)
(-0.00012508786 1.4897705e-05 -5.9429212e-21)
(-0.00014750434 1.4812392e-05 -4.585279e-21)
(-0.00016970918 1.4703379e-05 6.5888199e-21)
(-0.00019166811 1.4574629e-05 6.2768104e-21)
(-0.00021334866 1.4428551e-05 -9.3083777e-21)
(-0.00023472074 1.4266544e-05 -1.0604358e-20)
(-0.00025575554 1.4089618e-05 1.121647e-20)
(-0.00027642488 1.389862e-05 -3.3853593e-21)
(-0.0002967017 1.3694304e-05 -8.8622567e-21)
(-0.00031656034 1.3477359e-05 -5.0710649e-22)
(-0.00033597644 1.3248472e-05 8.6165647e-22)
(-0.00035492695 1.3008334e-05 4.4860431e-21)
(-0.00037339022 1.2757637e-05 -5.2780857e-21)
(-0.00039134597 1.2497085e-05 -7.405584e-21)
(-0.00040877536 1.2227378e-05 3.172235e-21)
(-0.00042566104 1.1949211e-05 -8.8470746e-22)
(-0.00044198714 1.1663272e-05 -3.0177757e-21)
(-0.00045773931 1.137024e-05 6.6670131e-21)
(-0.00047290472 1.1070763e-05 1.9164945e-20)
(-0.00048747204 1.0765463e-05 3.2963642e-20)
(-0.00050143149 1.0454923e-05 -1.1773622e-20)
(-0.00051477478 1.0139659e-05 -6.3832474e-20)
(-0.00052749509 9.8201153e-06 -6.4645107e-21)
(-0.00053958706 9.4966098e-06 3.7809651e-20)
(-0.00055104672 9.1692955e-06 2.2491731e-20)
(-0.00056187148 8.8380894e-06 1.1698767e-20)
(-0.00057206018 8.502577e-06 -1.3880658e-21)
(-0.00058161347 8.1620442e-06 2.0969305e-20)
(-0.00059053629 7.8160825e-06 -2.8420929e-20)
(-0.00059883805 7.4689317e-06 -5.6186473e-20)
(-0.00060652171 7.1315932e-06 4.6354547e-20)
(-0.00061358534 6.8070021e-06 2.505841e-20)
(-0.0006200325 6.4938849e-06 -8.4637988e-20)
(-0.00062587068 6.1904665e-06 1.7136236e-20)
(-0.00063110902 5.8954313e-06 1.1844573e-19)
(-0.00063575752 5.6079433e-06 3.6283968e-20)
(-0.00063982684 5.3275085e-06 -5.4812554e-20)
(-0.00064332829 5.0538492e-06 -1.0818694e-19)
(-0.00064627379 4.7868201e-06 -1.0503573e-19)
(-0.00064867585 4.5263643e-06 3.5053913e-20)
(-0.00065054752 4.2724724e-06 2.2830869e-19)
(-0.00065190236 4.0251781e-06 4.4180299e-20)
(-0.00065275437 3.7845494e-06 -7.4044978e-20)
(-0.00065311794 3.5506897e-06 -7.8186747e-20)
(-0.0006530078 3.3237475e-06 -1.7150869e-19)
(-0.00065243899 3.1038705e-06 1.1061945e-19)
(-0.00065142683 2.8911702e-06 1.0049277e-19)
(-0.00064998681 2.6856575e-06 -4.1819712e-20)
(-0.00064813459 2.4873086e-06 7.210283e-20)
(-0.00064588587 2.2960868e-06 -1.3138573e-19)
(-0.00064325642 2.1119493e-06 -1.0302538e-19)
(-0.00064026197 1.9348425e-06 1.4747324e-19)
(-0.00063691823 1.7647049e-06 2.7359739e-20)
(-0.00063324084 1.6014725e-06 -4.1825072e-20)
(-0.00062924529 1.4450718e-06 2.9827795e-20)
(-0.00062494693 1.2954304e-06 3.8923257e-23)
(-0.00062036094 1.1524792e-06 -2.7173582e-20)
(-0.00061550228 1.0161406e-06 -1.7124802e-20)
(-0.00061038568 8.8635838e-07 1.4259769e-20)
(-0.0006050256 7.6307959e-07 -3.3160084e-20)
(-0.00059943625 6.4627192e-07 -3.8278169e-20)
(-0.00059363152 5.3594152e-07 1.0844209e-19)
(-0.00058762502 4.3213137e-07 -1.8045836e-20)
(-0.00058143004 3.3495723e-07 -5.1867897e-20)
(-0.00057505959 2.4461154e-07 1.7618798e-19)
(-0.00056852634 1.6135859e-07 -3.100277e-20)
(-0.00056184264 8.5404207e-08 -1.3995637e-19)
(-0.00055502005 1.6763236e-08 2.9010913e-20)
(-0.00054806746 -4.5246606e-08 5.5320136e-20)
(-0.00054098851 -1.0751961e-07 4.195835e-20)
(-0.00053379757 -1.9110245e-07 -1.2359385e-19)
(-0.00052651833 -2.9121909e-07 -9.3727534e-20)
(-0.00051916053 -3.8964751e-07 1.1451547e-19)
(-0.0005117273 -4.8187983e-07 1.3395064e-19)
(-0.00050422595 -5.6735657e-07 -3.5762314e-20)
(-0.00049666501 -6.463908e-07 -1.5732984e-19)
(-0.0004890529 -7.1957532e-07 4.1980417e-20)
(-0.0004813977 -7.8748738e-07 9.1239198e-20)
(-0.00047370707 -8.5061554e-07 -2.2845639e-21)
(-0.0004659883 -9.093599e-07 4.4595272e-20)
(-0.0004582483 -9.6405141e-07 -4.429485e-20)
(-0.00045049359 -1.0149672e-06 -3.2621828e-21)
(-0.00044273037 -1.0623525e-06 -3.1686654e-21)
(-0.00043496449 -1.1064139e-06 -6.0280525e-20)
(-0.00042720147 -1.1473472e-06 4.8517979e-20)
(-0.00041944652 -1.1853257e-06 -6.2806294e-20)
(-0.00041170454 -1.2205157e-06 -3.0326608e-20)
(-0.00040398014 -1.2530686e-06 7.9387806e-20)
(-0.00039627763 -1.2831253e-06 2.3197129e-20)
(-0.00038860106 -1.3108276e-06 -9.7509217e-21)
(-0.00038095418 -1.3362957e-06 -6.8429937e-20)
(-0.00037334052 -1.3596574e-06 -8.3954393e-21)
(-0.00036576333 -1.3810242e-06 3.4180867e-20)
(-0.00035822565 -1.4005082e-06 6.1123563e-20)
(-0.00035073025 -1.4182164e-06 7.2280327e-21)
(-0.00034327972 -1.4342534e-06 -9.5266013e-20)
(-0.00033587639 -1.4487076e-06 1.623607e-20)
(-0.00032852244 -1.4616704e-06 1.9869962e-20)
(-0.00032121981 -1.4732395e-06 3.0497023e-20)
(-0.00031397029 -1.4834929e-06 1.4958216e-20)
(-0.00030677545 -1.4925079e-06 -8.340329e-20)
(-0.00029963672 -1.5003671e-06 2.0709504e-20)
(-0.00029255536 -1.5071404e-06 4.2657114e-20)
(-0.00028553248 -1.5128933e-06 5.6654064e-21)
(-0.00027856905 -1.5177048e-06 -3.587906e-21)
(-0.00027166587 -1.521626e-06 -6.3631948e-20)
(-0.00026482363 -1.5247252e-06 1.877864e-22)
(-0.00025804291 -1.5270556e-06 3.2625155e-20)
(-0.00025132413 -1.5286734e-06 2.0694572e-21)
(-0.00024466764 -1.5296327e-06 1.5489494e-20)
(-0.00023807366 -1.5299868e-06 -1.7270689e-20)
(-0.00023154231 -1.5297766e-06 1.8660375e-21)
(-0.00022507362 -1.5290477e-06 5.9836124e-21)
(-0.00021866754 -1.5278469e-06 2.2993908e-21)
(-0.00021232392 -1.5262113e-06 2.2303187e-20)
(-0.00020604254 -1.5241843e-06 -2.0211301e-20)
(-0.0001998231 -1.5217955e-06 -1.0805335e-20)
(-0.00019366526 -1.5190873e-06 1.4856129e-20)
(-0.00018756858 -1.5160875e-06 2.4539371e-20)
(-0.00018153256 -1.5128291e-06 4.4258223e-21)
(-0.00017555668 -1.509339e-06 -4.6190208e-20)
(-0.00016964035 -1.5056516e-06 -1.8545205e-20)
(-0.0001637829 -1.5017834e-06 2.2326271e-20)
(-0.00015798368 -1.4977675e-06 1.7372785e-20)
(-0.00015224194 -1.4936217e-06 -8.0085362e-21)
(-0.00014655692 -1.4893697e-06 -1.5555318e-20)
(-0.00014092784 -1.4850365e-06 -4.3272669e-22)
(-0.00013535385 -1.4806383e-06 -6.1434126e-21)
(-0.0001298341 -1.4761901e-06 -7.5144376e-21)
(-0.00012436771 -1.4717115e-06 -7.8201332e-21)
(-0.00011895378 -1.4672208e-06 7.9645132e-21)
(-0.00011359138 -1.4627272e-06 2.0070032e-20)
(-0.00010827956 -1.4582528e-06 2.041939e-21)
(-0.00010301737 -1.4538047e-06 -3.4463689e-22)
(-9.7803843e-05 -1.4493942e-06 -1.8371809e-21)
(-9.2637983e-05 -1.4450339e-06 -5.9040852e-21)
(-8.7518802e-05 -1.4407346e-06 4.119298e-21)
(-8.2445299e-05 -1.436508e-06 -2.010473e-21)
(-7.741647e-05 -1.4323572e-06 2.2343406e-21)
(-7.2431305e-05 -1.4282946e-06 1.0375364e-20)
(-6.7488793e-05 -1.4243224e-06 -1.0531079e-20)
(-6.2587924e-05 -1.4204474e-06 -8.4020574e-21)
(-5.7727693e-05 -1.4166785e-06 7.3583226e-21)
(-5.2907099e-05 -1.4130112e-06 9.0027964e-21)
(-4.8125158e-05 -1.4094453e-06 -1.2561513e-21)
(-4.3380907e-05 -1.405971e-06 -9.409409e-21)
(-3.8673426e-05 -1.4025536e-06 -3.64114e-21)
(-3.4001894e-05 -1.3991086e-06 4.9856391e-21)
(-2.9365683e-05 -1.3954442e-06 2.3311276e-21)
(-2.4764606e-05 -1.3910575e-06 -2.4261641e-21)
(-2.019953e-05 -1.384837e-06 -2.2674302e-21)
(-1.5674178e-05 -1.3748026e-06 7.5136281e-23)
(-1.1198249e-05 -1.3610079e-06 1.1331936e-21)
(-6.7672432e-06 -1.3825573e-06 2.4364829e-22)
(-2.2526101e-06 -1.6425627e-06 -1.27572e-21)
(-2.5700352e-05 7.6107094e-05 2.7526945e-20)
(-5.7665914e-05 7.7490404e-05 -1.2660332e-21)
(-9.4288588e-05 7.757623e-05 1.2381771e-21)
(-0.00013005883 7.7703568e-05 1.5737965e-20)
(-0.00016657523 7.7591523e-05 1.1834445e-20)
(-0.00020286353 7.729617e-05 -8.4420452e-21)
(-0.00023888318 7.6889399e-05 1.2132895e-20)
(-0.00027458151 7.6390055e-05 2.04477e-21)
(-0.00030989983 7.5808383e-05 -6.6213435e-21)
(-0.00034478107 7.5150646e-05 -3.3620804e-21)
(-0.00037917261 7.4421061e-05 2.5459558e-21)
(-0.00041302476 7.3623003e-05 1.8291536e-21)
(-0.00044628971 7.2759465e-05 -5.5943999e-21)
(-0.00047892209 7.1833256e-05 2.6369028e-20)
(-0.0005108791 7.0847122e-05 9.7036908e-21)
(-0.00054212038 6.9803844e-05 2.9275015e-21)
(-0.00057260798 6.8706266e-05 2.8396715e-20)
(-0.00060230636 6.7557288e-05 1.4030246e-21)
(-0.00063118241 6.6359891e-05 -2.6722445e-20)
(-0.00065920546 6.5117113e-05 -1.824835e-20)
(-0.00068634735 6.3832032e-05 -2.6975229e-21)
(-0.00071258243 6.2507765e-05 -6.0896752e-21)
(-0.00073788756 6.1147455e-05 6.1910001e-22)
(-0.00076224216 5.9754235e-05 2.8745439e-20)
(-0.00078562817 5.8331231e-05 4.7158888e-20)
(-0.00080803005 5.6881533e-05 -1.6001806e-20)
(-0.0008294348 5.5408161e-05 -5.8995146e-20)
(-0.0008498319 5.3914051e-05 -2.4022108e-20)
(-0.0008692133 5.2402e-05 -2.0046699e-20)
(-0.0008875734 5.0874621e-05 5.025289e-20)
(-0.00090490905 4.9334309e-05 8.8436181e-20)
(-0.0009212195 4.7783181e-05 -2.2765211e-20)
(-0.00093650615 4.622318e-05 -5.4541424e-20)
(-0.00095077033 4.4656655e-05 -3.9701893e-20)
(-0.00096401232 4.3089439e-05 1.3232348e-20)
(-0.00097623965 4.1532251e-05 4.0055127e-20)
(-0.0009874662 3.9990048e-05 -6.3344143e-20)
(-0.00099770438 3.8464107e-05 -1.1165378e-19)
(-0.0010069665 3.6954941e-05 1.169108e-19)
(-0.0010152662 3.5463268e-05 1.5692114e-19)
(-0.0010226186 3.3990105e-05 -1.9012663e-19)
(-0.0010290403 3.253667e-05 -7.906411e-20)
(-0.0010345494 3.1104267e-05 1.932503e-19)
(-0.0010391649 2.9694203e-05 2.0266798e-19)
(-0.0010429071 2.8307754e-05 1.2524289e-20)
(-0.0010457973 2.6946104e-05 -3.6934027e-19)
(-0.0010478573 2.5610344e-05 -2.2851485e-19)
(-0.0010491099 2.4301447e-05 2.3299792e-19)
(-0.0010495785 2.3020247e-05 2.0770464e-19)
(-0.001049287 2.1767436e-05 -1.1894655e-19)
(-0.0010482598 2.0543548e-05 -2.0240566e-19)
(-0.0010465221 1.9349102e-05 1.5711786e-19)
(-0.001044099 1.8184604e-05 2.5193227e-19)
(-0.0010410159 1.7050505e-05 -2.1393676e-20)
(-0.0010372983 1.5947171e-05 -1.5433553e-19)
(-0.0010329716 1.487489e-05 -1.8897264e-19)
(-0.0010280614 1.3833857e-05 -1.8465241e-20)
(-0.001022593 1.2824191e-05 2.4940751e-19)
(-0.0010165917 1.184593e-05 8.990304e-20)
(-0.0010100824 1.0899039e-05 -2.6078953e-19)
(-0.0010030898 9.9834072e-06 -8.7510142e-20)
(-0.00099563856 9.0988715e-06 2.5605441e-19)
(-0.00098775259 8.2451858e-06 8.0470673e-20)
(-0.00097945562 7.4220705e-06 -2.538683e-19)
(-0.00097077088 6.6291795e-06 -1.1420418e-19)
(-0.00096172111 5.8661237e-06 1.4733979e-19)
(-0.00095232855 5.1324814e-06 1.1329158e-19)
(-0.00094261493 4.4277949e-06 4.1775736e-20)
(-0.00093260137 3.751592e-06 -5.9299274e-20)
(-0.00092230849 3.1034186e-06 -1.775759e-19)
(-0.00091175638 2.4828489e-06 3.384387e-20)
(-0.00090096475 1.8895012e-06 1.1533117e-19)
(-0.00088995388 1.3230337e-06 -4.1037753e-20)
(-0.00087874837 7.8314937e-07 2.0300703e-20)
(-0.00086737876 2.6676815e-07 1.0626168e-19)
(-0.00085585207 -2.3773963e-07 2.478647e-20)
(-0.0008441569 -7.2529352e-07 -1.5342194e-19)
(-0.00083230841 -1.1894137e-06 -9.720246e-20)
(-0.0008203347 -1.6298732e-06 6.8724298e-20)
(-0.00080825456 -2.0475627e-06 4.2243878e-20)
(-0.00079608281 -2.4434806e-06 -1.2605987e-20)
(-0.00078383295 -2.818582e-06 2.0775552e-20)
(-0.00077151759 -3.1737259e-06 5.5471136e-20)
(-0.00075914872 -3.5097082e-06 -6.4505962e-20)
(-0.00074673775 -3.8272858e-06 -5.9229204e-21)
(-0.00073429551 -4.1271775e-06 7.820551e-20)
(-0.00072183232 -4.4100838e-06 -9.6220296e-20)
(-0.00070935794 -4.6766921e-06 3.0337956e-21)
(-0.00069688164 -4.9276602e-06 5.3854152e-20)
(-0.00068441215 -5.1636368e-06 -1.8187664e-20)
(-0.00067195773 -5.3852562e-06 -2.5168664e-20)
(-0.00065952613 -5.5931323e-06 -6.9018001e-20)
(-0.00064712465 -5.7878746e-06 5.4524054e-20)
(-0.00063476012 -5.9700634e-06 5.0425937e-20)
(-0.00062243894 -6.1402751e-06 -2.6737639e-20)
(-0.00061016707 -6.2990555e-06 -1.3665509e-20)
(-0.00059795006 -6.4469489e-06 -1.3214422e-20)
(-0.00058579307 -6.5844717e-06 4.0641136e-20)
(-0.00057370087 -6.712133e-06 9.9652176e-21)
(-0.00056167786 -6.8304209e-06 -5.9156221e-20)
(-0.0005497281 -6.9398198e-06 -1.6402026e-20)
(-0.0005378553 -7.0407731e-06 3.994106e-20)
(-0.00052606285 -7.1337193e-06 4.0566569e-20)
(-0.00051435382 -7.2191007e-06 8.9089311e-21)
(-0.000502731 -7.2973253e-06 -4.5467059e-20)
(-0.00049119687 -7.3687814e-06 -4.6135461e-20)
(-0.00047975367 -7.4338549e-06 2.1860938e-20)
(-0.00046840337 -7.4929121e-06 6.8305281e-20)
(-0.00045714768 -7.5463022e-06 5.5825007e-21)
(-0.0004459881 -7.5943751e-06 -6.5428801e-20)
(-0.00043492588 -7.6374426e-06 -1.5705705e-20)
(-0.0004239621 -7.6758226e-06 1.6303898e-21)
(-0.0004130976 -7.709813e-06 4.6756542e-20)
(-0.00040233306 -7.7396973e-06 5.106576e-20)
(-0.00039166897 -7.7657529e-06 -4.1862402e-20)
(-0.00038110564 -7.7882472e-06 -4.4580226e-20)
(-0.00037064325 -7.8074167e-06 -7.747329e-21)
(-0.0003602818 -7.823504e-06 3.881008e-20)
(-0.00035002118 -7.8367434e-06 2.1689138e-20)
(-0.00033986112 -7.8473529e-06 -4.5321989e-20)
(-0.00032980123 -7.8555393e-06 -1.4933537e-20)
(-0.00031984102 -7.8614915e-06 3.3753509e-20)
(-0.00030997988 -7.86541e-06 2.9417374e-20)
(-0.0003002171 -7.8674668e-06 -9.8077564e-21)
(-0.00029055188 -7.8678305e-06 -4.4621417e-20)
(-0.00028098332 -7.866668e-06 -7.3702323e-21)
(-0.00027151046 -7.8641306e-06 2.5586649e-20)
(-0.00026213225 -7.860358e-06 1.8400209e-20)
(-0.00025284756 -7.8554975e-06 -3.7436721e-21)
(-0.00024365522 -7.8496771e-06 -2.8730783e-20)
(-0.00023455398 -7.8430166e-06 -8.0909521e-21)
(-0.00022554255 -7.8356378e-06 2.9965778e-20)
(-0.00021661958 -7.8276502e-06 2.1539284e-20)
(-0.0002077837 -7.8191535e-06 -1.5187106e-20)
(-0.00019903346 -7.8102471e-06 -3.9972628e-20)
(-0.00019036741 -7.8010274e-06 -1.0647566e-21)
(-0.00018178404 -7.7915707e-06 3.4295971e-20)
(-0.00017328185 -7.7819711e-06 1.2765234e-20)
(-0.00016485927 -7.7722968e-06 -8.0940826e-21)
(-0.00015651474 -7.7626174e-06 -1.2169917e-20)
(-0.00014824668 -7.753004e-06 -4.633397e-22)
(-0.00014005348 -7.7435147e-06 5.6234411e-21)
(-0.00013193352 -7.7342117e-06 4.6994287e-21)
(-0.0001238852 -7.7251377e-06 -4.0886647e-21)
(-0.00011590688 -7.7163473e-06 -8.4341059e-21)
(-0.00010799693 -7.7078844e-06 -2.3654006e-22)
(-0.00010015373 -7.6997802e-06 5.17364e-21)
(-9.2375656e-05 -7.6920738e-06 7.5728736e-21)
(-8.4661087e-05 -7.6847829e-06 -1.6439481e-21)
(-7.700842e-05 -7.6779211e-06 -9.8359706e-21)
(-6.9416068e-05 -7.6714828e-06 -9.6603981e-22)
(-6.188246e-05 -7.6654039e-06 5.0553774e-21)
(-5.4406048e-05 -7.6595443e-06 4.1127981e-21)
(-4.6985282e-05 -7.6535747e-06 -1.923964e-21)
(-3.9618539e-05 -7.6467068e-06 -4.3611404e-21)
(-3.230378e-05 -7.6372775e-06 8.6550701e-23)
(-2.5037479e-05 -7.6225585e-06 1.6018535e-21)
(-1.7812782e-05 -7.6006584e-06 3.1492834e-22)
(-1.0621471e-05 -7.5815425e-06 -8.7507134e-22)
(-3.500421e-06 -7.6386506e-06 -1.1861298e-21)
(-2.8556923e-05 0.00015873202 -2.6684277e-20)
(-6.3643977e-05 0.00015952413 -1.162802e-20)
(-0.00010397077 0.00015954968 9.0066471e-22)
(-0.00014320632 0.00015940524 1.1255757e-20)
(-0.00018325454 0.00015897393 -1.5320678e-21)
(-0.00022303554 0.00015829987 -1.6960076e-20)
(-0.00026251867 0.00015743339 2.2837112e-20)
(-0.00030165149 0.00015639396 -1.6324079e-21)
(-0.00034037025 0.00015519376 4.3038721e-21)
(-0.00037861174 0.00015384149 3.7101361e-20)
(-0.00041631732 0.00015234402 7.0617517e-21)
(-0.00045343151 0.0001507074 1.4500196e-20)
(-0.00048990113 0.00014893736 -1.5927713e-20)
(-0.00052567573 0.0001470395 1.4237186e-20)
(-0.0005607078 0.00014501948 3.0828682e-20)
(-0.00059495264 0.00014288304 -4.0861364e-22)
(-0.00062836823 0.00014063612 2.2128964e-20)
(-0.00066091531 0.00013828477 -6.806074e-21)
(-0.00069255732 0.00013583522 -2.1759752e-20)
(-0.00072326048 0.00013329383 1.5491811e-20)
(-0.00075299379 0.00013066707 7.4090738e-21)
(-0.00078172904 0.00012796151 -8.5425797e-22)
(-0.00080944086 0.00012518377 1.0030667e-20)
(-0.00083610667 0.00012234052 2.9230406e-20)
(-0.00086170672 0.00011943845 2.46116e-20)
(-0.00088622406 0.00011648422 -2.0335169e-21)
(-0.00090964451 0.00011348449 -1.9887318e-20)
(-0.00093195666 0.00011044584 -3.6923425e-20)
(-0.00095315178 0.00010737479 -3.7417529e-20)
(-0.00097322381 0.0001042778 1.6763486e-21)
(-0.00099216926 0.00010116128 1.8106881e-20)
(-0.0010099871 9.8031654e-05 1.7911737e-20)
(-0.0010266785 9.4895392e-05 -1.5849824e-20)
(-0.0010422465 9.1758987e-05 -5.4234409e-20)
(-0.0010566959 8.8627179e-05 2.3838202e-21)
(-0.0010700353 8.5501793e-05 2.8370635e-20)
(-0.0010822762 8.2387541e-05 -4.2033599e-22)
(-0.0010934313 7.9290143e-05 -1.8458559e-20)
(-0.0011035143 7.6214967e-05 1.4471061e-21)
(-0.0011125405 7.3166875e-05 -2.851629e-21)
(-0.001120527 7.0150306e-05 -4.1582533e-20)
(-0.0011274925 6.7169354e-05 1.6738754e-20)
(-0.0011334569 6.4227795e-05 6.0410252e-20)
(-0.0011384415 6.1329104e-05 6.4080405e-20)
(-0.0011424689 5.847647e-05 1.81746e-20)
(-0.0011455626 5.5672776e-05 -1.2045082e-19)
(-0.001147747 5.2920621e-05 -6.2015907e-20)
(-0.0011490475 5.0222312e-05 4.4110135e-20)
(-0.0011494901 4.7579846e-05 4.9123295e-20)
(-0.0011491012 4.4994898e-05 3.2039422e-20)
(-0.001147908 4.246889e-05 -7.8102174e-20)
(-0.0011459376 4.0003059e-05 2.4097363e-21)
(-0.0011432176 3.7598557e-05 8.1296416e-20)
(-0.001139776 3.525637e-05 -2.4117026e-21)
(-0.0011356406 3.2977297e-05 -8.5519979e-21)
(-0.0011308397 3.0761931e-05 -3.2206136e-20)
(-0.0011254012 2.8610683e-05 -2.6522126e-20)
(-0.001119353 2.6523798e-05 6.0633886e-20)
(-0.0011127229 2.4501331e-05 1.5919461e-20)
(-0.0011055384 2.2543188e-05 -7.8113513e-20)
(-0.0010978267 2.0649113e-05 -2.321277e-20)
(-0.0010896147 1.8818709e-05 6.0139205e-20)
(-0.0010809289 1.7051436e-05 2.6794659e-20)
(-0.0010717952 1.534663e-05 -3.7861173e-20)
(-0.0010622392 1.3703502e-05 -6.8552597e-22)
(-0.0010522859 1.2121151e-05 1.4908782e-20)
(-0.0010419599 1.059856e-05 -8.9902849e-21)
(-0.001031285 9.1346094e-06 2.5058973e-20)
(-0.0010202845 7.728088e-06 -6.7122e-21)
(-0.0010089812 6.3777083e-06 -4.9306866e-20)
(-0.0009973971 5.0821595e-06 8.2711268e-21)
(-0.00098555334 3.8402164e-06 2.4426514e-20)
(-0.00097347006 2.6507451e-06 -1.0852219e-20)
(-0.0009611665 1.5127657e-06 1.3149178e-20)
(-0.00094866274 4.2997306e-07 2.1044784e-20)
(-0.00093597591 -5.8387229e-07 4.1577707e-21)
(-0.00092312445 -1.5343295e-06 -2.2853939e-20)
(-0.00091012861 -2.4367228e-06 -3.9734552e-20)
(-0.00089700421 -3.2954464e-06 -1.1994854e-20)
(-0.00088376606 -4.11242e-06 3.0038564e-20)
(-0.00087042898 -4.8891346e-06 2.9013793e-20)
(-0.00085700739 -5.6268228e-06 -3.0679666e-20)
(-0.00084351512 -6.3266261e-06 -1.2090372e-20)
(-0.0008299654 -6.9897171e-06 -1.9088658e-20)
(-0.0008163708 -7.617293e-06 -1.3411491e-20)
(-0.00080274325 -8.2105565e-06 2.8824926e-20)
(-0.00078909407 -8.7707409e-06 -2.3859008e-20)
(-0.00077543397 -9.2990753e-06 5.0392395e-21)
(-0.00076177307 -9.7967726e-06 2.7705916e-20)
(-0.00074812092 -1.0265051e-05 -5.1062459e-21)
(-0.00073448652 -1.0705104e-05 -1.182775e-21)
(-0.00072087833 -1.1118105e-05 -1.5103464e-20)
(-0.00070730428 -1.1505215e-05 1.270621e-20)
(-0.00069377183 -1.1867567e-05 9.5971578e-22)
(-0.00068028791 -1.2206265e-05 -4.6238952e-21)
(-0.00066685902 -1.2522388e-05 2.399017e-20)
(-0.00065349118 -1.2816987e-05 -9.9585017e-21)
(-0.00064019001 -1.3091078e-05 -6.6538862e-21)
(-0.00062696066 -1.3345661e-05 -1.5559657e-20)
(-0.00061380793 -1.3581691e-05 -1.0522802e-20)
(-0.00060073621 -1.3800112e-05 2.1636879e-20)
(-0.00058774951 -1.4001815e-05 3.4654785e-21)
(-0.00057485151 -1.4187677e-05 8.4534587e-21)
(-0.00056204551 -1.4358538e-05 -1.2191001e-20)
(-0.00054933454 -1.4515217e-05 -7.8592554e-21)
(-0.00053672128 -1.4658494e-05 2.0061625e-20)
(-0.00052420814 -1.4789119e-05 -1.1796231e-21)
(-0.00051179722 -1.4907823e-05 5.9529785e-21)
(-0.00049949038 -1.5015301e-05 -9.8332714e-21)
(-0.00048728923 -1.5112233e-05 -2.4664367e-20)
(-0.0004751951 -1.5199253e-05 1.1220197e-20)
(-0.00046320913 -1.5276985e-05 7.1460756e-21)
(-0.00045133223 -1.5346019e-05 5.9703416e-21)
(-0.0004395651 -1.5406917e-05 9.9693784e-21)
(-0.00042790825 -1.5460237e-05 -1.0628726e-20)
(-0.00041636201 -1.5506489e-05 -7.7163619e-21)
(-0.00040492653 -1.5546166e-05 -5.5087557e-21)
(-0.0003936018 -1.5579746e-05 9.9045971e-21)
(-0.00038238766 -1.5607687e-05 3.948738e-21)
(-0.00037128381 -1.5630422e-05 -1.0675005e-20)
(-0.0003602898 -1.5648361e-05 4.4363859e-21)
(-0.00034940507 -1.5661891e-05 5.6471813e-21)
(-0.00033862894 -1.5671394e-05 2.4627888e-21)
(-0.00032796061 -1.5677217e-05 -7.2072587e-21)
(-0.00031739919 -1.5679705e-05 -8.7241762e-21)
(-0.00030694368 -1.5679182e-05 1.0333635e-20)
(-0.00029659301 -1.5675943e-05 6.9650551e-21)
(-0.00028634601 -1.5670281e-05 4.9590426e-22)
(-0.00027620145 -1.5662473e-05 -6.7836516e-21)
(-0.00026615802 -1.5652782e-05 -5.4387113e-21)
(-0.00025621435 -1.5641452e-05 6.8904205e-21)
(-0.00024636901 -1.5628706e-05 5.176079e-21)
(-0.00023662053 -1.5614774e-05 1.3544079e-21)
(-0.00022696737 -1.5599858e-05 -5.126353e-21)
(-0.00021740795 -1.5584155e-05 -5.7674409e-21)
(-0.00020794069 -1.5567845e-05 1.1285188e-21)
(-0.00019856392 -1.5551102e-05 4.9582626e-21)
(-0.00018927597 -1.5534089e-05 2.9761976e-21)
(-0.00018007513 -1.5516955e-05 -4.4719622e-21)
(-0.0001709597 -1.549984e-05 -3.0608765e-21)
(-0.00016192792 -1.548288e-05 3.0675705e-21)
(-0.00015297803 -1.5466198e-05 -1.7668054e-21)
(-0.00014410827 -1.5449905e-05 9.190496e-22)
(-0.00013531686 -1.5434099e-05 -1.6310292e-21)
(-0.000126602 -1.5418884e-05 -1.7686169e-21)
(-0.00011796193 -1.540435e-05 4.9709203e-21)
(-0.00010939483 -1.5390568e-05 -3.6020221e-22)
(-0.00010089894 -1.5377605e-05 -6.1135685e-22)
(-9.2472468e-05 -1.5365516e-05 -1.4373755e-21)
(-8.4113646e-05 -1.5354346e-05 -1.1171525e-21)
(-7.5820709e-05 -1.5344113e-05 4.4748729e-21)
(-6.7591897e-05 -1.5334801e-05 1.3753592e-21)
(-5.9425438e-05 -1.5326354e-05 9.2398183e-23)
(-5.1319508e-05 -1.5318644e-05 -3.9282505e-21)
(-4.3272124e-05 -1.5311441e-05 -1.4563498e-21)
(-3.5280926e-05 -1.5304452e-05 4.3495232e-21)
(-2.7342569e-05 -1.5297907e-05 7.9781203e-22)
(-1.9450924e-05 -1.5294903e-05 -7.0417039e-22)
(-1.159819e-05 -1.53078e-05 -4.4045426e-22)
(-3.8310037e-06 -1.5362407e-05 1.630153e-21)
(-2.8980257e-05 0.00024163741 -1.4156708e-19)
(-6.4982844e-05 0.00024188178 -4.4636006e-20)
(-0.00010631965 0.00024165042 2.1216609e-20)
(-0.00014644422 0.00024117909 -2.8541378e-20)
(-0.00018741147 0.00024039145 1.1162808e-20)
(-0.00022808747 0.0002393091 -1.2023402e-20)
(-0.00026844888 0.00023796096 -6.8186621e-21)
(-0.00030844623 0.00023636294 -2.9832886e-21)
(-0.00034801618 0.00023452715 8.1111416e-21)
(-0.00038709504 0.00023246359 2.2423732e-20)
(-0.0004256232 0.00023018113 1.0786926e-20)
(-0.00046354406 0.00022768817 1.9979975e-20)
(-0.00050080317 0.00022499301 -1.9878682e-20)
(-0.00053734888 0.00022210399 3.3352112e-22)
(-0.00057313248 0.00021902968 1.8176875e-20)
(-0.00060810811 0.00021577882 -1.9244897e-20)
(-0.00064223273 0.00021236044 2.018468e-20)
(-0.00067546608 0.00020878382 8.0103862e-21)
(-0.00070777073 0.00020505845 -1.3279454e-20)
(-0.00073911209 0.00020119405 1.0945918e-20)
(-0.00076945845 0.00019720047 3.5610921e-21)
(-0.00079878099 0.00019308774 3.7365311e-21)
(-0.00082705381 0.00018886594 2.5558185e-20)
(-0.0008542539 0.00018454525 1.0827953e-20)
(-0.00088036114 0.00018013583 -1.6890578e-20)
(-0.00090535833 0.00017564783 -2.0959741e-20)
(-0.00092923109 0.00017109136 -1.752463e-20)
(-0.00095196791 0.00016647642 1.8496245e-21)
(-0.00097356 0.00016181288 2.2463349e-22)
(-0.00099400131 0.00015711051 -8.7382498e-21)
(-0.0010132884 0.00015237887 -1.0470053e-20)
(-0.0010314204 0.00014762736 5.2236954e-22)
(-0.0010483988 0.00014286513 2.0103426e-20)
(-0.0010642272 0.00013810103 -1.5885141e-20)
(-0.0010789118 0.0001333431 -3.5867413e-20)
(-0.0010924613 0.00012859857 1.1254162e-20)
(-0.0011048867 0.00012387516 3.53783e-20)
(-0.0011162011 0.00011918068 8.7724571e-21)
(-0.0011264188 0.00011452251 2.949118e-21)
(-0.001135556 0.00010990748 -2.2728323e-21)
(-0.0011436305 0.00010534189 -3.5228241e-21)
(-0.0011506617 0.00010083163 9.2610695e-21)
(-0.0011566701 9.638214e-05 8.6773303e-21)
(-0.001161678 9.199847e-05 -2.1285197e-20)
(-0.0011657084 8.7685278e-05 9.0525179e-21)
(-0.0011687856 8.3446838e-05 -8.1330307e-22)
(-0.0011709348 7.9287052e-05 -1.881507e-20)
(-0.001172182 7.5209469e-05 1.8513754e-21)
(-0.0011725539 7.1217289e-05 -2.2467758e-20)
(-0.0011720779 6.7313368e-05 1.0446246e-20)
(-0.0011707817 6.3500258e-05 1.9273736e-20)
(-0.0011686934 5.9780094e-05 -9.4873112e-21)
(-0.0011658416 5.6154607e-05 1.0164228e-20)
(-0.0011622547 5.2625204e-05 -2.8811558e-21)
(-0.0011579616 4.9192979e-05 -1.110146e-21)
(-0.001152991 4.5858723e-05 5.6624078e-21)
(-0.0011473717 4.2622963e-05 -8.839407e-21)
(-0.0011411324 3.9485968e-05 7.8659971e-21)
(-0.0011343014 3.6447734e-05 1.6740236e-21)
(-0.001126907 3.3508048e-05 -2.3852973e-20)
(-0.0011189769 3.0666467e-05 -2.7762991e-21)
(-0.0011105387 2.7922346e-05 1.673641e-20)
(-0.0011016194 2.5274844e-05 5.9304172e-21)
(-0.0010922457 2.2722954e-05 -4.3662742e-21)
(-0.0010824437 2.0265506e-05 2.599763e-21)
(-0.0010722388 1.7901191e-05 -4.7721418e-21)
(-0.0010616561 1.5628574e-05 -1.4413231e-20)
(-0.0010507199 1.3446107e-05 9.5361253e-21)
(-0.0010394539 1.1352154e-05 3.9254385e-21)
(-0.0010278812 9.3449819e-06 5.8164559e-21)
(-0.0010160242 7.4228107e-06 -1.6250973e-21)
(-0.0010039046 5.5837687e-06 -1.8168681e-21)
(-0.00099154341 3.825787e-06 -5.5850097e-21)
(-0.00097896048 2.1462031e-06 -1.2248009e-20)
(-0.00096617406 5.4371861e-07 6.0861821e-21)
(-0.00095320456 -9.7825448e-07 -3.6704363e-21)
(-0.00094007345 -2.4268748e-06 -2.3712877e-21)
(-0.00092679741 -3.8065585e-06 -1.2332537e-20)
(-0.00091339133 -5.1188243e-06 -1.7709967e-20)
(-0.0008998711 -6.3655489e-06 7.4083733e-21)
(-0.00088625219 -7.5488613e-06 5.9925986e-21)
(-0.00087254934 -8.6709216e-06 -1.2361307e-20)
(-0.00085877662 -9.7338751e-06 1.0744723e-22)
(-0.00084494739 -1.0739852e-05 -1.939113e-21)
(-0.00083107439 -1.1690947e-05 1.8158401e-21)
(-0.00081716972 -1.2589219e-05 8.1760959e-21)
(-0.00080324482 -1.3436704e-05 -1.255932e-20)
(-0.00078931055 -1.4235398e-05 -1.3272476e-21)
(-0.00077537717 -1.4987243e-05 -3.9150893e-21)
(-0.00076145436 -1.5694174e-05 -1.8490096e-21)
(-0.00074755121 -1.6358059e-05 2.9989156e-21)
(-0.00073367631 -1.6980745e-05 -4.0556413e-21)
(-0.00071983769 -1.7564019e-05 1.341829e-20)
(-0.00070604288 -1.8109642e-05 -2.6284019e-21)
(-0.0006922989 -1.8619318e-05 8.2278267e-23)
(-0.00067861231 -1.909471e-05 1.0839807e-20)
(-0.0006649892 -1.9537427e-05 -1.0365297e-20)
(-0.00065143523 -1.9949029e-05 -1.2109474e-21)
(-0.00063795563 -2.033105e-05 -3.1961967e-21)
(-0.00062455519 -2.0684952e-05 -3.9735098e-22)
(-0.00061123836 -2.1012163e-05 8.2359888e-21)
(-0.00059800919 -2.1314053e-05 -4.6028498e-21)
(-0.00058487135 -2.1591967e-05 5.0115276e-21)
(-0.00057182818 -2.1847175e-05 -5.4414007e-21)
(-0.00055888272 -2.2080921e-05 1.7320846e-21)
(-0.00054603764 -2.2294393e-05 9.9745736e-21)
(-0.00053329537 -2.248874e-05 -7.2170313e-21)
(-0.000520658 -2.2665063e-05 -3.6792297e-22)
(-0.00050812739 -2.2824426e-05 -8.3318614e-21)
(-0.00049570512 -2.2967852e-05 -1.0039879e-20)
(-0.00048339254 -2.3096309e-05 2.0357213e-21)
(-0.00047119075 -2.3210746e-05 5.272447e-21)
(-0.00045910065 -2.3312049e-05 7.0543074e-21)
(-0.00044712292 -2.3401081e-05 -2.8644989e-21)
(-0.00043525804 -2.347868e-05 -6.7713063e-21)
(-0.00042350633 -2.3545621e-05 1.9957177e-21)
(-0.00041186789 -2.360266e-05 -2.8409316e-21)
(-0.0004003427 -2.3650511e-05 4.5666603e-21)
(-0.00038893057 -2.3689868e-05 2.3995171e-21)
(-0.00037763114 -2.3721382e-05 4.2163843e-22)
(-0.00036644396 -2.374568e-05 1.982241e-21)
(-0.00035536843 -2.3763346e-05 -4.7216088e-21)
(-0.00034440381 -2.3774956e-05 -8.0635785e-22)
(-0.00033354929 -2.3781042e-05 1.8069863e-21)
(-0.00032280392 -2.378212e-05 4.9745085e-21)
(-0.00031216668 -2.3778673e-05 5.6217889e-21)
(-0.00030163645 -2.377116e-05 2.656337e-22)
(-0.00029121202 -2.3760026e-05 1.2296209e-21)
(-0.00028089212 -2.3745671e-05 -6.6785512e-21)
(-0.00027067541 -2.3728502e-05 -4.5572377e-22)
(-0.00026056046 -2.3708889e-05 6.4584157e-21)
(-0.00025054582 -2.3687171e-05 2.1262954e-21)
(-0.00024062995 -2.3663685e-05 3.4983489e-21)
(-0.00023081129 -2.3638746e-05 -3.7664857e-21)
(-0.00022108823 -2.3612647e-05 -4.9367623e-21)
(-0.0002114591 -2.3585657e-05 -3.7246504e-21)
(-0.00020192223 -2.3558048e-05 2.0197415e-21)
(-0.0001924759 -2.3530051e-05 6.1521533e-22)
(-0.00018311836 -2.3501905e-05 -2.8211396e-21)
(-0.00017384785 -2.3473813e-05 -1.2206905e-22)
(-0.00016466258 -2.3445981e-05 2.2627884e-21)
(-0.00015556075 -2.3418595e-05 -1.6867945e-22)
(-0.00014654056 -2.339182e-05 3.0380631e-21)
(-0.00013760017 -2.3365811e-05 2.2114688e-22)
(-0.00012873777 -2.3340721e-05 -2.0852793e-21)
(-0.00011995152 -2.3316677e-05 1.4011203e-21)
(-0.0001112396 -2.3293807e-05 -3.011717e-21)
(-0.00010260017 -2.3272202e-05 9.5909849e-22)
(-9.4031415e-05 -2.3251955e-05 3.4101956e-21)
(-8.5531509e-05 -2.3233148e-05 2.5040378e-21)
(-7.7098634e-05 -2.3215826e-05 1.9978249e-21)
(-6.8730972e-05 -2.3200023e-05 3.137809e-22)
(-6.0426684e-05 -2.3185744e-05 1.5049337e-21)
(-5.2183888e-05 -2.3172965e-05 -4.2829562e-21)
(-4.4000601e-05 -2.3161655e-05 -9.5341967e-22)
(-3.5874726e-05 -2.315185e-05 3.0730162e-21)
(-2.7803892e-05 -2.3144027e-05 3.823549e-23)
(-1.9783663e-05 -2.3140043e-05 1.635234e-21)
(-1.180752e-05 -2.3145434e-05 1.4046444e-21)