/*--------------------------------*- C++ -*----------------------------------*\
| =========                 |                                                 |
| \\      /  F ield         | OpenFOAM: The Open Source CFD Toolbox           |
|  \\    /   O peration     | Version:  2106                                  |
|   \\  /    A nd           | Website:  www.openfoam.com                      |
|    \\/     M anipulation  |                                                 |
\*---------------------------------------------------------------------------*/
FoamFile
{
    version     2.0;
    format      ascii;
    arch        "LSB;label=32;scalar=64";
    class       volScalarField;
    location    "0.014";
    object      p;
}
// * * * * * * * * * * * * * * * * * * * * * * * * * * * * * * * * * * * * * //

dimensions      [1 -1 -2 0 0 0 0];

internalField   nonuniform List<scalar> 
16384
(
-6.0185711
-6.0043062
-5.9758087
-5.9331436
-5.8764078
-5.8057307
-5.721273
-5.6232275
-5.5118177
-5.3872981
-5.2499533
-5.1000978
-4.9380749
-4.7642565
-4.5790423
-4.3828587
-4.1761583
-3.9594187
-3.7331418
-3.4978528
-3.2540987
-3.0024476
-2.7434875
-2.4778247
-2.2060829
-1.9289016
-1.6469348
-1.3608494
-1.0713228
-0.77904335
-0.48472461
-0.18905639
0.10726887
0.40352564
0.698986
0.99294274
1.2846845
1.5735012
1.8586876
2.1395459
2.4153867
2.6855311
2.9493125
3.2060781
3.4551909
3.6960314
3.9279989
4.1505136
4.3630182
4.5649789
4.7558875
4.9352627
5.1026514
5.2576297
5.3998049
5.528816
5.6443348
5.7460672
5.8337539
5.9071711
5.9661314
6.0104841
6.0401158
6.0549506
6.0549506
6.0401158
6.0104841
5.9661314
5.9071711
5.8337539
5.7460672
5.6443348
5.528816
5.399805
5.2576297
5.1026514
4.9352627
4.7558875
4.5649789
4.3630182
4.1505136
3.9279989
3.6960314
3.4551909
3.2060781
2.9493125
2.6855311
2.4153867
2.1395459
1.8586876
1.5735012
1.2846845
0.99294274
0.69898601
0.40352564
0.10726887
-0.18905639
-0.48472461
-0.77904335
-1.0713228
-1.3608494
-1.6469348
-1.9289016
-2.2060829
-2.4778247
-2.7434875
-3.0024476
-3.2540987
-3.4978528
-3.7331418
-3.9594187
-4.1761583
-4.3828587
-4.5790423
-4.7642565
-4.9380749
-5.1000978
-5.2499533
-5.3872981
-5.5118177
-5.6232275
-5.721273
-5.8057307
-5.8764078
-5.9331436
-5.9758087
-6.0043062
-6.0185711
-6.0303695
-6.0160757
-5.9875207
-5.9447695
-5.8879194
-5.8170998
-5.7324722
-5.6342295
-5.522596
-5.3978267
-5.2602069
-5.1100519
-4.9477057
-4.7735412
-4.587959
-4.3913863
-4.1842768
-3.9671093
-3.7403867
-3.5046353
-3.2604033
-3.0082601
-2.7487948
-2.482615
-2.2103457
-1.9326277
-1.6501163
-1.36348
-1.0733984
-0.78056225
-0.48567613
-0.18943609
0.10745555
0.40426692
0.70028615
0.99479909
1.2870914
1.5764516
1.8621735
2.1435579
2.4199142
2.6905624
2.9548346
3.2120769
3.4616513
3.702937
3.9353324
4.1582569
4.3711519
4.573483
4.7647412
4.9444442
5.1121382
5.2673989
5.4098327
5.5390781
5.6548064
5.7567232
5.8445687
5.9181187
5.9771856
6.0216184
6.0513036
6.0661651
6.0661651
6.0513036
6.0216184
5.9771856
5.9181187
5.8445687
5.7567232
5.6548064
5.5390781
5.4098327
5.2673989
5.1121382
4.9444442
4.7647412
4.573483
4.3711519
4.1582569
3.9353324
3.702937
3.4616513
3.2120769
2.9548346
2.6905624
2.4199142
2.1435579
1.8621735
1.5764516
1.2870914
0.9947991
0.70028615
0.40426692
0.10745555
-0.18943609
-0.48567613
-0.78056225
-1.0733984
-1.36348
-1.6501163
-1.9326277
-2.2103457
-2.482615
-2.7487948
-3.0082601
-3.2604033
-3.5046353
-3.7403867
-3.9671093
-4.1842768
-4.3913863
-4.587959
-4.7735412
-4.9477057
-5.1100518
-5.2602069
-5.3978267
-5.522596
-5.6342295
-5.7324722
-5.8170998
-5.8879194
-5.9447695
-5.9875207
-6.0160757
-6.0303695
-6.0574541
-6.0430961
-6.0144129
-5.9714697
-5.9143643
-5.8432269
-5.7582195
-5.6595362
-5.5474021
-5.4220736
-5.2838373
-5.1330098
-4.9699371
-4.7949936
-4.6085816
-4.4111308
-4.2030966
-3.98496
-3.7572265
-3.5204245
-3.275105
-3.0218398
-2.7612207
-2.4938581
-2.2203798
-1.9414294
-1.6576653
-1.3697589
-1.0783933
-0.78426184
-0.48806774
-0.19051607
0.10768188
0.40580248
0.70312793
0.99893959
1.2925198
1.5831541
1.8701333
2.1527551
2.4303261
2.7021631
2.9675955
3.2259666
3.4766354
3.7189786
3.9523921
4.1762927
4.3901194
4.5933355
4.7854299
4.9659183
5.134345
5.2902836
5.4333392
5.5631486
5.6793818
5.7817431
5.8699716
5.9438423
6.0031666
6.0477931
6.0776076
6.0925339
6.0925339
6.0776076
6.0477931
6.0031666
5.9438423
5.8699716
5.7817431
5.6793818
5.5631486
5.4333392
5.2902836
5.134345
4.9659183
4.7854299
4.5933355
4.3901194
4.1762927
3.9523921
3.7189786
3.4766354
3.2259666
2.9675955
2.7021631
2.4303261
2.1527551
1.8701333
1.5831541
1.2925198
0.99893959
0.70312793
0.40580248
0.10768189
-0.19051607
-0.48806774
-0.78426183
-1.0783933
-1.3697589
-1.6576653
-1.9414294
-2.2203798
-2.4938581
-2.7612207
-3.0218398
-3.275105
-3.5204245
-3.7572265
-3.98496
-4.2030966
-4.4111307
-4.6085816
-4.7949936
-4.9699371
-5.1330098
-5.2838373
-5.4220736
-5.5474021
-5.6595362
-5.7582195
-5.8432269
-5.9143643
-5.9714697
-6.0144129
-6.0430961
-6.0574541
-6.0994768
-6.0850198
-6.0561389
-6.0128997
-5.9554008
-5.8837731
-5.79818
-5.6988168
-5.5859104
-5.4597188
-5.3205307
-5.168665
-5.0044701
-4.828323
-4.6406289
-4.4418204
-4.2323562
-4.0127207
-3.7834227
-3.5449945
-3.2979908
-3.0429874
-2.7805802
-2.5113839
-2.2360305
-1.9551682
-1.6694597
-1.3795812
-1.0862204
-0.79007522
-0.49185255
-0.19226452
0.107971
0.40812991
0.70748814
1.0053216
1.3009078
1.5935275
1.8824666
2.1670181
2.4464838
2.720176
2.9874194
3.2475529
3.4999313
3.743927
3.9789317
4.2043584
4.4196422
4.624243
4.817646
4.9993637
5.1689373
5.3259378
5.4699674
5.6006604
5.7176848
5.8207427
5.9095716
5.983945
6.043673
6.0886031
6.1186205
6.1336484
6.1336484
6.1186205
6.0886031
6.043673
5.983945
5.9095716
5.8207427
5.7176848
5.6006604
5.4699674
5.3259378
5.1689373
4.9993637
4.817646
4.624243
4.4196422
4.2043584
3.9789317
3.743927
3.4999313
3.2475529
2.9874194
2.720176
2.4464838
2.1670181
1.8824666
1.5935275
1.3009078
1.0053216
0.70748815
0.40812991
0.10797101
-0.19226452
-0.49185254
-0.79007522
-1.0862204
-1.3795812
-1.6694597
-1.9551682
-2.2360305
-2.5113839
-2.7805802
-3.0429874
-3.2979908
-3.5449945
-3.7834227
-4.0127207
-4.2323562
-4.4418204
-4.6406289
-4.828323
-5.0044701
-5.168665
-5.3205307
-5.4597188
-5.5859104
-5.6988168
-5.79818
-5.8837731
-5.9554008
-6.0128997
-6.0561389
-6.0850198
-6.0994768
-6.1563059
-6.1417154
-6.1125677
-6.0689292
-6.0108991
-5.9386099
-5.8522264
-5.7519457
-5.6379968
-5.5106402
-5.3701674
-5.2169001
-5.05119
-4.8734178
-4.6839923
-4.4833502
-4.2719544
-4.050294
-3.8188824
-3.5782568
-3.3289772
-3.0716246
-2.8068005
-2.5351252
-2.2572366
-1.9737888
-1.6854507
-1.3929047
-1.0968447
-0.79797514
-0.49700898
-0.19466566
0.10832986
0.41124804
0.713358
1.0139289
1.3122314
1.6075399
1.8991337
2.1862992
2.468332
2.7445379
3.0142356
3.2767578
3.5314535
3.7776893
4.0148514
4.2423473
4.4596072
4.6660858
4.8612637
5.044649
5.2157786
5.3742197
5.5195707
5.6514628
5.7695608
5.8735641
5.9632079
6.0382635
6.0985394
6.1438817
6.1741744
6.1893401
6.1893401
6.1741744
6.1438817
6.0985394
6.0382635
5.9632079
5.8735641
5.7695608
5.6514628
5.5195707
5.3742197
5.2157786
5.044649
4.8612637
4.6660858
4.4596072
4.2423473
4.0148514
3.7776893
3.5314535
3.2767578
3.0142356
2.7445379
2.468332
2.1862992
1.8991337
1.6075399
1.3122315
1.0139289
0.713358
0.41124804
0.10832986
-0.19466566
-0.49700897
-0.79797514
-1.0968447
-1.3929047
-1.6854507
-1.9737888
-2.2572366
-2.5351252
-2.8068005
-3.0716246
-3.3289772
-3.5782568
-3.8188824
-4.050294
-4.2719544
-4.4833502
-4.6839923
-4.8734178
-5.05119
-5.2169001
-5.3701674
-5.5106402
-5.6379968
-5.7519457
-5.8522264
-5.9386099
-6.0108991
-6.0689292
-6.1125677
-6.1417154
-6.1563059
-6.2280816
-6.2133227
-6.1838385
-6.1396962
-6.0809963
-6.0078727
-5.9204922
-5.8190541
-5.7037902
-5.5749641
-5.4328704
-5.2778349
-5.1102132
-4.9303903
-4.7387801
-4.5358241
-4.3219908
-4.0977746
-3.8636952
-3.620296
-3.3681432
-3.1078248
-2.8399492
-2.5651437
-2.2840536
-1.9973406
-1.7056814
-1.4097661
-1.1102965
-0.8079853
-0.50355346
-0.197729
0.10875459
0.41515979
0.72074736
1.024778
1.3265141
1.6252214
1.9201712
2.2106416
2.4959201
2.7753046
3.0481059
3.313649
3.5712755
3.8203447
4.0602358
4.2903494
4.5101091
4.7189635
4.9163871
5.1018824
5.2749811
5.4352451
5.5822685
5.715678
5.8351348
5.9403348
6.0310099
6.1069291
6.1678985
6.2137624
6.2444036
6.2597438
6.2597438
6.2444036
6.2137624
6.1678985
6.1069291
6.0310099
5.9403348
5.8351348
5.715678
5.5822685
5.4352451
5.2749811
5.1018824
4.9163871
4.7189635
4.5101091
4.2903494
4.0602358
3.8203447
3.5712755
3.313649
3.0481059
2.7753046
2.4959201
2.2106416
1.9201712
1.6252214
1.3265141
1.024778
0.72074737
0.4151598
0.10875459
-0.197729
-0.50355346
-0.8079853
-1.1102965
-1.409766
-1.7056814
-1.9973406
-2.2840536
-2.5651436
-2.8399492
-3.1078248
-3.3681432
-3.620296
-3.8636952
-4.0977746
-4.3219908
-4.5358241
-4.7387801
-4.9303903
-5.1102132
-5.2778349
-5.4328704
-5.574964
-5.7037902
-5.8190541
-5.9204922
-6.0078727
-6.0809963
-6.1396962
-6.1838385
-6.2133227
-6.2280816
-6.3149935
-6.3000309
-6.2701397
-6.2253881
-6.1658779
-6.091745
-6.0031584
-5.9003203
-5.7834656
-5.6528615
-5.508807
-5.3516321
-5.1816974
-4.9993935
-4.8051397
-4.5993837
-4.3826005
-4.1552915
-3.9179834
-3.6712271
-3.4155967
-3.1516883
-2.8801185
-2.6015236
-2.3165577
-2.0258914
-1.7302109
-1.4302156
-1.1266173
-0.82013818
-0.51150923
-0.20146859
0.10924008
0.41986928
0.72966962
1.0378916
1.3437874
1.6466129
1.945629
2.2401041
2.5293158
2.8125523
3.089115
3.3583195
3.6194984
3.8720021
4.1152012
4.348488
4.5712784
4.7830131
4.9831595
5.1712131
5.3466992
5.5091737
5.658225
5.7934747
5.9145792
6.0212303
6.1131563
6.1901227
6.2519332
6.2984297
6.3294937
6.3450455
6.3450455
6.3294937
6.2984297
6.2519332
6.1901227
6.1131563
6.0212303
5.9145792
5.7934747
5.658225
5.5091737
5.3466992
5.1712131
4.9831595
4.7830131
4.5712784
4.348488
4.1152012
3.8720021
3.6194984
3.3583195
3.089115
2.8125523
2.5293158
2.2401041
1.945629
1.6466129
1.3437874
1.0378916
0.72966962
0.41986929
0.10924009
-0.20146859
-0.51150923
-0.82013818
-1.1266173
-1.4302156
-1.7302109
-2.0258914
-2.3165577
-2.6015236
-2.8801185
-3.1516883
-3.4155967
-3.6712271
-3.9179834
-4.1552915
-4.3826005
-4.5993837
-4.8051397
-4.9993935
-5.1816974
-5.3516321
-5.508807
-5.6528615
-5.7834656
-5.9003203
-6.0031584
-6.091745
-6.1658779
-6.2253881
-6.2701397
-6.3000309
-6.3149935
-6.417253
-6.4020509
-6.3716812
-6.3262133
-6.2657506
-6.1904311
-6.1004266
-5.9959425
-5.8772175
-5.7445232
-5.5981631
-5.4384728
-5.2658186
-5.0805972
-4.8832347
-4.6741862
-4.4539341
-4.2229878
-3.9818824
-3.7311778
-3.4714572
-3.2033261
-2.9274112
-2.6443586
-2.3548332
-2.0595162
-1.7591046
-1.4543092
-1.145853
-0.83446974
-0.52090211
-0.20590007
0.10978081
0.42538116
0.74013963
1.0532948
1.3640868
1.6717596
1.9755624
2.2747518
2.5685938
2.8563654
3.1373565
3.410872
3.6762336
3.9327814
4.1798759
4.4168996
4.643259
4.8583857
5.0617388
5.2528056
5.4311036
5.5961817
5.7476216
5.8850389
6.0080843
6.1164448
6.2098442
6.2880443
6.3508455
6.3980874
6.4296492
6.4454504
6.4454504
6.4296492
6.3980874
6.3508455
6.2880443
6.2098442
6.1164448
6.0080843
5.8850389
5.7476216
5.5961817
5.4311036
5.2528056
5.0617388
4.8583857
4.643259
4.4168996
4.1798759
3.9327814
3.6762336
3.410872
3.1373565
2.8563654
2.5685938
2.2747518
1.9755624
1.6717596
1.3640868
1.0532948
0.74013964
0.42538116
0.10978081
-0.20590007
-0.5209021
-0.83446974
-1.145853
-1.4543092
-1.7591046
-2.0595162
-2.3548332
-2.6443586
-2.9274112
-3.2033261
-3.4714572
-3.7311778
-3.9818824
-4.2229878
-4.4539341
-4.6741862
-4.8832347
-5.0805972
-5.2658186
-5.4384728
-5.5981631
-5.7445232
-5.8772175
-5.9959425
-6.1004266
-6.1904311
-6.2657506
-6.3262133
-6.3716812
-6.4020509
-6.417253
-6.5351058
-6.5196279
-6.4887072
-6.4424144
-6.3808547
-6.3041687
-6.2125312
-6.1061514
-5.9852724
-5.8501706
-5.7011551
-5.5385675
-5.3627809
-5.1741991
-4.9732559
-4.7604146
-4.5361665
-4.3010301
-4.0555503
-3.8002969
-3.5358639
-3.2628678
-2.9819464
-2.6937577
-2.3989784
-2.0983023
-1.7924389
-1.4821118
-1.1680571
-0.85102193
-0.53176231
-0.21104185
0.1103702
0.43170072
0.75217459
1.0710165
1.387453
1.7007141
2.0100355
2.3146604
2.6138412
2.9068418
3.1929393
3.471426
3.741611
4.0028225
4.2544094
4.4957428
4.7262184
4.9452576
5.1523093
5.3468515
5.528393
5.6964743
5.8506696
5.9905873
6.1158717
6.2262041
6.3213032
6.4009265
6.4648707
6.5129724
6.5451088
6.5611975
6.5611975
6.5451088
6.5129724
6.4648707
6.4009265
6.3213032
6.2262041
6.1158717
5.9905873
5.8506696
5.6964743
5.528393
5.3468515
5.1523093
4.9452576
4.7262184
4.4957428
4.2544094
4.0028225
3.741611
3.471426
3.1929393
2.9068418
2.6138412
2.3146604
2.0100355
1.7007141
1.387453
1.0710165
0.75217459
0.43170073
0.11037021
-0.21104184
-0.5317623
-0.85102193
-1.1680571
-1.4821118
-1.7924389
-2.0983023
-2.3989784
-2.6937577
-2.9819464
-3.2628678
-3.5358639
-3.8002969
-4.0555503
-4.3010301
-4.5361665
-4.7604146
-4.9732559
-5.1741991
-5.3627809
-5.5385675
-5.7011551
-5.8501706
-5.9852724
-6.1061514
-6.2125312
-6.3041687
-6.3808547
-6.4424143
-6.4887072
-6.5196279
-6.5351058
-6.6688359
-6.6530451
-6.6214997
-6.5742714
-6.5114678
-6.4332321
-6.3397429
-6.2312135
-6.1078918
-5.9700598
-5.818033
-5.6521598
-5.4728207
-5.2804277
-5.0754235
-4.8582806
-4.6295001
-4.3896111
-4.1391695
-3.8787565
-3.6089781
-3.3304631
-3.0438623
-2.7498469
-2.4491072
-2.1423511
-1.8303022
-1.5136988
-1.1932918
-0.86984344
-0.54412495
-0.21691539
0.11100048
0.43883394
0.7657942
1.0910903
1.4139331
1.7335372
2.0491226
2.3599172
2.6651583
2.9640949
3.2559894
3.5401196
3.8157807
4.0822872
4.3389746
4.5852014
4.8203508
5.0438324
5.2550839
5.4535727
5.6387974
5.8102893
5.9676135
6.1103708
6.238198
6.3507699
6.4477994
6.529039
6.5942813
6.6433596
6.6761484
6.6925638
6.6925638
6.6761484
6.6433596
6.5942813
6.529039
6.4477994
6.3507699
6.238198
6.1103708
5.9676135
5.8102893
5.6387974
5.4535727
5.2550839
5.0438324
4.8203508
4.5852014
4.3389746
4.0822872
3.8157807
3.5401196
3.2559894
2.9640949
2.6651583
2.3599172
2.0491226
1.7335372
1.4139331
1.0910903
0.76579421
0.43883394
0.11100049
-0.21691539
-0.54412495
-0.86984343
-1.1932918
-1.5136988
-1.8303022
-2.1423511
-2.4491072
-2.7498469
-3.0438623
-3.3304631
-3.6089781
-3.8787565
-4.1391695
-4.3896111
-4.6295001
-4.8582806
-5.0754235
-5.2804277
-5.4728207
-5.6521598
-5.818033
-5.9700598
-6.1078918
-6.2312135
-6.3397429
-6.4332321
-6.5114678
-6.5742714
-6.6214997
-6.6530451
-6.6688359
-6.8187651
-6.802624
-6.7703785
-6.7221021
-6.6579048
-6.577933
-6.482369
-6.371431
-6.2453724
-6.1044815
-5.9490805
-5.7795257
-5.596206
-5.3995424
-5.1899876
-4.9680242
-4.7341647
-4.4889497
-4.2329474
-3.966752
-3.6909827
-3.4062822
-3.1133158
-2.8127696
-2.505349
-2.1917776
-1.872795
-1.5491559
-1.2216278
-0.89098976
-0.55803017
-0.22354532
0.11166259
0.44678737
0.78102066
1.113554
1.4435805
1.7702975
2.0929075
2.4106213
2.7226592
3.0282533
3.3266496
3.6171098
3.8989132
4.1713591
4.433768
4.685484
4.9258765
5.1543418
5.370305
5.5732214
5.7625784
5.9378966
6.0987315
6.2446747
6.375355
6.4904396
6.5896351
6.6726884
6.7393873
6.7895613
6.8230822
6.8398641
6.8398641
6.8230822
6.7895613
6.7393873
6.6726884
6.5896351
6.4904396
6.375355
6.2446747
6.0987315
5.9378966
5.7625784
5.5732214
5.370305
5.1543418
4.9258765
4.685484
4.433768
4.1713591
3.8989133
3.6171098
3.3266496
3.0282533
2.7226592
2.4106213
2.0929075
1.7702975
1.4435805
1.113554
0.78102066
0.44678737
0.1116626
-0.22354532
-0.55803016
-0.89098975
-1.2216278
-1.5491559
-1.872795
-2.1917776
-2.505349
-2.8127696
-3.1133158
-3.4062822
-3.6909827
-3.966752
-4.2329474
-4.4889497
-4.7341647
-4.9680242
-5.1899876
-5.3995424
-5.596206
-5.7795257
-5.9490805
-6.1044815
-6.2453724
-6.371431
-6.482369
-6.577933
-6.6579048
-6.7221021
-6.7703785
-6.802624
-6.8187651
-6.9852542
-6.9687242
-6.9357019
-6.8862625
-6.8205186
-6.7386201
-6.6407537
-6.5271428
-6.3980469
-6.2537611
-6.0946156
-5.9209748
-5.7332373
-5.531834
-5.3172284
-5.0899148
-4.8504178
-4.5992912
-4.3371166
-4.0645025
-3.7820829
-3.4905161
-3.1904832
-2.8826867
-2.5678491
-2.2467111
-1.9200303
-1.5885795
-1.2531446
-0.91452336
-0.57352318
-0.23095952
0.11234612
0.45556809
0.79787856
1.1384495
1.4764547
1.8110718
2.1414843
2.4668837
2.7864715
3.099461
3.4050801
3.7025723
3.9911996
4.2702441
4.5390097
4.7968246
5.0430426
5.2770454
5.498244
5.7060803
5.9000291
6.0795993
6.2443355
6.3938192
6.5276701
6.6455472
6.7471498
6.8322186
6.9005363
6.9519281
6.9862626
7.0034518
7.0034518
6.9862626
6.9519281
6.9005363
6.8322187
6.7471498
6.6455472
6.5276701
6.3938192
6.2443355
6.0795993
5.9000291
5.7060803
5.498244
5.2770454
5.0430426
4.7968246
4.5390097
4.2702441
3.9911996
3.7025723
3.4050801
3.099461
2.7864715
2.4668837
2.1414843
1.8110718
1.4764547
1.1384495
0.79787857
0.45556809
0.11234612
-0.23095952
-0.57352318
-0.91452336
-1.2531446
-1.5885795
-1.9200303
-2.2467111
-2.5678491
-2.8826867
-3.1904832
-3.4905161
-3.7820829
-4.0645025
-4.3371166
-4.5992912
-4.8504178
-5.0899148
-5.3172284
-5.531834
-5.7332373
-5.9209748
-6.0946156
-6.2537611
-6.3980469
-6.5271428
-6.6407537
-6.7386201
-6.8205186
-6.8862625
-6.9357019
-6.9687242
-6.9852542
-7.1687034
-7.1517453
-7.1178676
-7.0671476
-6.9997006
-6.9156806
-6.8152789
-6.6987248
-6.5662843
-6.4182602
-6.254991
-6.0768508
-5.8842481
-5.6776252
-5.4574572
-5.2242513
-4.9785456
-4.7209081
-4.4519354
-4.1722516
-3.8825071
-3.583377
-3.2755602
-2.9597771
-2.6367689
-2.3072954
-1.9721339
-1.632077
-1.2879309
-0.94051396
-0.59065459
-0.2391893
0.11303913
0.46518363
0.81639489
1.1658234
1.5126214
1.8559452
2.194957
2.5288273
2.8567365
3.1778777
3.4914583
3.7967021
4.0928518
4.3791706
4.6549441
4.9194827
5.1721235
5.4122316
5.6392025
5.8524635
6.0514753
6.235734
6.4047721
6.5581598
6.6955069
6.8164633
6.9207205
7.008012
7.0781148
7.1308495
7.1660812
7.1837197
7.1837197
7.1660812
7.1308495
7.0781148
7.008012
6.9207205
6.8164633
6.6955069
6.5581598
6.4047721
6.235734
6.0514753
5.8524635
5.6392025
5.4122316
5.1721235
4.9194827
4.6549441
4.3791706
4.0928519
3.7967021
3.4914583
3.1778777
2.8567365
2.5288273
2.194957
1.8559452
1.5126214
1.1658234
0.81639489
0.46518363
0.11303913
-0.23918929
-0.59065458
-0.94051396
-1.2879309
-1.632077
-1.9721339
-2.3072954
-2.6367689
-2.9597771
-3.2755602
-3.583377
-3.882507
-4.1722516
-4.4519354
-4.7209081
-4.9785456
-5.2242513
-5.4574572
-5.6776252
-5.8842481
-6.0768508
-6.254991
-6.4182602
-6.5662843
-6.6987248
-6.8152789
-6.9156806
-6.9997006
-7.0671476
-7.1178676
-7.1517453
-7.1687034
-7.3695536
-7.352127
-7.3173135
-7.2651923
-7.1958821
-7.1095409
-7.0063654
-6.886591
-6.7504911
-6.5983767
-6.4305956
-6.2475322
-6.049606
-5.8372715
-5.611017
-5.3713633
-5.1188634
-4.8541008
-4.5776885
-4.2902677
-3.9925066
-3.685099
-3.3687627
-3.0442382
-2.7122868
-2.3736895
-2.0292447
-1.6797669
-1.3260847
-0.96903881
-0.60948058
-0.24826961
0.113728
0.47564178
0.83659889
1.1957262
1.5521526
1.9050108
2.2534398
2.5965869
2.9336097
3.2636789
3.5859795
3.8997138
4.2041032
4.49839
4.7818402
5.0537445
5.3134213
5.560218
5.7935129
6.012717
6.2172761
6.4066718
6.5804232
6.7380886
6.8792666
7.0035971
7.1107629
7.2004899
7.2725488
7.3267551
7.36297
7.3811007
7.3811007
7.36297
7.3267551
7.2725488
7.2004899
7.1107629
7.0035971
6.8792666
6.7380886
6.5804232
6.4066718
6.2172761
6.0127171
5.7935129
5.560218
5.3134214
5.0537445
4.7818402
4.4983901
4.2041032
3.8997138
3.5859795
3.2636789
2.9336097
2.5965869
2.2534398
1.9050108
1.5521526
1.1957262
0.8365989
0.47564179
0.11372801
-0.24826961
-0.60948057
-0.96903881
-1.3260847
-1.6797669
-2.0292447
-2.3736895
-2.7122868
-3.0442382
-3.3687627
-3.685099
-3.9925066
-4.2902676
-4.5776885
-4.8541008
-5.1188634
-5.3713633
-5.611017
-5.8372715
-6.049606
-6.2475322
-6.4305956
-6.5983767
-6.7504911
-6.886591
-7.0063654
-7.1095409
-7.1958821
-7.2651923
-7.3173135
-7.352127
-7.3695536
-7.5882869
-7.5703505
-7.5345186
-7.4808727
-7.4095349
-7.3206677
-7.2144735
-7.0911946
-6.9511122
-6.7945464
-6.621855
-6.4334333
-6.2297134
-6.0111626
-5.7782833
-5.5316117
-5.2717166
-4.9991984
-4.714688
-4.4188451
-4.1123573
-3.7959387
-3.4703277
-3.1362866
-2.7945987
-2.4460677
-2.0915154
-1.7317799
-1.367714
-1.0001831
-0.63006331
-0.25823939
0.1143972
0.48695047
0.85852196
1.2282129
1.5951266
1.9583701
2.3170572
2.6703098
3.0172609
3.3570563
3.6888571
4.0118418
4.3252087
4.6281776
4.9199924
5.1999229
5.4672669
5.7213523
5.9615389
6.18722
6.3978246
6.5928188
6.7717072
6.9340349
7.0793883
7.2073965
7.3177325
7.4101142
7.4843053
7.5401156
7.5774022
7.5960694
7.5960694
7.5774022
7.5401156
7.4843053
7.4101142
7.3177325
7.2073965
7.0793883
6.9340349
6.7717072
6.5928188
6.3978246
6.18722
5.9615389
5.7213523
5.4672669
5.1999229
4.9199924
4.6281776
4.3252087
4.0118418
3.6888571
3.3570563
3.0172609
2.6703098
2.3170572
1.9583702
1.5951266
1.2282129
0.85852196
0.48695047
0.11439721
-0.25823938
-0.63006331
-1.0001831
-1.367714
-1.7317799
-2.0915154
-2.4460677
-2.7945987
-3.1362866
-3.4703277
-3.7959387
-4.1123573
-4.4188451
-4.7146879
-4.9991984
-5.2717166
-5.5316117
-5.7782833
-6.0111626
-6.2297134
-6.4334333
-6.621855
-6.7945464
-6.9511122
-7.0911946
-7.2144735
-7.3206677
-7.4095349
-7.4808727
-7.5345186
-7.5703505
-7.5882869
-7.8254283
-7.8069397
-7.7700046
-7.7147069
-7.6411725
-7.5495688
-7.4401045
-7.313029
-7.1686321
-7.0072437
-6.8292324
-6.6350057
-6.4250085
-6.1997225
-5.9596655
-5.7053898
-5.4374817
-5.1565597
-4.8632741
-4.5583047
-4.2423602
-3.9161762
-3.580514
-3.2361588
-2.8839184
-2.5246208
-2.159113
-1.7882588
-1.4129373
-1.0340405
-0.65247131
-0.26914186
0.11502894
0.49911744
0.88219742
1.2633424
1.6416276
2.0161328
2.3859439
2.7501556
3.107874
3.4582181
3.8003228
4.133341
4.4564457
4.7688323
5.0697208
5.3583582
5.6340201
5.896013
6.1436765
6.3763848
6.5935488
6.7946175
6.9790799
7.1464665
7.2963506
7.4283494
7.5421256
7.6373881
7.7138929
7.7714438
7.8098933
7.8291428
7.8291428
7.8098933
7.7714438
7.7138929
7.6373881
7.5421256
7.4283494
7.2963506
7.1464665
6.9790799
6.7946175
6.5935488
6.3763849
6.1436765
5.896013
5.6340201
5.3583582
5.0697208
4.7688323
4.4564457
4.133341
3.8003228
3.4582181
3.107874
2.7501556
2.3859439
2.0161328
1.6416276
1.2633424
0.88219743
0.49911745
0.11502895
-0.26914185
-0.6524713
-1.0340405
-1.4129373
-1.7882588
-2.159113
-2.5246208
-2.8839184
-3.2361588
-3.580514
-3.9161762
-4.2423602
-4.5583047
-4.8632741
-5.1565597
-5.4374817
-5.7053898
-5.9596655
-6.1997225
-6.4250085
-6.6350057
-6.8292324
-7.0072437
-7.1686321
-7.313029
-7.4401045
-7.5495688
-7.6411725
-7.7147069
-7.7700046
-7.8069397
-7.8254283
-8.0815467
-8.0624622
-8.0243365
-7.9672564
-7.8913517
-7.796795
-7.6838016
-7.5526289
-7.403576
-7.236983
-7.0532305
-6.8527387
-6.6359667
-6.4034116
-6.1556075
-5.8931244
-5.6165672
-5.3265743
-5.0238164
-4.7089952
-4.382842
-4.0461159
-3.6996025
-3.3441123
-2.9804787
-2.6095564
-2.2322195
-1.8493596
-1.4618841
-1.0707135
-0.67677996
-0.281025
0.11560282
0.51214999
0.90766032
1.3011772
1.6917461
2.0784166
2.4602449
2.8362964
3.2056476
3.567389
3.920627
4.2644868
4.598114
4.9206777
5.231372
5.5294191
5.8140705
6.0846099
6.3403548
6.5806587
6.8049127
7.0125476
7.2030353
7.3758905
7.5306723
7.6669852
7.7844805
7.8828573
7.9618633
8.021296
8.0610028
8.0808818
8.0808818
8.0610028
8.021296
7.9618633
7.8828573
7.7844805
7.6669852
7.5306723
7.3758905
7.2030353
7.0125476
6.8049127
6.5806587
6.3403548
6.0846099
5.8140705
5.5294191
5.231372
4.9206777
4.598114
4.2644868
3.9206271
3.567389
3.2056476
2.8362964
2.4602449
2.0784166
1.6917461
1.3011772
0.90766033
0.51215
0.11560283
-0.28102499
-0.67677995
-1.0707135
-1.4618841
-1.8493596
-2.2322195
-2.6095563
-2.9804787
-3.3441123
-3.6996025
-4.0461159
-4.382842
-4.7089952
-5.0238164
-5.3265742
-5.6165672
-5.8931244
-6.1556075
-6.4034116
-6.6359667
-6.8527387
-7.0532305
-7.236983
-7.403576
-7.5526289
-7.6838016
-7.796795
-7.8913517
-7.9672564
-8.0243365
-8.0624622
-8.0815467
-8.3572563
-8.3375309
-8.2981248
-8.2391277
-8.1606735
-8.0629407
-7.9461516
-7.8105722
-7.6565113
-7.4843202
-7.2943922
-7.0871612
-6.8631017
-6.6227271
-6.3665892
-6.0952769
-5.8094151
-5.5096633
-5.1967146
-4.8712939
-4.5341567
-4.1860876
-3.8278982
-3.460426
-3.0845322
-2.7011
-2.3110328
-1.9152521
-1.5146954
-1.1103143
-0.70307214
-0.29394211
0.11609532
0.5260545
0.93494698
1.3417839
1.7455782
2.1453474
2.5401157
2.9289165
3.310795
3.6848105
4.0500391
4.4055756
4.7505365
5.0840623
5.4053194
5.7135028
6.0078385
6.2875852
6.5520367
6.800524
7.0324171
7.2471268
7.4441067
7.6228546
7.782914
7.9238757
8.0453786
8.1471113
8.2288129
8.2902734
8.3313351
8.3518924
8.3518924
8.3313351
8.2902734
8.2288129
8.1471113
8.0453786
7.9238757
7.782914
7.6228546
7.4441067
7.2471268
7.0324171
6.800524
6.5520367
6.2875852
6.0078385
5.7135028
5.4053194
5.0840623
4.7505365
4.4055756
4.0500391
3.6848106
3.310795
2.9289165
2.5401157
2.1453474
1.7455782
1.3417839
0.93494699
0.52605451
0.11609533
-0.2939421
-0.70307213
-1.1103143
-1.5146954
-1.9152521
-2.3110328
-2.7011
-3.0845322
-3.460426
-3.8278982
-4.1860876
-4.5341567
-4.8712939
-5.1967146
-5.5096633
-5.8094151
-6.0952769
-6.3665892
-6.6227271
-6.8631017
-7.0871612
-7.2943922
-7.4843202
-7.6565113
-7.8105722
-7.9461516
-8.0629407
-8.1606735
-8.2391277
-8.2981248
-8.3375309
-8.3572563
-8.6532182
-8.6328054
-8.5920262
-8.5309732
-8.449785
-8.348646
-8.2277862
-8.0874806
-7.9280487
-7.7498536
-7.5533022
-7.3388432
-7.1069672
-6.8582053
-6.5931282
-6.312345
-6.016502
-5.7062814
-5.3824001
-5.045608
-4.6966867
-4.3364476
-3.9657305
-3.5854017
-3.1963524
-2.7994962
-2.3957678
-1.9861208
-1.5715251
-1.1529655
-0.73143895
-0.30795246
0.11647921
0.54083593
0.96409463
1.3852317
1.8032255
2.2170588
2.6257215
3.0282128
3.423544
3.8107411
4.1888472
4.556925
4.9140595
5.2593602
5.5919637
5.9110362
6.2157756
6.5054141
6.7792198
7.0364996
7.2766006
7.4989123
7.7028683
7.8879483
8.0536789
8.1996362
8.3254458
8.4307851
8.5153834
8.5790233
8.6215411
8.6428274
8.6428274
8.6215411
8.5790233
8.5153834
8.4307851
8.3254458
8.1996362
8.0536789
7.8879483
7.7028683
7.4989123
7.2766006
7.0364996
6.7792198
6.5054141
6.2157757
5.9110362
5.5919637
5.2593602
4.9140595
4.5569251
4.1888472
3.8107411
3.423544
3.0282128
2.6257215
2.2170589
1.8032255
1.3852317
0.96409464
0.54083594
0.11647922
-0.30795245
-0.73143894
-1.1529655
-1.5715251
-1.9861208
-2.3957678
-2.7994962
-3.1963524
-3.5854017
-3.9657305
-4.3364476
-4.6966867
-5.045608
-5.3824001
-5.7062814
-6.016502
-6.312345
-6.5931282
-6.8582053
-7.1069672
-7.3388432
-7.5533022
-7.7498536
-7.9280486
-8.0874806
-8.2277862
-8.348646
-8.449785
-8.5309732
-8.5920262
-8.6328054
-8.6532182
-8.970142
-8.948994
-8.9067459
-8.8434936
-8.7593807
-8.654598
-8.5293836
-8.3840222
-8.2188443
-8.0342262
-7.8305888
-7.6083967
-7.368158
-7.1104224
-6.8357808
-6.5448638
-6.2383407
-5.9169179
-5.5813376
-5.2323765
-4.8708439
-4.4975801
-4.113455
-3.7193656
-3.3162349
-2.9050095
-2.4866573
-2.062166
-1.6325406
-1.1988012
-0.76198059
-0.32312213
0.11672278
0.55649711
0.99514072
1.4315929
1.8647947
2.293692
2.7172376
3.1343943
3.544137
3.945456
4.3373591
4.7188743
5.0890528
5.4469711
5.7917338
6.1224759
6.4383653
6.7386056
7.0224375
7.2891417
7.5380409
7.7685015
7.9799359
8.1718039
8.3436144
8.4949273
8.6253543
8.7345602
8.8222642
8.8882407
8.9323196
8.9543875
8.9543875
8.9323196
8.8882407
8.8222642
8.7345602
8.6253543
8.4949273
8.3436144
8.1718039
7.9799359
7.7685015
7.5380409
7.2891417
7.0224375
6.7386056
6.4383654
6.1224759
5.7917338
5.4469712
5.0890529
4.7188743
4.3373591
3.945456
3.544137
3.1343943
2.7172376
2.293692
1.8647947
1.4315929
0.99514074
0.55649713
0.11672279
-0.32312212
-0.76198058
-1.1988012
-1.6325406
-2.062166
-2.4866573
-2.9050094
-3.3162349
-3.7193656
-4.113455
-4.4975801
-4.8708439
-5.2323765
-5.5813376
-5.9169179
-6.2383407
-6.5448638
-6.8357808
-7.1104224
-7.368158
-7.6083967
-7.8305887
-8.0342262
-8.2188443
-8.3840222
-8.5293836
-8.654598
-8.7593807
-8.8434936
-8.9067459
-8.948994
-8.970142
-9.3087874
-9.2868547
-9.2430389
-9.1774393
-9.0902047
-8.9815329
-8.8516705
-8.7009124
-8.5296013
-8.3381269
-8.1269254
-7.8964785
-7.6473123
-7.3799967
-7.095144
-6.7934079
-6.4754819
-6.1420983
-5.7940264
-5.4320712
-5.0570717
-4.669899
-4.2714548
-3.8626692
-3.4444991
-3.0179258
-2.5839531
-2.1436052
-1.6979242
-1.2479679
-0.79480744
-0.33952498
0.11678896
0.57303797
1.0281223
1.4809414
1.9303969
2.3753949
2.8148487
3.247682
3.6728309
4.0892474
4.4959014
4.8917842
5.2759104
5.6473213
6.0050869
6.3483091
6.6761238
6.9877034
7.2822594
7.5590447
7.8173554
8.0565334
8.2759681
8.4750981
8.6534134
8.8104563
8.9458233
9.0591662
9.1501932
9.2186697
9.2644191
9.2873233
9.2873233
9.2644191
9.2186697
9.1501932
9.0591662
8.9458233
8.8104563
8.6534134
8.4750982
8.2759681
8.0565334
7.8173554
7.5590447
7.2822594
6.9877034
6.6761238
6.3483091
6.0050869
5.6473213
5.2759105
4.8917842
4.4959015
4.0892474
3.6728309
3.247682
2.8148487
2.3753949
1.9303969
1.4809414
1.0281223
0.57303798
0.11678897
-0.33952497
-0.79480743
-1.2479679
-1.6979242
-2.1436052
-2.5839531
-3.0179258
-3.4444991
-3.8626692
-4.2714547
-4.669899
-5.0570717
-5.4320712
-5.7940264
-6.1420983
-6.4754819
-6.7934079
-7.095144
-7.3799967
-7.6473122
-7.8964784
-8.1269254
-8.3381269
-8.5296013
-8.7009124
-8.8516705
-8.9815329
-9.0902047
-9.1774393
-9.2430389
-9.2868547
-9.3087874
-9.6699667
-9.6471981
-9.6017123
-9.5336123
-9.4430523
-9.3302376
-9.1954237
-9.0389166
-8.8610716
-8.6622929
-8.4430329
-8.203791
-7.9451131
-7.6675902
-7.3718575
-7.058593
-6.7285161
-6.3823865
-6.0210024
-5.6451989
-5.2558465
-4.8538491
-4.4401423
-4.0156913
-3.5814891
-3.1385542
-2.6879284
-2.2306745
-1.7678743
-1.3006259
-0.83004132
-0.35724386
0.11663421
0.59045445
1.0630749
1.5333527
2.0001471
2.4623219
2.9187484
3.3683084
3.8098966
4.242424
4.6648203
5.0760371
5.4750503
5.8608632
6.2325092
6.5890544
6.9296003
7.2532865
7.5592928
7.8468423
8.1152028
8.3636898
8.591668
8.7985535
8.9838155
9.1469781
9.2876213
9.4053828
9.499959
9.5711057
9.6186392
9.6424367
9.6424367
9.6186392
9.5711057
9.499959
9.4053828
9.2876213
9.1469781
8.9838155
8.7985535
8.591668
8.3636898
8.1152028
7.8468423
7.5592929
7.2532865
6.9296003
6.5890544
6.2325092
5.8608632
5.4750503
5.0760371
4.6648204
4.242424
3.8098966
3.3683084