/*--------------------------------*- C++ -*----------------------------------*\
| =========                 |                                                 |
| \\      /  F ield         | OpenFOAM: The Open Source CFD Toolbox           |
|  \\    /   O peration     | Version:  2106                                  |
|   \\  /    A nd           | Website:  www.openfoam.com                      |
|    \\/     M anipulation  |                                                 |
\*---------------------------------------------------------------------------*/
FoamFile
{
    version     2.0;
    format      ascii;
    arch        "LSB;label=32;scalar=64";
    class       surfaceScalarField;
    location    "0.014";
    object      phi;
}
// * * * * * * * * * * * * * * * * * * * * * * * * * * * * * * * * * * * * * //

dimensions      [0 3 -1 0 0 0 0];

oriented        oriented;

internalField   nonuniform List<scalar> 
32512
(
-0.00010736681
0.00010736681
-0.00021448737
0.00010712056
-0.00032111589
0.00010662852
-0.0004270075
0.00010589162
-0.00053191876
0.00010491125
-0.00063560805
0.00010368929
-0.00073783612
0.00010222807
-0.00083836651
0.00010053039
-0.00093696602
9.8599514e-05
-0.0010334052
9.6439204e-05
-0.0011274589
9.4053679e-05
-0.0012189065
9.1447636e-05
-0.0013075328
8.8626252e-05
-0.001393128
8.5595174e-05
-0.0014754885
8.2360529e-05
-0.0015544174
7.8928911e-05
-0.0016297248
7.5307386e-05
-0.0017012283
7.1503481e-05
-0.0017687535
6.7525181e-05
-0.0018321344
6.3380922e-05
-0.001891214
5.9079577e-05
-0.0019458444
5.4630449e-05
-0.0019958877
5.0043258e-05
-0.0020412158
4.532812e-05
-0.0020817113
4.049554e-05
-0.0021172677
3.5556384e-05
-0.0021477896
3.0521866e-05
-0.0021731931
2.5403523e-05
-0.0021934063
2.0213192e-05
-0.0022083692
1.496296e-05
-0.0022180342
9.664953e-06
-0.0022223663
4.3320978e-06
-0.0022213439
-1.0224295e-06
-0.0022149572
-6.3866308e-06
-0.0022032102
-1.1747022e-05
-0.0021861197
-1.7090495e-05
-0.0021637159
-2.2403828e-05
-0.0021360421
-2.7673788e-05
-0.002103155
-3.2887149e-05
-0.0020651242
-3.8030733e-05
-0.0020220328
-4.3091438e-05
-0.0019739765
-4.8056284e-05
-0.0019210641
-5.2912443e-05
-0.0018634168
-5.7647284e-05
-0.0018011684
-6.2248403e-05
-0.0017344647
-6.6703669e-05
-0.0016634634
-7.1001256e-05
-0.0015883338
-7.5129684e-05
-0.0015092559
-7.9077859e-05
-0.0014264208
-8.2835105e-05
-0.0013400296
-8.6391203e-05
-0.0012502932
-8.9736431e-05
-0.0011574316
-9.2861593e-05
-0.0010616735
-9.5758054e-05
-0.00096325574
-9.8417776e-05
-0.0008624224
-0.00010083334
-0.0007594244
-0.000102998
-0.00065451874
-0.00010490566
-0.00054796779
-0.00010655095
-0.00044003857
-0.00010792922
-0.00033100201
-0.00010903656
-0.00022113217
-0.00010986984
-0.00011070549
-0.00011042668
1.8448236e-13
-0.00011070549
0.00011070549
-0.00011070549
0.00022113217
-0.00011042668
0.00033100201
-0.00010986984
0.00044003857
-0.00010903656
0.00054796779
-0.00010792922
0.00065451874
-0.00010655095
0.0007594244
-0.00010490566
0.0008624224
-0.000102998
0.00096325574
-0.00010083334
0.0010616735
-9.8417776e-05
0.0011574316
-9.5758054e-05
0.0012502932
-9.2861593e-05
0.0013400296
-8.9736431e-05
0.0014264208
-8.6391203e-05
0.0015092559
-8.2835105e-05
0.0015883338
-7.9077859e-05
0.0016634634
-7.5129684e-05
0.0017344647
-7.1001256e-05
0.0018011684
-6.6703669e-05
0.0018634168
-6.2248403e-05
0.0019210641
-5.7647284e-05
0.0019739765
-5.2912443e-05
0.0020220328
-4.8056284e-05
0.0020651242
-4.3091438e-05
0.002103155
-3.8030732e-05
0.0021360421
-3.2887149e-05
0.0021637159
-2.7673788e-05
0.0021861197
-2.2403828e-05
0.0022032102
-1.7090495e-05
0.0022149572
-1.1747022e-05
0.0022213439
-6.3866308e-06
0.0022223663
-1.0224295e-06
0.0022180342
4.3320978e-06
0.0022083692
9.6649531e-06
0.0021934063
1.496296e-05
0.0021731931
2.0213192e-05
0.0021477896
2.5403523e-05
0.0021172677
3.0521866e-05
0.0020817113
3.5556385e-05
0.0020412158
4.049554e-05
0.0019958877
4.532812e-05
0.0019458444
5.0043258e-05
0.001891214
5.4630449e-05
0.0018321344
5.9079577e-05
0.0017687535
6.3380922e-05
0.0017012283
6.7525181e-05
0.0016297248
7.1503481e-05
0.0015544174
7.5307386e-05
0.0014754885
7.8928911e-05
0.001393128
8.2360529e-05
0.0013075328
8.5595175e-05
0.0012189065
8.8626252e-05
0.0011274589
9.1447636e-05
0.0010334052
9.4053679e-05
0.00093696602
9.6439204e-05
0.00083836651
9.8599514e-05
0.00073783612
0.00010053039
0.00063560805
0.00010222807
0.00053191876
0.00010368929
0.0004270075
0.00010491125
0.00032111589
0.00010589162
0.00021448737
0.00010662852
0.00010736681
0.00010712056
0.00010736681
-0.00010761624
0.00021498305
-0.00021498576
0.00021449008
-0.00032186232
0.00021350507
-0.00042800059
0.00021202988
-0.00053315664
0.00021006731
-0.00063708842
0.00020762107
-0.00073955618
0.00020469583
-0.00084032299
0.0002012972
-0.0009391552
0.00019743172
-0.0010358229
0.00019310688
-0.0011301003
0.00018833114
-0.0012217666
0.00018311388
-0.0013106058
0.00017746545
-0.0013964078
0.00017139716
-0.0014789685
0.00016492125
-0.0015580905
0.00015805092
-0.0016335834
0.00015080029
-0.0017052644
0.00014318444
-0.0017729585
0.00013521934
-0.0018364995
0.00012692186
-0.0018957297
0.00011830977
-0.0019505009
0.00010940169
-0.0020006747
0.00010021706
-0.0020461227
9.0776138e-05
-0.0020867271
8.1099953e-05
-0.002122381
7.1210257e-05
-0.0021529886
6.1129496e-05
-0.0021784659
5.0880765e-05
-0.0021987404
4.0487751e-05
-0.0022137521
2.9974666e-05
-0.0022234533
1.9366165e-05
-0.0022278089
8.6876576e-06
-0.0022267962
-2.0351195e-06
-0.0022204061
-1.2776709e-05
-0.0022086423
-2.3510874e-05
-0.0021915215
-3.4211261e-05
-0.0021690739
-4.4851406e-05
-0.0021413429
-5.5404801e-05
-0.0021083851
-6.5844958e-05
-0.0020702704
-7.6145476e-05
-0.0020270817
-8.6280119e-05
-0.0019789151
-9.6222883e-05
-0.0019258795
-0.00010594808
-0.0018680963
-0.0001154304
-0.0018056997
-0.000124645
-0.0017388358
-0.00013356758
-0.0016676626
-0.00014217445
-0.0015923497
-0.00015044262
-0.0015130777
-0.00015834984
-0.0014300381
-0.00016587474
-0.0013434324
-0.00017299685
-0.0012534722
-0.00017969667
-0.001160378
-0.00018595579
-0.0010643792
-0.0001917569
-0.00096571305
-0.00019708389
-0.00086462448
-0.00020192192
-0.00076136506
-0.00020625742
-0.0006561925
-0.00021007821
-0.00054936992
-0.00021337353
-0.0004411651
-0.00021613405
-0.00033184972
-0.00021835194
-0.00022169866
-0.0002200209
-0.00011098914
-0.00022113619
1.8523206e-13
-0.00022169464
0.00011098914
-0.00022169464
0.00022169866
-0.00022113619
0.00033184972
-0.0002200209
0.0004411651
-0.00021835194
0.00054936992
-0.00021613405
0.0006561925
-0.00021337353
0.00076136506
-0.00021007821
0.00086462448
-0.00020625742
0.00096571305
-0.00020192192
0.0010643792
-0.00019708389
0.001160378
-0.0001917569
0.0012534722
-0.00018595579
0.0013434324
-0.00017969667
0.0014300381
-0.00017299685
0.0015130777
-0.00016587474
0.0015923497
-0.00015834984
0.0016676626
-0.00015044262
0.0017388358
-0.00014217445
0.0018056997
-0.00013356758
0.0018680963
-0.000124645
0.0019258795
-0.0001154304
0.0019789151
-0.00010594808
0.0020270817
-9.6222883e-05
0.0020702704
-8.6280119e-05
0.0021083851
-7.6145476e-05
0.0021413429
-6.5844958e-05
0.0021690739
-5.5404801e-05
0.0021915215
-4.4851406e-05
0.0022086423
-3.4211261e-05
0.0022204061
-2.3510874e-05
0.0022267962
-1.2776709e-05
0.0022278089
-2.0351195e-06
0.0022234533
8.6876576e-06
0.0022137521
1.9366166e-05
0.0021987404
2.9974666e-05
0.0021784659
4.0487751e-05
0.0021529886
5.0880765e-05
0.002122381
6.1129496e-05
0.0020867271
7.1210257e-05
0.0020461227
8.1099953e-05
0.0020006747
9.0776139e-05
0.0019505009
0.00010021706
0.0018957297
0.00010940169
0.0018364995
0.00011830977
0.0017729585
0.00012692186
0.0017052644
0.00013521934
0.0016335834
0.00014318444
0.0015580905
0.00015080029
0.0014789685
0.00015805092
0.0013964078
0.00016492125
0.0013106058
0.00017139716
0.0012217666
0.00017746545
0.0011301003
0.00018311388
0.0010358229
0.00018833114
0.00093915519
0.00019310688
0.00084032299
0.00019743172
0.00073955618
0.0002012972
0.00063708842
0.00020469583
0.00053315664
0.00020762107
0.00042800059
0.00021006731
0.00032186232
0.00021202988
0.00021498576
0.00021350507
0.00010761624
0.00021449008
0.00021498305
-0.0001079934
0.00032297645
-0.00021573939
0.00032223607
-0.00032299104
0.00032075671
-0.00042950231
0.00031854116
-0.00053502859
0.00031559359
-0.00063932711
0.00031191959
-0.00074215743
0.00030752615
-0.00084328191
0.00030242168
-0.00094246617
0.00029661598
-0.0010394796
0.00029012029
-0.0011340957
0.00028294727
-0.0012260928
0.00027511101
-0.0013152544
0.00026662704
-0.0014013695
0.00025751229
-0.0014842334
0.00024778515
-0.0015636479
0.0002374654
-0.0016394219
0.00022657426
-0.0017113718
0.00021513433
-0.001779322
0.00020316959
-0.0018431056
0.00019070537
-0.0019025641
0.00017776834
-0.0019575489
0.00016438644
-0.0020079207
0.00015058888
-0.0020535506
0.00013640608
-0.0020943203
0.00012186961
-0.0021301222
0.00010701215
-0.0021608601
9.1867401e-05
-0.0021864494
7.6470063e-05
-0.0022068174
6.085572e-05
-0.0022219035
4.5060777e-05
-0.0022316597
2.9122386e-05
-0.0022360505
1.3078497e-05
-0.0022350532
-3.0324156e-06
-0.0022286583
-1.9171631e-05
-0.0022168693
-3.5299881e-05
-0.002199703
-5.1377587e-05
-0.0021771894
-6.7364991e-05
-0.0021493719
-8.3222258e-05
-0.0021163073
-9.8909578e-05
-0.0020780655
-0.00011438728
-0.0020347297
-0.00012961592
-0.0019863962
-0.00014455642
-0.0019331741
-0.00015917018
-0.0018751853
-0.00017341914
-0.0018125644
-0.00018726597
-0.0017454578
-0.00020067414
-0.0016740242
-0.00021360803
-0.0015984338
-0.00022603307
-0.0015188678
-0.00023791583
-0.0014355184
-0.00024922417
-0.0013485879
-0.0002599273
-0.0012582887
-0.00026999592
-0.0011648421
-0.00027940233
-0.0010684785
-0.00028812051
-0.00096943615
-0.00029612624
-0.00086796091
-0.00030339716
-0.00076430543
-0.0003099129
-0.00065872851
-0.00031565514
-0.00055149437
-0.00032060766
-0.00044287196
-0.00032475646
-0.00033313415
-0.00032808975
-0.00022255698
-0.00033059807
-0.00011141892
-0.00033227426
1.8665651e-13
-0.00033311355
0.00011141892
-0.00033311355
0.00022255699
-0.00033227426
0.00033313415
-0.00033059807
0.00044287196
-0.00032808975
0.00055149437
-0.00032475646
0.00065872851
-0.00032060766
0.00076430543
-0.00031565514
0.00086796091
-0.0003099129
0.00096943616
-0.00030339716
0.0010684785
-0.00029612624
0.0011648421
-0.00028812051
0.0012582887
-0.00027940233
0.0013485879
-0.00026999592
0.0014355184
-0.0002599273
0.0015188678
-0.00024922417
0.0015984338
-0.00023791583
0.0016740242
-0.00022603307
0.0017454578
-0.00021360803
0.0018125644
-0.00020067414
0.0018751853
-0.00018726597
0.0019331741
-0.00017341914
0.0019863962
-0.00015917018
0.0020347297
-0.00014455642
0.0020780655
-0.00012961592
0.0021163073
-0.00011438728
0.0021493719
-9.8909578e-05
0.0021771894
-8.3222258e-05
0.002199703
-6.7364991e-05
0.0022168693
-5.1377587e-05
0.0022286583
-3.5299881e-05
0.0022350532
-1.917163e-05
0.0022360505
-3.0324156e-06
0.0022316597
1.3078497e-05
0.0022219035
2.9122386e-05
0.0022068174
4.5060777e-05
0.0021864494
6.085572e-05
0.0021608601
7.6470063e-05
0.0021301222
9.1867401e-05
0.0020943203
0.00010701215
0.0020535506
0.00012186961
0.0020079207
0.00013640608
0.0019575489
0.00015058888
0.0019025641
0.00016438644
0.0018431056
0.00017776834
0.001779322
0.00019070537
0.0017113718
0.00020316959
0.0016394219
0.00021513433
0.0015636479
0.00022657426
0.0014842334
0.0002374654
0.0014013695
0.00024778515
0.0013152544
0.00025751229
0.0012260928
0.00026662704
0.0011340957
0.00027511101
0.0010394796
0.00028294727
0.00094246617
0.00029012029
0.00084328191
0.00029661598
0.00074215743
0.00030242168
0.00063932711
0.00030752615
0.00053502859
0.00031191959
0.00042950231
0.00031559359
0.00032299104
0.00031854116
0.00021573939
0.00032075671
0.0001079934
0.00032223607
0.00032297645
-0.00010849923
0.00043147569
-0.00021675014
0.00043048698
-0.00032450484
0.00042851142
-0.00043151641
0.00042555272
-0.00053753927
0.00042161645
-0.00064232974
0.00041671006
-0.00074564642
0.00041084284
-0.00084725073
0.00040402598
-0.00094690732
0.00039627257
-0.0010443846
0.00038759758
-0.0011394552
0.00037801787
-0.0012318964
0.00036755222
-0.0013214907
0.00035622131
-0.0014080262
0.00034404776
-0.0014912971
0.00033105605
-0.0015711042
0.00031727258
-0.0016472556
0.00030272564
-0.0017195667
0.00028744539
-0.0017878609
0.00027146382
-0.0018519703
0.00025481473
-0.0019117356
0.00023753371
-0.0019670073
0.00021965808
-0.0020176452
0.00020122682
-0.0020635197
0.00018228054
-0.0021045115
0.0001628614
-0.0021405124
0.00014301305
-0.0021714255
0.0001227805
-0.0021971655
0.0001022101
-0.0022176592
8.1349394e-05
-0.0022328454
6.0247029e-05
-0.0022426757
3.8952669e-05
-0.0022471141
1.751692e-05
-0.0022461377
-4.0088702e-06
-0.0022397365
-2.557281e-05
-0.0022279139
-4.7122437e-05
-0.0022106866
-6.8604881e-05
-0.0021880846
-8.9967017e-05
-0.0021601513
-0.00011115561
-0.0021269434
-0.00013211746
-0.0020885311
-0.00015279953
-0.0020449979
-0.00017314912
-0.0019964404
-0.00019311399
-0.001942968
-0.00021264252
-0.0018847033
-0.00023168387
-0.0018217812
-0.00025018811
-0.0017543489
-0.0002681064
-0.0016825658
-0.00028539113
-0.0016066028
-0.00030199607
-0.0015266421
-0.00031787653
-0.0014428768
-0.0003329895
-0.0013555102
-0.00034729384
-0.0012647558
-0.00036075034
-0.0011708362
-0.00037332196
-0.0010739828
-0.00038497389
-0.00097443533
-0.00039567373
-0.00087244091
-0.00040539158
-0.00076825363
-0.00041410018
-0.00066213375
-0.00042177502
-0.00055434702
-0.0004283944
-0.00044516389
-0.00043393958
-0.00033485884
-0.0004383948
-0.00022370952
-0.00044174738
-0.00011199601
-0.00044398777
1.8856645e-13
-0.00044510957
0.00011199601
-0.00044510957
0.00022370952
-0.00044398777
0.00033485884
-0.00044174738
0.00044516389
-0.0004383948
0.00055434702
-0.00043393958
0.00066213375
-0.0004283944
0.00076825363
-0.00042177501
0.00087244091
-0.00041410018
0.00097443533
-0.00040539158
0.0010739828
-0.00039567373
0.0011708362
-0.00038497389
0.0012647558
-0.00037332196
0.0013555102
-0.00036075034
0.0014428768
-0.00034729384
0.0015266421
-0.0003329895
0.0016066028
-0.00031787653
0.0016825658
-0.00030199607
0.0017543489
-0.00028539113
0.0018217812
-0.0002681064
0.0018847033
-0.00025018811
0.001942968
-0.00023168387
0.0019964404
-0.00021264252
0.0020449979
-0.00019311399
0.0020885311
-0.00017314912
0.0021269434
-0.00015279953
0.0021601513
-0.00013211746
0.0021880846
-0.00011115561
0.0022106866
-8.9967016e-05
0.0022279139
-6.8604881e-05
0.0022397365
-4.7122437e-05
0.0022461377
-2.557281e-05
0.0022471141
-4.0088702e-06
0.0022426757
1.751692e-05
0.0022328454
3.8952669e-05
0.0022176592
6.0247029e-05
0.0021971655
8.1349394e-05
0.0021714255
0.0001022101
0.0021405124
0.0001227805
0.0021045115
0.00014301305
0.0020635197
0.0001628614
0.0020176452
0.00018228054
0.0019670073
0.00020122682
0.0019117356
0.00021965808
0.0018519703
0.00023753371
0.0017878609
0.00025481473
0.0017195667
0.00027146382
0.0016472556
0.00028744539
0.0015711042
0.00030272564
0.0014912971
0.00031727258
0.0014080262
0.00033105605
0.0013214907
0.00034404776
0.0012318964
0.00035622131
0.0011394552
0.00036755222
0.0010443846
0.00037801787
0.00094690732
0.00038759758
0.00084725073
0.00039627257
0.00074564642
0.00040402598
0.00064232974
0.00041084284
0.00053753927
0.00041671006
0.00043151641
0.00042161645
0.00032450484
0.00042555272
0.00021675014
0.00042851142
0.00010849923
0.00043048698
0.00043147569
-0.0001091344
0.00054061009
-0.00021801932
0.0005393719
-0.00032640573
0.00053689783
-0.00043404554
0.00053319253
-0.00054069201
0.00052826293
-0.00064610029
0.00052211833
-0.00075002781
0.00051477035
-0.00085223477
0.00050623295
-0.00095248467
0.00049652247
-0.0010505447
0.00048565759
-0.0011461862
0.00047365939
-0.0012391853
0.00046055134
-0.0013293233
0.00044635927
-0.0014163869
0.00043111142
-0.0015001693
0.00041483843
-0.0015804701
0.00039757331
-0.0016570958
0.00037935141
-0.0017298609
0.00036021046
-0.0017985876
0.00034019048
-0.0018631066
0.00031933378
-0.0019232578
0.00029768488
-0.0019788902
0.00027529049
-0.0020298628
0.00025219943
-0.0020760448
0.00022846254
-0.002117316
0.00020413262
-0.0021535673
0.00017926432
-0.0021847008
0.00015391404
-0.0022106305
0.00012813984
-0.0022312824
0.00010200128
-0.0022465947
7.5559331e-05
-0.0022565183
4.887623e-05
-0.0022610167
2.2015347e-05
-0.0022600666
-4.958996e-06
-0.0022536577
-3.1981703e-05
-0.0022417931
-5.8987014e-05
-0.0022244893
-8.5908664e-05
-0.0022017763
-0.00011268007
-0.0021736974
-0.00013923451
-0.0021403096
-0.00016550528
-0.0021016832
-0.00019142592
-0.002057902
-0.00021693033
-0.0020090629
-0.00024195303
-0.0019552761
-0.00026642931
-0.0018966646
-0.00029029539
-0.001833364
-0.00031348869
-0.0017655225
-0.00033594795
-0.0016933001
-0.00035761345
-0.001616869
-0.00037842723
-0.0015364123
-0.00039833322
-0.0014521243
-0.00041727749
-0.0013642098
-0.00043520838
-0.0012728833
-0.00045207675
-0.0011783692
-0.00046783609
-0.0010809004
-0.00048244275
-0.00098071805
-0.00049585604
-0.00087807117
-0.00050803845
-0.00077321556
-0.00051895578
-0.00066641334
-0.00052857724
-0.00055793211
-0.00053687562
-0.00044804431
-0.00054382738
-0.00033702638
-0.00054941273
-0.000225158
-0.00055361577
-0.00011272129
-0.00055642448
1.9078734e-13
-0.00055783085
0.00011272129
-0.00055783085
0.000225158
-0.00055642448
0.00033702638
-0.00055361577
0.00044804431
-0.00054941273
0.00055793211
-0.00054382738
0.00066641334
-0.00053687562
0.00077321557
-0.00052857724
0.00087807117
-0.00051895578
0.00098071805
-0.00050803845
0.0010809004
-0.00049585604
0.0011783692
-0.00048244275
0.0012728833
-0.00046783609
0.0013642098
-0.00045207675
0.0014521243
-0.00043520838
0.0015364123
-0.00041727749
0.001616869
-0.00039833322
0.0016933001
-0.00037842723
0.0017655225
-0.00035761345
0.001833364
-0.00033594795
0.0018966646
-0.00031348869
0.0019552761
-0.00029029539
0.0020090629
-0.00026642931
0.002057902
-0.00024195303
0.0021016832
-0.00021693033
0.0021403096
-0.00019142592
0.0021736974
-0.00016550528
0.0022017763
-0.00013923451
0.0022244893
-0.00011268007
0.0022417931
-8.5908664e-05
0.0022536577
-5.8987013e-05
0.0022600666
-3.1981703e-05
0.0022610167
-4.9589959e-06
0.0022565183
2.2015347e-05
0.0022465947
4.887623e-05
0.0022312824
7.5559332e-05
0.0022106305
0.00010200128
0.0021847008
0.00012813984
0.0021535673
0.00015391404
0.002117316
0.00017926432
0.0020760448
0.00020413262
0.0020298628
0.00022846254
0.0019788902
0.00025219943
0.0019232578
0.00027529049
0.0018631066
0.00029768488
0.0017985876
0.00031933378
0.0017298609
0.00034019048
0.0016570958
0.00036021046
0.0015804701
0.00037935141
0.0015001693
0.00039757331
0.0014163869
0.00041483843
0.0013293233
0.00043111142
0.0012391853
0.00044635927
0.0011461862
0.00046055134
0.0010505447
0.00047365939
0.00095248467
0.00048565759
0.00085223477
0.00049652247
0.00075002781
0.00050623295
0.00064610029
0.00051477035
0.00054069201
0.00052211833
0.00043404554
0.00052826293
0.00032640573
0.00053319253
0.00021801932
0.00053689783
0.0001091344
0.0005393719
0.00054061009
-0.00010989931
0.0006505094
-0.00021954776
0.00064902035
-0.00032869494
0.00064604501
-0.00043709136
0.00064158895
-0.00054448891
0.00063566048
-0.0006506413
0.00062827072
-0.00075530456
0.00061943361
-0.00085823747
0.00060916587
-0.00095920208
0.00059748707
-0.0010579641
0.00058441963
-0.0011542935
0.00056998879
-0.0012479649
0.0005542227
-0.001338758
0.00053715235
-0.0014264582
0.00051881163
-0.001510857
0.00049923728
-0.0015917526
0.00047846892
-0.0016689502
0.00045654901
-0.0017422626
0.00043352284
-0.0018115106
0.00040943849
-0.0018765236
0.00038434679
-0.00193714
0.00035830123
-0.0019932075
0.00033135796
-0.0020445837
0.00030357566
-0.0020911366
0.00027501546
-0.0021327448
0.00024574085
-0.0021692981
0.00021581758
-0.0022006975
0.00018531348
-0.0022268561
0.00015429841
-0.0022476989
0.00012284404
-0.0022631633
9.1023728e-05
-0.0022731994
5.8912378e-05
-0.0022777703
2.6586237e-05
-0.002276852
-5.8772819e-06
-0.0022704339
-3.8399802e-05
-0.0022585188
-7.0902154e-05
-0.0022411229
-0.00010330457
-0.0022182761
-0.00013552689
-0.0021900218
-0.00016748878
-0.0021564171
-0.00019910995
-0.0021175327
-0.00023031036
-0.0020734526
-0.00026101043
-0.0020242743
-0.0002911313
-0.0019701086
-0.00032059504
-0.0019110791
-0.00034932485
-0.0018473225
-0.00037724534
-0.0017789877
-0.00040428273
-0.001706236
-0.0004303651
-0.0016292407
-0.00045542258
-0.0015481863
-0.00047938765
-0.0014632684
-0.00050219531
-0.0013746935
-0.00052378333
-0.0012826778
-0.00054409246
-0.0011874472
-0.00056306667
-0.0010892366
-0.00058065331
-0.00098828931
-0.00059680336
-0.00088485616
-0.0006114716
-0.00077919517
-0.00062461677
-0.00067157065
-0.00063620177
-0.0005622525
-0.00064619377
-0.0004515155
-0.00065456438
-0.00033963848
-0.00066128975
-0.00022690356
-0.00066635069
-0.00011359531
-0.00066973273
1.9316679e-13
-0.00067142617
0.00011359531
-0.00067142617
0.00022690356
-0.00066973273
0.00033963848
-0.00066635069
0.0004515155
-0.00066128975
0.0005622525
-0.00065456438
0.00067157065
-0.00064619377
0.00077919517
-0.00063620177
0.00088485616
-0.00062461677
0.00098828931
-0.0006114716
0.0010892366
-0.00059680336
0.0011874472
-0.00058065331
0.0012826778
-0.00056306667
0.0013746935
-0.00054409246
0.0014632684
-0.00052378333
0.0015481863
-0.00050219531
0.0016292407
-0.00047938765
0.001706236
-0.00045542258
0.0017789877
-0.0004303651
0.0018473225
-0.00040428273
0.0019110791
-0.00037724534
0.0019701086
-0.00034932485
0.0020242743
-0.00032059504
0.0020734526
-0.0002911313
0.0021175327
-0.00026101043
0.0021564171
-0.00023031036
0.0021900218
-0.00019910995
0.0022182761
-0.00016748878
0.0022411229
-0.00013552689
0.0022585188
-0.00010330457
0.0022704339
-7.0902153e-05
0.002276852
-3.8399802e-05
0.0022777703
-5.8772817e-06
0.0022731994
2.6586237e-05
0.0022631633
5.8912378e-05
0.0022476989
9.1023728e-05
0.0022268561
0.00012284404
0.0022006975
0.00015429841
0.0021692981
0.00018531348
0.0021327448
0.00021581758
0.0020911366
0.00024574085
0.0020445837
0.00027501546
0.0019932075
0.00030357566
0.00193714
0.00033135796
0.0018765236
0.00035830123
0.0018115106
0.00038434679
0.0017422626
0.00040943849
0.0016689502
0.00043352284
0.0015917526
0.00045654901
0.001510857
0.00047846892
0.0014264582
0.00049923728
0.001338758
0.00051881163
0.0012479649
0.00053715236
0.0011542935
0.0005542227
0.0010579641
0.00056998879
0.00095920208
0.00058441963
0.00085823747
0.00059748707
0.00075530456
0.00060916587
0.0006506413
0.00061943361
0.00054448891
0.00062827072
0.00043709136
0.00063566048
0.00032869494
0.00064158895
0.00021954776
0.00064604501
0.00010989931
0.00064902035
0.0006505094
-0.0001107942
0.0007613036
-0.00022133593
0.00075956208
-0.00033137317
0.00075608226
-0.00044065482
0.0007508706
-0.00054893113
0.00074393679
-0.0006559542
0.00073529379
-0.00076147838
0.00072495779
-0.00086526082
0.0007129483
-0.00096706185
0.0006992881
-0.0010666455
0.00068400329
-0.00116378
0.00066712332
-0.0012582383
0.00064868097
-0.0013497983
0.00062871238
-0.0014382438
0.00060725707
-0.0015233644
0.0005843579
-0.0016049566
0.00056006111
-0.0016828239
0.00053441625
-0.0017567772
0.00050747621
-0.0018266359
0.00047929713
-0.0018922275
0.00044993838
-0.0019533887
0.00041946249
-0.0020099658
0.00038793507
-0.0020618149
0.00035542472
-0.0021088024
0.00032200293
-0.0021508055
0.00028774395
-0.0021877126
0.00025272468
-0.0022194236
0.00021702449
-0.0022458503
0.00018072512
-0.0022669167
0.00014391045
-0.0022825593
0.00010666634
-0.0022927274
6.9080461e-05
-0.0022973832
3.124206e-05
-0.0022965023
-6.7582366e-06
-0.0022900734
-4.4828655e-05
-0.0022780991
-8.2876493e-05
-0.0022605953
-0.00012080834
-0.0022375918
-0.00015853035
-0.0022091322
-0.00019594843
-0.0021752736
-0.00023296856
-0.002136087
-0.00026949698
-0.0020916569
-0.00030544051
-0.0020420814
-0.00034070677
-0.001987472
-0.00037520447
-0.0019279532
-0.00040884364
-0.0018636626
-0.00044153597
-0.0017947503
-0.00047319499
-0.001721379
-0.00050373643
-0.0016437231
-0.00053307844
-0.0015619689
-0.00056114184
-0.0014763138
-0.00058785047
-0.0013869657
-0.00061313138
-0.0012941431
-0.0006369151
-0.0011980738
-0.00065913592
-0.001098995
-0.00067973212
-0.00099715215
-0.00069864622
-0.0008927986
-0.00071582516
-0.00078619482
-0.00073122055
-0.00067760773
-0.00074478886
-0.00056730989
-0.0007564916
-0.00045557883
-0.00076629544
-0.00034269617
-0.00077417241
-0.00022894688
-0.00078009998
-0.00011461844
-0.00078406117
1.9570427e-13
-0.00078604461
0.00011461844
-0.00078604461
0.00022894688
-0.00078406117
0.00034269617
-0.00078009998
0.00045557883
-0.00077417241
0.00056730989
-0.00076629544
0.00067760773
-0.0007564916
0.00078619482
-0.00074478886
0.0008927986
-0.00073122055
0.00099715215
-0.00071582516
0.001098995
-0.00069864622
0.0011980738
-0.00067973212
0.0012941431
-0.00065913592
0.0013869657
-0.0006369151
0.0014763138
-0.00061313138
0.0015619689
-0.00058785047
0.0016437231
-0.00056114184
0.001721379
-0.00053307844
0.0017947503
-0.00050373643
0.0018636626
-0.00047319499
0.0019279532
-0.00044153597
0.001987472
-0.00040884364
0.0020420814
-0.00037520447
0.0020916569
-0.00034070677
0.002136087
-0.00030544051
0.0021752736
-0.00026949698
0.0022091322
-0.00023296856
0.0022375918
-0.00019594843
0.0022605953
-0.00015853035
0.0022780991
-0.00012080834
0.0022900734
-8.2876493e-05
0.0022965023
-4.4828655e-05
0.0022973832
-6.7582365e-06
0.0022927274
3.124206e-05
0.0022825593
6.9080461e-05
0.0022669167
0.00010666634
0.0022458503
0.00014391045
0.0022194236
0.00018072512
0.0021877126
0.00021702449
0.0021508055
0.00025272468
0.0021088024
0.00028774395
0.0020618149
0.00032200293
0.0020099658
0.00035542472
0.0019533887
0.00038793507
0.0018922275
0.00041946249
0.0018266359
0.00044993838
0.0017567772
0.00047929713
0.0016828239
0.00050747621
0.0016049566
0.00053441625
0.0015233644
0.00056006111
0.0014382438
0.0005843579
0.0013497983
0.00060725707
0.0012582383
0.00062871238
0.00116378
0.00064868097
0.0010666455
0.00066712332
0.00096706185
0.00068400329
0.00086526082
0.0006992881
0.00076147838
0.0007129483
0.0006559542
0.00072495779
0.00054893113
0.00073529379
0.00044065482
0.00074393679
0.00033137317
0.0007508706
0.00022133593
0.00075608226
0.0001107942
0.00075956208
0.0007613036
-0.00011181921
0.0008731228
-0.00022338411
0.00087112698
-0.00033444087
0.00086713901
-0.00044473652
0.00086116625
-0.00055401948
0.00085321975
-0.00066203997
0.00084331428
-0.00076855047
0.0008314683
-0.00087330621
0.00081770404
-0.00097606561
0.0008020475
-0.0010765908
0.00078452846
-0.001174648
0.00076518051
-0.0012700081
0.00074404109
-0.0013624472
0.00072115146
-0.0014517468
0.00069655675
-0.0015376949
0.00067030596
-0.0016200857
0.00064245191
-0.0016987207
0.00061305129
-0.0017734091
0.00058216457
-0.0018439679
0.00054985599
-0.0019102231
0.00051619351
-0.0019720093
0.0004812487
-0.0020291709
0.00044509671
-0.0020815623
0.00040781612
-0.0021290482
0.00036948884
-0.0021715042
0.00033019996
-0.0022088172
0.00029003763
-0.0022408856
0.00024909287
-0.0022676198
0.00020745938
-0.0022889427
0.00016523337
-0.0023047897
0.00012251333
-0.0023151091
7.939983e-05
-0.0023198623
3.5995249e-05
-0.0023190241
-7.5964333e-06
-0.0023125828
-5.1269908e-05
-0.0023005405
-9.4918792e-05
-0.002282913
-0.0001384359
-0.0022597298
-0.00018171351
-0.0022310346
-0.00022464365
-0.0021968848
-0.00026711839
-0.0021573516
-0.00030903014
-0.0021125202
-0.00035027192
-0.0020624893
-0.00039073768
-0.0020073712
-0.00043032261
-0.0019472914
-0.00046892344
-0.0018823886
-0.00050643873
-0.0018128144
-0.00054276921
-0.0017387327
-0.0005778181
-0.0016603198
-0.00061149136
-0.0015777636
-0.00064369807
-0.0014912633
-0.00067435071
-0.0014010293
-0.00070336546
-0.0013072819
-0.0007306625
-0.0012102515
-0.00075616631
-0.0011101776
-0.00077980596
-0.0010073085
-0.00080151534
-0.00090190019
-0.00082123347
-0.00079421602
-0.00083890472
-0.00068452586
-0.00085447902
-0.00057310535
-0.0008679121
-0.00046023515
-0.00087916565
-0.00034620009
-0.00088820747
-0.0002312884
-0.00089501167
-0.00011579087
-0.00089955869
1.9854093e-13
-0.00090183548
0.00011579087
-0.00090183548
0.0002312884
-0.00089955869
0.00034620009
-0.00089501167
0.00046023515
-0.00088820747
0.00057310535
-0.00087916565
0.00068452586
-0.0008679121
0.00079421602
-0.00085447902
0.00090190019
-0.00083890472
0.0010073085
-0.00082123347
0.0011101776
-0.00080151534
0.0012102515
-0.00077980596
0.0013072819
-0.00075616631
0.0014010293
-0.0007306625
0.0014912633
-0.00070336546
0.0015777636
-0.00067435071
0.0016603198
-0.00064369807
0.0017387327
-0.00061149136
0.0018128144
-0.0005778181
0.0018823886
-0.00054276921
0.0019472914
-0.00050643873
0.0020073712
-0.00046892344
0.0020624893
-0.00043032261
0.0021125202
-0.00039073768
0.0021573516
-0.00035027192
0.0021968848
-0.00030903014
0.0022310346
-0.00026711839
0.0022597298
-0.00022464365
0.002282913
-0.00018171351
0.0023005405
-0.0001384359
0.0023125828
-9.4918792e-05
0.0023190241
-5.1269908e-05
0.0023198623
-7.5964332e-06
0.0023151091
3.5995249e-05
0.0023047897
7.939983e-05
0.0022889427
0.00012251333
0.0022676198
0.00016523337
0.0022408856
0.00020745938
0.0022088172
0.00024909287
0.0021715042
0.00029003763
0.0021290482
0.00033019996
0.0020815623
0.00036948884
0.0020291709
0.00040781612
0.0019720093
0.00044509671
0.0019102231
0.0004812487
0.0018439679
0.00051619351
0.0017734091
0.00054985599
0.0016987207
0.00058216457
0.0016200857
0.00061305129
0.0015376949
0.00064245191
0.0014517468
0.00067030596
0.0013624472
0.00069655675
0.0012700081
0.00072115146
0.001174648
0.00074404109
0.0010765908
0.00076518051
0.00097606561
0.00078452846
0.00087330621
0.0008020475
0.00076855047
0.00081770404
0.00066203997
0.0008314683
0.00055401948
0.00084331428
0.00044473652
0.00085321975
0.00033444086
0.00086116625
0.00022338411
0.00086713901
0.00011181921
0.00087112698
0.0008731228
-0.00011297455
0.00098609735
-0.00022569275
0.00098384518
-0.00033789869
0.00097934495
-0.00044933736
0.00097260493
-0.0005597551
0.00096363749
-0.00066890002
0.0009524592
-0.0007765225
0.00093909077
-0.00088237562
0.00092355716
-0.00098621565
0.00090588753
-0.0010878025
0.00088611531
-0.0011869002
0.00086427824
-0.0012832775
0.00084041836
-0.0013767081
0.00081458206
-0.0014669714