/*--------------------------------*- C++ -*----------------------------------*\
| =========                 |                                                 |
| \\      /  F ield         | OpenFOAM: The Open Source CFD Toolbox           |
|  \\    /   O peration     | Version:  2306                                  |
|   \\  /    A nd           | Website:  www.openfoam.com                      |
|    \\/     M anipulation  |                                                 |
\*---------------------------------------------------------------------------*/
FoamFile
{
    version     2.0;
    format      ascii;
    arch        "LSB;label=32;scalar=64";
    class       volVectorField;
    location    "0.09";
    object      U_0;
}
// * * * * * * * * * * * * * * * * * * * * * * * * * * * * * * * * * * * * * //

dimensions      [0 1 -1 0 0 0 0];

internalField   nonuniform List<vector> 
51200
(
(-1.718861e-05 1.3448239e-05 4.4904882e-20)
(-4.0753077e-05 1.6024432e-05 -5.1531502e-22)
(-6.7646402e-05 1.6011613e-05 -1.2820261e-20)
(-9.3963265e-05 1.6177296e-05 3.8960951e-21)
(-0.00012096306 1.6238516e-05 1.1605981e-20)
(-0.00014779624 1.6187928e-05 -7.3871257e-21)
(-0.00017441713 1.6103543e-05 -5.5585688e-21)
(-0.00020078863 1.599028e-05 9.6723763e-21)
(-0.00022687147 1.5853925e-05 8.9396987e-21)
(-0.00025262859 1.5698027e-05 -1.1069421e-20)
(-0.00027802568 1.5524509e-05 -1.0912295e-20)
(-0.00030302987 1.5334623e-05 1.5972006e-20)
(-0.00032760894 1.5129354e-05 -5.2861084e-21)
(-0.00035173184 1.4909537e-05 -1.400153e-20)
(-0.00037536891 1.4675923e-05 -6.8290278e-21)
(-0.00039849185 1.4429238e-05 2.5441861e-21)
(-0.00042107382 1.4170197e-05 1.2785007e-20)
(-0.0004430894 1.3899522e-05 -8.6120346e-21)
(-0.00046451475 1.3617938e-05 -1.1361053e-20)
(-0.00048532759 1.3326145e-05 7.3934936e-21)
(-0.00050550727 1.3024848e-05 -1.9991163e-21)
(-0.00052503483 1.2714725e-05 -4.2470956e-21)
(-0.00054389298 1.2396421e-05 1.0803433e-20)
(-0.00056206614 1.2070544e-05 3.0421438e-20)
(-0.00057954045 1.1737627e-05 5.0132636e-20)
(-0.00059630374 1.139812e-05 -1.9456352e-20)
(-0.00061234555 1.1052324e-05 -9.7401239e-20)
(-0.00062765703 1.0700348e-05 -1.5459609e-20)
(-0.00064223098 1.034198e-05 5.4212851e-20)
(-0.00065606181 9.9765812e-06 3.9853203e-20)
(-0.00066914584 9.6030074e-06 2.2136879e-20)
(-0.00068148359 9.2200045e-06 -4.2132181e-21)
(-0.00069308386 8.8299082e-06 2.4769511e-20)
(-0.0007039502 8.4476028e-06 -4.4302159e-20)
(-0.00071407557 8.0811841e-06 -8.0198544e-20)
(-0.00072345783 7.7292797e-06 6.925262e-20)
(-0.00073210219 7.3890472e-06 3.0482612e-20)
(-0.0007400166 7.0583856e-06 -1.2953439e-19)
(-0.00074721008 6.7359834e-06 3.0896548e-20)
(-0.00075369251 6.4210757e-06 1.8430957e-19)
(-0.00075947455 6.113243e-06 5.050855e-20)
(-0.00076456778 5.8122655e-06 -8.8973822e-20)
(-0.00076898461 5.5180512e-06 -1.5589517e-19)
(-0.00077273831 5.2305784e-06 -1.4491109e-19)
(-0.00077584292 4.9498587e-06 6.1457666e-20)
(-0.0007783132 4.6759262e-06 3.300668e-19)
(-0.00078016458 4.4088232e-06 5.0734273e-20)
(-0.00078141306 4.1485994e-06 -1.093689e-19)
(-0.00078207519 3.8953019e-06 -1.0855164e-19)
(-0.00078216794 3.6489982e-06 -2.5746708e-19)
(-0.00078170869 3.4097535e-06 1.5913564e-19)
(-0.00078071514 3.1776739e-06 1.5603061e-19)
(-0.00077920524 2.9529169e-06 -5.4160013e-20)
(-0.00077719716 2.7356697e-06 1.0422135e-19)
(-0.00077470924 2.5261037e-06 -1.9893261e-19)
(-0.00077175994 2.3242718e-06 -1.566649e-19)
(-0.00076836775 2.1301327e-06 2.1224724e-19)
(-0.00076455119 1.9436213e-06 4.6917414e-20)
(-0.00076032865 1.7646745e-06 -5.3057712e-20)
(-0.00075571845 1.5932135e-06 3.9888718e-20)
(-0.00075073878 1.4291666e-06 -5.6159851e-21)
(-0.0007454076 1.272454e-06 -3.0882593e-20)
(-0.00073974269 1.1230113e-06 -2.0572588e-20)
(-0.00073376157 9.8077265e-07 -2.7973779e-21)
(-0.00072748148 8.456905e-07 -6.8411537e-20)
(-0.00072091935 7.1774044e-07 -4.0183076e-20)
(-0.00071409182 5.9692633e-07 1.7789407e-19)
(-0.00070701516 4.8330389e-07 -2.3512118e-20)
(-0.00069970531 3.7699916e-07 -7.8508361e-20)
(-0.00069217787 2.7822365e-07 2.4472101e-19)
(-0.00068444813 1.8726495e-07 -4.0610141e-20)
(-0.00067653094 1.044051e-07 -1.913537e-19)
(-0.00066844051 2.9819007e-08 3.6209031e-20)
(-0.00066018888 -3.6923242e-08 7.5040758e-20)
(-0.00065178343 -1.0073686e-07 6.3442896e-20)
(-0.00064323114 -1.7836209e-07 -1.6902648e-19)
(-0.00063456074 -2.8872497e-07 -1.3458707e-19)
(-0.00062579427 -4.013318e-07 1.5644595e-19)
(-0.00061693273 -5.0731558e-07 1.863966e-19)
(-0.00060798372 -6.0555023e-07 -5.4474227e-20)
(-0.00059895738 -6.9625255e-07 -2.2962469e-19)
(-0.00058986399 -7.8008726e-07 6.5807867e-20)
(-0.00058071343 -8.5775903e-07 1.4121477e-19)
(-0.00057151513 -9.2987715e-07 -1.2551945e-21)
(-0.00056227801 -9.9692676e-07 6.2011183e-20)
(-0.00055301056 -1.0593177e-06 -6.6476789e-20)
(-0.00054372081 -1.1173823e-06 -4.0159153e-21)
(-0.00053441638 -1.1714088e-06 -4.5390011e-21)
(-0.00052510446 -1.2216405e-06 -9.4868864e-20)
(-0.00051579189 -1.26831e-06 6.7200731e-20)
(-0.00050648509 -1.3116182e-06 -8.6591278e-20)
(-0.00049719012 -1.3517547e-06 -4.7977569e-20)
(-0.00048791269 -1.3888883e-06 1.1763747e-19)
(-0.00047865815 -1.4231902e-06 4.1497511e-20)
(-0.00046943151 -1.4548111e-06 -1.5830913e-20)
(-0.00046023747 -1.4838976e-06 -1.0643438e-19)
(-0.00045108041 -1.5105869e-06 -8.6834466e-21)
(-0.0004419644 -1.535016e-06 6.0693698e-20)
(-0.00043289321 -1.5573011e-06 8.4275346e-20)
(-0.00042387036 -1.5775672e-06 3.2248749e-21)
(-0.00041489906 -1.5959315e-06 -1.3984255e-19)
(-0.00040598228 -1.6124953e-06 2.391173e-20)
(-0.00039712274 -1.6273684e-06 3.6394598e-20)
(-0.00038832293 -1.6406463e-06 4.4202192e-20)
(-0.00037958509 -1.6524301e-06 1.6465668e-20)
(-0.00037091125 -1.6628075e-06 -1.2553072e-19)
(-0.00036230323 -1.6718653e-06 2.9769787e-20)
(-0.00035376266 -1.6796812e-06 6.7509162e-20)
(-0.00034529098 -1.6863445e-06 9.1627042e-21)
(-0.00033688943 -1.6919211e-06 -1.7725357e-21)
(-0.0003285591 -1.6964902e-06 -9.3538194e-20)
(-0.00032030089 -1.700123e-06 -8.0663617e-21)
(-0.00031211558 -1.7028705e-06 5.06301e-20)
(-0.00030400378 -1.7048135e-06 5.1962719e-21)
(-0.00029596597 -1.705994e-06 1.9911391e-20)
(-0.00028800249 -1.7064814e-06 -2.2905762e-20)
(-0.00028011356 -1.7063262e-06 3.0720482e-21)
(-0.00027229928 -1.705577e-06 1.2700155e-20)
(-0.00026455965 -1.704287e-06 2.0035646e-21)
(-0.00025689456 -1.7024972e-06 2.7585695e-20)
(-0.0002493038 -1.7002567e-06 -2.784221e-20)
(-0.00024178707 -1.6976024e-06 -1.463862e-20)
(-0.00023434399 -1.6945746e-06 2.1516009e-20)
(-0.00022697408 -1.6912127e-06 3.229216e-20)
(-0.00021967682 -1.6875547e-06 6.1686376e-21)
(-0.00021245158 -1.6836252e-06 -6.3470779e-20)
(-0.00020529771 -1.6794653e-06 -2.524543e-20)
(-0.00019821446 -1.6750966e-06 3.2588755e-20)
(-0.00019120104 -1.6705524e-06 2.3683782e-20)
(-0.00018425662 -1.6658623e-06 -1.102631e-20)
(-0.00017738031 -1.6610425e-06 -2.2885659e-20)
(-0.00017057118 -1.6561212e-06 -2.0657852e-22)
(-0.00016382825 -1.6511217e-06 -4.7419882e-21)
(-0.00015715052 -1.6460634e-06 -1.0700886e-20)
(-0.00015053695 -1.6409639e-06 -1.3016315e-20)
(-0.00014398648 -1.6358481e-06 8.7976014e-21)
(-0.00013749802 -1.6307184e-06 2.7639222e-20)
(-0.00013107044 -1.6256076e-06 4.2534628e-21)
(-0.00012470261 -1.6205202e-06 -3.698105e-22)
(-0.00011839338 -1.6154729e-06 -2.5175774e-21)
(-0.00011214157 -1.6104763e-06 -8.5694722e-21)
(-0.00010594601 -1.6055437e-06 6.5349648e-21)
(-9.9805507e-05 -1.600689e-06 -1.2772638e-21)
(-9.3718858e-05 -1.5959137e-06 2.0996428e-21)
(-8.7684864e-05 -1.5912298e-06 1.2882288e-20)
(-8.1702322e-05 -1.5866491e-06 -1.5126597e-20)
(-7.5770022e-05 -1.5821701e-06 -1.1077091e-20)
(-6.9886767e-05 -1.577805e-06 1.1524042e-20)
(-6.405137e-05 -1.5735464e-06 1.1867444e-20)
(-5.8262653e-05 -1.5693926e-06 -2.1917929e-21)
(-5.2519484e-05 -1.5653257e-06 -1.3045247e-20)
(-4.6820794e-05 -1.5612911e-06 -4.8716704e-21)
(-4.1165652e-05 -1.5571641e-06 7.2359171e-21)
(-3.5553448e-05 -1.552634e-06 3.1838703e-21)
(-2.9984264e-05 -1.546944e-06 -3.1300979e-21)
(-2.445983e-05 -1.5384238e-06 -3.2198283e-21)
(-1.8986043e-05 -1.5242655e-06 -1.423214e-22)
(-1.3576637e-05 -1.5051401e-06 1.5584925e-21)
(-8.2235718e-06 -1.5371299e-06 2.5763716e-22)
(-2.7484849e-06 -1.8898901e-06 -1.7733953e-21)
(-3.2077842e-05 9.0616921e-05 -1.6010569e-20)
(-7.2389683e-05 9.2757578e-05 -4.5011277e-21)
(-0.00011846128 9.3001181e-05 5.6281987e-22)
(-0.00016345738 9.3310407e-05 2.2109526e-20)
(-0.00020947511 9.3273612e-05 1.6039814e-20)
(-0.00025522617 9.2968212e-05 -9.6444266e-21)
(-0.00030064167 9.2512829e-05 1.3962026e-20)
(-0.00034566155 9.1939386e-05 1.2175441e-20)
(-0.00039021308 9.1263936e-05 -2.5988766e-21)
(-0.00043422501 9.0496023e-05 -9.4789905e-21)
(-0.00047763173 8.964167e-05 -1.1055384e-20)
(-0.00052037149 8.8705331e-05 -4.8940548e-23)
(-0.00056238517 8.7690756e-05 1.0243264e-20)
(-0.00060361652 8.6601327e-05 3.9126203e-20)
(-0.00064401236 8.5440281e-05 6.8022864e-21)
(-0.00068352244 8.4210849e-05 4.6477429e-21)
(-0.00072209936 8.2916302e-05 4.5213007e-20)
(-0.00075969861 8.1559981e-05 2.7658466e-21)
(-0.00079627859 8.0145298e-05 -4.3755274e-20)
(-0.00083180065 7.867572e-05 -2.8927431e-20)
(-0.00086622916 7.7154774e-05 -4.2006262e-21)
(-0.00089953152 7.5586013e-05 3.3571896e-21)
(-0.00093167818 7.397301e-05 1.2682163e-20)
(-0.00096264267 7.2319337e-05 4.4788303e-20)
(-0.00099240166 7.0628516e-05 6.4052038e-20)
(-0.0010209349 6.8904007e-05 -3.7355747e-20)
(-0.0010482252 6.7149142e-05 -9.5057912e-20)
(-0.0010742586 6.5367079e-05 -3.579522e-20)
(-0.0010990241 6.3560704e-05 -3.3566659e-20)
(-0.0011225141 6.1732582e-05 8.2822386e-20)
(-0.0011447237 5.9884977e-05 1.4053832e-19)
(-0.0011656494 5.8020253e-05 -3.920527e-20)
(-0.0011852841 5.6143552e-05 -9.6373911e-20)
(-0.0012036278 5.4268792e-05 -6.3468309e-20)
(-0.0012206922 5.240559e-05 3.6509754e-20)
(-0.0012364895 5.0556076e-05 6.6551149e-20)
(-0.00125103 4.8720541e-05 -1.0332151e-19)
(-0.0012643255 4.689966e-05 -1.7643028e-19)
(-0.0012763899 4.5094669e-05 1.8155986e-19)
(-0.0012872393 4.3307173e-05 2.4376063e-19)
(-0.001296892 4.1538971e-05 -2.8928667e-19)
(-0.0013053677 3.9791924e-05 -1.261102e-19)
(-0.0013126883 3.8067891e-05 2.9992236e-19)
(-0.0013188769 3.6368675e-05 3.378072e-19)
(-0.001323958 3.4695984e-05 2.5597149e-20)
(-0.0013279574 3.3051421e-05 -5.9234422e-19)
(-0.001330902 3.1436471e-05 -3.6806629e-19)
(-0.0013328197 2.98525e-05 3.59223e-19)
(-0.0013337392 2.8300741e-05 3.2263104e-19)
(-0.00133369 2.6782298e-05 -1.8833793e-19)
(-0.0013327022 2.5298092e-05 -3.1096668e-19)
(-0.0013308064 2.3848904e-05 2.5792227e-19)
(-0.0013280335 2.2435308e-05 4.0021585e-19)
(-0.001324415 2.1057704e-05 -3.8872577e-20)
(-0.0013199827 1.9716388e-05 -2.4840025e-19)
(-0.0013147686 1.8411665e-05 -2.9595989e-19)
(-0.0013088047 1.7143822e-05 -2.8880467e-20)
(-0.0013021227 1.5913072e-05 3.8147074e-19)
(-0.0012947544 1.4719548e-05 1.4133348e-19)
(-0.001286731 1.3563289e-05 -3.9209503e-19)
(-0.0012780839 1.2444247e-05 -1.3737297e-19)
(-0.0012688437 1.1362293e-05 3.9052372e-19)
(-0.0012590409 1.0317221e-05 1.2471713e-19)
(-0.0012487054 9.3087573e-06 -3.9832459e-19)
(-0.0012378665 8.3365524e-06 -1.8879496e-19)
(-0.0012265532 7.4002048e-06 2.3167166e-19)
(-0.0012147937 6.4992609e-06 1.9476315e-19)
(-0.0012026155 5.6332234e-06 6.5935202e-20)
(-0.0011900456 4.801583e-06 -9.8030979e-20)
(-0.0011771104 4.0038412e-06 -2.7931379e-19)
(-0.0011638353 3.2395378e-06 4.6781611e-20)
(-0.0011502456 2.5082631e-06 1.846134e-19)
(-0.0011363665 1.8096684e-06 -5.3925302e-20)
(-0.0011222267 1.1433466e-06 3.3312509e-20)
(-0.0011078598 5.0650651e-07 1.5666495e-19)
(-0.001093294 -1.1094698e-07 3.5288112e-20)
(-0.0010785166 -7.1506919e-07 -2.2773412e-19)
(-0.0010635289 -1.2921785e-06 -1.553234e-19)
(-0.0010483704 -1.8400817e-06 9.649094e-20)
(-0.0010330673 -2.3597393e-06 6.799314e-20)
(-0.0010176391 -2.8523857e-06 -1.3328979e-20)
(-0.0010021035 -3.3192456e-06 3.6720928e-20)
(-0.00098647676 -3.7614232e-06 8.2120779e-20)
(-0.0009707745 -4.1799296e-06 -1.0155801e-19)
(-0.00095501148 -4.5756932e-06 -9.9971082e-21)
(-0.00093920177 -4.949611e-06 1.192431e-19)
(-0.00092335875 -5.3025482e-06 -1.4104749e-19)
(-0.00090749514 -5.6353359e-06 7.5775503e-21)
(-0.00089162298 -5.9487807e-06 7.9003697e-20)
(-0.00087575366 -6.2436826e-06 -3.7915986e-20)
(-0.00085989794 -6.5208117e-06 -4.3951174e-20)
(-0.00084406595 -6.7809262e-06 -9.7864546e-20)
(-0.00082826725 -7.024762e-06 8.4587111e-20)
(-0.00081251075 -7.2530373e-06 7.4077485e-20)
(-0.00079680486 -7.4664518e-06 -4.0455226e-20)
(-0.00078115739 -7.6656831e-06 -2.1276555e-20)
(-0.00076557565 -7.8513958e-06 -1.4047248e-20)
(-0.00075006644 -8.0242282e-06 6.5589868e-20)
(-0.00073463603 -8.1848023e-06 7.1857536e-21)
(-0.00071929027 -8.3337159e-06 -9.3853289e-20)
(-0.00070403449 -8.4715662e-06 -2.3991926e-20)
(-0.00068887364 -8.5989009e-06 6.3814466e-20)
(-0.00067381222 -8.7162745e-06 6.6217023e-20)
(-0.00065885432 -8.8242107e-06 1.1802086e-20)
(-0.00064400367 -8.9232225e-06 -7.235905e-20)
(-0.00062926361 -9.0137931e-06 -7.2131618e-20)
(-0.00061463715 -9.0963974e-06 3.453195e-20)
(-0.00060012695 -9.1714781e-06 1.0941448e-19)
(-0.00058573534 -9.2394928e-06 9.4910656e-21)
(-0.00057146438 -9.3008458e-06 -1.0024123e-19)
(-0.0005573158 -9.3559399e-06 -2.6991461e-20)
(-0.00054329108 -9.4051713e-06 -1.4567821e-22)
(-0.00052939146 -9.4488974e-06 7.4389158e-20)
(-0.00051561788 -9.4874842e-06 8.094047e-20)
(-0.0005019711 -9.521258e-06 -6.395051e-20)
(-0.00048845162 -9.5505601e-06 -7.1512713e-20)
(-0.00047505977 -9.5756947e-06 -1.2322575e-20)
(-0.00046179564 -9.59695e-06 6.3235747e-20)
(-0.00044865918 -9.6146279e-06 3.2606591e-20)
(-0.00043565014 -9.6289816e-06 -7.4010986e-20)
(-0.0004227681 -9.6402863e-06 -2.3565586e-20)
(-0.0004100125 -9.6487737e-06 5.6769099e-20)
(-0.00039738266 -9.6546803e-06 4.8454359e-20)
(-0.00038487772 -9.6582336e-06 -1.8792438e-20)
(-0.00037249673 -9.6596503e-06 -7.3226694e-20)
(-0.00036023861 -9.6591172e-06 -1.1308377e-20)
(-0.00034810219 -9.6568368e-06 4.3878736e-20)
(-0.00033608617 -9.6529877e-06 2.9945242e-20)
(-0.00032418918 -9.6477382e-06 -6.960451e-21)
(-0.00031240975 -9.6412625e-06 -4.5232918e-20)
(-0.00030074635 -9.6337042e-06 -1.3388284e-20)
(-0.00028919737 -9.6252087e-06 4.7620456e-20)
(-0.00027776113 -9.615922e-06 3.5571894e-20)
(-0.00026643589 -9.6059699e-06 -2.3437275e-20)
(-0.00025521987 -9.5954669e-06 -6.2711462e-20)
(-0.00024411124 -9.5845427e-06 -2.9573998e-21)
(-0.0002331081 -9.5732852e-06 5.2513675e-20)
(-0.00022220855 -9.5618177e-06 1.9779566e-20)
(-0.00021141064 -9.5502219e-06 -1.1974004e-20)
(-0.00020071238 -9.5385941e-06 -1.8217823e-20)
(-0.00019011177 -9.5270073e-06 -1.3914003e-21)
(-0.00017960679 -9.5155468e-06 8.6583299e-21)
(-0.0001691954 -9.5042832e-06 7.957536e-21)
(-0.00015887554 -9.493274e-06 -6.4015631e-21)
(-0.00014864518 -9.4825782e-06 -1.3863652e-20)
(-0.00013850223 -9.4722628e-06 -8.5809812e-22)
(-0.00012844463 -9.4623609e-06 8.8081961e-21)
(-0.00011847033 -9.4529175e-06 1.2406576e-20)
(-0.00010857729 -9.4439485e-06 -3.0306463e-21)
(-9.8763477e-05 -9.4354668e-06 -1.5791523e-20)
(-8.9026879e-05 -9.4274522e-06 -1.6163302e-21)
(-7.9365522e-05 -9.4197987e-06 8.2342121e-21)
(-6.9777471e-05 -9.4122663e-06 6.3152372e-21)
(-6.02608e-05 -9.404304e-06 -2.9164088e-21)
(-5.0813497e-05 -9.3946509e-06 -6.631296e-21)
(-4.1433015e-05 -9.3806969e-06 -1.1469947e-22)
(-3.2114801e-05 -9.3585365e-06 2.5778249e-21)
(-2.2849704e-05 -9.3268811e-06 7.4321407e-22)
(-1.3626199e-05 -9.3065246e-06 -1.2803372e-21)
(-4.4911648e-06 -9.4117459e-06 -1.7114211e-21)
(-3.6707687e-05 0.0001965778 -2.8931371e-20)
(-8.2105827e-05 0.00019792269 -2.4099661e-20)
(-0.00013411288 0.0001981267 -5.402285e-21)
(-0.0001846791 0.00019811023 6.3112626e-21)
(-0.00023636266 0.00019768714 -4.8463358e-21)
(-0.00028772189 0.00019692146 -1.9978931e-20)
(-0.00033869967 0.00019590002 2.4070958e-20)
(-0.00038923812 0.00019465627 -4.7465664e-21)
(-0.00043925639 0.00019320957 7.6310935e-21)
(-0.0004886731 0.0001915731 4.9557327e-20)
(-0.00053741274 0.00018975656 1.4298015e-20)
(-0.00058540421 0.00018776801 2.1767599e-20)
(-0.0006325796 0.00018561476 -1.8088921e-20)
(-0.00067887452 0.00018330374 2.2898303e-20)
(-0.00072422821 0.00018084184 4.5947124e-20)
(-0.00076858337 0.00017823603 4.6295378e-21)
(-0.0008118861 0.00017549339 3.2600763e-20)
(-0.00085408586 0.0001726212 -1.069353e-20)
(-0.00089513551 0.00016962689 -3.2552143e-20)
(-0.00093499134 0.0001665181 1.8753284e-20)
(-0.00097361311 0.00016330255 1.3047592e-20)
(-0.0010109641 0.00015998812 -4.2554892e-22)
(-0.001047011 0.00015658278 1.7509881e-20)
(-0.0010817241 0.00015309454 4.3893627e-20)
(-0.0011150772 0.00014953149 3.2229766e-20)
(-0.0011470477 0.0001459017 -4.9606748e-21)
(-0.0011776164 0.00014221327 -2.8252535e-20)
(-0.0012067676 0.00013847428 -5.5867325e-20)
(-0.0012344889 0.00013469282 -5.569426e-20)
(-0.0012607714 0.00013087708 5.2607692e-21)
(-0.0012856092 0.00012703539 2.9506264e-20)
(-0.001308999 0.00012317629 2.2048018e-20)
(-0.0013309399 0.00011930711 -3.1530775e-20)
(-0.0013514356 0.00011542993 -7.8861802e-20)
(-0.0013704945 0.00011154931 1.4119381e-20)
(-0.0013881265 0.000107673 4.4783507e-20)
(-0.0014043431 0.00010380854 -6.7076771e-21)
(-0.0014191582 9.9962781e-05 -2.9182093e-20)
(-0.0014325881 9.6141955e-05 2.4905321e-21)
(-0.0014446516 9.2351861e-05 -1.0574318e-20)
(-0.0014553695 8.8597922e-05 -7.1611593e-20)
(-0.0014647649 8.4885213e-05 3.212468e-20)
(-0.0014728626 8.1218474e-05 1.1021128e-19)
(-0.0014796889 7.7602106e-05 1.1625418e-19)
(-0.0014852719 7.4040189e-05 2.1824993e-20)
(-0.0014896409 7.0536464e-05 -2.2300566e-19)
(-0.0014928266 6.7094359e-05 -1.0912913e-19)
(-0.0014948605 6.3716988e-05 8.0157083e-20)
(-0.0014957755 6.0407146e-05 8.7033659e-20)
(-0.0014956051 5.7167302e-05 6.1432402e-20)
(-0.0014943834 5.3999585e-05 -1.3085651e-19)
(-0.0014921454 5.0905804e-05 3.0968634e-21)
(-0.0014889263 4.7887364e-05 1.4048868e-19)
(-0.0014847617 4.4945353e-05 -9.932155e-21)
(-0.0014796873 4.2080606e-05 -1.5183171e-20)
(-0.0014737387 3.9293847e-05 -5.2818673e-20)
(-0.0014669518 3.6585701e-05 -4.7886766e-20)
(-0.0014593623 3.3956598e-05 1.0304338e-19)
(-0.001451006 3.1406759e-05 2.7597315e-20)
(-0.0014419182 2.8936218e-05 -1.3379812e-19)
(-0.0014321341 2.6544802e-05 -3.9770525e-20)
(-0.0014216883 2.423216e-05 1.0342923e-19)
(-0.001410615 2.1997757e-05 4.224849e-20)
(-0.0013989479 1.9840908e-05 -6.5025414e-20)
(-0.0013867201 1.7760759e-05 2.0811176e-21)
(-0.0013739642 1.5756311e-05 3.1053805e-20)
(-0.001360712 1.3826425e-05 -1.6580915e-20)
(-0.0013469945 1.1969835e-05 3.2962376e-20)
(-0.0013328421 1.0185157e-05 -9.1057063e-21)
(-0.0013182845 8.4709153e-06 -8.62281e-20)
(-0.0013033503 6.8255993e-06 1.0952985e-20)
(-0.0012880675 5.2477472e-06 4.6914126e-20)
(-0.0012724625 3.7358942e-06 -1.5796281e-20)
(-0.0012565614 2.2886627e-06 2.2005415e-20)
(-0.0012403903 9.0782496e-07 3.423983e-20)
(-0.0012239716 -3.9676108e-07 1.0614333e-20)
(-0.0012073277 -1.6139261e-06 -3.9441891e-20)
(-0.0011904842 -2.7681021e-06 -7.4290663e-20)
(-0.0011734639 -3.8668119e-06 -1.8810059e-20)
(-0.0011562866 -4.9124623e-06 5.508619e-20)
(-0.0011389719 -5.9069808e-06 5.2318785e-20)
(-0.0011215388 -6.8519693e-06 -4.7189551e-20)
(-0.0011040056 -7.7488902e-06 -2.6225634e-20)
(-0.0010863896 -8.5992059e-06 -3.3663369e-20)
(-0.0010687078 -9.4044116e-06 -2.2216344e-20)
(-0.0010509757 -1.0166021e-05 4.7241373e-20)
(-0.0010332085 -1.0885577e-05 -3.7418487e-20)
(-0.0010154204 -1.1564611e-05 8.4064993e-21)
(-0.0009976249 -1.2204651e-05 5.1922003e-20)
(-0.00097983468 -1.2807217e-05 -1.3003783e-20)
(-0.00096206174 -1.3373813e-05 -6.9648808e-21)
(-0.0009443174 -1.3905917e-05 -2.0514433e-20)
(-0.00092661226 -1.4404993e-05 1.7842494e-20)
(-0.00090895628 -1.4872457e-05 4.3639053e-23)
(-0.00089135877 -1.5309712e-05 -5.8273317e-21)
(-0.00087382844 -1.5718117e-05 4.0647084e-20)
(-0.0008563734 -1.6099001e-05 -1.6683894e-20)
(-0.00083900117 -1.6453651e-05 -1.365088e-20)
(-0.00082171874 -1.6783329e-05 -2.5693428e-20)
(-0.00080453255 -1.708925e-05 -1.719072e-20)
(-0.00078744856 -1.7372605e-05 3.7244408e-20)
(-0.0007704722 -1.7634532e-05 8.5271994e-21)
(-0.00075360845 -1.7876139e-05 1.232111e-20)
(-0.00073686185 -1.8098505e-05 -2.1077155e-20)
(-0.00072023649 -1.8302654e-05 -1.464473e-20)
(-0.00070373607 -1.8489585e-05 3.5406595e-20)
(-0.0006873639 -1.8660261e-05 -7.4636442e-23)
(-0.00067112288 -1.8815599e-05 7.0020359e-21)
(-0.0006550156 -1.8956509e-05 -1.505151e-20)
(-0.00063904428 -1.9083834e-05 -4.020092e-20)
(-0.00062321083 -1.9198394e-05 1.7941464e-20)
(-0.00060751686 -1.930098e-05 1.2848316e-20)
(-0.00059196369 -1.9392355e-05 1.0169987e-20)
(-0.00057655235 -1.9473229e-05 1.6826324e-20)
(-0.00056128364 -1.9544312e-05 -1.9523702e-20)
(-0.00054615808 -1.9606268e-05 -1.5449803e-20)
(-0.00053117598 -1.9659724e-05 -7.7004056e-21)
(-0.00051633743 -1.9705294e-05 1.7035776e-20)
(-0.00050164233 -1.9743558e-05 7.9284641e-21)
(-0.00048709034 -1.9775067e-05 -1.8592674e-20)
(-0.000472681 -1.9800359e-05 4.8993599e-21)
(-0.00045841363 -1.9819929e-05 1.1637768e-20)
(-0.00044428743 -1.9834247e-05 5.9206741e-21)
(-0.00043030143 -1.9843783e-05 -1.2851908e-20)
(-0.00041645452 -1.9848977e-05 -1.734518e-20)
(-0.00040274547 -1.9850222e-05 1.5499904e-20)
(-0.00038917294 -1.9847922e-05 1.4117706e-20)
(-0.00037573546 -1.9842448e-05 2.4978031e-21)
(-0.00036243147 -1.9834149e-05 -1.0728322e-20)
(-0.00034925931 -1.982336e-05 -9.8542841e-21)
(-0.00033621724 -1.9810405e-05 9.7120908e-21)
(-0.00032330344 -1.9795568e-05 9.2244799e-21)
(-0.00031051601 -1.9779141e-05 3.858052e-21)
(-0.000297853 -1.9761392e-05 -7.4161404e-21)
(-0.00028531238 -1.9742558e-05 -1.0841324e-20)
(-0.00027289208 -1.9722887e-05 2.8733249e-22)
(-0.00026059 -1.9702591e-05 8.8919369e-21)
(-0.00024840396 -1.9681891e-05 5.4693926e-21)
(-0.00023633176 -1.9660976e-05 -6.9675124e-21)
(-0.00022437119 -1.9640028e-05 -5.1266986e-21)
(-0.00021251999 -1.961921e-05 4.5226673e-21)
(-0.00020077588 -1.9598692e-05 -2.8451872e-21)
(-0.00018913657 -1.957861e-05 1.2930837e-21)
(-0.00017759975 -1.9559104e-05 -1.8040517e-21)
(-0.00016616311 -1.954029e-05 -3.3884494e-21)
(-0.00015482433 -1.9522289e-05 7.0428666e-21)
(-0.00014358108 -1.9505193e-05 3.301403e-22)
(-0.00013243106 -1.9489088e-05 -8.3359941e-22)
(-0.00012137195 -1.9474032e-05 -2.2362496e-21)
(-0.00011040145 -1.9460083e-05 -1.9420724e-21)
(-9.951727e-05 -1.9447249e-05 6.587837e-21)
(-8.8717128e-05 -1.9435482e-05 2.5848196e-21)
(-7.7998719e-05 -1.9424664e-05 1.1318792e-22)
(-6.7359651e-05 -1.9414551e-05 -5.822897e-21)
(-5.6797286e-05 -1.9404704e-05 -2.3403476e-21)
(-4.6308388e-05 -1.9394551e-05 6.163229e-21)
(-3.5888173e-05 -1.9384455e-05 1.4061488e-21)
(-2.552781e-05 -1.9379909e-05 -8.3349088e-22)
(-1.5216617e-05 -1.9402848e-05 -4.0052013e-22)
(-5.0233551e-06 -1.9497804e-05 2.5297517e-21)
(-3.7596507e-05 0.00030438058 -2.1656389e-19)
(-8.4604987e-05 0.00030488389 -4.3604401e-20)
(-0.00013839249 0.00030472989 1.6939473e-20)
(-0.00019054841 0.00030427185 -4.755555e-20)
(-0.00024386622 0.00030338601 2.9610026e-20)
(-0.00029682174 0.00030210353 -1.5732852e-20)
(-0.0003493681 0.00030047458 -7.8360467e-21)
(-0.00040145326 0.00029852564 -4.7841919e-21)
(-0.00045299705 0.00029627539 9.6009389e-21)
(-0.00050391702 0.00029373836 3.4109531e-20)
(-0.00055413587 0.00029092673 2.3691565e-20)
(-0.00060358037 0.00028785153 3.1285222e-20)
(-0.00065218038 0.00028452331 -2.6531159e-20)
(-0.00069986928 0.00028095247 3.4915472e-21)
(-0.0007465842 0.00027714954 2.9432924e-20)
(-0.00079226582 0.00027312521 -2.3021163e-20)
(-0.00083685834 0.00026889048 2.4900392e-20)
(-0.00088030946 0.00026445659 8.0421713e-21)
(-0.00092257048 0.00025983507 -1.6770433e-20)
(-0.00096359621 0.00025503772 1.6278282e-20)
(-0.0010033451 0.00025007652 5.0741764e-21)
(-0.0010417793 0.00024496364 3.1279721e-21)
(-0.0010788645 0.00023971138 3.1842959e-20)
(-0.0011145702 0.00023433214 1.4902451e-20)
(-0.0011488694 0.00022883836 -2.3121692e-20)
(-0.0011817389 0.00022324246 -3.1920806e-20)
(-0.0012131591 0.00021755686 -2.8459671e-20)
(-0.0012431139 0.00021179389 2.967583e-21)
(-0.0012715908 0.00020596575 2.8634573e-22)
(-0.0012985807 0.00020008454 -1.3021323e-20)
(-0.0013240777 0.00019416216 -1.3784617e-20)
(-0.0013480793 0.0001882102 4.1986003e-21)
(-0.0013705857 0.00018223965 3.116277e-20)
(-0.001391601 0.00017626033 -2.5074964e-20)
(-0.0014111329 0.00017028258 -6.0710875e-20)
(-0.0014291915 0.00016431725 1.5029429e-20)
(-0.0014457893 0.00015837469 6.0429465e-20)
(-0.001460941 0.0001524645 1.1699099e-20)
(-0.0014746642 0.00014659563 -2.7155702e-21)
(-0.0014869786 0.0001407765 -7.3737745e-21)
(-0.001497906 0.00013501504 -5.1053104e-21)
(-0.0015074705 0.00012931872 1.6630239e-20)
(-0.001515698 0.00012369455 1.6864661e-20)
(-0.001522616 0.00011814904 -2.6774263e-20)
(-0.0015282537 0.00011268824 1.1521949e-20)
(-0.0015326416 0.00010731771 -1.1492919e-20)
(-0.0015358116 0.00010204257 -3.3763e-20)
(-0.0015377966 9.6867432e-05 6.0221477e-21)
(-0.0015386306 9.1796497e-05 -3.2508516e-20)
(-0.0015383483 8.6833486e-05 2.1769386e-20)
(-0.0015369852 8.1981721e-05 2.8709269e-20)
(-0.0015345774 7.7244126e-05 -1.8191849e-20)
(-0.0015311614 7.262324e-05 2.0229273e-20)
(-0.001526774 6.8121243e-05 -3.3506059e-21)
(-0.0015214523 6.3739904e-05 -3.1471317e-21)
(-0.0015152334 5.9480521e-05 5.3683172e-21)
(-0.0015081544 5.5343969e-05 -7.4136851e-21)
(-0.0015002523 5.1330787e-05 1.8941263e-20)
(-0.0014915639 4.7441183e-05 -3.0774585e-21)
(-0.0014821259 4.3675076e-05 -4.7185648e-20)
(-0.0014719745 4.0032096e-05 -5.1095483e-21)
(-0.0014611454 3.651161e-05 3.5009098e-20)
(-0.001449674 3.311274e-05 1.1589545e-20)
(-0.001437595 2.9834374e-05 -1.0693539e-20)
(-0.0014249425 2.6675198e-05 1.6753649e-21)
(-0.00141175 2.36337e-05 -5.8258099e-21)
(-0.0013980502 2.0708204e-05 -2.2169949e-20)
(-0.0013838751 1.7896876e-05 1.2178756e-20)
(-0.0013692559 1.5197754e-05 2.9179764e-21)
(-0.0013542228 1.2608763e-05 5.8751612e-21)
(-0.0013388055 1.0127735e-05 -1.9210637e-22)
(-0.0013230326 7.7524186e-06 -4.4587675e-21)
(-0.0013069318 5.4803225e-06 -1.2145234e-20)
(-0.0012905298 3.3084325e-06 -1.5447354e-20)
(-0.001273852 1.2351394e-06 1.4748948e-20)
(-0.0012569227 -7.3683287e-07 -3.3657311e-21)
(-0.0012397696 -2.6109942e-06 -8.6726453e-21)
(-0.0012224171 -4.3962702e-06 -2.5453911e-20)
(-0.0012048844 -6.0955285e-06 -2.3594454e-20)
(-0.0011871926 -7.7110044e-06 1.3317071e-20)
(-0.0011693622 -9.245332e-06 5.4564787e-21)
(-0.0011514131 -1.0701196e-05 -2.0047387e-20)
(-0.001133364 -1.208127e-05 1.7404732e-21)
(-0.0011152327 -1.3388209e-05 -4.9078103e-22)
(-0.0010970363 -1.4624636e-05 1.3554267e-21)
(-0.0010787909 -1.5793151e-05 1.101569e-20)
(-0.0010605119 -1.6896312e-05 -2.0009743e-20)
(-0.0010422139 -1.7936638e-05 -4.5684783e-21)
(-0.0010239105 -1.8916596e-05 -4.1364778e-21)
(-0.0010056149 -1.9838627e-05 1.0910505e-21)
(-0.00098733913 -2.0705119e-05 4.7905658e-21)
(-0.00096909489 -2.1518405e-05 -9.7443741e-21)
(-0.00095089297 -2.228077e-05 1.8333057e-20)
(-0.00093274351 -2.2994453e-05 3.2300791e-23)
(-0.00091465601 -2.3661632e-05 2.4653199e-21)
(-0.00089663936 -2.4284434e-05 1.5300356e-20)
(-0.00087870179 -2.4864914e-05 -1.7366629e-20)
(-0.00086085099 -2.5405075e-05 -3.2924786e-21)
(-0.00084309405 -2.5906874e-05 -2.7785491e-21)
(-0.00082543753 -2.63722e-05 -5.8613977e-22)
(-0.00080788746 -2.6802875e-05 1.2663099e-20)
(-0.00079044938 -2.7200669e-05 -6.287154e-21)
(-0.00077312833 -2.7567295e-05 5.7927708e-21)
(-0.00075592891 -2.7904417e-05 -7.4851939e-21)
(-0.00073885527 -2.8213604e-05 3.4217102e-21)
(-0.00072191114 -2.8496406e-05 1.6355454e-20)
(-0.00070509985 -2.8754308e-05 -1.0529213e-20)
(-0.00068842434 -2.8988718e-05 -2.2828251e-21)
(-0.0006718872 -2.9201025e-05 -1.3497741e-20)
(-0.00065549068 -2.9392537e-05 -1.5973818e-20)
(-0.00063923668 -2.9564519e-05 3.1160666e-21)
(-0.0006231268 -2.971818e-05 9.70582e-21)
(-0.00060716234 -2.9854686e-05 1.1151217e-20)
(-0.00059134434 -2.9975146e-05 -2.5580705e-21)
(-0.00057567353 -3.0080633e-05 -1.0825177e-20)
(-0.00056015044 -3.0172176e-05 -1.5910055e-22)
(-0.00054477533 -3.0250734e-05 -5.0417919e-21)
(-0.00052954827 -3.0317251e-05 6.6906194e-21)
(-0.00051446908 -3.0372612e-05 4.8842541e-21)
(-0.00049953742 -3.041767e-05 1.504071e-21)
(-0.00048475275 -3.0453233e-05 2.8703218e-21)
(-0.00047011436 -3.048007e-05 -6.7942617e-21)
(-0.00045562139 -3.0498924e-05 -1.6452109e-21)
(-0.0004412728 -3.0510479e-05 2.4110969e-21)
(-0.00042706744 -3.0515424e-05 7.877031e-21)
(-0.00041300401 -3.0514368e-05 8.828841e-21)
(-0.00039908111 -3.0507923e-05 1.5484816e-22)
(-0.00038529719 -3.0496655e-05 1.8543697e-21)
(-0.00037165064 -3.0481103e-05 -9.271572e-21)
(-0.00035813973 -3.046178e-05 -8.7088586e-22)
(-0.00034476265 -3.0439169e-05 9.6668887e-21)
(-0.0003315175 -3.0413725e-05 3.157599e-21)
(-0.00031840232 -3.0385879e-05 5.1361585e-21)
(-0.00030541509 -3.0356044e-05 -5.0400501e-21)
(-0.0002925537 -3.0324591e-05 -7.7134355e-21)
(-0.00027981602 -3.0291891e-05 -5.8398717e-21)
(-0.00026719985 -3.0258275e-05 3.2512879e-21)
(-0.00025470296 -3.0224068e-05 1.2355874e-21)
(-0.00024232308 -3.0189574e-05 -4.3703933e-21)
(-0.0002300579 -3.0155054e-05 -4.1921509e-22)
(-0.00021790511 -3.0120779e-05 3.4403236e-21)
(-0.00020586235 -3.0086987e-05 -3.22521e-22)
(-0.00019392725 -3.0053896e-05 4.1924218e-21)
(-0.00018209743 -3.0021723e-05 4.2055294e-22)
(-0.0001703705 -2.9990648e-05 -2.8589814e-21)
(-0.00015874407 -2.9960845e-05 2.0914765e-21)
(-0.00014721574 -2.9932468e-05 -4.3966687e-21)
(-0.00013578311 -2.9905651e-05 1.251948e-21)
(-0.0001244438 -2.9880502e-05 5.1797778e-21)
(-0.00011319542 -2.9857119e-05 3.9959765e-21)
(-0.00010203557 -2.9835556e-05 3.1508327e-21)
(-9.096188e-05 -2.9815832e-05 5.2802348e-22)
(-7.9971904e-05 -2.9797923e-05 2.0948924e-21)
(-6.9063134e-05 -2.9781757e-05 -6.2774323e-21)
(-5.8232885e-05 -2.9767224e-05 -1.3772211e-21)
(-4.747822e-05 -2.9754318e-05 4.6051019e-21)
(-3.679568e-05 -2.9743821e-05 3.0166017e-22)
(-2.6178777e-05 -2.9739137e-05 2.408722e-21)
(-1.561869e-05 -2.9750588e-05 2.2056805e-21)
(-5.1619995e-06 -2.9791345e-05 4.2168117e-21)
(-3.7865496e-05 0.0004139354 -2.8903267e-19)