/*--------------------------------*- C++ -*----------------------------------*\
| =========                 |                                                 |
| \\      /  F ield         | OpenFOAM: The Open Source CFD Toolbox           |
|  \\    /   O peration     | Version:  2106                                  |
|   \\  /    A nd           | Website:  www.openfoam.com                      |
|    \\/     M anipulation  |                                                 |
\*---------------------------------------------------------------------------*/
FoamFile
{
    version     2.0;
    format      ascii;
    arch        "LSB;label=32;scalar=64";
    class       surfaceScalarField;
    location    "0.05";
    object      phi;
}
// * * * * * * * * * * * * * * * * * * * * * * * * * * * * * * * * * * * * * //

dimensions      [0 3 -1 0 0 0 0];

oriented        oriented;

internalField   nonuniform List<scalar> 
32512
(
-9.8833946e-06
9.8833945e-06
-1.9743263e-05
9.8598685e-06
-2.9556134e-05
9.8128706e-06
-3.9298642e-05
9.7425084e-06
-4.8947585e-05
9.6489432e-06
-5.8479975e-05
9.5323897e-06
-6.787309e-05
9.3931153e-06
-7.710453e-05
9.23144e-06
-8.6152266e-05
9.0477354e-06
-9.499469e-05
8.8424242e-06
-0.00010361067
8.6159794e-06
-0.00011197959
8.3689232e-06
-0.00012008142
8.1018262e-06
-0.00012789672
7.8153059e-06
-0.00013540675
7.5100261e-06
-0.00014259345
7.1866948e-06
-0.00014943951
6.8460634e-06
-0.00015592843
6.4889248e-06
-0.00016204455
6.1161118e-06
-0.00016777304
5.7284954e-06
-0.00017310002
5.3269831e-06
-0.00017801254
4.9125166e-06
-0.00018249861
4.4860702e-06
-0.00018654726
4.0486483e-06
-0.00019014854
3.6012834e-06
-0.00019329358
3.145034e-06
-0.00019597456
2.6809816e-06
-0.00019818479
2.2102288e-06
-0.00019991868
1.7338969e-06
-0.00020117181
1.2531224e-06
-0.00020194086
7.6905298e-07
-0.00020222372
2.8285607e-07
-0.00020201941
-2.043043e-07
-0.00020132816
-6.9125566e-07
-0.00020015133
-1.1768217e-06
-0.00019849151
-1.6598274e-06
-0.0001963524
-2.1391015e-06
-0.00019373893
-2.6134792e-06
-0.00019065712
-3.0818052e-06
-0.00018711418
-3.5429361e-06
-0.00018311844
-3.995744e-06
-0.00017867932
-4.4391188e-06
-0.00017380735
-4.8719713e-06
-0.00016851411
-5.2932359e-06
-0.00016281224
-5.7018735e-06
-0.00015671537
-6.096874e-06
-0.00015023811
-6.4772593e-06
-0.00014339602
-6.8420857e-06
-0.00013620558
-7.1904465e-06
-0.0001286841
-7.5214742e-06
-0.00012084976
-7.8343434e-06
-0.00011272148
-8.1282725e-06
-0.00010431896
-8.4025262e-06
-9.5662541e-05
-8.6564175e-06
-8.6773232e-05
-8.8893095e-06
-7.7672614e-05
-9.1006172e-06
-6.8382805e-05
-9.2898094e-06
-5.8926395e-05
-9.4564098e-06
-4.9326396e-05
-9.5999988e-06
-3.9606182e-05
-9.7202142e-06
-2.9789429e-05
-9.8167529e-06
-1.9900058e-05
-9.889371e-06
-9.962173e-06
-9.9378853e-06
1.0100992e-13
-9.9621731e-06
9.9621732e-06
-9.9621731e-06
1.9900059e-05
-9.9378853e-06
2.978943e-05
-9.889371e-06
3.9606182e-05
-9.8167529e-06
4.9326397e-05
-9.7202142e-06
5.8926395e-05
-9.5999988e-06
6.8382805e-05
-9.4564098e-06
7.7672615e-05
-9.2898094e-06
8.6773232e-05
-9.1006172e-06
9.5662541e-05
-8.8893095e-06
0.00010431896
-8.6564175e-06
0.00011272149
-8.4025262e-06
0.00012084976
-8.1282725e-06
0.0001286841
-7.8343434e-06
0.00013620558
-7.5214742e-06
0.00014339602
-7.1904465e-06
0.00015023811
-6.8420857e-06
0.00015671537
-6.4772593e-06
0.00016281224
-6.096874e-06
0.00016851411
-5.7018735e-06
0.00017380735
-5.2932359e-06
0.00017867932
-4.8719713e-06
0.00018311844
-4.4391188e-06
0.00018711418
-3.995744e-06
0.00019065712
-3.5429361e-06
0.00019373893
-3.0818052e-06
0.0001963524
-2.6134792e-06
0.00019849151
-2.1391015e-06
0.00020015133
-1.6598274e-06
0.00020132816
-1.1768217e-06
0.00020201941
-6.9125565e-07
0.00020222372
-2.0430429e-07
0.00020194086
2.8285608e-07
0.00020117181
7.6905299e-07
0.00019991868
1.2531224e-06
0.00019818479
1.7338969e-06
0.00019597456
2.2102289e-06
0.00019329358
2.6809816e-06
0.00019014854
3.145034e-06
0.00018654726
3.6012834e-06
0.00018249861
4.0486483e-06
0.00017801254
4.4860702e-06
0.00017310002
4.9125166e-06
0.00016777304
5.3269831e-06
0.00016204455
5.7284954e-06
0.00015592843
6.1161118e-06
0.00014943951
6.4889248e-06
0.00014259345
6.8460634e-06
0.00013540675
7.1866948e-06
0.00012789672
7.5100261e-06
0.00012008142
7.8153059e-06
0.00011197959
8.1018262e-06
0.00010361067
8.3689232e-06
9.499469e-05
8.6159794e-06
8.6152266e-05
8.8424242e-06
7.710453e-05
9.0477354e-06
6.787309e-05
9.23144e-06
5.8479975e-05
9.3931153e-06
4.8947585e-05
9.5323897e-06
3.9298642e-05
9.6489432e-06
2.9556134e-05
9.7425084e-06
1.9743263e-05
9.8128706e-06
9.8833944e-06
9.8598685e-06
9.8833945e-06
-9.9120064e-06
1.9795401e-05
-1.9800419e-05
1.9748282e-05
-2.96417e-05
1.9654151e-05
-3.9412417e-05
1.9513225e-05
-4.90893e-05
1.9325827e-05
-5.8649296e-05
1.9092386e-05
-6.8069619e-05
1.8813438e-05
-7.7327803e-05
1.8489624e-05
-8.6401756e-05
1.8121688e-05
-9.5269809e-05
1.7710477e-05
-0.00010391077
1.7256938e-05
-0.00011230396
1.6762117e-05
-0.00012042929
1.6227156e-05
-0.00012826728
1.5653292e-05
-0.00013579911
1.5041855e-05
-0.00014300667
1.4394263e-05
-0.00014987263
1.371202e-05
-0.00015638042
1.2996715e-05
-0.00016251432
1.2250016e-05
-0.0001682595
1.1473666e-05
-0.000173602
1.0669484e-05
-0.00017852884
9.8393553e-06
-0.000183028
8.9852317e-06
-0.00018708847
8.1091246e-06
-0.00019070029
7.2131022e-06
-0.00019385454
6.299284e-06
-0.0001965434
5.3698365e-06
-0.00019876014
4.4269681e-06
-0.00020049916
3.4729241e-06
-0.00020175602
2.5099812e-06
-0.00020252741
1.5404423e-06
-0.00020281119
5.6663509e-07
-0.00020260639
-4.0910177e-07
-0.00020191323
-1.3844195e-06
-0.00020073309
-2.3569634e-06
-0.00019906853
-3.3243801e-06
-0.00019692331
-4.2843238e-06
-0.00019430233
-5.2344613e-06
-0.00019121166
-6.1724786e-06
-0.00018765851
-7.0960859e-06
-0.00018365123
-8.0030237e-06
-0.00017919928
-8.8910687e-06
-0.00017431321
-9.7580391e-06
-0.00016900464
-1.0601801e-05
-0.00016328625
-1.1420272e-05
-0.00015717169
-1.221143e-05
-0.00015067563
-1.2973316e-05
-0.00014381368
-1.3704039e-05
-0.00013660234
-1.4401783e-05
-0.00012905901
-1.5064811e-05
-0.00012120188
-1.5691469e-05
-0.00011304996
-1.6280191e-05
-0.00010462298
-1.6829505e-05
-9.5941366e-05
-1.7338035e-05
-8.7026171e-05
-1.7804505e-05
-7.7899044e-05
-1.8227743e-05
-6.8582168e-05
-1.8606686e-05
-5.90982e-05
-1.8940378e-05
-4.947022e-05
-1.9227979e-05
-3.9721669e-05
-1.9468765e-05
-2.9876295e-05
-1.9662127e-05
-1.9958088e-05
-1.9807578e-05
-9.9912238e-06
-1.990475e-05
1.009451e-13
-1.9953397e-05
9.991224e-06
-1.9953397e-05
1.9958088e-05
-1.990475e-05
2.9876295e-05
-1.9807578e-05
3.9721669e-05
-1.9662127e-05
4.947022e-05
-1.9468765e-05
5.90982e-05
-1.9227979e-05
6.8582168e-05
-1.8940378e-05
7.7899044e-05
-1.8606686e-05
8.7026171e-05
-1.8227743e-05
9.5941367e-05
-1.7804505e-05
0.00010462298
-1.7338035e-05
0.00011304996
-1.6829505e-05
0.00012120188
-1.6280191e-05
0.00012905901
-1.5691469e-05
0.00013660234
-1.5064811e-05
0.00014381368
-1.4401783e-05
0.00015067563
-1.3704039e-05
0.00015717169
-1.2973316e-05
0.00016328625
-1.221143e-05
0.00016900464
-1.1420272e-05
0.00017431321
-1.0601801e-05
0.00017919928
-9.7580391e-06
0.00018365123
-8.8910686e-06
0.00018765851
-8.0030237e-06
0.00019121166
-7.0960859e-06
0.00019430233
-6.1724786e-06
0.00019692331
-5.2344613e-06
0.00019906853
-4.2843237e-06
0.00020073309
-3.3243801e-06
0.00020191323
-2.3569634e-06
0.00020260639
-1.3844195e-06
0.00020281119
-4.0910175e-07
0.00020252741
5.6663511e-07
0.00020175602
1.5404423e-06
0.00020049916
2.5099812e-06
0.00019876014
3.4729241e-06
0.0001965434
4.4269681e-06
0.00019385454
5.3698365e-06
0.00019070029
6.299284e-06
0.00018708847
7.2131022e-06
0.000183028
8.1091246e-06
0.00017852883
8.9852317e-06
0.000173602
9.8393554e-06
0.0001682595
1.0669484e-05
0.00016251432
1.1473666e-05
0.00015638042
1.2250016e-05
0.00014987263
1.2996715e-05
0.00014300667
1.371202e-05
0.00013579911
1.4394263e-05
0.00012826728
1.5041855e-05
0.00012042929
1.5653292e-05
0.00011230396
1.6227156e-05
0.00010391077
1.6762117e-05
9.5269809e-05
1.7256938e-05
8.6401756e-05
1.7710477e-05
7.7327803e-05
1.8121688e-05
6.8069619e-05
1.8489624e-05
5.8649296e-05
1.8813438e-05
4.90893e-05
1.9092386e-05
3.9412416e-05
1.9325827e-05
2.96417e-05
1.9513225e-05
1.9800419e-05
1.9654151e-05
9.9120062e-06
1.9748282e-05
1.9795401e-05
-9.9575213e-06
2.9752922e-05
-1.9891341e-05
2.9682102e-05
-2.9777813e-05
2.9540623e-05
-3.9593399e-05
2.9328811e-05
-4.9314723e-05
2.904715e-05
-5.8918624e-05
2.8696287e-05
-6.8382214e-05
2.8277027e-05
-7.7682923e-05
2.7790333e-05
-8.6798558e-05
2.7237323e-05
-9.5707351e-05
2.661927e-05
-0.00010438801
2.5937597e-05
-0.00011281977
2.5193877e-05
-0.00012098244
2.4389826e-05
-0.00012885645
2.3527304e-05
-0.0001364229
2.2608308e-05
-0.00014366361
2.1634969e-05
-0.00015056114
2.0609551e-05
-0.00015709886
1.9534438e-05
-0.00016326099
1.8412138e-05
-0.00016903259
1.7245274e-05
-0.00017439969
1.6036575e-05
-0.00017934921
1.4788879e-05
-0.00018386909
1.3505116e-05
-0.00018794828
1.2188311e-05
-0.00019157675
1.0841572e-05
-0.00019474555
9.4680854e-06
-0.00019744682
8.0711063e-06
-0.00019967381
6.6539545e-06
-0.00020142089
5.2200046e-06
-0.00020268359
3.7726789e-06
-0.00020345858
2.3154395e-06
-0.00020374373
8.5178178e-07
-0.00020353805
-6.1477758e-07
-0.00020284177
-2.0807072e-06
-0.00020165626
-3.5424684e-06
-0.00019998412
-4.9965243e-06
-0.00019782909
-6.4393489e-06
-0.00019519612
-7.8674358e-06
-0.00019209129
-9.2773066e-06
-0.00018852186
-1.066552e-05
-0.0001844962
-1.2028679e-05
-0.00018002383
-1.3363443e-05
-0.00017511533
-1.4666532e-05
-0.00016978239
-1.5934739e-05
-0.00016403773
-1.7164934e-05
-0.00015789508
-1.8354078e-05
-0.00015136918
-1.9499225e-05
-0.00014447568
-2.0597534e-05
-0.00013723119
-2.1646275e-05
-0.00012965316
-2.2642836e-05
-0.0001217599
-2.3584733e-05
-0.00011357048
-2.4469612e-05
-0.00010510472
-2.529526e-05
-9.6383153e-05
-2.6059606e-05
-8.7426923e-05
-2.6760735e-05
-7.8257782e-05
-2.7396885e-05
-6.8898012e-05
-2.7966456e-05
-5.9370376e-05
-2.8468013e-05
-4.9698061e-05
-2.8900295e-05
-3.9904616e-05
-2.9262209e-05
-3.0013899e-05
-2.9552844e-05
-2.0050012e-05
-2.9771465e-05
-1.0037242e-05
-2.991752e-05
1.0072804e-13
-2.999064e-05
1.0037243e-05
-2.9990639e-05
2.0050013e-05
-2.991752e-05
3.00139e-05
-2.9771465e-05
3.9904616e-05
-2.9552844e-05
4.9698061e-05
-2.9262209e-05
5.9370376e-05
-2.8900295e-05
6.8898012e-05
-2.8468013e-05
7.8257782e-05
-2.7966456e-05
8.7426924e-05
-2.7396885e-05
9.6383153e-05
-2.6760735e-05
0.00010510472
-2.6059606e-05
0.00011357048
-2.5295259e-05
0.0001217599
-2.4469612e-05
0.00012965316
-2.3584733e-05
0.00013723119
-2.2642836e-05
0.00014447568
-2.1646275e-05
0.00015136918
-2.0597534e-05
0.00015789509
-1.9499225e-05
0.00016403773
-1.8354078e-05
0.00016978239
-1.7164934e-05
0.00017511533
-1.5934739e-05
0.00018002383
-1.4666532e-05
0.0001844962
-1.3363443e-05
0.00018852186
-1.2028679e-05
0.00019209129
-1.066552e-05
0.00019519612
-9.2773066e-06
0.00019782909
-7.8674358e-06
0.00019998412
-6.4393489e-06
0.00020165626
-4.9965242e-06
0.00020284177
-3.5424683e-06
0.00020353805
-2.0807072e-06
0.00020374373
-6.1477755e-07
0.00020345858
8.5178181e-07
0.00020268359
2.3154396e-06
0.00020142089
3.7726789e-06
0.00019967381
5.2200046e-06
0.00019744682
6.6539545e-06
0.00019474555
8.0711064e-06
0.00019157675
9.4680854e-06
0.00018794828
1.0841572e-05
0.00018386909
1.2188311e-05
0.00017934921
1.3505116e-05
0.00017439969
1.4788879e-05
0.00016903259
1.6036575e-05
0.00016326099
1.7245274e-05
0.00015709886
1.8412138e-05
0.00015056114
1.9534438e-05
0.00014366361
2.0609551e-05
0.0001364229
2.1634969e-05
0.00012885645
2.2608308e-05
0.00012098244
2.3527304e-05
0.00011281977
2.4389826e-05
0.00010438801
2.5193877e-05
9.5707351e-05
2.5937597e-05
8.6798558e-05
2.661927e-05
7.7682922e-05
2.7237323e-05
6.8382213e-05
2.7790333e-05
5.8918624e-05
2.8277027e-05
4.9314722e-05
2.8696287e-05
3.9593399e-05
2.904715e-05
2.9777813e-05
2.9328811e-05
1.9891341e-05
2.9540623e-05
9.9575211e-06
2.9682102e-05
2.9752922e-05
-1.0020051e-05
3.9772973e-05
-2.0016252e-05
3.9678303e-05
-2.9964809e-05
3.948918e-05
-3.9842034e-05
3.9206036e-05
-4.9624406e-05
3.8829522e-05
-5.928862e-05
3.8360501e-05
-6.8811641e-05
3.7800049e-05
-7.8170761e-05
3.7149453e-05
-8.7343646e-05
3.6410208e-05
-9.6308391e-05
3.5584015e-05
-0.00010504357
3.4672778e-05
-0.00011352829
3.3678597e-05
-0.00012174223
3.2603767e-05
-0.0001296657
3.1450775e-05
-0.00013727969
3.022229e-05
-0.00014456588
2.8921161e-05
-0.00015150674
2.7550413e-05
-0.00015808554
2.6113234e-05
-0.00016428637
2.4612977e-05
-0.00017009425
2.3053146e-05
-0.00017549506
2.1437392e-05
-0.00018047569
1.9769506e-05
-0.00018502398
1.8053407e-05
-0.00018912881
1.6293137e-05
-0.00019278009
1.4492852e-05
-0.00019596881
1.265681e-05
-0.00019868707
1.0789364e-05
-0.00020092807
8.8949509e-06
-0.00020268614
6.9780817e-06
-0.0002039568
5.0433317e-06
-0.00020473668
3.0953292e-06
-0.00020502365
1.138745e-06
-0.00020481671
-8.2171898e-07
-0.00020411607
-2.7813417e-06
-0.00020292315
-4.7353926e-06
-0.00020124053
-6.679144e-06
-0.00019907199
-8.6078827e-06
-0.00019642251
-1.0516921e-05
-0.00019329821
-1.240161e-05
-0.00018970638
-1.4257348e-05
-0.00018565546
-1.6079596e-05
-0.00018115502
-1.7863886e-05
-0.00017621572
-1.9605835e-05
-0.0001708493
-2.1301155e-05
-0.00016506857
-2.2945663e-05
-0.00015888735
-2.4535295e-05
-0.00015232046
-2.6066114e-05
-0.00014538367
-2.7534322e-05
-0.00013809368
-2.8936269e-05
-0.00013046805
-3.0268464e-05
-0.0001225252
-3.1527585e-05
-0.00011428433
-3.2710486e-05
-0.00010576538
-3.3814207e-05
-9.6989005e-05
-3.4835982e-05
-8.7976491e-05
-3.5773249e-05
-7.8749723e-05
-3.6623652e-05
-6.9331125e-05
-3.7385054e-05
-5.9743603e-05
-3.8055536e-05
-5.0010488e-05
-3.8633409e-05
-4.0155481e-05
-3.9117217e-05
-3.0202587e-05
-3.9505738e-05
-2.0176061e-05
-3.979799e-05
-1.0100344e-05
-3.9993237e-05
1.0034089e-13
-4.0090984e-05
1.0100344e-05
-4.0090984e-05
2.0176061e-05
-3.9993237e-05
3.0202587e-05
-3.979799e-05
4.0155481e-05
-3.9505738e-05
5.0010489e-05
-3.9117217e-05
5.9743603e-05
-3.8633409e-05
6.9331126e-05
-3.8055536e-05
7.8749724e-05
-3.7385054e-05
8.7976491e-05
-3.6623652e-05
9.6989005e-05
-3.5773249e-05
0.00010576538
-3.4835982e-05
0.00011428433
-3.3814207e-05
0.0001225252
-3.2710486e-05
0.00013046805
-3.1527585e-05
0.00013809368
-3.0268464e-05
0.00014538367
-2.8936269e-05
0.00015232046
-2.7534322e-05
0.00015888735
-2.6066114e-05
0.00016506857
-2.4535295e-05
0.0001708493
-2.2945663e-05
0.00017621572
-2.1301155e-05
0.00018115502
-1.9605835e-05
0.00018565546
-1.7863886e-05
0.00018970638
-1.6079596e-05
0.00019329821
-1.4257348e-05
0.00019642251
-1.240161e-05
0.00019907199
-1.0516921e-05
0.00020124053
-8.6078827e-06
0.00020292315
-6.679144e-06
0.00020411607
-4.7353925e-06
0.00020481671
-2.7813416e-06
0.00020502365
-8.2171894e-07
0.00020473668
1.1387451e-06
0.0002039568
3.0953292e-06
0.00020268614
5.0433318e-06
0.00020092807
6.9780818e-06
0.00019868707
8.8949509e-06
0.00019596881
1.0789364e-05
0.00019278009
1.265681e-05
0.00018912881
1.4492852e-05
0.00018502398
1.6293137e-05
0.00018047569
1.8053407e-05
0.00017549506
1.9769506e-05
0.00017009425
2.1437392e-05
0.00016428637
2.3053146e-05
0.00015808554
2.4612977e-05
0.00015150674
2.6113234e-05
0.00014456588
2.7550413e-05
0.00013727969
2.8921161e-05
0.0001296657
3.022229e-05
0.00012174223
3.1450775e-05
0.00011352829
3.2603767e-05
0.00010504357
3.3678597e-05
9.6308391e-05
3.4672778e-05
8.7343645e-05
3.5584015e-05
7.8170761e-05
3.6410208e-05
6.8811641e-05
3.7149453e-05
5.928862e-05
3.7800049e-05
4.9624406e-05
3.8360501e-05
3.9842034e-05
3.8829522e-05
2.9964809e-05
3.9206036e-05
2.0016252e-05
3.948918e-05
1.0020051e-05
3.9678303e-05
3.9772973e-05
-1.0099781e-05
4.9872754e-05
-2.0175523e-05
4.9754044e-05
-3.020324e-05
4.9516897e-05
-4.0159059e-05
4.9161855e-05
-5.0019269e-05
4.8689733e-05
-5.9760381e-05
4.8101613e-05
-6.9359176e-05
4.7398844e-05
-7.8792765e-05
4.6583042e-05
-8.8038636e-05
4.5656079e-05
-9.7074712e-05
4.4620091e-05
-0.00010587939
4.3477461e-05
-0.00011443162
4.2230825e-05
-0.00012271092
4.0883062e-05
-0.00013069743
3.9437287e-05
-0.00013837199
3.7896849e-05
-0.00014571615
3.6265321e-05
-0.00015271223
3.4546494e-05
-0.00015934336
3.2744367e-05
-0.00016559353
3.0863143e-05
-0.0001714476
2.8907218e-05
-0.00017689138
2.6881169e-05
-0.00018191162
2.4789748e-05
-0.00018649609
2.2637872e-05
-0.00019063356
2.0430609e-05
-0.00019431387
1.8173168e-05
-0.00019752795
1.587089e-05
-0.00020026782
1.3529234e-05
-0.00020252663
1.1153762e-05
-0.00020429868
8.7501316e-06
-0.00020557943
6.32408e-06
-0.00020636551
3.8814103e-06
-0.00020665475
1.4279795e-06
-0.00020644615
-1.0303171e-06
-0.00020573993
-3.4875588e-06
-0.00020453751
-5.9378141e-06
-0.0002028415
-8.3751549e-06
-0.00020065571
-1.0793671e-05
-0.00019798515
-1.3187485e-05
-0.00019483599
-1.5550767e-05
-0.00019121559
-1.7877747e-05
-0.00018713245
-2.0162733e-05
-0.00018259622
-2.2400125e-05
-0.00017761763
-2.4584424e-05
-0.00017220853
-2.6710253e-05
-0.00016638182
-2.877237e-05
-0.00016015144
-3.0765676e-05
-0.00015353232
-3.2685235e-05
-0.00014654036
-3.4526285e-05
-0.00013919238
-3.6284248e-05
-0.0001315061
-3.7954748e-05
-0.00012350006
-3.9533618e-05
-0.00011519363
-4.1016914e-05
-0.00010660692
-4.2400923e-05
-9.7760722e-05
-4.3682178e-05
-8.8676507e-05
-4.4857464e-05
-7.9376331e-05
-4.5923828e-05
-6.9882796e-05
-4.6878589e-05
-6.0218991e-05
-4.7719342e-05
-5.0408432e-05
-4.8443968e-05
-4.0475008e-05
-4.9050641e-05
-3.0442918e-05
-4.9537828e-05
-2.0336609e-05
-4.99043e-05
-1.0180716e-05
-5.014913e-05
9.976362e-14
-5.02717e-05
1.0180716e-05
-5.02717e-05
2.0336609e-05
-5.014913e-05
3.0442918e-05
-4.99043e-05
4.0475009e-05
-4.9537828e-05
5.0408432e-05
-4.9050641e-05
6.0218991e-05
-4.8443968e-05
6.9882797e-05
-4.7719342e-05
7.9376332e-05
-4.6878589e-05
8.8676507e-05
-4.5923828e-05
9.7760722e-05
-4.4857464e-05
0.00010660692
-4.3682178e-05
0.00011519363
-4.2400923e-05
0.00012350006
-4.1016914e-05
0.0001315061
-3.9533618e-05
0.00013919238
-3.7954748e-05
0.00014654036
-3.6284248e-05
0.00015353232
-3.4526284e-05
0.00016015144
-3.2685235e-05
0.00016638182
-3.0765676e-05
0.00017220853
-2.877237e-05
0.00017761763
-2.6710253e-05
0.00018259622
-2.4584424e-05
0.00018713245
-2.2400124e-05
0.00019121559
-2.0162733e-05
0.00019483599
-1.7877747e-05
0.00019798515
-1.5550767e-05
0.00020065571
-1.3187485e-05
0.0002028415
-1.0793671e-05
0.00020453751
-8.3751549e-06
0.00020573993
-5.937814e-06
0.00020644615
-3.4875587e-06
0.00020665475
-1.030317e-06
0.00020636551
1.4279795e-06
0.00020557943
3.8814104e-06
0.00020429868
6.32408e-06
0.00020252663
8.7501317e-06
0.00020026782
1.1153762e-05
0.00019752795
1.3529234e-05
0.00019431387
1.587089e-05
0.00019063356
1.8173168e-05
0.00018649609
2.0430609e-05
0.00018191162
2.2637872e-05
0.00017689138
2.4789748e-05
0.0001714476
2.6881169e-05
0.00016559353
2.8907218e-05
0.00015934336
3.0863143e-05
0.00015271223
3.2744367e-05
0.00014571615
3.4546494e-05
0.00013837199
3.6265321e-05
0.00013069743
3.7896849e-05
0.00012271092
3.9437287e-05
0.00011443162
4.0883062e-05
0.00010587939
4.2230825e-05
9.7074711e-05
4.3477461e-05
8.8038636e-05
4.4620091e-05
7.8792765e-05
4.565608e-05
6.9359176e-05
4.6583042e-05
5.976038e-05
4.7398844e-05
5.0019269e-05
4.8101613e-05
4.0159059e-05
4.8689733e-05
3.020324e-05
4.9161855e-05
2.0175523e-05
4.9516897e-05
1.0099781e-05
4.9754044e-05
4.9872754e-05
-1.0196973e-05
6.0069727e-05
-2.0369675e-05
5.9926746e-05
-3.0493889e-05
5.9641112e-05
-4.0545513e-05
5.9213478e-05
-5.0500606e-05
5.8644826e-05
-6.0335454e-05
5.793646e-05
-7.0026613e-05
5.7090004e-05
-7.9550975e-05
5.6107403e-05
-8.888581e-05
5.4990915e-05
-9.8008827e-05
5.3743108e-05
-0.00010689822
5.2366857e-05
-0.00011553273
5.0865334e-05
-0.00012389168
4.9242007e-05
-0.00013195502
4.7500629e-05
-0.0001397034
4.5645233e-05
-0.0001471182
4.3680122e-05
-0.00015418157
4.1609862e-05
-0.00016087648
3.9439272e-05
-0.00016718675
3.7173412e-05
-0.00017309711
3.4817577e-05
-0.00017859322
3.2377281e-05
-0.00018366172
2.9858248e-05
-0.00018829024
2.7266399e-05
-0.00019246747
2.4607838e-05
-0.00019618315
2.1888841e-05
-0.0001994281
1.911584e-05
-0.00020219427
1.6295409e-05
-0.00020447476
1.343425e-05
-0.0002062638
1.0539176e-05
-0.00020755682
7.6170963e-06
-0.00020835041
4.6750019e-06
-0.00020864238
1.7199465e-06
-0.00020843173
-1.2409691e-06
-0.00020771867
-4.2006136e-06
-0.00020650464
-7.1518429e-06
-0.00020479228
-1.0087517e-05
-0.00020258543
-1.3000518e-05
-0.00019988915
-1.5883765e-05
-0.00019670968
-1.8730238e-05
-0.00019305444
-2.1532988e-05
-0.00018893202
-2.4285159e-05
-0.00018435214
-2.6980004e-05
-0.00017932566
-2.9610902e-05
-0.00017386453
-3.2171378e-05
-0.00016798179
-3.4655115e-05
-0.00016169149
-3.7055973e-05
-0.00015500872
-3.9368008e-05
-0.00014794952
-4.1585483e-05
-0.00014053088
-4.3702885e-05
-0.00013277069
-4.5714942e-05
-0.00012468767
-4.7616635e-05
-0.00011630137
-4.9403214e-05
-0.00010763209
-5.1070206e-05
-9.870083e-05
-5.2613436e-05
-8.9529262e-05
-5.4029031e-05
-8.0139656e-05
-5.5313434e-05
-7.055483e-05
-5.6463415e-05
-6.0798095e-05
-5.7476077e-05
-5.0893194e-05
-5.8348869e-05
-4.0864245e-05
-5.9079589e-05
-3.073568e-05
-5.9666393e-05
-2.0532182e-05
-6.0107798e-05
-1.0278622e-05
-6.040269e-05
9.8977233e-14
-6.0550322e-05
1.0278622e-05
-6.0550322e-05
2.0532182e-05
-6.040269e-05
3.073568e-05
-6.0107798e-05
4.0864245e-05
-5.9666393e-05
5.0893194e-05
-5.9079589e-05
6.0798095e-05
-5.8348869e-05
7.055483e-05
-5.7476077e-05
8.0139656e-05
-5.6463415e-05
8.9529263e-05
-5.5313434e-05
9.870083e-05
-5.4029031e-05
0.00010763209
-5.2613436e-05
0.00011630137
-5.1070206e-05
0.00012468767
-4.9403214e-05
0.00013277069
-4.7616635e-05
0.00014053088
-4.5714942e-05
0.00014794952
-4.3702885e-05
0.00015500872
-4.1585483e-05
0.00016169149
-3.9368008e-05
0.00016798179
-3.7055973e-05
0.00017386453
-3.4655115e-05
0.00017932566
-3.2171378e-05
0.00018435214
-2.9610902e-05
0.00018893202
-2.6980004e-05
0.00019305444
-2.4285159e-05
0.00019670968
-2.1532988e-05
0.00019988915
-1.8730238e-05
0.00020258544
-1.5883765e-05
0.00020479228
-1.3000518e-05
0.00020650464
-1.0087517e-05
0.00020771867
-7.1518429e-06
0.00020843173
-4.2006135e-06
0.00020864238
-1.240969e-06
0.00020835041
1.7199465e-06
0.00020755682
4.675002e-06
0.0002062638
7.6170963e-06
0.00020447476
1.0539176e-05
0.00020219427
1.343425e-05
0.0001994281
1.6295409e-05
0.00019618315
1.911584e-05
0.00019246747
2.1888841e-05
0.00018829024
2.4607838e-05
0.00018366172
2.7266399e-05
0.00017859322
2.9858248e-05
0.00017309711
3.2377281e-05
0.00016718675
3.4817577e-05
0.00016087648
3.7173412e-05
0.00015418157
3.9439272e-05
0.0001471182
4.1609862e-05
0.0001397034
4.3680122e-05
0.00013195502
4.5645233e-05
0.00012389168
4.7500629e-05
0.00011553273
4.9242007e-05
0.00010689822
5.0865334e-05
9.8008827e-05
5.2366857e-05
8.888581e-05
5.3743108e-05
7.9550975e-05
5.4990915e-05
7.0026613e-05
5.6107403e-05
6.0335453e-05
5.7090004e-05
5.0500606e-05
5.793646e-05
4.0545512e-05
5.8644826e-05
3.0493889e-05
5.9213478e-05
2.0369674e-05
5.9641112e-05
1.0196973e-05
5.9926746e-05
6.0069727e-05
-1.0311967e-05
7.0381694e-05
-2.0599388e-05
7.0214167e-05
-3.0837774e-05
6.9879498e-05
-4.1002748e-05
6.9378453e-05
-5.1070103e-05
6.8712181e-05
-6.1015852e-05
6.7882209e-05
-7.081629e-05
6.6890442e-05
-8.0448045e-05
6.5739158e-05
-8.9888132e-05
6.4431002e-05
-9.9114008e-05
6.2968984e-05
-0.00010810362
6.1356472e-05
-0.00011683547
5.9597182e-05
-0.00012528864
5.7695178e-05
-0.00013344287
5.5654858e-05
-0.00014127859
5.3480946e-05
-0.00014877695
5.1178484e-05
-0.00015591991
4.8752823e-05
-0.00016269024
4.6209608e-05
-0.0001690716
4.3554769e-05
-0.00017504853
4.0794508e-05
-0.00018060654
3.7935289e-05
-0.00018573211
3.4983816e-05
-0.00019041274
3.1947028e-05
-0.00019463697
2.8832077e-05
-0.00019839445
2.5646316e-05
-0.00020167589
2.2397281e-05
-0.00020447316
1.9092676e-05
-0.00020677926
1.5740353e-05
-0.00020858838
1.2348294e-05
-0.00020989588
8.9245953e-06
-0.00021069832
5.4774479e-06
-0.00021099349
2.0151159e-06
-0.00021078038
-1.4540806e-06
-0.00021005921
-4.9217864e-06
-0.00020883142
-8.379631e-06
-0.00020709969
-1.1819249e-05
-0.00020486791
-1.52323e-05
-0.00020214118
-1.861049e-05
-0.00019892583
-2.1945592e-05
-0.00019522935
-2.5229465e-05
-0.00019106043
-2.8454077e-05
-0.00018642891
-3.1611522e-05
-0.00018134577
-3.4694044e-05
-0.00017582309
-3.7694056e-05
-0.00016987405
-4.0604156e-05
-0.00016351287
-4.3417153e-05
-0.0001567548
-4.6126079e-05
-0.00014961607
-4.8724214e-05
-0.00014211386
-5.1205099e-05
-0.00013426624
-5.3562557e-05
-0.00012609217
-5.5790707e-05
-0.0001176114
-5.7883982e-05
-0.00010884447
-5.9837144e-05
-9.9812604e-05
-6.1645298e-05
-9.0537727e-05
-6.3303908e-05
-8.1042356e-05
-6.4808805e-05
-7.1349567e-05
-6.6156204e-05
-6.1482932e-05
-6.7342713e-05
-5.1466461e-05
-6.8365339e-05
-4.1324546e-05
-6.9221504e-05
-3.1081892e-05
-6.9909047e-05
-2.076346e-05
-7.042623e-05
-1.0394402e-05
-7.0771747e-05
9.7973666e-14
-7.0944724e-05
1.0394402e-05
-7.0944724e-05
2.076346e-05
-7.0771747e-05
3.1081892e-05
-7.042623e-05
4.1324546e-05
-6.9909047e-05
5.1466462e-05
-6.9221504e-05
6.1482932e-05
-6.8365339e-05
7.1349567e-05
-6.7342713e-05
8.1042357e-05
-6.6156204e-05
9.0537727e-05
-6.4808805e-05
9.9812604e-05
-6.3303908e-05
0.00010884447
-6.1645298e-05
0.0001176114
-5.9837144e-05
0.00012609217
-5.7883981e-05
0.00013426624
-5.5790707e-05
0.00014211386
-5.3562557e-05
0.00014961607
-5.1205099e-05
0.0001567548
-4.8724214e-05
0.00016351287
-4.6126079e-05
0.00016987405
-4.3417153e-05
0.00017582309
-4.0604156e-05
0.00018134577
-3.7694056e-05
0.00018642891
-3.4694044e-05
0.00019106043
-3.1611522e-05
0.00019522935
-2.8454077e-05
0.00019892583
-2.5229465e-05
0.00020214118
-2.1945592e-05
0.00020486791
-1.861049e-05
0.00020709969
-1.52323e-05
0.00020883142
-1.1819249e-05
0.00021005921
-8.379631e-06
0.00021078038
-4.9217863e-06
0.00021099349
-1.4540805e-06
0.00021069832
2.015116e-06
0.00020989588
5.4774479e-06
0.00020858838
8.9245954e-06
0.00020677926
1.2348294e-05
0.00020447316
1.5740353e-05
0.00020167589
1.9092676e-05
0.00019839445
2.2397281e-05
0.00019463697
2.5646316e-05
0.00019041274
2.8832077e-05
0.00018573211
3.1947028e-05
0.00018060654
3.4983816e-05
0.00017504853
3.7935289e-05
0.0001690716
4.0794509e-05
0.00016269024
4.3554769e-05
0.00015591991
4.6209608e-05
0.00014877695
4.8752823e-05
0.00014127858
5.1178484e-05
0.00013344287
5.3480946e-05
0.00012528864
5.5654858e-05
0.00011683547
5.7695178e-05
0.00010810362
5.9597182e-05
9.9114008e-05
6.1356472e-05
8.9888132e-05
6.2968984e-05
8.0448044e-05
6.4431002e-05
7.081629e-05
6.5739158e-05
6.1015851e-05
6.6890442e-05
5.1070102e-05
6.7882209e-05
4.1002748e-05
6.8712181e-05
3.0837774e-05
6.9378453e-05
2.0599387e-05
6.9879498e-05
1.0311966e-05
7.0214167e-05
7.0381694e-05
-1.0445188e-05
8.0826881e-05
-2.0865512e-05
8.0634491e-05
-3.1236166e-05
8.0250152e-05
-4.1532458e-05
7.9674745e-05
-5.1729865e-05
7.8909588e-05
-6.1804093e-05
7.7956436e-05
-7.1731127e-05
7.6817477e-05
-8.1487294e-05
7.5495325e-05
-9.1049312e-05
7.399302e-05
-0.00010039434
7.2314017e-05
-0.00010950006
7.0462184e-05
-0.00011834466
6.844179e-05
-0.00012690699
6.6257501e-05
-0.0001351665
6.3914368e-05
-0.00014310337
6.1417816e-05
-0.00015069852
5.8773637e-05
-0.00015793367
5.5987974e-05
-0.00016479138
5.3067312e-05
-0.00017125507
5.001846e-05
-0.0001773091
4.6848542e-05
-0.00018293879
4.3564979e-05
-0.00018813045
4.0175473e-05
-0.00019287141
3.6687991e-05
-0.00019715008
3.3110749e-05
-0.00020095596
2.945219e-05
-0.00020427965
2.572097e-05
-0.00020711291
2.1925934e-05
-0.00020944865
1.8076101e-05
-0.000211281
1.4180638e-05
-0.00021260525
1.0248844e-05
-0.00021341792
6.290123e-06
-0.00021371677
2.3139675e-06
-0.00021350079
-1.6700684e-06
-0.00021277018
-5.6523895e-06
-0.00021152643
-9.6233834e-06
-0.00020977224
-1.3573443e-05
-0.00020751154
-1.7492991e-05
-0.00020474953
-2.1372504e-05
-0.00020149259
-2.5202532e-05
-0.00019774833
-2.8973727e-05
-0.00019352554
-3.2676866e-05
-0.00018883419
-3.6302871e-05
-0.0001836854
-3.9842834e-05
-0.00017809142
-4.3288043e-05
-0.00017206557
-4.6629998e-05
-0.00016562229
-4.986044e-05
-0.000158777
-5.297137e-05
-0.00015154614
-5.5955068e-05
-0.00014394712
-5.8804118e-05
-0.00013599825
-6.1511426e-05
-0.00012771872
-6.4070238e-05
-0.00011912854
-6.6474161e-05
-0.00011024851
-6.871718e-05
-0.00010110013
-7.0793673e-05
-9.1705609e-05
-7.269843e-05
-8.2087751e-05
-7.4426663e-05
-7.2269928e-05
-7.5974027e-05
-6.2276019e-05
-7.7336622e-05
-5.2130342e-05
-7.8511016e-05
-4.1857603e-05
-7.9494244e-05
-3.1482826e-05
-8.0283824e-05
-2.1031293e-05
-8.0877763e-05
-1.0528482e-05
-8.1274558e-05
9.6764168e-14
-8.1473207e-05
1.0528483e-05
-8.1473207e-05
2.1031294e-05
-8.1274558e-05
3.1482826e-05
-8.0877763e-05
4.1857603e-05
-8.0283824e-05
5.2130343e-05
-7.9494244e-05
6.2276019e-05
-7.8511016e-05
7.2269929e-05
-7.7336622e-05
8.2087751e-05
-7.5974027e-05
9.1705609e-05
-7.4426663e-05
0.00010110013
-7.269843e-05
0.00011024851
-7.0793673e-05
0.00011912854
-6.871718e-05
0.00012771872
-6.6474161e-05
0.00013599825
-6.4070238e-05
0.00014394712
-6.1511426e-05
0.00015154614
-5.8804118e-05
0.000158777
-5.5955068e-05
0.00016562229
-5.297137e-05
0.00017206557
-4.986044e-05
0.00017809142
-4.6629998e-05
0.0001836854
-4.3288043e-05
0.00018883419
-3.9842834e-05
0.00019352554
-3.6302871e-05
0.00019774833
-3.2676866e-05
0.00020149259
-2.8973727e-05
0.00020474953
-2.5202531e-05
0.00020751154
-2.1372504e-05
0.00020977224
-1.7492991e-05
0.00021152643
-1.3573443e-05
0.00021277018
-9.6233833e-06
0.00021350079
-5.6523895e-06
0.00021371677
-1.6700683e-06
0.00021341792
2.3139676e-06
0.00021260525
6.2901231e-06
0.000211281
1.0248844e-05
0.00020944865
1.4180638e-05
0.00020711291
1.8076101e-05
0.00020427965
2.1925934e-05
0.00020095596
2.572097e-05
0.00019715008
2.945219e-05
0.00019287141
3.3110749e-05
0.00018813045
3.6687992e-05
0.00018293879
4.0175473e-05
0.0001773091
4.3564979e-05
0.00017125507
4.6848542e-05
0.00016479138
5.001846e-05
0.00015793367
5.3067312e-05
0.00015069852
5.5987974e-05
0.00014310337
5.8773637e-05
0.0001351665
6.1417816e-05
0.00012690699
6.3914368e-05
0.00011834466
6.6257501e-05
0.00010950006