/*--------------------------------*- C++ -*----------------------------------*\
| =========                 |                                                 |
| \\      /  F ield         | OpenFOAM: The Open Source CFD Toolbox           |
|  \\    /   O peration     | Version:  2106                                  |
|   \\  /    A nd           | Website:  www.openfoam.com                      |
|    \\/     M anipulation  |                                                 |
\*---------------------------------------------------------------------------*/
FoamFile
{
    version     2.0;
    format      ascii;
    arch        "LSB;label=32;scalar=64";
    class       volVectorField;
    location    "0.047";
    object      U_0;
}
// * * * * * * * * * * * * * * * * * * * * * * * * * * * * * * * * * * * * * //

dimensions      [0 1 -1 0 0 0 0];

internalField   nonuniform List<vector> 
4096
(
(-0.00016225799 0.00016227163 0)
(-0.00048531562 0.00016080673 0)
(-0.000803996 0.00015788851 0)
(-0.0011154036 0.00015353666 0)
(-0.0014167067 0.00014778033 0)
(-0.0017051489 0.00014066053 0)
(-0.0019780648 0.00013222836 0)
(-0.0022328786 0.00012254878 0)
(-0.0024671549 0.00011169774 0)
(-0.0026786638 9.9755328e-05 0)
(-0.0028653093 8.682058e-05 0)
(-0.0030251962 7.3005796e-05 0)
(-0.0031567237 5.8423323e-05 0)
(-0.0032584375 4.3209036e-05 0)
(-0.0033292082 2.7492936e-05 0)
(-0.0033682089 1.1419927e-05 0)
(-0.0033748518 -4.8511698e-06 0)
(-0.0033489229 -2.1171445e-05 0)
(-0.0032904436 -3.7369595e-05 0)
(-0.0031998216 -5.3295112e-05 0)
(-0.0030777839 -6.8780916e-05 0)
(-0.00292535 -8.3663741e-05 0)
(-0.0027439167 -9.7790994e-05 0)
(-0.0025351071 -0.00011100114 0)
(-0.0023008923 -0.0001231567 0)
(-0.0020435622 -0.00013412318 0)
(-0.0017656045 -0.00014376994 0)
(-0.0014697482 -0.00015198631 0)
(-0.0011589603 -0.00015868128 0)
(-0.00083638111 -0.00016377393 0)
(-0.00050527126 -0.00016720305 0)
(-0.00016899964 -0.00016892807 0)
(0.00016899964 -0.00016892807 0)
(0.00050527126 -0.00016720305 0)
(0.00083638111 -0.00016377393 0)
(0.0011589603 -0.00015868128 0)
(0.0014697482 -0.00015198631 0)
(0.0017656045 -0.00014376994 0)
(0.0020435622 -0.00013412318 0)
(0.0023008923 -0.0001231567 0)
(0.0025351071 -0.00011100114 0)
(0.0027439167 -9.7790994e-05 0)
(0.00292535 -8.3663741e-05 0)
(0.0030777839 -6.8780916e-05 0)
(0.0031998216 -5.3295112e-05 0)
(0.0032904436 -3.7369595e-05 0)
(0.0033489229 -2.1171445e-05 0)
(0.0033748518 -4.8511698e-06 0)
(0.0033682089 1.1419927e-05 0)
(0.0033292082 2.7492936e-05 0)
(0.0032584375 4.3209036e-05 0)
(0.0031567237 5.8423323e-05 0)
(0.0030251962 7.3005796e-05 0)
(0.0028653093 8.682058e-05 0)
(0.0026786638 9.9755328e-05 0)
(0.0024671549 0.00011169774 0)
(0.0022328786 0.00012254878 0)
(0.0019780648 0.00013222836 0)
(0.0017051489 0.00014066053 0)
(0.0014167067 0.00014778033 0)
(0.0011154036 0.00015353666 0)
(0.000803996 0.00015788851 0)
(0.00048531562 0.00016080673 0)
(0.00016225799 0.00016227163 0)
(-0.00016118305 0.00048618228 0)
(-0.00048210114 0.00048179648 0)
(-0.00079867666 0.00047305845 0)
(-0.0011080425 0.00046002497 0)
(-0.0014073906 0.00044278527 0)
(-0.001693985 0.00042146179 0)
(-0.0019651766 0.0003962095 0)
(-0.0022184021 0.00036721948 0)
(-0.0024512533 0.00033471303 0)
(-0.0026615158 0.00029893969 0)
(-0.0028470863 0.00026019716 0)
(-0.0030060892 0.00021880924 0)
(-0.0031369305 0.00017512061 0)
(-0.00323816 0.00012953469 0)
(-0.0033086607 8.244523e-05 0)
(-0.0033475835 3.4291545e-05 0)
(-0.0033543478 -1.446559e-05 0)
(-0.003328735 -6.3371266e-05 0)
(-0.0032707678 -0.0001119214 0)
(-0.0031808543 -0.00015964928 0)
(-0.0030596861 -0.00020605543 0)
(-0.0029082844 -0.0002506631 0)
(-0.0027280291 -0.00029300718 0)
(-0.002520533 -0.00033261063 0)
(-0.0022877656 -0.0003690513 0)
(-0.0020319817 -0.0004019237 0)
(-0.0017556506 -0.00043084301 0)
(-0.0014615024 -0.00045547992 0)
(-0.0011524886 -0.000475553 0)
(-0.0008317265 -0.0004908218 0)
(-0.0005024657 -0.00050110344 0)
(-0.00016806244 -0.00050627561 0)
(0.00016806244 -0.00050627561 0)
(0.0005024657 -0.00050110344 0)
(0.0008317265 -0.0004908218 0)
(0.0011524886 -0.000475553 0)
(0.0014615024 -0.00045547992 0)
(0.0017556506 -0.00043084301 0)
(0.0020319817 -0.0004019237 0)
(0.0022877656 -0.0003690513 0)
(0.002520533 -0.00033261063 0)
(0.0027280291 -0.00029300718 0)
(0.0029082844 -0.0002506631 0)
(0.0030596861 -0.00020605543 0)
(0.0031808543 -0.00015964928 0)
(0.0032707678 -0.0001119214 0)
(0.003328735 -6.3371266e-05 0)
(0.0033543478 -1.446559e-05 0)
(0.0033475835 3.4291546e-05 0)
(0.0033086607 8.244523e-05 0)
(0.00323816 0.00012953469 0)
(0.0031369305 0.00017512061 0)
(0.0030060892 0.00021880924 0)
(0.0028470863 0.00026019716 0)
(0.0026615158 0.00029893969 0)
(0.0024512533 0.00033471303 0)
(0.0022184021 0.00036721948 0)
(0.0019651766 0.0003962095 0)
(0.001693985 0.00042146179 0)
(0.0014073906 0.00044278527 0)
(0.0011080425 0.00046002497 0)
(0.00079867666 0.00047305845 0)
(0.00048210113 0.00048179648 0)
(0.00016118305 0.00048618228 0)
(-0.00015885896 0.00080642681 0)
(-0.00047515088 0.00079916159 0)
(-0.0007871737 0.00078468411 0)
(-0.0010921118 0.00076308658 0)
(-0.001387201 0.00073451825 0)
(-0.0016697476 0.00069917873 0)
(-0.0019371409 0.00065732994 0)
(-0.0021868569 0.00060928035 0)
(-0.0024165266 0.00055538669 0)
(-0.0026239584 0.00049607555 0)
(-0.0028070724 0.00043184395 0)
(-0.0029640258 0.00036320648 0)
(-0.003093229 0.0002907498 0)
(-0.003193252 0.00021513446 0)
(-0.0032629944 0.0001370177 0)
(-0.0033015988 5.7141265e-05 0)
(-0.0033084972 -2.3755901e-05 0)
(-0.0032834561 -0.00010489658 0)
(-0.0032264937 -0.00018547428 0)
(-0.0031380109 -0.00026469341 0)
(-0.0030186766 -0.00034171992 0)
(-0.0028695021 -0.00041577318 0)
(-0.0026918247 -0.0004860679 0)
(-0.0024872329 -0.00055183193 0)
(-0.0022576777 -0.00061234836 0)
(-0.002005366 -0.00066693834 0)
(-0.0017327336 -0.00071497276 0)
(-0.0014424863 -0.0007559025 0)
(-0.0011375353 -0.00078924858 0)
(-0.00082095765 -0.00081461713 0)
(-0.00049596921 -0.00083169994 0)
(-0.0001658912 -0.00084029293 0)
(0.0001658912 -0.00084029293 0)
(0.00049596921 -0.00083169994 0)
(0.00082095765 -0.00081461713 0)
(0.0011375353 -0.00078924858 0)
(0.0014424863 -0.0007559025 0)
(0.0017327336 -0.00071497276 0)
(0.002005366 -0.00066693834 0)
(0.0022576777 -0.00061234836 0)
(0.0024872329 -0.00055183193 0)
(0.0026918247 -0.0004860679 0)
(0.0028695021 -0.00041577318 0)
(0.0030186766 -0.00034171992 0)
(0.0031380109 -0.00026469341 0)
(0.0032264937 -0.00018547428 0)
(0.0032834561 -0.00010489658 0)
(0.0033084972 -2.3755901e-05 0)
(0.0033015988 5.7141266e-05 0)
(0.0032629944 0.0001370177 0)
(0.003193252 0.00021513446 0)
(0.003093229 0.0002907498 0)
(0.0029640258 0.00036320648 0)
(0.0028070724 0.00043184395 0)
(0.0026239584 0.00049607555 0)
(0.0024165266 0.00055538669 0)
(0.0021868569 0.00060928035 0)
(0.0019371409 0.00065732994 0)
(0.0016697476 0.00069917873 0)
(0.001387201 0.00073451825 0)
(0.0010921118 0.00076308658 0)
(0.0007871737 0.00078468411 0)
(0.00047515088 0.00079916159 0)
(0.00015885896 0.00080642681 0)
(-0.00015550203 0.0011210104 0)
(-0.00046511325 0.0011109282 0)
(-0.00077056121 0.0010908295 0)
(-0.0010690995 0.0010608428 0)
(-0.0013580279 0.0010211748 0)
(-0.0016347087 0.00097209723 0)
(-0.0018965906 0.00091397701 0)
(-0.0021412162 0.00084724037 0)
(-0.0023662579 0.00077237035 0)
(-0.0025695489 0.00068996459 0)
(-0.0027490679 0.00060071592 0)
(-0.0029030135 0.00050532341 0)
(-0.0030297948 0.00040461703 0)
(-0.0031280196 0.00029951028 0)
(-0.0031965992 0.00019090548 0)
(-0.0032346847 7.9847443e-05 0)
(-0.0032417227 -3.2647355e-05 0)
(-0.0032174669 -0.00014548368 0)
(-0.0031619344 -0.00025755077 0)
(-0.0030754888 -0.00036775238 0)
(-0.0029587838 -0.00047491526 0)
(-0.002812816 -0.00057795689 0)
(-0.0026388736 -0.00067577457 0)
(-0.0024385077 -0.0007673012 0)
(-0.0022136238 -0.00085154177 0)
(-0.0019663767 -0.00092754158 0)
(-0.0016991552 -0.00099442711 0)
(-0.0014146136 -0.0010514266 0)
(-0.0011156104 -0.0010978678 0)
(-0.00080516544 -0.0011332057 0)
(-0.00048643939 -0.0011570015 0)
(-0.00016270543 -0.0011689705 0)
(0.00016270543 -0.0011689705 0)
(0.00048643939 -0.0011570015 0)
(0.00080516544 -0.0011332057 0)
(0.0011156104 -0.0010978678 0)
(0.0014146136 -0.0010514266 0)
(0.0016991552 -0.00099442711 0)
(0.0019663767 -0.00092754158 0)
(0.0022136238 -0.00085154177 0)
(0.0024385077 -0.0007673012 0)
(0.0026388736 -0.00067577457 0)
(0.002812816 -0.00057795689 0)
(0.0029587838 -0.00047491526 0)
(0.0030754889 -0.00036775238 0)
(0.0031619344 -0.00025755077 0)
(0.0032174669 -0.00014548368 0)
(0.0032417227 -3.2647355e-05 0)
(0.0032346847 7.9847443e-05 0)
(0.0031965992 0.00019090548 0)
(0.0031280196 0.00029951028 0)
(0.0030297948 0.00040461703 0)
(0.0029030135 0.00050532341 0)
(0.0027490679 0.00060071592 0)
(0.0025695489 0.00068996459 0)
(0.0023662579 0.00077237035 0)
(0.0021412162 0.00084724037 0)
(0.0018965906 0.00091397701 0)
(0.0016347087 0.00097209723 0)
(0.0013580279 0.0010211748 0)
(0.0010690995 0.0010608428 0)
(0.00077056121 0.0010908295 0)
(0.00046511324 0.0011109282 0)
(0.00015550203 0.0011210104 0)
(-0.00015099762 0.0014279174 0)
(-0.00045164951 0.0014150941 0)
(-0.00074828261 0.0013895259 0)
(-0.0010382361 0.0013513814 0)
(-0.0013188968 0.0013009224 0)
(-0.0015877014 0.0012384903 0)
(-0.001842171 0.0011645311 0)
(-0.0020799451 0.0010796006 0)
(-0.0022987555 0.00098431012 0)
(-0.0024964613 0.00087941049 0)
(-0.0026711254 0.00076577357 0)
(-0.0028209957 0.00064429911 0)
(-0.002944476 0.00051604714 0)
(-0.0030402459 0.00038217056 0)
(-0.003107229 0.00024382175 0)
(-0.0031445762 0.00010231353 0)
(-0.0031517606 -4.1031681e-05 0)
(-0.0031285107 -0.00018482704 0)
(-0.0030748626 -0.00032766016 0)
(-0.0029911346 -0.00046812617 0)
(-0.0028779472 -0.00060475863 0)
(-0.002736282 -0.00073615487 0)
(-0.0025673521 -0.00086090528 0)
(-0.0023726737 -0.00097765461 0)
(-0.0021540918 -0.0010851326 0)
(-0.0019136778 -0.0011821098 0)
(-0.0016537602 -0.0012674771 0)
(-0.0013769255 -0.0013402402 0)
(-0.0010859632 -0.0013995324 0)
(-0.00078380989 -0.0014446489 0)
(-0.00047354995 -0.0014750292 0)
(-0.00015839605 -0.0014903112 0)
(0.00015839605 -0.0014903112 0)
(0.00047354995 -0.0014750292 0)
(0.00078380989 -0.0014446489 0)
(0.0010859632 -0.0013995324 0)
(0.0013769255 -0.0013402402 0)
(0.0016537602 -0.0012674771 0)
(0.0019136778 -0.0011821098 0)
(0.0021540918 -0.0010851326 0)
(0.0023726737 -0.00097765461 0)
(0.0025673521 -0.00086090528 0)
(0.002736282 -0.00073615487 0)
(0.0028779472 -0.00060475863 0)
(0.0029911346 -0.00046812617 0)
(0.0030748626 -0.00032766016 0)
(0.0031285107 -0.00018482704 0)
(0.0031517606 -4.103168e-05 0)
(0.0031445762 0.00010231353 0)
(0.003107229 0.00024382175 0)
(0.0030402459 0.00038217056 0)
(0.002944476 0.00051604714 0)
(0.0028209957 0.00064429911 0)
(0.0026711254 0.00076577357 0)
(0.0024964613 0.00087941049 0)
(0.0022987555 0.00098431012 0)
(0.0020799451 0.0010796006 0)
(0.001842171 0.0011645311 0)
(0.0015877014 0.0012384903 0)
(0.0013188968 0.0013009224 0)
(0.0010382361 0.0013513814 0)
(0.00074828261 0.0013895259 0)
(0.00045164951 0.0014150941 0)
(0.00015099762 0.0014279174 0)
(-0.00014493256 0.0017245825 0)
(-0.00043351852 0.0017091161 0)
(-0.00071827047 0.0016782836 0)
(-0.00099664202 0.0016322981 0)
(-0.0012661412 0.0015714582 0)
(-0.0015243245 0.0014961752 0)
(-0.0017687992 0.0014069551 0)
(-0.0019973074 0.0013044803 0)
(-0.0022076816 0.0011895032 0)
(-0.0023978346 0.0010628957 0)
(-0.0025659172 0.00092570365 0)
(-0.0027102387 0.00077905698 0)
(-0.0028292267 0.00062418648 0)
(-0.0029216361 0.00046248517 0)
(-0.002986422 0.00029539473 0)
(-0.0030227287 0.00012442839 0)
(-0.0030300497 -4.8758179e-05 0)
(-0.003008123 -0.00022252121 0)
(-0.0029569735 -0.00039516697 0)
(-0.0028768859 -0.00056493925 0)
(-0.0027684389 -0.00073014433 0)
(-0.002632557 -0.00088903586 0)
(-0.0024703938 -0.001039922 0)
(-0.0022834061 -0.0011811742 0)
(-0.0020733408 -0.0013112262 0)
(-0.0018421801 -0.0014285971 0)
(-0.0015921697 -0.0015319448 0)
(-0.0013257862 -0.0016200535 0)
(-0.0010457208 -0.0016918602 0)
(-0.00075481079 -0.0017464984 0)
(-0.00045604597 -0.0017833004 0)
(-0.00015254435 -0.001801818 0)
(0.00015254435 -0.001801818 0)
(0.00045604598 -0.0017833004 0)
(0.00075481079 -0.0017464984 0)
(0.0010457208 -0.0016918602 0)
(0.0013257862 -0.0016200535 0)
(0.0015921697 -0.0015319448 0)
(0.0018421801 -0.0014285971 0)
(0.0020733408 -0.0013112262 0)
(0.0022834061 -0.0011811742 0)
(0.0024703938 -0.001039922 0)
(0.002632557 -0.00088903586 0)
(0.0027684389 -0.00073014433 0)
(0.0028768859 -0.00056493925 0)
(0.0029569735 -0.00039516697 0)
(0.003008123 -0.00022252121 0)
(0.0030300497 -4.8758179e-05 0)
(0.0030227287 0.00012442839 0)
(0.002986422 0.00029539473 0)
(0.0029216361 0.00046248517 0)
(0.0028292267 0.00062418648 0)
(0.0027102387 0.00077905698 0)
(0.0025659172 0.00092570365 0)
(0.0023978346 0.0010628957 0)
(0.0022076816 0.0011895032 0)
(0.0019973074 0.0013044803 0)
(0.0017687992 0.0014069551 0)
(0.0015243245 0.0014961752 0)
(0.0012661412 0.0015714582 0)
(0.00099664202 0.0016322981 0)
(0.00071827047 0.0016782836 0)
(0.00043351852 0.0017091161 0)
(0.00014493256 0.0017245825 0)
(-0.00013660945 0.0020073015 0)
(-0.00040863002 0.0019893397 0)
(-0.00067705411 0.001953537 0)
(-0.00093951219 0.0019001268 0)
(-0.0011936798 0.0018294475 0)
(-0.0014372694 0.0017419802 0)
(-0.0016680081 0.0016382939 0)
(-0.0018837555 0.0015191541 0)
(-0.0020825075 0.0013854658 0)
(-0.0022622641 0.0012382376 0)
(-0.0024212407 0.0010786272 0)
(-0.0025578814 0.00090801115 0)
(-0.0026706724 0.0007277942 0)
(-0.0027583871 0.00053956833 0)
(-0.002820087 0.00034506806 0)
(-0.0028549164 0.00014601246 0)
(-0.0028623698 -5.5667847e-05 0)
(-0.0028422306 -0.00025803188 0)
(-0.0027944539 -0.00045915808 0)
(-0.002719325 -0.00065696204 0)
(-0.0026173756 -0.00084946661 0)
(-0.0024894244 -0.0010346717 0)
(-0.0023365701 -0.0012106064 0)
(-0.002160157 -0.001375351 0)
(-0.0019618154 -0.0015270702 0)
(-0.0017434169 -0.0016640464 0)
(-0.0015070731 -0.0017846722 0)
(-0.0012551144 -0.0018875491 0)
(-0.00099009743 -0.0019714045 0)
(-0.000714731 -0.0020352243 0)
(-0.00043186293 -0.0020782222 0)
(-0.0001444618 -0.0020998589 0)
(0.0001444618 -0.0020998589 0)
(0.00043186294 -0.0020782222 0)
(0.000714731 -0.0020352243 0)
(0.00099009743 -0.0019714045 0)
(0.0012551144 -0.0018875491 0)
(0.0015070731 -0.0017846722 0)
(0.0017434169 -0.0016640464 0)
(0.0019618154 -0.0015270702 0)
(0.002160157 -0.001375351 0)
(0.0023365701 -0.0012106064 0)
(0.0024894244 -0.0010346717 0)
(0.0026173756 -0.00084946661 0)
(0.002719325 -0.00065696204 0)
(0.0027944539 -0.00045915808 0)
(0.0028422306 -0.00025803188 0)
(0.0028623698 -5.5667846e-05 0)
(0.0028549164 0.00014601246 0)
(0.002820087 0.00034506807 0)
(0.0027583871 0.00053956833 0)
(0.0026706724 0.0007277942 0)
(0.0025578814 0.00090801115 0)
(0.0024212407 0.0010786272 0)
(0.0022622641 0.0012382376 0)
(0.0020825075 0.0013854658 0)
(0.0018837555 0.0015191541 0)
(0.0016680081 0.0016382939 0)
(0.0014372694 0.0017419802 0)
(0.0011936798 0.0018294475 0)
(0.00093951219 0.0019001268 0)
(0.00067705411 0.001953537 0)
(0.00040863001 0.0019893397 0)
(0.00013660945 0.0020073015 0)
(-0.0001250916 0.0022707511 0)
(-0.00037418726 0.0022504992 0)
(-0.00062003114 0.0022101133 0)
(-0.0008604823 0.002149832 0)
(-0.0010934211 0.0020700502 0)
(-0.0013167876 0.0019713117 0)
(-0.0015285108 0.0018542682 0)
(-0.0017265896 0.0017196875 0)
(-0.0019091881 0.0015686034 0)
(-0.0020745163 0.0014022446 0)
(-0.0022208755 0.0012218266 0)
(-0.0023468077 0.0010288812 0)
(-0.0024509586 0.0008250523 0)
(-0.0025321343 0.00061213401 0)
(-0.0025894841 0.00039205345 0)
(-0.0026222125 0.00016678436 0)
(-0.0026297769 -6.1507387e-05 0)
(-0.0026120363 -0.00029058307 0)
(-0.0025689062 -0.00051830545 0)
(-0.0025005698 -0.00074236463 0)
(-0.0024075621 -0.00096042927 0)
(-0.0022906026 -0.0011703087 0)
(-0.0021506313 -0.0013697601 0)
(-0.0019888638 -0.0015565725 0)
(-0.001806792 -0.0017286886 0)
(-0.0016060919 -0.0018841537 0)
(-0.0013887206 -0.0020210803 0)
(-0.001156816 -0.002137904 0)
(-0.0009127198 -0.0022331603 0)
(-0.00065897151 -0.0023056799 0)
(-0.00039821072 -0.0023545444 0)
(-0.00013321117 -0.0023791305 0)
(0.00013321117 -0.0023791305 0)
(0.00039821072 -0.0023545444 0)
(0.00065897151 -0.0023056799 0)
(0.0009127198 -0.0022331603 0)
(0.001156816 -0.002137904 0)
(0.0013887206 -0.0020210803 0)
(0.0016060919 -0.0018841537 0)
(0.001806792 -0.0017286886 0)
(0.0019888638 -0.0015565725 0)
(0.0021506313 -0.0013697601 0)
(0.0022906026 -0.0011703087 0)
(0.0024075621 -0.00096042927 0)
(0.0025005698 -0.00074236463 0)
(0.0025689062 -0.00051830545 0)
(0.0026120363 -0.00029058307 0)
(0.0026297769 -6.1507387e-05 0)
(0.0026222125 0.00016678436 0)
(0.0025894841 0.00039205345 0)
(0.0025321343 0.00061213401 0)
(0.0024509586 0.0008250523 0)
(0.0023468077 0.0010288812 0)
(0.0022208755 0.0012218266 0)
(0.0020745163 0.0014022446 0)
(0.0019091881 0.0015686034 0)
(0.0017265896 0.0017196875 0)
(0.0015285108 0.0018542682 0)
(0.0013167876 0.0019713117 0)
(0.0010934211 0.0020700502 0)
(0.0008604823 0.002149832 0)
(0.00062003114 0.0022101133 0)
(0.00037418726 0.0022504992 0)
(0.0001250916 0.0022707511 0)
(-0.00010929098 0.0025075252 0)
(-0.00032695287 0.0024852491 0)
(-0.00054184999 0.0024408156 0)
(-0.00075212577 0.0023744515 0)
(-0.00095593615 0.0022865986 0)
(-0.0011515149 0.0021778544 0)
(-0.001337131 0.0020489367 0)
(-0.0015110109 0.0019006522 0)
(-0.001671413 0.0017339944 0)
(-0.0018168468 0.0015504942 0)
(-0.0019458738 0.0013514902 0)
(-0.0020571082 0.001138531 0)
(-0.0021493124 0.00091343011 0)
(-0.0022214469 0.0006783602 0)
(-0.002272788 0.00043528801 0)
(-0.0023025528 0.00018633641 0)
(-0.0023101938 -6.5865732e-05 0)
(-0.0022956536 -0.00031906046 0)
(-0.0022588498 -0.00057086055 0)
(-0.0021998082 -0.00081860156 0)
(-0.002119013 -0.0010598414 0)
(-0.0020171024 -0.0012921396 0)
(-0.0018947834 -0.0015129267 0)
(-0.0017531124 -0.0017198435 0)
(-0.0015934036 -0.0019105919 0)
(-0.0014170297 -0.0020829321 0)
(-0.0012257339 -0.0022347991 0)
(-0.0010214277 -0.0023644239 0)
(-0.00080614677 -0.0024701795 0)
(-0.00058216668 -0.0025506977 0)
(-0.0003518507 -0.0026049653 0)
(-0.00011771057 -0.0026322775 0)
(0.00011771057 -0.0026322775 0)
(0.0003518507 -0.0026049653 0)
(0.00058216668 -0.0025506977 0)
(0.00080614677 -0.0024701795 0)
(0.0010214277 -0.0023644239 0)
(0.0012257339 -0.0022347991 0)
(0.0014170297 -0.0020829321 0)
(0.0015934036 -0.0019105919 0)
(0.0017531124 -0.0017198435 0)
(0.0018947834 -0.0015129267 0)
(0.0020171024 -0.0012921396 0)
(0.002119013 -0.0010598414 0)
(0.0021998082 -0.00081860156 0)
(0.0022588498 -0.00057086055 0)
(0.0022956536 -0.00031906046 0)
(0.0023101938 -6.5865731e-05 0)
(0.0023025528 0.00018633641 0)
(0.002272788 0.00043528801 0)
(0.0022214469 0.0006783602 0)
(0.0021493124 0.00091343011 0)
(0.0020571082 0.001138531 0)
(0.0019458738 0.0013514902 0)
(0.0018168468 0.0015504942 0)
(0.001671413 0.0017339944 0)
(0.0015110109 0.0019006522 0)
(0.001337131 0.0020489367 0)
(0.0011515149 0.0021778544 0)
(0.00095593615 0.0022865986 0)
(0.00075212577 0.0023744515 0)
(0.00054184999 0.0024408156 0)
(0.00032695287 0.0024852491 0)
(0.00010929098 0.0025075252 0)
(-8.8103258e-05 0.0027080001 0)
(-0.0002636019 0.0026840437 0)
(-0.00043699695 0.0026362546 0)
(-0.00060681646 0.002564875 0)
(-0.00077155667 0.0024703752 0)
(-0.0009298574 0.0023533309 0)
(-0.0010803979 0.0022144956 0)
(-0.0012218374 0.0020547779 0)
(-0.0013525179 0.001875149 0)
(-0.0014711635 0.0016772787 0)
(-0.0015768623 0.0014626339 0)
(-0.0016684196 0.0012327934 0)
(-0.0017445178 0.00098969539 0)
(-0.0018043836 0.00073586092 0)
(-0.0018476932 0.00047332452 0)
(-0.0018733622 0.00020418374 0)
(-0.0018809764 -6.8358222e-05 0)
(-0.0018707847 -0.00034204847 0)
(-0.0018423264 -0.0006144796 0)
(-0.0017956385 -0.0008824603 0)
(-0.0017312655 -0.0011435163 0)
(-0.0016494608 -0.0013951395 0)
(-0.0015507815 -0.0016343391 0)
(-0.0014361273 -0.0018586046 0)
(-0.0013064001 -0.0020655433 0)
(-0.0011626821 -0.0022526281 0)
(-0.0010064637 -0.0024175545 0)
(-0.00083928004 -0.002558366 0)
(-0.00066274162 -0.0026733615 0)
(-0.00047879136 -0.0027609587 0)
(-0.00028945856 -0.0028199867 0)
(-9.6853055e-05 -0.0028497008 0)
(9.6853055e-05 -0.0028497008 0)
(0.00028945856 -0.0028199867 0)
(0.00047879136 -0.0027609587 0)
(0.00066274162 -0.0026733615 0)
(0.00083928004 -0.002558366 0)
(0.0010064637 -0.0024175545 0)
(0.0011626821 -0.0022526281 0)
(0.0013064001 -0.0020655433 0)
(0.0014361273 -0.0018586046 0)
(0.0015507815 -0.0016343391 0)
(0.0016494608 -0.0013951395 0)
(0.0017312655 -0.0011435163 0)
(0.0017956385 -0.0008824603 0)
(0.0018423264 -0.0006144796 0)
(0.0018707847 -0.00034204847 0)
(0.0018809764 -6.8358221e-05 0)
(0.0018733622 0.00020418374 0)
(0.0018476932 0.00047332452 0)
(0.0018043836 0.00073586093 0)
(0.0017445178 0.00098969539 0)
(0.0016684196 0.0012327934 0)
(0.0015768623 0.0014626339 0)
(0.0014711635 0.0016772787 0)
(0.0013525179 0.001875149 0)
(0.0012218374 0.0020547779 0)
(0.0010803979 0.0022144956 0)
(0.0009298574 0.0023533309 0)
(0.00077155667 0.0024703752 0)
(0.00060681646 0.002564875 0)
(0.00043699695 0.0026362546 0)
(0.0002636019 0.0026840437 0)
(8.8103258e-05 0.0027080001 0)
(-6.0607211e-05 0.0028602878 0)
(-0.00018139355 0.0028351135 0)
(-0.00030089454 0.0027848957 0)
(-0.00041813282 0.0027099319 0)
(-0.00053214862 0.0026106896 0)
(-0.00064209578 0.0024875963 0)
(-0.00074709247 0.0023415061 0)
(-0.00084629815 0.0021732333 0)
(-0.00093831772 0.0019841264 0)
(-0.0010222157 0.0017755928 0)
(-0.0010976251 0.0015491758 0)
(-0.0011635851 0.0013064517 0)
(-0.001218714 0.001049933 0)
(-0.0012625641 0.00078175653 0)
(-0.0012954032 0.00050430447 0)
(-0.0013157197 0.00021977054 0)
(-0.0013231161 -6.8432927e-05 0)
(-0.0013184968 -0.00035792221 0)
(-0.0013008644 -0.00064620783 0)
(-0.0012700561 -0.00092995028 0)
(-0.0012269701 -0.0012064439 0)
(-0.0011713103 -0.0014730844 0)
(-0.001103214 -0.0017268775 0)
(-0.0010236196 -0.0019649099 0)
(-0.00093296229 -0.0021846754 0)
(-0.00083169784 -0.0023837138 0)
(-0.00072099981 -0.0025591817 0)
(-0.00060211801 -0.0027090825 0)
(-0.00047608477 -0.0028315622 0)
(-0.0003442317 -0.0029249589 0)
(-0.00020820798 -0.0029879218 0)
(-6.9687048e-05 -0.0030196126 0)
(6.9687048e-05 -0.0030196126 0)
(0.00020820798 -0.0029879218 0)
(0.0003442317 -0.0029249589 0)
(0.00047608477 -0.0028315622 0)
(0.00060211801 -0.0027090825 0)
(0.00072099981 -0.0025591817 0)
(0.00083169784 -0.0023837138 0)
(0.00093296229 -0.0021846754 0)
(0.0010236196 -0.0019649099 0)
(0.001103214 -0.0017268775 0)
(0.0011713103 -0.0014730844 0)
(0.0012269701 -0.0012064439 0)
(0.0012700561 -0.00092995028 0)
(0.0013008644 -0.00064620783 0)
(0.0013184968 -0.00035792221 0)
(0.0013231161 -6.8432927e-05 0)
(0.0013157197 0.00021977054 0)
(0.0012954032 0.00050430447 0)
(0.0012625641 0.00078175654 0)
(0.001218714 0.001049933 0)
(0.0011635851 0.0013064517 0)
(0.0010976251 0.0015491758 0)
(0.0010222157 0.0017755928 0)
(0.00093831772 0.0019841264 0)
(0.00084629815 0.0021732333 0)
(0.00074709247 0.0023415061 0)
(0.00064209578 0.0024875963 0)
(0.00053214862 0.0026106896 0)
(0.00041813282 0.0027099319 0)
(0.00030089454 0.0027848957 0)
(0.00018139355 0.0028351135 0)
(6.0607211e-05 0.0028602878 0)
(-2.6338785e-05 0.002950873 0)
(-7.8918832e-05 0.0029251285 0)
(-0.00013118871 0.0028737603 0)
(-0.00018281543 0.0027970458 0)
(-0.00023363057 0.0026953488 0)
(-0.00028333546 0.0025691306 0)
(-0.00033164349 0.0024191681 0)
(-0.0003781008 0.0022463856 0)
(-0.00042178377 0.0020521011 0)
(-0.00046247828 0.0018374225 0)
(-0.00050027203 0.001604094 0)
(-0.00053406444 0.0013540466 0)
(-0.0005629201 0.0010895951 0)
(-0.00058700368 0.0008126783 0)
(-0.00060659649 0.00052602194 0)
(-0.0006200914 0.00023253346 0)
(-0.00062723137 -6.5454886e-05 0)
(-0.00062937109 -0.00036493016 0)
(-0.0006251096 -0.00066280135 0)
(-0.00061411386 -0.00095649354 0)
(-0.00059733857 -0.0012429768 0)
(-0.0005742497 -0.001519179 0)
(-0.00054442239 -0.0017824201 0)
(-0.00050839617 -0.0020297047 0)
(-0.00046650391 -0.0022581193 0)
(-0.00041829959 -0.0024650809 0)
(-0.00036438391 -0.0026479773 0)
(-0.00030577702 -0.0028043736 0)
(-0.00024278419 -0.0029321464 0)
(-0.00017609414 -0.0030296077 0)
(-0.00010670789 -0.0030953813 0)
(-3.5745942e-05 -0.0031284957 0)
(3.5745942e-05 -0.0031284957 0)
(0.00010670789 -0.0030953813 0)
(0.00017609414 -0.0030296077 0)
(0.00024278419 -0.0029321464 0)
(0.00030577702 -0.0028043736 0)
(0.00036438391 -0.0026479773 0)
(0.00041829959 -0.0024650809 0)
(0.00046650391 -0.0022581193 0)
(0.00050839617 -0.0020297047 0)
(0.00054442239 -0.0017824201 0)
(0.0005742497 -0.001519179 0)
(0.00059733857 -0.0012429768 0)
(0.00061411386 -0.00095649354 0)
(0.0006251096 -0.00066280135 0)
(0.00062937109 -0.00036493016 0)
(0.00062723137 -6.5454886e-05 0)
(0.0006200914 0.00023253346 0)
(0.00060659649 0.00052602194 0)
(0.00058700368 0.0008126783 0)
(0.0005629201 0.0010895951 0)
(0.00053406444 0.0013540466 0)
(0.00050027203 0.001604094 0)
(0.00046247828 0.0018374225 0)
(0.00042178377 0.0020521011 0)
(0.0003781008 0.0022463856 0)
(0.00033164349 0.0024191681 0)
(0.00028333546 0.0025691306 0)
(0.00023363057 0.0026953488 0)
(0.00018281543 0.0027970458 0)
(0.00013118871 0.0028737603 0)
(7.8918832e-05 0.0029251285 0)
(2.6338785e-05 0.002950873 0)
(1.4337168e-05 0.002966282 0)
(4.2699869e-05 0.0029407085 0)
(7.0165999e-05 0.0028896837 0)
(9.6241762e-05 0.0028133897 0)
(0.00012036813 0.0027120733 0)
(0.00014212148 0.0025863068 0)
(0.00016119491 0.0024366442 0)
(0.00017736528 0.0022641414 0)
(0.00019067092 0.0020697742 0)
(0.00020101779 0.0018546525 0)
(0.000208246 0.0016205719 0)
(0.00021266278 0.0013697136 0)
(0.00021457758 0.0011038466 0)
(0.00021392852 0.00082526786 0)
(0.00021066732 0.00053669796 0)
(0.0002053423 0.00024135779 0)
(0.00019807101 -5.8966372e-05 0)
(0.00018850956 -0.00036093048 0)
(0.00017720749 -0.00066125018 0)
(0.00016444739 -0.00095768916 0)
(0.00015020092 -0.0012471777 0)
(0.00013498241 -0.0015265009 0)
(0.00011934369 -0.0017929735 0)
(0.00010354581 -0.0020437518 0)
(8.7907673e-05 -0.0022757425 0)
(7.3035999e-05 -0.0024860258 0)
(5.9163958e-05 -0.0026723224 0)
(4.6286111e-05 -0.0028318168 0)
(3.4518437e-05 -0.0029622443 0)
(2.3817185e-05 -0.0030617922 0)
(1.3965573e-05 -0.003129025 0)
(4.6025611e-06 -0.0031629008 0)
(-4.6025615e-06 -0.0031629008 0)
(-1.3965573e-05 -0.003129025 0)
(-2.3817185e-05 -0.0030617922 0)
(-3.4518438e-05 -0.0029622443 0)
(-4.6286112e-05 -0.0028318168 0)
(-5.9163958e-05 -0.0026723224 0)
(-7.3035999e-05 -0.0024860258 0)
(-8.7907674e-05 -0.0022757425 0)
(-0.00010354581 -0.0020437518 0)
(-0.00011934369 -0.0017929735 0)
(-0.00013498241 -0.0015265009 0)
(-0.00015020092 -0.0012471777 0)
(-0.00016444739 -0.00095768916 0)
(-0.00017720749 -0.00066125018 0)
(-0.00018850956 -0.00036093048 0)
(-0.00019807102 -5.8966371e-05 0)
(-0.0002053423 0.00024135779 0)
(-0.00021066732 0.00053669796 0)
(-0.00021392852 0.00082526786 0)
(-0.00021457758 0.0011038466 0)
(-0.00021266278 0.0013697136 0)
(-0.000208246 0.0016205719 0)
(-0.00020101779 0.0018546525 0)
(-0.00019067092 0.0020697742 0)
(-0.00017736528 0.0022641414 0)
(-0.00016119491 0.0024366442 0)
(-0.00014212148 0.0025863068 0)
(-0.00012036813 0.0027120733 0)
(-9.6241762e-05 0.0028133897 0)
(-7.0165999e-05 0.0028896837 0)
(-4.2699869e-05 0.0029407085 0)
(-1.4337168e-05 0.002966282 0)
(5.9578572e-05 0.0028948569 0)
(0.00017800483 0.0028702733 0)
(0.00029419416 0.0028212012 0)
(0.00040670871 0.0027478584 0)
(0.00051422165 0.0026503557 0)
(0.00061547275 0.0025291434 0)
(0.00070939897 0.0023846455 0)
(0.00079509334 0.0022176989 0)
(0.00087182243 0.002029253 0)
(0.00093900455 0.0018204322 0)
(0.00099612788 0.0015927972 0)
(0.0010429142 0.0013482661 0)
(0.0010792264 0.0010887961 0)
(0.0011048441 0.00081671595 0)
(0.0011195944 0.00053461968 0)
(0.0011235338 0.00024536605 0)
(0.0011166278 -4.85885e-05 0)
(0.0010988077 -0.00034430066 0)
(0.001070356 -0.00063888107 0)
(0.0010315833 -0.00092975081 0)
(0.00098291021 -0.0012140736 0)
(0.00092509208 -0.00148892 0)
(0.00085900293 -0.0017515403 0)
(0.0007855518 -0.0019991005 0)
(0.00070574647 -0.0022286264 0)
(0.00062070701 -0.002437181 0)
(0.00053143517 -0.0026221181 0)
(0.0004388098 -0.0027807246 0)
(0.00034362556 -0.0029107217 0)
(0.00024663158 -0.0030100474 0)
(0.00014845734 -0.0030772232 0)
(4.9566643e-05 -0.0031110892 0)
(-4.9566644e-05 -0.0031110892 0)
(-0.00014845734 -0.0030772232 0)
(-0.00024663158 -0.0030100474 0)
(-0.00034362556 -0.0029107217 0)
(-0.0004388098 -0.0027807246 0)
(-0.00053143517 -0.0026221181 0)
(-0.00062070701 -0.002437181 0)
(-0.00070574647 -0.0022286264 0)
(-0.0007855518 -0.0019991005 0)
(-0.00085900293 -0.0017515403 0)
(-0.00092509208 -0.00148892 0)
(-0.00098291021 -0.0012140736 0)
(-0.0010315833 -0.00092975081 0)
(-0.001070356 -0.00063888107 0)
(-0.0010988077 -0.00034430066 0)
(-0.0011166278 -4.8588499e-05 0)
(-0.0011235338 0.00024536605 0)
(-0.0011195944 0.00053461968 0)
(-0.0011048441 0.00081671595 0)
(-0.0010792264 0.0010887961 0)
(-0.0010429142 0.0013482661 0)
(-0.00099612788 0.0015927972 0)
(-0.00093900455 0.0018204322 0)
(-0.00087182243 0.002029253 0)
(-0.00079509334 0.0022176989 0)
(-0.00070939897 0.0023846455 0)
(-0.00061547275 0.0025291434 0)
(-0.00051422165 0.0026503557 0)
(-0.00040670871 0.0027478584 0)
(-0.00029419416 0.0028212012 0)
(-0.00017800483 0.0028702733 0)
(-5.9578572e-05 0.0028948569 0)
(0.0001055647 0.0027299097 0)
(0.00031549977 0.0027073387 0)
(0.00052191836 0.002662086 0)
(0.000722389 0.0025943678 0)
(0.00091463677 0.002504335 0)
(0.0010966167 0.0023920031 0)
(0.0012665027 0.002257935 0)
(0.0014227384 0.0021025558 0)
(0.0015638627 0.0019265853 0)
(0.0016887047 0.0017310285 0)
(0.0017963365 0.0015172642 0)
(0.0018860528 0.0012870452 0)
(0.0019573399 0.0010422954 0)
(0.0020097305 0.00078520789 0)
(0.0020428668 0.00051830885 0)
(0.0020565268 0.00024426859 0)
(0.0020504855 -3.4303466e-05 0)
(0.002024608 -0.00031468756 0)
(0.0019790544 -0.00059426001 0)
(0.0019142276 -0.00087058009 0)
(0.0018308243 -0.001141025 0)
(0.0017298552 -0.0014030697 0)
(0.0016125774 -0.001654126 0)
(0.0014805069 -0.0018912805 0)