/*--------------------------------*- C++ -*----------------------------------*\
| =========                 |                                                 |
| \\      /  F ield         | OpenFOAM: The Open Source CFD Toolbox           |
|  \\    /   O peration     | Version:  2106                                  |
|   \\  /    A nd           | Website:  www.openfoam.com                      |
|    \\/     M anipulation  |                                                 |
\*---------------------------------------------------------------------------*/
FoamFile
{
    version     2.0;
    format      ascii;
    arch        "LSB;label=32;scalar=64";
    class       surfaceScalarField;
    location    "0.011";
    object      phi_0;
}
// * * * * * * * * * * * * * * * * * * * * * * * * * * * * * * * * * * * * * //

dimensions      [0 3 -1 0 0 0 0];

oriented        oriented;

internalField   nonuniform List<scalar> 
8064
(
0.00016181993
-0.00016181993
0.00032197968
-0.00016015975
0.00047883935
-0.00015685967
0.00063079914
-0.00015195979
0.00077631827
-0.00014551913
0.00091393259
-0.00013761432
0.0010422707
-0.00012833809
0.0011600682
-0.00011779752
0.0012661804
-0.00010611219
0.0013595928
-9.3412394e-05
0.0014394301
-7.9837368e-05
0.0015049637
-6.5533579e-05
0.0015556168
-5.0653121e-05
0.001590969
-3.5352123e-05
0.0016107582
-1.9789182e-05
0.0016148819
-4.1236985e-06
0.0016033961
1.1485737e-05
0.0015765116
2.6884523e-05
0.0015345892
4.1922398e-05
0.001478135
5.6454169e-05
0.0014077896
7.0345404e-05
0.001324318
8.3471647e-05
0.0012285978
9.5720188e-05
0.0011216067
0.00010699113
0.0010044088
0.00011719788
0.00087814164
0.00012626713
0.00074400326
0.00013413838
0.00060324019
0.00014076307
0.0004571367
0.00014610349
0.00030700524
0.00015013146
0.00015417806
0.00015282717
2.7885581e-14
0.00015417806
-0.00015417806
0.00015417806
-0.00030700524
0.00015282717
-0.0004571367
0.00015013146
-0.00060324019
0.00014610349
-0.00074400326
0.00014076307
-0.00087814164
0.00013413838
-0.0010044088
0.00012626713
-0.0011216067
0.00011719788
-0.0012285978
0.00010699113
-0.001324318
9.5720188e-05
-0.0014077896
8.3471647e-05
-0.001478135
7.0345404e-05
-0.0015345892
5.6454169e-05
-0.0015765116
4.1922398e-05
-0.0016033961
2.6884523e-05
-0.0016148819
1.1485737e-05
-0.0016107582
-4.1236985e-06
-0.001590969
-1.9789182e-05
-0.0015556168
-3.5352123e-05
-0.0015049637
-5.0653121e-05
-0.0014394301
-6.5533579e-05
-0.0013595928
-7.9837368e-05
-0.0012661804
-9.3412394e-05
-0.0011600682
-0.00010611219
-0.0010422707
-0.00011779752
-0.00091393259
-0.00012833809
-0.00077631827
-0.00013761432
-0.00063079914
-0.00014551913
-0.00047883935
-0.00015195979
-0.00032197968
-0.00015685967
-0.00016181993
-0.00016015975
-0.00016181993
0.00016519948
-0.00032701941
0.00032870232
-0.00032366259
0.00048883274
-0.00031699009
0.0006439562
-0.00030708325
0.00079249876
-0.00029406169
0.00093296516
-0.00027808072
0.0010639552
-0.00025932812
0.0011841782
-0.00023802058
0.0012924661
-0.0002144
0.0013877835
-0.00018872979
0.0014692374
-0.00016129129
0.0015360842
-0.00013238044
0.0015877357
-0.00010230454
0.0016237626
-7.1379105e-05
0.0016438982
-3.9924749e-05
0.0016480383
-8.2638226e-06
0.001636241
2.3283056e-05
0.0016087236
5.4401895e-05
0.0015658583
8.478772e-05
0.0015081641
0.00011414843
0.0014362987
0.00014221079
0.0013510475
0.00016872285
0.0012533108
0.00019345687
0.0011440905
0.00021621137
0.0010244762
0.00023681216
0.00089563112
0.00025511226
0.00075877861
0.00027099089
0.00061519011
0.00028435157
0.00046617385
0.00029511975
0.00031306523
0.00030324009
0.00015721855
0.00030867385
2.7071221e-14
0.00031139662
-0.00015721855
0.00031139662
-0.00031306523
0.00030867385
-0.00046617385
0.00030324009
-0.00061519011
0.00029511975
-0.00075877861
0.00028435157
-0.00089563112
0.00027099089
-0.0010244762
0.00025511226
-0.0011440905
0.00023681216
-0.0012533108
0.00021621137
-0.0013510475
0.00019345687
-0.0014362987
0.00016872285
-0.0015081641
0.00014221079
-0.0015658583
0.00011414843
-0.0016087236
8.478772e-05
-0.001636241
5.4401895e-05
-0.0016480383
2.3283056e-05
-0.0016438982
-8.2638226e-06
-0.0016237626
-3.9924749e-05
-0.0015877357
-7.1379105e-05
-0.0015360842
-0.00010230454
-0.0014692374
-0.00013238044
-0.0013877835
-0.00016129129
-0.0012924661
-0.00018872979
-0.0011841782
-0.0002144
-0.0010639552
-0.00023802058
-0.00093296516
-0.00025932812
-0.00079249876
-0.00027808072
-0.0006439562
-0.00029406169
-0.00048883274
-0.00030708325
-0.00032870232
-0.00031699009
-0.00016519948
-0.00032366259
-0.00032701941
0.00017111711
-0.00049813652
0.00034047462
-0.0004930201
0.00050633477
-0.00048285024
0.00066700287
-0.00046775135
0.00082084757
-0.00044790638
0.0009663195
-0.00042355265
0.0011019682
-0.00039497686
0.0012264572
-0.00036250959
0.0013385768
-0.00032651958
0.0014372551
-0.00028740806
0.0015215672
-0.00024560339
0.0015907428
-0.00020155606
0.0016441721
-0.00015573386
0.0016814104
-0.00010861733
0.0017021807
-6.0695065e-05
0.0017063756
-1.24587e-05
0.0016940562
3.5602427e-05
0.0016654502
8.3007846e-05
0.0016209469
0.0001292911
0.0015610889
0.00017400641
0.0014865638
0.00021673582
0.0013981922
0.00025709449
0.0012969138
0.0002947353
0.0011837731
0.00032935205
0.0010599043
0.00036068101
0.00092651577
0.00038850076
0.00078487623
0.00041263043
0.00063630117
0.00043292663
0.00048214152
0.0004492794
0.00032377373
0.00046160787
0.0001625917
0.00046985589
2.4189014e-14
0.00047398831
-0.0001625917
0.00047398831
-0.00032377373
0.00046985589
-0.00048214152
0.00046160787
-0.00063630117
0.0004492794
-0.00078487623
0.00043292663
-0.00092651577
0.00041263043
-0.0010599043
0.00038850076
-0.0011837731
0.00036068101
-0.0012969138
0.00032935205
-0.0013981922
0.0002947353
-0.0014865638
0.00025709449
-0.0015610889
0.00021673582
-0.0016209469
0.00017400641
-0.0016654502
0.0001292911
-0.0016940562
8.3007846e-05
-0.0017063756
3.5602427e-05
-0.0017021807
-1.24587e-05
-0.0016814104
-6.0695065e-05
-0.0016441721
-0.00010861733
-0.0015907428
-0.00015573386
-0.0015215672
-0.00020155606
-0.0014372551
-0.00024560339
-0.0013385768
-0.00028740806
-0.0012264572
-0.00032651958
-0.0011019682
-0.00036250959
-0.0009663195
-0.00039497686
-0.00082084757
-0.00042355265
-0.00066700287
-0.00044790638
-0.00050633477
-0.00046775135
-0.00034047462
-0.00048285024
-0.00017111711
-0.0004930201
-0.00049813652
0.00017973723
-0.00067787375
0.00035762371
-0.00067090658
0.00053183191
-0.00065705844
0.00070058008
-0.00063649953
0.00086215364
-0.00060947994
0.0010149248
-0.0005763238
0.0011573702
-0.00053742229
0.0012880866
-0.00049322596
0.0014058038
-0.00044423679
0.0015093963
-0.00039100055
0.0015978924
-0.00033409953
0.0016704823
-0.00027414593
0.0017265241
-0.00021177563
0.001765549
-0.00014764222
0.0017872648
-8.2410904e-05
0.001791558
-1.6751879e-05
0.0017784935
4.8666862e-05
0.0017483131
0.00011318827
0.00170143
0.00017617419
0.0016384215
0.00023701498
0.0015600184
0.00029513887
0.0014670928
0.00035002014
0.0013606423
0.0004011858
0.0012417741
0.00044822017
0.0011116881
0.00049076708
0.00097165927
0.00052852955
0.00082302271
0.000561267
0.00066715875
0.00058879058
0.00050548095
0.00061095721
0.00033942591
0.00062766291
0.00017044536
0.00063883643
2.0966893e-14
0.00064443368
-0.00017044536
0.00064443368
-0.00033942591
0.00063883643
-0.00050548095
0.00062766291
-0.00066715875
0.00061095721
-0.00082302271
0.00058879058
-0.00097165927
0.000561267
-0.0011116881
0.00052852955
-0.0012417741
0.00049076708
-0.0013606423
0.00044822017
-0.0014670928
0.0004011858
-0.0015600184
0.00035002014
-0.0016384215
0.00029513887
-0.00170143
0.00023701498
-0.0017483131
0.00017617419
-0.0017784935
0.00011318827
-0.001791558
4.8666862e-05
-0.0017872648
-1.6751879e-05
-0.001765549
-8.2410904e-05
-0.0017265241
-0.00014764222
-0.0016704823
-0.00021177563
-0.0015978924
-0.00027414593
-0.0015093963
-0.00033409953
-0.0014058038
-0.00039100055
-0.0012880866
-0.00044423679
-0.0011573702
-0.00049322596
-0.0010149248
-0.00053742229
-0.00086215364
-0.0005763238
-0.00070058008
-0.00060947994
-0.00053183191
-0.00063649953
-0.00035762371
-0.00065705844
-0.00017973723
-0.00067090658
-0.00067787375
0.00019138998
-0.00086926373
0.00038080662
-0.00086032322
0.00056630166
-0.00084255347
0.00074597624
-0.00081617411
0.00091800383
-0.00078150752
0.0010806511
-0.00073897109
0.0012322967
-0.00068906784
0.001371447
-0.00063237633
0.0014967506
-0.00056954031
0.0016070088
-0.00050125884
0.0017011865
-0.00042827723
0.0017784194
-0.00035137881
0.0018380213
-0.00027137749
0.0018794896
-0.00018911055
0.0019025101
-0.00010543137
0.0019069594
-2.1201223e-05
0.0018929065
6.2719797e-05
0.0018606107
0.00014548411
0.0018105173
0.00022626761
0.0017432495
0.00030428276
0.0016595972
0.00037879117
0.0015605023
0.000449115
0.0014470418
0.00051464627
0.0013204088
0.00057485325
0.0011818925
0.00062928339
0.0010328594
0.00067756259
0.00087473521
0.0007193912
0.0007089886
0.0007545372
0.00053711824
0.00078282757
0.0003606423
0.00080413885
0.00018109074
0.00081838798
1.8872909e-14
0.00082552442
-0.00018109074
0.00082552442
-0.0003606423
0.00081838798
-0.00053711824
0.00080413885
-0.0007089886
0.00078282757
-0.00087473521
0.0007545372
-0.0010328594
0.0007193912
-0.0011818925
0.00067756259
-0.0013204088
0.00062928339
-0.0014470418
0.00057485325
-0.0015605023
0.00051464627
-0.0016595972
0.000449115
-0.0017432495
0.00037879117
-0.0018105173
0.00030428276
-0.0018606107
0.00022626761
-0.0018929065
0.00014548411
-0.0019069594
6.2719797e-05
-0.0019025101
-2.1201223e-05
-0.0018794896
-0.00010543137
-0.0018380213
-0.00018911055
-0.0017784194
-0.00027137749
-0.0017011865
-0.00035137881
-0.0016070088
-0.00042827723
-0.0014967506
-0.00050125884
-0.001371447
-0.00056954031
-0.0012322967
-0.00063237633
-0.0010806511
-0.00068906784
-0.00091800383
-0.00073897109
-0.00074597624
-0.00078150752
-0.00056630166
-0.00081617411
-0.00038080662
-0.00084255347
-0.00019138998
-0.00086032322
-0.00086926373
0.00020656606
-0.0010758298
0.00041099995
-0.0010647571
0.00061119704
-0.0010427506
0.00080510677
-0.0010100838
0.0009907576
-0.00096715835
0.0011662795
-0.00091449299
0.0013299238
-0.00085271216
0.0014800802
-0.0007825327
0.0016152908
-0.0007047509
0.0017342622
-0.00062023025
0.0018358754
-0.00052989045
0.0019191944
-0.0004346978
0.0019834737
-0.00033565675
0.0020281649
-0.00023380183
0.0020529229
-0.00013018937
0.0020576097
-2.588796e-05
0.0020422969
7.8032557e-05
0.0020072655
0.0001805155
0.0019530014
0.00028053173
0.0018801871
0.00037709705
0.0017896893
0.00046928901
0.0016825418
0.00055626242
0.0015599261
0.00063726203
0.0014231482
0.00071163118
0.0012736159
0.00077881559
0.0011128163
0.00083836223
0.00094229415
0.00088991336
0.00076363433
0.00093319701
0.00057844709
0.00096801481
0.00038835716
0.00099422878
0.00019499649
0.0010117486
1.8315361e-14
0.0010205209
-0.00019499649
0.0010205209
-0.00038835716
0.0010117486
-0.00057844709
0.00099422878
-0.00076363433
0.00096801481
-0.00094229415
0.00093319701
-0.0011128163
0.00088991336
-0.0012736159
0.00083836223
-0.0014231482
0.00077881559
-0.0015599261
0.00071163118
-0.0016825418
0.00063726203
-0.0017896893
0.00055626242
-0.0018801871
0.00046928901
-0.0019530014
0.00037709705
-0.0020072655
0.00028053173
-0.0020422969
0.0001805155
-0.0020576097
7.8032557e-05
-0.0020529229
-2.588796e-05
-0.0020281649
-0.00013018937
-0.0019834737
-0.00023380183
-0.0019191944
-0.00033565675
-0.0018358754
-0.0004346978
-0.0017342622
-0.00052989045
-0.0016152908
-0.00062023025
-0.0014800802
-0.0007047509
-0.0013299238
-0.0007825327
-0.0011662795
-0.00085271216
-0.0009907576
-0.00091449299
-0.00080510677
-0.00096715835
-0.00061119704
-0.0010100838
-0.00041099995
-0.0010427506
-0.00020656606
-0.0010647571
-0.0010758298
0.00022591037
-0.0013017402
0.00044948727
-0.001288334
0.00066842783
-0.0012616911
0.00088048926
-0.0012221453
0.0010835163
-0.0011701854
0.0012754656
-0.0011064423
0.0014544271
-0.0010316737
0.0016186422
-0.00094674773
0.0017665178
-0.0008526265
0.0018966391
-0.00075035163
0.0020077799
-0.00064103119
0.002098911
-0.00052582896
0.0021692095
-0.00040595523
0.0022180662
-0.00028265852
0.0022450935
-0.00015721663
0.0022501316
-3.0926042e-05
0.002233253
9.4911072e-05
0.0021947638
0.00021900476
0.0021351997
0.0003400958
0.0020553182
0.00045697859
0.0019560837
0.0005685235
0.0018386484
0.00067369772
0.001704328
0.00077158239
0.001554575
0.00086138417
0.0013909505
0.00094244016
0.0012150967
0.001014216
0.0010287126
0.0010762975
0.00083353241
0.0011283772
0.00063130969
0.0011702375
0.00042380556
0.0012017329
0.00021278219
0.001222772
1.9691554e-14
0.0012333031
-0.00021278219
0.0012333031
-0.00042380556
0.001222772
-0.00063130969
0.0012017329
-0.00083353241
0.0011702375
-0.0010287126
0.0011283772
-0.0012150967
0.0010762975
-0.0013909505
0.001014216
-0.001554575
0.00094244016
-0.001704328
0.00086138417
-0.0018386484
0.00077158239
-0.0019560837
0.00067369772
-0.0020553182
0.0005685235
-0.0021351997
0.00045697859
-0.0021947638
0.0003400958
-0.002233253
0.00021900476
-0.0022501316
9.4911072e-05
-0.0022450935
-3.0926042e-05
-0.0022180662
-0.00015721663
-0.0021692095
-0.00028265852
-0.002098911
-0.00040595523
-0.0020077799
-0.00052582896
-0.0018966391
-0.00064103119
-0.0017665178
-0.00075035163
-0.0016186422
-0.0008526265
-0.0014544271
-0.00094674773
-0.0012754656
-0.0010316737
-0.0010835163
-0.0011064423
-0.00088048926
-0.0011701854
-0.00066842783
-0.0012221453
-0.00044948727
-0.0012616911
-0.00022591037
-0.001288334
-0.0013017402
0.00025021496
-0.0015519551
0.00049784497
-0.001535964
0.00074033954
-0.0015041857
0.00097521577
-0.0014570215
0.0012000889
-0.0013950585
0.0014126992
-0.0013190526
0.0016109351
-0.0012299096
0.001792852
-0.0011286647
0.0019566879
-0.0010164624
0.0021008752
-0.00089453891
0.0022240516
-0.00076420764
0.0023250698
-0.00062684714
0.0024030067
-0.0004838921
0.0024571733
-0.00033682521
0.0024871252
-0.00018716847
0.002492671
-3.6471837e-05
0.0024738804
0.00011370163
0.0024310874
0.00026179776
0.0023648883
0.0004062949
0.0022761331
0.00054573382
0.0021659092
0.00067874737
0.0020355184
0.00080408856
0.0018864473
0.00092065344
0.0017203348
0.0010274967
0.0015389372
0.0011238378
0.001344095
0.0012090582
0.001137703
0.0012826896
0.00092168505
0.0013443951
0.00069797607
0.0013939465
0.00046850945
0.0014311995
0.00023521135
0.0014560701
2.1717469e-14
0.0014685145
-0.00023521135
0.0014685145
-0.00046850945
0.0014560701
-0.00069797607
0.0014311995
-0.00092168505
0.0013939465
-0.001137703
0.0013443951
-0.001344095
0.0012826896
-0.0015389372
0.0012090582
-0.0017203348
0.0011238378
-0.0018864473
0.0010274967
-0.0020355184
0.00092065344
-0.0021659092
0.00080408856
-0.0022761331
0.00067874737
-0.0023648883
0.00054573382
-0.0024310874
0.0004062949
-0.0024738804
0.00026179776
-0.002492671
0.00011370163
-0.0024871252
-3.6471837e-05
-0.0024571733
-0.00018716847
-0.0024030067
-0.00033682521
-0.0023250698
-0.0004838921
-0.0022240516
-0.00062684714
-0.0021008752
-0.00076420764
-0.0019566879
-0.00089453891
-0.001792852
-0.0010164624
-0.0016109351
-0.0011286647
-0.0014126992
-0.0012299096
-0.0012000889
-0.0013190526
-0.00097521577
-0.0013950585
-0.00074033954
-0.0014570215
-0.00049784497
-0.0015041857
-0.00025021496
-0.001535964
-0.0015519551
0.00028040632
-0.0018323614
0.000557917
-0.0018134747
0.00082967569
-0.0017759444
0.001092903
-0.0017202488
0.0013449307
-0.0016470861
0.0015832319
-0.0015573538
0.0018054461
-0.0014521238
0.0020093992
-0.0013326178
0.0021931193
-0.0012001825
0.0023548493
-0.0010562689
0.0024930573
-0.00090241562
0.0026064468
-0.00074023661
0.0026939674
-0.00057141279
0.0027548274
-0.00039768518
0.0027885063
-0.00022084736
0.0027947686
-4.2734145e-05
0.0027736752
0.000134795
0.0027255904
0.00030988261
0.0026511821
0.0004807032
0.0025514136
0.00064550235
0.0024275248
0.00080263616
0.0022810045
0.00095060882
0.0021135545
0.0010881035
0.0019270482
0.0012140029
0.0017234883
0.0013273977
0.0015049648
0.0014275816
0.0012736189
0.0015140355
0.0010316127
0.0015864013
0.00078110803
0.0016444512
0.00052425338
0.0016880542
0.00026317924
0.0017171443
2.4197078e-14
0.0017316937
-0.00026317924
0.0017316937
-0.00052425338
0.0017171443
-0.00078110803
0.0016880542
-0.0010316127
0.0016444512
-0.0012736189
0.0015864013
-0.0015049648
0.0015140355
-0.0017234883
0.0014275816
-0.0019270482
0.0013273977
-0.0021135545
0.0012140029
-0.0022810045
0.0010881035
-0.0024275248
0.00095060882
-0.0025514136
0.00080263616
-0.0026511821
0.00064550235
-0.0027255904
0.0004807032
-0.0027736752
0.00030988261
-0.0027947686
0.000134795
-0.0027885063
-4.2734145e-05
-0.0027548274
-0.00022084736
-0.0026939674
-0.00039768518
-0.0026064468
-0.00057141279
-0.0024930573
-0.00074023661
-0.0023548493
-0.00090241562
-0.0021931193
-0.0010562689
-0.0020093992
-0.0012001825
-0.0018054461
-0.0013326178
-0.0015832319
-0.0014521238
-0.0013449307
-0.0015573538
-0.001092903
-0.0016470861
-0.00082967569
-0.0017202488
-0.000557917
-0.0017759444
-0.00028040632
-0.0018134747
-0.0018323614
0.00031752022
-0.0021498817
0.00063176482
-0.0021277193
0.00093950345
-0.002083683
0.0012375941
-0.0020183394
0.0015230222
-0.0019325143
0.0017929344
-0.0018272659
0.0020446657
-0.0017038552
0.0022757615
-0.0015637136
0.002483993
-0.001408414
0.0026673701
-0.001239646
0.0028241517
-0.0010591972
0.0029528561
-0.00086894097
0.0030522732
-0.00067082993
0.0031214798
-0.00046689174
0.0031598565
-0.00025922407
0.0031671067
-4.9984352e-05
0.0031432738
0.00015862788
0.0030887533
0.00036440308
0.0030042969
0.00056515964
0.0028910044
0.0007587949
0.0027503027
0.00094333778
0.0025839124
0.0011169991
0.0023938026
0.0012782134
0.0021821395
0.001425666
0.0019512329
0.0015583042
0.0017034843
0.0016753302
0.0014413414
0.0017761784
0.0011672622
0.0018604805
0.00088368953
0.0019280238
0.00059303783
0.0019787059
0.00029768938
0.0020124927
2.680725e-14
0.0020293831
-0.00029768938
0.0020293831
-0.00059303783
0.0020124927
-0.00088368953
0.0019787059
-0.0011672622
0.0019280238
-0.0014413414
0.0018604805
-0.0017034843
0.0017761784
-0.0019512329
0.0016753302
-0.0021821395
0.0015583042
-0.0023938026
0.001425666
-0.0025839124
0.0012782134
-0.0027503027
0.0011169991
-0.0028910044
0.00094333778
-0.0030042969
0.0007587949
-0.0030887533
0.00056515964
-0.0031432738
0.00036440308
-0.0031671067
0.00015862788
-0.0031598565
-4.9984352e-05
-0.0031214798
-0.00025922407
-0.0030522732
-0.00046689174
-0.0029528561
-0.00067082993
-0.0028241517
-0.00086894097
-0.0026673701
-0.0010591972
-0.002483993
-0.001239646
-0.0022757615
-0.001408414
-0.0020446657
-0.0015637136
-0.0017929344
-0.0017038552
-0.0015230222
-0.0018272659
-0.0012375941
-0.0019325143
-0.00093950345
-0.0020183394
-0.00063176482
-0.002083683
-0.00031752022
-0.0021277193
-0.0021498817
0.00036265617
-0.0025125378
0.00072157675
-0.0024866399
0.0010730787
-0.0024351849
0.0014135811
-0.0023588419
0.0017396505
-0.0022585837
0.0020480384
-0.0021356538
0.002335712
-0.0019915287
0.0025998768
-0.0018278784
0.0028379934
-0.0016465306
0.0030477889
-0.0014494416
0.0032272675
-0.0012386757
0.0033747203
-0.0010163938
0.0034887398
-0.00078484943
0.0035682376
-0.0005463895
0.003612467
-0.00030345353
0.0036210491
-5.8566433e-05
0.0035939974
0.00018567958
0.0035317377
0.00042666281
0.0034351172
0.00066178016
0.0033053983
0.00088851372
0.0031442351
0.001104501
0.0029536315
0.0013076028
0.0027358857
0.0014959591
0.0024935256
0.0016680261
0.0022292402
0.0018225897
0.0019458147
0.0019587557
0.0016460746
0.0020759185
0.001332841
0.0021737141
0.0010089015
0.0022519633
0.00067699523
0.0023106122
0.00033981149
0.0023496764
3.0129318e-14
0.0023691946
-0.00033981149
0.0023691946
-0.00067699523
0.0023496764
-0.0010089015
0.0023106122
-0.001332841
0.0022519633
-0.0016460746
0.0021737141
-0.0019458147
0.0020759185
-0.0022292402
0.0019587557
-0.0024935256
0.0018225897
-0.0027358857
0.0016680261
-0.0029536315
0.0014959591
-0.0031442351
0.0013076028
-0.0033053983
0.001104501
-0.0034351172
0.00088851372
-0.0035317377
0.00066178016
-0.0035939974
0.00042666281
-0.0036210491
0.00018567958
-0.003612467
-5.8566433e-05
-0.0035682376
-0.00030345353
-0.0034887398
-0.0005463895
-0.0033747203
-0.00078484943
-0.0032272675
-0.0010163938
-0.0030477889
-0.0012386757
-0.0028379934
-0.0014494416
-0.0025998768
-0.0016465306
-0.002335712
-0.0018278784
-0.0020480384
-0.0019915287
-0.0017396505
-0.0021356538
-0.0014135811
-0.0022585837
-0.0010730787
-0.0023588419
-0.00072157675
-0.0024351849
-0.00036265617
-0.0024866399
-0.0025125378
0.00041690191
-0.0029294397
0.0008295177
-0.0028992557
0.0012336225
-0.0028392897
0.0016251105
-0.0027503299
0.0020000466
-0.0026335198
0.0023547101
-0.0024903173
0.0026856281
-0.0023224467
0.0029896002
-0.0021318505
0.0032637151
-0.0019206455
0.0035053618
-0.0016910883
0.0037122381
-0.0014455521
0.0038823617
-0.0011865173
0.0040140842
-0.00091657193
0.0041061134
-0.00063841875
0.0041575421
-0.00035488219
0.004167882
-6.890639e-05
0.0041371002
0.00021646138
0.0040656485
0.00049811453
0.0039544809
0.00077294778
0.0038050505
0.0010379441
0.0036192827
0.0012902688
0.0033995246
0.0015273608
0.0031484754
0.0017470083
0.0028691036
0.0019473979
0.0025645611
0.0021271322
0.0022381012
0.0022852155
0.0018930087
0.0024210111
0.0015325455
0.0025341773
0.0011599162
0.0026245926
0.00077825203
0.0026922764
0.00039061225
0.0027373162
3.5306313e-14
0.0027598068
-0.00039061225
0.0027598068
-0.00077825203
0.0027373162
-0.0011599162
0.0026922764
-0.0015325455
0.0026245926
-0.0018930087
0.0025341773
-0.0022381012
0.0024210111
-0.0025645611
0.0022852155
-0.0028691036
0.0021271322
-0.0031484754
0.0019473979
-0.0033995246
0.0017470083
-0.0036192827
0.0015273608
-0.0038050505
0.0012902688
-0.0039544809
0.0010379441
-0.0040656485
0.00077294778
-0.0041371002
0.00049811453
-0.004167882
0.00021646138
-0.0041575421
-6.890639e-05
-0.0041061134
-0.00035488219
-0.0040140842
-0.00063841875
-0.0038823617
-0.00091657193
-0.0037122381
-0.0011865173
-0.0035053618
-0.0014455521
-0.0032637151
-0.0016910883
-0.0029896002
-0.0019206455
-0.0026856281
-0.0021318505
-0.0023547101
-0.0023224467
-0.0020000466
-0.0024903173
-0.0016251105
-0.0026335198
-0.0012336225
-0.0027503299
-0.0008295177
-0.0028392897
-0.00041690191
-0.0028992557
-0.0029294397
0.00048121789
-0.0034106576
0.00095749946
-0.0033755373
0.0014239799
-0.0033057701
0.0018759332
-0.0032022832
0.0023088324
-0.003066419
0.0027183986
-0.0028998836
0.0031006398
-0.0027046878
0.0034518763
-0.0024830871
0.0037687587
-0.0022375278
0.0040482765
-0.0019706061
0.0042877666
-0.0016850422
0.0044849217
-0.0013836725
0.0046378065
-0.0010694567
0.004744882
-0.00074549423
0.0048050416
-0.00041504174
0.0048176559
-8.1520728e-05
0.0047826227
0.00025149462
0.0047004108
0.00058032635
0.0045720898
0.00090126879
0.0043993319
0.0012107021
0.0041843826
0.0015052182
0.0039299988
0.0017817446
0.0036393611
0.002037646
0.003315969
0.0022707899
0.0029635319
0.0024795692
0.0025858663
0.0026628812
0.0021868078
0.0028200695
0.0017701463
0.0029508388
0.001339584
0.0030551549
0.00089871894
0.0031331414
0.00045105009
0.0031849851
4.2509567e-14
0.0032108569
-0.00045105009
0.0032108569
-0.00089871894
0.0031849851
-0.001339584
0.0031331414
-0.0017701463
0.0030551549
-0.0021868078
0.0029508388
-0.0025858663
0.0028200695
-0.0029635319
0.0026628812
-0.003315969
0.0024795692
-0.0036393611
0.0022707899
-0.0039299988
0.002037646
-0.0041843826
0.0017817446
-0.0043993319
0.0015052182
-0.0045720898
0.0012107021
-0.0047004108
0.00090126879
-0.0047826227
0.00058032635
-0.0048176559
0.00025149462
-0.0048050416
-8.1520728e-05
-0.004744882
-0.00041504174
-0.0046378065
-0.00074549423
-0.0044849217
-0.0010694567
-0.0042877666
-0.0013836725
-0.0040482765
-0.0016850422
-0.0037687587
-0.0019706061
-0.0034518763
-0.0022375278
-0.0031006398
-0.0024830871
-0.0027183986
-0.0027046878
-0.0023088324
-0.0028998836
-0.0018759332
-0.003066419
-0.0014239799
-0.0032022832
-0.00095749946
-0.0033057701
-0.00048121789
-0.0033755373
-0.0034106576
0.00055627205
-0.0039669297
0.001106852
-0.0039261172
0.001646131
-0.0038450491
0.0021686622
-0.0037248144
0.0026692296
-0.0035669864
0.0031429057
-0.0033735597
0.003585094
-0.0031468761
0.0039915585
-0.0028895515
0.0043584401
-0.0026044095
0.004682266
-0.002294432
0.0049599543
-0.0019627305
0.0051888214
-0.0016125395
0.0053665965
-0.0012472318
0.0054914492
-0.00087034692
0.0055620313
-0.00048562382
0.0055775342
-9.7023678e-05
0.0055377563
0.00029127252
0.0054431675
0.00067491518
0.0052949558
0.0010494805
0.0050950393
0.0014106185
0.0048460343
0.0017542232
0.0045511795
0.0020765994
0.0042142256
0.0023745999
0.0038393024
0.0026457131
0.003430781
0.0028880907
0.0029931445
0.0031005178
0.00253088
0.003282334
0.0020483988
0.0034333201
0.0015499878
0.0035535659
0.0010397923
0.0036433369
0.00052182546
0.0037029519
4.9021564e-14
0.0037326824
-0.00052182546
0.0037326824
-0.0010397923
0.0037029519
-0.0015499878
0.0036433369
-0.0020483988
0.0035535659
-0.00253088
0.0034333201
-0.0029931445
0.003282334
-0.003430781
0.0031005178
-0.0038393024
0.0028880907
-0.0042142256
0.0026457131
-0.0045511795
0.0023745999
-0.0048460343
0.0020765994
-0.0050950393
0.0017542232
-0.0052949558
0.0014106185
-0.0054431675
0.0010494805
-0.0055377563
0.00067491518
-0.0055775342
0.00029127252
-0.0055620313
-9.7023678e-05
-0.0054914492
-0.00048562382
-0.0053665965
-0.00087034692
-0.0051888214
-0.0012472318
-0.0049599543
-0.0016125395
-0.004682266
-0.0019627305
-0.0043584401
-0.002294432
-0.0039915585
-0.0026044095
-0.003585094
-0.0028895515
-0.0031429057
-0.0031468761
-0.0026692296
-0.0033735597
-0.0021686622
-0.0035669864
-0.001646131
-0.0037248144
-0.001106852
-0.0038450491
-0.00055627205
-0.0039261172
-0.0039669297
0.00064221703
-0.0046091467
0.0012778805
-0.0045617807
0.0019005335
-0.0044677021
0.0025039061
-0.004328187
0.003081996
-0.0041450764
0.0036291341
-0.0039206977
0.0041400332
-0.0036577753
0.004609821
-0.0033593393
0.0050340582
-0.0030286466
0.0054087454
-0.0026691193
0.0057303266
-0.0022843117
0.0059956926
-0.0018779055
0.0062021928
-0.0014537321
0.0063476623
-0.0010158164
0.0064304676
-0.00056842917
0.0064495772
-0.00011613326
0.0064046501
0.00033619963
0.0062961297
0.0007834356
0.0061253164
0.0012202937
0.0058943951
0.0016415398
0.0056064021
0.0020422163
0.0052651328
0.0024178687
0.0048750018
0.0027647309
0.0044408749
0.00307984
0.003967895
0.0033610705
0.0034613214
0.0036070914
0.0029263966
0.0038172588
0.0023682505
0.0039914661
0.0017918443
0.0041299721
0.0012019527
0.0042332286
0.00060317948
0.0043017251
5.0134749e-14
0.0043358618
-0.00060317948
0.0043358618
-0.0012019527
0.0043017251
-0.0017918443
0.0042332286
-0.0023682505
0.0041299721
-0.0029263966
0.0039914661
-0.0034613214
0.0038172588
-0.003967895
0.0036070914
-0.0044408749
0.0033610705
-0.0048750018
0.00307984
-0.0052651328
0.0027647309
-0.0056064021
0.0024178687
-0.0058943951
0.0020422163
-0.0061253164
0.0016415398
-0.0062961297
0.0012202937
-0.0064046501
0.0007834356
-0.0064495772
0.00033619963
-0.0064304676
-0.00011613326
-0.0063476623
-0.00056842917
-0.0062021928
-0.0010158164
-0.0059956926
-0.0014537321
-0.0057303266
-0.0018779055
-0.0054087454
-0.0022843117
-0.0050340582
-0.0026691193
-0.004609821
-0.0030286466
-0.0041400332
-0.0033593393
-0.0036291341
-0.0036577753
-0.003081996
-0.0039206977
-0.0025039061
-0.0041450764
-0.0019005335
-0.004328187
-0.0012778805
-0.0044677021
-0.00064221703
-0.0045617807
-0.0046091467
0.00073840682
-0.0053475535
0.0014693021
-0.005292676
0.0021852849
-0.0051836848
0.0028791685
-0.0050220705
0.0035440724
-0.0048099803
0.0041734979
-0.0045501232
0.0047613844
-0.0042456618
0.005302147
-0.003900102
0.0057906974
-0.0035171969
0.0062224513
-0.0031008732
0.0065933297
-0.0026551901
0.0068997576
-0.0021843334
0.0071386706
-0.0016926451
0.0073075345
-0.0011846802
0.0074043903
-0.00066528499
0.007427934
-0.00013967699
0.0073776322
0.00038650148
0.0072538565
0.00090721122
0.0070579973
0.0014161529
0.0067925155
0.0019070217
0.0064609113
0.0023738204
0.0060676107
0.0028111693
0.0056177874
0.0032145542
0.0051171506
0.0035804768
0.0045717263
0.0039064949
0.0039876582
0.0041911594
0.0033710467
0.0044338703
0.0027278345
0.0046346783
0.0020637429
0.0047940637
0.0013842548
0.0049127167
0.00069463814
0.0049913417
4.5327628e-14
0.0050305
-0.00069463814
0.0050305
-0.0013842548
0.0049913417
-0.0020637429
0.0049127167
-0.0027278345
0.0047940637
-0.0033710467
0.0046346783
-0.0039876582
0.0044338703
-0.0045717263
0.0041911594
-0.0051171506
0.0039064949
-0.0056177874
0.0035804768
-0.0060676107
0.0032145542
-0.0064609113
0.0028111693
-0.0067925155
0.0023738204
-0.0070579973
0.0019070217
-0.0072538565
0.0014161529
-0.0073776322
0.00090721122
-0.007427934
0.00038650148
-0.0074043903
-0.00013967699
-0.0073075345
-0.00066528499
-0.0071386706
-0.0011846802
-0.0068997576
-0.0016926451
-0.0065933297
-0.0021843334
-0.0062224513
-0.0026551901
-0.0057906974
-0.0031008732
-0.005302147
-0.0035171969
-0.0047613844
-0.003900102
-0.0041734979
-0.0042456618
-0.0035440724
-0.0045501232
-0.0028791685
-0.0048099803
-0.0021852849
-0.0050220705
-0.0014693021
-0.0051836848
-0.00073840682
-0.005292676
-0.0053475535
0.0008430574
-0.0061906109
0.0016775713
-0.0061271899
0.0024951221
-0.0060012357
0.0032875318
-0.0058144801
0.0040469668
-0.0055694154
0.0047660249
-0.0052691813
0.0054378
-0.0049174369
0.0060559275
-0.0045182294
0.0066146101
-0.0040758796
0.0071086301
-0.0035948933
0.0075333498
-0.0030799097
0.0078847065
-0.0025356902
0.008159208
-0.0019671465
0.0083539358
-0.0013794081
0.0084665759
-0.00077792503
0.008495498
-0.00016859913
0.0084399031
0.00044209639
0.0083000181
0.0010470962
0.0080772737
0.0016388974
0.0077743971
0.0022098983
0.0073953855
0.002752832
0.0069453634
0.0032611914
0.006430356
0.0037295617
0.0058570188
0.004153814
0.0052323654
0.0045311483
0.0045635236
0.0048600012
0.0038575427
0.0051398513
0.0031212601
0.0053709609
0.0023612313
0.0055540925
0.0015837147
0.0056902333
0.00079470474
0.0057803517
4.0305855e-14
0.0058252047
-0.00079470473
0.0058252047
-0.0015837147
0.0057803517
-0.0023612313
0.0056902333
-0.0031212601
0.0055540925
-0.0038575427
0.0053709609
-0.0045635236
0.0051398513
-0.0052323654
0.0048600012
-0.0058570188
0.0045311483