/*--------------------------------*- C++ -*----------------------------------*\
| =========                 |                                                 |
| \\      /  F ield         | OpenFOAM: The Open Source CFD Toolbox           |
|  \\    /   O peration     | Version:  2106                                  |
|   \\  /    A nd           | Website:  www.openfoam.com                      |
|    \\/     M anipulation  |                                                 |
\*---------------------------------------------------------------------------*/
FoamFile
{
    version     2.0;
    format      ascii;
    arch        "LSB;label=32;scalar=64";
    class       volVectorField;
    location    "0.2";
    object      U;
}
// * * * * * * * * * * * * * * * * * * * * * * * * * * * * * * * * * * * * * //

dimensions      [0 1 -1 0 0 0 0];

internalField   nonuniform List<vector> 
32768
(
(4.0922788e-05 -0.00061949425 0)
(0.0028794777 -0.0014251406 0)
(0.007130712 -0.001775433 0)
(0.011884174 -0.0019865297 0)
(0.016865119 -0.0020629372 0)
(0.02194682 -0.0020903128 0)
(0.027059769 -0.0020997899 0)
(0.032179494 -0.0021032127 0)
(0.037307968 -0.0021201973 0)
(0.042444482 -0.0021654378 0)
(0.047578954 -0.0022197212 0)
(0.052707702 -0.0022736048 0)
(0.057829665 -0.0023237507 0)
(0.062941182 -0.0023675854 0)
(0.068045537 -0.0024099872 0)
(0.073133937 -0.0024430361 0)
(0.078225263 -0.0024801979 0)
(0.083293296 -0.0025002964 0)
(0.088379155 -0.0025302489 0)
(0.093437841 -0.0025523945 0)
(0.098511878 -0.0025555142 0)
(0.10358223 -0.0026145528 0)
(0.10864881 -0.0025649157 0)
(0.11371538 -0.0026677447 0)
(0.11880593 -0.0025999088 0)
(0.12390533 -0.0026627824 0)
(0.12893531 -0.0027021881 0)
(0.13411434 -0.0026339998 0)
(0.1392215 -0.0027444463 0)
(0.14424031 -0.0027237934 0)
(0.14949463 -0.002685803 0)
(0.15468055 -0.0027978332 0)
(0.15969323 -0.0027720001 0)
(0.16492277 -0.0027267058 0)
(0.17024249 -0.0028351846 0)
(0.17537471 -0.002841391 0)
(0.1805018 -0.0027670976 0)
(0.18578653 -0.0028506578 0)
(0.19112673 -0.0028894824 0)
(0.19637995 -0.0028483498 0)
(0.20152821 -0.0028627471 0)
(0.20676224 -0.0028915387 0)
(0.21216512 -0.0028894603 0)
(0.21752052 -0.0029237768 0)
(0.22271278 -0.0029264483 0)
(0.22792054 -0.0028747637 0)
(0.23321433 -0.0028964769 0)
(0.2385282 -0.0029662806 0)
(0.24390139 -0.0029401481 0)
(0.24920918 -0.0029035756 0)
(0.25429353 -0.0029115912 0)
(0.259424 -0.0028911738 0)
(0.26477113 -0.0029302218 0)
(0.27011933 -0.0029451497 0)
(0.27532327 -0.0029124157 0)
(0.28043284 -0.0028916321 0)
(0.28550799 -0.0028520415 0)
(0.29055926 -0.002866628 0)
(0.29571898 -0.0029092821 0)
(0.30097313 -0.0028963297 0)
(0.30607592 -0.002845629 0)
(0.31101374 -0.002831541 0)
(0.31597686 -0.002825494 0)
(0.32097372 -0.0028072981 0)
(0.32586992 -0.0028105145 0)
(0.33074967 -0.0027955436 0)
(0.33578296 -0.0028081122 0)
(0.3408271 -0.0028198923 0)
(0.34564548 -0.0027361138 0)
(0.35029235 -0.002693337 0)
(0.35499257 -0.0027406241 0)
(0.35980186 -0.0027408255 0)
(0.36459283 -0.0026984015 0)
(0.36931298 -0.0027131196 0)
(0.37403709 -0.0027301337 0)
(0.37877718 -0.0026635486 0)
(0.38341587 -0.0026305153 0)
(0.38791292 -0.0026748212 0)
(0.39243234 -0.0026405587 0)
(0.39705921 -0.0025946128 0)
(0.40163271 -0.002670194 0)
(0.40611408 -0.0026563922 0)
(0.41062519 -0.002548255 0)
(0.41511694 -0.0026010554 0)
(0.41958437 -0.0026575246 0)
(0.42414047 -0.0025606222 0)
(0.42864733 -0.0025353998 0)
(0.43290246 -0.0025845358 0)
(0.4370849 -0.0025287507 0)
(0.44144511 -0.0024923318 0)
(0.44588749 -0.0025884019 0)
(0.45024684 -0.0025953452 0)
(0.45454017 -0.0024869424 0)
(0.45881072 -0.0024919088 0)
(0.46310533 -0.0025587039 0)
(0.46746404 -0.0025166371 0)
(0.47178464 -0.0024598203 0)
(0.4759152 -0.0024833072 0)
(0.47992455 -0.0024717743 0)
(0.48399202 -0.0024258802 0)
(0.48814633 -0.0024688629 0)
(0.49237091 -0.0025300964 0)
(0.49664468 -0.0025011833 0)
(0.50084276 -0.0024416339 0)
(0.50490538 -0.0024367605 0)
(0.50893228 -0.0024575713 0)
(0.51302204 -0.0024277973 0)
(0.5171434 -0.0024029602 0)
(0.52119795 -0.0024477934 0)
(0.52517761 -0.0024490474 0)
(0.52913369 -0.0023615836 0)
(0.5330527 -0.0023608339 0)
(0.53695017 -0.0024454619 0)
(0.54094425 -0.0024280841 0)
(0.54502412 -0.0023642625 0)
(0.54902532 -0.0023887618 0)
(0.55291388 -0.0023959708 0)
(0.55678213 -0.0023381752 0)
(0.56067418 -0.0022945491 0)
(0.56456898 -0.0023318132 0)
(0.56844746 -0.0023467377 0)
(0.57227892 -0.0023121868 0)
(0.57601836 -0.0022627745 0)
(0.57968347 -0.0022544744 0)
(0.58334452 -0.0023069454 0)
(0.58707795 -0.0023295711 0)
(0.59093748 -0.0022795948 0)
(0.59483467 -0.0022847504 0)
(0.59861108 -0.0023268019 0)
(0.60228703 -0.0022662985 0)
(0.60594792 -0.0021856383 0)
(0.6095553 -0.0022216666 0)
(0.61311773 -0.0022751013 0)
(0.61675798 -0.0022236699 0)
(0.62049183 -0.0021701394 0)
(0.62419581 -0.0021895615 0)
(0.62782964 -0.0022160522 0)
(0.63140818 -0.0021584082 0)
(0.63489678 -0.0021347024 0)
(0.63831865 -0.0021587306 0)
(0.64178104 -0.0022146538 0)
(0.64536333 -0.002222938 0)
(0.64901323 -0.0022093295 0)
(0.65260944 -0.0021663312 0)
(0.65609473 -0.0021238949 0)
(0.65948205 -0.0021121989 0)
(0.66285352 -0.0021106034 0)
(0.66628037 -0.0021075622 0)
(0.6697713 -0.0021133218 0)
(0.67335996 -0.0021312921 0)
(0.67702268 -0.0021462078 0)
(0.68064613 -0.0021233712 0)
(0.68414361 -0.0020629969 0)
(0.68747193 -0.0020225638 0)
(0.69067707 -0.0020300859 0)
(0.69389089 -0.0020367861 0)
(0.69718395 -0.0020343301 0)
(0.70053616 -0.0020566492 0)
(0.70392393 -0.002065424 0)
(0.7073335 -0.0020511489 0)
(0.71073443 -0.0020216929 0)
(0.71412392 -0.0020048661 0)
(0.71751541 -0.0020076991 0)
(0.72089665 -0.0020184324 0)
(0.72425492 -0.002009479 0)
(0.72760912 -0.0019945354 0)
(0.73093207 -0.0019533377 0)
(0.73416114 -0.0019408906 0)
(0.7373263 -0.0019795232 0)
(0.74048185 -0.0019765794 0)
(0.74364679 -0.0019348977 0)
(0.7468509 -0.0019269207 0)
(0.75007842 -0.0019537282 0)
(0.75331746 -0.0019508294 0)
(0.75658202 -0.0018933702 0)
(0.75986771 -0.0018330609 0)
(0.76312171 -0.0018255832 0)
(0.76628182 -0.0018072675 0)
(0.76937083 -0.0017673707 0)
(0.77243032 -0.0017375921 0)
(0.77546382 -0.0017365837 0)
(0.77852707 -0.001770173 0)
(0.78171891 -0.0017854331 0)
(0.78506491 -0.0017492191 0)
(0.78847692 -0.0016847463 0)
(0.79168174 -0.0016180276 0)
(0.79456703 -0.0016125526 0)
(0.79725167 -0.0016048786 0)
(0.79978326 -0.001591748 0)
(0.80224039 -0.0016181663 0)
(0.80471369 -0.0016442878 0)
(0.80727959 -0.0016375584 0)
(0.81001475 -0.0016421911 0)
(0.81294503 -0.0015956687 0)
(0.81601603 -0.0014035949 0)
(0.81906471 -0.0010829502 0)
(0.82168067 -0.00083670033 0)
(0.82401863 -0.00076183449 0)
(0.82609331 -0.00080337336 0)
(0.82810144 -0.00087527235 0)
(0.83021718 -0.00098610568 0)
(0.83238853 -0.0011202893 0)
(0.83449741 -0.0012117885 0)
(0.83649637 -0.0011925306 0)
(0.83837507 -0.001069828 0)
(0.84016889 -0.00084764496 0)
(0.84191153 -0.00051403765 0)
(0.84370807 -7.3173069e-05 0)
(0.84546086 0.00034689966 0)
(0.84702953 0.00060053966 0)
(0.84839678 0.00072949171 0)
(0.84943415 0.00058163022 0)
(0.85010135 0.00029286867 0)
(0.85033325 0.00031268508 0)
(0.85032935 0.00038583314 0)
(0.85026552 0.00052177005 0)
(0.85016085 0.00067902247 0)
(0.85000119 0.0007872908 0)
(0.84982361 0.00076697 0)
(0.84986874 0.00042569958 0)
(0.85046236 -0.00012777854 0)
(0.85162275 -0.00068996641 0)
(0.85330145 -0.0012026912 0)
(0.85540925 -0.0016049569 0)
(0.85781834 -0.0018985137 0)
(0.86035435 -0.002144383 0)
(0.86286007 -0.0023412215 0)
(0.86527329 -0.002401982 0)
(0.8676081 -0.0023578302 0)
(0.86968615 -0.0023406577 0)
(0.87107507 -0.0021258503 0)
(0.87151058 -0.0015525406 0)
(0.87120788 -0.0009300641 0)
(0.86984269 -0.00032076032 0)
(0.86725945 0.00073940063 0)
(0.86316925 0.0018431355 0)
(0.8572603 0.003498934 0)
(0.84901082 0.0051593278 0)
(0.83719582 0.0075821222 0)
(0.82124687 0.010791745 0)
(0.79970511 0.014162422 0)
(0.77139519 0.018752151 0)
(0.7363203 0.023612278 0)
(0.69198413 0.029662116 0)
(0.6385793 0.035915575 0)
(0.57356572 0.042450141 0)
(0.49550484 0.049701609 0)
(0.40353805 0.058532066 0)
(0.29657657 0.067880425 0)
(0.17946425 0.071730812 0)
(0.05113344 0.062323351 0)
(-0.047341022 0.043850414 0)
(-0.13242471 0.020100795 0)
(-0.17701109 -0.015963763 0)
(-0.143332 -0.066239993 0)
(-0.06683378 -0.089725174 0)
(-5.7574802e-05 -0.0022272842 0)
(0.0031893605 -0.005730913 0)
(0.0084145719 -0.0071292767 0)
(0.013860857 -0.0077538415 0)
(0.019629119 -0.0079954328 0)
(0.02546274 -0.0080837492 0)
(0.031328772 -0.0081142372 0)
(0.037193662 -0.0081142493 0)
(0.043055334 -0.0081092223 0)
(0.048873742 -0.0080701115 0)
(0.054660142 -0.0080136501 0)
(0.060420533 -0.0079507437 0)
(0.066163502 -0.0078906011 0)
(0.071877613 -0.0078332719 0)
(0.07759817 -0.007788279 0)
(0.083255443 -0.0077392268 0)
(0.089005508 -0.0077080847 0)
(0.094557758 -0.0076824046 0)
(0.10042005 -0.0075964108 0)
(0.10579932 -0.0077548566 0)
(0.11182495 -0.0073231186 0)
(0.11705733 -0.0080428785 0)
(0.1231736 -0.0069974958 0)
(0.12837245 -0.0080991859 0)
(0.13443978 -0.0073282068 0)
(0.13994182 -0.0073574444 0)
(0.1453743 -0.0080750576 0)
(0.15167829 -0.0071810581 0)
(0.15684204 -0.0075359494 0)
(0.16247703 -0.007915613 0)
(0.16884314 -0.0074330109 0)
(0.17413382 -0.0074505248 0)
(0.17955756 -0.0077999878 0)
(0.18591688 -0.0076742594 0)
(0.1916744 -0.0075772806 0)
(0.19706153 -0.0076393692 0)
(0.20291245 -0.0075815679 0)
(0.20893305 -0.0078902036 0)
(0.21490012 -0.0077282136 0)
(0.22057675 -0.0075117694 0)
(0.22610692 -0.0076436475 0)
(0.23212111 -0.0079081325 0)
(0.2383745 -0.0077524732 0)
(0.24411331 -0.0076641697 0)
(0.24964941 -0.0076560693 0)
(0.25559971 -0.0076382644 0)
(0.26153167 -0.0076408477 0)
(0.26738526 -0.0079646755 0)
(0.27361603 -0.0077448273 0)
(0.27934056 -0.0073343191 0)
(0.28457054 -0.0076026111 0)
(0.29062253 -0.0075882521 0)
(0.2968071 -0.0077747217 0)
(0.30271329 -0.0076482372 0)
(0.30834975 -0.0074620986 0)
(0.31403154 -0.0074207838 0)
(0.31966487 -0.0072020353 0)
(0.32521572 -0.0074740443 0)
(0.3313197 -0.0076121593 0)
(0.33730547 -0.0074287322 0)
(0.34274087 -0.0072028273 0)
(0.34816398 -0.0072162209 0)
(0.35392315 -0.0072188977 0)
(0.3595838 -0.0070014396 0)
(0.3648365 -0.0070866495 0)
(0.37043743 -0.0072308397 0)
(0.37647155 -0.0072581635 0)
(0.38211663 -0.0071010943 0)
(0.38722676 -0.0067406384 0)
(0.39236427 -0.0067213075 0)
(0.39788172 -0.0069027387 0)
(0.4034738 -0.0068535864 0)
(0.40883752 -0.0067821547 0)
(0.41413808 -0.0068371512 0)
(0.419594 -0.0068740146 0)
(0.42507116 -0.0066673047 0)
(0.43020093 -0.0064499813 0)
(0.43513386 -0.006546261 0)
(0.44044922 -0.0066134484 0)
(0.44595914 -0.0064214502 0)
(0.45098213 -0.006513014 0)
(0.4560383 -0.0065541007 0)
(0.4613548 -0.0062618144 0)
(0.46635033 -0.0064118429 0)
(0.47149523 -0.0066428274 0)
(0.47704253 -0.0063810894 0)
(0.48210354 -0.0061053536 0)
(0.48654951 -0.0061120578 0)
(0.49140876 -0.0061248635 0)
(0.49680762 -0.0061124091 0)
(0.50192503 -0.0063029043 0)
(0.50677238 -0.0062584695 0)
(0.51167838 -0.0059770636 0)
(0.51657619 -0.0060531432 0)
(0.52162418 -0.0062986685 0)
(0.52684672 -0.0061816376 0)
(0.53183795 -0.0058688624 0)
(0.53633992 -0.0057646335 0)
(0.54088633 -0.0057708756 0)
(0.54571454 -0.0057045762 0)
(0.55055522 -0.0059361433 0)
(0.55558562 -0.006086776 0)
(0.56063833 -0.005974641 0)
(0.56535058 -0.0058009844 0)
(0.56991995 -0.005703354 0)
(0.57462368 -0.0057765141 0)
(0.5795284 -0.0058202601 0)
(0.58439356 -0.0056942426 0)
(0.58905947 -0.0056597028 0)
(0.59365002 -0.0056629409 0)
(0.59828033 -0.0054605413 0)
(0.6027631 -0.0053503554 0)
(0.60726084 -0.0056875323 0)
(0.61212578 -0.0057467169 0)
(0.61699388 -0.0055603226 0)
(0.62154926 -0.0055494952 0)
(0.62601313 -0.0055745966 0)
(0.63057682 -0.0054475954 0)
(0.63523135 -0.0054174849 0)
(0.63989189 -0.0055000187 0)
(0.64452116 -0.0054982159 0)
(0.64900315 -0.005280831 0)
(0.65329614 -0.0051116384 0)
(0.65756628 -0.0050819629 0)
(0.66182918 -0.0052033781 0)
(0.66627215 -0.005388221 0)
(0.67109407 -0.0053623447 0)
(0.67578434 -0.0053242578 0)
(0.68008469 -0.0053325421 0)
(0.68442293 -0.005163578 0)
(0.68884722 -0.0049350198 0)
(0.693043 -0.0049699012 0)
(0.69720961 -0.0051594026 0)
(0.70170873 -0.0051910694 0)
(0.70628807 -0.0051174855 0)
(0.71066114 -0.0051998893 0)
(0.71501035 -0.0051255336 0)
(0.71925685 -0.004895572 0)
(0.72329733 -0.0047287848 0)
(0.72730359 -0.0047976385 0)
(0.73150832 -0.0049434744 0)
(0.73602393 -0.0050299722 0)
(0.7405193 -0.0050620184 0)
(0.74480932 -0.0049910732 0)
(0.74889308 -0.0047740969 0)
(0.75280301 -0.0047292058 0)
(0.75682108 -0.004741122 0)
(0.76092731 -0.004802029 0)
(0.76513217 -0.0050096838 0)
(0.76962224 -0.0052125302 0)
(0.77417092 -0.0051877141 0)
(0.77863777 -0.00500355 0)
(0.78289718 -0.004818827 0)
(0.78677468 -0.0046026474 0)
(0.79056126 -0.0044401823 0)
(0.79452381 -0.0045145778 0)
(0.79859104 -0.004618014 0)
(0.80264098 -0.0047155208 0)
(0.80675337 -0.0047870791 0)
(0.81089742 -0.0047679341 0)
(0.81498913 -0.0048115122 0)
(0.81911276 -0.0048271198 0)
(0.82326872 -0.0048107732 0)
(0.82744748 -0.0047720117 0)
(0.83163539 -0.0047664596 0)
(0.83591235 -0.0047802829 0)
(0.84002311 -0.0046141437 0)
(0.84393954 -0.0044776157 0)
(0.84793767 -0.0043570555 0)
(0.85186729 -0.0044455328 0)
(0.85579017 -0.0045114981 0)
(0.85977531 -0.0045137072 0)
(0.86375993 -0.0045334721 0)
(0.86783599 -0.0046078422 0)
(0.87195943 -0.0047574492 0)
(0.87612903 -0.0047014679 0)
(0.88018106 -0.0045717357 0)
(0.88406427 -0.0044902368 0)
(0.8879377 -0.0044203745 0)
(0.89170733 -0.0044304096 0)
(0.89538419 -0.0044142367 0)
(0.899253 -0.0045458053 0)
(0.903533 -0.0048325024 0)
(0.90815801 -0.0050490785 0)
(0.91287758 -0.0049336233 0)
(0.91746003 -0.0045010465 0)
(0.92161472 -0.0040094902 0)
(0.92524111 -0.0036823723 0)
(0.92859212 -0.0034762592 0)
(0.93179768 -0.0033656792 0)
(0.93492685 -0.0034164283 0)
(0.93819698 -0.0036621987 0)
(0.94174452 -0.0040542097 0)
(0.94561354 -0.0044255494 0)
(0.94986068 -0.0046908285 0)
(0.95444381 -0.0046531025 0)
(0.9590218 -0.0042175407 0)
(0.96322152 -0.0037068875 0)
(0.96696432 -0.0033740627 0)
(0.97038158 -0.0033127258 0)
(0.97372076 -0.0033357387 0)
(0.97715222 -0.003198775 0)
(0.98056286 -0.0029501299 0)
(0.98375391 -0.002695687 0)
(0.98660848 -0.0025102221 0)
(0.98921147 -0.0026215092 0)
(0.99184837 -0.0029924964 0)
(0.99483361 -0.0034213543 0)
(0.99844 -0.0037113715 0)
(1.0025747 -0.0036338016 0)
(1.0071376 -0.0031876947 0)
(1.0121531 -0.00231907 0)
(1.0171189 -0.0012577659 0)
(1.0209646 -0.00052918163 0)
(1.024144 -0.00032170601 0)
(1.0266963 -0.00035255555 0)
(1.0287983 -0.00041571037 0)
(1.0305396 -0.00044460578 0)
(1.0320714 -0.00060933639 0)
(1.0333286 -0.00099507161 0)
(1.0347309 -0.0015827663 0)
(1.0365695 -0.0021252315 0)
(1.0387599 -0.0026034381 0)
(1.0412937 -0.0029743541 0)
(1.0439428 -0.0031518315 0)
(1.0464572 -0.0030237067 0)
(1.0487723 -0.0026641326 0)
(1.0510294 -0.0024115058 0)
(1.053296 -0.0022952618 0)
(1.0547937 -0.0012637941 0)
(1.0547302 0.00024690033 0)
(1.053685 0.0012979026 0)
(1.051324 0.0024165824 0)
(1.0475746 0.0041853352 0)
(1.0424187 0.005278807 0)
(1.0375643 0.0089673998 0)
(1.0301067 0.0095972041 0)
(1.0244043 0.015873857 0)
(1.011991 0.019819419 0)
(1.0010444 0.025872227 0)
(0.98034638 0.037075309 0)
(0.95798881 0.043312264 0)
(0.93130295 0.057541525 0)
(0.8917904 0.067263142 0)
(0.85760208 0.084626435 0)
(0.7988502 0.10133501 0)
(0.74678692 0.12186338 0)
(0.66494341 0.14066682 0)
(0.58481895 0.15573833 0)
(0.48881232 0.16913293 0)
(0.3755575 0.17116157 0)
(0.24780793 0.14288597 0)
(0.11433104 0.098339647 0)
(0.048581948 0.035796587 0)
(-0.0056807533 -0.051836808 0)
(-0.0086477313 -0.14302559 0)
(-4.9768876e-05 -0.0037293546 0)
(0.0031879924 -0.0099599254 0)
(0.0083250293 -0.012366142 0)
(0.013720269 -0.013321291 0)
(0.019441654 -0.013702258 0)
(0.02522697 -0.013844228 0)
(0.031035129 -0.01388283 0)
(0.036849528 -0.013879211 0)
(0.042653873 -0.013856332 0)
(0.048446589 -0.0138278 0)
(0.054228341 -0.013800669 0)
(0.05999666 -0.013778877 0)
(0.065759767 -0.013762588 0)
(0.071496022 -0.013753086 0)
(0.077266229 -0.013742475 0)
(0.08292888 -0.013747521 0)
(0.088796965 -0.01372104 0)
(0.094240459 -0.013782138 0)
(0.10041818 -0.01365543 0)
(0.10541464 -0.013932193 0)
(0.1120637 -0.013438417 0)
(0.11668829 -0.014297169 0)
(0.12340197 -0.01310647 0)
(0.12838504 -0.014508604 0)
(0.13439612 -0.01344578 0)
(0.14019378 -0.013713125 0)
(0.14558416 -0.014491319 0)
(0.15171333 -0.013426912 0)
(0.15715472 -0.013907298 0)
(0.1629273 -0.014399221 0)
(0.16895333 -0.013995703 0)
(0.17443651 -0.01366892 0)
(0.18018946 -0.014287713 0)
(0.1862944 -0.014552839 0)
(0.19192414 -0.014028873 0)
(0.19768886 -0.013876948 0)
(0.20353969 -0.014306087 0)
(0.20941852 -0.01497167 0)
(0.21553676 -0.014168109 0)
(0.22110682 -0.013904299 0)
(0.22676987 -0.014341897 0)
(0.23301263 -0.015000629 0)
(0.23919832 -0.014526402 0)
(0.24459643 -0.014234526 0)
(0.25035385 -0.014233968 0)
(0.25673805 -0.01444327 0)
(0.26245079 -0.014552644 0)
(0.268267 -0.015067026 0)
(0.27440814 -0.014494699 0)
(0.28023044 -0.013699029 0)
(0.28559829 -0.014243348 0)
(0.29187564 -0.014673197 0)
(0.29797621 -0.015017909 0)
(0.30368994 -0.014240437 0)
(0.30926662 -0.014103991 0)
(0.31522058 -0.014062029 0)
(0.32098287 -0.013683142 0)
(0.32640455 -0.014516305 0)
(0.33267812 -0.014822595 0)
(0.33878532 -0.014050306 0)
(0.34391443 -0.013533955 0)
(0.34916018 -0.013966039 0)
(0.35530839 -0.013981281 0)
(0.36120304 -0.013472124 0)
(0.36637736 -0.013622132 0)
(0.37193081 -0.014188994 0)
(0.37799746 -0.014350887 0)
(0.38374238 -0.01345193 0)
(0.38855992 -0.012688239 0)
(0.39351111 -0.013293032 0)
(0.39958411 -0.01373946 0)
(0.40557825 -0.01339463 0)
(0.41064928 -0.013202074 0)
(0.41570028 -0.013469974 0)
(0.42131202 -0.013505538 0)
(0.42690404 -0.012937907 0)
(0.43178487 -0.012609774 0)
(0.43668008 -0.012961547 0)
(0.44236865 -0.013096804 0)
(0.4479503 -0.01286547 0)
(0.4529244 -0.012921891 0)
(0.4582616 -0.012752145 0)
(0.46345044 -0.012440661 0)
(0.46814558 -0.012951762 0)
(0.47349732 -0.013210431 0)
(0.47909264 -0.012693205 0)
(0.48391646 -0.012063686 0)
(0.48845687 -0.011997353 0)
(0.4936013 -0.012350458 0)
(0.49909339 -0.012748148 0)
(0.50438303 -0.012735245 0)
(0.50943595 -0.012184756 0)
(0.51405314 -0.011895254 0)
(0.51855748 -0.012448989 0)
(0.52372882 -0.012812313 0)
(0.52917806 -0.012418058 0)
(0.53409866 -0.011769354 0)
(0.53859537 -0.011599096 0)
(0.54336372 -0.011615331 0)
(0.54823837 -0.011772056 0)
(0.55314235 -0.012381842 0)
(0.55846667 -0.012505997 0)
(0.56356874 -0.011999264 0)
(0.56804217 -0.011612734 0)
(0.57234196 -0.011632575 0)
(0.57699155 -0.011894993 0)
(0.58208872 -0.01196886 0)
(0.58703542 -0.011820722 0)
(0.59166914 -0.011669068 0)
(0.59649371 -0.011480845 0)
(0.60134401 -0.011147968 0)
(0.60560631 -0.011304526 0)
(0.61009487 -0.011840267 0)
(0.61528503 -0.011807215 0)
(0.62008373 -0.011562792 0)
(0.62446348 -0.01147301 0)
(0.62903017 -0.011333898 0)
(0.63363705 -0.011289858 0)
(0.63815593 -0.011497916 0)
(0.64284602 -0.011644473 0)
(0.64770288 -0.011413945 0)
(0.65231277 -0.010901396 0)
(0.65653222 -0.01064653 0)
(0.66068284 -0.01073149 0)
(0.66494765 -0.011070213 0)
(0.66956143 -0.011411235 0)
(0.67444822 -0.01146003 0)
(0.67909394 -0.011309966 0)
(0.68349873 -0.011047872 0)
(0.68797819 -0.010694541 0)
(0.69239903 -0.010511803 0)
(0.6965315 -0.010640407 0)
(0.70078544 -0.010883698 0)
(0.70543835 -0.010939382 0)
(0.70998677 -0.010971539 0)
(0.71428617 -0.011017293 0)
(0.71871195 -0.010676901 0)
(0.72294559 -0.010103503 0)
(0.72671167 -0.010011804 0)
(0.73056634 -0.010358359 0)
(0.73489528 -0.010761267 0)
(0.73959567 -0.010910077 0)
(0.74435871 -0.010836629 0)
(0.74898176 -0.010500884 0)
(0.75321641 -0.010075611 0)
(0.75710631 -0.0099893124 0)
(0.76107395 -0.01009244 0)
(0.76502983 -0.010255705 0)
(0.76905157 -0.010772265 0)
(0.77358527 -0.011184418 0)
(0.77820761 -0.011021629 0)
(0.78252533 -0.010526925 0)
(0.78679824 -0.010042826 0)
(0.79082172 -0.0097551767 0)
(0.79458053 -0.0096827832 0)
(0.79860983 -0.0098278533 0)
(0.80290922 -0.010086612 0)
(0.80722982 -0.010288137 0)
(0.81154397 -0.010223944 0)
(0.81565614 -0.010084457 0)
(0.81971104 -0.010170864 0)
(0.82377564 -0.010214492 0)
(0.82760996 -0.010205663 0)
(0.83161052 -0.010143053 0)
(0.83579618 -0.010296538 0)
(0.84011347 -0.010280277 0)
(0.84442675 -0.0099128906 0)
(0.84859556 -0.0097924588 0)
(0.85269003 -0.0096931087 0)
(0.85667338 -0.009684219 0)
(0.86084428 -0.009777701 0)
(0.8649862 -0.0098412594 0)
(0.86879811 -0.0098741646 0)
(0.872785 -0.0099701908 0)
(0.87705447 -0.010125141 0)
(0.88145034 -0.010050115 0)
(0.88573827 -0.0096946202 0)
(0.88968604 -0.0093945618 0)
(0.89352376 -0.0092346656 0)
(0.89735383 -0.0090698106 0)
(0.90078595 -0.0091648716 0)
(0.9041462 -0.0097375906 0)
(0.90801921 -0.010514972 0)
(0.91237863 -0.011058176 0)
(0.91718435 -0.010956377 0)
(0.9220251 -0.010200874 0)
(0.92647632 -0.0091502542 0)
(0.93059363 -0.0083648411 0)
(0.93453475 -0.0079742133 0)
(0.9381993 -0.007831837 0)
(0.94168926 -0.00802776 0)
(0.94536313 -0.0084637135 0)
(0.9491328 -0.0090166451 0)
(0.95275361 -0.0096037558 0)
(0.9565788 -0.010135747 0)
(0.96088636 -0.010166854 0)
(0.96518003 -0.0095005784 0)
(0.96908974 -0.0085708669 0)
(0.97265172 -0.0078046652 0)
(0.97605623 -0.0074354996 0)
(0.97947637 -0.0075901526 0)
(0.98301218 -0.0078303328 0)
(0.98663623 -0.0078081602 0)
(0.99032293 -0.0073944624 0)
(0.99400008 -0.0067091261 0)
(0.9974799 -0.0062957025 0)
(1.0007107 -0.0062657929 0)
(1.0039039 -0.0065471141 0)
(1.0069509 -0.0072505942 0)
(1.0099315 -0.008199068 0)
(1.0135832 -0.0089339428 0)
(1.0178743 -0.0089816182 0)
(1.0223987 -0.0081732092 0)
(1.0268427 -0.0068237153 0)
(1.030916 -0.0053945569 0)
(1.0344518 -0.0041653761 0)
(1.0375055 -0.0032180947 0)
(1.0398701 -0.0024438313 0)
(1.0417926 -0.0019693932 0)
(1.0436654 -0.002273409 0)
(1.0458909 -0.0033669392 0)
(1.0486712 -0.0047044524 0)
(1.0515595 -0.0058502554 0)
(1.0541813 -0.0065580777 0)
(1.0562981 -0.0068387235 0)
(1.0578217 -0.0067994197 0)
(1.0591269 -0.0067365539 0)
(1.0606556 -0.0064844524 0)
(1.0621006 -0.0056559623 0)
(1.0633575 -0.0040826807 0)
(1.0647401 -0.0013684757 0)
(1.0649665 0.002437842 0)
(1.0623644 0.0053052846 0)
(1.0597904 0.0083902638 0)
(1.0557881 0.010060238 0)
(1.0530302 0.012464466 0)
(1.0478977 0.016426154 0)
(1.0427162 0.020843116 0)
(1.0341709 0.030042034 0)
(1.0243662 0.041343796 0)
(1.0070376 0.053223864 0)
(0.99204192 0.068158801 0)
(0.96761517 0.085724827 0)
(0.936202 0.10464869 0)
(0.90075621 0.12602748 0)
(0.8567045 0.1520656 0)
(0.80886955 0.1809809 0)
(0.74776972 0.21535494 0)
(0.68852497 0.23755384 0)
(0.60524613 0.26423843 0)
(0.5351152 0.28030268 0)
(0.4572431 0.27180908 0)
(0.35592529 0.23487505 0)
(0.27146635 0.13513589 0)
(0.16594723 0.0036294151 0)
(0.065601219 -0.07589804 0)
(-2.9859618e-05 -0.0052930094 0)
(0.0032265341 -0.014179809 0)
(0.0083692494 -0.017591249 0)
(0.013780411 -0.018938617 0)
(0.019519372 -0.019473245 0)
(0.025318376 -0.019669278 0)
(0.031139903 -0.019722384 0)
(0.036962644 -0.019712403 0)
(0.042776897 -0.019677005 0)
(0.048577859 -0.019631294 0)
(0.054365161 -0.019580509 0)
(0.060137226 -0.019528693 0)
(0.065900483 -0.019475102 0)
(0.071639477 -0.0194267 0)
(0.077395843 -0.019368469 0)
(0.083074401 -0.019345941 0)
(0.08888536 -0.019254779 0)
(0.094410843 -0.019325884 0)
(0.10042397 -0.019099132 0)
(0.10563168 -0.019417353 0)
(0.11199583 -0.018861147 0)
(0.11687764 -0.019639219 0)
(0.12338359 -0.01860475 0)
(0.12842456 -0.019741943 0)
(0.1344725 -0.018853923 0)
(0.14011835 -0.019101418 0)
(0.14571607 -0.01971078 0)
(0.15157601 -0.01878486 0)
(0.15712864 -0.019289114 0)
(0.16308837 -0.019643681 0)
(0.16871224 -0.019292754 0)
(0.17431542 -0.018981799 0)
(0.18038484 -0.019661509 0)
(0.18618906 -0.019876134 0)
(0.19162018 -0.019149247 0)
(0.1976445 -0.019300115 0)
(0.20372595 -0.019746806 0)
(0.20923634 -0.020256252 0)
(0.21529854 -0.019206557 0)
(0.22088728 -0.019379596 0)
(0.22694758 -0.019708708 0)
(0.23297549 -0.020511375 0)
(0.23905654 -0.019515773 0)
(0.24419167 -0.019343422 0)
(0.25025147 -0.019772556 0)
(0.25694893 -0.020000526 0)
(0.26237455 -0.019653108 0)
(0.26822211 -0.020062059 0)
(0.27391749 -0.019732773 0)
(0.27997469 -0.019087649 0)
(0.28581866 -0.019447229 0)
(0.29204249 -0.019998518 0)
(0.29785118 -0.020156313 0)
(0.3033734 -0.018942389 0)
(0.30881731 -0.019421485 0)
(0.31514698 -0.019262779 0)
(0.32121659 -0.018597601 0)
(0.32645902 -0.019693938 0)
(0.33256165 -0.020067523 0)
(0.33856029 -0.01878542 0)
(0.3435258 -0.018034639 0)
(0.34884176 -0.018898806 0)
(0.35535576 -0.019296946 0)
(0.36142032 -0.018471899 0)
(0.36642125 -0.018072227 0)
(0.3716332 -0.019049668 0)
(0.37763614 -0.019475293 0)
(0.38363312 -0.017683774 0)
(0.38827182 -0.016800846 0)
(0.39320211 -0.01830494 0)
(0.39965666 -0.018998185 0)
(0.40580007 -0.018071495 0)
(0.41055921 -0.017391875 0)
(0.41527907 -0.01778905 0)
(0.4209214 -0.018140405 0)
(0.42673604 -0.017336848 0)
(0.43158182 -0.016756484 0)
(0.43644646 -0.017323087 0)
(0.44230206 -0.017826706 0)
(0.44779161 -0.017505359 0)
(0.45276764 -0.017227587 0)
(0.45822199 -0.016841316 0)
(0.46316907 -0.016578438 0)
(0.46778235 -0.017080591 0)
(0.47334822 -0.017374348 0)
(0.47878802 -0.016974701 0)
(0.48340401 -0.01613113 0)
(0.48820675 -0.01589878 0)
(0.49358339 -0.016665605 0)
(0.49897652 -0.017499238 0)
(0.50425263 -0.017003797 0)
(0.50935404 -0.015767656 0)
(0.51375942 -0.015384055 0)
(0.51811408 -0.016311003 0)
(0.52341222 -0.016946827 0)
(0.5289128 -0.016583983 0)
(0.53364665 -0.015709259 0)
(0.53815272 -0.015371189 0)
(0.5432175 -0.01534885 0)
(0.54804531 -0.015784195 0)
(0.55293381 -0.016600884 0)
(0.5585364 -0.016579192 0)
(0.56356677 -0.015647334 0)
(0.56769708 -0.014891017 0)
(0.57183441 -0.014957231 0)
(0.57655321 -0.01564511 0)
(0.58159964 -0.015846386 0)
(0.5864362 -0.015698093 0)
(0.59119308 -0.015509282 0)
(0.59635742 -0.015188502 0)
(0.60130412 -0.014580996 0)
(0.60547902 -0.014877324 0)
(0.61007804 -0.01546409 0)
(0.61518441 -0.01545076 0)
(0.61964299 -0.01519247 0)
(0.62398761 -0.015048572 0)
(0.6287677 -0.014583797 0)
(0.63331386 -0.014624565 0)
(0.63761309 -0.015109835 -1.3075018e-34)
(0.64234596 -0.01539579 -7.5717296e-30)
(0.64733432 -0.014991807 0)
(0.65196703 -0.014287248 0)
(0.65629519 -0.013783722 0)
(0.66051485 -0.013837515 0)
(0.66473331 -0.014295117 0)
(0.66940389 -0.014917511 0)
(0.67424097 -0.015129595 0)
(0.67871657 -0.014914112 0)
(0.68314663 -0.014297577 -1.3410679e-34)
(0.68767496 -0.013958388 -7.3091199e-30)
(0.69202312 -0.013822752 -1.1893844e-34)
(0.69620021 -0.01384269 -6.9079172e-30)
(0.7006687 -0.014063506 0)
(0.70529326 -0.014294389 0)
(0.70956115 -0.014307082 0)
(0.71385304 -0.014263971 0)
(0.71840243 -0.013781846 0)
(0.72263822 -0.01294184 0)
(0.72637665 -0.012666374 -1.1425964e-34)
(0.73018029 -0.013285056 -6.6751734e-30)
(0.73443799 -0.014151561 0)
(0.73908879 -0.014651956 0)
(0.74389955 -0.014574665 0)
(0.74870091 -0.01392621 0)
(0.75311649 -0.013104349 0)
(0.75723382 -0.012787036 0)
(0.76125333 -0.012752995 0)
(0.76495462 -0.013050279 0)
(0.76879458 -0.013877488 0)
(0.77312048 -0.014499886 0)
(0.7775345 -0.014346754 -1.0995735e-34)
(0.78198863 -0.013868669 -5.9237761e-30)
(0.78627444 -0.013102249 0)
(0.79023831 -0.01240764 0)
(0.79419553 -0.01248269 0)
(0.79821859 -0.012906447 0)
(0.80237522 -0.013264362 0)
(0.80689957 -0.013529574 0)
(0.8114025 -0.013446847 0)
(0.81572718 -0.013119552 0)
(0.81992429 -0.013036586 9.5756086e-35)
(0.82378912 -0.012897709 5.4219131e-30)
(0.82740407 -0.012924861 0)
(0.83122034 -0.013077128 0)
(0.8352529 -0.013452474 9.1428989e-35)
(0.83951823 -0.013396787 5.1911007e-30)
(0.84374796 -0.013038935 0)
(0.84799894 -0.01293402 0)
(0.85256473 -0.012652079 0)
(0.85680524 -0.012628231 0)
(0.86086086 -0.012802968 8.4548326e-35)
(0.86498815 -0.012547313 4.7949777e-30)
(0.86884122 -0.012547294 0)
(0.87258125 -0.013015624 0)
(0.8764703 -0.013371623 0)
(0.88052261 -0.013400841 0)
(0.88481465 -0.0129816 0)
(0.88917065 -0.012471377 0)
(0.89339755 -0.012244372 0)
(0.89724309 -0.011667843 0)
(0.90082145 -0.011243392 0)
(0.90455743 -0.011936429 0)
(0.90838279 -0.013134476 0)
(0.91203668 -0.014107272 0)
(0.91602253 -0.014505346 0)
(0.92049147 -0.013994202 0)
(0.92523313 -0.012834036 0)
(0.92984881 -0.011910434 0)
(0.93415932 -0.011127666 0)
(0.93830652 -0.010425559 0)
(0.9424172 -0.01054745 0)
(0.94655466 -0.011136493 0)
(0.95055034 -0.01146349 0)
(0.95416008 -0.012021618 0)
(0.95770172 -0.013021977 0)
(0.96127307 -0.013256946 0)
(0.96473842 -0.012463165 0)
(0.96791166 -0.011310021 0)
(0.97104244 -0.010470195 0)
(0.97442778 -0.01021316 0)
(0.97805468 -0.010342738 0)
(0.98189554 -0.010402655 0)
(0.98581952 -0.010291771 0)
(0.98968578 -0.0098813177 0)
(0.99352793 -0.0093780948 0)
(0.99738101 -0.0091257281 0)
(1.0011188 -0.0092742114 0)
(1.0048693 -0.0096147619 0)
(1.0085749 -0.0098538913 0)
(1.0122295 -0.010506529 0)
(1.0156532 -0.011320272 0)
(1.0188334 -0.01149709 0)
(1.0219509 -0.010639644 -3.295383e-35)
(1.0251509 -0.0091558049 -1.6880801e-30)
(1.0285202 -0.0078054401 0)
(1.0319693 -0.0067631379 0)
(1.0352209 -0.0056600639 0)
(1.0382321 -0.0046132865 0)
(1.0413557 -0.0043333271 0)
(1.0448138 -0.0051913114 0)
(1.0485043 -0.0067689725 0)
(1.0522111 -0.0080750492 0)
(1.0556228 -0.0084246165 0)
(1.0583231 -0.0079792337 0)
(1.059867 -0.007115074 0)
(1.0601737 -0.0062335492 0)
(1.0598888 -0.0058419673 0)
(1.0594284 -0.0056722424 0)
(1.0589901 -0.0054407127 0)
(1.0588465 -0.0043628177 0)
(1.0593114 -0.0016174324 3.4660617e-34)
(1.0600249 0.0037222445 2.3051346e-29)
(1.0596108 0.0076459251 0)
(1.060497 0.010465529 0)
(1.0593166 0.013239927 0)
(1.0601369 0.01701189 0)
(1.0563115 0.020905641 0)
(1.0550201 0.029510297 0)
(1.0462905 0.041181334 0)
(1.0371904 0.053414138 0)
(1.0263292 0.072520726 0)
(1.0117177 0.088125651 0)
(0.9927289 0.1152603 0)
(0.96663078 0.14375764 0)
(0.9342437 0.17113889 4.9380534e-33)
(0.89024554 0.20448741 2.9960903e-28)
(0.841689 0.24100375 -5.7398763e-33)
(0.79687118 0.27176118 -3.336494e-28)
(0.73686468 0.31258913 0)
(0.65734753 0.34342371 0)