/*--------------------------------*- C++ -*----------------------------------*\
| =========                 |                                                 |
| \\      /  F ield         | OpenFOAM: The Open Source CFD Toolbox           |
|  \\    /   O peration     | Version:  2306                                  |
|   \\  /    A nd           | Website:  www.openfoam.com                      |
|    \\/     M anipulation  |                                                 |
\*---------------------------------------------------------------------------*/
FoamFile
{
    version     2.0;
    format      ascii;
    arch        "LSB;label=32;scalar=64";
    class       volVectorField;
    location    "0.3";
    object      U;
}
// * * * * * * * * * * * * * * * * * * * * * * * * * * * * * * * * * * * * * //

dimensions      [0 1 -1 0 0 0 0];

internalField   nonuniform List<vector> 
51200
(
(-8.8426712e-06 -6.1780661e-06 4.2098329e-20)
(-2.6325282e-05 -8.3221993e-07 -4.7549633e-21)
(-4.7922625e-05 -2.2363812e-08 -1.6756348e-20)
(-6.9783536e-05 1.1421078e-06 1.36765e-20)
(-9.344854e-05 1.8014005e-06 2.3852402e-20)
(-0.00011738298 2.0694288e-06 -8.0261699e-21)
(-0.00014131127 2.219518e-06 -1.0706194e-21)
(-0.00016515057 2.3128206e-06 1.4855385e-20)
(-0.0001888715 2.3780445e-06 1.3736208e-20)
(-0.00021246454 2.4301945e-06 -1.5479432e-20)
(-0.00023592875 2.4760819e-06 -1.5116506e-20)
(-0.00025926474 2.5181723e-06 4.1717932e-20)
(-0.00028247152 2.5569703e-06 1.7466654e-20)
(-0.00030554563 2.5919073e-06 -3.0554478e-20)
(-0.00032848108 2.6216268e-06 -2.1946739e-20)
(-0.00035126962 2.6439658e-06 1.990911e-20)
(-0.0003739014 2.6559713e-06 5.3998664e-20)
(-0.00039636813 2.6546439e-06 -6.6478167e-21)
(-0.00041866665 2.6421171e-06 -4.3912944e-20)
(-0.00044078511 2.6336699e-06 1.7159006e-21)
(-0.00046269787 2.6389206e-06 7.8283713e-21)
(-0.00048438046 2.6572252e-06 1.3601103e-20)
(-0.00050581391 2.6847738e-06 7.1828152e-20)
(-0.00052698092 2.7182161e-06 1.2443021e-19)
(-0.00054786362 2.7550089e-06 1.4286072e-19)
(-0.00056844328 2.7933179e-06 -1.2234498e-19)
(-0.00058870027 2.8317719e-06 -3.6666246e-19)
(-0.00060861431 2.8693229e-06 -1.0345515e-19)
(-0.00062816466 2.9051441e-06 1.3638553e-19)
(-0.0006473303 2.9385672e-06 2.0584996e-19)
(-0.00066609008 2.9690306e-06 1.5962771e-19)
(-0.0006844229 2.9960651e-06 -6.2497144e-20)
(-0.0007023078 3.0192791e-06 -5.0220332e-20)
(-0.00071972409 3.0383292e-06 -1.8092469e-19)
(-0.00073665149 3.0529376e-06 -1.5840846e-19)
(-0.00075307023 3.0628726e-06 2.52465e-19)
(-0.00076896114 3.0679538e-06 -2.3179792e-20)
(-0.00078430578 3.0680364e-06 -5.1503332e-19)
(-0.00079908653 3.0630282e-06 1.6652779e-19)
(-0.00081328667 3.0528732e-06 7.100513e-19)
(-0.00082689048 3.0375511e-06 1.2462551e-19)
(-0.00083988331 3.0170786e-06 -3.287498e-19)
(-0.00085225164 2.9915128e-06 -3.0485512e-19)
(-0.00086398318 2.9609357e-06 -1.7613459e-19)
(-0.00087506687 2.9254599e-06 2.4269974e-19)
(-0.00088549297 2.8852277e-06 7.3151985e-19)
(-0.00089525309 2.8404046e-06 -1.3292402e-19)
(-0.00090434021 2.7911863e-06 -3.103044e-19)
(-0.00091274869 2.7377774e-06 -2.4369832e-19)
(-0.00092047433 2.6804093e-06 -9.0899246e-19)
(-0.00092751433 2.6193289e-06 4.4442832e-19)
(-0.00093386729 2.5547931e-06 6.8405992e-19)
(-0.00093953325 2.4870655e-06 3.7365706e-20)
(-0.00094451361 2.4164322e-06 2.8305494e-19)
(-0.00094881113 2.3431786e-06 -7.8410122e-19)
(-0.00095242992 2.2675981e-06 -6.1252888e-19)
(-0.00095537538 2.189973e-06 6.2308467e-19)
(-0.00095765415 2.1106024e-06 2.2594626e-19)
(-0.00095927407 2.0297784e-06 -8.3162817e-20)
(-0.00096024415 1.9477943e-06 1.0006287e-19)
(-0.00096057447 1.864933e-06 -5.1787637e-20)
(-0.00096027615 1.7814759e-06 5.4072796e-20)
(-0.00095936128 1.6977001e-06 -4.0091863e-20)
(-0.00095784286 1.6138699e-06 -3.7651942e-19)
(-0.00095573469 1.5302425e-06 -5.228383e-19)
(-0.00095305136 1.4470722e-06 5.058337e-20)
(-0.00094980814 1.3645977e-06 9.1254004e-19)
(-0.00094602093 1.2830488e-06 6.2796136e-22)
(-0.00094170618 1.2026497e-06 -3.71948e-19)
(-0.0009368808 1.1236045e-06 5.7694278e-19)
(-0.00093156216 1.0461343e-06 -8.6736082e-20)
(-0.00092576798 9.7042885e-07 -3.995227e-19)
(-0.00091951627 8.9668636e-07 1.3177248e-19)
(-0.00091282529 8.251062e-07 1.9351079e-19)
(-0.00090571351 7.5588918e-07 2.2108652e-19)
(-0.00089819956 6.8928355e-07 -4.1704385e-19)
(-0.00089030227 6.2565035e-07 -4.1368827e-19)
(-0.00088204082 5.6563337e-07 3.3495681e-19)
(-0.00087343485 5.1027334e-07 4.4419125e-19)
(-0.00086450379 4.6095748e-07 -2.12273e-19)
(-0.00085526466 4.1857257e-07 -7.4788336e-19)
(-0.00084572692 3.8285886e-07 3.1218796e-19)
(-0.00083588373 3.6085411e-07 5.907964e-19)
(-0.00082576825 2.9501705e-07 4.3990706e-21)
(-0.00081543205 2.0415913e-07 1.6477629e-19)
(-0.00080488435 1.1181194e-07 -2.4087114e-19)
(-0.00079413028 2.3213312e-08 2.3510368e-20)
(-0.00078318313 -6.0342391e-08 5.8810151e-21)
(-0.00077205776 -1.3888295e-07 -4.3131541e-19)
(-0.00076076912 -2.1279767e-07 1.1314778e-19)
(-0.00074933179 -2.8248423e-07 -2.8490948e-19)
(-0.00073775991 -3.4829094e-07 -1.8565838e-19)
(-0.00072606714 -4.1048509e-07 4.4382009e-19)
(-0.0007142666 -4.6929479e-07 2.3736582e-19)
(-0.00070237091 -5.2489751e-07 -6.6365036e-20)
(-0.00069039219 -5.7745505e-07 -4.374072e-19)
(-0.00067834205 -6.2710293e-07 4.9123628e-20)
(-0.00066623161 -6.7397515e-07 3.5878935e-19)
(-0.00065407147 -7.1818208e-07 1.9746596e-19)
(-0.00064187176 -7.5983645e-07 -1.2210554e-19)
(-0.00062964212 -7.9904657e-07 -4.9486456e-19)
(-0.0006173917 -8.3590987e-07 1.30076e-19)
(-0.00060512918 -8.7052344e-07 2.3687478e-19)
(-0.00059286278 -9.0298907e-07 1.3088616e-19)
(-0.00058060027 -9.3339279e-07 -3.567152e-20)
(-0.00056834895 -9.6182352e-07 -5.0134053e-19)
(-0.00055611572 -9.8837227e-07 1.180694e-19)
(-0.00054390703 -1.0131178e-06 3.3480271e-19)
(-0.00053172893 -1.036149e-06 6.2441839e-20)
(-0.00051958706 -1.0575417e-06 3.5078085e-20)
(-0.00050748669 -1.0773798e-06 -3.6371174e-19)
(-0.00049543271 -1.0957284e-06 -1.5494903e-19)
(-0.00048342962 -1.1126656e-06 2.3351305e-19)
(-0.0004714816 -1.1282609e-06 7.434917e-20)
(-0.00045959249 -1.1425791e-06 3.6353389e-20)
(-0.00044776581 -1.15569e-06 -6.9466076e-20)
(-0.00043600474 -1.1676483e-06 1.0457675e-20)
(-0.0004243122 -1.1785173e-06 1.0676248e-19)
(-0.0004126908 -1.1883544e-06 -1.2972145e-20)
(-0.00040114288 -1.197211e-06 1.4255667e-20)
(-0.00038967053 -1.2051418e-06 -8.6208106e-20)
(-0.00037827558 -1.212181e-06 -1.4899599e-20)
(-0.00036695963 -1.2183881e-06 9.6743217e-20)
(-0.00035572406 -1.223802e-06 5.0380424e-20)
(-0.00034457003 -1.2284659e-06 -2.0060793e-20)
(-0.00033349851 -1.2324399e-06 -1.7837764e-19)
(-0.00032251026 -1.2357654e-06 -3.1702202e-20)
(-0.00031160586 -1.2384897e-06 1.3646535e-19)
(-0.00030078575 -1.2406583e-06 5.6211868e-20)
(-0.00029005017 -1.2423091e-06 -4.1602179e-20)
(-0.00027939922 -1.2434837e-06 -8.7053472e-20)
(-0.00026883287 -1.2442173e-06 1.6157214e-20)
(-0.00025835094 -1.2445432e-06 5.4200612e-20)
(-0.00024795315 -1.2444982e-06 -2.7526434e-20)
(-0.00023763908 -1.2441098e-06 -7.9046313e-20)
(-0.00022740821 -1.2434054e-06 -1.5133856e-20)
(-0.00021725992 -1.2424172e-06 7.8156651e-20)
(-0.00020719352 -1.2411664e-06 3.4472403e-20)
(-0.0001972082 -1.2396791e-06 4.7553492e-21)
(-0.0001873031 -1.2379787e-06 -5.0496825e-21)
(-0.00017747728 -1.2360811e-06 -3.4164971e-20)
(-0.00016772973 -1.2340102e-06 2.768271e-20)
(-0.0001580594 -1.2317817e-06 1.8180166e-20)
(-0.0001484652 -1.2294076e-06 -9.7134929e-21)
(-0.00013894597 -1.2269067e-06 1.2125014e-20)
(-0.00012950057 -1.2242826e-06 -5.4966869e-20)
(-0.00012012781 -1.2215444e-06 -1.8886026e-20)
(-0.00011082653 -1.2186876e-06 5.9775008e-20)
(-0.00010159561 -1.2156925e-06 2.464542e-20)
(-9.2434041e-05 -1.212517e-06 -1.9123617e-20)
(-8.3341047e-05 -1.2090243e-06 -3.8516362e-20)
(-7.431636e-05 -1.2049116e-06 -7.5601272e-21)
(-6.5360768e-05 -1.199457e-06 2.8259227e-20)
(-5.6477326e-05 -1.1909811e-06 9.1881216e-21)
(-4.7673685e-05 -1.1758328e-06 -6.3586284e-21)
(-3.89659e-05 -1.1471235e-06 -1.0978485e-20)
(-3.0382385e-05 -1.0970054e-06 -4.2974438e-21)
(-2.1958064e-05 -1.0417611e-06 4.9758516e-21)
(-1.3627994e-05 -1.1786755e-06 1.3177857e-21)
(-4.7343832e-06 -2.1521996e-06 -4.0913781e-21)
(-3.9519962e-05 6.8584318e-05 5.3087675e-20)
(-9.4294226e-05 7.8543498e-05 -1.1158783e-20)
(-0.0001577167 8.214773e-05 1.5756151e-21)
(-0.00022024974 8.5989633e-05 6.3755821e-20)
(-0.00028576667 8.8270591e-05 4.7118896e-20)
(-0.00035165825 8.9375901e-05 -1.7651704e-20)
(-0.0004175296 8.9916321e-05 4.3487909e-20)
(-0.00048322733 9.0147784e-05 2.0599012e-20)
(-0.00054864561 9.0196057e-05 -1.4947672e-20)
(-0.00061370179 9.0127968e-05 1.0160288e-20)
(-0.0006783337 8.9978452e-05 2.2311681e-20)
(-0.00074248999 8.9765118e-05 6.4332309e-20)
(-0.00080612384 8.9496652e-05 1.0567439e-19)
(-0.00086918992 8.9176987e-05 1.1808725e-19)
(-0.00093164316 8.8807365e-05 4.8868044e-20)
(-0.00099343826 8.8387272e-05 6.241823e-20)
(-0.0010545292 8.7915051e-05 1.7147158e-19)
(-0.0011148664 8.7388764e-05 1.8677486e-20)
(-0.0011743929 8.6809714e-05 -1.9519106e-19)
(-0.0012330552 8.6187561e-05 -1.124191e-19)
(-0.0012908097 8.5528418e-05 9.5129957e-21)
(-0.0013476122 8.4831813e-05 4.5051556e-20)
(-0.0014034145 8.4094933e-05 1.4786457e-19)
(-0.0014581665 8.3314957e-05 2.9756205e-19)
(-0.0015118183 8.2489673e-05 1.635845e-19)
(-0.0015643206 8.1617493e-05 -4.1773719e-19)
(-0.0016156249 8.0697304e-05 -4.99309e-19)
(-0.0016656835 7.972836e-05 -1.9125545e-19)
(-0.0017144498 7.8710267e-05 -1.3440958e-19)
(-0.0017618785 7.7642917e-05 5.3626433e-19)
(-0.0018079255 7.6526458e-05 6.9119446e-19)
(-0.0018525484 7.53613e-05 -3.2905138e-19)
(-0.0018957064 7.414808e-05 -6.8186556e-19)
(-0.0019373609 7.2887663e-05 -2.459846e-19)
(-0.0019774749 7.1581128e-05 4.6509463e-19)
(-0.002016014 7.0229774e-05 3.6763021e-19)
(-0.002052946 6.8835107e-05 -5.7805906e-19)
(-0.0020882414 6.7398817e-05 -8.5678327e-19)
(-0.0021218731 6.5922788e-05 6.3455004e-19)
(-0.0021538169 6.4409084e-05 9.0717472e-19)
(-0.0021840517 6.285991e-05 -1.0445944e-18)
(-0.002212559 6.1277629e-05 -3.8288475e-19)
(-0.0022393235 5.9664742e-05 1.5478645e-18)
(-0.0022643331 5.8023861e-05 2.0172021e-18)
(-0.0022875787 5.63577e-05 -1.8215649e-20)
(-0.0023090543 5.4669058e-05 -3.1620109e-18)
(-0.0023287573 5.2960804e-05 -1.8317979e-18)
(-0.002346688 5.1235875e-05 1.4643209e-18)
(-0.00236285 4.9497231e-05 1.4443638e-18)
(-0.0023772501 4.7747867e-05 -8.1266987e-19)
(-0.0023898978 4.5990779e-05 -1.3293443e-18)
(-0.002400806 4.4228951e-05 1.4478423e-18)
(-0.0024099901 4.246535e-05 1.9132834e-18)
(-0.0024174688 4.0702906e-05 -2.9082087e-19)
(-0.002423263 3.8944504e-05 -1.2220679e-18)
(-0.0024273965 3.719296e-05 -1.346533e-18)
(-0.0024298956 3.5451001e-05 -1.6306718e-19)
(-0.0024307889 3.3721286e-05 1.4670518e-18)
(-0.0024301071 3.2006382e-05 5.7483753e-19)
(-0.0024278832 3.030873e-05 -1.433952e-18)
(-0.0024241518 2.8630677e-05 -5.4445042e-19)
(-0.0024189496 2.6974446e-05 1.5419201e-18)
(-0.0024123148 2.5342125e-05 4.271799e-19)
(-0.002404287 2.3735686e-05 -1.8286371e-18)
(-0.0023949071 2.2156958e-05 -1.0158073e-18)
(-0.0023842172 2.0607642e-05 1.085325e-18)
(-0.0023722604 1.9089305e-05 1.2856527e-18)
(-0.0023590805 1.7603375e-05 3.2502028e-19)
(-0.0023447222 1.615116e-05 -6.8576306e-19)
(-0.0023292307 1.4733833e-05 -1.4264799e-18)
(-0.0023126514 1.3352483e-05 1.4972966e-19)
(-0.0022950302 1.2008063e-05 1.0691217e-18)
(-0.002276413 1.0701451e-05 1.7315279e-20)
(-0.0022568461 9.4334419e-06 1.9029323e-19)
(-0.0022363752 8.2047423e-06 4.8504453e-19)
(-0.0022150462 7.0160471e-06 1.4083415e-19)
(-0.0021929045 5.8681187e-06 -7.5886012e-19)
(-0.0021699949 4.7619051e-06 -8.8389755e-19)
(-0.0021463617 3.6983267e-06 1.6391982e-19)
(-0.0021220475 2.6773954e-06 3.8487551e-19)
(-0.0020970934 1.6952008e-06 2.9910548e-20)
(-0.0020715273 7.3896169e-07 2.2163693e-19)
(-0.0020454273 -2.1404201e-07 2.8297929e-19)
(-0.0020188385 -1.1587072e-06 -5.8596504e-19)
(-0.0019917515 -2.0736258e-06 -7.5723879e-20)
(-0.0019642083 -2.9479564e-06 5.6590031e-19)
(-0.0019362587 -3.7809894e-06 -3.9970594e-19)
(-0.0019079415 -4.5738573e-06 2.1555579e-19)
(-0.0018792925 -5.3281452e-06 2.6019488e-19)
(-0.0018503455 -6.0454092e-06 -5.5354027e-19)
(-0.0018211328 -6.7270578e-06 -4.0913325e-19)
(-0.0017916856 -7.374403e-06 -1.782678e-19)
(-0.0017620337 -7.9886453e-06 4.5432489e-19)
(-0.0017322059 -8.5709537e-06 1.7355217e-19)
(-0.0017022297 -9.1224332e-06 -1.6348738e-19)
(-0.0016721313 -9.6441718e-06 -2.1874613e-20)
(-0.001641936 -1.0137231e-05 1.0129492e-19)
(-0.0016116675 -1.0602664e-05 3.7363622e-19)
(-0.0015813488 -1.1041495e-05 -1.796971e-19)
(-0.0015510013 -1.1454741e-05 -5.4840039e-19)
(-0.0015206456 -1.1843415e-05 -7.1885528e-20)
(-0.0014903011 -1.2208494e-05 3.977075e-19)
(-0.001459986 -1.2550943e-05 3.7342789e-19)
(-0.0014297175 -1.2871736e-05 -5.9865594e-20)
(-0.0013995119 -1.3171794e-05 -3.834567e-19)
(-0.0013693842 -1.3452041e-05 -2.9883028e-19)
(-0.0013393488 -1.3713373e-05 2.1437086e-19)
(-0.0013094187 -1.3956669e-05 5.8024957e-19)
(-0.0012796063 -1.4182791e-05 6.3078837e-20)
(-0.0012499231 -1.4392577e-05 -4.1936501e-19)
(-0.0012203796 -1.4586834e-05 -1.8164871e-19)
(-0.0011909854 -1.4766353e-05 -9.2414715e-20)
(-0.0011617496 -1.4931913e-05 3.5383702e-19)
(-0.0011326803 -1.5084248e-05 4.400506e-19)
(-0.0011037848 -1.5224082e-05 -2.5194192e-19)
(-0.0010750699 -1.5352123e-05 -4.0670494e-19)
(-0.0010465416 -1.5469042e-05 -7.5965717e-20)
(-0.0010182053 -1.5575483e-05 3.7492104e-19)
(-0.00099006579 -1.5672095e-05 1.3061741e-19)
(-0.00096212713 -1.5759473e-05 -4.5159786e-19)
(-0.00093439298 -1.5838214e-05 -1.4181818e-19)
(-0.0009068664 -1.5908861e-05 3.9508879e-19)
(-0.00087954996 -1.5971978e-05 3.2685633e-19)
(-0.00085244576 -1.6028077e-05 -1.9082696e-19)
(-0.00082555543 -1.6077642e-05 -4.8522921e-19)
(-0.00079888017 -1.6121158e-05 -5.0953196e-20)
(-0.00077242077 -1.6159059e-05 3.4100328e-19)
(-0.00074617764 -1.6191764e-05 1.9354816e-19)
(-0.00072015083 -1.6219689e-05 -7.0630424e-20)
(-0.00069434004 -1.6243211e-05 -2.3340466e-19)
(-0.00066874466 -1.6262705e-05 -8.9421025e-20)
(-0.00064336378 -1.6278509e-05 2.5227214e-19)
(-0.00061819622 -1.6290961e-05 2.4091446e-19)
(-0.00059324054 -1.6300376e-05 -8.7357255e-20)
(-0.00056849505 -1.6307041e-05 -3.0936615e-19)
(-0.00054395786 -1.6311242e-05 -5.1927252e-20)
(-0.00051962686 -1.6313244e-05 2.1007196e-19)
(-0.00049549975 -1.6313293e-05 9.1463519e-20)
(-0.00047157408 -1.6311624e-05 -2.5658534e-20)
(-0.00044784721 -1.6308461e-05 -6.1294962e-20)
(-0.00042431641 -1.6303997e-05 -2.5616952e-20)
(-0.00040097877 -1.6298425e-05 2.0723322e-20)
(-0.00037783131 -1.6291915e-05 4.7163173e-20)
(-0.00035487097 -1.6284617e-05 -2.8622282e-20)
(-0.00033209457 -1.6276671e-05 -9.1737583e-20)
(-0.00030949891 -1.6268179e-05 -2.0581865e-20)
(-0.00028708078 -1.6259222e-05 7.0702338e-20)
(-0.00026483694 -1.6249814e-05 8.4968017e-20)
(-0.00024276423 -1.62399e-05 -2.6095487e-20)
(-0.00022085965 -1.6229261e-05 -9.1729797e-20)
(-0.00019912044 -1.6217362e-05 -8.9599428e-21)
(-0.00017754432 -1.6203078e-05 5.3993866e-20)
(-0.00015612983 -1.6184061e-05 3.4011025e-20)
(-0.00013487667 -1.615569e-05 -1.3600749e-20)
(-0.00011378595 -1.6109736e-05 -2.8437842e-20)
(-9.2858668e-05 -1.6034554e-05 -3.7611534e-21)
(-7.208817e-05 -1.5925928e-05 1.3176658e-20)
(-5.1440222e-05 -1.583186e-05 9.0856647e-21)
(-3.0834873e-05 -1.5969526e-05 -2.519179e-22)
(-1.0231475e-05 -1.6857537e-05 -1.8238242e-21)
(-6.3230074e-05 0.00023360381 -7.5839497e-20)
(-0.00014516934 0.00024388521 -3.3945392e-20)
(-0.00023834954 0.0002493096 -3.9168013e-20)
(-0.0003288626 0.00025435703 1.1979332e-20)
(-0.00042258353 0.0002574735 5.5029324e-20)
(-0.00051642846 0.00025903085 -5.2852944e-20)
(-0.00061012323 0.00025967301 2.0131268e-20)
(-0.00070355197 0.00025974106 -2.7013669e-21)
(-0.00079658446 0.0002594254 6.8563889e-20)
(-0.0008890916 0.00025883463 2.0489396e-19)
(-0.00098096261 0.00025803004 1.25213e-19)
(-0.0010721002 0.00025704591 1.2668195e-19)
(-0.001162415 0.00025590157 1.1368874e-20)
(-0.0012518226 0.0002546081 1.423507e-19)
(-0.0013402417 0.0002531721 2.1901307e-19)
(-0.0014275927 0.00025159769 5.5519122e-20)
(-0.0015137975 0.00024988776 9.4962422e-20)
(-0.0015987785 0.00024804459 -4.4317749e-20)
(-0.0016824587 0.00024606797 -1.4195135e-19)
(-0.0017647644 0.00024395146 3.5673915e-20)
(-0.0018456238 0.00024169051 7.0475615e-20)
(-0.0019249649 0.00023928519 7.8820478e-20)
(-0.0020027155 0.00023673727 1.8160197e-19)
(-0.0020788045 0.00023404851 2.0074572e-19)
(-0.0021531623 0.00023122064 -5.6809921e-20)
(-0.0022257218 0.00022825536 -1.5985072e-19)
(-0.0022964177 0.00022515452 -1.0441825e-19)
(-0.0023651872 0.00022192017 -2.294037e-19)
(-0.0024319697 0.0002185547 -2.7860365e-19)
(-0.0024967073 0.00021506087 1.1379369e-19)
(-0.0025593449 0.00021144182 3.0396654e-19)
(-0.0026198301 0.0002077011 -8.0777445e-20)
(-0.0026781139 0.00020384266 -3.9053332e-19)
(-0.0027341503 0.00019987089 -2.9188282e-19)
(-0.0027878969 0.00019579054 2.7682359e-19)
(-0.0028393148 0.00019160679 3.677086e-19)
(-0.0028883689 0.00018732518 -1.3172965e-19)
(-0.0029350279 0.0001829516 -1.8657699e-19)
(-0.0029792645 0.0001784923 3.1424303e-22)
(-0.0030210555 0.0001739538 -3.0061458e-19)
(-0.0030603818 0.00016934291 -4.9752158e-19)
(-0.0030972287 0.00016466667 4.1740873e-19)
(-0.0031315853 0.00015993231 1.0326133e-18)
(-0.0031634456 0.00015514728 8.9528337e-19)
(-0.0031928074 0.00015031909 -1.3376657e-19)
(-0.0032196729 0.0001454554 -1.9447575e-18)
(-0.0032440487 0.00014056389 -8.7136154e-19)
(-0.0032659452 0.0001356523 6.0446912e-19)
(-0.0032853773 0.00013072833 7.5610697e-19)
(-0.0033023636 0.00012579965 6.4511375e-19)
(-0.0033169268 0.00012087384 -8.9059879e-19)
(-0.0033290933 0.00011595836 -4.3079925e-20)
(-0.0033388931 0.00011106052 9.8258629e-19)
(-0.0033463598 0.00010618747 -9.8805566e-20)
(-0.0033515302 0.00010134616 -1.7470754e-19)
(-0.0033544444 9.654327e-05 -3.8617466e-19)
(-0.0033551455 9.1785273e-05 -3.5213772e-19)
(-0.0033536791 8.7078333e-05 5.8796537e-19)
(-0.0033500939 8.2428354e-05 1.7406855e-19)
(-0.0033444404 7.7840889e-05 -8.1558031e-19)
(-0.0033367719 7.3321199e-05 -2.3938706e-19)
(-0.0033271431 6.88742e-05 6.039508e-19)
(-0.0033156109 6.450444e-05 7.8379868e-20)
(-0.0033022336 6.0216153e-05 -4.0188095e-19)
(-0.0032870708 5.6013185e-05 2.4583456e-19)
(-0.0032701833 5.1899043e-05 3.598601e-19)
(-0.0032516329 4.787687e-05 -1.7532749e-19)
(-0.003231482 4.3949459e-05 -3.107782e-20)
(-0.0032097938 4.0119273e-05 -1.0355378e-19)
(-0.0031866316 3.6388433e-05 -6.3265096e-19)
(-0.003162059 3.2758758e-05 -4.1678322e-20)
(-0.0031361397 2.9231751e-05 3.7219603e-19)
(-0.0031089372 2.5808632e-05 -1.3081127e-21)
(-0.0030805147 2.2490326e-05 2.5359425e-19)
(-0.0030509348 1.9277463e-05 2.3845619e-19)
(-0.0030202598 1.6170405e-05 2.1891842e-19)
(-0.0029885512 1.3169333e-05 -1.6724089e-19)
(-0.0029558699 1.0274315e-05 -7.8269325e-19)
(-0.0029222773 7.4851941e-06 -2.1137588e-19)
(-0.0028878366 4.8008003e-06 5.8308545e-19)
(-0.002852613 2.2167835e-06 3.9442853e-19)
(-0.0028166695 -2.8474192e-07 -4.5268429e-19)
(-0.0027800174 -2.6979574e-06 -3.5470025e-19)
(-0.0027426912 -4.9936824e-06 -2.212128e-19)
(-0.0027047763 -7.1797755e-06 -1.4539303e-19)
(-0.0026663314 -9.2682026e-06 2.760218e-19)
(-0.0026274043 -1.1263102e-05 -1.4456974e-19)
(-0.0025880413 -1.3167257e-05 1.6602274e-19)
(-0.0025482874 -1.4982977e-05 4.9519485e-19)
(-0.0025081861 -1.671248e-05 -2.1093193e-19)
(-0.0024677794 -1.8357998e-05 -3.0910669e-19)
(-0.0024271079 -1.9921854e-05 -4.5831097e-20)
(-0.0023862101 -2.1406399e-05 1.198282e-19)
(-0.0023451234 -2.281405e-05 -1.2457727e-19)
(-0.0023038831 -2.4147244e-05 -7.8176775e-21)
(-0.0022625233 -2.5408434e-05 4.0038069e-19)
(-0.0022210761 -2.6600093e-05 -2.8559339e-20)
(-0.0021795724 -2.7724694e-05 -1.9873209e-19)
(-0.0021380411 -2.8784695e-05 -2.8560603e-19)
(-0.00209651 -2.9782548e-05 -1.2221474e-19)
(-0.0020550051 -3.0720691e-05 3.5092053e-19)
(-0.002013551 -3.160152e-05 1.7687421e-19)
(-0.0019721709 -3.2427402e-05 4.408019e-20)
(-0.0019308865 -3.3200689e-05 -2.3262096e-19)
(-0.0018897182 -3.392367e-05 -1.2563621e-19)
(-0.0018486851 -3.4598598e-05 2.8908798e-19)
(-0.0018078049 -3.5227681e-05 5.5116413e-20)
(-0.0017670942 -3.5813074e-05 3.2625034e-20)
(-0.0017265682 -3.6356891e-05 -8.2951761e-20)
(-0.0016862411 -3.686118e-05 -2.7778199e-19)
(-0.001646126 -3.7327933e-05 7.747587e-20)
(-0.0016062347 -3.7759096e-05 1.3169329e-19)
(-0.0015665782 -3.8156556e-05 1.0195568e-19)
(-0.0015271664 -3.8522138e-05 1.7767682e-19)
(-0.0014880082 -3.8857606e-05 -1.2789517e-19)
(-0.0014491116 -3.9164682e-05 -2.659915e-19)
(-0.0014104838 -3.944501e-05 -1.1063695e-19)
(-0.0013721312 -3.9700185e-05 1.3973181e-19)
(-0.0013340591 -3.9931757e-05 9.4247053e-20)
(-0.0012962724 -4.0141202e-05 -1.2300376e-19)
(-0.0012587752 -4.0329951e-05 1.9234158e-20)
(-0.0012215708 -4.0499371e-05 1.4663988e-19)
(-0.0011846619 -4.0650784e-05 6.1444504e-20)
(-0.0011480505 -4.0785451e-05 -1.4536268e-19)
(-0.0011117382 -4.0904566e-05 -1.8406694e-19)
(-0.001075726 -4.1009282e-05 8.7423501e-20)
(-0.0010400142 -4.1100676e-05 1.641137e-19)
(-0.0010046029 -4.1179774e-05 6.4188186e-20)
(-0.00096949157 -4.1247577e-05 -8.2450219e-20)
(-0.00093467922 -4.1305021e-05 -8.7092007e-20)
(-0.00090016456 -4.1353009e-05 4.3992154e-20)
(-0.00086594587 -4.1392378e-05 7.4141182e-20)
(-0.0008320211 -4.1423943e-05 7.6594572e-20)
(-0.00079838789 -4.1448474e-05 9.2891217e-21)
(-0.00076504355 -4.146668e-05 -7.5721007e-20)
(-0.00073198512 -4.1479256e-05 -4.6786557e-20)
(-0.0006992094 -4.1486847e-05 3.6917968e-20)
(-0.00066671294 -4.1490054e-05 4.2333076e-20)
(-0.00063449209 -4.1489456e-05 -2.3019602e-20)
(-0.00060254299 -4.1485582e-05 -2.6345543e-20)
(-0.00057086163 -4.147893e-05 7.1038206e-21)
(-0.00053944383 -4.1469961e-05 -3.0321472e-20)
(-0.00050828528 -4.1459096e-05 1.0271249e-20)
(-0.00047738157 -4.1446711e-05 4.6389524e-21)
(-0.00044672817 -4.1433152e-05 -3.1901495e-20)
(-0.00041632051 -4.1418699e-05 2.6606681e-20)
(-0.00038615395 -4.1403565e-05 1.7334837e-20)
(-0.00035622385 -4.1387866e-05 -1.5198827e-22)
(-0.0003265256 -4.1371577e-05 -6.5555835e-21)
(-0.00029705464 -4.1354422e-05 -1.1137613e-20)
(-0.00026780654 -4.1335697e-05 3.2062097e-20)
(-0.00023877699 -4.1314013e-05 2.4990262e-20)
(-0.00020996174 -4.1286823e-05 1.5685883e-21)
(-0.00018135622 -4.1250013e-05 -2.5403486e-20)
(-0.00015295452 -4.1198166e-05 -1.1600415e-20)
(-0.00012474699 -4.1128453e-05 2.3242692e-20)
(-9.6714558e-05 -4.1056659e-05 1.0109199e-20)
(-6.8818333e-05 -4.1061193e-05 4.9075929e-21)
(-4.1012832e-05 -4.1364849e-05 9.4210493e-21)
(-1.3524205e-05 -4.2303769e-05 1.9209202e-20)
(-7.6371647e-05 0.00044664313 -5.022257e-19)
(-0.00017467366 0.00045406758 -1.4422145e-19)
(-0.00028551338 0.00045898823 -3.9843629e-20)
(-0.00039228127 0.000463479 -1.7004208e-19)
(-0.00050226632 0.00046626438 -1.0380779e-20)
(-0.0006120535 0.00046754399 -1.4684121e-19)
(-0.00072150785 0.00046779543 -1.0437945e-19)
(-0.00083058273 0.00046731684 1.913745e-21)
(-0.00093916192 0.00046629454 1.4355034e-19)
(-0.0010471044 0.00046484277 2.0210932e-19)
(-0.001154278 0.00046303051 1.2473052e-19)
(-0.0012605614 0.00046089907 1.3135604e-19)
(-0.0013658407 0.00045847339 -3.5344778e-20)
(-0.0014700082 0.00045576871 1.2523679e-19)
(-0.0015729602 0.00045279456 1.3950015e-19)
(-0.0016745969 0.00044955698 -6.8009808e-20)
(-0.0017748208 0.00044605993 1.0246651e-19)
(-0.0018735368 0.00044230605 2.4264848e-20)
(-0.0019706522 0.00043829692 -6.3096171e-20)
(-0.0020660769 0.0004340334 5.8460705e-20)
(-0.0021597233 0.00042951745 6.2815229e-20)
(-0.0022515056 0.00042475216 8.0665937e-20)
(-0.0023413394 0.00041974085 1.1590242e-19)
(-0.0024291425 0.00041448695 -1.9662515e-20)
(-0.0025148351 0.00040899404 -7.6818437e-20)
(-0.0025983402 0.00040326603 -6.3300064e-20)
(-0.0026795835 0.00039730733 -2.2003935e-19)
(-0.002758494 0.00039112293 -7.0443963e-20)
(-0.0028350042 0.00038471844 5.2736739e-20)
(-0.0029090496 0.00037810015 -4.183903e-20)
(-0.0029805698 0.00037127499 -1.3047148e-19)
(-0.0030495079 0.00036425056 -6.4375241e-20)
(-0.0031158112 0.00035703507 1.5689539e-19)
(-0.0031794311 0.00034963739 4.3009131e-20)
(-0.0032403232 0.00034206698 -2.136248e-19)
(-0.0032984477 0.00033433388 -1.0280478e-19)
(-0.0033537692 0.00032644866 1.5971592e-19)
(-0.0034062572 0.00031842243 1.8187907e-19)
(-0.0034558857 0.00031026673 -6.1229815e-20)
(-0.0035026338 0.00030199353 -2.066312e-19)
(-0.0035464854 0.00029361514 -8.3220066e-20)
(-0.0035874291 0.00028514419 1.5855084e-19)
(-0.0036254588 0.00027659354 2.4495656e-19)
(-0.0036605731 0.00026797625 -2.1923872e-20)
(-0.0036927756 0.0002593055 7.8730729e-21)
(-0.0037220747 0.00025059453 -3.0696248e-19)
(-0.0037484837 0.00024185659 -3.3075308e-19)
(-0.0037720205 0.00023310489 6.9445322e-20)
(-0.0037927076 0.00022435253 1.0489808e-19)
(-0.003810572 0.00021561243 3.9315683e-19)
(-0.0038256449 0.00020689732 5.9184625e-20)
(-0.003837962 0.00019821965 -3.6135116e-19)
(-0.0038475625 0.00018959156 9.3622765e-20)
(-0.0038544898 0.00018102481 1.6552517e-19)
(-0.0038587908 0.00017253078 -4.340122e-20)
(-0.0038605158 0.0001641204 -1.678859e-19)
(-0.0038597182 0.00015580413 -1.4986535e-19)
(-0.0038564544 0.0001475919 1.7488101e-19)
(-0.0038507837 0.00013949315 3.377606e-20)
(-0.0038427676 0.00013151671 -3.5313747e-19)
(-0.0038324702 0.00012367087 -5.6548866e-20)
(-0.0038199572 0.00011596333 2.6142032e-19)
(-0.0038052965 0.00010840116 7.0597162e-20)
(-0.0037885572 0.00010099083 -7.1235886e-20)
(-0.00376981 9.3738223e-05 9.7161815e-20)
(-0.0037491265 8.6648576e-05 7.0504309e-20)
(-0.0037265791 7.9726529e-05 -2.5007366e-19)
(-0.003702241 7.2976124e-05 -1.1617115e-19)
(-0.0036761856 6.6400827e-05 8.7631369e-21)
(-0.0036484867 6.0003511e-05 -3.6789482e-20)
(-0.003619218 5.3786519e-05 1.4974424e-20)
(-0.0035884531 4.775163e-05 2.9482792e-20)
(-0.003556265 4.1900093e-05 -8.628147e-20)
(-0.0035227265 3.6232607e-05 -6.3303296e-20)
(-0.0034879095 3.0749352e-05 1.9532504e-19)
(-0.0034518848 2.5449962e-05 1.7106401e-19)
(-0.0034147225 2.0333623e-05 -2.4432242e-19)
(-0.0033764915 1.5399103e-05 -4.3534653e-19)
(-0.0033372603 1.064497e-05 -6.914563e-20)
(-0.0032970981 6.0694822e-06 1.6961491e-19)
(-0.0032560837 1.6747896e-06 -2.2535756e-20)
(-0.0032142546 -2.5217225e-06 -2.2048196e-19)
(-0.0031716643 -6.5122155e-06 -2.8971346e-20)
(-0.0031283957 -1.0333862e-05 9.9557664e-20)
(-0.0030844995 -1.3995981e-05 1.8555426e-20)
(-0.003040031 -1.7500642e-05 -4.7001679e-20)
(-0.0029950459 -2.0850152e-05 -2.2666585e-19)
(-0.0029495979 -2.4047318e-05 -7.2711763e-20)
(-0.0029037381 -2.7095343e-05 1.8583968e-19)
(-0.0028575159 -2.9997777e-05 1.7849042e-19)
(-0.0028109785 -3.2758357e-05 -4.3506287e-20)
(-0.0027641711 -3.5381006e-05 -2.3397534e-19)
(-0.0027171369 -3.7869746e-05 -3.0361641e-21)
(-0.0026699174 -4.0228683e-05 1.1371053e-19)
(-0.0026225521 -4.2461985e-05 1.1193487e-19)
(-0.0025750786 -4.4573847e-05 9.7543243e-20)
(-0.0025275327 -4.6568488e-05 -1.7564973e-19)
(-0.0024799484 -4.8450117e-05 -1.3027974e-19)
(-0.0024323579 -5.0222946e-05 -9.2614933e-21)
(-0.0023847916 -5.1891143e-05 8.2350594e-21)
(-0.0023372783 -5.3458859e-05 1.5241544e-19)
(-0.002289845 -5.4930176e-05 3.71819e-20)
(-0.0022425172 -5.6309128e-05 -3.5233048e-20)
(-0.0021953188 -5.7599698e-05 -1.4301563e-20)
(-0.002148272 -5.8805782e-05 9.701383e-20)
(-0.0021013976 -5.9931198e-05 1.1769004e-19)
(-0.002054715 -6.0979691e-05 -7.0551649e-20)
(-0.0020082422 -6.1954918e-05 -6.9406497e-20)
(-0.0019619958 -6.2860443e-05 -8.8997105e-20)
(-0.0019159911 -6.369973e-05 -1.302906e-19)
(-0.0018702422 -6.4476164e-05 4.9383096e-21)
(-0.0018247619 -6.5193011e-05 1.1545102e-19)
(-0.0017795618 -6.5853454e-05 8.5330124e-20)
(-0.0017346526 -6.6460574e-05 3.0564121e-20)
(-0.0016900438 -6.7017339e-05 -5.0692617e-20)
(-0.0016457439 -6.7526632e-05 -8.1850084e-20)
(-0.0016017603 -6.7991221e-05 -9.3265307e-20)
(-0.0015580998 -6.8413794e-05 -3.2398181e-21)
(-0.001514768 -6.8796916e-05 5.7921523e-20)
(-0.0014717697 -6.9143077e-05 6.9722568e-20)
(-0.0014291091 -6.9454648e-05 3.7941143e-20)
(-0.0013867894 -6.973392e-05 -5.2446316e-20)
(-0.0013448134 -6.998308e-05 -2.8666696e-20)
(-0.0013031828 -7.0204226e-05 3.7622773e-20)
(-0.001261899 -7.0399369e-05 7.1463757e-20)
(-0.0012209627 -7.0570444e-05 3.8771653e-20)
(-0.0011803739 -7.0719284e-05 -2.2716158e-20)
(-0.0011401322 -7.0847635e-05 3.248447e-22)
(-0.0011002367 -7.0957172e-05 -2.5992864e-20)
(-0.0010606861 -7.1049492e-05 1.6156567e-20)
(-0.0010214784 -7.1126108e-05 6.9271674e-20)
(-0.0009826114 -7.118845e-05 1.9663191e-20)
(-0.0009440825 -7.1237882e-05 1.9418289e-20)
(-0.00090588872 -7.1275706e-05 -3.7974592e-21)
(-0.00086802673 -7.1303132e-05 -3.3149435e-20)
(-0.00083049292 -7.1321321e-05 -4.3371068e-20)
(-0.00079328341 -7.1331365e-05 4.265582e-21)
(-0.00075639405 -7.133428e-05 8.2164671e-21)
(-0.00071982047 -7.1331037e-05 -2.2510738e-20)
(-0.00068355809 -7.1322532e-05 -1.1387892e-20)
(-0.00064760213 -7.1309606e-05 1.6909472e-20)
(-0.00061194766 -7.1293043e-05 1.5300295e-21)
(-0.00057658959 -7.1273561e-05 1.4245177e-20)
(-0.00054152273 -7.1251799e-05 5.0325769e-21)
(-0.00050674174 -7.1228353e-05 -6.8608908e-21)
(-0.00047224125 -7.1203725e-05 1.6548342e-20)
(-0.00043801577 -7.1178318e-05 -1.831685e-20)
(-0.00040405979 -7.1152427e-05 -3.1694449e-21)
(-0.00037036774 -7.1126154e-05 2.9867857e-20)
(-0.00033693402 -7.1099369e-05 3.1876207e-20)
(-0.00030375292 -7.1071521e-05 2.2522358e-20)
(-0.00027081858 -7.1041507e-05 5.2848726e-21)
(-0.00023812465 -7.1007441e-05 7.3641368e-21)
(-0.00020566366 -7.0966718e-05 -2.550478e-20)
(-0.00017342588 -7.0917033e-05 -5.1222611e-21)
(-0.00014139818 -7.0860702e-05 2.3340164e-20)
(-0.00010956238 -7.0817499e-05 7.3888873e-21)
(-7.7891487e-05 -7.0851955e-05 1.4910946e-20)
(-4.6370523e-05 -7.1112292e-05 1.8375024e-20)
(-1.5274933e-05 -7.1753027e-05 2.896657e-20)
(-8.2463689e-05 0.0006858216 -6.381748e-19)
(-0.00018891448 0.00069037455 -4.6173385e-19)
(-0.00030891361 0.00069396387 -1.4113941e-19)
(-0.00042412606 0.0006971921 1.5034443e-20)
(-0.00054261301 0.00069908136 -3.223588e-19)