/*--------------------------------*- C++ -*----------------------------------*\
| =========                 |                                                 |
| \\      /  F ield         | OpenFOAM: The Open Source CFD Toolbox           |
|  \\    /   O peration     | Version:  2306                                  |
|   \\  /    A nd           | Website:  www.openfoam.com                      |
|    \\/     M anipulation  |                                                 |
\*---------------------------------------------------------------------------*/
FoamFile
{
    version     2.0;
    format      ascii;
    arch        "LSB;label=32;scalar=64";
    class       volVectorField;
    location    "0.3";
    object      U_0;
}
// * * * * * * * * * * * * * * * * * * * * * * * * * * * * * * * * * * * * * //

dimensions      [0 1 -1 0 0 0 0];

internalField   nonuniform List<vector> 
51200
(
(-8.8591973e-06 -6.1645559e-06 4.2168493e-20)
(-2.6362349e-05 -8.1697778e-07 -4.7783871e-21)
(-4.7982801e-05 -7.4825626e-09 -1.679852e-20)
(-6.9866022e-05 1.1568559e-06 1.36765e-20)
(-9.3553355e-05 1.8160276e-06 2.3805541e-20)
(-0.00011750981 2.0839187e-06 -7.9878283e-21)
(-0.00014145977 2.2338775e-06 -1.0489907e-21)
(-0.00016532044 2.3270442e-06 1.4892875e-20)
(-0.00018906241 2.392123e-06 1.3769288e-20)
(-0.00021267614 2.4441151e-06 -1.5523829e-20)
(-0.00023616065 2.4898341e-06 -1.5129896e-20)
(-0.00025951649 2.531747e-06 4.171182e-20)
(-0.00028274265 2.5703583e-06 1.7449783e-20)
(-0.00030583562 2.6051047e-06 -3.0544064e-20)
(-0.00032878939 2.6346336e-06 -2.2009756e-20)
(-0.00035159567 2.6567867e-06 1.9895505e-20)
(-0.00037424457 2.6686161e-06 5.4007184e-20)
(-0.00039672768 2.6671077e-06 -6.6719176e-21)
(-0.00041904184 2.6542645e-06 -4.3901544e-20)
(-0.00044117533 2.6453273e-06 1.6582233e-21)
(-0.00046310253 2.6500667e-06 7.8318001e-21)
(-0.00048479885 2.6678998e-06 1.3663224e-20)
(-0.00050624528 2.6950167e-06 7.177504e-20)
(-0.00052742448 2.7280574e-06 1.2441524e-19)
(-0.00054831861 2.7644686e-06 1.4299557e-19)
(-0.0005689089 2.8024074e-06 -1.2242216e-19)
(-0.00058917574 2.8404998e-06 -3.6680305e-19)
(-0.00060909884 2.8776955e-06 -1.0331456e-19)
(-0.00062865746 2.9131667e-06 1.3650145e-19)
(-0.00064783059 2.9462438e-06 2.0582375e-19)
(-0.00066659708 2.9763666e-06 1.5956778e-19)
(-0.00068493583 3.0030646e-06 -6.2485987e-20)
(-0.0007028259 3.0259459e-06 -5.0183563e-20)
(-0.00072024662 3.0446693e-06 -1.8100652e-19)
(-0.00073717771 3.0589565e-06 -1.584757e-19)
(-0.0007535994 3.0685755e-06 2.5256401e-19)
(-0.00076949256 3.0733452e-06 -2.3058462e-20)
(-0.00078483876 3.073123e-06 -5.1512705e-19)
(-0.00079962039 3.0678183e-06 1.6644198e-19)
(-0.00081382077 3.0573728e-06 7.1017231e-19)
(-0.00082742418 3.0417667e-06 1.2465155e-19)
(-0.00084041601 3.0210185e-06 -3.2876166e-19)
(-0.00085278276 2.995183e-06 -3.0490473e-19)
(-0.00086451215 2.9643455e-06 -1.763576e-19)
(-0.00087559317 2.9286173e-06 2.4267604e-19)
(-0.0008860161 2.8881424e-06 7.3166971e-19)
(-0.00089577256 2.843084e-06 -1.3283332e-19)
(-0.00090485557 2.7936391e-06 -3.1027258e-19)
(-0.00091325952 2.7400104e-06 -2.4364831e-19)
(-0.00092098023 2.6824338e-06 -9.0902512e-19)
(-0.00092801493 2.6211524e-06 4.4437473e-19)
(-0.00093436225 2.5564245e-06 6.8400328e-19)
(-0.00094002224 2.4885135e-06 3.7266625e-20)
(-0.00094499634 2.4177075e-06 2.8310749e-19)
(-0.00094928734 2.3442883e-06 -7.8420762e-19)
(-0.00095289938 2.2685504e-06 -6.1244528e-19)
(-0.00095583786 2.1907757e-06 6.2325886e-19)
(-0.00095810946 2.1112656e-06 2.2602817e-19)
(-0.00095972204 2.0303092e-06 -8.3162216e-20)
(-0.00096068464 1.9481997e-06 9.9878573e-20)
(-0.00096100735 1.8652217e-06 -5.1799256e-20)
(-0.00096070132 1.7816561e-06 5.4138518e-20)
(-0.00095977866 1.6977788e-06 -4.0074992e-20)
(-0.00095825237 1.6138524e-06 -3.7654156e-19)
(-0.00095613629 1.5301379e-06 -5.2267155e-19)
(-0.00095344502 1.4468857e-06 5.0646152e-20)
(-0.00095019385 1.3643368e-06 9.1243592e-19)
(-0.00094639868 1.2827192e-06 4.9622486e-22)
(-0.00094207598 1.2022568e-06 -3.7187668e-19)
(-0.00093724269 1.1231568e-06 5.7718349e-19)
(-0.00093191617 1.0456343e-06 -8.6860218e-20)
(-0.00092611416 9.6988408e-07 -3.9969377e-19)
(-0.00091985468 8.9610148e-07 1.3177394e-19)
(-0.000913156 8.2448605e-07 1.9356626e-19)
(-0.00090603661 7.5524172e-07 2.2110398e-19)
(-0.00089851512 6.8861411e-07 -4.1720771e-19)
(-0.00089061039 6.2496469e-07 -4.13748e-19)
(-0.00088234161 5.6493832e-07 3.3513957e-19)
(-0.00087372842 5.0958008e-07 4.4431751e-19)
(-0.00086479026 4.6027816e-07 -2.1227787e-19)
(-0.00085554413 4.1792695e-07 -7.4788162e-19)
(-0.00084599947 3.8222869e-07 3.1206119e-19)
(-0.00083614914 3.604233e-07 5.9074528e-19)
(-0.00082602685 2.9404817e-07 4.495462e-21)
(-0.00081568434 2.0300727e-07 1.6481747e-19)
(-0.0008051303 1.1060315e-07 -2.4091389e-19)
(-0.00079436995 2.1985266e-08 2.3521948e-20)
(-0.00078341662 -6.1576341e-08 5.8627386e-21)
(-0.0007722852 -1.4011716e-07 -4.3140397e-19)
(-0.00076099062 -2.1403136e-07 1.1320453e-19)
(-0.00074954748 -2.8371781e-07 -2.8483608e-19)
(-0.00073796992 -3.4952334e-07 -1.856943e-19)
(-0.00072627158 -4.1171648e-07 4.4376272e-19)
(-0.0007144656 -4.7052405e-07 2.3742164e-19)
(-0.00070256458 -5.2612444e-07 -6.6282654e-20)
(-0.00069058064 -5.7867995e-07 -4.3746866e-19)
(-0.00067852541 -6.2832449e-07 4.9105053e-20)
(-0.00066640998 -6.7519203e-07 3.5880143e-19)
(-0.00065424497 -7.1939366e-07 1.9747292e-19)
(-0.0006420405 -7.6104322e-07 -1.2208753e-19)
(-0.00062980621 -8.0024778e-07 -4.9490635e-19)
(-0.00061755123 -8.3710466e-07 1.3009228e-19)
(-0.00060528426 -8.7171247e-07 2.3685953e-19)
(-0.00059301351 -9.0417122e-07 1.3084999e-19)
(-0.00058074674 -9.345662e-07 -3.5624265e-20)
(-0.00056849126 -9.6299091e-07 -5.0126907e-19)
(-0.00055625395 -9.8953239e-07 1.1803459e-19)
(-0.00054404128 -1.0142697e-06 3.3473405e-19)
(-0.00053185929 -1.0372923e-06 6.2418354e-20)
(-0.00051971362 -1.0586771e-06 3.508274e-20)
(-0.00050760952 -1.0785064e-06 -3.6364693e-19)
(-0.00049555188 -1.0968461e-06 -1.5492736e-19)
(-0.00048354522 -1.1137752e-06 2.3347814e-19)
(-0.0004715937 -1.1293613e-06 7.4338874e-20)
(-0.00045970117 -1.1436718e-06 3.636068e-20)
(-0.00044787113 -1.156772e-06 -6.9466837e-20)
(-0.00043610677 -1.1687222e-06 1.0457072e-20)
(-0.00042441101 -1.1795801e-06 1.0675904e-19)
(-0.00041278645 -1.1894086e-06 -1.2988532e-20)
(-0.00040123544 -1.1982555e-06 1.4282505e-20)
(-0.00038976004 -1.2061758e-06 -8.6190022e-20)
(-0.00037836211 -1.2132066e-06 -1.4918836e-20)
(-0.00036704324 -1.219403e-06 9.6686551e-20)
(-0.0003558048 -1.2248075e-06 5.0398211e-20)
(-0.00034464795 -1.2294621e-06 -2.0018235e-20)
(-0.00033357365 -1.2334256e-06 -1.7837259e-19)
(-0.00032258268 -1.2367424e-06 -3.1693103e-20)
(-0.00031167561 -1.2394591e-06 1.3641856e-19)
(-0.00030085287 -1.241619e-06 5.6227869e-20)
(-0.0002901147 -1.243263e-06 -4.1588812e-20)
(-0.0002794612 -1.2444293e-06 -8.7055727e-20)
(-0.00026889235 -1.2451549e-06 1.6155543e-20)
(-0.00025840796 -1.2454736e-06 5.4172959e-20)
(-0.00024800774 -1.2454217e-06 -2.7545489e-20)
(-0.00023769127 -1.2450265e-06 -7.9047228e-20)
(-0.00022745805 -1.2443173e-06 -1.5100784e-20)
(-0.00021730744 -1.2433222e-06 7.8175351e-20)
(-0.00020723875 -1.2420659e-06 3.4460261e-20)
(-0.00019725117 -1.2405724e-06 4.7432952e-21)
(-0.00018734384 -1.2388671e-06 -5.0547215e-21)
(-0.00017751581 -1.2369648e-06 -3.4154714e-20)
(-0.00016776609 -1.2348892e-06 2.7683036e-20)
(-0.00015809362 -1.2326543e-06 1.8163425e-20)
(-0.00014849729 -1.2302774e-06 -9.7029762e-21)
(-0.00013897597 -1.227771e-06 1.2142117e-20)
(-0.00012952849 -1.2251433e-06 -5.4964454e-20)
(-0.00012015368 -1.2224012e-06 -1.8886716e-20)
(-0.00011085037 -1.2195399e-06 5.9773519e-20)
(-0.00010161744 -1.2165434e-06 2.4641011e-20)
(-9.2453886e-05 -1.2133631e-06 -1.9124205e-20)
(-8.3358921e-05 -1.2098682e-06 -3.8514544e-20)
(-7.4332281e-05 -1.2057533e-06 -7.5600112e-21)
(-6.5374752e-05 -1.2002975e-06 2.8256764e-20)
(-5.6489385e-05 -1.1918206e-06 9.1894597e-21)
(-4.7683827e-05 -1.1766724e-06 -6.3621474e-21)
(-3.897413e-05 -1.1479668e-06 -1.0980484e-20)
(-3.0388703e-05 -1.0978526e-06 -4.2949663e-21)
(-2.1962476e-05 -1.0426072e-06 4.9732086e-21)
(-1.3630528e-05 -1.1795005e-06 1.3175432e-21)
(-4.735164e-06 -2.1530162e-06 -4.0919244e-21)
(-3.9547383e-05 6.8666683e-05 5.3368562e-20)
(-9.4353967e-05 7.862524e-05 -1.1158784e-20)
(-0.00015781251 8.2228145e-05 1.5756156e-21)
(-0.00022038037 8.6068839e-05 6.379602e-20)
(-0.00028593219 8.8348711e-05 4.7118896e-20)
(-0.00035185805 8.9453051e-05 -1.7677286e-20)
(-0.00041776307 8.9992569e-05 4.3509555e-20)
(-0.00048349389 9.0223136e-05 2.0730334e-20)
(-0.00054894467 9.0270478e-05 -1.4848352e-20)
(-0.00061403269 9.0201399e-05 9.9677458e-21)
(-0.00067869571 9.0050822e-05 2.2258079e-20)
(-0.00074288234 8.9836354e-05 6.4332309e-20)
(-0.00080654565 8.9566681e-05 1.0566313e-19)
(-0.00086964026 8.9245737e-05 1.1809767e-19)
(-0.00093212105 8.8874772e-05 4.8906859e-20)
(-0.00099394265 8.8453273e-05 6.2372842e-20)
(-0.001055059 8.7979591e-05 1.7148863e-19)
(-0.0011154205 8.7451781e-05 1.8653365e-20)
(-0.0011749703 8.687106e-05 -1.9528993e-19)
(-0.0012336546 8.624707e-05 -1.1252734e-19)
(-0.0012914297 8.558603e-05 9.5129953e-21)
(-0.0013482516 8.4887514e-05 4.5280609e-20)
(-0.0014040719 8.4148723e-05 1.4787708e-19)
(-0.0014588406 8.336683e-05 2.973525e-19)
(-0.0015125078 8.253962e-05 1.636649e-19)
(-0.0015650242 8.1665507e-05 -4.1775375e-19)
(-0.0016163413 8.0743377e-05 -4.9937803e-19)
(-0.0016664113 7.9772488e-05 -1.9090753e-19)
(-0.0017151877 7.8752449e-05 -1.343059e-19)
(-0.0017626251 7.7683157e-05 5.3598769e-19)
(-0.0018086795 7.6564765e-05 6.9106067e-19)
(-0.0018533086 7.5397684e-05 -3.2893971e-19)
(-0.0018964715 7.4182559e-05 -6.8157982e-19)
(-0.0019381296 7.2920256e-05 -2.45888e-19)
(-0.001978246 7.1611859e-05 4.64854e-19)
(-0.0020167864 7.0258671e-05 3.6755887e-19)
(-0.0020537185 6.8862202e-05 -5.7802822e-19)
(-0.0020890129 6.7424146e-05 -8.5674574e-19)
(-0.0021226425 6.594639e-05 6.3464141e-19)
(-0.0021545833 6.4430999e-05 9.07449e-19)
(-0.002184814 6.2880181e-05 -1.044723e-18)
(-0.0022133163 6.1296304e-05 -3.8320684e-19)
(-0.0022400749 5.9681868e-05 1.5478413e-18)
(-0.0022650778 5.8039489e-05 2.0169919e-18)
(-0.0022883158 5.6371881e-05 -1.8196677e-20)
(-0.0023097832 5.4681848e-05 -3.1616707e-18)
(-0.0023294772 5.2972258e-05 -1.8316557e-18)
(-0.0023473983 5.1246046e-05 1.4641076e-18)
(-0.0023635502 4.9506173e-05 1.4443551e-18)
(-0.0023779395 4.7755638e-05 -8.1231739e-19)
(-0.0023905761 4.5997435e-05 -1.3294279e-18)
(-0.0024014726 4.4234549e-05 1.4473642e-18)
(-0.0024106447 4.2469946e-05 1.9132084e-18)
(-0.002418111 4.0706558e-05 -2.9076038e-19)
(-0.0024238925 3.8947263e-05 -1.2219052e-18)
(-0.0024280131 3.7194881e-05 -1.3460792e-18)
(-0.0024304991 3.5452136e-05 -1.6298002e-19)
(-0.002431379 3.3721688e-05 1.4668217e-18)
(-0.0024306838 3.2006099e-05 5.7461144e-19)
(-0.0024284462 3.0307812e-05 -1.4338622e-18)
(-0.0024247013 2.8629173e-05 -5.4422715e-19)
(-0.0024194854 2.69724e-05 1.5417142e-18)
(-0.0024128369 2.5339584e-05 4.2716189e-19)
(-0.0024047955 2.3732689e-05 -1.8284266e-18)
(-0.002395402 2.2153545e-05 -1.0157092e-18)
(-0.0023846986 2.0603855e-05 1.0854388e-18)
(-0.0023727284 1.9085181e-05 1.285549e-18)
(-0.0023595353 1.7598948e-05 3.2475555e-19)
(-0.002345164 1.6146463e-05 -6.8570965e-19)
(-0.0023296595 1.4728899e-05 -1.4263534e-18)
(-0.0023130675 1.3347341e-05 1.4980848e-19)
(-0.0022954337 1.2002741e-05 1.0690302e-18)
(-0.0022768043 1.0695978e-05 1.7079478e-20)
(-0.0022572252 9.427842e-06 1.9017455e-19)
(-0.0022367425 8.1990408e-06 4.8494441e-19)
(-0.0022154019 7.010269e-06 1.4087703e-19)
(-0.0021932488 5.8622885e-06 -7.5872677e-19)
(-0.0021703282 4.7560463e-06 -8.8374232e-19)
(-0.0021466841 3.69247e-06 1.6391622e-19)
(-0.0021223594 2.6715618e-06 3.8477555e-19)
(-0.002097395 1.6893771e-06 2.9943676e-20)
(-0.0020718187 7.3310517e-07 2.216283e-19)
(-0.0020457092 -2.2002168e-07 2.8294603e-19)
(-0.0020191111 -1.1649462e-06 -5.8593302e-19)
(-0.0019920146 -2.0798955e-06 -7.5677255e-20)
(-0.0019644625 -2.9541841e-06 5.6596449e-19)
(-0.0019365041 -3.7871518e-06 -3.9977101e-19)
(-0.0019081785 -4.5799455e-06 2.154183e-19)
(-0.0018795214 -5.3341532e-06 2.6023383e-19)
(-0.0018505664 -6.0513343e-06 -5.5329581e-19)
(-0.0018213461 -6.7328979e-06 -4.0894746e-19)
(-0.0017918914 -7.3801578e-06 -1.783816e-19)
(-0.0017622324 -7.9943144e-06 4.5427355e-19)
(-0.0017323976 -8.5765355e-06 1.7373727e-19)
(-0.0017024147 -9.1279267e-06 -1.6354433e-19)
(-0.0016723099 -9.6495775e-06 -2.2060267e-20)
(-0.0016421082 -1.0142548e-05 1.0127926e-19)
(-0.0016118337 -1.0607893e-05 3.7363513e-19)
(-0.0015815091 -1.1046637e-05 -1.7956818e-19)
(-0.001551156 -1.1459797e-05 -5.4830672e-19)
(-0.0015207948 -1.1848385e-05 -7.1973719e-20)
(-0.001490445 -1.2213378e-05 3.9764233e-19)
(-0.0014601248 -1.2555744e-05 3.7343304e-19)
(-0.0014298514 -1.2876454e-05 -5.9805449e-20)
(-0.0013996411 -1.317643e-05 -3.8346611e-19)
(-0.0013695088 -1.3456599e-05 -2.9886064e-19)
(-0.0013394689 -1.3717855e-05 2.1431901e-19)
(-0.0013095346 -1.3961075e-05 5.8016644e-19)
(-0.0012797181 -1.4187125e-05 6.3090518e-20)
(-0.0012500308 -1.4396838e-05 -4.192831e-19)
(-0.0012204834 -1.4591027e-05 -1.8165953e-19)
(-0.0011910856 -1.477048e-05 -9.244785e-20)
(-0.0011618461 -1.4935974e-05 3.5378231e-19)
(-0.0011327733 -1.5088246e-05 4.3996011e-19)
(-0.0011038744 -1.5228022e-05 -2.5182918e-19)
(-0.0010751563 -1.5356004e-05 -4.0660124e-19)
(-0.0010466248 -1.5472867e-05 -7.6028378e-20)
(-0.0010182854 -1.5579254e-05 3.7483378e-19)
(-0.00099014289 -1.5675816e-05 1.3063759e-19)
(-0.00096220134 -1.5763145e-05 -4.5145509e-19)
(-0.00093446438 -1.5841838e-05 -1.4180184e-19)
(-0.00090693509 -1.5912442e-05 3.9499355e-19)
(-0.00087961601 -1.5975516e-05 3.2673356e-19)
(-0.00085250924 -1.6031574e-05 -1.9079392e-19)
(-0.00082561642 -1.6081102e-05 -4.8503426e-19)
(-0.00079893874 -1.612458e-05 -5.0940576e-20)
(-0.00077247698 -1.6162446e-05 3.4090831e-19)
(-0.00074623156 -1.6195117e-05 1.9349464e-19)
(-0.00072020251 -1.622301e-05 -7.0600592e-20)
(-0.00069438954 -1.6246501e-05 -2.3338061e-19)
(-0.00066879204 -1.6265966e-05 -8.9406745e-20)
(-0.00064340909 -1.6281743e-05 2.5227629e-19)
(-0.00061823952 -1.6294167e-05 2.408155e-19)
(-0.00059328186 -1.6303555e-05 -8.7399869e-20)
(-0.00056853444 -1.6310196e-05 -3.0930561e-19)
(-0.00054399537 -1.6314374e-05 -5.1927836e-20)
(-0.00051966252 -1.6316355e-05 2.1006429e-19)
(-0.0004955336 -1.6316384e-05 9.1488846e-20)
(-0.00047160615 -1.6314696e-05 -2.5671546e-20)
(-0.00044787756 -1.6311515e-05 -6.12862e-20)
(-0.00042434505 -1.6307033e-05 -2.5614887e-20)
(-0.00040100574 -1.6301445e-05 2.0724376e-20)
(-0.00037785664 -1.6294918e-05 4.7152624e-20)
(-0.00035489468 -1.6287606e-05 -2.862823e-20)
(-0.00033211669 -1.6279647e-05 -9.1712174e-20)
(-0.00030951947 -1.6271144e-05 -2.0576757e-20)
(-0.00028709979 -1.6262175e-05 7.0680281e-20)
(-0.00026485444 -1.6252759e-05 8.4942499e-20)
(-0.00024278024 -1.6242837e-05 -2.6086723e-20)
(-0.00022087417 -1.623219e-05 -9.1707329e-20)
(-0.0001991335 -1.6220284e-05 -8.9598241e-21)
(-0.00017755595 -1.6205996e-05 5.3988684e-20)
(-0.00015614002 -1.618698e-05 3.4006124e-20)
(-0.00013488544 -1.6158614e-05 -1.3610732e-20)
(-0.0001137933 -1.6112671e-05 -2.8435066e-20)
(-9.2864601e-05 -1.6037508e-05 -3.757958e-21)
(-7.2092686e-05 -1.59289e-05 1.3175148e-20)
(-5.1443331e-05 -1.5834818e-05 9.0785942e-21)
(-3.0836616e-05 -1.5972372e-05 -2.5605446e-22)
(-1.0232005e-05 -1.6860108e-05 -1.8270703e-21)
(-6.3256465e-05 0.00023376849 -7.5839497e-20)
(-0.00014522603 0.00024404714 -3.3945393e-20)
(-0.00023844062 0.00024946904 -3.9393114e-20)
(-0.00032898708 0.00025451377 1.1818536e-20)
(-0.00042274149 0.00025762784 5.4966791e-20)
(-0.0005166193 0.00025918307 -5.295527e-20)
(-0.00061034627 0.00025982324 2.0131268e-20)
(-0.00070380656 0.0002598893 -2.8139301e-21)
(-0.00079686992 0.00025957158 6.8464569e-20)
(-0.00088940717 0.00025897862 2.0492358e-19)
(-0.00098130748 0.00025817168 1.251594e-19)
(-0.0010724735 0.00025718505 1.2653514e-19)
(-0.0011628157 0.00025603803 1.1436412e-20)
(-0.0012522498 0.00025474173 1.4247577e-19)
(-0.0013406941 0.00025330273 2.1885781e-19)
(-0.0014280694 0.00025172516 5.5555432e-20)
(-0.0015142972 0.00025001194 9.4911257e-20)
(-0.0015992999 0.00024816532 -4.4430312e-20)
(-0.0016830007 0.00024618518 -1.4198178e-19)
(-0.0017653254 0.0002440651 3.5688346e-20)
(-0.0018462026 0.00024180052 7.0530523e-20)
(-0.0019255602 0.00023939145 7.8807388e-20)
(-0.0020033258 0.00023683968 1.8157696e-19)
(-0.0020794283 0.00023414701 2.0086547e-19)
(-0.0021537984 0.00023131517 -5.6741005e-20)
(-0.0022263686 0.00022834589 -1.5979554e-19)
(-0.0022970739 0.00022524101 -1.0454568e-19)
(-0.0023658512 0.00022200261 -2.2928091e-19)
(-0.0024326403 0.00021863309 -2.7840617e-19)
(-0.0024973831 0.00021513522 1.1366968e-19)
(-0.0025600244 0.00021151214 3.036067e-19)
(-0.0026205121 0.00020776743 -8.093825e-20)
(-0.0026787971 0.00020390504 -3.9032551e-19)
(-0.0027348334 0.00019992936 -2.9170642e-19)
(-0.0027885786 0.00019584517 2.7687253e-19)
(-0.002839994 0.00019165765 3.6755799e-19)
(-0.0028890444 0.00018737234 -1.3173737e-19)
(-0.0029356986 0.00018299515 -1.8638188e-19)
(-0.0029799293 0.00017853232 1.8998446e-22)
(-0.0030217135 0.00017399041 -3.004436e-19)
(-0.0030610321 0.00016937619 -4.9733745e-19)
(-0.0030978702 0.00016469673 4.1723242e-19)
(-0.0031322174 0.00015995928 1.0322557e-18)
(-0.0031640674 0.00015517126 8.9508283e-19)
(-0.0031934182 0.0001503402 -1.3359267e-19)
(-0.0032202721 0.00014547376 -1.9444885e-18)
(-0.0032446355 0.00014057963 -8.7116788e-19)
(-0.0032665193 0.00013566554 6.045876e-19)
(-0.0032859381 0.0001307392 7.5586328e-19)
(-0.0033029107 0.00012580827 6.4466463e-19)
(-0.0033174598 0.00012088034 -8.9030902e-19)
(-0.0033296118 0.00011596285 -4.2872285e-20)
(-0.003339397 0.00011106314 9.8229952e-19)
(-0.0033468488 0.00010618834 -9.8823976e-20)
(-0.0033520041 0.00010134538 -1.7460944e-19)
(-0.0033549032 9.6540971e-05 -3.8622283e-19)
(-0.003355589 9.1781565e-05 -3.5204558e-19)
(-0.0033541073 8.7073327e-05 5.8809262e-19)
(-0.0033505068 8.2422153e-05 1.7421526e-19)
(-0.0033448381 7.78336e-05 -8.1559686e-19)
(-0.0033371544 7.3312921e-05 -2.3950334e-19)
(-0.0033275106 6.8865027e-05 6.0398283e-19)
(-0.0033159635 6.4494464e-05 7.8550964e-20)
(-0.0033025715 6.020546e-05 -4.0201833e-19)
(-0.0032873942 5.6001859e-05 2.4553789e-19)
(-0.0032704925 5.1887163e-05 3.5992025e-19)
(-0.003251928 4.786451e-05 -1.7535711e-19)
(-0.0032317635 4.393669e-05 -3.1040299e-20)
(-0.0032100618 4.010616e-05 -1.0339562e-19)
(-0.0031868865 3.6375036e-05 -6.3257201e-19)
(-0.0031623011 3.2745135e-05 -4.1672335e-20)
(-0.0031363693 2.9217956e-05 3.7203466e-19)
(-0.0031091547 2.5794714e-05 -1.253772e-21)
(-0.0030807204 2.2476334e-05 2.5357319e-19)
(-0.0030511292 1.9263436e-05 2.3839575e-19)
(-0.0030204432 1.6156383e-05 2.188327e-19)
(-0.0029887238 1.3155351e-05 -1.6730158e-19)
(-0.0029560322 1.0260407e-05 -7.8252441e-19)
(-0.0029224298 7.4713907e-06 -2.1137857e-19)
(-0.0028879795 4.7871397e-06 5.8289873e-19)
(-0.0028527468 2.2033258e-06 3.9443012e-19)
(-0.0028167946 -2.9808549e-07 -4.5252287e-19)
(-0.002780134 -2.7113308e-06 -3.5439326e-19)
(-0.0027427995 -5.0066331e-06 -2.2090443e-19)
(-0.0027048769 -7.1924298e-06 -1.4540053e-19)
(-0.0026664245 -9.2805966e-06 2.7593623e-19)
(-0.0026274904 -1.1275241e-05 -1.4469011e-19)
(-0.0025881207 -1.3179138e-05 1.6600425e-19)
(-0.0025483604 -1.4994595e-05 4.9488244e-19)
(-0.002508253 -1.672383e-05 -2.1090756e-19)
(-0.0024678406 -1.8369079e-05 -3.0879263e-19)
(-0.0024271636 -1.9932664e-05 -4.5896451e-20)
(-0.0023862607 -2.1416938e-05 1.1979701e-19)
(-0.002345169 -2.282432e-05 -1.2451406e-19)
(-0.0023039242 -2.4157246e-05 -7.8303334e-21)
(-0.00226256 -2.541817e-05 4.0023335e-19)
(-0.0022211087 -2.6609569e-05 -2.8604539e-20)
(-0.0021796011 -2.7733912e-05 -1.9861087e-19)
(-0.0021380663 -2.879366e-05 -2.8545604e-19)
(-0.0020965318 -2.9791265e-05 -1.2223029e-19)
(-0.0020550237 -3.0729166e-05 3.5081903e-19)
(-0.0020135666 -3.1609759e-05 1.7681737e-19)
(-0.0019721838 -3.243541e-05 4.4078131e-20)
(-0.0019308968 -3.3208472e-05 -2.3259649e-19)
(-0.0018897261 -3.3931235e-05 -1.2559245e-19)
(-0.0018486908 -3.4605952e-05 2.8900796e-19)
(-0.0018078086 -3.523483e-05 5.5125001e-20)
(-0.001767096 -3.5820027e-05 3.270324e-20)
(-0.0017265683 -3.6363653e-05 -8.3052913e-20)
(-0.0016862396 -3.6867758e-05 -2.7771292e-19)
(-0.001646123 -3.7334334e-05 7.7517254e-20)
(-0.0016062304 -3.7765328e-05 1.3158161e-19)
(-0.0015665728 -3.8162625e-05 1.0189158e-19)
(-0.0015271598 -3.852805e-05 1.7767217e-19)
(-0.0014880007 -3.8863367e-05 -1.2787152e-19)
(-0.0014491032 -3.91703e-05 -2.6582978e-19)
(-0.0014104746 -3.945049e-05 -1.1064329e-19)
(-0.0013721213 -3.9705537e-05 1.3961206e-19)
(-0.0013340487 -3.9936985e-05 9.4334623e-20)
(-0.0012962615 -4.014631e-05 -1.2301642e-19)
(-0.0012587638 -4.0334948e-05 1.9183073e-20)
(-0.001221559 -4.0504261e-05 1.4667347e-19)
(-0.0011846498 -4.0655576e-05 6.1443356e-20)
(-0.0011480382 -4.0790147e-05 -1.4531868e-19)
(-0.0011117258 -4.0909172e-05 -1.8400972e-19)
(-0.0010757135 -4.1013803e-05 8.7380617e-20)
(-0.0010400017 -4.1105115e-05 1.6402041e-19)
(-0.0010045904 -4.1184134e-05 6.4145147e-20)
(-0.00096947903 -4.1251866e-05 -8.2390953e-20)
(-0.00093466677 -4.1309239e-05 -8.7070276e-20)
(-0.00090015223 -4.1357161e-05 4.3951452e-20)
(-0.0008659337 -4.1396468e-05 7.4107076e-20)
(-0.00083200913 -4.1427974e-05 7.656298e-20)
(-0.00079837615 -4.145245e-05 9.3100695e-21)
(-0.00076503207 -4.1470603e-05 -7.5700869e-20)
(-0.00073197393 -4.1483128e-05 -4.6804859e-20)
(-0.00069919852 -4.1490673e-05 3.6924926e-20)
(-0.00066670239 -4.1493837e-05 4.2324762e-20)
(-0.00063448189 -4.1493199e-05 -2.3015411e-20)
(-0.00060253317 -4.1489288e-05 -2.6360231e-20)
(-0.0005708522 -4.14826e-05 7.1282313e-21)
(-0.00053943481 -4.1473596e-05 -3.0294002e-20)
(-0.00050827669 -4.1462701e-05 1.0250884e-20)
(-0.00047737341 -4.1450287e-05 4.6374206e-21)
(-0.00044672046 -4.1436703e-05 -3.191111e-20)
(-0.00041631326 -4.1422225e-05 2.6616049e-20)
(-0.00038614717 -4.140707e-05 1.7355306e-20)
(-0.00035621755 -4.1391353e-05 -1.4930512e-22)
(-0.00032651978 -4.1375047e-05 -6.5665389e-21)
(-0.00029704931 -4.135788e-05 -1.1139113e-20)
(-0.0002678017 -4.1339145e-05 3.2043633e-20)
(-0.00023877265 -4.1317456e-05 2.4979379e-20)
(-0.00020995789 -4.1290265e-05 1.5758544e-21)
(-0.00018135286 -4.1253462e-05 -2.5397842e-20)
(-0.00015295166 -4.1201633e-05 -1.1596104e-20)
(-0.00012474462 -4.1131944e-05 2.3232314e-20)
(-9.6712673e-05 -4.1060168e-05 1.0103622e-20)
(-6.8816948e-05 -4.106467e-05 4.9062531e-21)
(-4.1011972e-05 -4.1368162e-05 9.4137397e-21)
(-1.3523912e-05 -4.2306699e-05 1.920053e-20)
(-7.6393288e-05 0.00044687305 -5.0278748e-19)
(-0.00017472011 0.00045429412 -1.4403391e-19)
(-0.00028558855 0.00045921153 -3.9731076e-20)
(-0.00039238467 0.00046369877 -1.7012248e-19)
(-0.00050239817 0.0004664809 -9.8805107e-21)
(-0.0006122133 0.00046775749 -1.4673889e-19)
(-0.00072169498 0.000468006 -1.0433616e-19)
(-0.00083079653 0.00046752443 1.576057e-21)
(-0.00093940168 0.000466499 1.4358344e-19)
(-0.0010473693 0.0004650439 2.0219818e-19)
(-0.0011545673 0.00046322808 1.2489132e-19)
(-0.0012608742 0.00046109284 1.3152733e-19)
(-0.0013661761 0.00045866311 -3.5412316e-20)
(-0.001470365 0.00045595415 1.2523679e-19)
(-0.0015733375 0.00045297549 1.39636e-19)
(-0.0016749935 0.00044973317 -6.8136896e-20)
(-0.0017752355 0.00044623119 1.024324e-19)
(-0.0018739684 0.00044247218 2.4393498e-20)
(-0.0019710995 0.00043845777 -6.3202649e-20)
(-0.0020665387 0.0004341888 5.866274e-20)
(-0.0021601982 0.00042966728 6.2952507e-20)
(-0.0022519922 0.00042489628 8.041725e-20)
(-0.0023418365 0.00041987917 1.1598997e-19)
(-0.0024296487 0.00041461938 -1.9494869e-20)
(-0.002515349 0.00040912051 -7.6967757e-20)
(-0.0025988604 0.00040338651 -6.321178e-20)
(-0.0026801088 0.00039742179 -2.1998626e-19)
(-0.0027590231 0.00039123136 -7.0576991e-20)
(-0.0028355356 0.00038482086 5.2756487e-20)
(-0.0029095821 0.00037819659 -4.1715021e-20)
(-0.0029811022 0.0003713655 -1.3050839e-19)
(-0.0030500389 0.00036433519 -6.40179e-20)
(-0.0031163396 0.00035711391 1.5706856e-19)
(-0.0031799557 0.00034971052 4.2958729e-20)
(-0.0032408429 0.00034213452 -2.1365742e-19)
(-0.0032989615 0.00033439593 -1.0290783e-19)
(-0.003354276 0.00032650536 1.5949234e-19)
(-0.0034067561 0.00031847391 1.8190909e-19)
(-0.0034563758 0.00031031314 -6.1207888e-20)
(-0.0035031141 0.00030203504 -2.0675231e-19)
(-0.0035469551 0.00029365191 -8.3060254e-20)
(-0.0035878875 0.00028517639 1.5858475e-19)
(-0.0036259052 0.00027662136 2.4473806e-19)
(-0.0036610069 0.00026799988 -2.2020909e-20)
(-0.0036931963 0.00025932511 7.8035116e-21)
(-0.0037224817 0.00025061032 -3.0668416e-19)
(-0.0037488766 0.00024186875 -3.3049891e-19)
(-0.0037723988 0.00023311362 6.9344608e-20)
(-0.003793071 0.00022435802 1.0489228e-19)
(-0.0038109202 0.00021561488 3.9290669e-19)
(-0.0038259778 0.00020689692 5.905646e-20)
(-0.0038382793 0.00019821659 -3.6123094e-19)
(-0.0038478641 0.00018958602 9.3397639e-20)
(-0.0038547757 0.00018101699 1.6531477e-19)
(-0.0038590609 0.00017252085 -4.3104323e-20)
(-0.0038607702 0.00016410854 -1.6761717e-19)
(-0.0038599569 0.00015579051 -1.4980807e-19)
(-0.0038566776 0.00014757669 1.748492e-19)
(-0.0038509914 0.0001394765 3.3735172e-20)
(-0.0038429601 0.00013149878 -3.5318004e-19)
(-0.0038326477 0.00012365181 -5.6741897e-20)
(-0.0038201199 0.00011594327 2.6152556e-19)
(-0.0038054447 0.00010838024 7.0822288e-20)
(-0.0037886913 0.00010096918 -7.1271339e-20)
(-0.0037699303 9.371596e-05 9.7318879e-20)
(-0.0037492333 8.6625813e-05 7.0523643e-20)
(-0.0037266728 7.9703373e-05 -2.4999537e-19)
(-0.0037023219 7.2952676e-05 -1.1605859e-19)
(-0.0036762542 6.6377179e-05 8.7179641e-21)
(-0.0036485434 5.9979748e-05 -3.6939296e-20)
(-0.0036192632 5.3762722e-05 1.4858667e-20)
(-0.0035884872 4.7727871e-05 2.9713034e-20)
(-0.0035562886 4.1876437e-05 -8.6512418e-20)
(-0.0035227399 3.6209118e-05 -6.3358811e-20)
(-0.003487913 3.0726083e-05 1.9547991e-19)
(-0.0034518791 2.5426963e-05 1.7094474e-19)
(-0.0034147079 2.0310935e-05 -2.4418631e-19)
(-0.0033764686 1.5376762e-05 -4.3524304e-19)
(-0.0033372294 1.0622997e-05 -6.9111574e-20)
(-0.0032970596 6.0478718e-06 1.6944146e-19)
(-0.0032560381 1.6534732e-06 -2.2541142e-20)
(-0.0032142024 -2.5422517e-06 -2.2031968e-19)
(-0.0031716059 -6.5320457e-06 -2.8974757e-20)
(-0.0031283314 -1.0353184e-05 9.947004e-20)
(-0.0030844297 -1.4014803e-05 1.8510468e-20)
(-0.0030399561 -1.7518953e-05 -4.6916105e-20)
(-0.0029949663 -2.0867944e-05 -2.2646089e-19)
(-0.002949514 -2.406458e-05 -7.254533e-20)
(-0.0029036503 -2.7112076e-05 1.8572362e-19)
(-0.0028574245 -3.0013976e-05 1.7830256e-19)
(-0.0028108838 -3.2774027e-05 -4.3329047e-20)
(-0.0027640733 -3.5396149e-05 -2.3376621e-19)
(-0.0027170365 -3.7884365e-05 -3.2719383e-21)
(-0.0026698147 -4.0242788e-05 1.1344644e-19)
(-0.0026224473 -4.2475583e-05 1.1194157e-19)
(-0.002574972 -4.4586946e-05 9.7794448e-20)
(-0.0025274246 -4.6581098e-05 -1.755134e-19)
(-0.0024798391 -4.846225e-05 -1.3037787e-19)
(-0.0024322475 -5.0234613e-05 -9.2293527e-21)
(-0.0023846804 -5.1902355e-05 8.191222e-21)
(-0.0023371666 -5.3469631e-05 1.5230064e-19)
(-0.0022897329 -5.494052e-05 3.7186059e-20)
(-0.002242405 -5.6319057e-05 -3.5261188e-20)
(-0.0021952065 -5.7609223e-05 -1.4304282e-20)
(-0.0021481599 -5.8814921e-05 9.7025949e-20)
(-0.0021012859 -5.9939961e-05 1.1761669e-19)
(-0.0020546039 -6.0988092e-05 -7.0562218e-20)
(-0.0020081318 -6.1962972e-05 -6.9340071e-20)
(-0.0019618862 -6.286816e-05 -8.9031146e-20)
(-0.0019158825 -6.3707128e-05 -1.3028771e-19)
(-0.0018701346 -6.4483251e-05 5.0414505e-21)
(-0.0018246555 -6.5199802e-05 1.1545733e-19)
(-0.0017794567 -6.5859961e-05 8.5244461e-20)
(-0.0017345489 -6.6466811e-05 3.0561332e-20)
(-0.0016899416 -6.7023316e-05 -5.0637933e-20)
(-0.0016456433 -6.7532363e-05 -8.1789782e-20)
(-0.0016016614 -6.7996713e-05 -9.3325393e-20)
(-0.0015580026 -6.8419061e-05 -3.3257373e-21)
(-0.0015146726 -6.8801969e-05 5.7946755e-20)
(-0.0014716762 -6.9147925e-05 6.9769371e-20)
(-0.0014290176 -6.9459303e-05 3.7972671e-20)
(-0.0013867 -6.9738389e-05 -5.2471214e-20)
(-0.0013447259 -6.9987373e-05 -2.8616732e-20)
(-0.0013030975 -7.0208352e-05 3.7594006e-20)
(-0.0012618158 -7.0403337e-05 7.1431831e-20)
(-0.0012208816 -7.0574262e-05 3.8755676e-20)
(-0.0011802951 -7.0722961e-05 -2.2726864e-20)
(-0.0011400557 -7.0851178e-05 3.4581272e-22)
(-0.0011001625 -7.096059e-05 -2.5979861e-20)
(-0.0010606141 -7.105279e-05 1.6168655e-20)
(-0.0010214087 -7.1129292e-05 6.9212913e-20)
(-0.00098254407 -7.1191528e-05 1.9601532e-20)
(-0.00094401754 -7.1240861e-05 1.9431829e-20)
(-0.00090582612 -7.1278592e-05 -3.786524e-21)
(-0.00086796651 -7.1305931e-05 -3.3157412e-20)
(-0.0008304351 -7.1324035e-05 -4.3361722e-20)
(-0.00079322798 -7.1334001e-05 4.281302e-21)
(-0.00075634102 -7.1336843e-05 8.2224832e-21)
(-0.00071976985 -7.1333534e-05 -2.2501594e-20)
(-0.00068350988 -7.1324964e-05 -1.1373771e-20)
(-0.00064755633 -7.131198e-05 1.6892698e-20)
(-0.00061190427 -7.1295362e-05 1.5140576e-21)
(-0.00057654861 -7.1275829e-05 1.4262889e-20)
(-0.00054148415 -7.125402e-05 5.0333126e-21)
(-0.00050670557 -7.1230531e-05 -6.8523703e-21)
(-0.00047220747 -7.1205862e-05 1.6545864e-20)
(-0.00043798439 -7.1180422e-05 -1.8312768e-20)
(-0.00040403079 -7.1154499e-05 -3.1745124e-21)
(-0.00037034112 -7.1128198e-05 2.9851928e-20)
(-0.00033690976 -7.110139e-05 3.1874119e-20)
(-0.00030373102 -7.1073523e-05 2.2520693e-20)
(-0.00027079903 -7.1043497e-05 5.2810418e-21)
(-0.00023810744 -7.1009423e-05 7.3499225e-21)
(-0.00020564877 -7.0968703e-05 -2.5500025e-20)
(-0.00017341331 -7.0919029e-05 -5.1088278e-21)
(-0.00014138792 -7.0862713e-05 2.3331582e-20)
(-0.00010955443 -7.0819514e-05 7.3759775e-21)
(-7.7885843e-05 -7.0853921e-05 1.4902571e-20)
(-4.6367186e-05 -7.1114082e-05 1.836649e-20)
(-1.5273845e-05 -7.175446e-05 2.8955364e-20)
(-8.2481375e-05 0.00068610349 -6.3705125e-19)
(-0.00018895244 0.00069065357 -4.6135876e-19)
(-0.00030897552 0.00069423959 -1.4147706e-19)
(-0.00042421178 0.00069746407 1.5275637e-20)