/*--------------------------------*- C++ -*----------------------------------*\
| =========                 |                                                 |
| \\      /  F ield         | OpenFOAM: The Open Source CFD Toolbox           |
|  \\    /   O peration     | Version:  2306                                  |
|   \\  /    A nd           | Website:  www.openfoam.com                      |
|    \\/     M anipulation  |                                                 |
\*---------------------------------------------------------------------------*/
FoamFile
{
    version     2.0;
    format      ascii;
    arch        "LSB;label=32;scalar=64";
    class       volVectorField;
    location    "0.15";
    object      U_0;
}
// * * * * * * * * * * * * * * * * * * * * * * * * * * * * * * * * * * * * * //

dimensions      [0 1 -1 0 0 0 0];

internalField   nonuniform List<vector> 
6400
(
(-0.00089165611 -7.0671016e-07 -4.6233045e-19)
(-0.00087862207 -8.2392114e-07 1.5885991e-19)
(-0.00086547377 -9.3213827e-07 3.1946457e-19)
(-0.00085222598 -1.0323595e-06 3.900276e-21)
(-0.00083889285 -1.1254292e-06 1.1615556e-19)
(-0.00082548779 -1.2120166e-06 -1.4484965e-19)
(-0.00081202358 -1.29266e-06 -4.3007462e-21)
(-0.00079851238 -1.3677979e-06 -9.3517415e-21)
(-0.00078496573 -1.4377999e-06 -2.1964918e-19)
(-0.00077139459 -1.502991e-06 1.2045327e-19)
(-0.00075780935 -1.5636519e-06 -1.6628681e-19)
(-0.00074421985 -1.6200415e-06 -1.0813633e-19)
(-0.00073063539 -1.672394e-06 2.4503067e-19)
(-0.00071706475 -1.7209306e-06 1.1173535e-19)
(-0.0007035162 -1.7658589e-06 -3.5383122e-20)
(-0.0006899975 -1.8073685e-06 -2.4010746e-19)
(-0.00067651596 -1.8456409e-06 -9.6665346e-22)
(-0.00066307841 -1.8808528e-06 1.6328359e-19)
(-0.00064969122 -1.9131662e-06 1.5526409e-19)
(-0.00063636033 -1.942735e-06 -2.3276772e-20)
(-0.00062309128 -1.9697172e-06 -2.905064e-19)
(-0.00060988918 -1.9942501e-06 5.6304627e-20)
(-0.00059675876 -2.016472e-06 1.0123004e-19)
(-0.00058370438 -2.0365144e-06 8.6399084e-20)
(-0.00057073002 -2.0545011e-06 1.0463223e-20)
(-0.00055783935 -2.070555e-06 -2.740452e-19)
(-0.00054503567 -2.0847873e-06 6.2629853e-20)
(-0.000532322 -2.0973121e-06 1.6034888e-19)
(-0.00051970102 -2.1082311e-06 2.5325348e-20)
(-0.00050717514 -2.1176473e-06 7.5022042e-21)
(-0.0004947465 -2.1256522e-06 -1.9921567e-19)
(-0.00048241696 -2.1323462e-06 -4.5570967e-20)
(-0.00047018815 -2.137807e-06 1.2019658e-19)
(-0.00045806144 -2.1421261e-06 2.2354798e-20)
(-0.00044603798 -2.1453746e-06 3.0317612e-20)
(-0.00043411872 -2.1476373e-06 -4.2044295e-20)
(-0.00042230439 -2.1489846e-06 5.7689387e-21)
(-0.00041059553 -2.1494826e-06 3.9812273e-20)
(-0.0003989925 -2.149196e-06 -6.7643703e-23)
(-0.0003874955 -2.1481919e-06 3.8858315e-20)
(-0.00037610456 -2.1465275e-06 -5.3504697e-20)
(-0.00036481954 -2.144263e-06 -2.5271396e-20)
(-0.00035364018 -2.14144e-06 4.6928243e-20)
(-0.00034256608 -2.1381243e-06 5.331124e-20)
(-0.00033159671 -2.1343549e-06 6.6155535e-21)
(-0.00032073143 -2.1301786e-06 -1.1876988e-19)
(-0.00030996948 -2.1256401e-06 -4.1294726e-20)
(-0.00029931001 -2.1207797e-06 6.9706133e-20)
(-0.00028875206 -2.1156374e-06 4.2140743e-20)
(-0.00027829459 -2.1102456e-06 -2.1759327e-20)
(-0.00026793649 -2.1046394e-06 -4.829874e-20)
(-0.00025767656 -2.0988531e-06 1.8196881e-21)
(-0.00024751354 -2.0929179e-06 5.8157818e-21)
(-0.00023744608 -2.0868599e-06 -2.0196268e-20)
(-0.00022747281 -2.0807069e-06 -3.3926757e-20)
(-0.00021759229 -2.0744834e-06 8.0202539e-21)
(-0.00020780303 -2.0682117e-06 5.2873845e-20)
(-0.00019810351 -2.0619145e-06 1.3898531e-20)
(-0.00018849216 -2.055613e-06 -7.0843469e-23)
(-0.00017896738 -2.0493277e-06 -4.8200215e-21)
(-0.00016952753 -2.0430719e-06 -1.8396518e-20)
(-0.00016017098 -2.0368593e-06 1.4773383e-20)
(-0.00015089605 -2.0307127e-06 2.798662e-21)
(-0.00014170105 -2.0246385e-06 2.7744937e-22)
(-0.00013258428 -2.0186474e-06 1.8784453e-20)
(-0.00012354404 -2.012755e-06 -3.0931346e-20)
(-0.00011457863 -2.0069634e-06 -1.7929714e-20)
(-0.00010568633 -2.0012795e-06 2.7739126e-20)
(-9.6865476e-05 -1.9956978e-06 2.0080761e-20)
(-8.8114431e-05 -1.990197e-06 -6.7304553e-21)
(-7.9431638e-05 -1.9847321e-06 -2.4876734e-20)
(-7.0815701e-05 -1.9791825e-06 -8.2053999e-21)
(-6.2265591e-05 -1.9732398e-06 1.5059293e-20)
(-5.3781067e-05 -1.9661781e-06 6.018799e-21)
(-4.5363668e-05 -1.9562643e-06 -5.1157253e-21)
(-3.7018877e-05 -1.9398732e-06 -6.4976066e-21)
(-2.8760636e-05 -1.9115393e-06 -1.3653405e-21)
(-2.0615192e-05 -1.875265e-06 2.8531238e-21)
(-1.2559319e-05 -1.9442671e-06 4.7417543e-22)
(-4.2402192e-06 -2.5911797e-06 -3.2578805e-21)
(-0.0016956635 -3.509334e-06 -1.022173e-20)
(-0.0016705886 -4.2676557e-06 1.022257e-19)
(-0.0016453151 -4.9867971e-06 1.7704622e-19)
(-0.0016198701 -5.6684948e-06 -2.4821944e-19)
(-0.0015942795 -6.3143026e-06 -2.6800447e-20)
(-0.001568568 -6.9256485e-06 2.7225897e-19)
(-0.0015427592 -7.5038798e-06 -2.848594e-19)
(-0.0015168754 -8.0502722e-06 4.2730737e-20)
(-0.0014909381 -8.5660682e-06 1.6082481e-19)
(-0.0014649675 -9.0524745e-06 -1.4640536e-19)
(-0.0014389829 -9.5106622e-06 -1.3046804e-19)
(-0.0014130024 -9.9417845e-06 -1.78223e-19)
(-0.0013870434 -1.0346956e-05 2.0135765e-19)
(-0.001361122 -1.0727273e-05 1.4310407e-19)
(-0.0013352534 -1.1083809e-05 -8.9298636e-20)
(-0.001309452 -1.1417603e-05 -4.2507495e-20)
(-0.0012837312 -1.1729668e-05 -3.465927e-21)
(-0.0012581036 -1.2020995e-05 1.6922065e-19)
(-0.0012325808 -1.2292548e-05 -1.6680656e-20)
(-0.0012071738 -1.254525e-05 -2.3614426e-19)
(-0.0011818927 -1.2780024e-05 -5.1892861e-20)
(-0.0011567467 -1.2997741e-05 1.6329402e-19)
(-0.0011317446 -1.3199252e-05 1.6570331e-19)
(-0.0011068942 -1.3385386e-05 8.8835726e-21)
(-0.0010822028 -1.3556933e-05 -1.7677305e-19)
(-0.0010576769 -1.3714677e-05 -1.6465656e-19)
(-0.0010333225 -1.3859347e-05 8.8522008e-20)
(-0.0010091451 -1.3991676e-05 2.65924e-19)
(-0.00098514936 -1.4112347e-05 2.418369e-20)
(-0.00096133964 -1.4222031e-05 -2.232524e-19)
(-0.00093771969 -1.4321362e-05 -7.2504482e-20)
(-0.00091429278 -1.4410964e-05 -1.3874542e-20)
(-0.00089106172 -1.4491423e-05 1.7464204e-19)
(-0.00086802887 -1.4563313e-05 1.9583618e-19)
(-0.00084519619 -1.462717e-05 -1.4102858e-19)
(-0.00082256523 -1.4683526e-05 -1.7747101e-19)
(-0.00080013716 -1.4732882e-05 -2.9588616e-20)
(-0.00077791279 -1.4775713e-05 1.6060346e-19)
(-0.00075589261 -1.4812471e-05 7.1812891e-20)
(-0.00073407677 -1.4843606e-05 -1.8841855e-19)
(-0.00071246516 -1.4869528e-05 -6.0625123e-20)
(-0.00069105736 -1.4890642e-05 1.5168682e-19)
(-0.00066985268 -1.490732e-05 1.2902068e-19)
(-0.00064885021 -1.4919933e-05 -5.8898216e-20)
(-0.00062804878 -1.4928821e-05 -1.9142557e-19)
(-0.00060744704 -1.4934311e-05 -2.7003805e-20)
(-0.00058704341 -1.4936719e-05 1.2316401e-19)
(-0.00056683612 -1.4936346e-05 7.6189571e-20)
(-0.00054682325 -1.4933462e-05 -2.2735786e-20)
(-0.0005270027 -1.4928339e-05 -1.0640838e-19)
(-0.00050737223 -1.4921228e-05 -3.5898463e-20)
(-0.00048792946 -1.4912368e-05 1.1504592e-19)
(-0.00046867189 -1.4901992e-05 9.5088396e-20)
(-0.0004495969 -1.4890306e-05 -5.2709625e-20)
(-0.00043070176 -1.4877511e-05 -1.4899497e-19)
(-0.00041198365 -1.4863798e-05 -1.3117107e-20)
(-0.00039343967 -1.4849342e-05 1.1654712e-19)
(-0.00037506685 -1.4834318e-05 4.6855879e-20)
(-0.00035686214 -1.4818875e-05 -2.2984719e-20)
(-0.00033882242 -1.4803165e-05 -3.8730483e-20)
(-0.00032094455 -1.4787317e-05 -6.7611361e-21)
(-0.00030322532 -1.4771457e-05 1.7427622e-20)
(-0.0002856615 -1.4755711e-05 2.0415496e-20)
(-0.00026824983 -1.4740176e-05 -1.4574667e-20)
(-0.00025098702 -1.4724945e-05 -3.7307232e-20)
(-0.00023386978 -1.4710114e-05 -5.2188115e-21)
(-0.00021689481 -1.4695749e-05 2.6448781e-20)
(-0.00020005883 -1.4681902e-05 3.3374226e-20)
(-0.00018335856 -1.4668591e-05 -9.2579882e-21)
(-0.00016679078 -1.4655796e-05 -3.9435855e-20)
(-0.00015035233 -1.4643408e-05 -4.3136143e-21)
(-0.00013404014 -1.4631127e-05 2.1236309e-20)
(-0.00011785128 -1.4618252e-05 1.4982829e-20)
(-0.00010178299 -1.4603246e-05 -6.6641825e-21)
(-8.5832573e-05 -1.4582814e-05 -1.4832571e-20)
(-6.9996626e-05 -1.4550842e-05 -1.0049918e-21)
(-5.4268111e-05 -1.4500053e-05 6.1540939e-21)
(-3.8630216e-05 -1.443612e-05 2.4059281e-21)
(-2.3056598e-05 -1.4429789e-05 -2.2745684e-21)
(-7.6088329e-06 -1.4743004e-05 -3.1890462e-21)
(-0.002007307 -7.9087934e-06 1.5639958e-19)
(-0.0019774715 -9.5336693e-06 -1.3277301e-19)
(-0.0019474085 -1.1079128e-05 -1.0043899e-19)
(-0.00191715 -1.2547458e-05 -9.2051788e-20)
(-0.0018867266 -1.3940936e-05 -5.5430007e-20)
(-0.0018561675 -1.5261896e-05 1.2547041e-19)
(-0.0018255006 -1.6512712e-05 -8.3087131e-20)
(-0.0017947524 -1.7695765e-05 3.1417271e-20)
(-0.0017639479 -1.8813455e-05 1.5936796e-19)
(-0.0017331112 -1.9868181e-05 -5.4925799e-20)
(-0.0017022647 -2.0862325e-05 -5.5162337e-20)
(-0.0016714299 -2.179825e-05 -3.4588677e-20)
(-0.0016406268 -2.2678283e-05 4.2865027e-20)
(-0.0016098745 -2.350472e-05 -1.9697848e-20)
(-0.0015791909 -2.4279813e-05 -1.0757197e-20)
(-0.0015485925 -2.5005783e-05 1.2348324e-19)
(-0.0015180952 -2.5684783e-05 -3.2861423e-20)
(-0.0014877135 -2.6318931e-05 -4.5947951e-20)
(-0.0014574611 -2.691029e-05 -8.1113636e-20)
(-0.0014273507 -2.746086e-05 -4.9913685e-20)
(-0.001397394 -2.7972602e-05 1.1237983e-19)
(-0.0013676019 -2.8447419e-05 3.8241811e-20)
(-0.0013379843 -2.8887137e-05 2.5548156e-20)
(-0.0013085504 -2.9293549e-05 -6.356345e-20)
(-0.0012793086 -2.9668371e-05 -4.6220103e-20)
(-0.0012502665 -3.0013284e-05 9.453678e-20)
(-0.001221431 -3.0329892e-05 9.7548495e-21)
(-0.0011928083 -3.0619759e-05 1.8288644e-20)
(-0.0011644038 -3.0884381e-05 -3.5560657e-20)
(-0.0011362226 -3.1125206e-05 -1.0993205e-19)
(-0.0011082689 -3.1343628e-05 4.3274303e-20)
(-0.0010805463 -3.1540973e-05 4.2117999e-20)
(-0.0010530582 -3.1718538e-05 2.786405e-20)
(-0.0010258071 -3.1877558e-05 5.5502709e-20)
(-0.00099879527 -3.201921e-05 -5.1122177e-20)
(-0.00097202432 -3.2144635e-05 -6.6139869e-20)
(-0.00094549554 -3.2254922e-05 -2.7134864e-20)
(-0.00091920979 -3.2351114e-05 4.970288e-20)
(-0.00089316751 -3.2434197e-05 2.7640309e-20)
(-0.00086736878 -3.2505133e-05 -5.1845557e-20)
(-0.00084181334 -3.2564825e-05 9.9301929e-21)
(-0.0008165006 -3.2614143e-05 4.4913179e-20)
(-0.00079142966 -3.2653914e-05 2.0033628e-20)
(-0.00076659933 -3.2684928e-05 -4.2483569e-20)
(-0.00074200816 -3.2707931e-05 -5.7603331e-20)
(-0.00071765444 -3.272364e-05 3.6448001e-20)
(-0.00069353623 -3.2732736e-05 4.8450549e-20)
(-0.00066965137 -3.2735871e-05 1.266371e-20)
(-0.00064599749 -3.2733636e-05 -3.0255354e-20)
(-0.00062257206 -3.2726629e-05 -3.0057036e-20)
(-0.00059937235 -3.2715392e-05 2.1209974e-20)
(-0.00057639549 -3.2700446e-05 2.7624961e-20)
(-0.00055363845 -3.268229e-05 1.8282872e-20)
(-0.00053109808 -3.2661386e-05 -1.257687e-20)
(-0.00050877109 -3.2638164e-05 -3.1522713e-20)
(-0.00048665411 -3.2613043e-05 -5.6638161e-21)
(-0.00046474364 -3.2586409e-05 2.2641183e-20)
(-0.00044303612 -3.2558632e-05 1.6054936e-20)
(-0.0004215279 -3.2530051e-05 -1.5091032e-20)
(-0.00040021526 -3.2500985e-05 -1.3204815e-20)
(-0.00037909443 -3.2471727e-05 8.3726383e-21)
(-0.00035816158 -3.2442554e-05 -8.1935019e-21)
(-0.00033741285 -3.2413731e-05 3.7459076e-21)
(-0.00031684434 -3.2385483e-05 -2.4410605e-21)
(-0.00029645213 -3.2358019e-05 -1.1340489e-20)
(-0.00027623228 -3.2331541e-05 1.5354949e-20)
(-0.00025618086 -3.2306207e-05 3.9470123e-21)
(-0.00023629393 -3.228215e-05 -1.5503961e-21)
(-0.00021656755 -3.225946e-05 -4.4724928e-21)
(-0.00019699782 -3.2238162e-05 -5.4751578e-21)
(-0.00017758085 -3.2218206e-05 1.4575363e-20)
(-0.00015831278 -3.2199358e-05 8.0629754e-21)
(-0.0001391897 -3.2181123e-05 4.0109366e-22)
(-0.00012020748 -3.2162557e-05 -1.2809382e-20)
(-0.00010136141 -3.2142072e-05 -5.8483227e-21)
(-8.2645297e-05 -3.2117833e-05 1.2564105e-20)
(-6.4049256e-05 -3.2091451e-05 3.9048368e-21)
(-4.5554852e-05 -3.2081562e-05 -5.916107e-22)
(-2.7141368e-05 -3.2156179e-05 5.5999706e-22)
(-8.9520917e-06 -3.2440988e-05 6.3209868e-21)
(-0.0021142047 -1.2885001e-05 1.1837021e-20)
(-0.0020826612 -1.5462334e-05 -6.2104942e-20)
(-0.0020508841 -1.7911147e-05 -5.4337423e-21)
(-0.0020189073 -2.0235573e-05 9.4962739e-21)
(-0.0019867629 -2.2439716e-05 4.4434243e-21)
(-0.0019544815 -2.4527663e-05 1.5870785e-20)
(-0.0019220923 -2.6503478e-05 -6.1267368e-20)
(-0.001889623 -2.8371185e-05 -1.8615582e-20)
(-0.0018571 -3.0134758e-05 2.0456977e-20)
(-0.0018245484 -3.1798152e-05 2.4577667e-20)
(-0.0017919917 -3.3365251e-05 1.2173647e-21)
(-0.0017594522 -3.4839886e-05 -4.4723226e-20)
(-0.0017269512 -3.6225824e-05 2.9293509e-20)
(-0.0016945083 -3.7526755e-05 1.8425502e-20)
(-0.0016621422 -3.8746314e-05 1.6700647e-20)
(-0.0016298705 -3.9888044e-05 3.4641281e-20)
(-0.0015977094 -4.0955393e-05 -5.0100609e-20)
(-0.0015656743 -4.1951753e-05 -2.397639e-20)
(-0.0015337793 -4.2880407e-05 -3.1965562e-21)
(-0.0015020376 -4.374455e-05 6.4416539e-21)
(-0.0014704614 -4.45473e-05 4.088691e-20)
(-0.0014390621 -4.529168e-05 -7.9653842e-21)
(-0.00140785 -4.5980607e-05 5.3035442e-21)
(-0.0013768346 -4.6616924e-05 -1.4276733e-20)
(-0.0013460246 -4.720336e-05 1.2330174e-20)
(-0.0013154278 -4.7742573e-05 4.0612276e-20)
(-0.0012850514 -4.8237115e-05 -2.2737967e-20)
(-0.0012549018 -4.8689468e-05 -1.25541e-20)
(-0.0012249847 -4.9102001e-05 -3.4504694e-20)
(-0.001195305 -4.9477004e-05 -4.6977959e-20)
(-0.0011658673 -4.981669e-05 5.9159779e-21)
(-0.0011366752 -5.0123165e-05 3.5249989e-20)
(-0.0011077321 -5.0398473e-05 3.0342412e-20)
(-0.0010790406 -5.0644569e-05 -5.1615497e-22)
(-0.0010506029 -5.0863325e-05 -2.7434923e-20)
(-0.0010224207 -5.1056537e-05 -1.4044707e-20)
(-0.00099449514 -5.122593e-05 -1.7988282e-20)
(-0.00096682713 -5.1373145e-05 1.4985067e-20)
(-0.00093941701 -5.1499759e-05 1.8399383e-20)
(-0.00091226479 -5.1607271e-05 9.4329751e-21)
(-0.0008853701 -5.1697123e-05 8.736557e-21)
(-0.00085873223 -5.177069e-05 -1.68401e-20)
(-0.00083235016 -5.1829265e-05 -7.6389503e-21)
(-0.00080622257 -5.1874108e-05 8.1346921e-21)
(-0.00078034786 -5.1906391e-05 2.1375133e-20)
(-0.00075472415 -5.192725e-05 1.927461e-20)
(-0.00072934934 -5.1937753e-05 -1.9748481e-21)
(-0.0007042211 -5.1938928e-05 2.9014385e-21)
(-0.00067933688 -5.1931727e-05 -1.9083812e-20)
(-0.00065469394 -5.1917069e-05 -1.5906461e-21)
(-0.00063028937 -5.1895821e-05 2.4812314e-20)
(-0.00060612008 -5.1868808e-05 1.0070047e-20)
(-0.00058218283 -5.1836805e-05 1.1123137e-20)
(-0.00055847428 -5.1800545e-05 -1.0328143e-20)
(-0.0005349909 -5.1760718e-05 -1.8091594e-20)
(-0.00051172911 -5.171797e-05 -1.4308968e-20)
(-0.00048868518 -5.1672922e-05 7.443143e-21)
(-0.00046585532 -5.1626137e-05 3.9301383e-21)
(-0.00044323566 -5.1578165e-05 -1.0578046e-20)
(-0.00042082223 -5.1529507e-05 -3.2978394e-21)
(-0.00039861104 -5.1480623e-05 7.7483694e-21)
(-0.00037659803 -5.1431952e-05 8.0019117e-22)
(-0.00035477908 -5.1383905e-05 8.8525843e-21)
(-0.00033315008 -5.1336848e-05 9.5462494e-22)
(-0.00031170685 -5.1291119e-05 -5.7255743e-21)
(-0.00029044522 -5.1247026e-05 5.3670295e-21)
(-0.000269361 -5.1204832e-05 -9.4483632e-21)
(-0.00024845 -5.1164769e-05 1.1855841e-21)
(-0.00022770803 -5.1127018e-05 1.2462006e-20)
(-0.0002071309 -5.1091681e-05 1.100957e-20)
(-0.0001867144 -5.1058808e-05 7.9518715e-21)
(-0.00016645429 -5.1028302e-05 1.6647301e-21)
(-0.00014634622 -5.0999918e-05 4.1101393e-21)
(-0.00012638551 -5.0973195e-05 -1.3430309e-20)
(-0.00010656693 -5.094753e-05 -3.2449678e-21)
(-8.6884275e-05 -5.0922748e-05 1.0289884e-20)
(-6.7329586e-05 -5.0901672e-05 1.6888376e-21)
(-4.7888957e-05 -5.0897035e-05 5.7133544e-21)
(-2.8547805e-05 -5.0945267e-05 5.7836557e-21)
(-9.423086e-06 -5.1091139e-05 1.0460735e-20)
(-0.0021485333 -1.8262246e-05 2.3264996e-20)
(-0.002116354 -2.1814987e-05 -5.3959651e-21)
(-0.0020839437 -2.5189199e-05 -2.5069381e-21)
(-0.0020513363 -2.8390743e-05 6.3983987e-21)
(-0.0020185645 -3.1425403e-05 4.8773298e-21)
(-0.0019856593 -3.4298918e-05 6.2396614e-21)
(-0.0019526503 -3.7016985e-05 -1.2057348e-20)
(-0.0019195657 -3.9585257e-05 -3.829467e-21)
(-0.001886432 -4.2009316e-05 -4.5326572e-20)
(-0.0018532746 -4.4294699e-05 -3.1040678e-21)
(-0.0018201173 -4.6446843e-05 3.1928281e-20)
(-0.0017869828 -4.8471109e-05 -2.81785e-20)
(-0.0017538924 -5.0372755e-05 2.3902654e-20)
(-0.0017208659 -5.2156937e-05 2.2404326e-20)
(-0.0016879223 -5.3828719e-05 7.1912048e-21)
(-0.0016550791 -5.5393028e-05 8.3497969e-21)
(-0.0016223529 -5.6854676e-05 -4.0728763e-20)
(-0.0015897589 -5.8218366e-05 -1.0008103e-20)
(-0.0015573115 -5.9488671e-05 1.2632229e-21)
(-0.0015250239 -6.0670024e-05 -7.764378e-22)
(-0.0014929083 -6.1766746e-05 2.0415248e-20)
(-0.0014609762 -6.278302e-05 6.1152726e-21)
(-0.0014292379 -6.3722913e-05 2.7774914e-20)
(-0.0013977028 -6.4590341e-05 -2.9818588e-22)
(-0.0013663798 -6.5389098e-05 9.9690504e-21)
(-0.0013352766 -6.6122854e-05 3.0015332e-20)
(-0.0013044003 -6.6795144e-05 -1.5024715e-20)
(-0.0012737574 -6.7409395e-05 -8.8549198e-21)
(-0.0012433534 -6.7968886e-05 -3.4768934e-20)
(-0.0012131933 -6.8476775e-05 -2.9972613e-20)
(-0.0011832815 -6.8936115e-05 -3.129193e-21)
(-0.0011536218 -6.9349834e-05 1.351781e-20)
(-0.0011242173 -6.9720739e-05 2.2797895e-20)
(-0.0010950706 -7.0051526e-05 -5.9057485e-21)
(-0.0010661837 -7.0344783e-05 -1.6531566e-20)
(-0.0010375585 -7.0602981e-05 -1.0841086e-20)
(-0.0010091958 -7.0828507e-05 -2.4225152e-20)
(-0.0009810966 -7.1023613e-05 4.6170491e-22)
(-0.00095326103 -7.1190472e-05 6.8079485e-21)
(-0.00092568905 -7.1331157e-05 2.9397631e-21)
(-0.00089838019 -7.144765e-05 1.1824159e-20)
(-0.00087133365 -7.1541839e-05 1.0037109e-20)
(-0.00084454832 -7.1615512e-05 1.1180193e-20)
(-0.00081802276 -7.1670397e-05 5.338886e-21)
(-0.00079175527 -7.1708108e-05 1.9530219e-21)
(-0.00076574388 -7.1730209e-05 5.0655039e-21)
(-0.00073998638 -7.1738166e-05 -9.5674841e-21)
(-0.00071448033 -7.1733385e-05 5.9860677e-21)
(-0.00068922309 -7.1717193e-05 -2.8153909e-21)
(-0.00066421181 -7.1690835e-05 -8.1343553e-22)
(-0.00063944346 -7.1655515e-05 1.7693479e-20)
(-0.00061491486 -7.1612356e-05 1.2844476e-20)
(-0.00059062267 -7.1562424e-05 1.5274742e-20)
(-0.00056656342 -7.1506724e-05 -6.8635717e-21)
(-0.00054273351 -7.1446208e-05 -1.6279883e-20)
(-0.00051912922 -7.1381758e-05 -2.1878764e-20)
(-0.00049574675 -7.1314226e-05 3.1252877e-21)
(-0.00047258219 -7.1244382e-05 9.3241893e-21)
(-0.00044963155 -7.117298e-05 1.454739e-21)
(-0.0004268908 -7.1100701e-05 1.8564915e-21)
(-0.00040435581 -7.1028187e-05 6.2360124e-21)
(-0.00038202243 -7.0956037e-05 -2.8143859e-21)
(-0.00035988644 -7.0884807e-05 3.6146823e-21)
(-0.00033794363 -7.0815005e-05 7.1794243e-21)
(-0.00031618972 -7.0747098e-05 -4.887478e-21)
(-0.00029462043 -7.0681508e-05 3.4534092e-21)
(-0.00027323146 -7.0618609e-05 -2.2677854e-21)
(-0.00025201852 -7.0558736e-05 -1.7285568e-21)
(-0.0002309773 -7.0502165e-05 2.8213464e-21)
(-0.00021010347 -7.0449112e-05 4.9102807e-21)
(-0.00018939268 -7.0399748e-05 2.5911085e-21)
(-0.00016884053 -7.0354146e-05 2.6941447e-21)
(-0.00014844251 -7.0312344e-05 9.2042339e-21)
(-0.00012819384 -7.0274326e-05 -5.6992732e-21)
(-0.00010808941 -7.0240235e-05 -2.8575517e-21)
(-8.8123861e-05 -7.0210853e-05 5.6727384e-21)
(-6.8291572e-05 -7.0189106e-05 1.5400018e-21)
(-4.8581773e-05 -7.0182851e-05 2.0833897e-21)
(-2.8982055e-05 -7.020868e-05 3.0099674e-21)
(-9.5795951e-06 -7.0276571e-05 6.3695015e-21)
(-0.0021609449 -2.3748379e-05 1.4866851e-20)
(-0.0021284298 -2.8278703e-05 6.2246447e-21)
(-0.00209569 -3.2579732e-05 -8.5735777e-21)
(-0.0020627594 -3.6659132e-05 -1.3424196e-20)
(-0.0020296708 -4.0524512e-05 -2.3012222e-21)
(-0.0019964551 -4.4183401e-05 -2.3983906e-20)
(-0.0019631421 -4.764324e-05 -2.507464e-21)
(-0.0019297597 -5.0911387e-05 4.7117443e-20)
(-0.0018963348 -5.3995098e-05 -6.2768425e-21)
(-0.0018628926 -5.6901525e-05 -5.2241388e-21)
(-0.0018294569 -5.9637692e-05 -3.6233306e-21)
(-0.0017960503 -6.2210509e-05 -3.4140407e-20)
(-0.0017626941 -6.462675e-05 3.6650059e-20)
(-0.0017294081 -6.6893047e-05 6.0239193e-21)
(-0.0016962112 -6.9015894e-05 -7.1260262e-21)
(-0.0016631208 -7.1001623e-05 -8.3315824e-22)
(-0.0016301534 -7.2856415e-05 -4.0280441e-20)
(-0.0015973242 -7.4586287e-05 -1.5782685e-20)
(-0.0015646474 -7.6197102e-05 3.8104669e-21)
(-0.0015321361 -7.7694547e-05 -5.2885851e-22)
(-0.0014998026 -7.9084146e-05 1.2721193e-20)
(-0.0014676579 -8.0371251e-05 1.0535895e-20)
(-0.0014357125 -8.1561067e-05 3.2999702e-20)
(-0.0014039756 -8.2658599e-05 4.0699386e-21)
(-0.0013724559 -8.3668704e-05 1.4614125e-20)
(-0.0013411611 -8.4596063e-05 3.4746722e-20)
(-0.0013100982 -8.5445208e-05 -3.9102833e-21)
(-0.0012792734 -8.6220501e-05 -3.9573489e-21)
(-0.0012486921 -8.6926128e-05 -2.8016364e-20)
(-0.0012183594 -8.7566135e-05 -1.9709188e-20)
(-0.0011882794 -8.8144405e-05 -1.0032949e-20)
(-0.0011584557 -8.8664683e-05 8.7645611e-22)
(-0.0011288914 -8.9130551e-05 -7.000198e-22)
(-0.001099589 -8.9545444e-05 -6.398909e-21)
(-0.0010705504 -8.9912658e-05 6.3059516e-21)
(-0.0010417771 -9.0235357e-05 -7.6630203e-21)
(-0.0010132702 -9.0516567e-05 -2.963216e-20)
(-0.00098503027 -9.0759168e-05 -4.7467837e-21)
(-0.00095705748 -9.0965928e-05 2.1956677e-21)
(-0.00092935161 -9.1139499e-05 7.6583277e-22)
(-0.00090191212 -9.1282386e-05 1.3334592e-20)
(-0.00087473808 -9.1397002e-05 1.2592976e-20)
(-0.00084782827 -9.1485628e-05 1.0340124e-20)
(-0.00082118117 -9.1550459e-05 2.9168268e-21)
(-0.00079479496 -9.1593556e-05 -4.2240548e-21)
(-0.00076866758 -9.1616908e-05 -6.7391982e-21)
(-0.00074279672 -9.162238e-05 -1.5453135e-20)
(-0.00071717985 -9.1611754e-05 4.1869844e-21)
(-0.00069181422 -9.1586723e-05 -5.2064328e-21)
(-0.00066669691 -9.1548883e-05 4.2637059e-21)
(-0.00064182479 -9.1499751e-05 1.8170914e-20)
(-0.00061719461 -9.1440759e-05 1.0186035e-20)
(-0.00059280293 -9.1373265e-05 8.984717e-21)
(-0.0005686462 -9.1298542e-05 -2.9096242e-21)
(-0.00054472075 -9.1217803e-05 -3.2964404e-21)
(-0.00052102278 -9.1132171e-05 -1.9009179e-20)
(-0.00049754841 -9.104273e-05 -1.4411403e-21)
(-0.00047429366 -9.0950452e-05 4.5121515e-21)
(-0.00045125447 -9.0856302e-05 -2.5692703e-21)
(-0.00042842673 -9.0761139e-05 -1.6338124e-21)
(-0.00040580626 -9.0665791e-05 1.8786632e-21)
(-0.00038338882 -9.0571008e-05 -6.6095326e-21)
(-0.00036117015 -9.0477508e-05 -3.9262451e-22)
(-0.00033914594 -9.0385927e-05 9.1303348e-21)
(-0.00031731187 -9.0296873e-05 3.8162166e-21)
(-0.00029566359 -9.0210881e-05 1.0590242e-20)
(-0.00027419674 -9.0128443e-05 2.9213605e-21)
(-0.00025290695 -9.0050009e-05 -1.1805563e-22)
(-0.00023178984 -8.9975955e-05 -2.9458969e-21)
(-0.00021084101 -8.9906615e-05 -6.914341e-21)
(-0.00019005605 -8.9842286e-05 -4.7278781e-21)
(-0.00016943051 -8.9783203e-05 -4.9069592e-21)
(-0.00014895985 -8.9729622e-05 1.1460197e-20)
(-0.00012863943 -8.9681828e-05 4.9331479e-21)
(-0.00010846446 -8.964031e-05 3.4867981e-21)
(-8.8430466e-05 -8.9606087e-05 7.4833035e-21)
(-6.8533365e-05 -8.9581332e-05 -2.1430851e-21)
(-4.8763604e-05 -8.9570089e-05 -1.7944242e-21)
(-2.9107455e-05 -8.9578639e-05 -3.0001648e-21)
(-9.6287627e-06 -8.9606538e-05 2.9327734e-21)
(-0.0021680571 -2.9424209e-05 -1.3743453e-20)
(-0.0021352525 -3.4924322e-05 2.713346e-20)
(-0.0021022316 -4.0145031e-05 1.0552984e-20)
(-0.0020690284 -4.5095688e-05 -1.9996694e-20)
(-0.0020356755 -4.9785584e-05 5.8980697e-21)
(-0.0020022038 -5.4223944e-05 -4.1567686e-20)
(-0.001968643 -5.8419883e-05 -1.540008e-20)
(-0.001935021 -6.2382419e-05 7.4190663e-20)
(-0.0019013645 -6.6120443e-05 1.6226424e-22)
(-0.0018676986 -6.9642709e-05 -9.5520897e-21)
(-0.001834047 -7.2957817e-05 1.4910837e-20)
(-0.0018004322 -7.6074226e-05 -1.4788513e-20)
(-0.0017668754 -7.9000213e-05 7.6657575e-21)
(-0.0017333962 -8.1743885e-05 -2.0079381e-20)
(-0.0017000133 -8.4313177e-05 -4.6756038e-21)
(-0.001666744 -8.6715818e-05 1.2283273e-20)
(-0.0016336046 -8.8959359e-05 -1.0731744e-20)
(-0.0016006102 -9.105114e-05 1.0179027e-20)
(-0.0015677748 -9.2998306e-05 6.9085475e-21)
(-0.0015351113 -9.4807801e-05 -3.5056632e-21)
(-0.0015026318 -9.6486356e-05 2.5374021e-21)
(-0.0014703472 -9.8040498e-05 9.563603e-22)
(-0.0014382677 -9.9476551e-05 2.4758366e-20)
(-0.0014064025 -0.00010080063 -1.9876376e-21)
(-0.0013747599 -0.00010201864 -1.8783805e-21)
(-0.0013433476 -0.0001031363 1.7239583e-20)
(-0.0013121723 -0.00010415909 -9.1349188e-21)
(-0.0012812401 -0.00010509235 -2.8471399e-21)
(-0.0012505563 -0.00010594115 -5.8619071e-21)
(-0.0012201256 -0.00010671044 -4.5423291e-21)
(-0.0011899521 -0.00010740491 -1.0127787e-20)
(-0.0011600393 -0.00010802914 1.1047617e-20)
(-0.00113039 -0.00010858746 6.6572021e-21)
(-0.0011010065 -0.00010908407 -7.6970716e-21)
(-0.0010718907 -0.00010952296 -1.8208428e-21)
(-0.0010430439 -0.00010990798 -8.1101102e-21)
(-0.001014467 -0.0001102428 -1.548166e-20)
(-0.00098616042 -0.00011053092 -1.1887794e-20)
(-0.00095812425 -0.00011077571 -1.1738972e-21)
(-0.00093035813 -0.00011098039 4.3989375e-21)
(-0.00090286134 -0.00011114799 9.8619088e-21)
(-0.00087563287 -0.00011128145 5.8824384e-21)
(-0.00084867135 -0.00011138353 6.7774541e-21)
(-0.00082197512 -0.0001114569 8.4422479e-21)
(-0.00079554228 -0.00011150406 -7.1931804e-21)
(-0.00076937064 -0.00011152742 -1.1793668e-20)
(-0.00074345779 -0.00011152925 -2.0331506e-20)
(-0.00071780107 -0.0001115117 -4.9131422e-21)
(-0.00069239764 -0.00011147683 -5.9998348e-21)
(-0.00066724449 -0.00011142658 6.2597211e-21)
(-0.00064233839 -0.00011136278 1.5955585e-20)
(-0.00061767599 -0.00011128717 7.8256086e-21)
(-0.00059325377 -0.0001112014 4.142858e-22)
(-0.00056906809 -0.00011110701 -3.5773365e-21)
(-0.00054511519 -0.00011100546 3.6082384e-23)
(-0.0005213912 -0.00011089814 -1.65008e-20)
(-0.00049789216 -0.00011078633 2.0943164e-21)
(-0.00047461401 -0.00011067123 -9.2706565e-21)
(-0.00045155262 -0.000110554 -9.6510102e-21)
(-0.00042870381 -0.00011043569 6.4743094e-21)
(-0.00040606332 -0.00011031729 6.5131919e-21)
(-0.00038362687 -0.00011019972 -2.1557683e-21)
(-0.00036139011 -0.00011008385 -2.7566296e-21)
(-0.00033934869 -0.00010997045 4.8541735e-21)
(-0.00031749821 -0.00010986027 -1.5889806e-21)
(-0.00029583427 -0.00010975396 7.845265e-21)
(-0.00027435244 -0.00010965212 1.5615873e-21)
(-0.0002530483 -0.00010955532 -4.7384204e-22)
(-0.00023191741 -0.00010946404 5.6517855e-21)
(-0.00021095534 -0.00010937873 1.1289829e-22)
(-0.00019015761 -0.00010929979 -7.5196653e-21)
(-0.00016951977 -0.00010922759 -5.6947078e-21)
(-0.00014903731 -0.00010916252 4.693354e-21)
(-0.00012870571 -0.00010910501 -1.7871362e-21)
(-0.00010852048 -0.00010905565 4.2561717e-21)
(-8.847765e-05 -0.0001090153 7.7254911e-21)
(-6.8573742e-05 -0.00010898534 -9.9770505e-22)
(-4.879921e-05 -0.00010896755 -3.8606579e-21)
(-2.9138449e-05 -0.00010896365 -3.2724728e-21)
(-9.6429839e-06 -0.00010897101 5.6636238e-21)
(-0.0021746231 -3.5298368e-05 -2.096344e-20)
(-0.002141502 -4.1762963e-05 2.0738934e-20)
(-0.0021081748 -4.7897993e-05 7.4786424e-21)
(-0.0020746755 -5.3714519e-05 -1.9898274e-20)
(-0.0020410365 -5.9223534e-05 2.1094813e-20)
(-0.0020072889 -6.4435959e-05 -2.552589e-20)
(-0.0019734619 -6.9362596e-05 2.8889106e-21)
(-0.0019395837 -7.4014123e-05 4.3335308e-20)
(-0.0019056805 -7.8401078e-05 -2.0955399e-20)
(-0.0018717774 -8.253382e-05 2.0725193e-20)
(-0.0018378981 -8.6422536e-05 1.278699e-20)
(-0.0018040647 -9.0077245e-05 -3.1787643e-20)
(-0.0017702982 -9.3507736e-05 -7.2801181e-21)
(-0.0017366181 -9.6723601e-05 -1.6026426e-20)
(-0.0017030429 -9.9734222e-05 2.0255126e-20)
(-0.0016695897 -0.00010254874 2.5373592e-20)
(-0.0016362746 -0.00010517607 -1.0207964e-20)
(-0.0016031123 -0.00010762489 1.3133882e-20)
(-0.0015701168 -0.00010990364 1.2417372e-20)
(-0.0015373007 -0.00011202052 -7.0807945e-21)
(-0.0015046759 -0.00011398347 -3.8339564e-21)
(-0.001472253 -0.00011580019 -5.0743048e-21)
(-0.0014400421 -0.00011747815 1.4615827e-20)
(-0.0014080521 -0.00011902456 -5.3827271e-21)
(-0.0013762911 -0.00012044637 -6.4319932e-22)
(-0.0013447664 -0.00012175034 1.8801457e-20)
(-0.0013134848 -0.00012294293 -8.9832367e-22)
(-0.0012824519 -0.0001240304 2.8717529e-21)
(-0.0012516731 -0.00012501878 -6.1863869e-21)
(-0.0012211526 -0.00012591384 -3.3626794e-22)
(-0.0011908944 -0.00012672116 -6.5149914e-21)
(-0.0011609018 -0.00012744607 1.5658346e-20)
(-0.0011311773 -0.00012809372 1.2213156e-20)
(-0.0011017233 -0.00012866903 -1.5334863e-20)
(-0.0010725412 -0.0001291767 -1.2588163e-22)
(-0.0010436323 -0.00012962126 -7.2599145e-21)
(-0.0010149973 -0.00013000702 -1.1534681e-20)
(-0.00098663637 -0.00013033811 -3.060996e-21)
(-0.00095854948 -0.00013061849 2.0374751e-21)
(-0.0009307361 -0.00013085192 1.0664783e-20)
(-0.00090319536 -0.000131042 4.2168392e-21)
(-0.00087592609 -0.00013119216 3.3200864e-22)
(-0.00084892678 -0.00013130566 5.6598524e-21)
(-0.00082219564 -0.00013138563 6.2413574e-22)
(-0.0007957306 -0.000131435 2.2288924e-21)
(-0.00076952934 -0.0001314566 -1.6129794e-21)
(-0.00074358934 -0.00013145311 -1.9715125e-20)
(-0.00071790781 -0.00013142706 -6.5306742e-23)
(-0.00069248181 -0.00013138085 -6.7098112e-21)
(-0.00066730817 -0.00013131676 3.5263902e-21)
(-0.00064238359 -0.00013123695 1.4443476e-20)
(-0.00061770458 -0.00013114346 -1.2389781e-21)
(-0.00059326754 -0.00013103821 -6.1227013e-21)
(-0.00056906873 -0.00013092303 -3.243442e-21)
(-0.00054510428 -0.00013079963 4.231619e-21)
(-0.00052137023 -0.00013066962 -1.4479858e-20)
(-0.00049786253 -0.00013053451 7.9456487e-21)
(-0.00047457705 -0.00013039573 -3.4311507e-21)
(-0.00045150956 -0.00013025462 -5.1908234e-21)
(-0.00042865581 -0.00013011241 7.7228327e-21)
(-0.00040601147 -0.00012997028 5.1625948e-21)
(-0.00038357217 -0.0001298293 -2.3623823e-21)
(-0.0003613335 -0.00012969048 -2.8912819e-21)
(-0.00033929102 -0.00012955474 8.9978057e-21)
(-0.00031744029 -0.00012942296 -6.1309893e-21)
(-0.00029577682 -0.0001292959 3.4726126e-21)
(-0.00027429615 -0.0001291743 6.1872222e-21)
(-0.00025299376 -0.00012905881 1.5616053e-21)
(-0.00023186518 -0.00012895001 3.6046353e-21)
(-0.00021090592 -0.00012884848 1.1828061e-21)
(-0.0001901115 -0.00012875469 -5.3232765e-21)
(-0.00016947741 -0.00012866912 -1.2613605e-21)
(-0.00014899919 -0.00012859223 7.4204042e-21)
(-0.0001286724 -0.00012852451 -7.3064662e-21)
(-0.00010849268 -0.00012846652 3.8939379e-22)