/*--------------------------------*- C++ -*----------------------------------*\
| =========                 |                                                 |
| \\      /  F ield         | OpenFOAM: The Open Source CFD Toolbox           |
|  \\    /   O peration     | Version:  2106                                  |
|   \\  /    A nd           | Website:  www.openfoam.com                      |
|    \\/     M anipulation  |                                                 |
\*---------------------------------------------------------------------------*/
FoamFile
{
    version     2.0;
    format      ascii;
    arch        "LSB;label=32;scalar=64";
    class       surfaceScalarField;
    location    "0.018";
    object      phi_0;
}
// * * * * * * * * * * * * * * * * * * * * * * * * * * * * * * * * * * * * * //

dimensions      [0 3 -1 0 0 0 0];

oriented        oriented;

internalField   nonuniform List<scalar> 
130560
(
2.4859626e-06
-2.4859626e-06
4.9696893e-06
-2.4837266e-06
7.4489471e-06
-2.4792579e-06
9.9215098e-06
-2.4725627e-06
1.238516e-05
-2.4636505e-06
1.4837694e-05
-2.4525339e-06
1.7276923e-05
-2.4392288e-06
1.9700677e-05
-2.4237538e-06
2.2106808e-05
-2.4061308e-06
2.4493192e-05
-2.3863847e-06
2.6857735e-05
-2.3645432e-06
2.9198372e-05
-2.3406369e-06
3.1513072e-05
-2.3146993e-06
3.3799838e-05
-2.2867666e-06
3.6056716e-05
-2.2568776e-06
3.828179e-05
-2.2250739e-06
4.0473189e-05
-2.1913994e-06
4.262909e-05
-2.1559005e-06
4.4747716e-05
-2.1186259e-06
4.6827342e-05
-2.0796266e-06
4.8866298e-05
-2.0389556e-06
5.0862966e-05
-1.9966679e-06
5.2815786e-05
-1.9528206e-06
5.4723259e-05
-1.9074724e-06
5.6583943e-05
-1.8606838e-06
5.8396459e-05
-1.8125167e-06
6.0159494e-05
-1.7630345e-06
6.1871796e-05
-1.712302e-06
6.3532181e-05
-1.6603851e-06
6.5139531e-05
-1.6073507e-06
6.6692798e-05
-1.5532667e-06
6.8191e-05
-1.4982018e-06
6.9633225e-05
-1.4422252e-06
7.1018632e-05
-1.3854069e-06
7.2346449e-05
-1.3278171e-06
7.3615976e-05
-1.2695264e-06
7.4826581e-05
-1.2106054e-06
7.5977706e-05
-1.1511248e-06
7.7068861e-05
-1.0911552e-06
7.8099628e-05
-1.0307668e-06
7.9069658e-05
-9.7002973e-07
7.9978671e-05
-9.0901336e-07
8.0826457e-05
-8.4778659e-07
8.1612875e-05
-7.8641754e-07
8.2337849e-05
-7.2497352e-07
8.3001369e-05
-6.6352086e-07
8.3603494e-05
-6.0212486e-07
8.4144344e-05
-5.4084963e-07
8.4624102e-05
-4.7975803e-07
8.5043013e-05
-4.1891154e-07
8.5401384e-05
-3.5837021e-07
8.5699576e-05
-2.981925e-07
8.5938011e-05
-2.384353e-07
8.6117165e-05
-1.7915373e-07
8.6237566e-05
-1.204012e-07
8.6299796e-05
-6.2229398e-08
8.6304481e-05
-4.685608e-09
8.6252304e-05
5.2176895e-08
8.6143986e-05
1.0831855e-07
8.5980293e-05
1.6369325e-07
8.5762033e-05
2.1825989e-07
8.5490053e-05
2.7197943e-07
8.5165238e-05
3.2481497e-07
8.4788507e-05
3.7673184e-07
8.4360809e-05
4.2769764e-07
8.3883127e-05
4.7768228e-07
8.3356469e-05
5.2665795e-07
8.2781869e-05
5.7459918e-07
8.2160387e-05
6.214828e-07
8.1493099e-05
6.6728798e-07
8.0781103e-05
7.1199618e-07
8.0025511e-05
7.5559119e-07
7.9227452e-05
7.9805905e-07
7.8388064e-05
8.393881e-07
7.7508495e-05
8.7956891e-07
7.6589901e-05
9.1859423e-07
7.5633442e-05
9.5645901e-07
7.4640282e-05
9.9316033e-07
7.3611584e-05
1.0286974e-06
7.2548513e-05
1.0630713e-06
7.1452228e-05
1.0962853e-06
7.0323883e-05
1.1283445e-06
6.9164628e-05
1.1592558e-06
6.7975599e-05
1.1890281e-06
6.6757928e-05
1.2176718e-06
6.5512729e-05
1.2451991e-06
6.4241105e-05
1.2716238e-06
6.2944144e-05
1.296961e-06
6.1622916e-05
1.3212275e-06
6.0278475e-05
1.3444413e-06
5.8911854e-05
1.3666215e-06
5.7524065e-05
1.3877887e-06
5.61161e-05
1.4079643e-06
5.468893e-05
1.4271708e-06
5.3243498e-05
1.4454315e-06
5.1780728e-05
1.4627705e-06
5.0301515e-05
1.4792127e-06
4.8806732e-05
1.4947833e-06
4.7297223e-05
1.5095084e-06
4.5773809e-05
1.5234142e-06
4.4237282e-05
1.5365272e-06
4.2688408e-05
1.5488742e-06
4.1127926e-05
1.560482e-06
3.9556548e-05
1.5713776e-06
3.7974961e-05
1.5815875e-06
3.6383822e-05
1.5911384e-06
3.4783766e-05
1.6000564e-06
3.3175398e-05
1.6083675e-06
3.1559301e-05
1.616097e-06
2.9936032e-05
1.6232696e-06
2.8306122e-05
1.6299096e-06
2.6670082e-05
1.6360403e-06
2.5028398e-05
1.6416843e-06
2.3381534e-05
1.6468632e-06
2.1729936e-05
1.6515979e-06
2.0074029e-05
1.6559079e-06
1.8414217e-05
1.6598118e-06
1.675089e-05
1.663327e-06
1.508442e-05
1.6664695e-06
1.3415166e-05
1.6692544e-06
1.1743471e-05
1.671695e-06
1.0069667e-05
1.6738036e-06
8.3940764e-06
1.6755908e-06
6.7170106e-06
1.6770659e-06
5.038774e-06
1.6782365e-06
3.359665e-06
1.6791091e-06
1.6799769e-06
1.6796881e-06
-7.531368e-16
1.6799769e-06
-1.6799769e-06
1.6799769e-06
-3.359665e-06
1.6796881e-06
-5.038774e-06
1.6791091e-06
-6.7170106e-06
1.6782365e-06
-8.3940764e-06
1.6770659e-06
-1.0069667e-05
1.6755908e-06
-1.1743471e-05
1.6738036e-06
-1.3415166e-05
1.671695e-06
-1.508442e-05
1.6692544e-06
-1.675089e-05
1.6664695e-06
-1.8414217e-05
1.663327e-06
-2.0074029e-05
1.6598118e-06
-2.1729936e-05
1.6559079e-06
-2.3381534e-05
1.6515979e-06
-2.5028398e-05
1.6468632e-06
-2.6670082e-05
1.6416843e-06
-2.8306122e-05
1.6360403e-06
-2.9936032e-05
1.6299096e-06
-3.1559301e-05
1.6232696e-06
-3.3175398e-05
1.616097e-06
-3.4783766e-05
1.6083675e-06
-3.6383822e-05
1.6000564e-06
-3.7974961e-05
1.5911384e-06
-3.9556548e-05
1.5815875e-06
-4.1127926e-05
1.5713776e-06
-4.2688408e-05
1.560482e-06
-4.4237282e-05
1.5488742e-06
-4.5773809e-05
1.5365272e-06
-4.7297223e-05
1.5234142e-06
-4.8806732e-05
1.5095084e-06
-5.0301515e-05
1.4947833e-06
-5.1780728e-05
1.4792127e-06
-5.3243498e-05
1.4627705e-06
-5.468893e-05
1.4454315e-06
-5.61161e-05
1.4271708e-06
-5.7524065e-05
1.4079643e-06
-5.8911854e-05
1.3877887e-06
-6.0278475e-05
1.3666215e-06
-6.1622916e-05
1.3444413e-06
-6.2944144e-05
1.3212275e-06
-6.4241105e-05
1.296961e-06
-6.5512729e-05
1.2716238e-06
-6.6757928e-05
1.2451991e-06
-6.7975599e-05
1.2176718e-06
-6.9164628e-05
1.1890281e-06
-7.0323883e-05
1.1592558e-06
-7.1452228e-05
1.1283445e-06
-7.2548513e-05
1.0962853e-06
-7.3611584e-05
1.0630713e-06
-7.4640282e-05
1.0286974e-06
-7.5633442e-05
9.9316034e-07
-7.6589901e-05
9.5645901e-07
-7.7508495e-05
9.1859423e-07
-7.8388064e-05
8.7956891e-07
-7.9227452e-05
8.3938811e-07
-8.0025511e-05
7.9805906e-07
-8.0781103e-05
7.5559119e-07
-8.1493099e-05
7.1199619e-07
-8.2160387e-05
6.6728798e-07
-8.2781869e-05
6.2148281e-07
-8.3356469e-05
5.7459918e-07
-8.3883127e-05
5.2665795e-07
-8.4360809e-05
4.7768228e-07
-8.4788507e-05
4.2769764e-07
-8.5165238e-05
3.7673184e-07
-8.5490053e-05
3.2481497e-07
-8.5762033e-05
2.7197943e-07
-8.5980293e-05
2.1825989e-07
-8.6143986e-05
1.6369325e-07
-8.6252304e-05
1.0831855e-07
-8.6304481e-05
5.2176898e-08
-8.6299796e-05
-4.6856051e-09
-8.6237566e-05
-6.2229395e-08
-8.6117165e-05
-1.204012e-07
-8.5938011e-05
-1.7915373e-07
-8.5699576e-05
-2.3843529e-07
-8.5401384e-05
-2.981925e-07
-8.5043013e-05
-3.583702e-07
-8.4624102e-05
-4.1891154e-07
-8.4144344e-05
-4.7975803e-07
-8.3603494e-05
-5.4084963e-07
-8.3001369e-05
-6.0212486e-07
-8.2337849e-05
-6.6352086e-07
-8.1612875e-05
-7.2497352e-07
-8.0826457e-05
-7.8641754e-07
-7.9978671e-05
-8.4778659e-07
-7.9069658e-05
-9.0901336e-07
-7.8099628e-05
-9.7002973e-07
-7.7068861e-05
-1.0307668e-06
-7.5977706e-05
-1.0911552e-06
-7.4826581e-05
-1.1511248e-06
-7.3615976e-05
-1.2106054e-06
-7.2346449e-05
-1.2695264e-06
-7.1018632e-05
-1.3278171e-06
-6.9633225e-05
-1.3854069e-06
-6.8191e-05
-1.4422252e-06
-6.6692798e-05
-1.4982018e-06
-6.5139531e-05
-1.5532667e-06
-6.3532181e-05
-1.6073507e-06
-6.1871796e-05
-1.6603851e-06
-6.0159494e-05
-1.712302e-06
-5.8396459e-05
-1.7630345e-06
-5.6583943e-05
-1.8125167e-06
-5.4723259e-05
-1.8606838e-06
-5.2815786e-05
-1.9074724e-06
-5.0862966e-05
-1.9528206e-06
-4.8866298e-05
-1.9966679e-06
-4.6827342e-05
-2.0389556e-06
-4.4747716e-05
-2.0796266e-06
-4.262909e-05
-2.1186259e-06
-4.0473189e-05
-2.1559005e-06
-3.828179e-05
-2.1913994e-06
-3.6056716e-05
-2.2250739e-06
-3.3799838e-05
-2.2568776e-06
-3.1513072e-05
-2.2867666e-06
-2.9198372e-05
-2.3146993e-06
-2.6857735e-05
-2.3406369e-06
-2.4493192e-05
-2.3645432e-06
-2.2106808e-05
-2.3863847e-06
-1.9700677e-05
-2.4061308e-06
-1.7276923e-05
-2.4237538e-06
-1.4837694e-05
-2.4392288e-06
-1.238516e-05
-2.4525339e-06
-9.9215098e-06
-2.4636505e-06
-7.4489471e-06
-2.4725627e-06
-4.9696893e-06
-2.4792579e-06
-2.4859626e-06
-2.4837266e-06
-2.4859626e-06
2.4937136e-06
-4.9796762e-06
4.9851847e-06
-4.9751978e-06
7.4721742e-06
-4.9662473e-06
9.952449e-06
-4.9528375e-06
1.2423786e-05
-4.9349874e-06
1.4883974e-05
-4.9127221e-06
1.7330819e-05
-4.8860733e-06
1.9762143e-05
-4.8550786e-06
2.2175794e-05
-4.8197817e-06
2.4569642e-05
-4.7802323e-06
2.6941585e-05
-4.736486e-06
2.9289552e-05
-4.6886041e-06
3.1611506e-05
-4.6366538e-06
3.3905447e-05
-4.5807074e-06
3.6169413e-05
-4.5208429e-06
3.8401482e-05
-4.4571432e-06
4.0599779e-05
-4.3896965e-06
4.2762474e-05
-4.3185957e-06
4.4887786e-05
-4.2439382e-06
4.6973986e-05
-4.1658262e-06
4.9019396e-05
-4.0843658e-06
5.1022396e-05
-3.9996675e-06
5.298142e-05
-3.9118452e-06
5.4894965e-05
-3.8210166e-06
5.6761584e-05
-3.7273029e-06
5.8579895e-05
-3.6308281e-06
6.034858e-05
-3.5317192e-06
6.2066384e-05
-3.4301058e-06
6.3732119e-05
-3.32612e-06
6.5344664e-05
-3.2198958e-06
6.6902966e-05
-3.1115692e-06
6.8406042e-05
-3.0012775e-06
6.9852977e-05
-2.8891598e-06
7.1242926e-05
-2.7753559e-06
7.2575115e-05
-2.6600065e-06
7.3848841e-05
-2.5432529e-06
7.5063473e-05
-2.4252365e-06
7.6218447e-05
-2.306099e-06
7.7313273e-05
-2.1859817e-06
7.8347532e-05
-2.0650254e-06
7.9320872e-05
-1.9433702e-06
8.0233014e-05
-1.8211553e-06
8.1083746e-05
-1.6985185e-06
8.1872925e-05
-1.5755963e-06
8.2600475e-05
-1.4525234e-06
8.3266387e-05
-1.3294329e-06
8.3870717e-05
-1.2064553e-06
8.4413587e-05
-1.0837191e-06
8.4895179e-05
-9.6135018e-07
8.5315739e-05
-8.3947168e-07
8.5675573e-05
-7.1820382e-07
8.5975044e-05
-5.9766372e-07
8.6214574e-05
-4.7796526e-07
8.6394639e-05
-3.5921887e-07
8.6515769e-05
-2.415314e-07
8.6578546e-05
-1.2500599e-07
8.6583602e-05
-9.7417816e-09
8.6531613e-05
1.0416537e-07
8.6423307e-05
2.1662497e-07
8.6259451e-05
3.2754967e-07
8.6040854e-05
4.3685668e-07
8.5768366e-05
5.4446768e-07
8.5442872e-05
6.5030872e-07
8.5065293e-05
7.5431036e-07
8.4636583e-05
8.5640773e-07
8.4157725e-05
9.5654051e-07
8.362973e-05
1.054653e-06
8.3053635e-05
1.1506942e-06
8.24305e-05
1.2446177e-06
8.1761406e-05
1.3363817e-06
8.1047453e-05
1.4259491e-06
8.0289757e-05
1.5132874e-06
7.9489447e-05
1.5983687e-06
7.8647666e-05
1.6811695e-06
7.7765564e-05
1.7616709e-06
7.68443e-05
1.8398584e-06
7.5885037e-05
1.9157219e-06
7.4888942e-05
1.9892555e-06
7.3857182e-05
2.0604575e-06
7.2790923e-05
2.1293301e-06
7.1691328e-05
2.1958799e-06
7.0559556e-05
2.260117e-06
6.9396756e-05
2.3220552e-06
6.8204072e-05
2.3817123e-06
6.6982635e-05
2.439109e-06
6.5733564e-05
2.4942699e-06
6.4457965e-05
2.5472223e-06
6.315693e-05
2.5979968e-06
6.183153e-05
2.6466267e-06
6.0482824e-05
2.693148e-06
5.9111846e-05
2.7375993e-06
5.7719613e-05
2.7800214e-06
5.630712e-05
2.8204573e-06
5.4875339e-05
2.858952e-06
5.3425218e-05
2.8955521e-06
5.1957683e-05
2.9303058e-06
5.0473633e-05
2.963263e-06
4.8973942e-05
2.9944743e-06
4.7459458e-05
3.0239916e-06
4.5931005e-05
3.0518675e-06
4.4389377e-05
3.0781552e-06
4.2835343e-05
3.1029081e-06
4.1269645e-05
3.12618e-06
3.9692998e-05
3.1480247e-06
3.810609e-05
3.1684956e-06
3.6509583e-05
3.1876458e-06
3.4904111e-05
3.2055279e-06
3.3290285e-05
3.2221936e-06
3.1668688e-05
3.2376936e-06
3.003988e-05
3.2520777e-06
2.8404396e-05
3.2653941e-06
2.6762747e-05
3.2776896e-06
2.5115421e-05
3.2890095e-06
2.3462887e-05
3.2993971e-06
2.1805591e-05
3.308894e-06
2.014396e-05
3.3175394e-06
1.8478401e-05
3.3253705e-06
1.6809306e-05
3.3324221e-06
1.5137049e-05
3.3387265e-06
1.346199e-05
3.3443135e-06
1.1784475e-05
3.34921e-06
1.0104838e-05
3.3534404e-06
8.4234028e-06
3.3570262e-06
6.7404829e-06
3.3599857e-06
5.0563849e-06
3.3623346e-06
3.3714087e-06
3.3640853e-06
1.6858497e-06
3.3652471e-06
-1.1352796e-15
3.3658265e-06
-1.6858497e-06
3.3658265e-06
-3.3714087e-06
3.3652472e-06
-5.0563849e-06
3.3640853e-06
-6.7404829e-06
3.3623346e-06
-8.4234028e-06
3.3599857e-06
-1.0104838e-05
3.3570262e-06
-1.1784475e-05
3.3534404e-06
-1.346199e-05
3.34921e-06
-1.5137049e-05
3.3443135e-06
-1.6809306e-05
3.3387265e-06
-1.8478401e-05
3.3324221e-06
-2.014396e-05
3.3253705e-06
-2.1805591e-05
3.3175394e-06
-2.3462887e-05
3.308894e-06
-2.5115421e-05
3.2993971e-06
-2.6762747e-05
3.2890095e-06
-2.8404396e-05
3.2776896e-06
-3.003988e-05
3.2653941e-06
-3.1668688e-05
3.2520777e-06
-3.3290285e-05
3.2376937e-06
-3.4904111e-05
3.2221936e-06
-3.6509583e-05
3.2055279e-06
-3.810609e-05
3.1876458e-06
-3.9692998e-05
3.1684956e-06
-4.1269645e-05
3.1480247e-06
-4.2835343e-05
3.12618e-06
-4.4389377e-05
3.1029081e-06
-4.5931005e-05
3.0781552e-06
-4.7459459e-05
3.0518675e-06
-4.8973942e-05
3.0239916e-06
-5.0473633e-05
2.9944743e-06
-5.1957683e-05
2.963263e-06
-5.3425218e-05
2.9303058e-06
-5.4875339e-05
2.8955521e-06
-5.630712e-05
2.858952e-06
-5.7719613e-05
2.8204573e-06
-5.9111846e-05
2.7800215e-06
-6.0482824e-05
2.7375993e-06
-6.183153e-05
2.6931481e-06
-6.315693e-05
2.6466267e-06
-6.4457965e-05
2.5979968e-06
-6.5733564e-05
2.5472223e-06
-6.6982635e-05
2.4942699e-06
-6.8204072e-05
2.439109e-06
-6.9396756e-05
2.3817123e-06
-7.0559556e-05
2.3220552e-06
-7.1691328e-05
2.260117e-06
-7.2790923e-05
2.1958799e-06
-7.3857182e-05
2.1293302e-06
-7.4888942e-05
2.0604575e-06
-7.5885037e-05
1.9892555e-06
-7.68443e-05
1.9157219e-06
-7.7765564e-05
1.8398584e-06
-7.8647666e-05
1.7616709e-06
-7.9489447e-05
1.6811695e-06
-8.0289757e-05
1.5983687e-06
-8.1047453e-05
1.5132874e-06
-8.1761406e-05
1.4259491e-06
-8.24305e-05
1.3363817e-06
-8.3053635e-05
1.2446177e-06
-8.362973e-05
1.1506942e-06
-8.4157725e-05
1.054653e-06
-8.4636583e-05
9.5654051e-07
-8.5065293e-05
8.5640773e-07
-8.5442872e-05
7.5431037e-07
-8.5768366e-05
6.5030872e-07
-8.6040854e-05
5.4446768e-07
-8.6259451e-05
4.3685669e-07
-8.6423307e-05
3.2754967e-07
-8.6531613e-05
2.1662498e-07
-8.6583602e-05
1.0416538e-07
-8.6578546e-05
-9.7417728e-09
-8.6515769e-05
-1.2500599e-07
-8.6394639e-05
-2.4153139e-07
-8.6214574e-05
-3.5921886e-07
-8.5975044e-05
-4.7796525e-07
-8.5675573e-05
-5.9766372e-07
-8.5315739e-05
-7.1820381e-07
-8.4895179e-05
-8.3947167e-07
-8.4413587e-05
-9.6135018e-07
-8.3870717e-05
-1.0837191e-06
-8.3266387e-05
-1.2064553e-06
-8.2600475e-05
-1.3294329e-06
-8.1872925e-05
-1.4525234e-06
-8.1083746e-05
-1.5755963e-06
-8.0233014e-05
-1.6985185e-06
-7.9320872e-05
-1.8211553e-06
-7.8347532e-05
-1.9433702e-06
-7.7313273e-05
-2.0650254e-06
-7.6218447e-05
-2.1859817e-06
-7.5063473e-05
-2.306099e-06
-7.3848841e-05
-2.4252365e-06
-7.2575115e-05
-2.5432529e-06
-7.1242926e-05
-2.6600065e-06
-6.9852977e-05
-2.7753559e-06
-6.8406042e-05
-2.8891598e-06
-6.6902966e-05
-3.0012775e-06
-6.5344664e-05
-3.1115692e-06
-6.3732119e-05
-3.2198958e-06
-6.2066384e-05
-3.32612e-06
-6.034858e-05
-3.4301059e-06
-5.8579895e-05
-3.5317192e-06
-5.6761584e-05
-3.6308281e-06
-5.4894965e-05
-3.7273029e-06
-5.298142e-05
-3.8210166e-06
-5.1022396e-05
-3.9118452e-06
-4.9019396e-05
-3.9996675e-06
-4.6973986e-05
-4.0843658e-06
-4.4887786e-05
-4.1658262e-06
-4.2762474e-05
-4.2439382e-06
-4.0599779e-05
-4.3185957e-06
-3.8401482e-05
-4.3896965e-06
-3.6169413e-05
-4.4571432e-06
-3.3905447e-05
-4.5208429e-06
-3.1611506e-05
-4.5807074e-06
-2.9289552e-05
-4.6366538e-06
-2.6941585e-05
-4.6886041e-06
-2.4569642e-05
-4.736486e-06
-2.2175794e-05
-4.7802323e-06
-1.9762143e-05
-4.8197817e-06
-1.7330819e-05
-4.8550786e-06
-1.4883974e-05
-4.8860733e-06
-1.2423786e-05
-4.9127221e-06
-9.952449e-06
-4.9349874e-06
-7.4721741e-06
-4.9528375e-06
-4.9851847e-06
-4.9662473e-06
-2.4937136e-06
-4.9751978e-06
-4.9796762e-06
2.5081397e-06
-7.4878159e-06
5.0140256e-06
-7.4810837e-06
7.5154071e-06
-7.4676288e-06
1.001004e-05
-7.4474703e-06
1.2495689e-05
-7.4206368e-06
1.4970133e-05
-7.3871663e-06
1.7431166e-05
-7.3471061e-06
1.98766e-05
-7.3005127e-06
2.2304271e-05
-7.247452e-06
2.4712037e-05
-7.1879986e-06
2.7097787e-05
-7.122236e-06
2.9459439e-05
-7.0502566e-06
3.1794947e-05
-6.9721609e-06
3.4102297e-05
-6.888058e-06
3.6379519e-05
-6.7980649e-06
3.8624682e-05
-6.7023063e-06
4.08359e-05
-6.6009146e-06
4.3011334e-05
-6.4940295e-06
4.5149194e-05
-6.3817976e-06
4.724774e-05
-6.2643722e-06
4.9305287e-05
-6.1419129e-06
5.1320205e-05
-6.0145856e-06
5.3290921e-05
-5.8825617e-06
5.5215923e-05
-5.7460181e-06
5.7093757e-05
-5.6051366e-06
5.8923033e-05
-5.4601039e-06
6.0702424e-05
-5.3111108e-06
6.243067e-05
-5.1583521e-06
6.4106577e-05
-5.0020262e-06
6.5729015e-05
-4.8423345e-06
6.7296927e-05
-4.6794813e-06
6.8809323e-05
-4.5136734e-06
7.0265283e-05
-4.3451193e-06
7.1663956e-05
-4.1740294e-06
7.3004565e-05
-4.0006151e-06
7.4286401e-05
-3.8250886e-06
7.5508827e-05
-3.6476628e-06
7.6671278e-05
-3.4685502e-06
7.777326e-05
-3.2879634e-06
7.8814348e-05
-3.1061139e-06
7.9794191e-05
-2.9232124e-06
8.0712503e-05
-2.7394679e-06
8.1569072e-05
-2.5550877e-06
8.2363753e-05
-2.3702769e-06
8.3096468e-05
-2.1852379e-06
8.3767205e-05
-2.0001706e-06
8.4376021e-05
-1.8152714e-06
8.4923035e-05
-1.6307332e-06
8.5408431e-05
-1.4467453e-06
8.5832452e-05
-1.2634928e-06
8.6195404e-05
-1.0811563e-06
8.6497652e-05
-8.9991193e-07
8.6739618e-05
-7.1993075e-07
8.6921778e-05
-5.4137878e-07
8.7044663e-05
-3.6441661e-07
8.7108856e-05
-1.8919915e-07
8.7114992e-05
-1.5877073e-08
8.7063747e-05
1.5540976e-07
8.6955851e-05
3.245209e-07
8.6792074e-05
4.9132689e-07
8.6573227e-05
6.557032e-07
8.6300163e-05
8.1753199e-07
8.597377e-05
9.7670209e-07
8.5594971e-05
1.1331091e-06
8.5164723e-05
1.2866554e-06
8.4684014e-05
1.4372504e-06
8.4153856e-05
1.5848102e-06
8.3575292e-05
1.7292582e-06
8.2949386e-05
1.8705245e-06
8.2277221e-05
2.0085463e-06
8.1559902e-05
2.1432677e-06
8.079855e-05
2.2746398e-06
7.9994298e-05
2.4026205e-06
7.9148293e-05
2.5271746e-06
7.826169e-05
2.6482735e-06
7.7335653e-05
2.7658954e-06
7.637135e-05
2.8800249e-06
7.5369953e-05
2.990653e-06
7.4332633e-05
3.0977771e-06
7.3260563e-05
3.2014006e-06
7.215491e-05
3.3015331e-06
7.1016837e-05
3.3981897e-06
6.9847501e-05
3.4913912e-06
6.8648049e-05
3.5811639e-06
6.7419619e-05
3.6675392e-06
6.6163336e-05
3.7505536e-06
6.488031e-05
3.8302484e-06
6.3571637e-05
3.9066691e-06
6.2238398e-05
3.9798659e-06
6.0881653e-05
4.0498928e-06
5.9502445e-05
4.1168074e-06
5.8101795e-05
4.1806712e-06
5.6680704e-05
4.2415486e-06
5.5240149e-05
4.299507e-06
5.3781085e-05
4.3546165e-06
5.2304441e-05
4.4069496e-06
5.0811123e-05
4.4565807e-06
4.9302011e-05
4.5035862e-06
4.7777959e-05
4.5480437e-06
4.6239795e-05
4.5900322e-06
4.4688318e-05
4.6296316e-06
4.3124304e-05
4.6669221e-06
4.15485e-05
4.7019844e-06
3.9961625e-05
4.7348992e-06
3.8364374e-05
4.7657468e-06
3.6757413e-05
4.7946069e-06
3.5141382e-05
4.8215583e-06
3.3516897e-05
4.8466787e-06
3.1884547e-05
4.8700443e-06
3.0244895e-05
4.8917297e-06
2.8598481e-05
4.9118074e-06
2.6945823e-05
4.9303476e-06
2.5287415e-05
4.9474183e-06
2.3623727e-05
4.9630847e-06
2.1955212e-05
4.9774089e-06
2.0282301e-05
4.9904501e-06
1.8605408e-05
5.002264e-06
1.6924927e-05
5.0129028e-06
1.5241239e-05
5.0224151e-06
1.3554707e-05
5.0308455e-06
1.1865682e-05
5.0382346e-06
1.0174504e-05
5.0446189e-06
8.4814991e-06
5.0500306e-06
6.7869874e-06
5.0544975e-06
5.0912792e-06
5.0580428e-06
3.3946791e-06
5.0606853e-06
1.6974871e-06
5.0624391e-06
-1.3924508e-15
5.0633137e-06
-1.6974871e-06
5.0633137e-06
-3.3946791e-06
5.0624391e-06
-5.0912792e-06
5.0606853e-06
-6.7869874e-06
5.0580428e-06
-8.4814991e-06
5.0544975e-06
-1.0174504e-05
5.0500306e-06
-1.1865682e-05
5.0446189e-06
-1.3554707e-05
5.0382346e-06
-1.5241239e-05
5.0308455e-06
-1.6924927e-05
5.0224151e-06
-1.8605408e-05
5.0129028e-06
-2.0282301e-05
5.002264e-06
-2.1955212e-05
4.9904501e-06
-2.3623727e-05
4.9774089e-06
-2.5287415e-05
4.9630847e-06
-2.6945823e-05
4.9474183e-06
-2.8598481e-05
4.9303476e-06
-3.0244895e-05
4.9118074e-06
-3.1884547e-05
4.8917297e-06
-3.3516897e-05
4.8700443e-06
-3.5141382e-05
4.8466787e-06
-3.6757413e-05
4.8215583e-06
-3.8364374e-05
4.7946069e-06
-3.9961625e-05
4.7657468e-06
-4.15485e-05
4.7348992e-06
-4.3124304e-05
4.7019844e-06
-4.4688318e-05
4.6669221e-06
-4.6239795e-05
4.6296316e-06
-4.7777959e-05
4.5900322e-06
-4.9302011e-05
4.5480437e-06
-5.0811123e-05
4.5035862e-06
-5.2304441e-05
4.4565807e-06
-5.3781085e-05
4.4069496e-06
-5.5240149e-05
4.3546165e-06
-5.6680704e-05
4.299507e-06
-5.8101795e-05
4.2415486e-06
-5.9502445e-05
4.1806712e-06
-6.0881653e-05
4.1168074e-06
-6.2238398e-05
4.0498928e-06
-6.3571637e-05
3.9798659e-06
-6.488031e-05
3.9066691e-06
-6.6163336e-05
3.8302484e-06
-6.7419619e-05
3.7505537e-06
-6.864805e-05
3.6675392e-06
-6.9847501e-05
3.5811639e-06
-7.1016837e-05
3.4913912e-06
-7.215491e-05
3.3981897e-06
-7.3260563e-05
3.3015331e-06
-7.4332633e-05
3.2014006e-06
-7.5369953e-05
3.0977771e-06
-7.637135e-05
2.990653e-06
-7.7335653e-05
2.8800249e-06
-7.826169e-05
2.7658954e-06
-7.9148293e-05
2.6482735e-06
-7.9994298e-05
2.5271746e-06
-8.079855e-05
2.4026205e-06
-8.1559902e-05
2.2746398e-06
-8.2277221e-05
2.1432677e-06
-8.2949386e-05
2.0085463e-06
-8.3575292e-05
1.8705245e-06
-8.4153856e-05
1.7292582e-06
-8.4684014e-05
1.5848102e-06
-8.5164723e-05
1.4372504e-06
-8.5594971e-05
1.2866554e-06
-8.597377e-05
1.1331091e-06
-8.6300163e-05
9.7670209e-07
-8.6573227e-05
8.17532e-07
-8.6792074e-05
6.5570321e-07
-8.6955851e-05
4.913269e-07
-8.7063747e-05
3.2452091e-07
-8.7114992e-05
1.5540977e-07
-8.7108856e-05
-1.5877063e-08
-8.7044663e-05
-1.8919914e-07
-8.6921778e-05
-3.644166e-07
-8.6739618e-05
-5.4137877e-07
-8.6497652e-05
-7.1993074e-07
-8.6195404e-05
-8.9991192e-07
-8.5832452e-05
-1.0811563e-06
-8.5408431e-05
-1.2634928e-06
-8.4923035e-05
-1.4467453e-06
-8.4376021e-05
-1.6307332e-06
-8.3767205e-05
-1.8152714e-06
-8.3096468e-05
-2.0001706e-06
-8.2363753e-05
-2.1852379e-06
-8.1569072e-05
-2.3702769e-06
-8.0712503e-05
-2.5550877e-06
-7.9794191e-05
-2.7394679e-06
-7.8814348e-05
-2.9232124e-06
-7.777326e-05
-3.1061139e-06
-7.6671278e-05
-3.2879634e-06
-7.5508827e-05
-3.4685502e-06
-7.4286401e-05
-3.6476628e-06
-7.3004565e-05
-3.8250886e-06
-7.1663956e-05
-4.0006151e-06
-7.0265283e-05
-4.1740294e-06
-6.8809323e-05
-4.3451193e-06
-6.7296927e-05
-4.5136734e-06
-6.5729015e-05
-4.6794813e-06
-6.4106577e-05
-4.8423345e-06
-6.243067e-05
-5.0020262e-06
-6.0702424e-05
-5.1583521e-06
-5.8923033e-05
-5.3111108e-06
-5.7093757e-05
-5.4601039e-06
-5.5215923e-05
-5.6051367e-06
-5.3290921e-05
-5.7460181e-06
-5.1320205e-05
-5.8825617e-06
-4.9305287e-05
-6.0145856e-06
-4.724774e-05
-6.141913e-06
-4.5149194e-05
-6.2643722e-06
-4.3011334e-05
-6.3817976e-06
-4.08359e-05
-6.4940296e-06
-3.8624682e-05
-6.6009147e-06
-3.6379519e-05
-6.7023063e-06
-3.4102297e-05
-6.7980649e-06
-3.1794947e-05
-6.888058e-06
-2.9459439e-05
-6.9721609e-06
-2.7097787e-05
-7.0502566e-06
-2.4712037e-05
-7.122236e-06
-2.2304271e-05
-7.1879986e-06
-1.98766e-05
-7.247452e-06
-1.7431166e-05
-7.3005127e-06
-1.4970133e-05
-7.3471061e-06
-1.2495689e-05
-7.3871663e-06
-1.001004e-05
-7.4206368e-06
-7.515407e-06
-7.4474703e-06
-5.0140256e-06
-7.4676288e-06
-2.5081397e-06
-7.4810837e-06
-7.4878159e-06
2.5292706e-06
-1.0017086e-05
5.0562711e-06
-1.0008084e-05
7.5787345e-06
-9.9900922e-06
1.00944e-05
-9.9631362e-06
1.2601018e-05
-9.9272543e-06
1.5096349e-05
-9.8824973e-06
1.7578171e-05
-9.8289285e-06
2.0044282e-05
-9.7666234e-06
2.24925e-05
-9.69567e-06
2.492067e-05
-9.6161681e-06
2.7326663e-05
-9.5282294e-06
2.9708384e-05
-9.4319771e-06
3.2063768e-05
-9.3275459e-06
3.4390792e-05
-9.2150814e-06
3.6687467e-05
-9.0947399e-06
3.8951849e-05
-8.9666884e-06
4.1182038e-05
-8.8311038e-06
4.3376181e-05
-8.6881726e-06
4.5532475e-05
-8.5380909e-06
4.7649166e-05
-8.3810635e-06
4.9724557e-05
-8.217304e-06
5.1757005e-05
-8.0470339e-06
5.3744926e-05
-7.8704824e-06
5.5686794e-05
-7.6878859e-06
5.7581145e-05
-7.4994875e-06
5.9426577e-05
-7.3055366e-06
6.1221755e-05
-7.1062884e-06
6.2965406e-05
-6.9020032e-06
6.4656326e-05
-6.692946e-06
6.6293378e-05
-6.4793864e-06
6.7875494e-05
-6.2615973e-06
6.9401675e-05
-6.0398549e-06
7.0870994e-05
-5.8144382e-06
7.2282593e-05
-5.5856282e-06
7.3635685e-05
-5.3537076e-06
7.4929557e-05
-5.1189601e-06
7.6163564e-05
-4.8816701e-06
7.7337136e-05
-4.6421218e-06
7.8449771e-05
-4.4005992e-06
7.9501043e-05
-4.1573853e-06
8.0490592e-05
-3.9127613e-06
8.1418131e-05
-3.667007e-06
8.2283442e-05
-3.4203992e-06
8.3086378e-05
-3.1732122e-06
8.3826856e-05
-2.9257166e-06
8.4504865e-05
-2.6781794e-06
8.5120457e-05
-2.4308633e-06
8.567375e-05
-2.1840263e-06
8.6164926e-05
-1.9379212e-06
8.6594228e-05
-1.6927954e-06
8.6961963e-05
-1.4488906e-06
8.7268493e-05
-1.2064421e-06
8.7514241e-05
-9.6567864e-07
8.7699684e-05
-7.2682217e-07
8.7825355e-05
-4.9008744e-07
8.7891838e-05
-2.5568174e-07
8.7899765e-05
-2.3804823e-08
8.7849823e-05
2.0535245e-07
8.7742737e-05
4.3160606e-07
8.7579283e-05
6.5478122e-07
8.7360275e-05
8.7471161e-07
8.7086567e-05
1.0912396e-06
8.6759053e-05
1.3042166e-06
8.6378659e-05
1.5135028e-06
8.5946346e-05
1.7189678e-06
8.5463107e-05
1.9204902e-06
8.4929959e-05
2.1179579e-06
8.4347949e-05
2.3112682e-06
8.3718146e-05
2.5003276e-06
8.304164e-05
2.6850521e-06
8.2319541e-05
2.8653667e-06
8.1552975e-05
3.041206e-06
8.0743082e-05
3.2125134e-06
7.9891015e-05
3.3792418e-06
7.8997935e-05
3.5413527e-06
7.8065014e-05
3.6988169e-06
7.7093425e-05
3.8516134e-06
7.6084348e-05
3.9997303e-06
7.5038961e-05
4.1431637e-06
7.3958444e-05
4.2819181e-06
7.2843971e-05
4.4160058e-06
7.1696714e-05
4.545447e-06
7.0517836e-05
4.6702693e-06
6.9308492e-05
4.7905076e-06
6.8069828e-05
4.9062037e-06
6.6802975e-05
5.0174061e-06
6.5509054e-05
5.1241697e-06
6.4189168e-05
5.2265553e-06
6.2844404e-05
5.3246295e-06
6.1475833e-05
5.4184643e-06
6.0084503e-05
5.5081368e-06
5.8671446e-05
5.5937285e-06
5.7237669e-05
5.6753255e-06
5.5784158e-05
5.7530177e-06
5.4311876e-05
5.8268985e-06
5.2821761e-05
5.8970646e-06
5.1314727e-05
5.9636152e-06
4.9791661e-05
6.0266521e-06
4.8253426e-05
6.086279e-06
4.6700857e-05
6.1426012e-06
4.5134763e-05
6.1957252e-06
4.3555927e-05
6.2457581e-06
4.1965104e-05
6.2928076e-06
4.0363022e-05
6.3369812e-06
3.8750382e-05
6.3783862e-06
3.712786e-05
6.4171289e-06
3.5496104e-05
6.4533145e-06
3.3855736e-05
6.4870465e-06
3.2207354e-05
6.5184268e-06
3.0551529e-05
6.5475548e-06
2.8888809e-05
6.5745273e-06
2.7219718e-05
6.5994382e-06
2.5544759e-05
6.6223779e-06
2.386441e-05
6.6434335e-06
2.2179131e-05
6.6626881e-06
2.048936e-05
6.6802204e-06
1.8795519e-05
6.696105e-06
1.7098011e-05
6.7104115e-06
1.5397221e-05
6.7232046e-06
1.3693522e-05
6.7345441e-06
1.1987273e-05
6.7444841e-06
1.0278819e-05
6.7530732e-06
8.5684949e-06
6.7603544e-06
6.8566275e-06
6.7663649e-06
5.1435346e-06
6.7711357e-06
3.4295281e-06
6.7746918e-06
1.7149153e-06
6.777052e-06
-1.5734728e-15
6.7782289e-06
-1.7149153e-06
6.7782289e-06
-3.4295281e-06
6.777052e-06
-5.1435346e-06
6.7746918e-06
-6.8566275e-06
6.7711357e-06
-8.5684949e-06
6.7663649e-06
-1.0278819e-05
6.7603544e-06
-1.1987273e-05
6.7530732e-06
-1.3693522e-05
6.7444841e-06
-1.5397221e-05
6.7345441e-06
-1.7098011e-05
6.7232046e-06
-1.8795519e-05
6.7104115e-06
-2.048936e-05
6.696105e-06
-2.2179131e-05
6.6802204e-06
-2.386441e-05
6.6626881e-06
-2.5544759e-05
6.6434335e-06
-2.7219718e-05
6.6223779e-06
-2.8888809e-05
6.5994382e-06
-3.0551529e-05
6.5745273e-06
-3.2207354e-05
6.5475548e-06
-3.3855736e-05
6.5184268e-06
-3.5496104e-05
6.4870465e-06
-3.712786e-05
6.4533145e-06
-3.8750382e-05
6.4171289e-06
-4.0363022e-05
6.3783862e-06
-4.1965104e-05
6.3369812e-06
-4.3555927e-05
6.2928076e-06
-4.5134763e-05
6.2457581e-06
-4.6700857e-05
6.1957252e-06
-4.8253426e-05
6.1426012e-06
-4.9791661e-05
6.086279e-06
-5.1314727e-05
6.0266521e-06
-5.2821761e-05
5.9636152e-06
-5.4311876e-05
5.8970646e-06
-5.5784158e-05
5.8268985e-06
-5.7237669e-05
5.7530177e-06
-5.8671446e-05
5.6753255e-06
-6.0084503e-05
5.5937285e-06
-6.1475833e-05
5.5081368e-06
-6.2844404e-05
5.4184643e-06
-6.4189168e-05
5.3246295e-06
-6.5509054e-05
5.2265553e-06
-6.6802975e-05
5.1241697e-06
-6.8069828e-05
5.0174061e-06
-6.9308492e-05
4.9062037e-06
-7.0517836e-05
4.7905076e-06
-7.1696714e-05
4.6702693e-06
-7.2843971e-05
4.545447e-06
-7.3958444e-05
4.4160058e-06
-7.5038961e-05
4.2819181e-06
-7.6084348e-05
4.1431637e-06
-7.7093425e-05
3.9997303e-06
-7.8065014e-05
3.8516134e-06
-7.8997935e-05
3.6988169e-06
-7.9891015e-05
3.5413527e-06
-8.0743082e-05
3.3792418e-06
-8.1552975e-05
3.2125134e-06
-8.2319541e-05
3.041206e-06
-8.304164e-05
2.8653667e-06
-8.3718146e-05
2.6850521e-06
-8.4347949e-05
2.5003276e-06
-8.4929959e-05
2.3112682e-06
-8.5463107e-05
2.1179579e-06
-8.5946346e-05
1.9204902e-06
-8.6378659e-05
1.7189678e-06
-8.6759053e-05
1.5135028e-06
-8.7086567e-05
1.3042166e-06
-8.7360275e-05
1.0912396e-06
-8.7579283e-05
8.7471162e-07
-8.7742737e-05
6.5478123e-07
-8.7849823e-05
4.3160607e-07
-8.7899765e-05
2.0535246e-07
-8.7891838e-05
-2.3804813e-08
-8.7825355e-05
-2.5568173e-07
-8.7699684e-05
-4.9008743e-07
-8.7514241e-05
-7.2682217e-07
-8.7268493e-05
-9.6567863e-07
-8.6961963e-05
-1.2064421e-06
-8.6594228e-05
-1.4488906e-06
-8.6164926e-05
-1.6927954e-06
-8.567375e-05
-1.9379212e-06
-8.5120457e-05
-2.1840263e-06
-8.4504865e-05
-2.4308633e-06
-8.3826856e-05
-2.6781794e-06
-8.3086378e-05
-2.9257166e-06
-8.2283442e-05
-3.1732121e-06
-8.1418131e-05
-3.4203992e-06
-8.0490592e-05
-3.667007e-06
-7.9501043e-05
-3.9127613e-06
-7.8449771e-05
-4.1573853e-06
-7.7337136e-05
-4.4005992e-06
-7.6163564e-05
-4.6421218e-06
-7.4929557e-05
-4.8816701e-06
-7.3635685e-05
-5.1189601e-06
-7.2282593e-05
-5.3537076e-06
-7.0870994e-05
-5.5856282e-06
-6.9401675e-05
-5.8144382e-06
-6.7875494e-05
-6.0398549e-06
-6.6293378e-05
-6.2615973e-06
-6.4656326e-05
-6.4793864e-06
-6.2965406e-05
-6.692946e-06
-6.1221755e-05
-6.9020032e-06
-5.9426577e-05
-7.1062884e-06
-5.7581145e-05
-7.3055366e-06
-5.5686794e-05
-7.4994875e-06
-5.3744926e-05
-7.6878859e-06
-5.1757005e-05
-7.8704824e-06
-4.9724557e-05
-8.0470339e-06
-4.7649166e-05
-8.217304e-06
-4.5532475e-05
-8.3810636e-06
-4.3376181e-05
-8.5380909e-06
-4.1182038e-05
-8.6881726e-06
-3.8951849e-05
-8.8311038e-06
-3.6687467e-05
-8.9666885e-06
-3.4390792e-05
-9.0947399e-06
-3.2063768e-05
-9.2150814e-06
-2.9708384e-05
-9.3275459e-06
-2.7326663e-05