/*--------------------------------*- C++ -*----------------------------------*\
| =========                 |                                                 |
| \\      /  F ield         | OpenFOAM: The Open Source CFD Toolbox           |
|  \\    /   O peration     | Version:  2106                                  |
|   \\  /    A nd           | Website:  www.openfoam.com                      |
|    \\/     M anipulation  |                                                 |
\*---------------------------------------------------------------------------*/
FoamFile
{
    version     2.0;
    format      ascii;
    arch        "LSB;label=32;scalar=64";
    class       surfaceScalarField;
    location    "0.032";
    object      phi_0;
}
// * * * * * * * * * * * * * * * * * * * * * * * * * * * * * * * * * * * * * //

dimensions      [0 3 -1 0 0 0 0];

oriented        oriented;

internalField   nonuniform List<scalar> 
130560
(
6.6015706e-06
-6.6015706e-06
1.319895e-05
-6.5973792e-06
1.9787949e-05
-6.5889993e-06
2.6364386e-05
-6.5764372e-06
3.2924088e-05
-6.5597019e-06
3.9462894e-05
-6.5388055e-06
4.5976657e-05
-6.5137634e-06
5.2461251e-05
-6.4845937e-06
5.8912568e-05
-6.4513174e-06
6.5326527e-05
-6.4139589e-06
7.1699072e-05
-6.3725451e-06
7.8026178e-05
-6.3271059e-06
8.4303852e-05
-6.2776744e-06
9.0528139e-05
-6.2242861e-06
9.6695118e-05
-6.1669796e-06
0.00010280091
-6.1057962e-06
0.00010884169
-6.0407797e-06
0.00011481367
-5.9719771e-06
0.00012071311
-5.8994374e-06
0.00012653632
-5.8232128e-06
0.00013227968
-5.7433576e-06
0.00013793961
-5.6599286e-06
0.00014351259
-5.5729854e-06
0.00014899518
-5.4825896e-06
0.00015438399
-5.3888052e-06
0.00015967569
-5.2916985e-06
0.00016486702
-5.1913379e-06
0.00016995482
-5.087794e-06
0.00017493596
-4.9811394e-06
0.00017980741
-4.8714487e-06
0.0001845662
-4.7587983e-06
0.00018920947
-4.6432667e-06
0.00019373441
-4.5249339e-06
0.00019813829
-4.4038817e-06
0.00020241848
-4.2801935e-06
0.00020657243
-4.1539542e-06
0.00021059768
-4.0252503e-06
0.00021449185
-3.8941696e-06
0.00021825266
-3.760801e-06
0.00022187789
-3.6252351e-06
0.00022536545
-3.4875633e-06
0.00022871333
-3.3478781e-06
0.0002319196
-3.2062731e-06
0.00023498245
-3.0628428e-06
0.00023790013
-2.9176825e-06
0.00024067102
-2.7708884e-06
0.00024329358
-2.6225571e-06
0.00024576636
-2.4727861e-06
0.00024808804
-2.3216733e-06
0.00025025735
-2.169317e-06
0.00025227317
-2.0158159e-06
0.00025413444
-1.8612691e-06
0.00025584021
-1.7057759e-06
0.00025738965
-1.5494356e-06
0.000258782
-1.3923477e-06
0.00026001661
-1.2346118e-06
0.00026109294
-1.0763272e-06
0.00026201053
-9.1759328e-07
0.00026276904
-7.585091e-07
0.00026336821
-5.9917346e-07
0.0002638079
-4.3968485e-07
0.00026408804
-2.8014134e-07
0.00026420868
-1.2064068e-07
0.00026416996
3.8719819e-08
0.00026397211
1.9784335e-07
0.00026361548
3.5663725e-07
0.00026310048
5.1500269e-07
0.00026242763
6.7284618e-07
0.00026159755
8.3007448e-07
0.00026061096
9.865949e-07
0.00025946864
1.1423157e-06
0.0002581715
1.297146e-06
0.0002567205
1.450996e-06
0.00025511672
1.6037772e-06
0.00025336132
1.7554017e-06
0.00025145554
1.9057833e-06
0.0002494007
2.0548366e-06
0.00024719823
2.2024776e-06
0.0002448496
2.3486236e-06
0.00024235641
2.4931931e-06
0.0002397203
2.6361059e-06
0.00023694302
2.7772833e-06
0.00023402637
2.9166481e-06
0.00023097225
3.0541242e-06
0.00022778261
3.1896372e-06
0.0002244595
3.3231142e-06
0.00022100501
3.4544836e-06
0.00021742134
3.5836756e-06
0.00021371071
3.7106216e-06
0.00020987546
3.835255e-06
0.00020591795
3.9575104e-06
0.00020184063
4.0773242e-06
0.00019764599
4.1946343e-06
0.00019333661
4.3093805e-06
0.00018891511
4.4215038e-06
0.00018438416
4.5309473e-06
0.0001797465
4.6376554e-06
0.00017500493
4.7415744e-06
0.00017016228
4.8426522e-06
0.00016522144
4.9408383e-06
0.00016018535
5.0360841e-06
0.00015505701
5.1283424e-06
0.00014983944
5.2175679e-06
0.00014453573
5.303717e-06
0.00013914898
5.3867476e-06
0.00013368236
5.4666197e-06
0.00012813907
5.5432945e-06
0.00012252233
5.6167352e-06
0.00011683542
5.6869068e-06
0.00011108165
5.7537756e-06
0.00010526434
5.81731e-06
9.9386859e-05
5.8774798e-06
9.3452602e-05
5.9342567e-06
8.7464988e-05
5.987614e-06
8.1427461e-05
6.0375266e-06
7.534349e-05
6.0839713e-06
6.9216564e-05
6.1269264e-06
6.3050192e-05
6.166372e-06
5.6847902e-05
6.2022897e-06
5.0613239e-05
6.2346629e-06
4.4349762e-05
6.2634767e-06
3.8061045e-05
6.2887178e-06
3.175067e-05
6.3103746e-06
2.5422233e-05
6.3284371e-06
1.9079336e-05
6.3428971e-06
1.2725588e-05
6.3537478e-06
6.3646036e-06
6.3609844e-06
-2.3653263e-15
6.3646036e-06
-6.3646036e-06
6.3646036e-06
-1.2725588e-05
6.3609844e-06
-1.9079336e-05
6.3537478e-06
-2.5422233e-05
6.3428971e-06
-3.175067e-05
6.3284371e-06
-3.8061045e-05
6.3103746e-06
-4.4349762e-05
6.2887178e-06
-5.0613239e-05
6.2634767e-06
-5.6847902e-05
6.2346629e-06
-6.3050192e-05
6.2022897e-06
-6.9216564e-05
6.166372e-06
-7.534349e-05
6.1269264e-06
-8.1427461e-05
6.0839713e-06
-8.7464988e-05
6.0375266e-06
-9.3452602e-05
5.987614e-06
-9.9386859e-05
5.9342567e-06
-0.00010526434
5.8774798e-06
-0.00011108165
5.81731e-06
-0.00011683542
5.7537756e-06
-0.00012252233
5.6869068e-06
-0.00012813907
5.6167352e-06
-0.00013368236
5.5432945e-06
-0.00013914898
5.4666197e-06
-0.00014453573
5.3867476e-06
-0.00014983944
5.303717e-06
-0.00015505701
5.2175679e-06
-0.00016018535
5.1283424e-06
-0.00016522144
5.0360841e-06
-0.00017016228
4.9408383e-06
-0.00017500493
4.8426522e-06
-0.0001797465
4.7415744e-06
-0.00018438416
4.6376554e-06
-0.00018891511
4.5309473e-06
-0.00019333661
4.4215038e-06
-0.00019764599
4.3093805e-06
-0.00020184063
4.1946343e-06
-0.00020591795
4.0773242e-06
-0.00020987546
3.9575104e-06
-0.00021371071
3.835255e-06
-0.00021742134
3.7106216e-06
-0.00022100501
3.5836756e-06
-0.0002244595
3.4544836e-06
-0.00022778261
3.3231142e-06
-0.00023097225
3.1896372e-06
-0.00023402637
3.0541242e-06
-0.00023694302
2.9166481e-06
-0.0002397203
2.7772833e-06
-0.00024235641
2.6361059e-06
-0.0002448496
2.4931931e-06
-0.00024719823
2.3486236e-06
-0.0002494007
2.2024776e-06
-0.00025145554
2.0548366e-06
-0.00025336132
1.9057833e-06
-0.00025511672
1.7554017e-06
-0.0002567205
1.6037772e-06
-0.0002581715
1.450996e-06
-0.00025946864
1.297146e-06
-0.00026061096
1.1423157e-06
-0.00026159755
9.865949e-07
-0.00026242763
8.3007448e-07
-0.00026310048
6.7284618e-07
-0.00026361548
5.1500269e-07
-0.00026397211
3.5663725e-07
-0.00026416996
1.9784335e-07
-0.00026420868
3.8719819e-08
-0.00026408804
-1.2064068e-07
-0.0002638079
-2.8014134e-07
-0.00026336821
-4.3968485e-07
-0.00026276904
-5.9917346e-07
-0.00026201053
-7.585091e-07
-0.00026109294
-9.1759328e-07
-0.00026001661
-1.0763272e-06
-0.000258782
-1.2346118e-06
-0.00025738965
-1.3923477e-06
-0.00025584021
-1.5494356e-06
-0.00025413444
-1.7057759e-06
-0.00025227317
-1.8612691e-06
-0.00025025735
-2.0158159e-06
-0.00024808804
-2.169317e-06
-0.00024576636
-2.3216733e-06
-0.00024329358
-2.4727861e-06
-0.00024067102
-2.6225571e-06
-0.00023790013
-2.7708884e-06
-0.00023498245
-2.9176825e-06
-0.0002319196
-3.0628428e-06
-0.00022871333
-3.2062731e-06
-0.00022536545
-3.3478781e-06
-0.00022187789
-3.4875633e-06
-0.00021825266
-3.6252351e-06
-0.00021449185
-3.760801e-06
-0.00021059768
-3.8941696e-06
-0.00020657243
-4.0252503e-06
-0.00020241848
-4.1539542e-06
-0.00019813829
-4.2801935e-06
-0.00019373441
-4.4038817e-06
-0.00018920947
-4.5249339e-06
-0.0001845662
-4.6432667e-06
-0.00017980741
-4.7587983e-06
-0.00017493596
-4.8714487e-06
-0.00016995482
-4.9811394e-06
-0.00016486702
-5.087794e-06
-0.00015967569
-5.1913379e-06
-0.00015438399
-5.2916985e-06
-0.00014899518
-5.3888052e-06
-0.00014351259
-5.4825896e-06
-0.00013793961
-5.5729854e-06
-0.00013227968
-5.6599286e-06
-0.00012653632
-5.7433576e-06
-0.00012071311
-5.8232128e-06
-0.00011481367
-5.8994374e-06
-0.00010884169
-5.9719771e-06
-0.00010280091
-6.0407797e-06
-9.6695118e-05
-6.1057962e-06
-9.0528139e-05
-6.1669796e-06
-8.4303852e-05
-6.2242861e-06
-7.8026178e-05
-6.2776744e-06
-7.1699072e-05
-6.3271059e-06
-6.5326527e-05
-6.3725451e-06
-5.8912568e-05
-6.4139589e-06
-5.2461251e-05
-6.4513174e-06
-4.5976657e-05
-6.4845937e-06
-3.9462894e-05
-6.5137634e-06
-3.2924088e-05
-6.5388055e-06
-2.6364386e-05
-6.5597019e-06
-1.9787949e-05
-6.5764372e-06
-1.319895e-05
-6.5889993e-06
-6.6015706e-06
-6.5973792e-06
-6.6015706e-06
6.6085055e-06
-1.3210076e-05
1.3212815e-05
-1.3201689e-05
1.9808735e-05
-1.318492e-05
2.639208e-05
-1.3159782e-05
3.2958671e-05
-1.3126293e-05
3.9504344e-05
-1.3084478e-05
4.6024947e-05
-1.3034366e-05
5.2516348e-05
-1.2975995e-05
5.8974437e-05
-1.2909407e-05
6.5395127e-05
-1.2834649e-05
7.1774359e-05
-1.2751776e-05
7.8108102e-05
-1.2660849e-05
8.4392359e-05
-1.2561932e-05
9.0623171e-05
-1.2455098e-05
9.6796614e-05
-1.2340423e-05
0.00010290881
-1.221799e-05
0.00010895591
-1.2087886e-05
0.00011493414
-1.1950207e-05
0.00012083976
-1.1805049e-05
0.00012666906
-1.1652517e-05
0.00013241842
-1.1492721e-05
0.00013808427
-1.1325773e-05
0.00014366308
-1.1151793e-05
0.00014915139
-1.0970904e-05
0.00015454582
-1.0783234e-05
0.00015984303
-1.0588916e-05
0.00016503978
-1.0388087e-05
0.00017013288
-1.0180888e-05
0.0001751192
-9.9674638e-06
0.00017999572
-9.7479647e-06
0.00018475946
-9.5225432e-06
0.00018940755
-9.2913562e-06
0.00019393718
-9.0545639e-06
0.00019834563
-8.8123299e-06
0.00020263026
-8.5648213e-06
0.00020678851
-8.3122079e-06
0.00021081792
-8.0546628e-06
0.00021471612
-7.7923615e-06
0.0002184808
-7.5254824e-06
0.00022210977
-7.2542062e-06
0.00022560092
-6.9787161e-06
0.00022895224
-6.6991973e-06
0.0002321618
-6.4158371e-06
0.00023522779
-6.1288244e-06
0.00023814845
-5.8383502e-06
0.00024092217
-5.5446065e-06
0.0002435474
-5.2477871e-06
0.0002460227
-4.9480869e-06
0.00024834673
-4.6457018e-06
0.00025051824
-4.3408285e-06
0.00025253609
-4.0336647e-06
0.00025439923
-3.7244085e-06
0.00025610671
-3.4132586e-06
0.00025765769
-3.1004138e-06
0.00025905142
-2.7860733e-06
0.00026028724
-2.4704362e-06
0.00026136462
-2.1537013e-06
0.00026228309
-1.8360675e-06
0.00026304231
-1.5177329e-06
0.00026364204
-1.1988954e-06
0.0002640821
-8.7975197e-07
0.00026436246
-5.6049892e-07
0.00026448315
-2.413317e-07
0.00026444432
7.7555266e-08
0.00026424619
3.9596924e-07
0.00026388911
7.1371967e-07
0.0002633735
1.0306145e-06
0.00026269988
1.346465e-06
0.00026186887
1.6610843e-06
0.00026088118
1.9742868e-06
0.0002597376
2.285889e-06
0.00025843904
2.5957091e-06
0.00025698647
2.9035677e-06
0.00025538096
3.209287e-06
0.00025362367
3.5126919e-06
0.00025171584
3.8136094e-06
0.00024965881
4.1118687e-06
0.00024745399
4.4073019e-06
0.00024510287
4.6997433e-06
0.00024260703
4.9890299e-06
0.00023996813
5.2750015e-06
0.00023718792
5.5575003e-06
0.00023426819
5.8363717e-06
0.00023121085
6.1114638e-06
0.00022801786
6.3826276e-06
0.00022469126
6.649717e-06
0.00022123315
6.9125891e-06
0.00021764573
7.1711038e-06
0.00021393122
7.4251244e-06
0.00021009196
7.6745171e-06
0.00020613032
7.9191514e-06
0.00020204874
8.1588998e-06
0.00019784974
8.3936384e-06
0.00019353587
8.6232462e-06
0.00018910977
8.8476057e-06
0.00018457412
9.0666026e-06
0.00017993165
9.280126e-06
0.00017518515
9.4880683e-06
0.00017033748
9.6903251e-06
0.00016539152
9.8867956e-06
0.00016035022
1.0077382e-05
0.00015521658
1.0261991e-05
0.00014999361
1.0440531e-05
0.00014468441
1.0612915e-05
0.0001392921
1.077906e-05
0.00013381984
1.0938883e-05
0.00012827082
1.1092309e-05
0.00012264829
1.1239264e-05
0.00011695553
1.1379677e-05
0.00011119582
1.1513481e-05
0.00010537252
1.1640612e-05
9.9488986e-05
1.1761012e-05
9.3548621e-05
1.1874622e-05
8.7554845e-05
1.1981389e-05
8.1511108e-05
1.2081264e-05
7.542088e-05
1.2174199e-05
6.9287654e-05
1.2260152e-05
6.3114944e-05
1.2339082e-05
5.6906281e-05
1.2410953e-05
5.0665212e-05
1.2475732e-05
4.4395301e-05
1.2533388e-05
3.8100124e-05
1.2583895e-05
3.1783269e-05
1.262723e-05
2.5448334e-05
1.2663373e-05
1.9098924e-05
1.2692307e-05
1.2738653e-05
1.2714019e-05
6.3711376e-06
1.2728499e-05
-2.228742e-15
1.2735741e-05
-6.3711377e-06
1.2735741e-05
-1.2738653e-05
1.2728499e-05
-1.9098924e-05
1.2714019e-05
-2.5448334e-05
1.2692307e-05
-3.1783269e-05
1.2663373e-05
-3.8100124e-05
1.262723e-05
-4.4395301e-05
1.2583895e-05
-5.0665212e-05
1.2533388e-05
-5.6906281e-05
1.2475732e-05
-6.3114944e-05
1.2410953e-05
-6.9287654e-05
1.2339082e-05
-7.542088e-05
1.2260152e-05
-8.1511108e-05
1.2174199e-05
-8.7554845e-05
1.2081264e-05
-9.3548621e-05
1.1981389e-05
-9.9488986e-05
1.1874622e-05
-0.00010537252
1.1761012e-05
-0.00011119582
1.1640612e-05
-0.00011695553
1.1513481e-05
-0.00012264829
1.1379677e-05
-0.00012827082
1.1239264e-05
-0.00013381984
1.1092309e-05
-0.0001392921
1.0938883e-05
-0.00014468441
1.077906e-05
-0.00014999361
1.0612915e-05
-0.00015521658
1.0440531e-05
-0.00016035022
1.0261991e-05
-0.00016539152
1.0077382e-05
-0.00017033748
9.8867956e-06
-0.00017518515
9.6903251e-06
-0.00017993165
9.4880683e-06
-0.00018457412
9.280126e-06
-0.00018910977
9.0666026e-06
-0.00019353587
8.8476057e-06
-0.00019784974
8.6232462e-06
-0.00020204874
8.3936384e-06
-0.00020613032
8.1588998e-06
-0.00021009196
7.9191514e-06
-0.00021393122
7.6745171e-06
-0.00021764573
7.4251244e-06
-0.00022123315
7.1711038e-06
-0.00022469126
6.9125891e-06
-0.00022801786
6.649717e-06
-0.00023121085
6.3826276e-06
-0.00023426819
6.1114638e-06
-0.00023718792
5.8363717e-06
-0.00023996813
5.5575003e-06
-0.00024260703
5.2750015e-06
-0.00024510287
4.9890299e-06
-0.00024745399
4.6997433e-06
-0.00024965881
4.4073019e-06
-0.00025171584
4.1118687e-06
-0.00025362367
3.8136094e-06
-0.00025538096
3.5126919e-06
-0.00025698647
3.209287e-06
-0.00025843904
2.9035677e-06
-0.0002597376
2.5957091e-06
-0.00026088118
2.285889e-06
-0.00026186887
1.9742868e-06
-0.00026269988
1.6610843e-06
-0.0002633735
1.346465e-06
-0.00026388911
1.0306145e-06
-0.00026424619
7.1371967e-07
-0.00026444432
3.9596924e-07
-0.00026448315
7.7555266e-08
-0.00026436246
-2.413317e-07
-0.0002640821
-5.6049892e-07
-0.00026364204
-8.7975198e-07
-0.00026304231
-1.1988954e-06
-0.00026228309
-1.5177329e-06
-0.00026136462
-1.8360675e-06
-0.00026028724
-2.1537013e-06
-0.00025905142
-2.4704362e-06
-0.00025765769
-2.7860733e-06
-0.00025610671
-3.1004138e-06
-0.00025439923
-3.4132586e-06
-0.00025253609
-3.7244085e-06
-0.00025051824
-4.0336647e-06
-0.00024834673
-4.3408285e-06
-0.0002460227
-4.6457018e-06
-0.0002435474
-4.9480869e-06
-0.00024092217
-5.2477871e-06
-0.00023814845
-5.5446065e-06
-0.00023522779
-5.8383502e-06
-0.0002321618
-6.1288244e-06
-0.00022895224
-6.4158371e-06
-0.00022560092
-6.6991973e-06
-0.00022210977
-6.9787161e-06
-0.0002184808
-7.2542062e-06
-0.00021471612
-7.5254824e-06
-0.00021081792
-7.7923615e-06
-0.00020678851
-8.0546628e-06
-0.00020263026
-8.3122079e-06
-0.00019834563
-8.5648213e-06
-0.00019393718
-8.8123299e-06
-0.00018940755
-9.0545639e-06
-0.00018475946
-9.2913562e-06
-0.00017999572
-9.5225432e-06
-0.0001751192
-9.7479647e-06
-0.00017013288
-9.9674638e-06
-0.00016503978
-1.0180888e-05
-0.00015984303
-1.0388087e-05
-0.00015454582
-1.0588916e-05
-0.00014915139
-1.0783234e-05
-0.00014366308
-1.0970904e-05
-0.00013808427
-1.1151793e-05
-0.00013241842
-1.1325773e-05
-0.00012666906
-1.1492721e-05
-0.00012083976
-1.1652517e-05
-0.00011493414
-1.1805049e-05
-0.00010895591
-1.1950207e-05
-0.00010290881
-1.2087886e-05
-9.6796614e-05
-1.221799e-05
-9.0623171e-05
-1.2340423e-05
-8.4392359e-05
-1.2455098e-05
-7.8108102e-05
-1.2561932e-05
-7.1774359e-05
-1.2660849e-05
-6.5395127e-05
-1.2751776e-05
-5.8974437e-05
-1.2834649e-05
-5.2516348e-05
-1.2909407e-05
-4.6024947e-05
-1.2975995e-05
-3.9504344e-05
-1.3034366e-05
-3.2958671e-05
-1.3084478e-05
-2.639208e-05
-1.3126293e-05
-1.9808735e-05
-1.3159782e-05
-1.3212815e-05
-1.318492e-05
-6.6085055e-06
-1.3201689e-05
-1.3210076e-05
6.6202841e-06
-1.983036e-05
1.3236365e-05
-1.9817769e-05
1.9844041e-05
-1.9792596e-05
2.6439119e-05
-1.975486e-05
3.3017413e-05
-1.9704587e-05
3.957475e-05
-1.9641815e-05
4.6106973e-05
-1.9566589e-05
5.2609941e-05
-1.9478964e-05
5.9079537e-05
-1.9379003e-05
6.5511667e-05
-1.9266778e-05
7.1902262e-05
-1.9142372e-05
7.8247288e-05
-1.9005874e-05
8.4542738e-05
-1.8857383e-05
9.0784646e-05
-1.8697006e-05
9.6969082e-05
-1.8524859e-05
0.00010309216
-1.8341065e-05
0.00010915003
-1.8145758e-05
0.0001151389
-1.7939077e-05
0.00012105502
-1.772117e-05
0.0001268947
-1.7492194e-05
0.00013265429
-1.7252312e-05
0.00013833021
-1.7001695e-05
0.00014391894
-1.6740521e-05
0.00014941701
-1.6468976e-05
0.00015482103
-1.6187251e-05
0.00016012766
-1.5895547e-05
0.00016533364
-1.5594069e-05
0.00017043578
-1.5283028e-05
0.00017543096
-1.4962643e-05
0.00018031614
-1.4633138e-05
0.00018508834
-1.4294743e-05
0.00018974467
-1.3947693e-05
0.00019428234
-1.3592229e-05
0.0001986986
-1.3228596e-05
0.00020299083
-1.2857045e-05
0.00020715645
-1.2477831e-05
0.000211193
-1.2091213e-05
0.0002150981
-1.1697456e-05
0.00021886944
-1.1296828e-05
0.00022250483
-1.0889598e-05
0.00022600216
-1.0476043e-05
0.0002293594
-1.0056441e-05
0.00023257464
-9.6310719e-06
0.00023564603
-9.2002203e-06
0.00023857186
-8.7641723e-06
0.00024135047
-8.3232167e-06
0.00024398032
-7.8776442e-06
0.00024645998
-7.4277472e-06
0.0002487881
-6.9738198e-06
0.00025096343
-6.5161576e-06
0.00025298482
-6.0550572e-06
0.00025485123
-5.5908159e-06
0.0002565617
-5.123732e-06
0.0002581154
-4.6541041e-06
0.00025951155
-4.182231e-06
0.00026074953
-3.7084117e-06
0.00026182877
-3.2329447e-06
0.00026274883
-2.7561284e-06
0.00026350936
-2.2782604e-06
0.0002641101
-1.7996376e-06
0.00026455091
-1.3205557e-06
0.00026483172
-8.4130948e-07
0.00026495258
-3.6219217e-07
0.00026491363
1.1650456e-07
0.00026471511
5.9449124e-07
0.00026435735
1.0714803e-06
0.00026384077
1.5471854e-06
0.00026316592
2.0213229e-06
0.00026233339
2.4936119e-06
0.0002613439
2.963774e-06
0.00026019826
3.4315336e-06
0.00025889735
3.8966179e-06
0.00025744216
4.3587573e-06
0.00025583376
4.8176854e-06
0.00025407331
5.273139e-06
0.00025216206
5.7248583e-06
0.00025010135
6.1725874e-06
0.00024789257
6.6160738e-06
0.00024553725
7.0550689e-06
0.00024303695
7.4893281e-06
0.00024039334
7.9186107e-06
0.00023760816
8.3426802e-06
0.00023468323
8.7613042e-06
0.00023162044
9.1742548e-06
0.00022842176
9.5813083e-06
0.00022508923
9.9822455e-06
0.00022162497
1.0376852e-05
0.00021803115
1.0764917e-05
0.00021431004
1.1146236e-05
0.00021046395
1.1520607e-05
0.00020649527
1.1887835e-05
0.00020240644
1.2247729e-05
0.00019819997
1.2600103e-05
0.00019387845
1.2944774e-05
0.00018944448
1.3281566e-05
0.00018490078
1.3610309e-05
0.00018025007
1.3930835e-05
0.00017549515
1.4242983e-05
0.00017063888
1.4546596e-05
0.00016568416
1.4841524e-05
0.00016063392
1.5127618e-05
0.00015549117
1.5404739e-05
0.00015025895
1.5672751e-05
0.00014494035
1.5931521e-05
0.00013953848
1.6180924e-05
0.00013405653
1.6420839e-05
0.00012849769
1.665115e-05
0.0001228652
1.6871747e-05
0.00011716235
1.7082524e-05
0.00011139245
1.728338e-05
0.00010555885
1.7474221e-05
9.9664904e-05
1.7654955e-05
9.3714028e-05
1.7825497e-05
8.7709649e-05
1.7985768e-05
8.1655221e-05
1.8135692e-05
7.5554221e-05
1.8275199e-05
6.9410149e-05
1.8404225e-05
6.3226523e-05
1.8522708e-05
5.7006881e-05
1.8630595e-05
5.0754777e-05
1.8727835e-05
4.4473781e-05
1.8814384e-05
3.8167474e-05
1.8890201e-05
3.1839452e-05
1.8955252e-05
2.5493318e-05
1.9009507e-05
1.9132684e-05
1.905294e-05
1.276117e-05
1.9085533e-05
6.3823995e-06
1.910727e-05
-2.0779693e-15
1.9118141e-05
-6.3823995e-06
1.9118141e-05
-1.276117e-05
1.910727e-05
-1.9132684e-05
1.9085533e-05
-2.5493318e-05
1.905294e-05
-3.1839452e-05
1.9009507e-05
-3.8167474e-05
1.8955252e-05
-4.4473781e-05
1.8890201e-05
-5.0754777e-05
1.8814384e-05
-5.7006881e-05
1.8727835e-05
-6.3226523e-05
1.8630595e-05
-6.9410149e-05
1.8522708e-05
-7.5554221e-05
1.8404225e-05
-8.1655221e-05
1.8275199e-05
-8.7709649e-05
1.8135692e-05
-9.3714028e-05
1.7985768e-05
-9.9664904e-05
1.7825497e-05
-0.00010555885
1.7654955e-05
-0.00011139245
1.7474221e-05
-0.00011716235
1.728338e-05
-0.0001228652
1.7082524e-05
-0.00012849769
1.6871747e-05
-0.00013405653
1.665115e-05
-0.00013953848
1.6420839e-05
-0.00014494035
1.6180924e-05
-0.00015025895
1.5931521e-05
-0.00015549117
1.5672751e-05
-0.00016063392
1.5404739e-05
-0.00016568416
1.5127618e-05
-0.00017063888
1.4841524e-05
-0.00017549515
1.4546596e-05
-0.00018025007
1.4242983e-05
-0.00018490078
1.3930835e-05
-0.00018944448
1.3610309e-05
-0.00019387845
1.3281566e-05
-0.00019819997
1.2944774e-05
-0.00020240644
1.2600103e-05
-0.00020649527
1.2247729e-05
-0.00021046395
1.1887835e-05
-0.00021431004
1.1520607e-05
-0.00021803115
1.1146236e-05
-0.00022162497
1.0764917e-05
-0.00022508923
1.0376852e-05
-0.00022842176
9.9822455e-06
-0.00023162044
9.5813083e-06
-0.00023468323
9.1742548e-06
-0.00023760816
8.7613042e-06
-0.00024039334
8.3426802e-06
-0.00024303695
7.9186107e-06
-0.00024553725
7.4893281e-06
-0.00024789257
7.0550689e-06
-0.00025010135
6.6160738e-06
-0.00025216206
6.1725874e-06
-0.00025407331
5.7248583e-06
-0.00025583376
5.273139e-06
-0.00025744216
4.8176854e-06
-0.00025889735
4.3587573e-06
-0.00026019826
3.8966179e-06
-0.0002613439
3.4315336e-06
-0.00026233339
2.963774e-06
-0.00026316592
2.4936119e-06
-0.00026384077
2.0213229e-06
-0.00026435735
1.5471854e-06
-0.00026471511
1.0714803e-06
-0.00026491363
5.9449124e-07
-0.00026495258
1.1650456e-07
-0.00026483172
-3.6219217e-07
-0.00026455091
-8.4130948e-07
-0.0002641101
-1.3205557e-06
-0.00026350936
-1.7996376e-06
-0.00026274883
-2.2782604e-06
-0.00026182877
-2.7561284e-06
-0.00026074953
-3.2329447e-06
-0.00025951155
-3.7084117e-06
-0.0002581154
-4.182231e-06
-0.0002565617
-4.6541041e-06
-0.00025485123
-5.123732e-06
-0.00025298482
-5.5908159e-06
-0.00025096343
-6.0550572e-06
-0.0002487881
-6.5161576e-06
-0.00024645998
-6.9738198e-06
-0.00024398032
-7.4277472e-06
-0.00024135047
-7.8776442e-06
-0.00023857186
-8.3232167e-06
-0.00023564603
-8.7641723e-06
-0.00023257464
-9.2002203e-06
-0.0002293594
-9.6310719e-06
-0.00022600216
-1.0056441e-05
-0.00022250483
-1.0476043e-05
-0.00021886944
-1.0889598e-05
-0.0002150981
-1.1296828e-05
-0.000211193
-1.1697456e-05
-0.00020715645
-1.2091213e-05
-0.00020299083
-1.2477831e-05
-0.0001986986
-1.2857045e-05
-0.00019428234
-1.3228596e-05
-0.00018974467
-1.3592229e-05
-0.00018508834
-1.3947693e-05
-0.00018031614
-1.4294743e-05
-0.00017543096
-1.4633138e-05
-0.00017043578
-1.4962643e-05
-0.00016533364
-1.5283028e-05
-0.00016012766
-1.5594069e-05
-0.00015482103
-1.5895547e-05
-0.00014941701
-1.6187251e-05
-0.00014391894
-1.6468976e-05
-0.00013833021
-1.6740521e-05
-0.00013265429
-1.7001695e-05
-0.0001268947
-1.7252312e-05
-0.00012105502
-1.7492194e-05
-0.0001151389
-1.772117e-05
-0.00010915003
-1.7939077e-05
-0.00010309216
-1.8145758e-05
-9.6969082e-05
-1.8341065e-05
-9.0784646e-05
-1.8524859e-05
-8.4542738e-05
-1.8697006e-05
-7.8247288e-05
-1.8857383e-05
-7.1902262e-05
-1.9005874e-05
-6.5511667e-05
-1.9142372e-05
-5.9079537e-05
-1.9266778e-05
-5.2609941e-05
-1.9379003e-05
-4.6106973e-05
-1.9478964e-05
-3.957475e-05
-1.9566589e-05
-3.3017413e-05
-1.9641815e-05
-2.6439119e-05
-1.9704587e-05
-1.9844041e-05
-1.975486e-05
-1.3236365e-05
-1.9792596e-05
-6.6202841e-06
-1.9817769e-05
-1.983036e-05
6.6369105e-06
-2.6467271e-05
1.3269607e-05
-2.6450465e-05
1.9893878e-05
-2.6416867e-05
2.6505518e-05
-2.63665e-05
3.3100333e-05
-2.6299402e-05
3.9674138e-05
-2.621562e-05
4.6222764e-05
-2.6115216e-05
5.2742063e-05
-2.5998262e-05
5.9227905e-05
-2.5864844e-05
6.5676185e-05
-2.5715059e-05
7.2082827e-05
-2.5549014e-05
7.8443783e-05
-2.5366831e-05
8.475504e-05
-2.516864e-05
9.1012619e-05
-2.4954585e-05
9.7212581e-05
-2.4724821e-05
0.00010335103
-2.4479512e-05
0.00010942411
-2.4218836e-05
0.00011542801
-2.394298e-05
0.00012135898
-2.3652141e-05
0.00012721331
-2.3346527e-05
0.00013298736
-2.3026357e-05
0.00013867752
-2.269186e-05
0.00014428027
-2.2343272e-05
0.00014979214
-2.1980842e-05
0.00015520972
-2.1604827e-05
0.00016052966
-2.1215491e-05
0.0001657487
-2.081311e-05
0.00017086364
-2.0397966e-05
0.00017587135
-1.9970351e-05
0.00018076877
-1.9530563e-05
0.00018555294
-1.907891e-05
0.00019022095
-1.8615705e-05
0.00019476999
-1.814127e-05
0.00019919733
-1.7655933e-05
0.00020350031
-1.7160027e-05
0.00020767637
-1.6653894e-05
0.00021172304
-1.613788e-05
0.00021563792
-1.5612337e-05
0.00021941872
-1.5077622e-05
0.00022306322
-1.4534098e-05
0.0002265693
-1.3982132e-05
0.00022993496
-1.3422093e-05
0.00023315824
-1.2854359e-05
0.00023623733
-1.2279307e-05
0.00023917048
-1.169732e-05
0.00024195604
-1.1108783e-05
0.00024459248
-1.0514084e-05
0.00024707835
-9.9136128e-06
0.00024941229
-9.3077629e-06
0.00025159306
-8.6969284e-06
0.00025361951
-8.0815049e-06
0.00025549059
-7.4618897e-06
0.00025720533
-6.8384806e-06
0.00025876291
-6.2116762e-06
0.00026016255
-5.5818755e-06
0.00026140362
-4.9494772e-06
0.00026248555
-4.31488e-06
0.0002634079
-3.678482e-06
0.00026417033
-3.0406805e-06
0.00026477256
-2.4018717e-06
0.00026521445
-1.7624504e-06
0.00026549595
-1.1228098e-06
0.0002656171
-4.8334134e-07
0.00026557804
1.5556581e-07
0.00026537901
7.9352501e-07
0.00026502034
1.4301522e-06
0.00026450246
2.0650655e-06
0.00026382589
2.6978867e-06
0.00026299126
3.3282406e-06
0.00026199928
3.9557557e-06
0.00026085075
4.580064e-06
0.00025954657
5.2008016e-06
0.00025808772
5.8176086e-06
0.00025647527
6.4301294e-06
0.0002547104
7.0380126e-06
0.00025279435
7.6409117e-06
0.00025072845
8.238485e-06
0.00024851413
8.8303956e-06
0.00024615288
9.4163116e-06
0.00024364631
9.9959065e-06
0.00024099606
1.0568859e-05
0.00023820388
1.1134854e-05
0.00023527161
1.1693581e-05
0.00023220113
1.2244735e-05
0.00022899442
1.2788019e-05
0.00022565352
1.3323139e-05
0.00022218057
1.3849809e-05
0.00021857773
1.4367749e-05
0.00021484728
1.4876685e-05
0.00021099154
1.5376348e-05
0.0002070129
1.5866477e-05
0.00020291381
1.6346817e-05
0.0001986968
1.681712e-05
0.00019436443
1.7277142e-05
0.00018991935
1.7726649e-05
0.00018536424
1.8165412e-05
0.00018070187
1.8593209e-05
0.00017593503
1.9009823e-05
0.00017106658
1.9415046e-05
0.00016609943
1.9808677e-05
0.00016103653
2.0190518e-05
0.00015588088
2.0560383e-05
0.00015063554
2.0918089e-05
0.0001453036
2.1263461e-05
0.0001398882
2.1596331e-05
0.0001343925
2.1916538e-05
0.00012881972
2.2223927e-05
0.00012317312
2.251835e-05
0.00011745597
2.2799667e-05
0.00011167161
2.3067743e-05
0.00010582338
2.3322451e-05
9.9914664e-05
2.3563671e-05
9.3948874e-05
2.3791288e-05
8.7929446e-05
2.4005196e-05
8.1859844e-05
2.4205294e-05
7.5743554e-05
2.439149e-05
6.9584083e-05
2.4563695e-05
6.3384961e-05
2.4721831e-05
5.7149732e-05
2.4865824e-05
5.0881961e-05
2.4995607e-05
4.4585225e-05
2.511112e-05
3.8263115e-05
2.5212311e-05
3.1919236e-05
2.5299132e-05
2.5557199e-05
2.5371543e-05
1.9180627e-05
2.5429513e-05
1.2793147e-05
2.5473013e-05
6.3983925e-06
2.5502024e-05
-1.9522324e-15
2.5516533e-05
-6.3983925e-06
2.5516533e-05
-1.2793147e-05
2.5502024e-05
-1.9180627e-05
2.5473013e-05
-2.5557199e-05
2.5429513e-05
-3.1919236e-05
2.5371543e-05
-3.8263115e-05
2.5299132e-05
-4.4585225e-05
2.5212311e-05
-5.0881961e-05
2.511112e-05
-5.7149732e-05
2.4995607e-05
-6.3384961e-05
2.4865824e-05
-6.9584083e-05
2.4721831e-05
-7.5743554e-05
2.4563695e-05
-8.1859844e-05
2.439149e-05
-8.7929446e-05
2.4205294e-05
-9.3948874e-05
2.4005196e-05
-9.9914664e-05
2.3791288e-05
-0.00010582338
2.3563671e-05
-0.00011167161
2.3322451e-05
-0.00011745597
2.3067743e-05
-0.00012317312
2.2799667e-05
-0.00012881972
2.251835e-05
-0.0001343925
2.2223927e-05
-0.0001398882
2.1916538e-05
-0.0001453036
2.1596331e-05
-0.00015063554
2.1263461e-05
-0.00015588088
2.0918089e-05
-0.00016103653
2.0560383e-05
-0.00016609943
2.0190518e-05
-0.00017106658
1.9808677e-05
-0.00017593503
1.9415046e-05
-0.00018070187
1.9009823e-05
-0.00018536424
1.8593209e-05
-0.00018991935
1.8165412e-05
-0.00019436443
1.7726649e-05
-0.0001986968
1.7277142e-05
-0.00020291381
1.681712e-05
-0.0002070129
1.6346817e-05
-0.00021099154
1.5866477e-05
-0.00021484728
1.5376348e-05
-0.00021857773
1.4876685e-05
-0.00022218057
1.4367749e-05
-0.00022565352
1.3849809e-05
-0.00022899442
1.3323139e-05
-0.00023220113
1.2788019e-05
-0.00023527161
1.2244735e-05
-0.00023820388
1.1693581e-05
-0.00024099606
1.1134854e-05
-0.00024364631
1.0568859e-05
-0.00024615288
9.9959065e-06
-0.00024851413
9.4163116e-06
-0.00025072845
8.8303956e-06
-0.00025279435
8.238485e-06
-0.0002547104
7.6409117e-06
-0.00025647527
7.0380126e-06
-0.00025808772
6.4301294e-06
-0.00025954657
5.8176086e-06
-0.00026085075
5.2008017e-06
-0.00026199928
4.580064e-06
-0.00026299126
3.9557557e-06
-0.00026382589
3.3282406e-06
-0.00026450246
2.6978867e-06
-0.00026502034
2.0650655e-06
-0.00026537901
1.4301522e-06
-0.00026557804
7.9352501e-07
-0.0002656171
1.5556581e-07
-0.00026549595
-4.8334134e-07
-0.00026521445
-1.1228098e-06
-0.00026477256
-1.7624504e-06
-0.00026417033
-2.4018717e-06
-0.0002634079
-3.0406805e-06
-0.00026248555
-3.678482e-06
-0.00026140362
-4.31488e-06
-0.00026016255
-4.9494772e-06
-0.00025876291
-5.5818755e-06
-0.00025720533
-6.2116762e-06
-0.00025549059
-6.8384806e-06
-0.00025361951
-7.4618897e-06
-0.00025159306
-8.0815049e-06
-0.00024941229
-8.6969284e-06
-0.00024707835
-9.3077629e-06
-0.00024459248
-9.9136128e-06
-0.00024195604
-1.0514084e-05
-0.00023917048
-1.1108783e-05
-0.00023623733
-1.169732e-05
-0.00023315824
-1.2279307e-05
-0.00022993496
-1.2854359e-05
-0.0002265693
-1.3422093e-05
-0.00022306322
-1.3982132e-05
-0.00021941872
-1.4534098e-05
-0.00021563792
-1.5077622e-05
-0.00021172304
-1.5612337e-05
-0.00020767637
-1.613788e-05
-0.00020350031
-1.6653894e-05
-0.00019919733
-1.7160027e-05
-0.00019476999
-1.7655933e-05
-0.00019022095
-1.814127e-05
-0.00018555294
-1.8615705e-05
-0.00018076877
-1.907891e-05
-0.00017587135
-1.9530563e-05
-0.00017086364
-1.9970351e-05
-0.0001657487
-2.0397966e-05
-0.00016052966
-2.081311e-05
-0.00015520972
-2.1215491e-05
-0.00014979214
-2.1604827e-05
-0.00014428027
-2.1980842e-05
-0.00013867752
-2.2343272e-05
-0.00013298736
-2.269186e-05
-0.00012721331
-2.3026357e-05
-0.00012135898
-2.3346527e-05
-0.00011542801
-2.3652141e-05
-0.00010942411
-2.394298e-05
-0.00010335103
-2.4218836e-05
-9.7212581e-05
-2.4479512e-05
-9.1012619e-05
-2.4724821e-05
-8.475504e-05
-2.4954585e-05
-7.8443783e-05