/*--------------------------------*- C++ -*----------------------------------*\
| =========                 |                                                 |
| \\      /  F ield         | OpenFOAM: The Open Source CFD Toolbox           |
|  \\    /   O peration     | Version:  2106                                  |
|   \\  /    A nd           | Website:  www.openfoam.com                      |
|    \\/     M anipulation  |                                                 |
\*---------------------------------------------------------------------------*/
FoamFile
{
    version     2.0;
    format      ascii;
    arch        "LSB;label=32;scalar=64";
    class       surfaceScalarField;
    location    "0.001";
    object      phi;
}
// * * * * * * * * * * * * * * * * * * * * * * * * * * * * * * * * * * * * * //

dimensions      [0 3 -1 0 0 0 0];

oriented        oriented;

internalField   nonuniform List<scalar> 
8064
(
-0.00044102802
0.00044102802
-0.00087778329
0.00043675528
-0.001306035
0.00042825169
-0.0017216356
0.00041560062
-0.0021205617
0.0003989261
-0.0024989533
0.00037839158
-0.0028531516
0.00035419833
-0.0031797351
0.00032658349
-0.0034755528
0.00029581774
-0.0037377555
0.00026220262
-0.003963823
0.00022606756
-0.0041515895
0.00018776647
-0.0042992637
0.00014767419
-0.0044054454
0.00010618178
-0.004469134
6.3688591e-05
-0.0044897549
2.0620856e-05
-0.0044671408
-2.2614128e-05
-0.0044015404
-6.5600416e-05
-0.0042936161
-0.00010792425
-0.004144435
-0.00014918112
-0.0039554561
-0.00018897882
-0.0037285158
-0.00022694031
-0.0034658091
-0.00026270675
-0.0031698686
-0.00029594048
-0.0028435409
-0.00032632774
-0.0024899595
-0.00035358134
-0.0021125164
-0.00037744318
-0.0017148297
-0.00039768666
-0.0013007107
-0.00041411895
-0.00087412767
-0.00042658307
-0.00043916808
-0.00043495959
2.0566102e-14
-0.00043916808
0.00043916808
-0.00043916808
0.00087412767
-0.00043495959
0.0013007107
-0.00042658307
0.0017148297
-0.00041411895
0.0021125164
-0.00039768666
0.0024899595
-0.00037744318
0.0028435409
-0.00035358134
0.0031698686
-0.00032632774
0.0034658091
-0.00029594048
0.0037285158
-0.00026270675
0.0039554561
-0.00022694031
0.004144435
-0.00018897882
0.0042936161
-0.00014918112
0.0044015404
-0.00010792425
0.0044671408
-6.5600416e-05
0.0044897549
-2.2614128e-05
0.004469134
2.0620856e-05
0.0044054454
6.3688591e-05
0.0042992637
0.00010618178
0.0041515895
0.00014767419
0.003963823
0.00018776647
0.0037377555
0.00022606756
0.0034755528
0.00026220262
0.0031797351
0.00029581774
0.0028531516
0.00032658349
0.0024989533
0.00035419833
0.0021205617
0.00037839158
0.0017216356
0.0003989261
0.001306035
0.00041560062
0.00087778329
0.00042825169
0.00044102802
0.00043675528
0.00044102802
-0.00044646797
0.00088749598
-0.00088860945
0.00087889676
-0.0013221404
0.00086178266
-0.0017428613
0.00083632153
-0.0021466983
0.00080276308
-0.0025297431
0.00076143635
-0.0028882913
0.00071274654
-0.0032188788
0.00065717102
-0.0035183158
0.00059525467
-0.0037837177
0.00052760453
-0.0040125338
0.00045488372
-0.0042025721
0.00037780474
-0.0043520199
0.00029712195
-0.0044594612
0.00021362316
-0.0045238935
0.00012812085
-0.0045447244
4.1451757e-05
-0.0045217899
-4.5548636e-05
-0.0044553464
-0.0001320439
-0.0043460668
-0.00021720384
-0.0041950325
-0.00030021541
-0.0040037215
-0.00038028982
-0.0037739929
-0.00045666894
-0.0035080683
-0.00052863137
-0.0032085106
-0.00059549818
-0.0028781999
-0.00065663846
-0.0025203067
-0.0007114745
-0.0021382629
-0.00075948697
-0.0017357298
-0.00080021974
-0.0013165643
-0.00083328453
-0.00088478228
-0.00085836505
-0.0004445212
-0.00087522068
5.8650067e-15
-0.00088368928
0.0004445212
-0.00088368928
0.00088478228
-0.00087522068
0.0013165643
-0.00085836505
0.0017357298
-0.00083328453
0.0021382629
-0.00080021974
0.0025203067
-0.00075948697
0.0028781999
-0.0007114745
0.0032085106
-0.00065663846
0.0035080683
-0.00059549818
0.0037739929
-0.00052863137
0.0040037215
-0.00045666894
0.0041950325
-0.00038028982
0.0043460668
-0.00030021541
0.0044553464
-0.00021720384
0.0045217899
-0.0001320439
0.0045447244
-4.5548636e-05
0.0045238935
4.1451757e-05
0.0044594612
0.00012812085
0.0043520199
0.00021362316
0.0042025721
0.00029712195
0.0040125338
0.00037780474
0.0037837177
0.00045488372
0.0035183158
0.00052760453
0.0032188788
0.00059525467
0.0028882913
0.00065717102
0.0025297431
0.00071274654
0.0021466983
0.00076143635
0.0017428613
0.00080276308
0.0013221404
0.00083632153
0.00088860945
0.00086178266
0.00044646797
0.00087889676
0.00088749598
-0.00045565309
0.0013431491
-0.00090688926
0.0013301329
-0.001349335
0.0013042284
-0.001778703
0.0012656896
-0.0021908345
0.0012148946
-0.0025817399
0.0011523417
-0.0029476376
0.0010786442
-0.0032849915
0.00099452497
-0.0035905457
0.00090080884
-0.0038613561
0.00079841495
-0.0040948198
0.00068834742
-0.0042887003
0.00057168523
-0.0044411493
0.00044957093
-0.0045507245
0.00032319841
-0.0046164038
0.00019380017
-0.0046375887
6.2636604e-05
-0.0046141141
-6.9023261e-05
-0.0045462459
-0.00019991208
-0.0044346748
-0.00032877495
-0.0042805074
-0.00045438273
-0.0040852542
-0.00057554307
-0.003850813
-0.00069111011
-0.0035794507
-0.00079999365
-0.0032737813
-0.00090116758
-0.0029367417
-0.00099367809
-0.0025715647
-0.0010766515
-0.0021817497
-0.001149302
-0.0017710305
-0.0012109389
-0.001343341
-0.0012609741
-0.0009027779
-0.0012989281
-0.00045356257
-0.001324436
3.3192727e-15
-0.0013372519
0.00045356257
-0.0013372519
0.0009027779
-0.001324436
0.001343341
-0.0012989281
0.0017710305
-0.0012609741
0.0021817497
-0.0012109389
0.0025715647
-0.001149302
0.0029367417
-0.0010766515
0.0032737813
-0.00099367809
0.0035794507
-0.00090116758
0.003850813
-0.00079999365
0.0040852542
-0.00069111011
0.0042805074
-0.00057554307
0.0044346748
-0.00045438273
0.0045462459
-0.00032877495
0.0046141141
-0.00019991208
0.0046375887
-6.9023261e-05
0.0046164038
6.2636604e-05
0.0045507245
0.00019380017
0.0044411493
0.00032319841
0.0042887003
0.00044957093
0.0040948198
0.00057168523
0.0038613561
0.00068834742
0.0035905457
0.00079841495
0.0032849915
0.00090080884
0.0029476376
0.00099452497
0.0025817399
0.0010786442
0.0021908345
0.0011523417
0.001778703
0.0012148946
0.001349335
0.0012656896
0.00090688926
0.0013042284
0.00045565309
0.0013301329
0.0013431491
-0.00046891443
0.0018120635
-0.00093328164
0.0017945001
-0.0013885991
0.0017595458
-0.0018304532
0.0017075437
-0.0022545627
0.0016390041
-0.0026568203
0.0015545993
-0.0030333332
0.0014551572
-0.0033804613
0.0013416531
-0.0036948529
0.0012152004
-0.0039734775
0.0010770395
-0.0042136562
0.00092852615
-0.0044130881
0.00077111716
-0.0045698729
0.00060635571
-0.0046825291
0.00043585463
-0.004750008
0.00026127905
-0.0047717003
8.4328881e-05
-0.0047474417
-9.3281803e-05
-0.0046775119
-0.00026984189
-0.0045626274
-0.00044365949
-0.0044039318
-0.00061307834
-0.0042029825
-0.00077649232
-0.0039617341
-0.00093235854
-0.0036825186
-0.0010792091
-0.0033680238
-0.0012156624
-0.0030212683
-0.0013404336
-0.0026455746
-0.0014523452
-0.0022445394
-0.0015503371
-0.001822001
-0.0016334773
-0.0013820041
-0.001700971
-0.00092876219
-0.00175217
-0.0004666177
-0.0017865805
-2.5018901e-15
-0.0018038696
0.0004666177
-0.0018038696
0.00092876219
-0.0017865805
0.0013820041
-0.00175217
0.001822001
-0.001700971
0.0022445394
-0.0016334773
0.0026455746
-0.0015503371
0.0030212683
-0.0014523452
0.0033680238
-0.0013404336
0.0036825186
-0.0012156624
0.0039617341
-0.0010792091
0.0042029825
-0.00093235854
0.0044039318
-0.00077649232
0.0045626274
-0.00061307834
0.0046775119
-0.00044365949
0.0047474417
-0.00026984189
0.0047717003
-9.3281803e-05
0.004750008
8.4328881e-05
0.0046825291
0.00026127905
0.0045698729
0.00043585463
0.0044130881
0.00060635571
0.0042136562
0.00077111716
0.0039734775
0.00092852615
0.0036948529
0.0010770395
0.0033804613
0.0012152004
0.0030333332
0.0013416531
0.0026568203
0.0014551572
0.0022545627
0.0015545993
0.0018304532
0.0016390041
0.0013885991
0.0017075437
0.00093328164
0.0017595458
0.00046891443
0.0017945001
0.0018120635
-0.00048653447
0.002298598
-0.00096834873
0.0022763144
-0.001440769
0.0022319661
-0.001899214
0.0021659887
-0.0023392396
0.0020790297
-0.0027565826
0.0019719423
-0.0031472023
0.0018457769
-0.0035073202
0.0017017709
-0.0038334567
0.0015413369
-0.0041224665
0.0013660493
-0.0043715691
0.0011776287
-0.0045783773
0.00097792538
-0.004740921
0.00076889946
-0.0048576666
0.00055260023
-0.0049275309
0.00033114338
-0.0049498896
0.00010668752
-0.0049245807
-0.00011859067
-0.0048519031
-0.0003425195
-0.0047326086
-0.00056295404
-0.0045678906
-0.00077779624
-0.0043593699
-0.00098501307
-0.0041090761
-0.0011826524
-0.0038194279
-0.0013688573
-0.0034932106
-0.0015418798
-0.0031335507
-0.0017000934
-0.0027438894
-0.0018420065
-0.0023279517
-0.0019662748
-0.0018897141
-0.0020717149
-0.0014333685
-0.0021573166
-0.00096328338
-0.0022222551
-0.00048396222
-0.0022659017
-7.136253e-15
-0.0022878318
0.00048396222
-0.0022878318
0.00096328338
-0.0022659017
0.0014333685
-0.0022222551
0.0018897141
-0.0021573166
0.0023279517
-0.0020717149
0.0027438894
-0.0019662748
0.0031335507
-0.0018420065
0.0034932106
-0.0017000934
0.0038194279
-0.0015418798
0.0041090761
-0.0013688573
0.0043593699
-0.0011826524
0.0045678906
-0.00098501307
0.0047326086
-0.00077779624
0.0048519031
-0.00056295404
0.0049245807
-0.0003425195
0.0049498896
-0.00011859067
0.0049275309
0.00010668752
0.0048576666
0.00033114338
0.004740921
0.00055260023
0.0045783773
0.00076889946
0.0043715691
0.00097792538
0.0041224665
0.0011776287
0.0038334567
0.0013660493
0.0035073202
0.0015413369
0.0031472023
0.0017017709
0.0027565826
0.0018457769
0.0023392396
0.0019719423
0.001899214
0.0020790297
0.001440769
0.0021659887
0.00096834873
0.0022319661
0.00048653447
0.0022763144
0.002298598
-0.00050877192
0.0028073699
-0.0010126053
0.0027801478
-0.0015066104
0.0027259712
-0.0019859941
0.0026453724
-0.0024461073
0.0025391429
-0.00288249
0.0024083249
-0.0032909146
0.0022542015
-0.0036674276
0.002078284
-0.0040083884
0.0018822977
-0.0043105053
0.0016681662
-0.0045708692
0.0014379926
-0.0047869832
0.0011940394
-0.0049567887
0.00093870493
-0.0050786857
0.00067449723
-0.0051515484
0.00040400605
-0.0051747336
0.00012987277
-0.005148084
-0.00014524031
-0.0050719243
-0.00041867922
-0.0049470525
-0.00068782586
-0.0047747264
-0.00095012231
-0.0045566471
-0.0012030924
-0.0042949395
-0.00144436
-0.0039921311
-0.0016716656
-0.0036511293
-0.0018828816
-0.0032751957
-0.0020760271
-0.0028679193
-0.0022492829
-0.0024331862
-0.0024010079
-0.0019751464
-0.0025297547
-0.0014981769
-0.0026342862
-0.0010068415
-0.0027135905
-0.00050584765
-0.0027668955
-1.3211812e-14
-0.0027936794
0.00050584765
-0.0027936794
0.0010068415
-0.0027668955
0.0014981769
-0.0027135905
0.0019751464
-0.0026342862
0.0024331862
-0.0025297547
0.0028679193
-0.0024010079
0.0032751957
-0.0022492829
0.0036511293
-0.0020760271
0.0039921311
-0.0018828816
0.0042949395
-0.0016716656
0.0045566471
-0.00144436
0.0047747264
-0.0012030924
0.0049470525
-0.00095012231
0.0050719243
-0.00068782586
0.005148084
-0.00041867922
0.0051747336
-0.00014524031
0.0051515484
0.00012987277
0.0050786857
0.00040400605
0.0049567887
0.00067449723
0.0047869832
0.00093870493
0.0045708692
0.0011940394
0.0043105053
0.0014379926
0.0040083884
0.0016681662
0.0036674276
0.0018822977
0.0032909146
0.002078284
0.00288249
0.0022542015
0.0024461073
0.0024083249
0.0019859941
0.0025391429
0.0015066104
0.0026453724
0.0010126053
0.0027259712
0.00050877192
0.0027801478
0.0028073699
-0.00053588854
0.0033432584
-0.0010665723
0.0033108315
-0.0015868979
0.0032462968
-0.0020918145
0.003150289
-0.0025764227
0.0030237511
-0.0030360229
0.002867925
-0.0034661598
0.0026843384
-0.0038626665
0.0024747907
-0.004221705
0.0022413362
-0.0045398047
0.0019862659
-0.0048138982
0.0017120861
-0.0050413537
0.001421495
-0.0052200034
0.0011173546
-0.0053481663
0.00080266017
-0.0054246651
0.00048050478
-0.0054488349
0.00015404266
-0.005420526
-0.00017354923
-0.0053400976
-0.0004991076
-0.0052084068
-0.00081951669
-0.0050267919
-0.0011317372
-0.0047970534
-0.0014328309
-0.0045214325
-0.0017199809
-0.0042025886
-0.0019905095
-0.0038435761
-0.0022418942
-0.0034478191
-0.0024717841
-0.0030190847
-0.0026780173
-0.0025614532
-0.0028586394
-0.0020792843
-0.0030119236
-0.0015771801
-0.0031363904
-0.0010599427
-0.0032308279
-0.00053252877
-0.0032943094
-1.0936678e-14
-0.0033262082
0.00053252877
-0.0033262082
0.0010599427
-0.0032943094
0.0015771801
-0.0032308279
0.0020792843
-0.0031363904
0.0025614532
-0.0030119236
0.0030190847
-0.0028586394
0.0034478191
-0.0026780173
0.0038435761
-0.0024717841
0.0042025886
-0.0022418942
0.0045214325
-0.0019905095
0.0047970534
-0.0017199809
0.0050267919
-0.0014328309
0.0052084068
-0.0011317372
0.0053400976
-0.00081951669
0.005420526
-0.0004991076
0.0054488349
-0.00017354923
0.0054246651
0.00015404266
0.0053481663
0.00048050478
0.0052200034
0.00080266017
0.0050413537
0.0011173546
0.0048138982
0.001421495
0.0045398047
0.0017120861
0.004221705
0.0019862659
0.0038626665
0.0022413362
0.0034661598
0.0024747907
0.0030360229
0.0026843384
0.0025764227
0.002867925
0.0020918145
0.0030237511
0.0015868979
0.003150289
0.0010665723
0.0032462968
0.00053588854
0.0033108315
0.0033432584
-0.00056817011
0.0039114286
-0.0011308182
0.0038734796
-0.0016824772
0.0037979558
-0.0022177891
0.0036856009
-0.0027315575
0.0035375195
-0.0032187974
0.0033551649
-0.0036747831
0.0031403242
-0.0040950935
0.002895101
-0.0044756548
0.0026218976
-0.0048127821
0.0023233932
-0.0051032177
0.0020025217
-0.005344167
0.0016624443
-0.0055333305
0.0013065182
-0.00566893
0.00093825962
-0.0057497271
0.00056130191
-0.0057750337
0.00017934926
-0.0057447123
-0.00020387068
-0.0056591677
-0.00058465224
-0.0055193314
-0.0009593529
-0.0053266415
-0.0013244272
-0.0050830185
-0.0016764538
-0.0047908425
-0.0020121569
-0.0044529284
-0.0023284236
-0.0040725027
-0.0026223198
-0.0036531794
-0.0028911074
-0.0031989337
-0.0031322629
-0.0027140736
-0.0033434996
-0.0022032063
-0.0035227909
-0.0016712004
-0.0036683963
-0.0011231417
-0.0037788865
-0.000564285
-0.0038531661
-2.384608e-15
-0.0038904932
0.000564285
-0.0038904932
0.0011231417
-0.0038531661
0.0016712004
-0.0037788865
0.0022032063
-0.0036683963
0.0027140736
-0.0035227909
0.0031989337
-0.0033434996
0.0036531794
-0.0031322629
0.0040725027
-0.0028911074
0.0044529284
-0.0026223198
0.0047908425
-0.0023284236
0.0050830185
-0.0020121569
0.0053266415
-0.0016764538
0.0055193314
-0.0013244272
0.0056591677
-0.0009593529
0.0057447123
-0.00058465224
0.0057750337
-0.00020387068
0.0057497271
0.00017934927
0.00566893
0.00056130191
0.0055333305
0.00093825962
0.005344167
0.0013065182
0.0051032177
0.0016624443
0.0048127821
0.0020025217
0.0044756548
0.0023233932
0.0040950935
0.0026218976
0.0036747831
0.002895101
0.0032187974
0.0031403242
0.0027315575
0.0033551649
0.0022177891
0.0035375195
0.0016824772
0.0036856009
0.0011308182
0.0037979558
0.00056817011
0.0038734796
0.0039114286
-0.00060594103
0.0045173696
-0.0012059883
0.0044735269
-0.0017943076
0.0043862751
-0.0023651819
0.0042564752
-0.0029130675
0.0040854052
-0.0034326469
0.0038747443
-0.0039188783
0.0036265556
-0.0043670433
0.003343266
-0.0047727917
0.003027646
-0.0051321857
0.0026827871
-0.0054417416
0.0023120776
-0.0056984711
0.0019191738
-0.0058999174
0.0015079645
-0.0060441866
0.0010825288
-0.0061299698
0.00064708511
-0.0061565543
0.00020593382
-0.0061238227
-0.00023660227
-0.00603224
-0.00067623497
-0.005882832
-0.0011087609
-0.0056771583
-0.0015301009
-0.0054172837
-0.0019363283
-0.0051057507
-0.00232369
-0.0047455536
-0.0026886207
-0.0043401162
-0.0030277573
-0.0038932684
-0.0033379552
-0.0034092232
-0.0036163081
-0.0028925499
-0.0038601729
-0.0023481414
-0.0040671994
-0.0017811762
-0.0042353615
-0.0011970726
-0.0043629902
-0.00060143591
-0.0044488028
1.2292116e-15
-0.0044919291
0.00060143591
-0.0044919291
0.0011970726
-0.0044488028
0.0017811762
-0.0043629902
0.0023481414
-0.0042353615
0.0028925499
-0.0040671994
0.0034092232
-0.0038601729
0.0038932684
-0.0036163081
0.0043401162
-0.0033379552
0.0047455536
-0.0030277573
0.0051057507
-0.0026886207
0.0054172837
-0.00232369
0.0056771583
-0.0019363283
0.005882832
-0.0015301009
0.00603224
-0.0011087609
0.0061238227
-0.00067623497
0.0061565543
-0.00023660227
0.0061299698
0.00020593382
0.0060441866
0.00064708511
0.0058999174
0.0010825288
0.0056984711
0.0015079645
0.0054417416
0.0019191738
0.0051321857
0.0023120776
0.0047727917
0.0026827871
0.0043670433
0.003027646
0.0039188783
0.003343266
0.0034326469
0.0036265556
0.0029130675
0.0038747443
0.0023651819
0.0040854052
0.0017943076
0.0042564752
0.0012059883
0.0043862751
0.00060594103
0.0044735269
0.0045173696
-0.00064957416
0.0051669437
-0.0012928243
0.0051167771
-0.0019234913
0.0050169421
-0.002535444
0.0048684279
-0.0031227387
0.0046726999
-0.0036796752
0.0044316808
-0.0042008483
0.0041477288
-0.004681197
0.0038236146
-0.0051160506
0.0034624996
-0.0055011762
0.0030679127
-0.0058328246
0.0026437261
-0.0061077776
0.0021941267
-0.0063233912
0.0017235781
-0.0064776345
0.0012367721
-0.0065691172
0.0007385678
-0.0065971029
0.00023391953
-0.0065615057
-0.00027219945
-0.0064628709
-0.00077486973
-0.0063023441
-0.0012692877
-0.0060816343
-0.0017508107
-0.0058029774
-0.0022149853
-0.0054691037
-0.0026575637
-0.0050832111
-0.0030745133
-0.0046489434
-0.0034620249
-0.0041703717
-0.0038165269
-0.0036519745
-0.0041347053
-0.0030986146
-0.0044135328
-0.0025155099
-0.0046503041
-0.0019081943
-0.0048426771
-0.0012824705
-0.0049887139
-0.00064435246
-0.0050869209
3.7452554e-16
-0.0051362816
0.00064435246
-0.0051362816
0.0012824705
-0.0050869209
0.0019081943
-0.0049887139
0.0025155099
-0.0048426771
0.0030986146
-0.0046503041
0.0036519745
-0.0044135328
0.0041703717
-0.0041347053
0.0046489434
-0.0038165269
0.0050832111
-0.0034620249
0.0054691037
-0.0030745133
0.0058029774
-0.0026575637
0.0060816343
-0.0022149853
0.0063023441
-0.0017508107
0.0064628709
-0.0012692877
0.0065615057
-0.00077486973
0.0065971029
-0.00027219945
0.0065691172
0.00023391953
0.0064776345
0.0007385678
0.0063233912
0.0012367721
0.0061077776
0.0017235781
0.0058328246
0.0021941267
0.0055011762
0.0026437261
0.0051160506
0.0030679127
0.004681197
0.0034624996
0.0042008483
0.0038236146
0.0036796752
0.0041477288
0.0031227387
0.0044316808
0.002535444
0.0046726999
0.0019234913
0.0048684279
0.0012928243
0.0050169421
0.00064957416
0.0051167771
0.0051669437
-0.00069949805
0.0058664418
-0.0013921779
0.005809457
-0.0020712936
0.0056960577
-0.0027302401
0.0055273744
-0.0033626184
0.0053050781
-0.0039622934
0.0050313559
-0.0045234475
0.0047088828
-0.005040629
0.0043407961
-0.0055088003
0.0039306709
-0.0059233865
0.0034824989
-0.0062803275
0.0030006671
-0.0065761322
0.0024899313
-0.0068079331
0.001955379
-0.006973536
0.0014023751
-0.0070714568
0.00083648855
-0.0071009382
0.00026340094
-0.0070619435
-0.00031119412
-0.0069551269
-0.00088168633
-0.0067817879
-0.0014426267
-0.0065438199
-0.0019887787
-0.0062436618
-0.0025151434
-0.0058842587
-0.0030169668
-0.0054690349
-0.0034897371
-0.005001875
-0.0039291849
-0.0044871116
-0.0043312902
-0.0039295135
-0.0046923035
-0.0033342681
-0.0050087782
-0.0027069564
-0.0052776157
-0.002053516
-0.0054961175
-0.0013801905
-0.0056620395
-0.0006934665
-0.0057736448
2.1657601e-15
-0.0058297481
0.0006934665
-0.0058297481
0.0013801905
-0.0057736448
0.002053516
-0.0056620395
0.0027069564
-0.0054961175
0.0033342681
-0.0052776157
0.0039295135
-0.0050087782
0.0044871116
-0.0046923035
0.005001875
-0.0043312902
0.0054690349
-0.0039291849
0.0058842587
-0.0034897371
0.0062436618
-0.0030169668
0.0065438199
-0.0025151434
0.0067817879
-0.0019887787
0.0069551269
-0.0014426267
0.0070619435
-0.00088168633
0.0071009382
-0.00031119412
0.0070714568
0.00026340094
0.006973536
0.00083648855
0.0068079331
0.0014023751
0.0065761322
0.001955379
0.0062803275
0.0024899313
0.0059233865
0.0030006671
0.0055088003
0.0034824989
0.005040629
0.0039306709
0.0045234475
0.0043407961
0.0039622934
0.0047088828
0.0033626184
0.0050313559
0.0027302401
0.0053050781
0.0020712936
0.0055273744
0.0013921779
0.0056960577
0.00069949805
0.005809457
0.0058664418
-0.00075620334
0.0066226451
-0.0015050238
0.0065582774
-0.0022391602
0.0064301941
-0.0029514703
0.0062396845
-0.003635041
0.0059886488
-0.0042832489
0.0056795638
-0.0048898133
0.0053154473
-0.0054488436
0.0048998264
-0.0059548852
0.0044367125
-0.0064029697
0.0039305835
-0.0067886721
0.0033863696
-0.0071081763
0.0028094355
-0.0073583447
0.0022055473
-0.0075367857
0.0015808161
-0.0076419056
0.00094160842
-0.0076729325
0.00029442789
-0.0076299057
-0.00035422098
-0.0075136294
-0.00099796255
-0.0073256052
-0.001630651
-0.0070679564
-0.0022464275
-0.0067433629
-0.0028397369
-0.0063550137
-0.003405316
-0.0059065788
-0.003938172
-0.0054021987
-0.0044335649
-0.0048464826
-0.0048870063
-0.0042445079
-0.0052942783
-0.0036018135
-0.0056514726
-0.0029243818
-0.0059550474
-0.0022186037
-0.0062018956
-0.0014912258
-0.0063894174
-0.0007492805
-0.0065155901
1.1476796e-14
-0.0065790286
0.00074928051
-0.0065790286
0.0014912258
-0.0065155901
0.0022186037
-0.0063894174
0.0029243818
-0.0062018956
0.0036018135
-0.0059550474
0.0042445079
-0.0056514726
0.0048464826
-0.0052942783
0.0054021987
-0.0048870063
0.0059065788
-0.0044335649
0.0063550137
-0.003938172
0.0067433629
-0.003405316
0.0070679564
-0.0028397369
0.0073256052
-0.0022464275
0.0075136294
-0.001630651
0.0076299057
-0.00099796255
0.0076729325
-0.00035422098
0.0076419056
0.00029442789
0.0075367857
0.00094160842
0.0073583447
0.0015808161
0.0071081763
0.0022055473
0.0067886721
0.0028094355
0.0064029697
0.0033863696
0.0059548852
0.0039305835
0.0054488436
0.0044367125
0.0048898133
0.0048998264
0.0042832489
0.0053154473
0.003635041
0.0056795638
0.0029514703
0.0059886488
0.0022391602
0.0062396845
0.0015050238
0.0064301941
0.00075620334
0.0065582774
0.0066226451
-0.00082024958
0.0074428947
-0.0016324721
0.0073705
-0.0024287356
0.0072264576
-0.0032012916
0.0070122404
-0.0039426516
0.0067300089
-0.0046456502
0.0063825624
-0.0053034946
0.0059732916
-0.0059098064
0.0055061382
-0.0064586626
0.0049855687
-0.0069446437
0.0044165645
-0.0073628958
0.0038046218
-0.0077092107
0.0031557503
-0.0079801185
0.0024764552
-0.0081729834
0.001773681
-0.0082860805
0.0010547055
-0.0083186337
0.00032698116
-0.0082707992
-0.00040205553
-0.0081435934
-0.0011251684
-0.0079387878
-0.0018354566
-0.0076587978
-0.0025264175
-0.0073065911
-0.0031919436
-0.0068856289
-0.0038262782
-0.0063998419
-0.004423959
-0.0058536317
-0.0049797751
-0.0052518878
-0.0054887503
-0.0046000056
-0.0059461605
-0.0039038963
-0.0063475818
-0.0031699792
-0.0066889646
-0.0024051509
-0.0069667239
-0.0016167304
-0.0071778379
-0.00081237909
-0.0073199414
2.0282478e-14
-0.0073914077
0.00081237909
-0.0073914077
0.0016167304
-0.0073199414
0.0024051509
-0.0071778379
0.0031699792
-0.0069667239
0.0039038963
-0.0066889646
0.0046000056
-0.0063475818
0.0052518878
-0.0059461605
0.0058536317
-0.0054887503
0.0063998419
-0.0049797751
0.0068856289
-0.004423959
0.0073065911
-0.0038262782
0.0076587978
-0.0031919436
0.0079387878
-0.0025264175
0.0081435934
-0.0018354566
0.0082707992
-0.0011251684
0.0083186337
-0.00040205553
0.0082860805
0.00032698116
0.0081729834
0.0010547055
0.0079801185
0.001773681
0.0077092107
0.0024764552
0.0073628958
0.0031557503
0.0069446437
0.0038046218
0.0064586626
0.0044165645
0.0059098064
0.0049855687
0.0053034946
0.0055061382
0.0046456502
0.0059732916
0.0039426516
0.0063825624
0.0032012916
0.0067300089
0.0024287356
0.0070122404
0.0016324721
0.0072264576
0.00082024958
0.0073705
0.0074428947
-0.0008922737
0.0083351684
-0.0017757845
0.0082540107
-0.0026418838
0.0080925569
-0.0034821414
0.0078524981
-0.0042884309
0.0075362983
-0.0050529925
0.007147124
-0.0057684765
0.0066887756
-0.0064279723
0.0061656339
-0.0070250371
0.0055826335
-0.0075537364
0.0049452638
-0.0080087095
0.0042595949
-0.0083852677
0.0035323086
-0.008679522
0.0027707094
-0.0088885229
0.0019826819
-0.0090103824
0.0011765649
-0.0090443368
0.00036093554
-0.0089907222
-0.00045567007
-0.0088508616
-0.001265029
-0.0086268974
-0.0020594207
-0.0083216227
-0.0028316922
-0.0079383505
-0.0035752157
-0.0074808423
-0.0042837864
-0.0069532922
-0.0049515091
-0.0063603525
-0.0055727149
-0.0057071795
-0.0061419233
-0.0049994816
-0.0066538584
-0.0042435526
-0.0071035108
-0.00344628
-0.0074862371
-0.0026151216
-0.0077978824
-0.0017580466
-0.0080349128
-0.0008834439
-0.0081945441
1.0947419e-14
-0.0082748516
0.0008834439
-0.0082748516
0.0017580466
-0.0081945441
0.0026151216
-0.0080349128
0.00344628
-0.0077978824
0.0042435526
-0.0074862371
0.0049994816
-0.0071035108
0.0057071795
-0.0066538584
0.0063603525
-0.0061419233
0.0069532922
-0.0055727149
0.0074808423
-0.0049515091
0.0079383505
-0.0042837864
0.0083216227
-0.0035752157
0.0086268974
-0.0028316922
0.0088508616
-0.0020594207
0.0089907222
-0.001265029
0.0090443368
-0.00045567007
0.0090103824
0.00036093554
0.0088885229
0.0011765649
0.008679522
0.0019826819
0.0083852677
0.0027707094
0.0080087095
0.0035323086
0.0075537364
0.0042595949
0.0070250371
0.0049452638
0.0064279723
0.0055826335
0.0057684765
0.0061656339
0.0050529925
0.0066887756
0.0042884309
0.007147124
0.0034821414
0.0075362983
0.0026418838
0.0078524981
0.0017757845
0.0080925569
0.0008922737
0.0082540107
0.0083351684
-0.00097300123
0.0093081696
-0.0019363945
0.009217404
-0.0028807148
0.0090368772
-0.0037967669
0.0087685502
-0.0046757225
0.0084152539
-0.0055091818
0.0079805833
-0.0062892029
0.0074687967
-0.0070083087
0.0068847397
-0.0076594902
0.006233815
-0.0082362291
0.0055220028
-0.0087325612
0.004755927
-0.0091431972
0.0039429445
-0.0094637011
0.0030912134
-0.0096907045
0.0022096853
-0.0098221036
0.001307964
-0.009857171
0.00039600296
-0.0097965228
-0.00051631822
-0.0096419351
-0.0014196167
-0.0093960739
-0.002305282
-0.0090622311
-0.003165535
-0.0086441372
-0.0039933096
-0.0081458754
-0.0047820482
-0.0075718867
-0.0055254978
-0.0069270368
-0.0062175648
-0.0062167091
-0.006852251
-0.0054468968
-0.0074236707
-0.0046242714
-0.0079261362
-0.0037562141
-0.0083542944
-0.0028508014
-0.008703295
-0.0019167433
-0.008968971
-0.00096327339
-0.009148014
-1.1146401e-14
-0.009238125
0.00096327339
-0.009238125
0.0019167433
-0.009148014
0.0028508014
-0.008968971
0.0037562141
-0.008703295
0.0046242714
-0.0083542944
0.0054468968
-0.0079261362
0.0062167091
-0.0074236707
0.0069270368
-0.006852251
0.0075718867
-0.0062175648
0.0081458754
-0.0055254978
0.0086441372
-0.0047820482
0.0090622311
-0.0039933096
0.0093960739
-0.003165535
0.0096419351
-0.002305282
0.0097965228
-0.0014196167
0.009857171
-0.00051631822
0.0098221036
0.00039600296
0.0096907045
0.001307964
0.0094637011
0.0022096853
0.0091431972
0.0030912134
0.0087325612
0.0039429445
0.0082362291
0.004755927
0.0076594902
0.0055220028
0.0070083087
0.006233815
0.0062892029
0.0068847397
0.0055091818
0.0074687967
0.0046757225
0.0079805833
0.0037967669
0.0084152539
0.0028807148
0.0087685502
0.0019363945
0.0090368772
0.00097300124
0.009217404
0.0093081696
-0.0010632622
0.010371432
-0.0021159363
0.010270078
-0.0031476209
0.010068562
-0.0041482615
0.0097691909
-0.0051082653
0.0093752577
-0.0060185588
0.0088908768
-0.0068705926
0.0083208304
-0.007656309
0.0076704562
-0.0083681008
0.0069456068
-0.0089987952
0.0061526972
-0.009541704
0.0052988358
-0.0099907691
0.0043920096
-0.010340816
0.0034412602
-0.010587886
0.0024567558
-0.010729571
0.0014496484
-0.010765212
0.00043164413
-0.010695865
-0.00058566512
-0.010523994
-0.0015914881
-0.010253022
-0.0025762533
-0.0098869175
-0.0035316399
-0.0094299151
-0.004450312
-0.0088864267
-0.0053255366
-0.0082610886
-0.0061508358
-0.0075588997
-0.0069197537
-0.0067853894
-0.0076257613
-0.0059467746
-0.0082622855
-0.0050500778
-0.008822833
-0.0041031895
-0.0093011828
-0.0031148668
-0.0096916177
-0.0020946658
-0.009989172
-0.0010528094
-0.01018987
-2.3500087e-14
-0.010290934
0.0010528094
-0.010290934
0.0020946658
-0.01018987
0.0031148668
-0.009989172
0.0041031895
-0.0096916177
0.0050500778
-0.0093011828
0.0059467746
-0.008822833
0.0067853894
-0.0082622855
0.0075588997
-0.0076257613
0.0082610886
-0.0069197537
0.0088864267
-0.0061508358
0.0094299151
-0.0053255366
0.0098869175
-0.004450312
0.010253022
-0.0035316399
0.010523994
-0.0025762533
0.010695865
-0.0015914881
0.010765212
-0.00058566512
0.010729571
0.00043164413
0.010587886
0.0014496484
0.010340816
0.0024567558
0.0099907691
0.0034412602
0.009541704
0.0043920096
0.0089987952
0.0052988358
0.0083681008
0.0061526972
0.007656309
0.0069456068
0.0068705926
0.0076704562
0.0060185588
0.0083208304
0.0051082653
0.0088908768
0.0041482615
0.0093752577
0.0031476209
0.0097691909
0.0021159363
0.010068562
0.0010632622
0.010270078
0.010371432
-0.0011640144
0.011535446
-0.0023162864
0.01142235
-0.0034453274
0.011197603
-0.004540115
0.010863978
-0.0055902329
0.010425376
-0.0065859219
0.0098865657
-0.0075180445
0.009252953
-0.0083779878
0.0085303995
-0.0091575437
0.0077251627
-0.0098488224
0.006843976
-0.010444263
0.005894276
-0.010936798
0.004884545
-0.011320218
0.0038246798
-0.011589692
0.0027262303
-0.011742343
0.0016022994
-0.011777628
0.00046692939
-0.011697301
-0.00066599211
-0.011504896
-0.0017838936
-0.011204965
-0.0028761846
-0.010802404
-0.0039342008
-0.01030206
-0.0049506558
-0.0097086453
-0.0059189512
-0.009026879
-0.0068326021
-0.0082617449
-0.0076848878
-0.0074187758
-0.0084687304
-0.0065043037
-0.0091767575
-0.0055256445
-0.0098014922
-0.0044912012
-0.010335626
-0.003410478
-0.010772341
-0.0022940048
-0.011105645
-0.0011531736
-0.011330702
-2.0203943e-14
-0.011444108
0.0011531736
-0.011444108
0.0022940048
-0.011330702
0.003410478
-0.011105645
0.0044912012
-0.010772341
0.0055256445
-0.010335626
0.0065043037
-0.0098014922
0.0074187758
-0.0091767575
0.0082617449
-0.0084687304
0.009026879
-0.0076848878
0.0097086453
-0.0068326021
0.01030206
-0.0059189512
0.010802404
-0.0049506558
0.011204965
-0.0039342008
0.011504896
-0.0028761846
0.011697301
-0.0017838936
0.011777628
-0.00066599211
0.011742343
0.00046692939
0.011589692
0.0016022994
0.011320218
0.0027262303
0.010936798
0.0038246798
0.010444263
0.004884545
0.0098488224
0.005894276
0.0091575437
0.006843976
0.0083779878