/*--------------------------------*- C++ -*----------------------------------*\
| =========                 |                                                 |
| \\      /  F ield         | OpenFOAM: The Open Source CFD Toolbox           |
|  \\    /   O peration     | Version:  2106                                  |
|   \\  /    A nd           | Website:  www.openfoam.com                      |
|    \\/     M anipulation  |                                                 |
\*---------------------------------------------------------------------------*/
FoamFile
{
    version     2.0;
    format      ascii;
    arch        "LSB;label=32;scalar=64";
    class       surfaceScalarField;
    location    "0.115";
    object      phi;
}
// * * * * * * * * * * * * * * * * * * * * * * * * * * * * * * * * * * * * * //

dimensions      [0 3 -1 0 0 0 0];

oriented        oriented;

internalField   nonuniform List<scalar> 
65152
(
2.8179348e-08
-2.8179348e-08
6.4926769e-08
-3.6747422e-08
1.0347341e-07
-3.8546636e-08
1.4262565e-07
-3.9152245e-08
1.8195743e-07
-3.933178e-08
2.213748e-07
-3.9417367e-08
2.6088667e-07
-3.9511876e-08
3.005211e-07
-3.9634424e-08
3.4032342e-07
-3.9802324e-08
3.8034083e-07
-4.0017407e-08
4.2058394e-07
-4.0243111e-08
4.6105221e-07
-4.046827e-08
5.0174922e-07
-4.0697014e-08
5.4268569e-07
-4.0936467e-08
5.8387664e-07
-4.1190954e-08
6.2533922e-07
-4.146258e-08
6.6709184e-07
-4.1752621e-08
7.0915382e-07
-4.2061974e-08
7.515452e-07
-4.2391377e-08
7.9428652e-07
-4.2741322e-08
8.3739906e-07
-4.3112545e-08
8.8090372e-07
-4.3504653e-08
9.2482395e-07
-4.3920233e-08
9.6917748e-07
-4.4353529e-08
1.0139975e-06
-4.4820039e-08
1.0592812e-06
-4.5283711e-08
1.105105e-06
-4.5823735e-08
1.1513867e-06
-4.6281776e-08
1.198327e-06
-4.6940272e-08
1.2456955e-06
-4.7368488e-08
1.2937631e-06
-4.8067631e-08
1.3425668e-06
-4.8803651e-08
1.3913117e-06
-4.8744929e-08
1.4424794e-06
-5.1167714e-08
1.491091e-06
-4.8611568e-08
1.5450538e-06
-5.3962847e-08
1.594528e-06
-4.9474114e-08
1.6488786e-06
-5.4350675e-08
1.7026614e-06
-5.3782755e-08
1.7552012e-06
-5.2539823e-08
1.8123786e-06
-5.7177353e-08
1.8676268e-06
-5.5248216e-08
1.9234036e-06
-5.5776852e-08
1.9825373e-06
-5.9133669e-08
2.0405964e-06
-5.8059131e-08
2.0990782e-06
-5.8481779e-08
2.1603187e-06
-6.1240531e-08
2.2211199e-06
-6.0801209e-08
2.2829825e-06
-6.1862505e-08
2.3461953e-06
-6.3212875e-08
2.4096056e-06
-6.3410321e-08
2.4743771e-06
-6.4771452e-08
2.5405901e-06
-6.6213041e-08
2.6070475e-06
-6.6457363e-08
2.6737045e-06
-6.6657022e-08
2.7423235e-06
-6.8619021e-08
2.8124084e-06
-7.0084812e-08
2.8824092e-06
-7.0000837e-08
2.9531688e-06
-7.0759647e-08
3.0251346e-06
-7.1965782e-08
3.0978804e-06
-7.2745779e-08
3.1717869e-06
-7.3906522e-08
3.2470306e-06
-7.5243726e-08
3.3227163e-06
-7.5685624e-08
3.398503e-06
-7.5786767e-08
3.4752512e-06
-7.67482e-08
3.5533951e-06
-7.8143869e-08
3.6326013e-06
-7.9206164e-08
3.7125309e-06
-7.9929612e-08
3.7928431e-06
-8.0312258e-08
3.8738079e-06
-8.0964759e-08
3.9555884e-06
-8.1780494e-08
4.0380601e-06
-8.2471754e-08
4.1213018e-06
-8.3241614e-08
4.2052354e-06
-8.3933643e-08
4.2899135e-06
-8.4678106e-08
4.3752263e-06
-8.5312793e-08
4.4612044e-06
-8.597807e-08
4.5479452e-06
-8.674079e-08
4.6351913e-06
-8.7246109e-08
4.722511e-06
-8.7319743e-08
4.8099846e-06
-8.7473554e-08
4.8977462e-06
-8.7761635e-08
4.985997e-06
-8.8250785e-08
5.0750499e-06
-8.9052932e-08
5.1647865e-06
-8.9736622e-08
5.2547492e-06
-8.9962615e-08
5.3446871e-06
-8.9937968e-08
5.4343172e-06
-8.9630111e-08
5.5232472e-06
-8.8929953e-08
5.6123736e-06
-8.9126378e-08
5.7023231e-06
-8.9949546e-08
5.7924054e-06
-9.0082255e-08
5.8830069e-06
-9.060148e-08
5.972678e-06
-8.9671128e-08
6.0606605e-06
-8.7982538e-08
6.1478159e-06
-8.7155394e-08
6.2343394e-06
-8.6523472e-08
6.3209123e-06
-8.657294e-08
6.4086392e-06
-8.7726922e-08
6.497413e-06
-8.8773753e-08
6.5862934e-06
-8.8880422e-08
6.6745408e-06
-8.8247339e-08
6.7610315e-06
-8.6490716e-08
6.8452833e-06
-8.425183e-08
6.9272112e-06
-8.1927876e-08
7.0072062e-06
-7.9994971e-08
7.0858797e-06
-7.8673522e-08
7.1641978e-06
-7.8318159e-08
7.2426957e-06
-7.8497905e-08
7.32227e-06
-7.957426e-08
7.4031238e-06
-8.0853788e-08
7.484372e-06
-8.1248231e-08
7.5638927e-06
-7.9520711e-08
7.6406357e-06
-7.6742956e-08
7.7140992e-06
-7.3463559e-08
7.7850848e-06
-7.0985562e-08
7.8554993e-06
-7.0414448e-08
7.9268437e-06
-7.1344422e-08
7.9985908e-06
-7.1747088e-08
8.0688242e-06
-7.0233387e-08
8.1353057e-06
-6.6481515e-08
8.1966129e-06
-6.1307268e-08
8.2529986e-06
-5.6385698e-08
8.3061753e-06
-5.3176644e-08
8.3584004e-06
-5.2225133e-08
8.4120851e-06
-5.3684694e-08
8.4694035e-06
-5.7318391e-08
8.53178e-06
-6.237652e-08
8.597855e-06
-6.6075001e-08
8.6610583e-06
-6.3203262e-08
8.712913e-06
-5.1854676e-08
8.7504875e-06
-3.7574552e-08
8.776669e-06
-2.6181484e-08
8.7959126e-06
-1.9243637e-08
8.812373e-06
-1.6460399e-08
8.8300477e-06
-1.7674636e-08
8.8513779e-06
-2.1330225e-08
8.8736338e-06
-2.2255934e-08
8.8923997e-06
-1.8765891e-08
8.904999e-06
-1.2599274e-08
8.911335e-06
-6.3360485e-09
8.9140608e-06
-2.7258137e-09
8.9157552e-06
-1.6943637e-09
8.9212534e-06
-5.4982317e-09
8.9329595e-06
-1.1706071e-08
8.949847e-06
-1.6887459e-08
8.9713277e-06
-2.1480735e-08
8.9968944e-06
-2.5566645e-08
9.0269415e-06
-3.0047155e-08
9.0672071e-06
-4.0265625e-08
9.120758e-06
-5.3550853e-08
9.1883843e-06
-6.7626267e-08
9.265332e-06
-7.6947703e-08
9.3436299e-06
-7.8297933e-08
9.4164234e-06
-7.2793494e-08
9.481102e-06
-6.4678647e-08
9.5411404e-06
-6.0038334e-08
9.6064694e-06
-6.5329046e-08
9.6877e-06
-8.123056e-08
9.7897524e-06
-1.0205247e-07
9.9153698e-06
-1.256174e-07
1.0055105e-05
-1.397355e-07
1.0204046e-05
-1.4894049e-07
1.0371809e-05
-1.6776309e-07
1.0560613e-05
-1.88804e-07
1.0736762e-05
-1.7614954e-07
1.0828982e-05
-9.2219647e-08
1.0760595e-05
6.838733e-08
9.297908e-06
1.4626868e-06
7.3102222e-06
1.9876858e-06
5.3960663e-06
1.9141559e-06
4.0200728e-06
1.3759935e-06
3.1882535e-06
8.318193e-07
2.6527041e-06
5.3554941e-07
2.2802624e-06
3.7244169e-07
2.0043322e-06
2.7593026e-07
1.7891045e-06
2.152276e-07
1.614971e-06
1.7413356e-07
1.4703054e-06
1.4466564e-07
1.3476977e-06
1.2260763e-07
1.2421552e-06
1.0554254e-07
1.1501612e-06
9.1993974e-08
1.0691503e-06
8.101091e-08
9.9719021e-07
7.1960094e-08
9.3282955e-07
6.4360657e-08
8.7477697e-07
5.8052587e-08
8.2231018e-07
5.2466787e-08
7.7462266e-07
4.7687518e-08
7.3099607e-07
4.3626598e-08
6.9094689e-07
4.0049175e-08
6.5406718e-07
3.6879713e-08
6.2000143e-07
3.4065744e-08
5.8844186e-07
3.1559577e-08
5.5912363e-07
2.9318226e-08
5.3181864e-07
2.7304991e-08
5.0633015e-07
2.5488496e-08
4.8247919e-07
2.3850951e-08
4.601162e-07
2.2362993e-08
4.3911139e-07
2.1004808e-08
4.1934573e-07
1.9765664e-08
4.0071272e-07
1.8633012e-08
3.830943e-07
1.7618415e-08
3.6649249e-07
1.660181e-08
3.507591e-07
1.5733393e-08
3.3581331e-07
1.4945788e-08
3.2161281e-07
1.4200508e-08
3.081086e-07
1.3504204e-08
2.9525122e-07
1.2857378e-08
2.8299461e-07
1.2256613e-08
2.712966e-07
1.1698012e-08
2.6011961e-07
1.1176986e-08
2.4943691e-07
1.0682705e-08
2.3917606e-07
1.0260854e-08
2.2935719e-07
9.8188658e-09
2.1990548e-07
9.4517073e-09
2.1083627e-07
9.0692152e-09
2.0211776e-07
8.7185092e-09
1.9371111e-07
8.4066481e-09
1.8570989e-07
8.0012124e-09
1.7792102e-07
7.7888739e-09
1.7033211e-07
7.5889098e-09
1.6306344e-07
7.2686684e-09
1.5602818e-07
7.0352572e-09
1.4921042e-07
6.8177622e-09
1.4260027e-07
6.6101467e-09
1.3618657e-07
6.4137071e-09
1.2995801e-07
6.22856e-09
1.2390379e-07
6.0542202e-09
1.1801402e-07
5.8897687e-09
1.1227931e-07
5.7347111e-09
1.0667543e-07
5.6038814e-09
1.0121548e-07
5.4599509e-09
9.5884793e-08
5.330683e-09
9.067197e-08
5.2128225e-09
8.5569019e-08
5.1029511e-09
8.0569854e-08
4.9991663e-09
7.5679225e-08
4.8906293e-09
7.0870924e-08
4.808302e-09
6.614568e-08
4.7252439e-09
6.1500727e-08
4.6449525e-09
5.6898702e-08
4.6020251e-09
5.2390091e-08
4.5086118e-09
4.7940787e-08
4.4493038e-09
4.3543618e-08
4.3971699e-09
3.9195852e-08
4.3477658e-09
3.4889142e-08
4.3067101e-09
3.0635122e-08
4.2540202e-09
2.6401531e-08
4.2335893e-09
2.2201843e-08
4.1996874e-09
1.8026577e-08
4.175265e-09
1.3872095e-08
4.1544816e-09
9.7837119e-09
4.0883822e-09
5.8378207e-09
3.9458907e-09
2.3015712e-09
3.5362487e-09
2.3015701e-09
3.0394407e-08
-5.8573755e-08
7.2373453e-08
-7.8726467e-08
1.1642955e-07
-8.2602736e-08
1.6080352e-07
-8.3526214e-08
2.0530207e-07
-8.3830331e-08
2.4989211e-07
-8.4007407e-08
2.945684e-07
-8.4188157e-08
3.3933836e-07
-8.4404386e-08
3.8419813e-07
-8.4662093e-08
4.2911812e-07
-8.4937404e-08
4.7410514e-07
-8.5230129e-08
5.1920698e-07
-8.5570109e-08
5.6446257e-07
-8.5952605e-08
6.0990237e-07
-8.637627e-08
6.5555341e-07
-8.6841991e-08
7.0144125e-07
-8.7350423e-08
7.4759056e-07
-8.790193e-08
7.9402528e-07
-8.8496689e-08
8.407688e-07
-8.9134897e-08
8.8784417e-07
-8.9816692e-08
9.3527408e-07
-9.054246e-08
9.8308132e-07
-9.1311892e-08
1.0312879e-06
-9.2126844e-08
1.0799176e-06
-9.2983221e-08
1.1289898e-06
-9.3892237e-08
1.178534e-06
-9.4827906e-08
1.2285569e-06
-9.5846586e-08
1.2791142e-06
-9.6839081e-08
1.3301587e-06
-9.7984791e-08
1.381852e-06
-9.9061754e-08
1.4339384e-06
-1.0015405e-07
1.4869878e-06
-1.0185307e-07
1.5399464e-06
-1.0170354e-07
1.5949207e-06
-1.0614198e-07
1.6481305e-06
-1.018214e-07
1.7059091e-06
-1.117414e-07
1.7591498e-06
-1.0271482e-07
1.8186901e-06
-1.1389095e-07
1.8749968e-06
-1.1008945e-07
1.932493e-06
-1.100361e-07
1.9939092e-06
-1.1859349e-07
2.0523364e-06
-1.1367548e-07
2.112244e-06
-1.1568439e-07
2.175731e-06
-1.2262071e-07
2.2378886e-06
-1.2021676e-07
2.2992461e-06
-1.1983928e-07
2.3644677e-06
-1.2646211e-07
2.4304095e-06
-1.2674303e-07
2.4956939e-06
-1.2714689e-07
2.56101e-06
-1.2852892e-07
2.6292523e-06
-1.3165266e-07
2.6989683e-06
-1.3448741e-07
2.7682063e-06
-1.3545112e-07
2.8376392e-06
-1.3589019e-07
2.9079519e-06
-1.3696979e-07
2.9807676e-06
-1.4143467e-07
3.0553845e-06
-1.447017e-07
3.1290651e-06
-1.4368143e-07
3.2022936e-06
-1.4398816e-07
3.2775383e-06
-1.472105e-07
3.3547988e-06
-1.5000633e-07
3.4329984e-06
-1.5210604e-07
3.5120961e-06
-1.5434149e-07
3.5911437e-06
-1.5473317e-07
3.6698816e-06
-1.5452464e-07
3.7500105e-06
-1.5687715e-07
3.8324414e-06
-1.6057478e-07
3.9161687e-06
-1.6293347e-07
4.000077e-06
-1.6383791e-07
4.0838475e-06
-1.6408277e-07
4.1684757e-06
-1.6559292e-07
4.2540085e-06
-1.6731328e-07
4.3402611e-06
-1.6872435e-07
4.4275303e-06
-1.7051085e-07
4.5153471e-06
-1.7175038e-07
4.6039283e-06
-1.732593e-07
4.6933135e-06
-1.7469808e-07
4.78367e-06
-1.763345e-07
4.8747003e-06
-1.777711e-07
4.9658746e-06
-1.7842043e-07
5.0567099e-06
-1.78155e-07
5.1479878e-06
-1.7875145e-07
5.2397063e-06
-1.7948014e-07
5.3320783e-06
-1.8062282e-07
5.4258513e-06
-1.8282598e-07
5.5208559e-06
-1.8474113e-07
5.615769e-06
-1.8487577e-07
5.7099681e-06
-1.841371e-07
5.803681e-06
-1.8334297e-07
5.8962781e-06
-1.8152703e-07
5.9898378e-06
-1.826861e-07
6.0852688e-06
-1.8538057e-07
6.1813641e-06
-1.8617753e-07
6.2773617e-06
-1.8659909e-07
6.37158e-06
-1.8388941e-07
6.463639e-06
-1.800416e-07
6.5547372e-06
-1.7825354e-07
6.6460217e-06
-1.7780797e-07
6.7385079e-06
-1.790592e-07
6.8330672e-06
-1.8228621e-07
6.9293221e-06
-1.8502865e-07
7.0253695e-06
-1.8492777e-07
7.119492e-06
-1.8236985e-07
7.2113792e-06
-1.7837792e-07
7.3004621e-06
-1.7333474e-07
7.3870287e-06
-1.6849447e-07
7.472256e-06
-1.6522224e-07
7.5567916e-06
-1.632092e-07
7.6412586e-06
-1.6278512e-07
7.7272876e-06
-1.6452692e-07
7.8162925e-06
-1.6857917e-07
7.9078497e-06
-1.72411e-07
7.999467e-06
-1.728655e-07
8.0877387e-06
-1.6779242e-07
8.1708969e-06
-1.5990109e-07
8.2499385e-06
-1.5250519e-07
8.3284203e-06
-1.4946734e-07
8.40998e-06
-1.5197417e-07
8.4957796e-06
-1.5714408e-07
8.583185e-06
-1.591524e-07
8.6677144e-06
-1.5476288e-07
8.7455918e-06
-1.4435883e-07
8.8158609e-06
-1.3157646e-07
8.8804348e-06
-1.2095953e-07
8.9425355e-06
-1.152774e-07
9.0055387e-06
-1.1522834e-07
9.0728313e-06
-1.2097726e-07
9.147411e-06
-1.3189814e-07
9.2302284e-06
-1.4519391e-07
9.3191332e-06
-1.5497977e-07
9.4089353e-06
-1.5300539e-07
9.4914865e-06
-1.3440585e-07
9.5566439e-06
-1.0273192e-07
9.5995738e-06
-6.9111441e-08
9.6249507e-06
-4.4620541e-08
9.6446489e-06
-3.6158579e-08
9.6715142e-06
-4.4539944e-08
9.7142386e-06
-6.4054647e-08
9.7760099e-06
-8.4027177e-08
9.8532644e-06
-9.6020366e-08
9.9372382e-06
-9.6573131e-08
1.0016024e-05
-8.5121633e-08
1.0079855e-05
-6.6557001e-08
1.0126833e-05
-4.8672067e-08
1.0157848e-05
-3.6513213e-08
1.0176059e-05
-2.9917358e-08
1.0185893e-05
-2.6721278e-08
1.0189951e-05
-2.5538459e-08
1.019214e-05
-2.7756206e-08
1.0200296e-05
-3.8203011e-08
1.0224011e-05
-6.3980838e-08
1.0269066e-05
-9.8605686e-08
1.0330575e-05
-1.2913503e-07
1.0397389e-05
-1.4376203e-07
1.0456661e-05
-1.375703e-07
1.0501086e-05
-1.1721763e-07
1.0534713e-05
-9.8306428e-08
1.0572164e-05
-9.7488955e-08
1.0633872e-05
-1.2703744e-07
1.0730857e-05
-1.7821473e-07
1.0852729e-05
-2.2392518e-07
1.0999431e-05
-2.7231894e-07
1.1162293e-05
-3.0259759e-07
1.1323026e-05
-3.0967388e-07
1.1457538e-05
-3.0227522e-07
1.1464546e-05
-1.9581119e-07
1.1256258e-05
3.2138367e-08
1.0792193e-05
3.7184459e-07
1.0488878e-05
3.7170269e-07
8.3155525e-06
3.6360123e-06
6.534133e-06
3.7691053e-06
5.2892499e-06
3.159039e-06
4.5080791e-06
2.1571643e-06
3.8925234e-06
1.4473749e-06
3.4049657e-06
1.0231072e-06
3.0173251e-06
7.6008229e-07
2.704623e-06
5.8863234e-07
2.4482344e-06
4.7161623e-07
2.2342019e-06
3.8816604e-07
2.052511e-06
3.2635657e-07
1.8960236e-06
2.7909494e-07
1.7595798e-06
2.419864e-07
1.6393718e-06
2.1220194e-07
1.5325285e-06
1.8785421e-07
1.4368416e-06
1.6764695e-07
1.3505885e-06
1.5061377e-07
1.2722723e-06
1.3636884e-07
1.2011121e-06
1.2362698e-07
1.1359448e-06
1.1285482e-07
1.0759928e-06
1.0357862e-07
1.0206844e-06
9.5357575e-08
9.694948e-07
8.8069277e-08
9.2197729e-07
8.1583255e-08
8.7774536e-07
7.5791508e-08
8.3646569e-07
7.0597902e-08
7.9785098e-07
6.5919704e-08
7.6165334e-07
6.1686129e-08
7.2763852e-07
5.7865769e-08
6.9561901e-07
5.4382508e-08
6.6542881e-07
5.1195005e-08
6.3691281e-07
4.828167e-08
6.099268e-07
4.561902e-08
5.8433094e-07
4.3214273e-08
5.6014302e-07
4.0789735e-08
5.3710447e-07
3.8771943e-08
5.1516112e-07
3.6889136e-08
4.9425301e-07
3.5108617e-08
4.7430815e-07
3.3449066e-08
4.5526005e-07
3.1905477e-08
4.3704761e-07
3.0469058e-08
4.1961429e-07
2.9131331e-08
4.0291009e-07
2.7881189e-08
3.8689135e-07
2.6701443e-08
3.7148174e-07
2.5670461e-08
3.5669631e-07
2.4604294e-08
3.4242554e-07
2.3722479e-08
3.2870663e-07
2.2788128e-08
3.1549314e-07
2.1931993e-08
3.0275482e-07
2.1144968e-08
2.9035441e-07
2.0401619e-08
2.7840484e-07
1.973845e-08
2.6698294e-07
1.9010803e-08
2.5581214e-07
1.8439475e-08
2.4496902e-07
1.7878376e-08
2.3445075e-07
1.733603e-08
2.2423806e-07
1.6822836e-08
2.1431227e-07
1.6339491e-08
2.04656e-07
1.5884836e-08
1.9525302e-07
1.5457196e-08
1.860887e-07
1.5054094e-08
1.7714753e-07
1.4675879e-08
1.6841235e-07
1.4339057e-08
1.5987749e-07
1.3994814e-08
1.5152991e-07
1.3678266e-08
1.4335527e-07
1.3387458e-08
1.3534228e-07
1.3115947e-08
1.2748196e-07
1.2859486e-08
1.1978062e-07
1.2591969e-08
1.1219673e-07
1.2392196e-08
1.0473164e-07
1.2190334e-08
9.7379137e-08
1.1997453e-08
9.0160233e-08
1.182093e-08
8.3014153e-08
1.1654693e-08
7.5957647e-08
1.150581e-08
6.8984894e-08
1.1369923e-08
6.208666e-08
1.1246e-08
5.5255231e-08
1.1138138e-08
4.8467807e-08
1.1041442e-08
4.1744693e-08
1.0956702e-08
3.5069365e-08
1.0875013e-08
2.8431836e-08
1.0812792e-08
2.1853192e-08
1.0733125e-08
1.5371963e-08
1.0569611e-08
9.1435343e-09
1.0174318e-08
3.5710336e-09
9.1087476e-09
5.8726028e-09
3.0344932e-08
-8.8918687e-08
7.2043604e-08
-1.2042514e-07
1.1580384e-07
-1.2636297e-07
1.5995412e-07
-1.276765e-07
2.0421274e-07
-1.2808895e-07
2.4854772e-07
-1.2834239e-07
2.9296203e-07
-1.2860246e-07
3.3746646e-07
-1.2890882e-07
3.8207312e-07
-1.2926875e-07
4.2681292e-07
-1.2967721e-07
4.7171773e-07
-1.3013494e-07
5.1679864e-07
-1.3065101e-07
5.6207338e-07
-1.3122735e-07
6.0756129e-07
-1.3186419e-07
6.5328179e-07
-1.3256249e-07
6.9925451e-07
-1.3332315e-07
7.4549947e-07
-1.3414689e-07
7.9203697e-07
-1.3503418e-07
8.3888752e-07
-1.3598545e-07
8.8607188e-07
-1.3700105e-07
9.3361073e-07
-1.3808131e-07
9.815258e-07
-1.3922696e-07
1.0298367e-06
-1.4043771e-07
1.0785698e-06
-1.4171634e-07
1.1277339e-06
-1.4305637e-07
1.1773835e-06
-1.4447753e-07
1.2274653e-06
-1.4592836e-07
1.278163e-06
-1.475368e-07
1.3291845e-06
-1.4900621e-07
1.3810997e-06
-1.50977e-07
1.4331e-06
-1.5215435e-07
1.4862503e-06
-1.5500342e-07
1.5395913e-06
-1.5504454e-07
1.5936037e-06
-1.6015431e-07
1.648672e-06
-1.5688977e-07
1.7040732e-06
-1.6714251e-07
1.7595188e-06
-1.5816049e-07
1.8180629e-06
-1.72435e-07
1.8738784e-06
-1.6590494e-07
1.9327886e-06
-1.6894636e-07
1.9931416e-06
-1.7894647e-07
2.0515326e-06
-1.7206646e-07
2.1121409e-06
-1.7629268e-07
2.174996e-06
-1.8547582e-07
2.2372629e-06
-1.8248366e-07
2.2990114e-06
-1.8158783e-07
2.3633882e-06
-1.9083886e-07
2.4298464e-06
-1.9320121e-07
2.4954287e-06
-1.9272924e-07
2.5600647e-06
-1.9316485e-07
2.6282476e-06
-1.9983558e-07
2.6980695e-06
-2.0430937e-07
2.7674162e-06
-2.0479776e-07
2.8367855e-06
-2.0525948e-07
2.907138e-06
-2.0732231e-07
2.9790738e-06
-2.1337054e-07
3.0533767e-06
-2.1900459e-07
3.1282321e-06
-2.1853676e-07
3.2017811e-06
-2.1753715e-07
3.2761067e-06
-2.2153612e-07
3.3522282e-06
-2.2612783e-07
3.4302318e-06
-2.3010966e-07
3.510428e-06
-2.3453765e-07
3.590566e-06
-2.3487122e-07
3.6689469e-06
-2.3290551e-07
3.7472034e-06
-2.3513367e-07
3.828498e-06
-2.4186942e-07
3.9132667e-06
-2.4770213e-07
3.9986713e-06
-2.4924253e-07
4.0828208e-06
-2.4823229e-07
4.1666671e-06
-2.4943913e-07
4.2508833e-06
-2.5152956e-07
4.3364758e-06
-2.5431683e-07
4.4242486e-06
-2.5828361e-07
4.5127942e-06
-2.6029598e-07
4.6020564e-06
-2.6252149e-07
4.6914337e-06
-2.6407545e-07
4.7810861e-06
-2.6598691e-07
4.8714484e-06
-2.6813332e-07
4.9623031e-06
-2.6927517e-07
5.0531078e-06
-2.6895967e-07
5.1451036e-06
-2.7074723e-07
5.2370747e-06
-2.7145128e-07
5.3292093e-06
-2.7275739e-07
5.4226715e-06
-2.7628817e-07
5.5176392e-06
-2.7970886e-07
5.6129587e-06
-2.801953e-07
5.7079088e-06
-2.7908714e-07
5.8020972e-06
-2.775314e-07
5.8946424e-06
-2.7407226e-07
5.9877083e-06
-2.7575202e-07
6.0814215e-06
-2.7909371e-07
6.1764372e-06
-2.8119323e-07
6.2720467e-06
-2.8220863e-07
6.3668369e-06
-2.7867957e-07
6.4609958e-06
-2.7420049e-07
6.5543931e-06
-2.7165085e-07
6.6473661e-06
-2.7078096e-07
6.741012e-06
-2.7270515e-07
6.8358274e-06
-2.7710154e-07
6.931022e-06
-2.8022332e-07
7.024675e-06
-2.7858076e-07
7.1155804e-06
-2.7327522e-07
7.2052883e-06
-2.6808585e-07
7.2940755e-06
-2.6212194e-07
7.3819607e-06
-2.5637963e-07
7.4693578e-06
-2.5261936e-07
7.5566898e-06
-2.5054117e-07
7.6438336e-06
-2.4992896e-07
7.7319583e-06
-2.5265162e-07
7.8213881e-06
-2.5800889e-07
7.9121264e-06
-2.6314931e-07
8.0031293e-06
-2.6386839e-07
8.0927221e-06
-2.5738532e-07
8.1774128e-06
-2.4459176e-07
8.2557973e-06
-2.3088971e-07
8.3297089e-06
-2.2337891e-07
8.4044678e-06
-2.2673311e-07
8.4837781e-06
-2.3645436e-07
8.5690077e-06
-2.4438195e-07
8.6571681e-06
-2.4292332e-07
8.7423099e-06
-2.2950061e-07
8.8201652e-06
-2.0943178e-07
8.8909541e-06
-1.9174841e-07
8.9580436e-06
-1.8236687e-07
9.0261629e-06
-1.8334762e-07
9.0979558e-06
-1.9277022e-07
9.1731136e-06
-2.0705594e-07
9.2491368e-06
-2.2121711e-07
9.3243165e-06
-2.3015946e-07
9.3984713e-06
-2.2716019e-07
9.4710121e-06
-2.0694664e-07
9.538157e-06
-1.6987681e-07
9.5945898e-06
-1.2554426e-07
9.6393884e-06
-8.941913e-08
9.6784107e-06
-7.5180833e-08
9.7204562e-06
-8.6585456e-08
9.7718723e-06
-1.1547077e-07
9.8352605e-06
-1.474154e-07
9.9077351e-06
-1.6849496e-07
9.9808461e-06
-1.6968414e-07
1.0047182e-05
-1.5145788e-07
1.0103162e-05
-1.2253689e-07
1.0146651e-05
-9.2160722e-08
1.0176475e-05
-6.6337712e-08
1.0194232e-05
-4.7673708e-08
1.0204902e-05
-3.7391659e-08
1.0215742e-05
-3.6378253e-08
1.0235576e-05
-4.7590042e-08
1.0270038e-05
-7.2664843e-08
1.0315343e-05
-1.0928592e-07
1.0361846e-05
-1.4510894e-07
1.0399411e-05
-1.6670045e-07
1.0424623e-05
-1.6897352e-07
1.0440593e-05
-1.5354054e-07
1.0464962e-05
-1.4158615e-07
1.0519614e-05
-1.5295929e-07
1.0617571e-05
-1.9544547e-07
1.0760843e-05
-2.7030917e-07
1.0950074e-05
-3.6744579e-07
1.1144997e-05
-4.1884856e-07
1.1333708e-05
-4.6102979e-07
1.1483029e-05
-4.519185e-07
1.1543115e-05
-3.697599e-07
1.1425169e-05
-1.8432899e-07
1.1012279e-05
2.1707819e-07
1.0248154e-05
7.9626406e-07
8.6513151e-06
1.9686832e-06
6.1183171e-06
2.9047007e-06
5.4252781e-06
4.3290513e-06
4.8244759e-06
4.3699075e-06
4.559344e-06
3.4241709e-06
4.2154584e-06
2.5010499e-06
3.8174774e-06
1.8453559e-06
3.4418407e-06
1.3987439e-06
3.1113789e-06
1.0905441e-06
2.8271435e-06
8.728678e-07
2.5836951e-06
7.150646e-07
2.374283e-06
5.975781e-07
2.1927725e-06
5.0786714e-07
2.0341017e-06
4.3776573e-07
1.8942329e-06
3.8185521e-07
1.7699757e-06
3.3645911e-07
1.6588059e-06
2.9902402e-07
1.5587124e-06
2.6774041e-07
1.4680538e-06
2.4127239e-07
1.3856874e-06
2.1873523e-07
1.3102219e-06
1.9909246e-07
1.2409331e-06
1.8214368e-07
1.1771435e-06
1.6736823e-07
1.118165e-06
1.5433608e-07
1.0634585e-06
1.4277579e-07
1.0125682e-06
1.3247351e-07
9.6509887e-07
1.2326084e-07
9.2071162e-07
1.1498515e-07
8.7911872e-07
1.075126e-07
8.4008042e-07
1.0072443e-07
8.0331137e-07
9.4634826e-08
7.6864903e-07
8.9044843e-08
7.359325e-07
8.3911538e-08
7.049896e-07
7.9224568e-08
6.75677e-07
7.4931625e-08
6.4790174e-07
7.0989526e-08
6.2141962e-07
6.7271862e-08
5.9626116e-07
6.3930397e-08
5.7230822e-07
6.084208e-08
5.4945522e-07
5.796162e-08
5.27626e-07
5.5278282e-08
5.067516e-07
5.2779879e-08
4.867692e-07
5.0451454e-08
4.6761945e-07
4.8281089e-08
4.4924146e-07
4.6259176e-08
4.315573e-07
4.4385603e-08
4.1464922e-07
4.257854e-08
3.9831359e-07
4.0939921e-08
3.8261155e-07
3.9424515e-08
3.6745404e-07
3.7945641e-08
3.5282195e-07
3.6564085e-08
3.3869734e-07
3.5269571e-08
3.2500468e-07
3.4094279e-08
3.1179164e-07
3.2951492e-08
2.9899351e-07
3.1808934e-08
2.8659457e-07
3.0838419e-08
2.7455325e-07
2.9919689e-08
2.6285827e-07
2.9031012e-08
2.514911e-07
2.8190007e-08
2.4043306e-07
2.7397531e-08
2.2966628e-07
2.6651616e-08
2.1917342e-07
2.5950055e-08
2.0893552e-07
2.529199e-08
1.9893553e-07
2.467587e-08
1.891931e-07
2.4081492e-08
1.7964618e-07
2.3541735e-08
1.7029593e-07
2.3028509e-08
1.611391e-07
2.2544296e-08
1.5216276e-07
2.2092282e-08
1.4335515e-07
2.1667102e-08
1.3468726e-07
2.1259858e-08
1.2617636e-07
2.0903091e-08
1.1779945e-07
2.0567248e-08
1.0954697e-07
2.0249933e-08
1.0142008e-07
1.9947822e-08
9.3390214e-08
1.9684558e-08
8.5454258e-08
1.9441767e-08
7.7608485e-08
1.9215697e-08
6.9846005e-08
1.900848e-08
6.2153161e-08
1.8830981e-08
5.4518847e-08
1.8675755e-08
4.6945559e-08
1.8529988e-08
3.9421066e-08
1.8399505e-08
3.1949551e-08
1.8284307e-08
2.4544977e-08
1.8137697e-08
1.7259576e-08
1.785501e-08
1.0259072e-08
1.7174821e-08
4.0009597e-09
1.5366858e-08
9.8735616e-09
3.0390142e-08
-1.1930883e-07
7.2036241e-08
-1.6207124e-07
1.1574753e-07
-1.7007426e-07
1.5987326e-07
-1.7180224e-07
2.0410952e-07
-1.723252e-07
2.4841513e-07
-1.72648e-07
2.9279641e-07
-1.7298374e-07
3.3726802e-07
-1.7338043e-07
3.8184755e-07
-1.7384828e-07
4.2655868e-07
-1.7438835e-07
4.7142503e-07
-1.7500129e-07
5.1646418e-07
-1.7569016e-07
5.6169435e-07
-1.7645752e-07
6.0713486e-07
-1.7730469e-07
6.5280515e-07
-1.7823278e-07
6.9872487e-07
-1.7924287e-07
7.4491396e-07
-1.8033598e-07
7.9139283e-07
-1.8151305e-07
8.3818225e-07
-1.8277487e-07
8.8530329e-07
-1.8412209e-07
9.3277696e-07
-1.8555498e-07
9.8062494e-07
-1.8707494e-07
1.028868e-06
-1.886808e-07
1.0775304e-06
-1.9037875e-07
1.1266282e-06
-1.9215413e-07
1.1761984e-06
-1.940477e-07
1.2262292e-06
-1.9595924e-07
1.2768166e-06
-1.9812411e-07
1.3278396e-06
-2.0002923e-07
1.3795745e-06
-2.0271189e-07
1.4316501e-06
-2.0423e-07
1.4845933e-06
-2.0794665e-07
1.5379623e-06
-2.0841354e-07
1.5918788e-06
-2.140708e-07
1.6470106e-06
-2.1202155e-07
1.7018535e-06
-2.2198541e-07
1.7582905e-06
-2.1459752e-07
1.8153846e-06
-2.2952905e-07
1.8721356e-06
-2.2265596e-07
1.9311338e-06
-2.2794453e-07
1.9905286e-06
-2.3834126e-07
2.0492239e-06
-2.3076179e-07
2.1106938e-06
-2.3776263e-07
2.1728447e-06
-2.476267e-07
2.2339565e-06
-2.4359539e-07
2.2974136e-06
-2.4504493e-07
2.361951e-06
-2.5537634e-07
2.4271942e-06
-2.5844441e-07
2.4922652e-06
-2.5780025e-07
2.558089e-06
-2.589886e-07
2.6270587e-06
-2.6880529e-07
2.6965319e-06
-2.7378256e-07
2.7639122e-06
-2.7217803e-07
2.833031e-06
-2.7437831e-07
2.9066001e-06
-2.8089144e-07
2.9792081e-06
-2.8597852e-07
3.0507426e-06
-2.9053913e-07
3.1239854e-06
-2.9177949e-07
3.1988801e-06
-2.924319e-07
3.2754485e-06
-2.981045e-07
3.3524442e-06
-3.0312357e-07
3.42947e-06
-3.0713539e-07
3.507388e-06
-3.1245565e-07
3.5865024e-06
-3.1398564e-07
3.6665412e-06
-3.1294428e-07
3.7472497e-06
-3.1584218e-07
3.8292443e-06
-3.2386404e-07
3.9130551e-06
-3.3151292e-07
3.9969153e-06
-3.3310279e-07
4.080487e-06
-3.3180395e-07
4.1647615e-06
-3.3371368e-07
4.2493728e-06
-3.3614085e-07
4.3357638e-06
-3.4070782e-07
4.4246514e-06
-3.4717114e-07
4.5138738e-06
-3.495184e-07
4.6038711e-06
-3.5251882e-07
4.6926314e-06
-3.5283572e-07
4.7807498e-06
-3.5410534e-07
4.870115e-06
-3.5749848e-07
4.960336e-06
-3.5949622e-07
5.0517995e-06
-3.6042319e-07
5.1462052e-06
-3.6515287e-07
5.2400618e-06
-3.6530792e-07
5.333563e-06
-3.6625855e-07
5.4276994e-06
-3.7042462e-07
5.5216135e-06
-3.7362293e-07
5.614931e-06
-3.7351279e-07
5.7084176e-06
-3.7257381e-07
5.8021621e-06
-3.7127589e-07
5.8959266e-06
-3.6783675e-07
5.9897982e-06
-3.696236e-07
6.0838305e-06
-3.7312602e-07
6.1797149e-06
-3.7707763e-07
6.2753827e-06
-3.7787643e-07
6.371248e-06
-3.7454482e-07
6.4680646e-06
-3.7101716e-07
6.5639456e-06
-3.6753179e-07
6.6583393e-06
-3.6517466e-07
6.7509841e-06
-3.6534995e-07
6.8427905e-06
-3.6890793e-07
6.9346755e-06
-3.7210834e-07
7.0240327e-06
-3.6793793e-07
7.1112358e-06
-3.6047833e-07
7.1997601e-06
-3.5661018e-07
7.2906708e-06
-3.530327e-07
7.3838065e-06
-3.495153e-07
7.4785711e-06
-3.4738391e-07
7.5724408e-06
-3.4441094e-07
7.6643048e-06
-3.4179288e-07
7.7538675e-06
-3.4221437e-07
7.839272e-06
-3.4341338e-07
7.9206455e-06
-3.4452285e-07
8.002178e-06
-3.4540084e-07
8.0874958e-06
-3.4270313e-07
8.1753613e-06
-3.3245731e-07
8.259934e-06
-3.1546233e-07
8.3379744e-06
-3.0141934e-07
8.411764e-06
-3.0052271e-07
8.4859273e-06
-3.1061767e-07
8.564258e-06
-3.2271261e-07
8.6478407e-06
-3.2650604e-07
8.7351443e-06
-3.1680427e-07
8.8219029e-06
-2.961903e-07
8.9042453e-06
-2.7409082e-07
8.9822792e-06
-2.6040081e-07
9.0583576e-06
-2.5942597e-07
9.1341956e-06
-2.686083e-07
9.2083018e-06
-2.8116215e-07
9.2775245e-06
-2.9043974e-07
9.3393995e-06
-2.9203451e-07
9.3948462e-06
-2.8260685e-07
9.4469023e-06
-2.590028e-07
9.498987e-06
-2.2196152e-07
9.553078e-06
-1.7963523e-07
9.6108138e-06
-1.4715489e-07
9.6746157e-06
-1.3898276e-07
9.7452493e-06
-1.5721906e-07
9.8201387e-06
-1.9036014e-07
9.8938819e-06
-2.2115864e-07
9.9603314e-06
-2.3494445e-07
1.0014584e-05
-2.2393723e-07
1.0054827e-05
-1.9170022e-07
1.0083563e-05
-1.5127291e-07
1.0105445e-05
-1.1404265e-07
1.0123719e-05
-8.4611499e-08
1.0141954e-05
-6.5908779e-08
1.0165181e-05
-6.0619358e-08
1.0199144e-05
-7.0340682e-08
1.0246757e-05
-9.5202816e-08
1.0301534e-05
-1.2744243e-07
1.0346475e-05
-1.5422674e-07
1.036986e-05
-1.6849405e-07
1.0377024e-05
-1.7386412e-07
1.0391058e-05
-1.8300797e-07
1.0437868e-05
-2.003501e-07
1.0527562e-05
-2.312802e-07
1.0670919e-05
-2.9631661e-07
1.0864264e-05
-3.887905e-07
1.1057102e-05
-4.6314701e-07
1.1232203e-05
-5.4254675e-07
1.1345909e-05
-5.3255448e-07
1.1320744e-05
-4.358645e-07
1.1108222e-05
-2.3939655e-07
1.0660325e-05
7.8136439e-08
9.9565501e-06
5.1944613e-07
8.7497186e-06
1.4239097e-06
7.3760025e-06
2.1699801e-06
5.537655e-06
3.8070307e-06
3.9310794e-06
4.5112764e-06
3.6073268e-06
4.6528038e-06
3.8008127e-06
4.1764216e-06
3.8794197e-06
3.3455639e-06
3.7496465e-06
2.6308231e-06
3.5157873e-06
2.0792151e-06
3.253789e-06
1.6607422e-06
2.9982002e-06
1.3461328e-06
2.7626797e-06
1.1083883e-06
2.5508685e-06
9.268758e-07
2.3621316e-06
7.8631503e-07
2.1942735e-06
6.7572521e-07
2.0447099e-06
5.8732934e-07
1.9109579e-06
5.1560722e-07
1.7908139e-06
4.5660307e-07
1.6823907e-06
4.0744728e-07
1.5840981e-06
3.6603303e-07
1.4945954e-06
3.3077502e-07
1.4128162e-06
3.0051444e-07
1.3376549e-06
2.742538e-07
1.2684307e-06
2.5136789e-07
1.2044937e-06
2.3130517e-07
1.1452417e-06
2.1358813e-07
1.090165e-06
1.9785246e-07
1.0388367e-06
1.8380181e-07
9.9087001e-07
1.7122755e-07
9.4593981e-07
1.5991535e-07
9.0377075e-07
1.4968166e-07
8.6417518e-07
1.4032001e-07
8.268307e-07
1.319793e-07
7.9156234e-07
1.243132e-07
7.5825991e-07
1.1721397e-07
7.2672827e-07
1.1075621e-07
6.968303e-07
1.048296e-07
6.6844616e-07
9.9373665e-08
6.4140213e-07
9.4315893e-08
6.1566986e-07
8.9662661e-08
5.9115055e-07
8.5361389e-08
5.6774607e-07
8.13661e-08
5.453761e-07
7.7648256e-08
5.2397087e-07
7.4185115e-08
5.0346855e-07
7.0953768e-08
4.8380831e-07
6.7941332e-08
4.6493553e-07
6.5131957e-08
4.4681345e-07
6.2507676e-08
4.2934057e-07
6.0051422e-08
4.1252364e-07
5.7756849e-08
3.9637494e-07
5.557322e-08
3.8077516e-07
5.3545415e-08
3.6569424e-07
5.1645009e-08
3.5110199e-07
4.9861816e-08
3.3704355e-07
4.815272e-08
3.2341823e-07
4.6576815e-08
3.1016812e-07
4.5059037e-08
2.9733878e-07
4.3667767e-08
2.8490007e-07
4.2358395e-08
2.7281497e-07
4.1116116e-08
2.6106292e-07
3.9942054e-08
2.4962516e-07
3.8835294e-08
2.384839e-07
3.779287e-08
2.2762232e-07
3.6811637e-08
2.1702544e-07
3.5888869e-08
2.0667927e-07
3.5022042e-08
1.9655396e-07
3.4206797e-08
1.866555e-07
3.3440201e-08
1.7696715e-07
3.2716855e-08
1.6747219e-07
3.2039257e-08
1.5815936e-07
3.1405116e-08
1.4901548e-07
3.0810986e-08
1.4002123e-07
3.0254104e-08
1.3118236e-07
2.9741964e-08
1.2248403e-07
2.9265572e-08
1.1391314e-07
2.8820832e-08
1.0545753e-07
2.8403431e-08
9.7111191e-08
2.8030895e-08
8.8865291e-08
2.7687668e-08
8.0709401e-08
2.7371587e-08
7.2633878e-08
2.7084004e-08
6.4634206e-08
2.6830652e-08
5.6702874e-08
2.6607087e-08
4.8827016e-08
2.6405844e-08
4.1000403e-08
2.6226116e-08
3.3227696e-08
2.6057012e-08
2.5523008e-08
2.5842384e-08
1.7942345e-08
2.5435672e-08
1.0656627e-08
2.4460538e-08
4.1491359e-09
2.1874348e-08
1.4022697e-08
3.041912e-08
-1.4972795e-07