/*--------------------------------*- C++ -*----------------------------------*\
| =========                 |                                                 |
| \\      /  F ield         | OpenFOAM: The Open Source CFD Toolbox           |
|  \\    /   O peration     | Version:  2106                                  |
|   \\  /    A nd           | Website:  www.openfoam.com                      |
|    \\/     M anipulation  |                                                 |
\*---------------------------------------------------------------------------*/
FoamFile
{
    version     2.0;
    format      ascii;
    arch        "LSB;label=32;scalar=64";
    class       volVectorField;
    location    "0.115";
    object      U;
}
// * * * * * * * * * * * * * * * * * * * * * * * * * * * * * * * * * * * * * //

dimensions      [0 1 -1 0 0 0 0];

internalField   nonuniform List<vector> 
32768
(
(0.0012730089 -0.0014654646 0)
(0.0051079443 -0.00178223 0)
(0.0093999099 -0.001856899 0)
(0.013782825 -0.0018930916 0)
(0.018175912 -0.0019051044 0)
(0.022582656 -0.0019102363 0)
(0.02700198 -0.0019155294 0)
(0.031433362 -0.0019224623 0)
(0.035878815 -0.0019313165 0)
(0.040347892 -0.0019515851 0)
(0.044842535 -0.0019840763 0)
(0.049361959 -0.0020212505 0)
(0.05390656 -0.0020599773 0)
(0.058477234 -0.0020989305 0)
(0.063075472 -0.0021375245 0)
(0.067703114 -0.0021755925 0)
(0.072362161 -0.0022131884 0)
(0.077054734 -0.0022504693 0)
(0.081783046 -0.0022876327 0)
(0.086549372 -0.0023248756 0)
(0.091356069 -0.0023624052 0)
(0.096205461 -0.0024003545 0)
(0.10110014 -0.0024390017 0)
(0.10604214 -0.0024781749 0)
(0.11103501 -0.0025187529 0)
(0.11607879 -0.0025591113 0)
(0.1211813 -0.0026029916 0)
(0.12633442 -0.0026432801 0)
(0.13156029 -0.0026930171 0)
(0.13682824 -0.0027308938 0)
(0.14219151 -0.0027885146 0)
(0.14758411 -0.0028256266 0)
(0.15308787 -0.0028836462 0)
(0.1586315 -0.0029369391 0)
(0.16426205 -0.0029687388 0)
(0.16998336 -0.0030674162 0)
(0.17575478 -0.0030532577 0)
(0.18163749 -0.0031877355 0)
(0.18757765 -0.0031943313 0)
(0.19364968 -0.0032412137 0)
(0.19973178 -0.0033813337 0)
(0.20598419 -0.0033507154 0)
(0.2123306 -0.003445083 0)
(0.21864157 -0.0035639138 0)
(0.22520361 -0.0035481962 0)
(0.23186102 -0.0036398266 0)
(0.2384375 -0.003749583 0)
(0.24524767 -0.0037647939 0)
(0.2522475 -0.0038551381 0)
(0.25918516 -0.0039409686 0)
(0.26621457 -0.0039702367 0)
(0.27345946 -0.0040668417 0)
(0.28079938 -0.0041698026 0)
(0.28819296 -0.0042002823 0)
(0.29567503 -0.0042487666 0)
(0.30323589 -0.0043620301 0)
(0.31095424 -0.0044495708 0)
(0.31886234 -0.004500624 0)
(0.32678392 -0.0045681884 0)
(0.33469334 -0.0046304919 0)
(0.34277749 -0.0046963927 0)
(0.35104816 -0.0047974862 0)
(0.35939854 -0.0048922457 0)
(0.36782762 -0.0049416913 0)
(0.37633019 -0.0049787927 0)
(0.38486904 -0.0050421906 0)
(0.39350729 -0.0051290127 0)
(0.4023209 -0.0052218165 0)
(0.41126212 -0.0052975905 0)
(0.42024663 -0.0053449494 0)
(0.42926369 -0.0053918739 0)
(0.43835752 -0.0054524466 0)
(0.44755848 -0.0055156075 0)
(0.45684989 -0.0055833003 0)
(0.46621405 -0.0056522377 0)
(0.47564651 -0.0057199191 0)
(0.48515437 -0.0057769828 0)
(0.49475492 -0.0058259815 0)
(0.50443784 -0.0058828362 0)
(0.51417787 -0.0059378065 0)
(0.5239529 -0.0059714823 0)
(0.53374442 -0.0059972331 0)
(0.54355582 -0.0060347164 0)
(0.55340555 -0.0060846639 0)
(0.56331751 -0.0061360752 0)
(0.57332565 -0.0061815127 0)
(0.58341727 -0.006227315 0)
(0.59350754 -0.0062570426 0)
(0.60354875 -0.0062509324 0)
(0.61355656 -0.0062367183 0)
(0.6235161 -0.0062495071 0)
(0.63349962 -0.0062615028 0)
(0.64360494 -0.0062797801 0)
(0.65375548 -0.0063160276 0)
(0.66384896 -0.0063126121 0)
(0.67382643 -0.0062813736 0)
(0.68362574 -0.0062517641 0)
(0.69330289 -0.0062172377 0)
(0.70298748 -0.0062066572 0)
(0.71274212 -0.0062367779 0)
(0.72260825 -0.0062636501 0)
(0.73258976 -0.0062597495 0)
(0.74255391 -0.0062235704 0)
(0.75234954 -0.0061538945 0)
(0.76191799 -0.0060549608 0)
(0.77122347 -0.0059437405 0)
(0.78027402 -0.0058556745 0)
(0.78914104 -0.0058058141 0)
(0.7979101 -0.0057644113 0)
(0.8066664 -0.0057288434 0)
(0.8155018 -0.0057348043 0)
(0.82447872 -0.0057681981 0)
(0.83358348 -0.0057547855 0)
(0.842665 -0.0056775126 0)
(0.85146931 -0.005553181 0)
(0.85984854 -0.0053682444 0)
(0.86788158 -0.0051662183 0)
(0.87576194 -0.0050732525 0)
(0.88367434 -0.0050633959 0)
(0.89170493 -0.0050247143 0)
(0.89973075 -0.0048337836 0)
(0.90746264 -0.0045435809 0)
(0.91464214 -0.0042463564 0)
(0.92119965 -0.0040383694 0)
(0.92727107 -0.0039703726 0)
(0.93310798 -0.0040180873 0)
(0.93898224 -0.0040816503 0)
(0.94515027 -0.0040586766 0)
(0.95182501 -0.0039096047 0)
(0.95905658 -0.0036144651 0)
(0.96664004 -0.0030721982 0)
(0.97332007 -0.0024317765 0)
(0.9782079 -0.0020606032 0)
(0.9816695 -0.0019402921 0)
(0.9840883 -0.0017890946 0)
(0.9860209 -0.0014741987 0)
(0.98780619 -0.0010937395 0)
(0.98989553 -0.00053260178 0)
(0.99261849 0.0005126146 0)
(0.99497519 0.0015928086 0)
(0.99669226 0.0022241796 0)
(0.99770655 0.0022298803 0)
(0.99817272 0.0016954413 0)
(0.99830609 0.0012308344 0)
(0.9985562 0.00042581322 0)
(0.99961142 -0.00063493085 0)
(1.0012384 -0.001397317 0)
(1.0032793 -0.0020493655 0)
(1.0059402 -0.0027979002 0)
(1.0090365 -0.0034751492 0)
(1.0128879 -0.0039057835 0)
(1.0179456 -0.0041981656 0)
(1.0248148 -0.0044749832 0)
(1.0331332 -0.0047045255 0)
(1.042051 -0.0048582318 0)
(1.0506509 -0.0050719665 0)
(1.0583083 -0.005483908 0)
(1.0650564 -0.0060811623 0)
(1.0717532 -0.006806366 0)
(1.0797343 -0.0074505476 0)
(1.0898501 -0.0076445955 0)
(1.102487 -0.0080714268 0)
(1.1174116 -0.0092729882 0)
(1.1339688 -0.010818257 0)
(1.1518289 -0.01211126 0)
(1.1698863 -0.013894387 0)
(1.1866616 -0.020572626 0)
(1.2003619 -0.025231172 0)
(1.1795283 -0.013223564 0)
(1.0678161 -0.011279409 0)
(1.0690494 0.076520502 0)
(0.68684397 0.1091338 0)
(0.49042724 0.07730819 0)
(0.39781296 0.044339961 0)
(0.32381966 0.027053191 0)
(0.27443546 0.018200996 0)
(0.23896699 0.013235852 0)
(0.21182216 0.0101703 0)
(0.19021258 0.0081227001 0)
(0.17247442 0.0066724696 0)
(0.15757977 0.0055985326 0)
(0.14485228 0.004775472 0)
(0.13382466 0.0041274785 0)
(0.12416193 0.0036062068 0)
(0.11561371 0.0031793303 0)
(0.10799657 0.0028258154 0)
(0.10115104 0.0025115796 0)
(0.09497099 0.0024069312 0)
(0.0893717 0.0020911454 0)
(0.084263811 0.0018765684 0)
(0.079583709 0.0017059756 0)
(0.075280067 0.0015604286 0)
(0.07131087 0.0014331365 0)
(0.067639194 0.001320628 0)
(0.064232971 0.0012205459 0)
(0.0610646 0.0011310796 0)
(0.058110472 0.0010507439 0)
(0.055349497 0.00097856028 0)
(0.052763249 0.00091322828 0)
(0.050336242 0.00085388542 0)
(0.04805441 0.00079994431 0)
(0.045905948 0.0007507888 0)
(0.043876027 0.0007056786 0)
(0.04196107 0.00072005586 0)
(0.040152002 0.00063778968 0)
(0.038434345 0.00059477074 0)
(0.036803109 0.00056120735 0)
(0.035252332 0.00053131837 0)
(0.03377674 0.00050392296 0)
(0.032370998 0.00047861741 0)
(0.031030194 0.00045517341 0)
(0.0297495 0.00043335492 0)
(0.028526435 0.00041204182 0)
(0.027353607 0.0003589546 0)
(0.026229819 0.00036959246 0)
(0.025151203 0.00032745368 0)
(0.024113904 0.00034016865 0)
(0.023118488 0.0003310449 0)
(0.022159816 0.00032005961 0)
(0.021241586 0.00030814253 0)
(0.020356751 0.00029583707 0)
(0.019496511 0.00030512262 0)
(0.018665359 0.00027369522 0)
(0.017863863 0.00026254104 0)
(0.017088516 0.00025387987 0)
(0.016336845 0.00024565252 0)
(0.015607732 0.00023782566 0)
(0.014899984 0.00023042951 0)
(0.014212377 0.00022345391 0)
(0.013543636 0.0002168103 0)
(0.01289306 0.00020962564 0)
(0.012258177 0.0001896275 0)
(0.01163866 0.00019751314 0)
(0.011034722 0.00019433275 0)
(0.010444385 0.00018993849 0)
(0.0098669338 0.00018568696 0)
(0.0093012037 0.00018236713 0)
(0.0087476368 0.00018833621 0)
(0.0082047874 0.00017537048 0)
(0.0076709386 0.00017067741 0)
(0.0071462867 0.00016688345 0)
(0.0066286149 0.00016381236 0)
(0.0061186495 0.00016139408 0)
(0.0056170586 0.00015970394 0)
(0.0051217758 0.00015844258 0)
(0.0046321926 0.00016201154 0)
(0.004147766 0.00015505682 0)
(0.0036684152 0.00014881551 0)
(0.0031931528 0.0001516888 0)
(0.002721119 0.00015373464 0)
(0.0022520929 0.0001496403 0)
(0.0017852585 0.00014839181 0)
(0.0013226044 0.00014689798 0)
(0.00086961015 0.00014390235 0)
(0.00043397972 0.00013122473 0)
(9.3414023e-05 9.2569773e-05 0)
(0.0012704184 -0.0048566224 0)
(0.0056069607 -0.0064671996 0)
(0.010573769 -0.0067908399 0)
(0.015522282 -0.0068832165 0)
(0.020498823 -0.006912118 0)
(0.025487884 -0.0069270543 0)
(0.030486353 -0.0069426505 0)
(0.03549469 -0.0069619008 0)
(0.040515521 -0.0069869538 0)
(0.045544393 -0.007010016 0)
(0.050577005 -0.0070254278 0)
(0.055620739 -0.0070396678 0)
(0.060679899 -0.0070556863 0)
(0.065758093 -0.0070748449 0)
(0.070858518 -0.0070977738 0)
(0.075984092 -0.0071247621 0)
(0.081137609 -0.0071559378 0)
(0.086321778 -0.0071913454 0)
(0.091539259 -0.0072309878 0)
(0.096792608 -0.0072748277 0)
(0.10208452 -0.0073228647 0)
(0.10741713 -0.007374942 0)
(0.11279412 -0.0074313546 0)
(0.1182149 -0.007491137 0)
(0.12368992 -0.0075566553 0)
(0.12920251 -0.0076220124 0)
(0.13479887 -0.007700249 0)
(0.14038787 -0.0077646639 0)
(0.14615991 -0.0078630759 0)
(0.15176469 -0.007923388 0)
(0.15782008 -0.0080229147 0)
(0.16333614 -0.0081526298 0)
(0.16978398 -0.0080817735 0)
(0.17519198 -0.0085760715 0)
(0.18194483 -0.0079676888 0)
(0.18749695 -0.0090772055 0)
(0.1942245 -0.0080831003 0)
(0.20024193 -0.0090340779 0)
(0.20675418 -0.0089165634 0)
(0.21337927 -0.0085846543 0)
(0.21957229 -0.0094696534 0)
(0.22673347 -0.0091066853 0)
(0.23322793 -0.0090985916 0)
(0.2398151 -0.0097303359 0)
(0.24734347 -0.0095433338 0)
(0.25410894 -0.0095166171 0)
(0.26084552 -0.010021315 0)
(0.26860228 -0.0099411787 0)
(0.2759545 -0.010068218 0)
(0.28298235 -0.010278895 0)
(0.29059428 -0.010325696 0)
(0.29842504 -0.010516771 0)
(0.30609618 -0.01072338 0)
(0.3138876 -0.010775176 0)
(0.32178248 -0.010777426 0)
(0.32963871 -0.011085053 0)
(0.33793771 -0.011329873 0)
(0.3464533 -0.0112712 0)
(0.35454226 -0.011369987 0)
(0.36271609 -0.011585236 0)
(0.37139293 -0.011701765 0)
(0.38013794 -0.011850646 0)
(0.38886775 -0.01204962 0)
(0.39776822 -0.012108722 0)
(0.4066446 -0.012107238 0)
(0.41545116 -0.012263122 0)
(0.42451421 -0.012483065 0)
(0.4338787 -0.012623888 0)
(0.44329118 -0.012711455 0)
(0.45265905 -0.012756308 0)
(0.46203409 -0.012858266 0)
(0.47153142 -0.012980406 0)
(0.48117077 -0.013079232 0)
(0.49087042 -0.013183961 0)
(0.50066431 -0.01326351 0)
(0.51050312 -0.01336132 0)
(0.52046143 -0.013453044 0)
(0.53055556 -0.013559634 0)
(0.54069901 -0.013669664 0)
(0.5508796 -0.013724186 0)
(0.56108023 -0.013716928 0)
(0.57126995 -0.013733724 0)
(0.58149805 -0.013754196 0)
(0.59177833 -0.01381209 0)
(0.6021621 -0.013945218 0)
(0.61276037 -0.014050029 0)
(0.62345369 -0.014047444 0)
(0.63401 -0.014013651 0)
(0.64450941 -0.013959323 0)
(0.6549989 -0.013822339 0)
(0.6652836 -0.013852867 0)
(0.6758569 -0.014032309 0)
(0.68669487 -0.014043058 0)
(0.6974163 -0.014107893 0)
(0.7080901 -0.013901673 0)
(0.71858834 -0.013564326 0)
(0.72874396 -0.013403593 0)
(0.73892406 -0.013294279 0)
(0.74925575 -0.013315063 0)
(0.75969228 -0.013531887 0)
(0.77039386 -0.013740314 0)
(0.78130737 -0.013777842 0)
(0.7919843 -0.013678634 0)
(0.8024061 -0.013361711 0)
(0.81258085 -0.012962727 0)
(0.82240167 -0.012543159 0)
(0.83198667 -0.01219031 0)
(0.84147436 -0.011950936 0)
(0.85093254 -0.011927758 0)
(0.86047051 -0.01199191 0)
(0.87026382 -0.012189074 0)
(0.88039045 -0.012429788 0)
(0.89079185 -0.01255638 0)
(0.90102649 -0.012255958 0)
(0.91060237 -0.011761688 0)
(0.91955222 -0.011235759 0)
(0.92826488 -0.010896444 0)
(0.9370865 -0.010840294 0)
(0.94634551 -0.011048013 0)
(0.95608412 -0.011199026 0)
(0.96580216 -0.011050833 0)
(0.97488886 -0.010462199 0)
(0.98305986 -0.0095765897 0)
(0.99042831 -0.0086875337 0)
(0.99734674 -0.008044706 0)
(1.0041888 -0.0077748802 0)
(1.011323 -0.008028723 0)
(1.0191452 -0.008878261 0)
(1.0279404 -0.010179549 0)
(1.037633 -0.011264835 0)
(1.0478237 -0.01110522 0)
(1.0577967 -0.0091980942 0)
(1.0663936 -0.0063539807 0)
(1.0725805 -0.0038661576 0)
(1.0763091 -0.0024338411 0)
(1.0786492 -0.0021755329 0)
(1.0811003 -0.0029335584 0)
(1.0849377 -0.0043264234 0)
(1.0908939 -0.0054454001 0)
(1.0987868 -0.0056616177 0)
(1.1079584 -0.0049979714 0)
(1.1175636 -0.0037089453 0)
(1.125781 -0.0023735083 0)
(1.1318312 -0.0016364336 0)
(1.1360723 -0.0015905627 0)
(1.1386896 -0.0019644478 0)
(1.1401222 -0.0024340503 0)
(1.1407278 -0.0027754937 0)
(1.1407338 -0.0028444274 0)
(1.1402537 -0.0031052114 0)
(1.1409862 -0.0050227898 0)
(1.1446862 -0.0078014634 0)
(1.1508363 -0.01075692 0)
(1.158231 -0.012718347 0)
(1.165481 -0.012971589 0)
(1.1712223 -0.011591366 0)
(1.1751282 -0.0093214037 0)
(1.1783634 -0.0074733987 0)
(1.1832465 -0.0076751029 0)
(1.1918558 -0.010714409 0)
(1.2040474 -0.015586249 0)
(1.2191185 -0.020994011 0)
(1.2362691 -0.0225579 0)
(1.2552496 -0.021654605 0)
(1.2710829 -0.024809157 0)
(1.277154 -0.030871037 0)
(1.263615 -0.021694476 0)
(1.2105034 0.0082788276 0)
(1.0808834 0.024314084 0)
(1.1789675 0.33770964 0)
(0.85695181 0.35943816 0)
(0.6105175 0.30568427 0)
(0.54066709 0.21185233 0)
(0.46784949 0.13322828 0)
(0.40639402 0.089208586 0)
(0.35812364 0.063988509 0)
(0.31937829 0.048488497 0)
(0.28780624 0.038330076 0)
(0.26166 0.031269851 0)
(0.23963229 0.026126802 0)
(0.22078576 0.02223763 0)
(0.20444658 0.01920753 0)
(0.19012149 0.016789343 0)
(0.17744275 0.014821164 0)
(0.16612739 0.013194251 0)
(0.15596317 0.011822087 0)
(0.14676248 0.010702906 0)
(0.13840483 0.0095405108 0)
(0.13078355 0.0087684995 0)
(0.12378728 0.0080576768 0)
(0.11734099 0.0074139118 0)
(0.11138374 0.0068381894 0)
(0.10586212 0.0063250366 0)
(0.10072945 0.0058670792 0)
(0.095945457 0.0054569187 0)
(0.091475268 0.0050880261 0)
(0.087289516 0.0047547653 0)
(0.083360958 0.0044541387 0)
(0.079665697 0.0041806628 0)
(0.076184488 0.003930697 0)
(0.072899147 0.0037024578 0)
(0.069793761 0.0034937494 0)
(0.066850208 0.0033079893 0)
(0.064064144 0.0030629479 0)
(0.061421516 0.0029468698 0)
(0.058904054 0.0028100286 0)
(0.056505681 0.0026737582 0)
(0.054219013 0.0025450568 0)
(0.052036518 0.0024251324 0)
(0.049950999 0.0023136064 0)
(0.047955888 0.0022098199 0)
(0.046045029 0.0021129473 0)
(0.044213528 0.002021562 0)
(0.042454046 0.0019780604 0)
(0.040764436 0.0018669471 0)
(0.039137766 0.001825305 0)
(0.037570811 0.0017257572 0)
(0.036063229 0.0016550804 0)
(0.034610349 0.0015946905 0)
(0.033204068 0.0015089777 0)
(0.031840149 0.0014786848 0)
(0.030531306 0.001429012 0)
(0.029267477 0.0013833499 0)
(0.02803531 0.0013406637 0)
(0.026839341 0.0012995779 0)
(0.025678694 0.0012604601 0)
(0.024551331 0.0012235204 0)
(0.023455132 0.0011887343 0)
(0.022388208 0.0011559942 0)
(0.021348759 0.0011251691 0)
(0.020335197 0.0010969855 0)
(0.01934563 0.0010870791 0)
(0.01837888 0.0010464751 0)
(0.017433757 0.0010202824 0)
(0.016508737 0.00099784613 0)
(0.015602571 0.00097708401 0)
(0.014713848 0.0009568182 0)
(0.013842724 0.00092625358 0)
(0.012987067 0.00092036818 0)
(0.012144543 0.00090612289 0)
(0.011314986 0.00089176378 0)
(0.010499161 0.00088643192 0)
(0.0096950533 0.00086621236 0)
(0.0088999472 0.00085422059 0)
(0.0081144721 0.00084353088 0)
(0.0073379291 0.00082864553 0)
(0.0065693749 0.0008261769 0)
(0.0058068769 0.000819634 0)
(0.0050504056 0.00081292516 0)
(0.0043003081 0.00080326681 0)
(0.0035547629 0.00080182782 0)
(0.0028140025 0.00079871076 0)
(0.0020804621 0.00078482064 0)
(0.0013629705 0.00075573867 0)
(0.00068082062 0.00067583292 0)
(0.00013365343 0.0004351891 0)
(0.0012734148 -0.0082581791 0)
(0.0055920465 -0.011154866 0)
(0.010517597 -0.011703857 0)
(0.015439052 -0.011826188 0)
(0.020390138 -0.011864642 0)
(0.025351752 -0.011888392 0)
(0.030321301 -0.011913089 0)
(0.035300205 -0.011942439 0)
(0.04029004 -0.011976997 0)
(0.045292925 -0.012016952 0)
(0.050312468 -0.012063468 0)
(0.055351091 -0.012117047 0)
(0.060410556 -0.012177517 0)
(0.06549285 -0.012244637 0)
(0.070600114 -0.01231822 0)
(0.075734534 -0.012398087 0)
(0.08089833 -0.012484109 0)
(0.086093761 -0.012576201 0)
(0.091323126 -0.012674326 0)
(0.09658869 -0.012778475 0)
(0.10189295 -0.01288866 0)
(0.10723774 -0.013004899 0)
(0.11262699 -0.013127252 0)
(0.11805879 -0.013255718 0)
(0.12354682 -0.013390379 0)
(0.12906568 -0.013531363 0)
(0.13468309 -0.013677939 0)
(0.14025695 -0.013833131 0)
(0.14609076 -0.013987332 0)
(0.15159944 -0.014167038 0)
(0.15785144 -0.014306033 0)
(0.16306424 -0.014558147 0)
(0.16996869 -0.014587386 0)
(0.17481178 -0.015086835 0)
(0.18217398 -0.014724292 0)
(0.1872291 -0.01583035 0)
(0.19423462 -0.014804025 0)
(0.20023011 -0.016351458 0)
(0.20664207 -0.015615694 0)
(0.21332564 -0.015923031 0)
(0.21954081 -0.016970802 0)
(0.2267279 -0.016207269 0)
(0.23305161 -0.016662822 0)
(0.2398388 -0.017610449 0)
(0.24733678 -0.017221264 0)
(0.25393276 -0.017161622 0)
(0.26084228 -0.018172701 0)
(0.26856302 -0.018276253 0)
(0.27579492 -0.018231141 0)
(0.2829933 -0.018364698 0)
(0.29052218 -0.018982648 0)
(0.29823214 -0.019413263 0)
(0.3060177 -0.01944871 0)
(0.31387214 -0.019480889 0)
(0.32167365 -0.019696744 0)
(0.32947324 -0.020397224 0)
(0.3377653 -0.020896273 0)
(0.34630165 -0.020704287 0)
(0.35446236 -0.020665215 0)
(0.36266811 -0.021181209 0)
(0.37122518 -0.021680955 0)
(0.37978316 -0.021989577 0)
(0.38857094 -0.022292408 0)
(0.39773034 -0.022328926 0)
(0.40665092 -0.022271674 0)
(0.41524268 -0.022623078 0)
(0.42408865 -0.023233577 0)
(0.43348486 -0.023625212 0)
(0.44307208 -0.023731407 0)
(0.45257865 -0.023734903 0)
(0.46188293 -0.023970318 0)
(0.47126666 -0.02423005 0)
(0.48075433 -0.024435201 0)
(0.49042347 -0.024721708 0)
(0.50031321 -0.02491994 0)
(0.51024204 -0.025163254 0)
(0.52026795 -0.025391797 0)
(0.53030878 -0.025644582 0)
(0.54031259 -0.025854322 0)
(0.55046301 -0.02594352 0)
(0.56066085 -0.025886129 0)
(0.57085702 -0.02599429 0)
(0.581165 -0.026130041 0)
(0.5914512 -0.026327028 0)
(0.60177198 -0.026685729 0)
(0.61235608 -0.02700809 0)
(0.6230714 -0.027044739 0)
(0.63366053 -0.026910034 0)
(0.64428885 -0.026783181 0)
(0.65480174 -0.026514364 0)
(0.66499672 -0.026732438 0)
(0.67552853 -0.027154031 0)
(0.6861336 -0.027321465 0)
(0.69671484 -0.027349987 0)
(0.70748254 -0.02695206 0)
(0.71808438 -0.026415257 0)
(0.72848811 -0.026182563 0)
(0.73896117 -0.026207946 0)
(0.74943254 -0.02646346 0)
(0.75989541 -0.026973781 0)
(0.77060586 -0.027385292 0)
(0.78128936 -0.027314245 0)
(0.7915883 -0.026848047 0)
(0.80164425 -0.02627045 0)
(0.8116696 -0.025537416 0)
(0.82161739 -0.024882411 0)
(0.83142283 -0.024473111 0)
(0.84117803 -0.024223411 0)
(0.85098816 -0.02417554 0)
(0.86084869 -0.024561411 0)
(0.87081596 -0.025278345 0)
(0.88090626 -0.025867893 0)
(0.8911888 -0.025848035 0)
(0.90142626 -0.025034702 0)
(0.91120618 -0.023767261 0)
(0.92033105 -0.022640593 0)
(0.92881987 -0.022308922 0)
(0.93694972 -0.022906032 0)
(0.9454134 -0.023803019 0)
(0.95463604 -0.024061483 0)
(0.96445622 -0.023297134 0)
(0.97427872 -0.021639642 0)
(0.98339121 -0.019663199 0)
(0.99157468 -0.01811975 0)
(0.99910913 -0.017454684 0)
(1.0065112 -0.017727062 0)
(1.0142704 -0.018813516 0)
(1.0225387 -0.020473364 0)
(1.0310617 -0.02222071 0)
(1.0395235 -0.023399217 0)
(1.0478561 -0.023198445 0)
(1.0561245 -0.020915061 0)
(1.0641014 -0.016615473 0)
(1.0711374 -0.011559449 0)
(1.0767348 -0.0075053291 0)
(1.0812822 -0.005831924 0)
(1.0856665 -0.0068759886 0)
(1.0908513 -0.0098256226 0)
(1.0972476 -0.013288376 0)
(1.1049812 -0.015837196 0)
(1.113219 -0.016485175 0)
(1.1210009 -0.015063715 0)
(1.1276998 -0.012278391 0)
(1.1330646 -0.0091254118 0)
(1.1369945 -0.0064920446 0)
(1.1395056 -0.0046204925 0)
(1.1408409 -0.0034293978 0)
(1.141722 -0.0028630447 0)
(1.1431583 -0.0033366003 0)
(1.1461005 -0.0053428854 0)
(1.1506379 -0.0091815322 0)
(1.1560873 -0.014143495 0)
(1.1609421 -0.017970657 0)
(1.1644354 -0.019123669 0)
(1.1663779 -0.017404435 0)
(1.1679847 -0.014111546 0)
(1.1718073 -0.012070347 0)
(1.1800456 -0.013767326 0)
(1.1937457 -0.020134757 0)
(1.2127852 -0.02875608 0)
(1.2350531 -0.033565142 0)
(1.2583175 -0.037088687 0)
(1.2754272 -0.04269119 0)
(1.2846231 -0.049680817 0)
(1.280228 -0.048135367 0)
(1.2502186 -0.012062392 0)
(1.1697092 0.032961832 0)
(1.0088815 0.063162439 0)
(0.81119259 0.11347547 0)
(0.70347391 0.46511028 0)
(0.53116319 0.47065087 0)
(0.51746746 0.3796759 0)
(0.4903899 0.26553669 0)
(0.44838391 0.18685612 0)
(0.40510719 0.1370385 0)
(0.36582391 0.10439821 0)
(0.33165376 0.082233104 0)
(0.30230686 0.066638684 0)
(0.27710036 0.055275816 0)
(0.25532284 0.04673089 0)
(0.23635713 0.040126047 0)
(0.21970189 0.034899305 0)
(0.20495866 0.030679738 0)
(0.19181142 0.027215106 0)
(0.18001018 0.024329373 0)
(0.16935094 0.021893556 0)
(0.15967757 0.019827669 0)
(0.15085747 0.018027201 0)
(0.14276477 0.016481153 0)
(0.13532103 0.015128696 0)
(0.12845476 0.013937327 0)
(0.12209674 0.012882388 0)
(0.11619022 0.011943523 0)
(0.11068795 0.011104684 0)
(0.10554918 0.010351727 0)
(0.10073817 0.0096725803 0)
(0.096227238 0.0090571072 0)
(0.091986037 0.0085017836 0)
(0.087988397 0.0079958764 0)
(0.084217982 0.0075318131 0)
(0.080655873 0.0071073539 0)
(0.077283717 0.0067188564 0)
(0.074088582 0.0063638622 0)
(0.071053156 0.006027637 0)
(0.068162792 0.0057263391 0)
(0.065413691 0.0054459211 0)
(0.062794144 0.0051849233 0)
(0.060293491 0.0049422761 0)
(0.057903368 0.0047166015 0)
(0.055616557 0.0045064744 0)
(0.053426152 0.0043107026 0)
(0.051325957 0.0041280826 0)
(0.049307448 0.0039574619 0)
(0.047370811 0.0037990941 0)
(0.045510092 0.0036486994 0)
(0.043716698 0.0035122509 0)
(0.041989643 0.0033784161 0)
(0.040322019 0.0032548444 0)
(0.038712379 0.0031393061 0)
(0.037155391 0.0030612646 0)
(0.035648613 0.0029366611 0)
(0.034192871 0.0028055473 0)
(0.032782755 0.0027388178 0)
(0.031414352 0.0026586698 0)
(0.030085635 0.0025792142 0)
(0.028794609 0.002503689 0)
(0.027539244 0.0024325162 0)
(0.026317485 0.0023655596 0)
(0.025127324 0.0023025969 0)
(0.023966905 0.0022434121 0)
(0.022833943 0.0021878966 0)
(0.021728644 0.0021361702 0)
(0.020648811 0.0020868064 0)
(0.01959093 0.0020405781 0)
(0.018554936 0.0019974313 0)
(0.017539728 0.001957164 0)
(0.016544136 0.0019194415 0)
(0.015565869 0.0018828192 0)
(0.014604122 0.0018510766 0)
(0.013658718 0.0018206742 0)
(0.012727619 0.0017916361 0)
(0.011810728 0.0017564715 0)
(0.010906341 0.0017405139 0)
(0.010012422 0.0017196497 0)
(0.0091288824 0.0017001279 0)
(0.0082550607 0.001687517 0)
(0.0073899415 0.0016659574 0)
(0.0065317606 0.0016513339 0)
(0.0056802843 0.0016382305 0)
(0.0048350771 0.0016267109 0)
(0.003995157 0.0016167901 0)
(0.0031613953 0.0016040488 0)
(0.0023361389 0.0015794207 0)
(0.0015292918 0.0015196779 0)
(0.000764875 0.0013605844 0)
(0.00014645895 0.00087621345 0)
(0.0012791753 -0.011661021 0)
(0.005595934 -0.015820714 0)
(0.01051347 -0.016602071 0)
(0.015431066 -0.016773032 0)
(0.02037966 -0.016825711 0)
(0.025338528 -0.016858171 0)
(0.030304662 -0.016891668 0)
(0.035279891 -0.016931136 0)
(0.040266283 -0.016977591 0)
(0.045266138 -0.017030993 0)
(0.050281988 -0.017091216 0)
(0.05531617 -0.017158627 0)
(0.060370767 -0.017233368 0)
(0.065447868 -0.017315461 0)
(0.070549634 -0.017404957 0)
(0.075678252 -0.01750193 0)
(0.080835942 -0.017606479 0)
(0.08602496 -0.017718717 0)
(0.091247628 -0.017838789 0)
(0.096506227 -0.017966851 0)
(0.10180329 -0.018103037 0)
(0.1071407 -0.018247548 0)
(0.11252229 -0.01840033 0)
(0.11794666 -0.018562013 0)
(0.12342616 -0.018731199 0)
(0.12893902 -0.018911937 0)
(0.13454398 -0.019094097 0)
(0.14012018 -0.019301941 0)
(0.14592509 -0.019481422 0)
(0.15146484 -0.019744484 0)
(0.15764622 -0.019875393 0)
(0.16293614 -0.020261437 0)
(0.16974766 -0.020247392 0)
(0.17461917 -0.02089597 0)
(0.1820571 -0.020526384 0)
(0.18685375 -0.021726904 0)
(0.19424411 -0.020737853 0)
(0.19984678 -0.022395616 0)
(0.20646863 -0.021672149 0)
(0.21313963 -0.022051803 0)
(0.21929031 -0.023238634 0)
(0.22645027 -0.022477025 0)
(0.23281561 -0.022971446 0)
(0.2396999 -0.024064016 0)
(0.2470298 -0.023815355 0)
(0.25353353 -0.023670381 0)
(0.26078658 -0.024713194 0)
(0.26838067 -0.025168 0)
(0.27534917 -0.025116463 0)
(0.28270391 -0.025056727 0)
(0.29038221 -0.025949946 0)
(0.29810515 -0.026541207 0)
(0.30574489 -0.026605724 0)
(0.31338837 -0.02667511 0)
(0.32133349 -0.026932129 0)
(0.32959353 -0.027599321 0)
(0.33770948 -0.02835896 0)
(0.3457989 -0.028448164 0)
(0.35396405 -0.028274083 0)
(0.36249074 -0.028654933 0)
(0.37128833 -0.029187757 0)
(0.37977323 -0.029782405 0)
(0.38835256 -0.030479302 0)
(0.39730742 -0.030513489 0)
(0.40620088 -0.03012794 0)
(0.41511356 -0.030292455 0)
(0.42423568 -0.031202028 0)
(0.43355158 -0.032116568 0)
(0.44296467 -0.032361673 0)
(0.45232461 -0.032136019 0)
(0.4616242 -0.03217148 0)
(0.47109788 -0.03238599 0)
(0.4806361 -0.032812649 0)
(0.49040306 -0.033411194 0)
(0.50039548 -0.033670099 0)
(0.51041726 -0.033942176 0)
(0.52049475 -0.034059764 0)
(0.53036658 -0.034236943 0)
(0.54016455 -0.034513252 0)
(0.55026623 -0.034683656 0)
(0.56045278 -0.034674682 0)
(0.57079765 -0.034961086 0)
(0.5814016 -0.034995651 0)
(0.59190951 -0.035107167 0)
(0.6022825 -0.035534464 0)
(0.61294557 -0.035987937 0)
(0.62339938 -0.036065562 0)
(0.6337302 -0.035943004 0)
(0.64431454 -0.035727811 0)
(0.65483606 -0.035218915 0)
(0.66516543 -0.035376644 0)
(0.67581376 -0.035715476 0)
(0.6864592 -0.036017537 0)
(0.69702876 -0.036207352 0)
(0.70791212 -0.03583601 0)
(0.71869169 -0.035373901 0)
(0.72939462 -0.035003282 0)
(0.74017677 -0.034799868 0)
(0.75068971 -0.035007804 0)
(0.7608522 -0.035480824 0)
(0.7712169 -0.035766985 0)
(0.78154856 -0.035458763 0)
(0.79129929 -0.034675626 0)
(0.80102144 -0.034076684 0)
(0.81117715 -0.033498817 0)
(0.82153724 -0.032902066 0)
(0.83209486 -0.032513852 0)
(0.84277809 -0.032289183 0)
(0.85325053 -0.032132737 0)
(0.86339492 -0.032368463 0)
(0.87320837 -0.032955998 0)
(0.88257062 -0.033560877 0)
(0.8916477 -0.033635402 0)
(0.90086222 -0.03289724 0)
(0.91058871 -0.031307654 0)
(0.92050455 -0.02939275 0)
(0.92968378 -0.02806214 0)
(0.93793052 -0.028281303 0)
(0.94608245 -0.02962335 -2.7248242e-34)
(0.95464886 -0.031081225 -1.4621163e-29)
(0.96371224 -0.031303827 0)
(0.97332032 -0.029913241 0)
(0.98317942 -0.027513493 0)
(0.99273222 -0.025215604 0)
(1.0016579 -0.02382338 0)
(1.0101428 -0.023748328 0)
(1.0185996 -0.024706856 0)
(1.0271019 -0.026165755 0)
(1.0352721 -0.027495895 -1.7832219e-34)
(1.0426288 -0.028247155 -9.424418e-30)
(1.0490963 -0.027793585 -1.6283597e-34)
(1.0549728 -0.025648921 -8.8565883e-30)
(1.0607185 -0.02171586 0)
(1.0665838 -0.016841449 0)
(1.0727254 -0.012737768 0)
(1.079458 -0.011188629 0)
(1.0870137 -0.012682167 0)
(1.0952817 -0.016180375 0)
(1.1037938 -0.019841644 -9.145831e-35)
(1.1117948 -0.022019619 -4.4896871e-30)
(1.118623 -0.021714436 0)
(1.1239083 -0.019116104 0)
(1.1276487 -0.015412482 0)
(1.1303046 -0.011722174 0)
(1.1324439 -0.0085305821 0)
(1.134371 -0.0061928592 0)
(1.1364652 -0.0050849834 0)
(1.1395248 -0.0054341165 0)
(1.1441542 -0.0074817414 0)
(1.1502091 -0.011184225 0)
(1.1563661 -0.01548064 -2.305533e-34)
(1.1603139 -0.018406187 -1.3660119e-29)
(1.1615522 -0.019285532 0)
(1.1615286 -0.018670621 0)
(1.1642136 -0.017081495 0)
(1.1715708 -0.017716186 0)
(1.1844285 -0.022409984 0)
(1.2034989 -0.030445522 0)
(1.2269241 -0.04018138 0)
(1.2492112 -0.052291646 0)
(1.2616603 -0.061767349 5.6957648e-34)
(1.2682306 -0.07195267 4.1334745e-29)
(1.2514613 -0.064560811 0)
(1.2114421 -0.033067397 0)
(1.1483135 0.010316124 -4.5766183e-34)
(1.0237722 0.058670131 -1.7816614e-29)
(0.84512172 0.11879768 0)
(0.76271131 0.35560383 0)
(0.50863334 0.4798466 0)
(0.39751371 0.52705613 0)
(0.40772046 0.49360111 -1.5397051e-32)
(0.43166353 0.38462038 -5.3081706e-28)
(0.42773802 0.28973316 0)
(0.40630454 0.2217808 0)
(0.37825026 0.17281397 0)
(0.34930003 0.13743631 0)
(0.32191889 0.11157855 0)
(0.29698379 0.092347203 0)
(0.27465299 0.077752541 0)
(0.25476703 0.06644579 0)
(0.23705824 0.057513047 0)
(0.22124534 0.050328839 0)
(0.20706908 0.044458115 0)
(0.19430244 0.039592614 0)
(0.18275372 0.035510186 0)
(0.17225785 0.03204591 0)
(0.16268408 0.029082714 0)
(0.15391267 0.02651279 0)
(0.14583822 0.024276659 0)
(0.1383906 0.022321644 0)
(0.13150134 0.02059793 0)
(0.12510702 0.019068398 0)
(0.11915522 0.017704004 0)
(0.11360081 0.016483369 0)
(0.10840389 0.015386021 0)
(0.10353027 0.014393812 0)
(0.098955197 0.01349214 0)
(0.094650644 0.0126804 0)
(0.090587851 0.011932697 0)
(0.086750554 0.011251788 0)
(0.083122263 0.010629174 0)
(0.079684386 0.010057486 0)
(0.076423369 0.0095313161 0)
(0.073321801 0.0090419097 0)
(0.07036724 0.008592929 0)
(0.06755482 0.0081786847 0)
(0.064872839 0.007793799 0)
(0.062311005 0.0074355508 0)
(0.059860881 0.0071018783 0)
(0.057515247 0.0067907052 0)
(0.055267402 0.0065006514 0)
(0.053110527 0.0062302076 0)
(0.051039714 0.0059794385 -1.7276239e-34)
(0.049047849 0.0057027304 -9.2124463e-30)
(0.047127857 0.0055117851 0)
(0.045282375 0.0053110378 0)
(0.043505917 0.0051163157 0)
(0.04178855 0.0049327932 0)
(0.040127534 0.0047604934 0)
(0.038523258 0.0045993521 0)
(0.036973781 0.0044473607 0)
(0.035469601 0.0042992695 0)
(0.034009509 0.0041672224 0)
(0.032595028 0.0040414954 0)
(0.031222184 0.0039220895 0)
(0.029887858 0.0038093132 0)
(0.028589705 0.0037030361 0)
(0.027325724 0.0036029702 0)
(0.026094013 0.0035088197 0)
(0.0248927 0.0034203398 0)
(0.023720296 0.0033366961 -7.1704611e-35)
(0.022574314 0.0032416494 -3.8031439e-30)
(0.021453343 0.0031827711 0)
(0.020356822 0.0031158665 0)
(0.019282866 0.003051216 0)
(0.018229969 0.0029904697 0)
(0.017196852 0.00293346 0)
(0.01618137 0.0028798547 0)
(0.015182893 0.0028309346 0)
(0.014201172 0.0027854575 0)
(0.013234399 0.0027429862 0)
(0.012281221 0.0027026011 0)
(0.011340601 0.0026672942 0)
(0.010411716 0.0026342278 0)
(0.0094934833 0.0026033983 -2.7571922e-35)
(0.0085847711 0.0025696116 -1.3928419e-30)
(0.0076847487 0.0025516293 2.2217151e-35)
(0.0067929059 0.0025363831 1.0998473e-30)
(0.0059080201 0.0025119489 0)
(0.0050287813 0.0024942889 0)
(0.0041551037 0.0024780728 -1.2025035e-35)