/*--------------------------------*- C++ -*----------------------------------*\
| =========                 |                                                 |
| \\      /  F ield         | OpenFOAM: The Open Source CFD Toolbox           |
|  \\    /   O peration     | Version:  2106                                  |
|   \\  /    A nd           | Website:  www.openfoam.com                      |
|    \\/     M anipulation  |                                                 |
\*---------------------------------------------------------------------------*/
FoamFile
{
    version     2.0;
    format      ascii;
    arch        "LSB;label=32;scalar=64";
    class       volVectorField;
    location    "0.022";
    object      U;
}
// * * * * * * * * * * * * * * * * * * * * * * * * * * * * * * * * * * * * * //

dimensions      [0 1 -1 0 0 0 0];

internalField   nonuniform List<vector> 
4096
(
(0.0048905803 -0.0048638109 0)
(0.014622843 -0.0048151973 0)
(0.024208959 -0.0047185128 0)
(0.033553311 -0.0045748335 0)
(0.04256297 -0.0043857508 0)
(0.051148703 -0.0041533451 0)
(0.059225932 -0.003880153 0)
(0.066715604 -0.0035691286 0)
(0.073544992 -0.0032236011 0)
(0.079648403 -0.0028472289 0)
(0.084967788 -0.0024439528 0)
(0.089453262 -0.0020179476 0)
(0.093063525 -0.0015735742 0)
(0.095766188 -0.001115331 0)
(0.097538002 -0.00064780604 0)
(0.098364988 -0.00017563016 0)
(0.098242379 0.00029658068 0)
(0.09717507 0.00076419224 0)
(0.095176222 0.0012228771 0)
(0.092268685 0.0016681915 0)
(0.088483372 0.0020960201 0)
(0.083859416 0.0025024528 0)
(0.078443552 0.0028838326 0)
(0.072289574 0.0032367895 0)
(0.065457731 0.0035582635 0)
(0.058014092 0.0038455216 0)
(0.05002987 0.0040961689 0)
(0.041580733 0.0043081548 0)
(0.032746118 0.0044797756 0)
(0.023608523 0.0046096733 0)
(0.014252826 0.0046968333 0)
(0.0047655946 0.0047405815 0)
(-0.0047655946 0.0047405815 0)
(-0.014252826 0.0046968333 0)
(-0.023608523 0.0046096733 0)
(-0.032746118 0.0044797756 0)
(-0.041580733 0.0043081548 0)
(-0.05002987 0.0040961689 0)
(-0.058014092 0.0038455216 0)
(-0.065457731 0.0035582635 0)
(-0.072289574 0.0032367895 0)
(-0.078443552 0.0028838326 0)
(-0.083859416 0.0025024528 0)
(-0.088483372 0.0020960201 0)
(-0.092268685 0.0016681915 0)
(-0.095176222 0.0012228771 0)
(-0.09717507 0.00076419224 0)
(-0.098242379 0.00029658068 0)
(-0.098364988 -0.00017563016 0)
(-0.097538002 -0.00064780604 0)
(-0.095766188 -0.001115331 0)
(-0.093063525 -0.0015735742 0)
(-0.089453262 -0.0020179476 0)
(-0.084967788 -0.0024439528 0)
(-0.079648403 -0.0028472289 0)
(-0.073544992 -0.0032236011 0)
(-0.066715604 -0.0035691286 0)
(-0.059225932 -0.003880153 0)
(-0.051148703 -0.0041533451 0)
(-0.04256297 -0.0043857508 0)
(-0.033553311 -0.0045748335 0)
(-0.024208959 -0.0047185128 0)
(-0.014622843 -0.0048151973 0)
(-0.0048905803 -0.0048638109 0)
(0.0049817936 -0.014660232 0)
(0.014895552 -0.014513686 0)
(0.024660381 -0.01422223 0)
(0.03417885 -0.013789112 0)
(0.043356271 -0.013219131 0)
(0.052101736 -0.012518563 0)
(0.060329082 -0.011695058 0)
(0.06795779 -0.010757525 0)
(0.074913788 -0.0097160005 0)
(0.081130174 -0.0085815141 0)
(0.086547837 -0.0073659448 0)
(0.091115981 -0.0060818769 0)
(0.094792552 -0.0047424546 0)
(0.097544572 -0.0033612369 0)
(0.09934837 -0.0019520542 0)
(0.10018972 -0.00052886754 0)
(0.10006384 0.00089437168 0)
(0.098975469 0.0023039294 0)
(0.096938473 0.0036863429 0)
(0.093975876 0.0050285023 0)
(0.090119291 0.0063179464 0)
(0.085408625 0.0075428775 0)
(0.079891538 0.0086922737 0)
(0.073622879 0.0097559802 0)
(0.066664067 0.010724779 0)
(0.059082432 0.011590439 0)
(0.050950529 0.012345749 0)
(0.042345431 0.01298454 0)
(0.033348022 0.013501683 0)
(0.024042291 0.013893095 0)
(0.014514625 0.014155724 0)
(0.0048531172 0.014287544 0)
(-0.0048531172 0.014287544 0)
(-0.014514625 0.014155724 0)
(-0.024042291 0.013893095 0)
(-0.033348022 0.013501683 0)
(-0.042345431 0.01298454 0)
(-0.050950529 0.012345749 0)
(-0.059082432 0.011590439 0)
(-0.066664067 0.010724779 0)
(-0.073622879 0.0097559802 0)
(-0.079891538 0.0086922737 0)
(-0.085408625 0.0075428775 0)
(-0.090119291 0.0063179464 0)
(-0.093975876 0.0050285023 0)
(-0.096938473 0.0036863429 0)
(-0.098975469 0.0023039294 0)
(-0.10006384 0.00089437168 0)
(-0.10018972 -0.00052886754 0)
(-0.09934837 -0.0019520542 0)
(-0.097544572 -0.0033612369 0)
(-0.094792552 -0.0047424546 0)
(-0.091115981 -0.0060818769 0)
(-0.086547837 -0.0073659448 0)
(-0.081130174 -0.0085815141 0)
(-0.074913788 -0.0097160005 0)
(-0.06795779 -0.010757525 0)
(-0.060329082 -0.011695058 0)
(-0.052101736 -0.012518563 0)
(-0.043356271 -0.013219131 0)
(-0.03417885 -0.013789112 0)
(-0.024660381 -0.01422223 0)
(-0.014895552 -0.014513686 0)
(-0.0049817936 -0.014660232 0)
(0.0051398193 -0.024722351 0)
(0.015368036 -0.024475176 0)
(0.025442567 -0.023983593 0)
(0.035262871 -0.023253084 0)
(0.044731251 -0.022291757 0)
(0.053753914 -0.021110207 0)
(0.062241976 -0.019721346 0)
(0.070112376 -0.018140206 0)
(0.077288713 -0.016383721 0)
(0.083701977 -0.014470492 0)
(0.089291192 -0.012420549 0)
(0.094003951 -0.01025511 0)
(0.097796857 -0.0079963345 0)
(0.10063587 -0.0056670845 0)
(0.10249653 -0.0032906801 0)
(0.10336413 -0.00089066035 0)
(0.10323375 0.0015094607 0)
(0.10211019 0.0038864597 0)
(0.10000786 0.006217604 0)
(0.096950476 0.0084808477 0)
(0.092970724 0.010655133 0)
(0.088109838 0.01272055 0)
(0.082417063 0.014658509 0)
(0.075949072 0.016451891 0)
(0.068769309 0.018085163 0)
(0.060947303 0.019544468 0)
(0.052557954 0.020817673 0)
(0.043680796 0.021894402 0)
(0.034399263 0.022766042 0)
(0.024799962 0.023425735 0)
(0.014971947 0.023868362 0)
(0.0050060119 0.024090523 0)
(-0.0050060119 0.024090523 0)
(-0.014971947 0.023868362 0)
(-0.024799962 0.023425735 0)
(-0.034399263 0.022766042 0)
(-0.043680796 0.021894402 0)
(-0.052557954 0.020817673 0)
(-0.060947303 0.019544468 0)
(-0.068769309 0.018085163 0)
(-0.075949072 0.016451891 0)
(-0.082417063 0.014658509 0)
(-0.088109838 0.01272055 0)
(-0.092970724 0.010655133 0)
(-0.096950476 0.0084808477 0)
(-0.10000786 0.006217604 0)
(-0.10211019 0.0038864597 0)
(-0.10323375 0.0015094607 0)
(-0.10336413 -0.00089066035 0)
(-0.10249653 -0.0032906801 0)
(-0.10063587 -0.0056670845 0)
(-0.097796857 -0.0079963345 0)
(-0.094003951 -0.01025511 0)
(-0.089291192 -0.012420549 0)
(-0.083701977 -0.014470492 0)
(-0.077288713 -0.016383721 0)
(-0.070112376 -0.018140206 0)
(-0.062241976 -0.019721346 0)
(-0.053753914 -0.021110207 0)
(-0.044731251 -0.022291757 0)
(-0.035262871 -0.023253084 0)
(-0.025442567 -0.023983593 0)
(-0.015368036 -0.024475176 0)
(-0.0051398193 -0.024722351 0)
(0.0053659191 -0.035166896 0)
(0.016044069 -0.034815252 0)
(0.026561761 -0.034115906 0)
(0.036814032 -0.03307667 0)
(0.046698895 -0.031709091 0)
(0.056118449 -0.030028258 0)
(0.064979922 -0.028052553 0)
(0.073196628 -0.025803365 0)
(0.080688828 -0.023304783 0)
(0.087384493 -0.020583262 0)
(0.093219961 -0.017667279 0)
(0.098140501 -0.014587001 0)
(0.10210076 -0.011373931 0)
(0.10506515 -0.0080605744 0)
(0.10700805 -0.0046800967 0)
(0.10791405 -0.0012659816 0)
(0.10777793 0.0021483133 0)
(0.10660467 0.0055297075 0)
(0.10440927 0.0088458215 0)
(0.10121653 0.012065293 0)
(0.097060617 0.015158126 0)
(0.091984668 0.018095969 0)
(0.086040205 0.020852362 0)
(0.079286512 0.023402955 0)
(0.071789945 0.025725671 0)
(0.0636232 0.027800827 0)
(0.054864547 0.029611211 0)
(0.045597061 0.031142115 0)
(0.035907848 0.032381344 0)
(0.025887281 0.033319193 0)
(0.01562825 0.033948427 0)
(0.0052254324 0.034264241 0)
(-0.0052254324 0.034264241 0)
(-0.01562825 0.033948427 0)
(-0.025887281 0.033319193 0)
(-0.035907848 0.032381344 0)
(-0.045597061 0.031142115 0)
(-0.054864547 0.029611211 0)
(-0.0636232 0.027800827 0)
(-0.071789945 0.025725671 0)
(-0.079286512 0.023402955 0)
(-0.086040205 0.020852362 0)
(-0.091984668 0.018095969 0)
(-0.097060617 0.015158126 0)
(-0.10121653 0.012065293 0)
(-0.10440927 0.0088458215 0)
(-0.10660467 0.0055297075 0)
(-0.10777793 0.0021483133 0)
(-0.10791405 -0.0012659816 0)
(-0.10700805 -0.0046800967 0)
(-0.10506515 -0.0080605744 0)
(-0.10210076 -0.011373931 0)
(-0.098140501 -0.014587001 0)
(-0.093219961 -0.017667279 0)
(-0.087384493 -0.020583262 0)
(-0.080688828 -0.023304783 0)
(-0.073196628 -0.025803365 0)
(-0.064979922 -0.028052553 0)
(-0.056118449 -0.030028258 0)
(-0.046698895 -0.031709091 0)
(-0.036814032 -0.03307667 0)
(-0.026561761 -0.034115906 0)
(-0.016044069 -0.034815252 0)
(-0.0053659191 -0.035166896 0)
(0.0056627783 -0.046130463 0)
(0.016931682 -0.045669159 0)
(0.028031267 -0.044751733 0)
(0.038850784 -0.043388447 0)
(0.049282632 -0.041594471 0)
(0.05922353 -0.039389615 0)
(0.068575617 -0.036798006 0)
(0.077247452 -0.033847707 0)
(0.085154917 -0.030570306 0)
(0.092222008 -0.027000482 0)
(0.098381528 -0.023175561 0)
(0.10357567 -0.019135073 0)
(0.10775649 -0.014920306 0)
(0.11088632 -0.010573869 0)
(0.112938 -0.0061392534 0)
(0.11389512 -0.0016603846 0)
(0.11375205 0.0028188211 0)
(0.11251397 0.0072549129 0)
(0.11019667 0.011605349 0)
(0.10682631 0.015828932 0)
(0.10243902 0.019886247 0)
(0.097080433 0.023740045 0)
(0.090805084 0.027355585 0)
(0.083675709 0.030700913 0)
(0.075762512 0.033747092 0)
(0.067142369 0.03646835 0)
(0.057898004 0.038842176 0)
(0.048117161 0.040849362 0)
(0.03789178 0.042473999 0)
(0.027317193 0.043703445 0)
(0.016491335 0.044528278 0)
(0.0055139847 0.044942252 0)
(-0.0055139847 0.044942252 0)
(-0.016491335 0.044528278 0)
(-0.027317193 0.043703445 0)
(-0.03789178 0.042473999 0)
(-0.048117161 0.040849362 0)
(-0.057898004 0.038842176 0)
(-0.067142369 0.03646835 0)
(-0.075762512 0.033747092 0)
(-0.083675709 0.030700913 0)
(-0.090805084 0.027355585 0)
(-0.097080433 0.023740045 0)
(-0.10243902 0.019886247 0)
(-0.10682631 0.015828932 0)
(-0.11019667 0.011605349 0)
(-0.11251397 0.0072549129 0)
(-0.11375205 0.0028188211 0)
(-0.11389512 -0.0016603846 0)
(-0.112938 -0.0061392534 0)
(-0.11088632 -0.010573869 0)
(-0.10775649 -0.014920306 0)
(-0.10357567 -0.019135073 0)
(-0.098381528 -0.023175561 0)
(-0.092222008 -0.027000482 0)
(-0.085154917 -0.030570306 0)
(-0.077247452 -0.033847707 0)
(-0.068575617 -0.036798006 0)
(-0.05922353 -0.039389615 0)
(-0.049282632 -0.041594471 0)
(-0.038850784 -0.043388447 0)
(-0.028031267 -0.044751733 0)
(-0.016931682 -0.045669159 0)
(-0.0056627783 -0.046130463 0)
(0.0060345896 -0.057758361 0)
(0.018043413 -0.057180775 0)
(0.029871856 -0.056032102 0)
(0.041401941 -0.054325215 0)
(0.052519055 -0.052079132 0)
(0.063113202 -0.049318679 0)
(0.073080158 -0.046074075 0)
(0.082322539 -0.042380452 0)
(0.090750742 -0.038277333 0)
(0.098283783 -0.033808092 0)
(0.10485002 -0.0290194 0)
(0.11038776 -0.023960679 0)
(0.11484579 -0.018683557 0)
(0.11818377 -0.013241331 0)
(0.12037258 -0.0076884272 0)
(0.12139451 -0.0020798545 0)
(0.12124338 0.0035293523 0)
(0.11992455 0.0090847021 0)
(0.11745477 0.014532817 0)
(0.11386192 0.019821999 0)
(0.10918459 0.024902779 0)
(0.10347157 0.02972842 0)
(0.096781171 0.034255357 0)
(0.089180507 0.038443563 0)
(0.080744642 0.042256829 0)
(0.071555726 0.045662957 0)
(0.061702095 0.048633867 0)
(0.051277364 0.051145638 0)
(0.040379548 0.053178487 0)
(0.029110195 0.05471672 0)
(0.017573559 0.055748653 0)
(0.0058757974 0.056266547 0)
(-0.0058757974 0.056266547 0)
(-0.017573559 0.055748653 0)
(-0.029110195 0.05471672 0)
(-0.040379548 0.053178487 0)
(-0.051277364 0.051145638 0)
(-0.061702095 0.048633867 0)
(-0.071555726 0.045662957 0)
(-0.080744642 0.042256829 0)
(-0.089180507 0.038443563 0)
(-0.096781171 0.034255357 0)
(-0.10347157 0.02972842 0)
(-0.10918459 0.024902779 0)
(-0.11386192 0.019821999 0)
(-0.11745477 0.014532817 0)
(-0.11992455 0.0090847021 0)
(-0.12124338 0.0035293523 0)
(-0.12139451 -0.0020798545 0)
(-0.12037258 -0.0076884272 0)
(-0.11818377 -0.013241331 0)
(-0.11484579 -0.018683557 0)
(-0.11038776 -0.023960679 0)
(-0.10485002 -0.0290194 0)
(-0.098283783 -0.033808092 0)
(-0.090750742 -0.038277333 0)
(-0.082322539 -0.042380452 0)
(-0.073080158 -0.046074075 0)
(-0.063113202 -0.049318679 0)
(-0.052519055 -0.052079132 0)
(-0.041401941 -0.054325215 0)
(-0.029871856 -0.056032102 0)
(-0.018043413 -0.057180775 0)
(-0.0060345896 -0.057758361 0)
(0.0064872761 -0.070205253 0)
(0.019396979 -0.069503246 0)
(0.032112874 -0.068107145 0)
(0.044508213 -0.066032626 0)
(0.056459874 -0.063302835 0)
(0.067849704 -0.059947974 0)
(0.078565758 -0.056004777 0)
(0.088503425 -0.051515925 0)
(0.097566433 -0.046529407 0)
(0.10566773 -0.041097857 0)
(0.11273023 -0.035277895 0)
(0.11868748 -0.029129472 0)
(0.12348424 -0.02271523 0)
(0.12707687 -0.016099865 0)
(0.12943376 -0.0093494909 0)
(0.13053557 -0.0025309882 0)
(0.13037538 0.0042886684 0)
(0.12895873 0.011043106 0)
(0.1263035 0.017667263 0)
(0.12243965 0.024098103 0)
(0.11740878 0.030275302 0)
(0.11126355 0.03614189 0)
(0.10406694 0.041644803 0)
(0.095891434 0.04673535 0)
(0.086818083 0.051369548 0)
(0.076935515 0.055508361 0)
(0.066338941 0.059117815 0)
(0.055129165 0.062169024 0)
(0.043411613 0.064638151 0)
(0.031295405 0.066506317 0)
(0.018892476 0.06775949 0)
(0.0063167363 0.068388387 0)
(-0.0063167363 0.068388387 0)
(-0.018892476 0.06775949 0)
(-0.031295405 0.066506317 0)
(-0.043411613 0.064638151 0)
(-0.055129165 0.062169024 0)
(-0.066338941 0.059117815 0)
(-0.076935515 0.055508361 0)
(-0.086818083 0.051369548 0)
(-0.095891434 0.04673535 0)
(-0.10406694 0.041644803 0)
(-0.11126355 0.03614189 0)
(-0.11740878 0.030275302 0)
(-0.12243965 0.024098103 0)
(-0.1263035 0.017667263 0)
(-0.12895873 0.011043106 0)
(-0.13037538 0.0042886684 0)
(-0.13053557 -0.0025309882 0)
(-0.12943376 -0.0093494909 0)
(-0.12707687 -0.016099865 0)
(-0.12348424 -0.02271523 0)
(-0.11868748 -0.029129472 0)
(-0.11273023 -0.035277895 0)
(-0.10566773 -0.041097857 0)
(-0.097566433 -0.046529407 0)
(-0.088503425 -0.051515925 0)
(-0.078565758 -0.056004777 0)
(-0.067849704 -0.059947974 0)
(-0.056459874 -0.063302835 0)
(-0.044508213 -0.066032626 0)
(-0.032112874 -0.068107145 0)
(-0.019396979 -0.069503246 0)
(-0.0064872762 -0.070205253 0)
(0.0070288398 -0.083639288 0)
(0.021016311 -0.08280308 0)
(0.034793966 -0.08114011 0)
(0.048224598 -0.078669088 0)
(0.06117494 -0.075417626 0)
(0.073517114 -0.071421724 0)
(0.085129964 -0.066725144 0)
(0.095900255 -0.061378684 0)
(0.10572374 -0.055439421 0)
(0.1145061 -0.048969921 0)
(0.12216371 -0.042037463 0)
(0.1286244 -0.034713279 0)
(0.133828 -0.02707182 0)
(0.13772687 -0.019190029 0)
(0.14028632 -0.011146608 0)
(0.14148496 -0.0030212617 0)
(0.14131489 0.0051060928 0)
(0.13978181 0.013156167 0)
(0.13690492 0.021051169 0)
(0.13271665 0.028715689 0)
(0.12726221 0.036077558 0)
(0.12059895 0.043068651 0)
(0.11279552 0.049625581 0)
(0.1039309 0.055690267 0)
(0.094093394 0.061210357 0)
(0.083379455 0.066139487 0)
(0.07189259 0.070437407 0)
(0.059742242 0.074069987 0)
(0.047042727 0.077009128 0)
(0.033912226 0.07923263 0)
(0.020471848 0.080724022 0)
(0.0068447414 0.081472424 0)
(-0.0068447414 0.081472424 0)
(-0.020471848 0.080724022 0)
(-0.033912226 0.07923263 0)
(-0.047042727 0.077009128 0)
(-0.059742242 0.074069987 0)
(-0.07189259 0.070437407 0)
(-0.083379455 0.066139487 0)
(-0.094093394 0.061210357 0)
(-0.1039309 0.055690267 0)
(-0.11279552 0.049625581 0)
(-0.12059895 0.043068651 0)
(-0.12726221 0.036077558 0)
(-0.13271665 0.028715689 0)
(-0.13690492 0.021051169 0)
(-0.13978181 0.013156167 0)
(-0.14131489 0.0051060928 0)
(-0.14148496 -0.0030212617 0)
(-0.14028632 -0.011146608 0)
(-0.13772687 -0.019190029 0)
(-0.133828 -0.02707182 0)
(-0.1286244 -0.034713279 0)
(-0.12216371 -0.042037463 0)
(-0.1145061 -0.048969921 0)
(-0.10572374 -0.055439421 0)
(-0.095900255 -0.061378684 0)
(-0.085129964 -0.066725144 0)
(-0.073517114 -0.071421724 0)
(-0.06117494 -0.075417626 0)
(-0.048224598 -0.078669088 0)
(-0.034793966 -0.08114011 0)
(-0.021016311 -0.08280308 0)
(-0.0070288398 -0.083639288 0)
(0.0076697656 -0.098246874 0)
(0.02293277 -0.097264878 0)
(0.037967081 -0.09531201 0)
(0.052623158 -0.092410285 0)
(0.066755775 -0.088592176 0)
(0.080225586 -0.083899992 0)
(0.092900568 -0.07838511 0)
(0.10465731 -0.072107119 0)
(0.11538214 -0.06513291 0)
(0.12497211 -0.057535754 0)
(0.13333586 -0.049394411 0)
(0.14039436 -0.040792267 0)
(0.14608154 -0.031816506 0)
(0.15034489 -0.022557309 0)
(0.15314598 -0.013107028 0)
(0.15446085 -0.0035593324 0)
(0.15428034 0.0059917139 0)
(0.15261024 0.01545265 0)
(0.14947123 0.024731675 0)
(0.14489868 0.033739739 0)
(0.13894212 0.042391615 0)
(0.1316645 0.050606899 0)
(0.12314126 0.058310874 0)
(0.11345923 0.065435215 0)
(0.10271538 0.07191848 0)
(0.091015552 0.077706414 0)
(0.078473143 0.082752064 0)
(0.065207882 0.08701574 0)
(0.051344632 0.090464867 0)
(0.037012297 0.093073779 0)
(0.022342813 0.09482348 0)
(0.0074702176 0.095701442 0)
(-0.0074702176 0.095701442 0)
(-0.022342813 0.09482348 0)
(-0.037012297 0.093073779 0)
(-0.051344632 0.090464867 0)
(-0.065207882 0.08701574 0)
(-0.078473143 0.082752064 0)
(-0.091015552 0.077706414 0)
(-0.10271538 0.07191848 0)
(-0.11345923 0.065435215 0)
(-0.12314126 0.058310874 0)
(-0.1316645 0.050606899 0)
(-0.13894212 0.042391615 0)
(-0.14489868 0.033739739 0)
(-0.14947123 0.024731675 0)
(-0.15261024 0.01545265 0)
(-0.15428034 0.0059917139 0)
(-0.15446085 -0.0035593324 0)
(-0.15314598 -0.013107028 0)
(-0.15034489 -0.022557309 0)
(-0.14608154 -0.031816506 0)
(-0.14039436 -0.040792267 0)
(-0.13333586 -0.049394411 0)
(-0.12497211 -0.057535754 0)
(-0.11538214 -0.06513291 0)
(-0.10465731 -0.072107119 0)
(-0.092900568 -0.07838511 0)
(-0.080225586 -0.083899992 0)
(-0.066755775 -0.088592176 0)
(-0.052623158 -0.092410285 0)
(-0.037967081 -0.09531201 0)
(-0.02293277 -0.097264878 0)
(-0.0076697656 -0.098246874 0)
(0.0084233829 -0.11423804 0)
(0.025186221 -0.11309665 0)
(0.04169825 -0.11082683 0)
(0.057795491 -0.10745423 0)
(0.073318704 -0.10301665 0)
(0.088115113 -0.097563303 0)
(0.10203996 -0.091153866 0)
(0.11495791 -0.083857493 0)
(0.12674422 -0.075751727 0)
(0.13728581 -0.066921438 0)
(0.14648215 -0.057457804 0)
(0.15424609 -0.047457358 0)
(0.1605045 -0.037021084 0)
(0.16519904 -0.026253542 0)
(0.16828669 -0.01526198 0)
(0.16974031 -0.004155377 0)
(0.16954909 0.0069566127 0)
(0.16771881 0.01796484 0)
(0.16427186 0.028761939 0)
(0.15924702 0.039243679 0)
(0.15269893 0.049310294 0)
(0.14469724 0.058867738 0)
(0.13532553 0.067828759 0)
(0.12467997 0.076113756 0)
(0.11286792 0.083651368 0)
(0.10000635 0.090378801 0)
(0.08622042 0.09624192 0)
(0.071642022 0.10119514 0)
(0.056408448 0.10520119 0)
(0.040661205 0.1082308 0)
(0.024544923 0.11026236 0)
(0.0082063821 0.11128167 0)
(-0.0082063821 0.11128167 0)
(-0.024544923 0.11026236 0)
(-0.040661205 0.1082308 0)
(-0.056408448 0.10520119 0)
(-0.071642021 0.10119514 0)
(-0.08622042 0.09624192 0)
(-0.10000635 0.090378801 0)
(-0.11286792 0.083651368 0)
(-0.12467997 0.076113756 0)
(-0.13532553 0.067828759 0)
(-0.14469724 0.058867738 0)
(-0.15269893 0.049310294 0)
(-0.15924702 0.039243679 0)
(-0.16427186 0.028761939 0)
(-0.16771881 0.01796484 0)
(-0.16954909 0.0069566127 0)
(-0.16974031 -0.004155377 0)
(-0.16828669 -0.01526198 0)
(-0.16519904 -0.026253542 0)
(-0.1605045 -0.037021084 0)
(-0.15424609 -0.047457358 0)
(-0.14648215 -0.057457804 0)
(-0.13728581 -0.066921438 0)
(-0.12674422 -0.075751727 0)
(-0.11495791 -0.083857493 0)
(-0.10203996 -0.091153866 0)
(-0.088115113 -0.097563303 0)
(-0.073318704 -0.10301665 0)
(-0.057795491 -0.10745423 0)
(-0.04169825 -0.11082683 0)
(-0.025186221 -0.11309665 0)
(-0.0084233829 -0.11423804 0)
(0.0093060486 -0.13185239 0)
(0.027825582 -0.13053571 0)
(0.046068505 -0.12791733 0)
(0.063853986 -0.12402691 0)
(0.081006444 -0.11890814 0)
(0.097357435 -0.1126178 0)
(0.11274735 -0.10522469 0)
(0.12702691 -0.096808415 0)
(0.14005845 -0.087458134 0)
(0.151717 -0.077271322 0)
(0.16189128 -0.066352646 0)
(0.17048449 -0.05481291 0)
(0.17741518 -0.042768105 0)
(0.18261792 -0.030338491 0)
(0.18604416 -0.017647652 0)
(0.18766284 -0.0048214615 0)
(0.18746101 0.0080131205 0)
(0.18544429 0.020729429 0)
(0.18163696 0.033202653 0)
(0.17608179 0.0453115 0)
(0.16883949 0.056939871 0)
(0.15998766 0.067978426 0)
(0.14961958 0.07832593 0)
(0.13784257 0.087890294 0)
(0.12477632 0.096589269 0)
(0.11055104 0.10435079 0)
(0.095305785 0.11111302 0)
(0.079186762 0.11682412 0)
(0.062345865 0.1214419 0)
(0.044939348 0.12493338 0)
(0.027126664 0.12727428 0)
(0.0090694383 0.12844868 0)
(-0.0090694383 0.12844868 0)
(-0.027126664 0.12727428 0)
(-0.044939348 0.12493338 0)
(-0.062345865 0.1214419 0)
(-0.079186762 0.11682412 0)
(-0.095305785 0.11111302 0)
(-0.11055104 0.10435079 0)
(-0.12477632 0.096589269 0)
(-0.13784257 0.087890294 0)
(-0.14961958 0.07832593 0)
(-0.15998766 0.067978426 0)
(-0.16883949 0.056939871 0)
(-0.17608179 0.0453115 0)
(-0.18163696 0.033202653 0)
(-0.18544429 0.020729429 0)
(-0.18746101 0.0080131205 0)
(-0.18766284 -0.0048214615 0)
(-0.18604416 -0.017647652 0)
(-0.18261792 -0.030338491 0)
(-0.17741518 -0.042768105 0)
(-0.17048449 -0.05481291 0)
(-0.16189128 -0.066352646 0)
(-0.151717 -0.077271322 0)
(-0.14005845 -0.087458134 0)
(-0.12702691 -0.096808415 0)
(-0.11274735 -0.10522469 0)
(-0.097357435 -0.1126178 0)
(-0.081006444 -0.11890814 0)
(-0.063853986 -0.12402691 0)
(-0.046068505 -0.12791733 0)
(-0.027825582 -0.13053571 0)
(-0.0093060486 -0.13185239 0)
(0.010336981 -0.15136524 0)
(0.030908329 -0.14985472 0)
(0.051173042 -0.14685095 0)
(0.070930683 -0.14238803 0)
(0.089986654 -0.13651615 0)
(0.10815429 -0.12930048 0)
(0.12525669 -0.12081987 0)
(0.14112836 -0.1111654 0)
(0.15561656 -0.10043894 0)
(0.16858246 -0.088751724 0)
(0.17990213 -0.076223101 0)
(0.18946748 -0.062979423 0)
(0.19718711 -0.049153054 0)
(0.20298719 -0.034881449 0)
(0.20681241 -0.020306196 0)
(0.20862689 -0.0055719166 0)
(0.20841497 0.0091750818 0)
(0.20618188 0.023788429 0)
(0.20195399 0.038123587 0)
(0.19577873 0.052039924 0)
(0.18772392 0.065402827 0)
(0.17787667 0.078085672 0)
(0.16634175 0.089971507 0)
(0.15323977 0.10095433 0)
(0.13870504 0.11093988 0)
(0.12288344 0.119846 0)
(0.10593038 0.12760258 0)
(0.088008912 0.13415119 0)
(0.069288005 0.13944453 0)
(0.049941123 0.14344576 0)
(0.030144965 0.14612793 0)
(0.010078411 0.14747337 0)
(-0.010078411 0.14747337 0)
(-0.030144965 0.14612793 0)
(-0.049941123 0.14344576 0)
(-0.069288005 0.13944453 0)
(-0.088008912 0.13415119 0)
(-0.10593038 0.12760258 0)
(-0.12288344 0.119846 0)
(-0.13870504 0.11093988 0)
(-0.15323977 0.10095433 0)
(-0.16634175 0.089971507 0)
(-0.17787667 0.078085672 0)
(-0.18772392 0.065402827 0)
(-0.19577873 0.052039924 0)
(-0.20195399 0.038123587 0)
(-0.20618188 0.023788429 0)
(-0.20841497 0.0091750818 0)
(-0.20862689 -0.0055719166 0)
(-0.20681241 -0.020306196 0)
(-0.20298719 -0.034881449 0)
(-0.19718711 -0.049153054 0)
(-0.18946748 -0.062979423 0)
(-0.17990213 -0.076223101 0)
(-0.16858246 -0.088751724 0)
(-0.15561656 -0.10043894 0)
(-0.14112836 -0.1111654 0)
(-0.12525669 -0.12081987 0)
(-0.10815429 -0.12930048 0)
(-0.089986654 -0.13651615 0)
(-0.070930683 -0.14238803 0)
(-0.051173042 -0.14685095 0)
(-0.030908329 -0.14985472 0)
(-0.010336981 -0.15136524 0)
(0.011537533 -0.17309288 0)
(0.034498322 -0.171367 0)
(0.057117632 -0.16793502 0)
(0.079172272 -0.16283603 0)
(0.10044559 -0.15612745 0)
(0.12072976 -0.14788379 0)
(0.13982785 -0.13819501 0)
(0.15755553 -0.12716485 0)
(0.17374254 -0.11490913 0)
(0.18823391 -0.10155415 0)
(0.20089098 -0.087235305 0)
(0.21159239 -0.072095909 0)
(0.22023498 -0.056286233 0)
(0.22673494 -0.039962629 0)
(0.23102882 -0.023286601 0)
(0.23307482 -0.006423679 0)
(0.23285383 0.010458069 0)
(0.23037039 0.027189942 0)
(0.22565319 0.043604924 0)
(0.21875503 0.059540285 0)
(0.20975214 0.074840251 0)
(0.19874284 0.089358516 0)
(0.18584558 0.10296035 0)
(0.1711967 0.11552415 0)
(0.1549478 0.12694238 0)
(0.13726324 0.13712187 0)
(0.11831766 0.14598365 0)
(0.098293802 0.15346232 0)
(0.077380563 0.15950529 0)
(0.055771421 0.16407183 0)
(0.033663093 0.16713228 0)
(0.011254444 0.16866727 0)
(-0.011254444 0.16866727 0)
(-0.033663093 0.16713228 0)
(-0.055771421 0.16407183 0)
(-0.077380563 0.15950529 0)
(-0.098293802 0.15346232 0)
(-0.11831766 0.14598365 0)
(-0.13726324 0.13712187 0)
(-0.1549478 0.12694238 0)
(-0.1711967 0.11552415 0)
(-0.18584558 0.10296035 0)
(-0.19874284 0.089358516 0)
(-0.20975214 0.074840251 0)
(-0.21875503 0.059540285 0)
(-0.22565319 0.043604924 0)
(-0.23037039 0.027189942 0)
(-0.23285383 0.010458069 0)
(-0.23307482 -0.006423679 0)
(-0.23102882 -0.023286601 0)
(-0.22673494 -0.039962629 0)
(-0.22023498 -0.056286233 0)
(-0.21159239 -0.072095909 0)
(-0.20089098 -0.087235305 0)
(-0.18823391 -0.10155415 0)
(-0.17374254 -0.11490913 0)
(-0.15755553 -0.12716485 0)
(-0.13982785 -0.13819501 0)
(-0.12072976 -0.14788379 0)
(-0.10044559 -0.15612745 0)
(-0.079172272 -0.16283603 0)
(-0.057117632 -0.16793502 0)
(-0.034498322 -0.171367 0)
(-0.011537533 -0.17309288 0)
(0.012929657 -0.19739581 0)
(0.03866121 -0.1954296 0)
(0.064011005 -0.1915198 0)
(0.088729555 -0.18571107 0)
(0.11257471 -0.17806896 0)
(0.13531421 -0.16867834 0)
(0.15672794 -0.15764156 0)
(0.17660983 -0.14507636 0)
(0.19476935 -0.13111397 0)
(0.21103284 -0.11589721 0)
(0.22524451 -0.099579025 0)
(0.23726752 -0.082321293 0)
(0.24698498 -0.064293908 0)
(0.25430118 -0.045674029 0)
(0.259143 -0.026645258 0)
(0.2614614 -0.007396538 0)
(0.26123295 0.011879465 0)
(0.25846112 0.030988591 0)
(0.25317711 0.049738037 0)
(0.24543993 0.067939631 0)
(0.23533563 0.085413256 0)
(0.22297576 0.10199004 0)
(0.20849492 0.11751503 0)
(0.19204799 0.13184907 0)
(0.17380696 0.14486989 0)
(0.15395783 0.15647229 0)
(0.13269773 0.16656782 0)
(0.11023232 0.17508377 0)
(0.086773628 0.18196212 0)
(0.062538318 0.18715823 0)
(0.03774624 0.19063976 0)
(0.012619326 0.19238569 0)
(-0.012619326 0.19238569 0)
(-0.03774624 0.19063976 0)
(-0.062538318 0.18715823 0)
(-0.086773628 0.18196212 0)
(-0.11023232 0.17508377 0)
(-0.13269773 0.16656782 0)
(-0.15395783 0.15647229 0)
(-0.17380696 0.14486989 0)
(-0.19204799 0.13184907 0)
(-0.20849492 0.11751503 0)
(-0.22297576 0.10199004 0)
(-0.23533563 0.085413256 0)
(-0.24543993 0.067939631 0)
(-0.25317711 0.049738037 0)
(-0.25846112 0.030988591 0)
(-0.26123295 0.011879465 0)
(-0.2614614 -0.007396538 0)
(-0.259143 -0.026645258 0)
(-0.25430118 -0.045674029 0)
(-0.24698498 -0.064293908 0)
(-0.23726752 -0.082321293 0)
(-0.22524451 -0.099579025 0)
(-0.21103284 -0.11589721 0)
(-0.19476935 -0.13111397 0)
(-0.17660983 -0.14507636 0)
(-0.15672794 -0.15764156 0)
(-0.13531421 -0.16867834 0)
(-0.11257471 -0.17806896 0)
(-0.088729555 -0.18571107 0)
(-0.064011005 -0.1915198 0)
(-0.03866121 -0.1954296 0)
(-0.012929657 -0.19739581 0)
(0.014533293 -0.22467793 0)
(0.043456632 -0.2224426 0)
(0.071951949 -0.21799777 0)
(0.099739551 -0.21139434 0)
(0.126548 -0.20270699 0)
(0.15211697 -0.19203223 0)
(0.17619974 -0.17948619 0)
(0.19856522 -0.16520221 0)
(0.21899964 -0.1493285 0)
(0.2373078 -0.13202611 0)
(0.2533142 -0.11346724 0)
(0.26686408 -0.09383408 0)
(0.27782458 -0.073318065 0)
(0.28608609 -0.052119293 0)
(0.291564 -0.030445933 0)
(0.29420058 -0.0085132091 0)
(0.29396704 0.013458303 0)
(0.2908653 0.035245285 0)
(0.2849292 0.056625183 0)
(0.27622486 0.077380379 0)
(0.26484977 0.097302583 0)
(0.25093093 0.11619693 0)
(0.23462189 0.13388535 0)
(0.21609923 0.15020888 0)
(0.19555872 0.16502885 0)
(0.17321156 0.17822697 0)
(0.14928094 0.18970462 0)
(0.12399902 0.19938151 0)
(0.097604512 0.20719406 0)
(0.07034072 0.21309375 0)
(0.042454079 0.21704564 0)
(0.014193002 0.21902712 0)
(-0.014193002 0.21902712 0)
(-0.042454079 0.21704564 0)
(-0.07034072 0.21309375 0)
(-0.097604512 0.20719406 0)
(-0.12399902 0.19938151 0)
(-0.14928094 0.18970462 0)
(-0.17321156 0.17822697 0)
(-0.19555872 0.16502885 0)
(-0.21609923 0.15020888 0)
(-0.23462189 0.13388535 0)
(-0.25093093 0.11619693 0)
(-0.26484977 0.097302583 0)
(-0.27622486 0.077380379 0)
(-0.2849292 0.056625183 0)
(-0.2908653 0.035245285 0)
(-0.29396704 0.013458303 0)
(-0.29420058 -0.0085132091 0)
(-0.291564 -0.030445933 0)
(-0.28608609 -0.052119293 0)
(-0.27782458 -0.073318065 0)
(-0.26686408 -0.09383408 0)
(-0.2533142 -0.11346724 0)
(-0.2373078 -0.13202611 0)
(-0.21899964 -0.1493285 0)
(-0.19856522 -0.16520221 0)
(-0.17619974 -0.17948619 0)
(-0.15211697 -0.19203223 0)
(-0.126548 -0.20270699 0)
(-0.099739551 -0.21139434 0)
(-0.071951949 -0.21799777 0)
(-0.043456632 -0.2224426 0)
(-0.014533293 -0.22467793 0)
(0.016362443 -0.25537931 0)
(0.048926469 -0.25284192 0)
(0.081009851 -0.24779655 0)
(0.11229853 -0.2403012 0)
(0.14248776 -0.23044077 0)
(0.17128526 -0.21832484 0)
(0.19841403 -0.20408498 0)
(0.22361453 -0.18787188 0)
(0.24664649 -0.16985262 0)
(0.26729022 -0.15020832 0)
(0.28534772 -0.12913235 0)
(0.30064379 -0.10682921 0)
(0.31302719 -0.083513956 0)
(0.3223723 -0.059411995 0)
(0.32858107 -0.034758804 0)
(0.3315855 -0.0097991398 0)
(0.33135023 0.015214705 0)
(0.32787501 0.040025916 0)
(0.32119645 0.064377506 0)
(0.31138863 0.08801763 0)
(0.29856224 0.11070527 0)
(0.28286213 0.13221552 0)
(0.26446381 0.15234382 0)
(0.24356898 0.17090882 0)
(0.22040084 0.1877536 0)
(0.19519958 0.20274562 0)
(0.16821827 0.21577543 0)
(0.13971935 0.22675485 0)
(0.10997197 0.23561471 0)
(0.079249821 0.24230267 0)
(0.047829591 0.24678128 0)
(0.015989845 0.24902648 0)
(-0.015989845 0.24902648 0)
(-0.047829591 0.24678128 0)
(-0.079249821 0.24230267 0)
(-0.10997197 0.23561471 0)
(-0.13971935 0.22675485 0)
(-0.16821827 0.21577543 0)
(-0.19519958 0.20274562 0)
(-0.22040084 0.1877536 0)
(-0.24356898 0.17090882 0)
(-0.26446381 0.15234382 0)
(-0.28286213 0.13221552 0)
(-0.29856224 0.11070527 0)
(-0.31138863 0.08801763 0)
(-0.32119645 0.064377506 0)
(-0.32787501 0.040025916 0)
(-0.33135023 0.015214705 0)
(-0.3315855 -0.0097991398 0)
(-0.32858107 -0.034758804 0)
(-0.3223723 -0.059411995 0)
(-0.31302719 -0.083513956 0)
(-0.30064379 -0.10682921 0)
(-0.28534772 -0.12913235 0)
(-0.26729022 -0.15020832 0)
(-0.24664649 -0.16985262 0)
(-0.22361453 -0.18787188 0)
(-0.19841403 -0.20408498 0)
(-0.17128526 -0.21832484 0)
(-0.14248776 -0.23044077 0)
(-0.11229853 -0.2403012 0)
(-0.081009851 -0.24779655 0)
(-0.048926469 -0.25284192 0)
(-0.016362443 -0.25537931 0)
(0.018419724 -0.28995971 0)
(0.055078563 -0.28708299 0)
(0.091197754 -0.28136301 0)
(0.1264247 -0.27286572 0)