/*--------------------------------*- C++ -*----------------------------------*\
| =========                 |                                                 |
| \\      /  F ield         | OpenFOAM: The Open Source CFD Toolbox           |
|  \\    /   O peration     | Version:  2106                                  |
|   \\  /    A nd           | Website:  www.openfoam.com                      |
|    \\/     M anipulation  |                                                 |
\*---------------------------------------------------------------------------*/
FoamFile
{
    version     2.0;
    format      ascii;
    arch        "LSB;label=32;scalar=64";
    class       volScalarField;
    location    "0.215";
    object      reconstructedDistanceFunction;
}
// * * * * * * * * * * * * * * * * * * * * * * * * * * * * * * * * * * * * * //

dimensions      [0 1 0 0 0 0 0];

internalField   nonuniform List<scalar> 
32768
(
0
0
0
0
0
0
0
0
0
0
0
0
0
0
0
0
0
0
0
0
0
0
0
0
0
0
0
0
0
0
0
0
0
0
0
0
0
0
0
0
0
0
0
0
0
0
0
0
0
0
0
0
0
0
0
0
0
0
0
0
0
0
0
0
0
0
0
0
0
0
0
0
0
0
0
0
0
0
0
0
0
0
0
0
0
0
0
0
0
0
0
0
0
0
0
0
0
0
0
0
0
0
0
0
0
0
0
0
0
0
0
0
0
0
0
0
0
0
0
0
0
0
0
0
0
0
0
0
0
0
0
0
0
0
0
0
0
0
0
0
0
0
0
0
0
0
0
0
0
0
0
0
0
0
0
0
0
0
0
0
0
0
0
0
0
0
0
0
0
0
0
0
0
0
0
0
0
0
0
0
0
0
0
0
0
0
0
0
0
0
0
0
0
0
0
0
0
0
0
0
0
0
0
0
0
0
0
0
0
0
0
0
0
0
0
0
0
0
0
0
0
0
0
0
0
0
0
0
0
0
0
0
0
0
0
0
0
0
0
0
0
0
0
0
0
0
0
0
0
0
0
0
0.0025185071
0.0018870828
0.0012556585
0.00062423424
0
0
0
0
0
0
0
0
0
0
0
0
0
0
0
0
0
0
0
0
0
0
0
0
0
0
0
0
0
0
0
0
0
0
0
0
0
0
0
0
0
0
0
0
0
0
0
0
0
0
0
0
0
0
0
0
0
0
0
0
0
0
0
0
0
0
0
0
0
0
0
0
0
0
0
0
0
0
0
0
0
0
0
0
0
0
0
0
0
0
0
0
0
0
0
0
0
0
0
0
0
0
0
0
0
0
0
0
0
0
0
0
0
0
0
0
0
0
0
0
0
0
0
0
0
0
0
0
0
0
0
0
0
0
0
0
0
0
0
0
0
0
0
0
0
0
0
0
0
0
0
0
0
0
0
0
0
0
0
0
0
0
0
0
0
0
0
0
0
0
0
0
0
0
0
0
0
0
0
0
0
0
0
0
0
0
0
0
0
0
0
0
0
0
0
0
0
0
0
0
0
0
0
0
0
0
0
0
0
0
0
0
0
0
0
0
0
0
0
0
0
0
0
0
0
0
0
0
0
0
0
0
0
0
0
0
0
0
0
0
0
0
0
0
0
0
0
0
0
0
0
0
0.0031499313
0.002518507
0.0018870828
0.0012556585
0
0
0
0
0
0
0
0
0
0
0
0
0
0
0
0
0
0
0
0
0
0
0
0
0
0
0
0
0
0
0
0
0
0
0
0
0
0
0
0
0
0
0
0
0
0
0
0
0
0
0
0
0
0
0
0
0
0
0
0
0
0
0
0
0
0
0
0
0
0
0
0
0
0
0
0
0
0
0
0
0
0
0
0
0
0
0
0
0
0
0
0
0
0
0
0
0
0
0
0
0
0
0
0
0
0
0
0
0
0
0
0
0
0
0
0
0
0
0
0
0
0
0
0
0
0
0
0
0
0
0
0
0
0
0
0
0
0
0
0
0
0
0
0
0
0
0
0
0
0
0
0
0
0
0
0
0
0
0
0
0
0
0
0
0
0
0
0
0
0
0
0
0
0
0
0
0
0
0
0
0
0
0
0
0
0
0
0
0
0
0
0
0
0
0
0
0
0
0
0
0
0
0
0
0
0
0
0
0
0
0
0
0
0
0
0
0
0
0
0
0
0
0
0
0
0
0
0
0
0
0
0
0
0
0
0
0
0
0
0
0
0
0
0
0
0
0
0
0
0
0
0
0.0037813555
0.0031499312
0.002518507
0.0018870827
0
0
0
0
0
0
0
0
0
0
0
0
0
0
0
0
0
0
0
0
0
0
0
0
0
0
0
0
0
0
0
0
0
0
0
0
0
0
0
0
0
0
0
0
0
0
0
0
0
0
0
0
0
0
0
0
0
0
0
0
0
0
0
0
0
0
0
0
0
0
0
0
0
0
0
0
0
0
0
0
0
0
0
0
0
0
0
0
0
0
0
0
0
0
0
0
0
0
0
0
0
0
0
0
0
0
0
0
0
0
0
0
0
0
0
0
0
0
0
0
0
0
0
0
0
0
0
0
0
0
0
0
0
0
0
0
0
0
0
0
0
0
0
0
0
0
0
0
0
0
0
0
0
0
0
0
0
0
0
0
0
0
0
0
0
0
0
0
0
0
0
0
0
0
0
0
0
0
0
0
0
0
0
0
0
0
0
0
0
0
0
0
0
0
0
0
0
0
0
0
0
0
0
0
0
0
0
0
0
0
0
0
0
0
0
0
0
0
0
0
0
0
0
0
0
0
0
0
0
0
0
0
0
0
0
0
0
0
0
0
0
0
0
0
0
0
0
0
0
0
0
0
0.0044127798
0.0037813555
0.0031499312
0.0025185069
0
0
0
0
0
0
0
0
0
0
0
0
0
0
0
0
0
0
0
0
0
0
0
0
0
0
0
0
0
0
0
0
0
0
0
0
0
0
0
0
0
0
0
0
0
0
0
0
0
0
0
0
0
0
0
0
0
0
0
0
0
0
0
0
0
0
0
0
0
0
0
0
0
0
0
0
0
0
0
0
0
0
0
0
0
0
0
0
0
0
0
0
0
0
0
0
0
0
0
0
0
0
0
0
0
0
0
0
0
0
0
0
0
0
0
0
0
0
0
0
0
0
0
0
0
0
0
0
0
0
0
0
0
0
0
0
0
0
0
0
0
0
0
0
0
0
0
0
0
0
0
0
0
0
0
0
0
0
0
0
0
0
0
0
0
0
0
0
0
0
0
0
0
0
0
0
0
0
0
0
0
0
0
0
0
0
0
0
0
0
0
0
0
0
0
0
0
0
0
0
0
0.0032497105
0.0031984377
0.00314978
0.0031031944
0.0030587625
0.0030174548
0.0029776117
0.0029379406
0.0028982569
0.0028587542
0.0028198114
0.0027814829
0.0027439741
0.0027076558
0.0026727888
0.0026393448
0.0026076031
0.0025781322
0.0025505822
0.0025247012
0.0024997953
0.0024758998
0.0024530754
0.0024317585
0.0024113344
0.0023926856
0.0023756942
0.0023617378
0.0023528071
0.002350163
0.0023560892
0.0023721141
0.0023998477
0.0024411395
0.0024945256
0.0025634401
0.0026506652
0.0027530649
0.002859707
0.0030151587
0.0032125505
0.0034169021
0.0036370166
0
0
0
0
0
0
0
0
0
0
0
0
0
0
0
0
0
0
0
0
0
0
0
0
0
0
0
0
0
0
0
0
0
0
0
0
0
0
0
0
0
0
0
0
0
0
0
0
0
0
0
0
0
0
0
0
0
0
0
0
0
0
0
0
0
0
0
0
0
0
0
0
0
0
0
0
0
0
0
0
0
0
0
0
0
0
0
0
0
0
0
0
0
0
0
0
0
0
0
0
0
0
0
0
0
0
0
0
0
0
0
0
0
0
0
0
0
0
0
0
0
0
0
0
0
0
0
0
0
0
0
0
0
0
0
0
0
0
0
0
0
0
0
0
0
0
0
0
0
0
0
0
0
0
0
0
0
0
0
0
0
0
0
0
0
0
0
0
0
0
0
0
0
0
0
0
0
0
0
0
0
0
0
0
0
0
0
0
0
0
0
0
0
0
0
0
0.0033251379
0.0032621422
0.0031998776
0.0031403946
0.0030821329
0.0030248478
0.0029682134
0.0029113226
0.0028546717
0.0027985033
0.0027415281
0.0026841122
0.0026287545
0.0025744827
0.002518547
0.0024628615
0.0024099953
0.0023582412
0.0023068942
0.0022581047
0.0022113993
0.0021668445
0.0021254162
0.0020855256
0.0020458517
0.0020061681
0.0019666515
0.0019276844
0.0018893258
0.0018517757
0.0018154048
0.0017804821
0.0017469789
0.0017151667
0.0016856239
0.0016580158
0.0016320953
0.0016071619
0.0015832387
0.0015603825
0.0015390361
0.0015185825
0.0014999003
0.0014828652
0.0014688483
0.0014598599
0.0014571954
0.0014631894
0.0014794335
0.001507597
0.0015495429
0.0016039165
0.0016742856
0.0017631396
0.001867847
0.0019803732
0.0021464623
0.0023407228
0.0025489658
0.0027766353
0.0030398609
0.003337758
0.003677437
0.0040637977
0
0
0
0
0
0
0
0
0
0
0
0
0
0
0
0
0
0
0
0
0
0
0
0
0
0
0
0
0
0
0
0
0
0
0
0
0
0
0
0
0
0
0
0
0
0
0
0
0
0
0
0
0
0
0
0
0
0
0
0
0
0
0
0
0
0
0
0
0
0
0
0
0
0
0
0
0
0
0
0
0
0
0
0
0
0
0
0
0
0
0
0
0
0
0
0
0
0
0
0
0
0
0
0
0
0
0
0
0
0
0
0
0
0
0
0
0
0
0
0
0
0
0
0
0
0
0
0
0
0
0
0
0
0
0
0
0
0
0
0
0
0
0
0
0
0
0
0
0
0
0
0
0
0
0
0
0
0
0
0
0
0
0
0
0
0
0
0
0
0
0
0
0
0
0
0
0
0
0
0.0033010042
0.0032285631
0.0031602813
0.0030913397
0.0030217013
0.0029541811
0.0028878868
0.0028218627
0.002755635
0.0026899027
0.0026250453
0.0025604727
0.0024968065
0.0024343839
0.0023713864
0.002309021
0.0022490947
0.0021910482
0.0021336989
0.0020770509
0.0020201575
0.0019634862
0.0019073303
0.0018503945
0.0017929342
0.0017374819
0.0016832146
0.001627323
0.0015715653
0.0015185833
0.0014667719
0.0014153506
0.0013664294
0.0013196041
0.0012749266
0.0012333777
0.0011934395
0.0011537629
0.0011140794
0.0010745489
0.0010355575
0.00099716868
0.00095957732
0.00092315374
0.00088817543
0.00085461296
0.00082273031
0.00079311568
0.0007654494
0.00073948942
0.00071452855
0.00069057768
0.00066768955
0.00064631369
0.00062583073
0.00060711499
0.00059003629
0.00057595881
0.00056691262
0.00056422781
0.00057028964
0.00058675286
0.00061534624
0.00065794627
0.00071330742
0.00078513114
0.00087561391
0.00098262909
0.0011010394
0.0012739684
0.0014688951
0.0016772202
0.0019162539
0.0021937419
0.0025076223
0.0028635368
0.0032673511
0.0037093897
0.0042006633
0
0
0
0
0
0
0
0
0
0
0
0
0
0
0
0
0
0
0
0
0
0
0
0
0
0
0
0
0
0
0
0
0
0
0
0
0
0
0
0
0
0
0
0
0
0
0
0
0
0
0
0
0
0
0
0
0
0
0
0
0
0
0
0
0
0
0
0
0
0
0
0
0
0
0
0
0
0
0
0
0
0
0
0
0
0
0
0
0
0
0
0
0
0
0
0
0
0
0
0
0
0
0
0
0
0
0
0
0
0
0
0
0
0
0
0
0
0
0
0
0
0
0
0
0
0
0
0
0
0
0
0
0
0
0
0
0
0
0
0
0
0
0
0
0
0
0
0
0
0
0
0
0
0
0
0
0
0
0
0
0
0
0
0
0.0033815941
0.0033021899
0.0032230546
0.0031490319
0.0030720821
0.0029945119
0.0029201737
0.0028468278
0.0027739588
0.0027013091
0.0026281791
0.0025555443
0.0024839313
0.0024110089
0.0023384158
0.0022699808
0.0022010679
0.0021313886
0.002063749
0.0019973776
0.0019313449
0.0018651113
0.0017993383
0.001734438
0.0016698156
0.0016060772
0.00154363
0.0014806306
0.0014181644
0.0013581081
0.0012999634
0.00124255
0.0011858885
0.0011289924
0.0010723007
0.0010161573
0.00095926093
0.00090175616
0.00084620924
0.00079194652
0.00073609904
0.00068026914
0.00062717123
0.00057530266
0.00052380701
0.00047475409
0.00042780893
0.00038300859
0.00034133922
0.00030135345
0.00026167407
0.00022199064
0.00018244625
0.00014343056
0.00010501156
6.7378948e-05
3.0902723e-05
-4.1312693e-06
-3.7752939e-05
-6.9706065e-05
-9.9392548e-05
-0.00012711701
-0.00015311645
-0.00017810483
-0.00020208337
-0.00022500335
-0.00024640874
-0.00026692108
-0.00028567031
-0.00030279267
-0.00031693067
-0.00032603461
-0.0003287398
-0.00032261014
-0.00030592775
-0.00027690449
-0.00023365034
-0.00017730166
-0.00010402333
-1.1911755e-05
9.7411179e-05
0.0002217056
0.0004014745
0.00060314126
0.00081683886
0.0010621833
0.001347934
0.0016848495
0.0020670902
0.0024822222
0.0029609991
0.0034770295
0.0040300032
0
0
0
0
0
0
0
0
0
0
0
0
0
0
0
0
0
0
0
0
0
0
0
0
0
0
0
0
0
0
0
0
0
0
0
0
0
0
0
0
0
0
0
0
0
0
0
0
0
0
0
0
0
0
0
0
0
0
0
0
0
0
0
0
0
0
0
0
0
0
0
0
0
0
0
0
0
0
0
0
0
0
0
0
0
0
0
0
0
0
0
0
0
0
0
0
0
0
0
0
0
0
0
0
0
0
0
0
0
0
0
0
0
0
0
0
0
0
0
0
0
0
0
0
0
0
0
0
0
0
0
0
0
0
0
0
0
0
0
0
0
0
0
0
0
0
0
0
0
0
0
0
0.0033723961
0.0032892076
0.003206478
0.0031274293
0.0030454627
0.0029642143
0.0028850713
0.0028065376
0.002728179
0.0026491245
0.0025701727
0.0024921153
0.002412754
0.0023334352
0.0022590542
0.0021824493
0.0021048256
0.002030306
0.0019568592
0.0018839588
0.0018113218
0.0017381877
0.0016655011
0.0015939021
0.0015210137
0.0014482685
0.0013796803
0.001310796
0.0012410759
0.0011733168
0.0011068685
0.0010408271
0.00097458755
0.00090877384
0.00084383081
0.00077915848
0.0007153479
0.000652876
0.0005898748
0.0005273078
0.00046712156
0.00040887862
0.00035140116
0.00029472602
0.00023782728
0.00018111522
0.00012498425
6.8127348e-05
1.0578167e-05
-4.5063393e-05
-9.9321595e-05
-0.00015512492
-0.00021102702
-0.00026424082
-0.0003161666
-0.00036773656
-0.00041692122
-0.00046398624
-0.00050890939
-0.00055069929
-0.00059073264
-0.00063041479
-0.00067009808
-0.00070965639
-0.00074869638
-0.00078714557
-0.00082481942
-0.00086134831
-0.00089643796
-0.00093011884
-0.00096214244
-0.00099190081
-0.0010196834
-0.0010457223
-0.0010707382
-0.0010947444
-0.0011176963
-0.0011391312
-0.0011596729
-0.0011784556
-0.0011956216
-0.0012098202
-0.0012189818
-0.0012217074
-0.0012155099
-0.0011986084
-0.0011691552
-0.001125247
-0.0010679107
-0.00099317781
-0.00089943742
-0.00078780673
-0.00065762822
-0.00046791738
-0.00026479497
-4.3542505e-05
0.00021606422
0.00051879809
0.00086682924
0.0012550547
0.0017213348
0.0022220471
0.0027791723
0.0033721273
0.0040012933
0
0
0
0
0
0
0
0
0
0
0
0
0
0
0
0
0
0
0
0
0
0
0
0
0
0
0
0
0
0
0
0
0
0
0
0
0
0
0
0
0
0
0
0
0
0
0
0
0
0
0
0
0
0
0
0
0
0
0
0
0
0
0
0
0
0
0
0
0
0
0
0
0
0
0
0
0
0
0
0
0
0
0
0
0
0
0
0
0
0
0
0
0
0
0
0
0
0
0
0
0
0
0
0
0
0
0
0
0
0
0
0
0
0
0
0
0
0
0
0
0
0
0
0
0
0
0
0
0
0
0
0
0
0
0
0
0
0
0
0
0.0034086469
0.0033219567
0.003234649
0.0031497512
0.0030645848
0.002979478
0.0028961022
0.0028129418
0.0027308955
0.0026488223
0.0025658889
0.002483297
0.002400114
0.002317237
0.0022381203
0.0021562206
0.0020748969
0.0019956142
0.0019170193
0.0018386807
0.0017596487
0.0016806656
0.0016026365
0.0015233182
0.0014438159
0.0013692882
0.0012928166
0.0012151393
0.0011404383
0.0010668905
0.00099395879
0.00092133457
0.00084819645
0.00077545802
0.0007038729
0.0006310184
0.00055812123
0.00048937979
0.00042052419
0.0003507632
0.00028288459
0.00021635936
0.00015030933
8.4063837e-05
1.8209419e-05
-4.6776408e-05
-0.00011149864
-0.00017538139
-0.00023787796
-0.00030088101
-0.00036354882
-0.000423865
-0.00048220615
-0.00053974771
-0.00059643643
-0.00065333782
-0.00071007027
-0.00076618878
-0.00082300624
-0.00088059983
-0.00093633603
-0.00099058971
-0.0010463489
-0.0011023232
-0.0011556529
-0.0012076359
-0.0012592801
-0.0013085965
-0.0013557814
-0.0014008274
-0.0014427378
-0.0014828187
-0.0015225036
-0.0015621868
-0.001601759
-0.0016408233
-0.0016793027
-0.0017170178
-0.0017535993
-0.0017887447
-0.0018224847
-0.0018545788
-0.001884409
-0.0019122498
-0.0019383282
-0.0019633716
-0.0019874054
-0.0020103892
-0.0020318536
-0.0020524247
-0.0020712409
-0.0020884506
-0.0021027096
-0.0021119291
-0.002114675
-0.0021084097
-0.002091289
-0.0020614059
-0.0020168436
-0.0019585198
-0.0018823323
-0.0017869631
-0.0016730246
-0.001536962
-0.0013397451
-0.0011327312
-0.00090392387
-0.00063005482
-0.00030773808
7.0382634e-05
0.00049243548
0.00098106712
0.0015241899
0.0021104365
0.0027393878
0.0033986951
0.0041000949
0
0
0
0
0
0
0
0
0
0
0
0
0
0
0
0
0
0
0
0
0
0
0
0
0
0
0
0
0
0
0
0
0
0
0
0
0
0
0
0
0
0
0
0
0
0
0
0
0
0
0
0
0
0
0
0
0
0
0
0
0
0
0
0
0
0
0
0
0
0
0
0
0
0
0
0
0
0
0
0
0
0
0
0
0
0
0
0
0
0
0
0
0
0
0
0
0
0
0
0
0
0
0
0
0
0
0
0
0
0
0
0
0
0
0
0
0
0
0
0
0
0
0
0
0
0
0
0
0
0.0034015493
0.0033122026
0.0032232229
0.0031362393
0.0030485724
0.0029607786
0.0028733034
0.0027839604
0.0026951226
0.0026072728
0.0025199444
0.0024332476
0.0023458663
0.0022608687
0.0021756957
0.0020905206
0.0020070502
0.0019238101
0.0018417109
0.0017596569
0.0016767549
0.0015941978
0.0015110204
0.001427996
0.0013488113
0.0012669786
0.0011855795
0.0011061571
0.0010275009
0.00094918236
0.00087017295
0.00079115846
0.00071315769
0.0006338823
0.00055419651
0.00047952228
0.00040318391
0.00032545297
0.00025057058
0.00017692187
0.00010395877
3.1347336e-05
-4.1794864e-05
-0.00011458508
-0.00018615629
-0.00025897688
-0.00033202605
-0.00040092071
-0.00046974764
-0.00053954949
-0.00060754759
-0.00067414976
-0.00074020847
-0.00080645988
-0.000872355
-0.00093738363
-0.0010021558
-0.0010661107
-0.0011286319
-0.0011916368
-0.0012544054
-0.0013148516
-0.0013732909
-0.0014308966
-0.0014875989
-0.0015445029
-0.0016012557
-0.0016573618
-0.0017141398
-0.0017717778
-0.0018276087
-0.0018818578
-0.0019375729
-0.0019936193
-0.0020470649
-0.0020991051
-0.0021508237
-0.0022002718
-0.0022475766
-0.0022927453
-0.0023347763
-0.0023749048
-0.0024145925
-0.0024542756
-0.0024938617
-0.0025329503
-0.0025714598
-0.0026092162
-0.0026458504
-0.0026810514
-0.0027148506
-0.0027470152
-0.0027769173
-0.0028048162
-0.002830934
-0.002856005
-0.0028800665
-0.0029030821
-0.002924576
-0.0029451765
-0.0029640262
-0.0029812795
-0.0029955991
-0.0030048763
-0.0030076427
-0.0030013095
-0.0029839696
-0.0029536567
-0.0029084402
-0.0028491289
-0.0027714868
-0.0026744887
-0.0025582426
-0.0024061324
-0.0022115727
-0.0020033389
-0.0017616134
-0.0014710259
-0.0011305109
-0.00073473202
-0.00025859712
0.00026920749
0.00084874562
0.0014774822
0.0021446367
0.0028460365
0.0035855251
0
0
0
0
0
0
0
0
0
0
0
0
0
0
0
0
0
0
0
0
0
0
0
0
0
0
0
0
0
0
0
0
0
0
0
0
0
0
0
0
0
0
0
0
0
0
0
0
0
0
0
0
0
0
0
0
0
0
0
0
0
0
0
0
0
0
0
0
0
0
0
0
0
0
0
0
0
0
0
0
0
0
0
0
0
0
0
0
0
0
0
0
0
0
0
0
0
0
0
0
0
0
0
0
0
0
0
0
0
0
0
0
0
0
0
0
0
0
0
0.0034298983
0.0033361087
0.0032412151
0.003148053
0.003054598
0.002960736
0.0028708332
0.0027820874
0.002692798
0.0026030977
0.0025131131
0.0024237259
0.0023346336
0.0022475693
0.0021599124
0.0020721143
0.0019847053
0.0018954405
0.0018065638
0.0017186273
0.0016312419
0.0015445385
0.0014570835
0.001371977
0.0012868067
0.0012015632
0.0011179983
0.0010346784
0.00095252629
0.00087049145
0.00078762084
0.0007050987
0.00062192682
0.00053875505
0.00045881279
0.00037773657
0.00029626202
0.00021669997
0.00013798259
5.9684024e-05
-1.9302804e-05
-9.834868e-05
-0.00017632111
-0.00025555357
-0.00033542285
-0.00041024366
-0.0004864488
-0.00056423333
-0.00063929715
-0.00071304677
-0.00078604123
-0.00085863993
-0.00093178619
-0.0010046282
-0.0010761855
-0.0011489721
-0.0012221733
-0.0012912212
-0.0013600195
-0.0014298622
-0.0014979798
-0.0015646589
-0.0016307263
-0.0016969836
-0.0017629194
-0.0018279909
-0.0018928129
-0.00195684
-0.0020193859
-0.0020823926
-0.002145262
-0.0022058381
-0.0022643757
-0.0023220454
-0.0023787613
-0.002435668
-0.0024924412
-0.0025485348
-0.0026052734
-0.0026629558
-0.0027188813
-0.002773126
-0.0028287968
-0.0028849155
-0.002938477
-0.0029905744
-0.0030423673
-0.0030919472
-0.0031393717
-0.0031846633
-0.0032268148
-0.0032669909
0
0
0
0
0
0
0
0
0
0
0
0
0
0
0
0
0
0
0
0
0
0
0
0
0
0
0
0
0
-0.0035620144
-0.0034510814
-0.0032786263
-0.0030785558
-0.0028637203
-0.0026077325
-0.0023003256
-0.0019263249
-0.0014982614
-0.00098577492
-0.00041294519
0.00021557675
0.00089057837
0.001611161
0.0023412903
0.003099227
0.0038699525
0
0
0
0
0
0
0
0
0
0
0
0
0
0
0
0
0
0
0
0
0
0
0
0
0
0
0
0
0
0
0
0
0
0
0
0
0
0
0
0
0
0
0
0
0
0
0
0
0
0
0
0
0
0
0
0
0
0
0
0
0
0
0
0
0
0
0
0
0
0
0
0
0
0
0
0
0
0
0
0
0
0
0
0
0
0
0
0
0
0
0
0
0
0
0
0
0
0
0
0
0
0
0
0
0
0
0
0
0
0.0033658584
0.0032731684
0.0031816388
0.0030910492
0.0030007798
0.0029088922
0.0028173903
0.0027253529
0.0026339545
0.0025417447
0.0024481026
0.0023532217
0.002260001
0.0021665787
0.0020725719
0.0019824036
0.0018935583
0.0018043051
0.0017146542
0.0016246768
0.0015352491
0.0014460442
0.0013588993
0.0012712523
0.0011834501
0.0010961073
0.0010069205
0.00091800504
0.00082998182
0.00074253947
0.00065582942
0.00056830076
0.00048309617
0.00039791761
0.00031260574
0.00022894641
0.00014554674
6.33417e-05
-1.867398e-05
-0.00010151319
-0.00018400042
-0.00026716676
-0.00035048593
-0.0004305159
-0.00051150546
-0.00059305542
-0.00067275714
-0.00075153575
-0.00082981431
-0.00090877856
-0.00098785582
-0.0010657999
-0.0011449894
-0.0012250422
-0.0013000096
-0.0013760815
-0.0014539196
-0.0015291648
-0.0016030154
-0.0016760413
-0.0017486272
-0.0018217775
-0.0018946713
-0.0019662147
-0.0020389674
-0.0021123206
-0.0021815217
-0.0022504705
-0.0023201749
-0.0023884119
-0.002455168
-0.0025212441
-0.0025875073
-0.0026534838
-0.0027185981
-0.00278347
-0.0028475693
-0.0029101399
-0.0029731484
-0.0030361186
-0.0030968247
-0.0031554605
-0.0032131943
-0.0032699238
0
0
0
0
0
0
0
0
0
0
0
0
0
0
0
0
0
0
0
0
0
0
0
0
0
0
0
0
0
0
0
0
0
0
0
0
0
0
0
0
0
0
0
0
0
0
0
0
0
0
-0.0037241016
-0.0034538515
-0.0031230984
-0.0027245188
-0.0022385291
-0.0016746361
-0.0010463288
-0.00036348001
0.00036692631
0.0011068043
0.0018775299
0.0026293695
0.003441959
0
0
0
0
0
0
0
0
0
0
0
0
0
0
0
0
0
0
0
0
0
0
0
0
0
0
0
0
0
0
0
0
0
0
0
0
0
0
0
0
0
0
0
0
0
0
0
0
0
0
0
0
0
0
0
0
0
0
0
0
0
0
0
0
0
0
0
0
0
0
0
0
0
0
0
0
0
0
0
0
0
0
0
0
0
0
0
0
0
0
0
0
0
0
0
0
0
0
0
0.0033965488
0.0033038278
0.0032111877
0.0031190756
0.0030280027
0.0029377199
0.0028453972
0.0027525661
0.0026609742
0.0025699278
0.0024776768
0.0023849979
0.0022931243
0.0022026734
0.0021124473
0.0020206278
0.0019291525
0.0018371013
0.0017456988
0.0016535911
0.0015600965
0.0014652283
0.0013719896
0.0012785593
0.0011844078
0.0010939738
0.0010050292
0.00091581222
0.00082621059
0.00073624057
0.00064677239
0.00055745495
0.00047015123
0.00038259218
0.00029478581
0.00020750921
0.00011840062
2.944628e-05
-5.8663668e-05
-0.00014616301
-0.00023287967
-0.000320482
-0.00040578467
-0.00049097147
-0.00057635166
-0.00066010551
-0.00074358496
-0.00082584288
-0.00090783943
-0.00099064722
-0.0010730995
-0.0011562603
-0.0012397269
-0.0013198446
-0.0014007475
-0.0014823729
-0.0015622143
-0.0016410541
-0.0017193126
-0.0017982543
-0.001877363
-0.0019552787
-0.0020344253
-0.0021146616
-0.0021897755
-0.0022657142
-0.0023436059
-0.0024190326
-0.0024929841
-0.0025660412
-0.0026386144
-0.0027117688
-0.0027847144
-0.0028562439
-0.0029289627
-0.0030024679
-0.0030718222
-0.0031407587
-0.0032104875
-0.0032788441
-0.0033456772
0
0
0
0
0
0
0
0
0
0
0
0
0
0
0
0
0
0
0
0
0
0
0
0
0
0
0
0
0
0
0
0
0
0
0
0
0
0
0
0
0
0
0
0
0
0
0
0
0
0
0
0
0
0
0
0
0
0
0
0
0
0
0
0
0
-0.0039230324
-0.0034781934
-0.0029363269
-0.0023082343
-0.0016175384
-0.00087730844
-0.00011489272
0.00063393187
0.0014465213
0.0022759324
0.0031014434
0
0
0
0
0
0
0
0
0
0
0
0
0
0
0
0
0
0
0
0
0
0
0
0
0
0
0
0
0
0
0
0
0
0
0
0
0
0
0
0
0
0
0
0
0
0
0
0
0
0
0
0
0
0
0
0
0
0
0
0
0
0
0
0
0
0
0
0
0
0
0
0
0
0
0
0
0
0
0
0
0
0
0
0
0
0
0
0
0
0.0034328921
0.0033414247
0.0032479211
0.0031548071
0.0030629473
0.0029677981
0.0028749045
0.0027833631
0.0026911042
0.0025997939
0.0025083192
0.0024156704
0.0023230216
0.002230834
0.0021396667
0.0020494061
0.0019572155
0.0018643876
0.0017727035
0.0016816596
0.0015894951
0.0014968274
0.0014048505
0.0013142977
0.0012241149
0.0011323633
0.0010409148
0.00094884969
0.00085744312
0.00076543746
0.00067209039
0.00057723486
0.00048393346
0.00039053995
0.00029624367
0.00020554412
0.00011650013
2.7319329e-05
-6.2232983e-05
-0.00015219568
-0.00024170437
-0.00033113438
-0.00041852261
-0.00050606791
-0.00059387845
-0.00068108882
-0.00077011932
-0.00085911248
-0.00094730916
-0.0010348655
-0.0011215888
-0.0012092647
-0.0012946655
-0.0013798605
-0.0014653091
-0.0015491574
-0.0016327167
-0.0017150274
-0.0017970049
-0.0018797813
-0.0019621987
-0.0020453539
-0.0021289679
-0.0022091733
-0.0022899895
-0.0023716903
-0.0024516714
-0.0025305724
-0.002608811
-0.0026877301
-0.0027668701
-0.0028447575
-0.0029238612
-0.0030042809
-0.0030795415
-0.0031549667
-0.0032332923
-0.0033089003
0
0
0
0
0
0
0
0
0
0
0
0
0
0
0
0
0
0
0
0
0
0
0
0
0
0
0
0
0
0
0
0
0
0
0
0
0
0
0
0
0
0
0
0
0
0
0
0
0
0
0
0
0
0
0
0
0
0
0
0
0
0
0
0
0
0
0
0
0
0
0
0
0
0
0
0
0
0
0
-0.004193597
-0.0035701398
-0.0028516725
-0.0021073154
-0.0013365898
-0.00054891637
0.00028443313
0.0011099442
0.0019595834
0.0028128671
0.0036661508
0
0
0
0
0
0
0
0
0
0
0
0
0
0
0
0
0
0
0
0
0
0
0
0
0
0
0
0
0
0
0
0
0
0
0
0
0
0
0
0
0
0
0
0
0
0
0
0
0
0
0
0
0
0
0
0
0
0
0
0
0
0
0
0
0
0
0
0
0
0
0
0
0
0
0
0
0
0
0
0.003347769
0.003259697
0.0031712689
0.0030829512
0.0029947401
0.0029054049
0.0028158905
0.0027260253
0.0026354256
0.0025445646
0.0024532162
0.002359816
0.0022666602
0.0021748805
0.0020797815
0.0019867618
0.0018951471
0.0018028595
0.0017115153
0.0016200896
0.0015275131
0.0014348554
0.0013425925
0.0012513307
0.0011610924
0.0010690339
0.00097620909
0.00088443272
0.00079339139
0.00070131345
0.0006086569
0.0005165766
0.00042592191
0.00033578237
0.00024409885
0.00015267708
6.0598085e-05
-3.0812555e-05
-0.00012271612
-0.00021591574
-0.00031075857
-0.00040412262
-0.0004974794
-0.00059192044
-0.00068288558
-0.00077202899
-0.00086117356
-0.00095067655
-0.0010406319
-0.0011301811
-0.0012197237
-0.0013071965
-0.001394728
-0.0014825427
-0.0015696869
-0.0016586392
-0.0017476712
-0.0018359546
-0.001923568
-0.0020102979
-0.0020980475
-0.0021835464
-0.0022687496
-0.0023542665
-0.0024382093
-0.0025218483
-0.002604212
-0.0026861703
-0.0027689153
-0.0028512978
-0.0029344475
-0.0030182089
-0.003098502
-0.0031792316
-0.0032610077
-0.0033411285
0
0
0
0
0
0
0
0
0
0
0
0
0
0
0
0
0
0
0
0
0
0
0
0
0
0
0
0
0
0
0
0
0
0
0
0
0
0
0
0
0
0
0
0
0
0
0
0
0
0
0
0
0
0
0
0
0
0
0
0
0
0
0
0
0
0
0
0
0
0
0
0
0
0
0
0
0
0
0
0
0
0
0
0
0
0
0
0
0
0
0
-0.0040959072
-0.0033290124
-0.0025325772
-0.0017070661
-0.00086351688
-1.0233167e-05
0.00084305055
0.0016963343
0.0025768024
0.0034468892
0
0
0
0
0
0
0
0
0
0
0
0
0
0
0
0
0
0
0
0
0
0
0
0
0
0
0
0
0
0
0
0
0
0
0
0
0
0
0
0
0
0
0
0
0
0
0
0
0
0
0
0
0
0
0
0
0
0
0
0
0
0
0
0
0
0
0
0
0
0.0033713811
0.0032780041
0.0031834692
0.0030900268
0.0029980735
0.0029061878
0.0028143325
0.002723239
0.0026342796
0.0025464559
0.0024591048
0.0023710833
0.0022826514
0.0021943514
0.0021061785
0.0020169041
0.0019274287
0.0018376126
0.0017470555
0.001656237
0.0015650077
0.001471711
0.0013786599
0.0012868137
0.0011917648
0.0010986192
0.0010069311
0.00091461472
0.00082323674
0.00073185997
0.0006393558
0.00054668923
0.00045461851
0.00036299472
0.00027277861
0.00018085219
8.8030593e-05
-3.8380351e-06
-9.4876841e-05
-0.00018686821
-0.00027951361
-0.00037169727
-0.00046245384
-0.00055255011
-0.00064416562
-0.00073556065
-0.00082765352
-0.00091906823
-0.0010108697
-0.0011039218
-0.001198752
-0.0012921787
-0.0013854987
-0.0014800846
-0.0015713153
-0.0016605581
-0.0017496664
-0.0018391201
-0.0019290682
-0.0020186579
-0.002108313
-0.0021958703
-0.0022833881
-0.002371207
-0.0024582849
-0.0025471592
-0.00263623
-0.0027246001
-0.0028122704
-0.002899007
-0.0029868302
-0.0030724272
-0.0031577555
-0.0032432239
-0.0033272613
0
0
0
0
0
0
0
0
0
0
0
0
0
0
0
0
0
0
0
0
0
0
0
0
0
0
0
0
0
0
0
0
0
0
0
0
0
0
0
0
0
0
0
0
0
0
0
0
0
0
0
0
0
0
0
0
0
0
0
0
0
0
0
0
0
0
0
0
0
0
0
0
0
0
0
0
0
0
0
0
0
0
0
0
0
0
0
0
0
0
0
0
0
0
0
0
0
0
0
0
0
0
0
-0.0036866171
-0.0028333334
-0.0019800497
-0.0011043983
-0.00023431158
0.00063577517
0.0015058619
0.0023738889
0.0032509225
0
0
0
0
0
0
0
0
0
0
0
0
0
0
0
0
0
0
0
0
0
0
0
0
0
0
0
0
0
0
0
0
0
0
0
0
0
0
0
0
0
0
0
0
0
0
0
0
0
0
0
0
0
0
0
0
0
0
0
0.0034189661
0.0033228014
0.0032271485
0.0031324845
0.0030389512
0.0029464153
0.0028533862
0.002761037
0.002668545
0.0025758275
0.0024832483
0.0023899646
0.0022956365
0.0022019174
0.0021098769
0.0020179648
0.0019260879
0.0018348698
0.0017457352
0.0016578
0.0015704406
0.0014824695
0.0013940639
0.0013057515
0.0012176169
0.0011284032
0.0010389669
0.00094919998
0.00085868539
0.00076790946
0.00067679916
0.00058360599
0.00049052615
0.00039874697
0.0003037482
0.00021047648
0.00011871512
2.6369973e-05
-6.5041823e-05
-0.00015636962
-0.00024880153
-0.00034147693
-0.0004336072
-0.00052534129
-0.00061553516
-0.00070732948
-0.0008001479
-0.00089210879
-0.00098314507
-0.0010750499
-0.0011676841
-0.0012599711
-0.0013507188
-0.0014408826
-0.0015324301
-0.0016237984
-0.0017159051
-0.0018073239
-0.0018990233
-0.001991928
-0.0020867454
-0.0021802348
-0.0022735181
-0.0023682487
-0.002459745
-0.0025490872
-0.0026381593
-0.0027275637
-0.0028175044
-0.0029071346
-0.0029969023
-0.0030845442
-0.0031719653
-0.0032598712
-0.003346883
0
0
0
0
0
0
0
0
0
0
0
0
0
0
0
0
0
0
0
0
0
0
0
0
0
0
0
0
0
0
0
0
0
0
0
0
0
0
0
0
0
0
0
0
0
0
0
0
0
0
0
0
0
0
0
0
0
0
0
0
0
0
0
0
0
0
0
0
0
0
0
0
0
0
0
0
0
0
0
0
0
0
0
0
0
0
0
0
0
0
0
0
0
0
0
0
0
0
0
0
0
0
0
0
0
0
0
0
0
0
0
0
0
-0.0039155123
-0.0030454256
-0.0021792233
-0.0013021897
-0.00042515606
0.00045817596
0.0013360049
0.002213834
0.003091663
0
0
0
0
0
0
0
0
0
0
0
0
0
0
0
0
0
0
0
0
0
0
0
0
0
0
0
0
0
0
0
0
0
0
0
0
0
0
0
0
0
0
0
0
0
0
0
0
0
0
0.0034258096
0.0033222722
0.0032191054
0.0031174376
0.0030177905
0.0029195067
0.0028213337
0.0027237712
0.0026273171
0.0025311952
0.0024350173
0.0023392953
0.0022445216
0.00215088
0.0020582828
0.0019652389
0.0018728704
0.0017803839
0.0016876671
0.0015951156
0.001501925
0.0014076311
0.001313808
0.0012216803
0.0011297417
0.0010378432
0.00094650069
0.00085719078
0.00076914413
0.00068177637
0.00059385579
0.00050547635
0.0004171517
0.00032905527
0.00023990237
0.0001505051
6.0787329e-05
-2.9684714e-05
-0.0001204181
-0.00021140934
-0.00030449904
-0.00039760755
-0.0004893198
-0.00058426845
-0.0006776662
-0.00076950088
-0.00086187477
-0.00095332039
-0.0010445992
-0.0011369589
-0.0012296431
-0.0013218329
-0.0014136773
-0.0015038489
-0.0015955112
-0.0016883264
-0.0017803795
-0.0018714133
-0.0019632315
-0.0020558546
-0.002148245
-0.0022390892
-0.0023292151
-0.0024206945
-0.0025120361
-0.0026041567
-0.0026955796
-0.0027871769
-0.0028799341
-0.0029747388
-0.0030682909
-0.003161889
-0.0032564128
-0.0033481747
0
0
0
0
0
0
0
0
0
0
0
0
0
0
0
0
0
0
0
0
0
0
0
0
0
0
0
0
0
0
0
0
0
0
0
0
0
0
0
0
0
0
0
0
0
0
0
0
0
0
0
0
0
0
0
0
0
0
0
0
0
0
0
0
0
0
0
0
0
0
0
0
0
0
0
0
0
0
0
0
0
0
0
0
0
0
0
0
0
0
0
0
0
0
0
0
0
0
0
0
0
0
0
0
0
0
0
0
0
0
0
0
0
0
0
0
0
0
0
0
0
0
0
0
-0.0032168759
-0.0023390469
-0.0014561808
-0.00057431942
0.00030754195
0.0011894033
0.0020712647
0.0029531261
0
0
0
0
0
0
0
0
0
0
0
0
0
0
0
0
0
0
0
0
0
0
0
0
0
0
0
0
0
0
0
0
0
0
0
0
0
0
0
0
0
0
0.0033900178
0.0032817681
0.0031732411
0.0030659153
0.0029597221
0.0028541019
0.0027481046
0.0026435012
0.0025389497
0.0024353371
0.0023324029
0.0022302365
0.0021303924
0.0020319781
0.0019337579
0.0018361137
0.0017395735
0.0016434244
0.0015472332
0.0014514421
0.0013565588
0.0012628088
0.0011701503
0.0010770915
0.00098470388
0.0008922228
0.0007995067
0.00070698276
0.00061388552
0.00051962569
0.00042569851
0.00033348371
0.0002415187
0.0001495985
5.8131545e-05
-3.1353623e-05
-0.00011951176
-0.00020688782
-0.00029475794
-0.00038311118
-0.00047144814
-0.00055950634
-0.00064859849
-0.00073795671
-0.00082762533
-0.00091805482
-0.0010087457
-0.0010996178
-0.0011926041
-0.0012857413
-0.0013773866
-0.0014722851
-0.0015658089
-0.0016577169
-0.0017501195
-0.001841599
-0.0019328288
-0.0020251162
-0.0021178093
-0.0022100586
-0.0023020133
-0.0023921627
-0.0024836928
-0.0025765049
-0.0026686503
-0.0027596815
-0.0028514132
-0.0029440251
-0.0030365189
-0.0031274595
-0.0032175476
-0.003308959
-0.0034002738
0
0
0
0
0
0
0
0
0
0
0
0
0
0
0
0
0
0
0
0
0
0
0
0
0
0
0
0
0
0
0
0
0
0
0
0
0
0
0
0
0
0
0
0
0
0
0
0
0
0
0
0
0
0
0
0
0
0
0
0
0
0
0
0
0
0
0
0
0
0
0
0
0
0
0
0
0
0
0
0
0
0
0
0
0
0
0
0
0
0
0
0
0
0
0
0
0
0
0
0
0
0
0
0
0
0
0
0
0
0
0
0
0
0
0
0
0
0
0
0
0
0
0
0
0
0
0
0
0
0
0
0
0
-0.0033603091
-0.002473583
-0.0015896974
-0.00070581165
0.00017807404
0.0010619597
0.0019458454
0.0028297311
0
0
0
0
0
0
0
0
0
0
0
0
0
0
0
0
0
0
0
0
0
0
0
0
0
0
0
0
0
0
0
0
0
0.0034144204
0.0033237194
0.003228435
0.003129798
0.0030295464
0.002926598
0.0028226327
0.0027173134
0.0026104872
0.0025035284
0.0023953668
0.0022867588
0.0021794075
0.0020730972
0.0019674308
0.0018613875
0.0017567081
0.0016520899
0.0015484021
0.001445372
0.0013430354
0.0012429943
0.0011444495
0.0010461822
0.00094845617
0.00085182989
0.00075565354
0.0006594491
0.00056358895
0.00046870762
0.00037473756
0.00028201783
0.0001889442
9.6537336e-05
4.0616928e-06
-8.8653689e-05
-0.00018115003
-0.00027415401
-0.00036837971
-0.00046241093
-0.00055471288
-0.00064670433
-0.00073864618
-0.0008302376
-0.00091989803
-0.0010081677
-0.001095552
-0.0011833717
-0.0012716987
-0.001360048
-0.0014480679
-0.0015370994
-0.0016264185
-0.001716038
-0.0018064249
-0.0018970732
-0.0019878263
-0.0020807091
-0.002173875
-0.002266747
-0.0023603017
-0.0024539516
-0.0025459329
-0.0026383643
-0.0027298775
-0.0028210584
-0.0029132735
-0.0030059754
-0.0030982843
-0.0031903766
-0.0032804765
-0.0033718745
0
0
0
0
0
0
0
0
0
0
0
0
0
0
0
0
0
0
0
0
0
0
0
0
0
0
0
0
0
0
0
0
0
0
0
0
0
0
0
0
0
0
0
0
0
0
0
0
0
0
0
0
0
0
0
0
0
0
0
0
0
0
0
0
0
0
0
0
0
0
0
0
0
0
0
0
0
0
0
0
0
0
0
0
0
0
0
0
0
0
0
0
0
0
0
0
0
0
0
0
0
0
0
0
0
0
0
0
0
0
0
0
0
0
0
0
0
0
0
0
0
0
0
0
0
0
0
0
0
0
0
0
0
0
0
0
0
0
0
0
0
0
0
-0.0034845092
-0.0026024893
-0.0017174232
-0.00083235719
5.2708825e-05
0.00093777484
0.0018228408
0.0027079068
0
0
0
0
0
0
0
0
0
0
0
0
0
0
0
0
0
0.0032225742
0.0031830492
0.0031458774
0.0031118178
0.0030816116
0.0030552061
0.0030314305
0.0030081647
0.0029829489
0.0029537177
0.0029187659
0.0028757057
0.0028224422
0.0027603624
0.0026888838
0.0026104091
0.0025256046
0.0024354226
0.0023406111
0.0022422923
0.0021422765
0.002039574
0.0019357735
0.0018306155
0.001723906
0.001617039
0.0015089655
0.001400888
0.0012928997
0.0011864722
0.0010807598
0.0009746704
0.000869915
0.00076523007
0.00066146707
0.00055834115
0.00045600244
0.00035559624
0.00025692087