/*--------------------------------*- C++ -*----------------------------------*\
| =========                 |                                                 |
| \\      /  F ield         | OpenFOAM: The Open Source CFD Toolbox           |
|  \\    /   O peration     | Version:  2106                                  |
|   \\  /    A nd           | Website:  www.openfoam.com                      |
|    \\/     M anipulation  |                                                 |
\*---------------------------------------------------------------------------*/
FoamFile
{
    version     2.0;
    format      ascii;
    arch        "LSB;label=32;scalar=64";
    class       volVectorField;
    location    "0.215";
    object      U_0;
}
// * * * * * * * * * * * * * * * * * * * * * * * * * * * * * * * * * * * * * //

dimensions      [0 1 -1 0 0 0 0];

internalField   nonuniform List<vector> 
32768
(
(-0.00027046446 -0.00036645664 0)
(0.0021037739 -0.0012290487 0)
(0.0060504869 -0.0016409993 0)
(0.010610228 -0.0019002091 0)
(0.015484822 -0.0020020393 0)
(0.020498363 -0.0020437693 0)
(0.025558736 -0.002059869 0)
(0.03063366 -0.0020635866 0)
(0.035719925 -0.0020855994 0)
(0.040809919 -0.0021324252 0)
(0.045891771 -0.002186284 0)
(0.05095966 -0.0022381212 0)
(0.056014085 -0.0022870571 0)
(0.061046975 -0.0023266877 0)
(0.066069384 -0.0023688366 0)
(0.071060115 -0.0023957834 0)
(0.076054129 -0.0024309863 0)
(0.081011837 -0.0024536538 0)
(0.085976314 -0.0024617662 0)
(0.090924283 -0.0025160167 0)
(0.095859615 -0.0024688267 0)
(0.10078802 -0.0025702279 0)
(0.105734 -0.0024943226 0)
(0.11066496 -0.0025688976 0)
(0.11554087 -0.0025884281 0)
(0.12055029 -0.0025284501 0)
(0.12545902 -0.0026410636 0)
(0.13031434 -0.0025981668 0)
(0.1353827 -0.002576657 0)
(0.14034748 -0.00268626 0)
(0.14517173 -0.002639533 0)
(0.15021176 -0.0026101086 0)
(0.15530803 -0.0027156516 0)
(0.16022212 -0.002708616 0)
(0.16513938 -0.0026378733 0)
(0.17020894 -0.0027254246 0)
(0.17532977 -0.0027530268 0)
(0.18035074 -0.0027158732 0)
(0.18526118 -0.0027265379 0)
(0.19027061 -0.0027476478 0)
(0.19545405 -0.0027551296 0)
(0.20057869 -0.0027854132 0)
(0.20550849 -0.0027734749 0)
(0.21045168 -0.0027252459 0)
(0.21554994 -0.0027569295 0)
(0.22065256 -0.002819677 0)
(0.22569818 -0.002781012 0)
(0.2307401 -0.0027335403 0)
(0.23566432 -0.0027785233 0)
(0.24052621 -0.0027383272 0)
(0.24553491 -0.0027326138 0)
(0.25064913 -0.0028002889 0)
(0.25567057 -0.0027583936 0)
(0.26046492 -0.0027055745 0)
(0.26521738 -0.0026833234 0)
(0.2700859 -0.00270017 0)
(0.27494962 -0.0027310378 0)
(0.27983959 -0.0027104723 0)
(0.28477263 -0.0026795408 0)
(0.28952234 -0.0026630656 0)
(0.29405046 -0.0026246255 0)
(0.29863884 -0.0025896663 0)
(0.30341168 -0.0026381151 0)
(0.30817498 -0.0026630519 0)
(0.31278509 -0.002587659 0)
(0.31732892 -0.0025584747 0)
(0.32193973 -0.0025707013 0)
(0.3265192 -0.0025470937 0)
(0.3308749 -0.0025178307 0)
(0.33515111 -0.0024925473 0)
(0.33962898 -0.0025072184 0)
(0.34425034 -0.0025454217 0)
(0.34874858 -0.0025187268 0)
(0.35304179 -0.0024467347 0)
(0.35727502 -0.0024046165 0)
(0.36155485 -0.0024267584 0)
(0.36580594 -0.0024622202 0)
(0.3699972 -0.0024132652 0)
(0.37424393 -0.0023718239 0)
(0.37853063 -0.0024479866 0)
(0.38278253 -0.0024385317 0)
(0.38701383 -0.0023281324 0)
(0.39114184 -0.0023510056 0)
(0.39515272 -0.0023876955 0)
(0.39921632 -0.0023103712 0)
(0.40336176 -0.0023136265 0)
(0.40747207 -0.0023965613 0)
(0.41152372 -0.0023438777 0)
(0.41552465 -0.0022531997 0)
(0.41945625 -0.0023085451 0)
(0.42345684 -0.0023581567 0)
(0.4276375 -0.0022961478 0)
(0.43178036 -0.0022743683 0)
(0.43564788 -0.002295821 0)
(0.43938359 -0.0022493947 0)
(0.44325567 -0.0022033864 0)
(0.44724441 -0.0022801626 0)
(0.45117958 -0.0023256392 0)
(0.45505645 -0.0022352927 0)
(0.45889255 -0.0022048726 0)
(0.46267433 -0.0022530846 0)
(0.46652704 -0.0022472514 0)
(0.47050504 -0.0022266358 0)
(0.47446604 -0.0022382226 0)
(0.47828969 -0.0022183111 0)
(0.48196223 -0.0021715224 0)
(0.48554251 -0.0021512391 0)
(0.48917175 -0.0021822552 0)
(0.49293578 -0.0022463801 0)
(0.49677824 -0.0022267831 0)
(0.50061771 -0.0021562064 0)
(0.50436116 -0.0021845359 0)
(0.50800035 -0.0021885192 0)
(0.51165098 -0.0020966804 0)
(0.5153268 -0.0021073182 0)
(0.51898103 -0.0021978127 0)
(0.52267583 -0.0021551403 0)
(0.52637857 -0.0020770224 0)
(0.52994202 -0.0020998077 0)
(0.53338989 -0.0021305555 0)
(0.53686738 -0.0020762276 0)
(0.54041811 -0.0020690408 0)
(0.544005 -0.0021118434 0)
(0.54760621 -0.0020998351 0)
(0.55116997 -0.0020724404 0)
(0.55465772 -0.0020557846 0)
(0.55812206 -0.0020250276 0)
(0.56159835 -0.0020307308 0)
(0.56509606 -0.0020601952 0)
(0.56865064 -0.0020234951 0)
(0.572183 -0.0019697635 0)
(0.575551 -0.0019854782 0)
(0.57878425 -0.001999437 0)
(0.58202875 -0.0019474369 0)
(0.58533407 -0.0019483248 0)
(0.58867043 -0.0020134671 0)
(0.59207697 -0.0020360016 0)
(0.59555747 -0.0019608901 0)
(0.59898636 -0.0019417866 0)
(0.60230714 -0.0019529483 0)
(0.60556665 -0.0019399085 0)
(0.60878465 -0.0018743653 0)
(0.61196561 -0.0018765742 0)
(0.61514226 -0.0019062232 0)
(0.61839852 -0.0018920427 0)
(0.62176421 -0.0018736122 0)
(0.62511577 -0.0018647134 0)
(0.62832598 -0.0018279549 0)
(0.63139776 -0.0018080907 0)
(0.63441621 -0.001821811 0)
(0.63746004 -0.0018274941 0)
(0.64057313 -0.0018466386 0)
(0.6437676 -0.001889486 0)
(0.64703486 -0.0018836231 0)
(0.65030582 -0.0018520581 0)
(0.65348379 -0.0018375831 0)
(0.65654985 -0.0018166783 0)
(0.65951481 -0.0017989158 0)
(0.66245066 -0.0017792822 0)
(0.66547251 -0.0017937246 0)
(0.66861524 -0.0018061011 0)
(0.67188617 -0.00179398 0)
(0.67518808 -0.0017690465 0)
(0.67837917 -0.0017437185 0)
(0.68145211 -0.0017105897 0)
(0.68441763 -0.0017084246 0)
(0.68729289 -0.0017135591 0)
(0.69015518 -0.0017286158 0)
(0.6930561 -0.0017604187 0)
(0.69600846 -0.0017565394 0)
(0.69899846 -0.0017446196 0)
(0.70200671 -0.0017453085 0)
(0.70501977 -0.0017141751 0)
(0.70800079 -0.0016641839 0)
(0.71094724 -0.0016488752 0)
(0.7139187 -0.0016613613 0)
(0.71693583 -0.0016664316 0)
(0.71993895 -0.0016426527 0)
(0.7228712 -0.0016242732 0)
(0.72576332 -0.0016391078 0)
(0.7286525 -0.001660137 0)
(0.73150232 -0.0016390311 0)
(0.73430691 -0.0016039278 0)
(0.73709815 -0.0016176525 0)
(0.7398876 -0.0016595655 0)
(0.74270895 -0.0016512032 0)
(0.7455767 -0.0016199835 0)
(0.7484499 -0.0015721354 0)
(0.75132947 -0.0015266796 0)
(0.75425288 -0.0015248501 0)
(0.75717403 -0.0015130741 0)
(0.75999001 -0.00144322 0)
(0.76265548 -0.0014065072 0)
(0.76520561 -0.0014185803 0)
(0.76775509 -0.0014281103 0)
(0.77042831 -0.0014640186 0)
(0.77327366 -0.0014885041 0)
(0.77624812 -0.0013837508 0)
(0.7792243 -0.0012018807 0)
(0.78184562 -0.0011030683 0)
(0.78428309 -0.0011021522 0)
(0.78660005 -0.0011453774 0)
(0.78881993 -0.001255524 0)
(0.79094069 -0.0013032789 0)
(0.79295062 -0.0013293414 0)
(0.79489379 -0.0012960594 0)
(0.7968943 -0.001179442 0)
(0.79909282 -0.0010531019 0)
(0.80152366 -0.00085528045 0)
(0.80389214 -0.000559308 0)
(0.80589176 -0.00039837677 0)
(0.80762833 -0.00040395854 0)
(0.80926923 -0.00040342388 0)
(0.81083124 -0.00033676302 0)
(0.8122787 -0.00028989714 0)
(0.8136387 -0.00029515071 0)
(0.81489928 -0.00046253281 0)
(0.81605589 -0.00044215661 0)
(0.81671081 -0.00044467499 0)
(0.81724809 0.00015669311 0)
(0.8172508 0.0006552186 0)
(0.81702782 0.0011712113 0)
(0.8164978 0.0016242787 0)
(0.81553145 0.0020214439 0)
(0.81399461 0.002390468 0)
(0.81176719 0.0027856218 0)
(0.80869907 0.003262881 0)
(0.8046155 0.0038134605 0)
(0.79931951 0.0044050828 0)
(0.79289732 0.0050569718 0)
(0.78501277 0.005639325 0)
(0.77568581 0.0064591004 0)
(0.76444731 0.0073864055 0)
(0.75095146 0.0087309148 0)
(0.73464755 0.010299543 0)
(0.71561459 0.012135486 0)
(0.69296843 0.014348553 0)
(0.66627768 0.016761499 0)
(0.63519273 0.019736511 0)
(0.59848675 0.023112458 0)
(0.55572363 0.026943986 0)
(0.5061632 0.030976102 0)
(0.448534 0.035902975 0)
(0.38283866 0.040521793 0)
(0.30846045 0.046085366 0)
(0.22577397 0.049640686 0)
(0.13644226 0.049676025 0)
(0.041289591 0.039718076 0)
(-0.035185775 0.022393501 0)
(-0.096074242 0.017043737 0)
(-0.16217626 0.0311326 0)
(-0.2195127 0.041447439 0)
(-0.26398816 0.030934431 0)
(-0.27526498 -0.0084163255 0)
(-0.1880161 -0.052043267 0)
(-0.10029854 -0.10608603 0)
(-0.0003824592 -0.0014093203 0)
(0.0023529445 -0.00512725 0)
(0.0072803558 -0.0067644004 0)
(0.012533581 -0.0075461129 0)
(0.018220625 -0.0078748157 0)
(0.02399669 -0.0080086494 0)
(0.029822038 -0.0080590934 0)
(0.035656887 -0.0080670217 0)
(0.041482904 -0.0080529264 0)
(0.047262629 -0.0080023094 0)
(0.053004732 -0.0079333011 0)
(0.058708986 -0.0078558051 0)
(0.064398112 -0.0077826383 0)
(0.070027973 -0.0077089167 0)
(0.075702423 -0.0076510008 0)
(0.081220257 -0.0075987314 0)
(0.08696169 -0.0075098147 0)
(0.092302787 -0.0076017955 0)
(0.098180785 -0.0072295782 0)
(0.10334188 -0.0078315 0)
(0.1093153 -0.0068463141 0)
(0.11439145 -0.0079340826 0)
(0.12034858 -0.0070348753 0)
(0.12563058 -0.007236847 0)
(0.13101937 -0.0078017733 0)
(0.13708726 -0.0068824211 0)
(0.14205795 -0.007371965 0)
(0.1476452 -0.0076123225 0)
(0.15372939 -0.0071244873 0)
(0.1588192 -0.0072189987 0)
(0.16415264 -0.0074921393 0)
(0.17027583 -0.0073909511 0)
(0.17580219 -0.0072606266 0)
(0.1810273 -0.0073341085 0)
(0.18667454 -0.0072761753 0)
(0.19248224 -0.007608953 0)
(0.19826351 -0.0073666347 0)
(0.20369261 -0.0071918003 0)
(0.2090065 -0.0073294092 0)
(0.2148263 -0.0075851043 0)
(0.22088769 -0.0074367248 0)
(0.22640948 -0.0073116609 0)
(0.23162284 -0.0072594402 0)
(0.23733032 -0.0073559012 0)
(0.24326586 -0.0073845551 0)
(0.24883187 -0.0074498706 0)
(0.2544727 -0.0074660454 0)
(0.26027401 -0.007012985 0)
(0.26544175 -0.0072433821 0)
(0.27095318 -0.0072162387 0)
(0.27682484 -0.0073160998 0)
(0.28271095 -0.0074900741 0)
(0.28824219 -0.0069860614 0)
(0.29325638 -0.0069760544 0)
(0.29881783 -0.0069993168 0)
(0.30444031 -0.0069864299 0)
(0.30978601 -0.0071744081 0)
(0.31553059 -0.0071821308 0)
(0.32126145 -0.0069326996 0)
(0.32630805 -0.006659619 0)
(0.33116761 -0.0066807989 0)
(0.33665745 -0.0067605869 0)
(0.3423672 -0.0068703748 0)
(0.34768889 -0.0068285784 0)
(0.35274021 -0.0065837032 0)
(0.35793972 -0.0066736598 0)
(0.36348606 -0.0066775845 0)
(0.36866711 -0.0063247801 0)
(0.37323432 -0.0062322771 0)
(0.37816057 -0.0063752974 0)
(0.38371143 -0.0065576947 0)
(0.38918965 -0.0065946208 0)
(0.39413721 -0.006359558 0)
(0.39886182 -0.0061283229 0)
(0.40381671 -0.0061257108 0)
(0.40891434 -0.0061189481 0)
(0.41368366 -0.0060819808 0)
(0.41845586 -0.006100366 0)
(0.42359482 -0.0060462206 0)
(0.42853507 -0.0062132287 0)
(0.4334361 -0.0062149293 0)
(0.43846316 -0.0058505446 0)
(0.44305802 -0.0058220403 0)
(0.44756991 -0.005944163 0)
(0.45250331 -0.005820577 0)
(0.45745366 -0.0058308388 0)
(0.46216641 -0.0059810721 0)
(0.46685343 -0.0057759561 0)
(0.47146693 -0.0054914771 0)
(0.47588543 -0.0057397 0)
(0.48072971 -0.0060656287 0)
(0.48598174 -0.0058784391 0)
(0.49071773 -0.0056299541 0)
(0.49483185 -0.005506715 0)
(0.49912443 -0.0055140528 0)
(0.50400814 -0.0054997042 0)
(0.50880092 -0.0056265607 0)
(0.51326694 -0.0057167338 0)
(0.51785013 -0.0054127305 0)
(0.52225378 -0.0053299008 0)
(0.5265455 -0.0055765103 0)
(0.53124677 -0.0056302305 0)
(0.53615294 -0.0056220929 0)
(0.54082493 -0.0055999303 0)
(0.54523311 -0.0053682943 0)
(0.54940075 -0.0050667587 0)
(0.55349724 -0.0051015202 0)
(0.55790335 -0.0052432802 0)
(0.5624956 -0.0054310281 0)
(0.56710811 -0.005515096 0)
(0.57170433 -0.0053566751 0)
(0.57596564 -0.0052598176 0)
(0.58013704 -0.0052988533 0)
(0.5845904 -0.0051295398 0)
(0.58894562 -0.0051586109 0)
(0.59325274 -0.0053968679 0)
(0.59783924 -0.0053089405 0)
(0.60229901 -0.0050263895 0)
(0.60636291 -0.0049789681 0)
(0.61037408 -0.005010198 0)
(0.61460217 -0.0049348402 0)
(0.61890119 -0.0049963332 0)
(0.62322087 -0.0051866693 0)
(0.62757365 -0.005129193 0)
(0.63175055 -0.0049778638 0)
(0.63582303 -0.0049605472 0)
(0.64002389 -0.0049189033 0)
(0.64420086 -0.0049912246 0)
(0.64846128 -0.0051295293 0)
(0.65296268 -0.0050502105 0)
(0.6572671 -0.0048281681 0)
(0.66114 -0.0047309682 0)
(0.66489509 -0.0046472551 0)
(0.66886494 -0.0045398404 0)
(0.67289291 -0.004596049 0)
(0.67685405 -0.0049156807 0)
(0.68109517 -0.0049484174 0)
(0.68545143 -0.004834962 0)
(0.6895586 -0.0048063167 0)
(0.693548 -0.004766946 0)
(0.69749514 -0.0045894615 0)
(0.70140389 -0.0044540211 0)
(0.70524071 -0.0045187935 0)
(0.70904684 -0.0046885904 0)
(0.71318066 -0.0047594092 0)
(0.71752621 -0.0048092956 0)
(0.72165134 -0.004767851 0)
(0.72544474 -0.004540187 0)
(0.72907653 -0.0043292157 0)
(0.7327158 -0.0042792031 0)
(0.73640979 -0.0043884134 0)
(0.74024971 -0.0044708594 0)
(0.74424226 -0.0046176728 0)
(0.74842803 -0.0047214659 0)
(0.75247247 -0.0046195117 0)
(0.75630981 -0.0044515201 0)
(0.76006224 -0.004178848 0)
(0.76352758 -0.004212511 0)
(0.76702662 -0.0042996512 0)
(0.7707108 -0.0043684756 0)
(0.77465345 -0.0046234802 0)
(0.77895055 -0.0048434973 0)
(0.78303132 -0.004825707 0)
(0.78691885 -0.0045453316 0)
(0.7908215 -0.0042785012 0)
(0.79449009 -0.0042108976 0)
(0.79801464 -0.004109612 0)
(0.80158128 -0.0040488705 0)
(0.80522321 -0.0041119191 0)
(0.80893727 -0.004274653 0)
(0.81264418 -0.0043079807 0)
(0.81638506 -0.0043219922 0)
(0.82013023 -0.0043437722 0)
(0.82371968 -0.0043219017 0)
(0.82734327 -0.0042872872 0)
(0.83115903 -0.0043650506 0)
(0.83504712 -0.0044356913 0)
(0.83881647 -0.004323394 0)
(0.84247521 -0.004223272 0)
(0.84626367 -0.0041756179 0)
(0.85005156 -0.0041201385 0)
(0.85363266 -0.004101053 0)
(0.85716836 -0.0040007656 0)
(0.86070596 -0.0039194837 0)
(0.8642335 -0.0039991662 0)
(0.86788026 -0.0041210783 0)
(0.87155074 -0.0041573506 0)
(0.87516521 -0.0042470534 0)
(0.87892417 -0.004328353 0)
(0.88287778 -0.0043523665 0)
(0.8867302 -0.004303713 0)
(0.89028422 -0.0040922301 0)
(0.89355333 -0.003799081 0)
(0.89663082 -0.0037261466 0)
(0.89982166 -0.0038359609 0)
(0.90331312 -0.0040677123 0)
(0.90713826 -0.0044358924 0)
(0.91132046 -0.0046029759 0)
(0.91564986 -0.0044093096 0)
(0.91978959 -0.0040530547 0)
(0.92374985 -0.0037366497 0)
(0.92751768 -0.0034205208 0)
(0.93091016 -0.0031542933 0)
(0.93385015 -0.0028409711 0)
(0.93649901 -0.0026224223 0)
(0.93900761 -0.0027046941 0)
(0.94163533 -0.0031157082 0)
(0.94467611 -0.0036108861 0)
(0.94821676 -0.0039021126 0)
(0.95220582 -0.0037815002 0)
(0.95629735 -0.0034094485 0)
(0.96006754 -0.0030477196 0)
(0.96345598 -0.0028443554 0)
(0.96659894 -0.0027823566 0)
(0.96959685 -0.0026361371 0)
(0.97259826 -0.0023558876 0)
(0.97552384 -0.0019888692 0)
(0.97824443 -0.0014582166 0)
(0.98058559 -0.00078797135 0)
(0.98244058 -0.00048849129 0)
(0.98416642 -0.00051780082 0)
(0.98594852 -0.00046753468 0)
(0.98760988 -0.00012904803 0)
(0.98917023 0.00051707875 0)
(0.99064254 0.0014402519 0)
(0.99197823 0.0025156549 0)
(0.99304322 0.0038110946 0)
(0.99355794 0.0053920525 0)
(0.99429063 0.0073471879 0)
(0.99210712 0.0084511674 0)
(0.9911158 0.012098989 0)
(0.98462058 0.01350037 0)
(0.97960856 0.017745297 0)
(0.96806273 0.020082387 0)
(0.95717995 0.025598935 0)
(0.94197622 0.028699847 0)
(0.92422465 0.035056162 0)
(0.90321721 0.041047172 0)
(0.87969363 0.047430137 0)
(0.84946189 0.057093711 0)
(0.81768199 0.064814011 0)
(0.77853956 0.077560514 0)
(0.73282712 0.087647201 0)
(0.68248392 0.1020185 0)
(0.61927271 0.11331788 0)
(0.55014928 0.12578878 0)
(0.46793392 0.13653943 0)
(0.3784432 0.14157722 0)
(0.26266329 0.12924597 0)
(0.13261848 0.11506093 0)
(0.0096481098 0.088626248 0)
(-0.087735281 0.058693198 0)
(-0.13367824 0.01663378 0)
(-0.16439418 -0.049124597 0)
(-0.11029829 -0.14916912 0)
(-0.050751067 -0.203247 0)
(-0.00038028838 -0.0023265361 0)
(0.0023521318 -0.0089357875 0)
(0.0071925699 -0.011757004 0)
(0.012393295 -0.012970958 0)
(0.018031206 -0.013496369 0)
(0.023757737 -0.013711227 0)
(0.029524127 -0.013780962 0)
(0.035303841 -0.013783684 0)
(0.041074376 -0.013754528 0)
(0.046829121 -0.013713776 0)
(0.052569067 -0.01367036 0)
(0.058281081 -0.013630802 0)
(0.063998859 -0.013593388 0)
(0.069636531 -0.013570271 0)
(0.07540036 -0.013525826 0)
(0.080850917 -0.013549414 0)
(0.086846512 -0.013422781 0)
(0.091883328 -0.013634066 0)
(0.098315277 -0.013185137 0)
(0.10291042 -0.013930958 0)
(0.10950517 -0.012811165 0)
(0.11430021 -0.01415411 0)
(0.12027165 -0.013002573 0)
(0.12584691 -0.013428895 0)
(0.13115258 -0.014014207 0)
(0.13707364 -0.012955029 0)
(0.14237361 -0.013586271 0)
(0.14803953 -0.01387551 0)
(0.15376336 -0.013487678 0)
(0.15915311 -0.013258195 0)
(0.16476993 -0.013776185 0)
(0.17057633 -0.014066647 0)
(0.17606537 -0.013455787 0)
(0.18164013 -0.013409554 0)
(0.18732006 -0.013770488 0)
(0.19294418 -0.014469196 0)
(0.19887316 -0.013555525 0)
(0.20422087 -0.013387536 0)
(0.20976355 -0.013758281 0)
(0.21568263 -0.014469742 0)
(0.22163962 -0.014038263 0)
(0.22703973 -0.013537234 0)
(0.23230053 -0.013506516 0)
(0.23845943 -0.014101579 0)
(0.24423761 -0.014149198 0)
(0.24980536 -0.013968228 0)
(0.25529337 -0.013967541 0)
(0.26105174 -0.013408555 0)
(0.2666219 -0.013638533 0)
(0.27235088 -0.013630115 0)
(0.27792404 -0.014409786 0)
(0.28378123 -0.014219078 0)
(0.28929223 -0.012925473 0)
(0.29429283 -0.013266833 0)
(0.30024479 -0.013621518 0)
(0.30600216 -0.013504318 0)
(0.31114937 -0.01373682 0)
(0.31677967 -0.013949173 0)
(0.32257443 -0.013273191 0)
(0.32766057 -0.012501983 0)
(0.33257352 -0.012793787 0)
(0.33818181 -0.013488901 0)
(0.34407104 -0.01363751 0)
(0.34958456 -0.012925407 0)
(0.35426794 -0.012544418 0)
(0.35916923 -0.013244386 0)
(0.36510552 -0.013128845 0)
(0.37051167 -0.012109476 0)
(0.37492427 -0.011935917 0)
(0.3799099 -0.012733231 0)
(0.38568928 -0.013387991 0)
(0.3913091 -0.012924729 0)
(0.39606892 -0.012031238 0)
(0.40043227 -0.011935321 0)
(0.40540183 -0.012290944 0)
(0.41086459 -0.01220198 0)
(0.41588175 -0.011928567 0)
(0.42069194 -0.012062601 0)
(0.42569477 -0.012237051 0)
(0.43064048 -0.012436781 0)
(0.4357736 -0.012117333 0)
(0.44063309 -0.011595711 0)
(0.44495203 -0.011586293 0)
(0.44969371 -0.011756847 0)
(0.4547933 -0.011750505 0)
(0.45961487 -0.011969566 0)
(0.46456177 -0.011910584 0)
(0.46958752 -0.011304093 0)
(0.47399604 -0.011016772 0)
(0.47820556 -0.011743926 0)
(0.48332158 -0.012336107 0)
(0.48867656 -0.01192346 0)
(0.4931293 -0.011108756 0)
(0.4970894 -0.010759978 0)
(0.50152592 -0.011164952 0)
(0.50657618 -0.011554942 0)
(0.51152057 -0.01164706 0)
(0.51634593 -0.011367203 0)
(0.52098905 -0.010807135 0)
(0.52509487 -0.010854923 0)
(0.52937478 -0.011303694 0)
(0.53411365 -0.011571544 0)
(0.53890296 -0.011614352 0)
(0.54365595 -0.011358736 0)
(0.54818762 -0.010658605 0)
(0.55222051 -0.010203859 0)
(0.55628796 -0.010547333 0)
(0.56094512 -0.011076205 0)
(0.56579629 -0.011326226 0)
(0.57060335 -0.011201505 0)
(0.5751719 -0.010876357 0)
(0.57928986 -0.010681035 0)
(0.58347159 -0.010599059 0)
(0.58782872 -0.010547516 0)
(0.59194376 -0.010845759 0)
(0.59634499 -0.011135744 0)
(0.60118892 -0.010840698 0)
(0.60565489 -0.010423827 0)
(0.60972065 -0.01031101 0)
(0.61397228 -0.010281574 0)
(0.61830538 -0.010310989 0)
(0.62247106 -0.010636229 0)
(0.62688651 -0.010822258 0)
(0.63140687 -0.010469114 0)
(0.63549733 -0.010197653 0)
(0.63952951 -0.010196131 0)
(0.64371421 -0.010224965 0)
(0.6478023 -0.010451111 0)
(0.65216236 -0.010787031 0)
(0.65689071 -0.010556878 0)
(0.66115653 -0.0099803911 0)
(0.66495246 -0.0097016096 0)
(0.66888924 -0.0095916402 0)
(0.67289495 -0.0095485444 0)
(0.6767402 -0.009849896 0)
(0.6808233 -0.010341159 0)
(0.68529235 -0.01037557 0)
(0.68957963 -0.010080361 0)
(0.69358484 -0.010050079 0)
(0.69772124 -0.0099459199 0)
(0.70183946 -0.0095191339 0)
(0.70568538 -0.0093042021 0)
(0.7095011 -0.0095564084 0)
(0.71346493 -0.0098828697 0)
(0.71764845 -0.010137865 0)
(0.72201639 -0.010141335 0)
(0.72621304 -0.009761427 0)
(0.73002976 -0.0092261565 0)
(0.7335593 -0.0089889726 0)
(0.73698772 -0.0089796417 0)
(0.74057745 -0.0092689056 0)
(0.74448658 -0.0096305016 0)
(0.74854331 -0.0099684825 0)
(0.7529247 -0.0099764581 0)
(0.75730914 -0.0097253918 0)
(0.76136259 -0.0093311971 0)
(0.76514069 -0.0087609938 0)
(0.76861649 -0.0086951057 0)
(0.7721751 -0.0089354707 0)
(0.77578151 -0.0092785891 0)
(0.77951536 -0.0098254738 0)
(0.78378459 -0.010075953 0)
(0.78798863 -0.0098631302 0)
(0.7918788 -0.0094560963 0)
(0.79567766 -0.0090433229 0)
(0.7992943 -0.0088118955 0)
(0.80290915 -0.0087924533 0)
(0.80658857 -0.0088094541 0)
(0.81024814 -0.0088873255 0)
(0.8141924 -0.0090081861 0)
(0.81827661 -0.0091045866 0)
(0.82207646 -0.0090898621 0)
(0.8258305 -0.0088850079 0)
(0.82947879 -0.0088352532 0)
(0.83293318 -0.0089932068 0)
(0.83653642 -0.0092192246 0)
(0.84037754 -0.0092649446 0)
(0.84408256 -0.0090041987 0)
(0.84767664 -0.0089847866 0)
(0.85155998 -0.0090656342 0)
(0.85548275 -0.0088943384 0)
(0.8592675 -0.0087363179 0)
(0.86312211 -0.0086544573 0)
(0.86680799 -0.0085627776 0)
(0.8702705 -0.0086643789 0)
(0.87392086 -0.008759726 0)
(0.87754575 -0.0087040242 0)
(0.88110149 -0.0087902359 0)
(0.88499718 -0.0091240275 0)
(0.88908776 -0.0092203727 0)
(0.89302948 -0.0088099885 0)
(0.89680262 -0.008215336 0)
(0.90031013 -0.007748604 0)
(0.90355903 -0.0076261503 0)
(0.90665273 -0.0079776536 0)
(0.90966932 -0.0086652367 0)
(0.91306474 -0.0093858722 0)
(0.91696819 -0.0097535872 0)
(0.92121218 -0.0096077167 0)
(0.92539574 -0.0091802136 0)
(0.92940752 -0.0086592048 0)
(0.93340336 -0.0080657257 0)
(0.93733819 -0.0074389072 0)
(0.94088208 -0.0068440705 0)
(0.94409878 -0.0064145266 0)
(0.94715269 -0.0063720996 0)
(0.95013342 -0.0068413644 0)
(0.95330293 -0.0076899709 0)
(0.95673648 -0.0084368192 0)
(0.96045122 -0.0085726516 0)
(0.96418506 -0.0081694031 0)
(0.96763914 -0.007488434 0)
(0.97079393 -0.0068150223 0)
(0.97385741 -0.0063565852 0)
(0.97680852 -0.0061741485 0)
(0.97976549 -0.0060783287 0)
(0.98247282 -0.0059864658 0)
(0.98548333 -0.0054966534 0)
(0.98835908 -0.0048012292 0)
(0.99189628 -0.0035337274 0)
(0.99426302 -0.0030200234 0)
(0.99634422 -0.00209235 0)
(0.99754162 -0.0017864491 0)
(0.99945576 -0.0009502224 0)
(1.0007535 -0.00060869319 0)
(1.0029559 7.8255351e-05 0)
(1.0041797 0.0014949807 0)
(1.0057365 0.0024571991 0)
(1.0073295 0.0052927067 0)
(1.0064907 0.0078249191 0)
(1.0072528 0.012323435 0)
(1.0027767 0.017556323 0)
(0.99935932 0.022390696 0)
(0.99069326 0.03027689 0)
(0.98280918 0.035574308 0)
(0.97101423 0.043299104 0)
(0.95470568 0.052572746 0)
(0.94347967 0.059278711 0)
(0.91797688 0.072233602 0)
(0.89902853 0.083963356 0)
(0.86899316 0.096023176 0)
(0.8380996 0.11419682 0)
(0.80287283 0.13038932 0)
(0.76463462 0.14776874 0)
(0.71887079 0.17188997 0)
(0.66877552 0.18889445 0)
(0.60890263 0.20805009 0)
(0.54451613 0.22299297 0)
(0.47655703 0.23737926 0)
(0.39332967 0.24330171 0)
(0.31193506 0.22891561 0)
(0.21690093 0.18226215 0)
(0.14702939 0.10317926 0)
(0.068790532 -0.0013664188 0)
(0.042364136 -0.14675447 0)
(-0.012953318 -0.25145031 0)
(-0.00036005559 -0.0033189879 0)
(0.0023945131 -0.012741622 0)
(0.0072447858 -0.016742548 0)
(0.012466671 -0.018457566 0)
(0.018128283 -0.019196163 0)
(0.023873065 -0.019494294 0)
(0.029656863 -0.019590555 0)
(0.035448471 -0.019590526 0)
(0.041231349 -0.019545659 0)
(0.046996051 -0.019480548 0)
(0.052742041 -0.019404581 0)
(0.058460226 -0.019326712 0)
(0.064173443 -0.019239855 0)
(0.069825516 -0.019173537 0)
(0.075548912 -0.019058888 0)
(0.081064542 -0.019065412 0)
(0.086917662 -0.018838229 0)
(0.092150839 -0.019066563 0)
(0.098288866 -0.018539319 0)
(0.10318549 -0.019203661 0)
(0.10948837 -0.018214962 0)
(0.1144315 -0.019272744 0)
(0.12037404 -0.018315831 0)
(0.12581198 -0.018681967 0)
(0.13133423 -0.01908364 0)
(0.1369658 -0.018185013 0)
(0.14239052 -0.018840709 0)
(0.14823007 -0.018904384 0)
(0.15353786 -0.018641021 0)
(0.15907347 -0.018434302 0)
(0.16501738 -0.018951669 0)
(0.17042666 -0.019174609 0)
(0.17582686 -0.018400028 0)
(0.18159233 -0.018723781 0)
(0.18757393 -0.018960723 0)
(0.19271816 -0.019513728 0)
(0.19864389 -0.018417085 0)
(0.20401181 -0.018768949 0)
(0.21003476 -0.018841939 0)
(0.21562925 -0.019679253 0)
(0.22135491 -0.019008775 0)
(0.22676668 -0.018379685 0)
(0.23221799 -0.018698535 0)
(0.23872442 -0.019578877 0)
(0.24404345 -0.019161441 0)
(0.24966183 -0.018594499 0)
(0.25509286 -0.018810391 0)
(0.26064019 -0.018827515 0)
(0.26676405 -0.018833075 0)
(0.27269353 -0.018329691 0)
(0.27766768 -0.019481228 0)
(0.2833918 -0.018916283 0)
(0.28904294 -0.017567899 0)
(0.29412652 -0.01839226 0)
(0.30031695 -0.018846745 0)
(0.30620268 -0.018187721 0)
(0.31113322 -0.018195178 0)
(0.31637688 -0.018747081 0)
(0.3220722 -0.018118104 0)
(0.32747949 -0.016971156 0)
(0.33265704 -0.017244838 0)
(0.33826744 -0.018598985 0)
(0.34410026 -0.018692687 0)
(0.34953502 -0.016972704 0)
(0.35378088 -0.016477565 0)
(0.35865197 -0.017914491 0)
(0.36487163 -0.01803593 0)
(0.370546 -0.016482497 0)
(0.3751011 -0.015905625 0)
(0.37986591 -0.0172105 0)
(0.38536339 -0.018408319 0)
(0.39104044 -0.017219177 0)
(0.39581978 -0.01551858 0)
(0.39999056 -0.015730382 0)
(0.40502305 -0.016936947 0)
(0.41074459 -0.016846654 0)
(0.415956 -0.016010605 0)
(0.42073841 -0.01604815 0)
(0.42539499 -0.016464594 0)
(0.43016871 -0.016544918 0)
(0.43546102 -0.016036297 0)
(0.44032439 -0.015451958 0)
(0.44453377 -0.015354633 0)
(0.4494369 -0.015657259 0)
(0.45468301 -0.0158923 0)
(0.45937616 -0.016273847 0)
(0.46427119 -0.015966791 0)
(0.469361 -0.015048193 0)
(0.4737637 -0.014691377 0)
(0.47794947 -0.015516175 0)
(0.48301336 -0.016288174 0)
(0.4882211 -0.015881111 0)
(0.49261642 -0.014596067 0)
(0.49662228 -0.014040632 0)
(0.50127639 -0.014920125 0)
(0.50648789 -0.015858597 0)
(0.51128187 -0.015850299 0)
(0.51609548 -0.015080155 0)
(0.52069486 -0.014257337 0)
(0.52466534 -0.014269255 0)
(0.52900474 -0.014636686 0)
(0.53382688 -0.015205818 0)
(0.53851637 -0.015521813 0)
(0.54320094 -0.015099626 0)
(0.54773337 -0.013925929 0)
(0.55171984 -0.013433337 0)
(0.55587944 -0.014016265 0)
(0.5606555 -0.015023601 0)
(0.56562483 -0.015270222 0)
(0.57045541 -0.014856423 0)
(0.5748069 -0.014324091 0)
(0.57892288 -0.01394367 0)
(0.58328978 -0.013609037 0)
(0.58746549 -0.013723369 0)
(0.59131465 -0.014313242 0)
(0.59575858 -0.014705244 0)
(0.60056936 -0.014325661 0)
(0.60497568 -0.01404564 0)
(0.60934284 -0.013763237 -1.1365804e-34)
(0.61394433 -0.013468238 -6.8002173e-30)
(0.61826585 -0.013498263 0)
(0.62225314 -0.014149239 0)
(0.62656182 -0.014303122 0)
(0.63096766 -0.013778943 0)
(0.63501202 -0.01338662 0)
(0.63921147 -0.013370977 0)
(0.64340587 -0.013324301 0)
(0.64732425 -0.013694619 0)
(0.65165312 -0.014236938 -1.1667428e-34)
(0.65643235 -0.014113099 -6.2561738e-30)
(0.66065411 -0.013288504 -1.0485094e-34)
(0.66439623 -0.012689883 -6.2263756e-30)
(0.66852077 -0.012457161 0)
(0.67277377 -0.012561909 0)
(0.67653061 -0.012991758 0)
(0.68055122 -0.013532612 0)
(0.68514253 -0.013569046 0)
(0.68926928 -0.013376247 0)
(0.69299301 -0.013247723 -1.0206477e-34)
(0.69713511 -0.013052228 -6.3191478e-30)
(0.70143927 -0.012590924 0)
(0.70544402 -0.012414183 0)
(0.70922843 -0.012513121 0)
(0.71316817 -0.012823524 0)
(0.717379 -0.013474595 0)
(0.72161297 -0.013650998 0)
(0.72565096 -0.012827733 0)
(0.72959403 -0.011916301 0)
(0.73328606 -0.011560519 0)
(0.73679842 -0.011467193 0)
(0.74030294 -0.011872548 -9.8549878e-35)
(0.74390471 -0.012627469 -5.507424e-30)
(0.74799356 -0.013364974 0)
(0.75242513 -0.01349016 0)
(0.75666213 -0.013119619 0)
(0.76093705 -0.012487627 0)
(0.76517685 -0.011717216 0)
(0.76880872 -0.011324829 0)
(0.77219864 -0.011359753 0)
(0.77564496 -0.011842742 0)
(0.77936586 -0.012901408 9.2260939e-35)
(0.78335811 -0.013295741 5.0432365e-30)
(0.78720459 -0.01280024 0)
(0.79114895 -0.012310347 0)
(0.79529697 -0.012003846 9.0949511e-35)
(0.79895063 -0.011525424 4.9253666e-30)
(0.80229112 -0.011329622 0)
(0.80593973 -0.011648852 0)
(0.80991392 -0.012048848 0)
(0.81381413 -0.012221568 0)
(0.81781704 -0.012218044 8.6523761e-35)
(0.8220241 -0.0120857 4.9034061e-30)
(0.82595202 -0.011706857 0)
(0.82943869 -0.011287011 0)
(0.83293291 -0.011399667 0)
(0.83645015 -0.011946947 0)
(0.8399726 -0.011954842 0)
(0.84349668 -0.011592647 0)
(0.84705859 -0.011829749 0)
(0.8509201 -0.012122387 0)
(0.85486415 -0.01196217 0)
(0.85869264 -0.011735245 0)
(0.86287429 -0.011566187 0)
(0.86692755 -0.01131391 0)
(0.87053577 -0.01133659 0)
(0.87410351 -0.011470316 0)
(0.87746659 -0.011469721 0)
(0.88077775 -0.011625855 0)
(0.88442826 -0.012193894 0)
(0.88821005 -0.012485608 0)
(0.89196571 -0.012032597 0)
(0.89587311 -0.011226867 0)
(0.89976513 -0.010517173 0)
(0.90355569 -0.010074966 0)
(0.90705324 -0.0099766567 0)
(0.91030658 -0.010646408 0)
(0.91354483 -0.011863677 0)
(0.91700256 -0.012747123 0)
(0.9206273 -0.012756115 0)
(0.92434449 -0.012310452 0)
(0.92825656 -0.011915856 0)
(0.93226684 -0.01147744 0)
(0.93629774 -0.010684978 0)
(0.94030831 -0.0096437911 0)
(0.94410018 -0.0089022152 0)
(0.94768468 -0.0087794323 0)
(0.951207 -0.0092298137 0)
(0.95470509 -0.010117584 0)
(0.95815147 -0.010942569 0)
(0.96150651 -0.011204486 0)
(0.96461726 -0.010661527 0)
(0.96754767 -0.0097988535 0)
(0.97027879 -0.0091955783 -2.8729778e-35)
(0.97305119 -0.0089535343 -1.3183241e-30)
(0.97577154 -0.0086509307 0)
(0.97882444 -0.0081248847 0)
(0.98172698 -0.0077073265 0)
(0.98507832 -0.0073980268 0)
(0.98791788 -0.0070164116 0)
(0.99098397 -0.0061726677 0)
(0.99356771 -0.0048813574 0)
(0.99663131 -0.0039630436 0)
(0.99933198 -0.0034082134 0)
(1.0024483 -0.0028306283 0)
(1.0044901 -0.0021682221 0)
(1.0068051 -0.00083211775 0)
(1.0079832 0.0012489426 0)
(1.0090442 0.0030111304 0)
(1.0096588 0.0065815765 0)
(1.0095351 0.0098732639 0)
(1.0085321 0.015760193 5.8417139e-34)
(1.0061343 0.022825271 4.1243021e-29)
(1.00275 0.030229487 0)
(0.99590849 0.038808407 0)
(0.99194126 0.046714376 0)
(0.97982393 0.057482097 0)
(0.97091465 0.066820646 0)
(0.9599947 0.078225313 0)
(0.93777146 0.095760804 0)
(0.92570211 0.10974994 0)
(0.89471424 0.12907894 0)
(0.8659372 0.15207416 0)
(0.83645488 0.16740322 0)
(0.79444351 0.19536941 0)
(0.75849116 0.21771725 3.7430549e-33)
(0.71687638 0.24043395 2.005046e-28)
(0.66184728 0.26778888 -3.2648056e-33)
(0.62094239 0.27834495 -1.5694287e-28)