/*--------------------------------*- C++ -*----------------------------------*\
| =========                 |                                                 |
| \\      /  F ield         | OpenFOAM: The Open Source CFD Toolbox           |
|  \\    /   O peration     | Version:  2306                                  |
|   \\  /    A nd           | Website:  www.openfoam.com                      |
|    \\/     M anipulation  |                                                 |
\*---------------------------------------------------------------------------*/
FoamFile
{
    version     2.0;
    format      ascii;
    arch        "LSB;label=32;scalar=64";
    class       volVectorField;
    location    "0.08";
    object      U;
}
// * * * * * * * * * * * * * * * * * * * * * * * * * * * * * * * * * * * * * //

dimensions      [0 1 -1 0 0 0 0];

internalField   nonuniform List<vector> 
6400
(
(-1.5922432e-05 1.3151867e-05 4.1817672e-20)
(-3.7739285e-05 1.5419463e-05 -1.7801871e-21)
(-6.2567963e-05 1.5385797e-05 -1.2679698e-20)
(-8.684506e-05 1.550984e-05 2.3497069e-21)
(-0.00011171841 1.5547983e-05 1.0418829e-20)
(-0.0001364294 1.5492535e-05 -6.5691792e-21)
(-0.00016094386 1.5407487e-05 -5.3530967e-21)
(-0.00018522693 1.5296157e-05 8.0696957e-21)
(-0.00020924197 1.5163423e-05 9.2870325e-21)
(-0.00023295431 1.5012251e-05 -1.0151903e-20)
(-0.00025633174 1.4844297e-05 -1.159514e-20)
(-0.00027934342 1.4660694e-05 1.33803e-20)
(-0.00030195909 1.4462369e-05 -5.342344e-21)
(-0.00032414967 1.4250116e-05 -1.0981491e-20)
(-0.00034588743 1.4024667e-05 -1.7391225e-21)
(-0.00036714605 1.3786725e-05 2.0816109e-21)
(-0.00038790055 1.3536998e-05 7.4383956e-21)
(-0.00040812738 1.3276203e-05 -7.7203041e-21)
(-0.00042780448 1.3005058e-05 -1.068471e-20)
(-0.00044691128 1.2724268e-05 6.7554448e-21)
(-0.0004654288 1.2434538e-05 -1.2584459e-21)
(-0.00048333964 1.2136562e-05 -4.5348016e-21)
(-0.00050062799 1.1831007e-05 9.8661784e-21)
(-0.00051727967 1.1518515e-05 2.4439514e-20)
(-0.00053328214 1.1199673e-05 4.0294336e-20)
(-0.00054862445 1.0875021e-05 -1.5459223e-20)
(-0.00056329728 1.0544994e-05 -8.080916e-20)
(-0.00057729285 1.0209913e-05 -8.7420418e-21)
(-0.00059060495 9.8698916e-06 4.6090796e-20)
(-0.00060322882 9.5247755e-06 2.9299557e-20)
(-0.00061516123 9.1740041e-06 1.7379933e-20)
(-0.00062640078 8.8165915e-06 -2.8117885e-21)
(-0.00063695019 8.4515253e-06 2.3538825e-20)
(-0.00064681961 8.0816475e-06 -3.5812296e-20)
(-0.00065601269 7.7211841e-06 -6.8967784e-20)
(-0.00066452433 7.3755582e-06 5.6980856e-20)
(-0.00067235544 7.043128e-06 2.759286e-20)
(-0.00067951271 6.7215196e-06 -1.0606927e-19)
(-0.00068600491 6.4090304e-06 2.400499e-20)
(-0.00069184173 6.104591e-06 1.4986278e-19)
(-0.00069703361 5.8075681e-06 4.3136345e-20)
(-0.00070159171 5.5176051e-06 -6.9866516e-20)
(-0.00070552795 5.2345115e-06 -1.3212831e-19)
(-0.00070885497 4.9581952e-06 -1.2695781e-19)
(-0.00071158612 4.6886203e-06 4.7468339e-20)
(-0.00071373534 4.4257895e-06 2.7948361e-19)
(-0.00071531718 4.1697204e-06 4.8431201e-20)
(-0.00071634669 3.9204545e-06 -9.16089e-20)
(-0.00071683939 3.6780477e-06 -9.3071715e-20)
(-0.00071681117 3.4425898e-06 -2.1336922e-19)
(-0.00071627828 3.2141915e-06 1.3504911e-19)
(-0.00071525721 2.9930206e-06 1.2786382e-19)
(-0.00071376474 2.7792606e-06 -4.9974503e-20)
(-0.00071181781 2.5729807e-06 8.668e-20)
(-0.00070943352 2.3741587e-06 -1.6312387e-19)
(-0.00070662898 2.1827482e-06 -1.2826859e-19)
(-0.00070342136 1.9987007e-06 1.7980849e-19)
(-0.00069982776 1.8219422e-06 3.7010826e-20)
(-0.0006958652 1.6524052e-06 -4.8146138e-20)
(-0.0006915506 1.4900218e-06 3.5082136e-20)
(-0.00068690074 1.3347128e-06 -2.1855115e-21)
(-0.0006819322 1.186405e-06 -3.0051069e-20)
(-0.00067666134 1.0450282e-06 -1.9545733e-20)
(-0.00067110428 9.1052086e-07 7.1423369e-21)
(-0.00066527688 7.8283579e-07 -4.9995003e-20)
(-0.00065919471 6.6194379e-07 -4.0228157e-20)
(-0.00065287301 5.4785464e-07 1.4128878e-19)
(-0.00064632672 4.4062957e-07 -2.1418655e-20)
(-0.00063957046 3.4038602e-07 -6.3818421e-20)
(-0.00063261851 2.4734366e-07 2.1135429e-19)
(-0.00062548484 1.6178243e-07 -3.5490879e-20)
(-0.00061818302 8.3944968e-08 -1.6610999e-19)
(-0.00061072589 1.3894525e-08 3.2116944e-20)
(-0.00060312374 -4.9049086e-08 6.5864981e-20)
(-0.00059538182 -1.1123691e-07 5.2411664e-20)
(-0.00058751195 -1.9243533e-07 -1.4868167e-19)
(-0.00057954013 -2.9708026e-07 -1.1364009e-19)
(-0.00057148109 -4.0191267e-07 1.3653864e-19)
(-0.00056333737 -5.0039851e-07 1.595778e-19)
(-0.00055511649 -5.9166276e-07 -4.3903818e-20)
(-2.8843893e-05 8.3453698e-05 -7.0221796e-21)
(-6.5123133e-05 8.5213996e-05 -3.1882843e-21)
(-0.00010657108 8.5373065e-05 7.8789077e-22)
(-0.00014703199 8.5585854e-05 1.7004236e-20)
(-0.00018837783 8.5506963e-05 1.3694813e-20)
(-0.00022947067 8.5204061e-05 -7.2397237e-21)
(-0.00027025985 8.4770975e-05 1.5044355e-20)
(-0.00031068873 8.4232671e-05 8.9862031e-21)
(-0.00035069155 8.3602174e-05 -7.2669235e-21)
(-0.00039020408 8.2887313e-05 -7.3314077e-21)
(-0.00042916709 8.2093182e-05 -1.0184703e-21)
(-0.00046752472 8.1223684e-05 1.6150383e-21)
(-0.00050522334 8.02822e-05 2.5664446e-21)
(-0.00054221196 7.9271825e-05 3.0652686e-20)
(-0.00057844247 7.8195578e-05 7.8114933e-21)
(-0.00061386942 7.7056461e-05 5.8006278e-21)
(-0.00064845005 7.5857548e-05 3.8169269e-20)
(-0.00068214422 7.4601974e-05 2.0020231e-21)
(-0.00071491449 7.3292956e-05 -3.8035838e-20)
(-0.00074672616 7.1933755e-05 -2.3616731e-20)
(-0.00077754727 7.052769e-05 -1.9630521e-21)
(-0.00080734867 6.907812e-05 -1.043885e-21)
(-0.00083610398 6.7588413e-05 5.4280672e-21)
(-0.00086378969 6.6061946e-05 3.6228773e-20)
(-0.0008903851 6.4502063e-05 5.7151821e-20)
(-0.00091587232 6.291207e-05 -2.662632e-20)
(-0.00094023631 6.1295167e-05 -7.5948644e-20)
(-0.00096346481 5.9654443e-05 -2.9977739e-20)
(-0.00098554838 5.7992781e-05 -2.7397887e-20)
(-0.0010064804 5.6312828e-05 6.6386244e-20)
(-0.001026257 5.4616898e-05 1.1425663e-19)
(-0.0010448769 5.2907046e-05 -3.0121998e-20)
(-0.0010623397 5.1185466e-05 -7.5846235e-20)
(-0.0010786416 4.9457367e-05 -5.1724727e-20)
(-0.0010937868 4.7736069e-05 2.4384707e-20)
(-0.0011077892 4.6028905e-05 5.2235007e-20)
(-0.0011206615 4.4337268e-05 -8.3769372e-20)
(-0.0011324152 4.2661507e-05 -1.4234233e-19)
(-0.0011430634 4.100232e-05 1.4985209e-19)
(-0.0011526209 3.9360834e-05 1.9875844e-19)
(-0.0011611046 3.773845e-05 -2.3969972e-19)
(-0.0011685329 3.6136709e-05 -1.0123267e-19)
(-0.0011749258 3.4557185e-05 2.4498645e-19)
(-0.0011803045 3.3001435e-05 2.6654614e-19)
(-0.0011846916 3.147094e-05 1.7934295e-20)
(-0.0011881106 2.9967098e-05 -4.7668532e-19)
(-0.0011905863 2.8491193e-05 -2.9357321e-19)
(-0.0011921439 2.7044399e-05 2.9486191e-19)
(-0.0011928097 2.5627755e-05 2.6202232e-19)
(-0.0011926104 2.4242163e-05 -1.5294868e-19)
(-0.0011915733 2.2888334e-05 -2.555501e-19)
(-0.0011897262 2.1566832e-05 2.0667996e-19)
(-0.0011870975 2.0278058e-05 3.239997e-19)
(-0.0011837158 1.9022434e-05 -3.174663e-20)
(-0.00117961 1.7800364e-05 -1.9890074e-19)
(-0.0011748088 1.6612184e-05 -2.406948e-19)
(-0.0011693408 1.5458152e-05 -2.4649393e-20)
(-0.0011632349 1.4338426e-05 3.1431198e-19)
(-0.0011565194 1.3253083e-05 1.1592012e-19)
(-0.0011492227 1.2202129e-05 -3.2507014e-19)
(-0.0011413727 1.1185469e-05 -1.1154327e-19)
(-0.0011329972 1.020295e-05 3.2239138e-19)
(-0.0011241234 9.2543426e-06 1.0100789e-19)
(-0.0011147782 8.3393567e-06 -3.2359841e-19)
(-0.0011049879 7.4576442e-06 -1.4867568e-19)
(-0.0010947783 6.6087982e-06 1.8717525e-19)
(-0.0010841748 5.7923746e-06 1.5004401e-19)
(-0.001073202 5.0078899e-06 5.3515176e-20)
(-0.001061884 4.2548431e-06 -7.636251e-20)
(-0.0010502442 3.5327502e-06 -2.2652586e-19)
(-0.0010383056 2.8411603e-06 3.9946209e-20)
(-0.0010260905 2.1796678e-06 1.4846445e-19)
(-0.001013622 1.5479163e-06 -4.8148663e-20)
(-0.0010009268 9.4553356e-07 2.6584544e-20)
(-0.00098803771 3.6945415e-07 1.3218829e-19)
(-0.00097497022 -1.9147406e-07 3.0413093e-20)
(-0.00096171236 -7.363104e-07 -1.8998626e-19)
(-0.00094827405 -1.2557565e-06 -1.2522354e-19)
(-0.00093468843 -1.7488041e-06 8.2805641e-20)
(-0.00092097792 -2.216409e-06 5.4313979e-20)
(-3.254871e-05 0.00017788843 -2.9774034e-20)
(-7.2893606e-05 0.00017894534 -2.7944272e-20)
(-0.00011912155 0.00017905204 -3.4326931e-21)
(-0.0001640612 0.00017896319 9.2056006e-21)
(-0.00020996653 0.00017852908 -2.0323346e-21)
(-0.00025557055 0.00017780415 -1.8572085e-20)
(-0.0003008337 0.00017685571 2.1754781e-20)
(-0.00034570033 0.0001757097 -7.3178196e-22)
(-0.00039009813 0.00017438168 9.3195366e-21)
(-0.00043395481 0.00017288248 3.7353139e-20)
(-0.00047720325 0.00017122035 1.022436e-20)
(-0.0005197801 0.00016940232 2.0592741e-20)
(-0.00056162471 0.00016743492 -1.847164e-20)
(-0.00060267957 0.00016532443 1.8187323e-20)
(-0.00064289045 0.00016307715 3.9969657e-20)
(-0.00068220627 0.00016069946 1.4251382e-21)
(-0.00072057903 0.0001581979 2.8226146e-20)
(-0.00075796374 0.00015557916 -7.5980365e-21)
(-0.00079431855 0.0001528501 -2.7509612e-20)
(-0.00082960467 0.00015001776 1.6639141e-20)
(-0.00086378647 0.00014708926 1.1523921e-20)
(-0.00089683148 0.00014407186 -6.480091e-22)
(-0.00092871038 0.00014097287 1.285726e-20)
(-0.00095939707 0.00013779968 3.5918442e-20)
(-0.0009888686 0.00013455969 2.7422902e-20)
(-0.0010171052 0.00013126029 -2.8252334e-21)
(-0.0010440903 0.00012790889 -2.3611909e-20)
(-0.0010698104 0.00012451281 -4.5920821e-20)
(-0.0010942549 0.00012107935 -4.622512e-20)
(-0.0011174167 0.00011761581 1.8195169e-21)
(-0.001139291 0.00011412951 2.3160778e-20)
(-0.001159876 0.00011062788 2.0600822e-20)
(-0.0011791722 0.00010711848 -2.2185847e-20)
(-0.0011971818 0.0001036076 -6.5486473e-20)
(-0.0012139114 0.00010009669 6.1359382e-21)
(-0.0012293715 9.6590532e-05 3.4397197e-20)
(-0.0012435739 9.3095966e-05 -2.6368518e-21)
(-0.0012565317 8.9619465e-05 -2.1955525e-20)
(-0.00126826 8.6166848e-05 3.4371247e-21)
(-0.0012787758 8.2743436e-05 -8.1520361e-21)
(-0.0012880983 7.9354163e-05 -5.7459536e-20)
(-0.0012962484 7.6003601e-05 2.5096253e-20)
(-0.0013032486 7.2696011e-05 8.3965807e-20)
(-0.0013091229 6.9435333e-05 8.8423866e-20)
(-0.0013138967 6.6225197e-05 1.9723922e-20)
(-0.0013175965 6.3068923e-05 -1.6887939e-19)
(-0.00132025 5.9969531e-05 -8.3268305e-20)
(-0.0013218858 5.6929738e-05 6.1689288e-20)
(-0.0013225332 5.3951953e-05 6.7845671e-20)
(-0.0013222225 5.1038257e-05 4.7576593e-20)
(-0.0013209844 4.8190403e-05 -1.0353343e-19)
(-0.0013188502 4.5409798e-05 1.3974825e-21)
(-0.0013158513 4.2697552e-05 1.0718869e-19)
(-0.0013120192 4.0054692e-05 -6.0410885e-21)
(-0.001307386 3.7482123e-05 -1.0845865e-20)
(-0.0013019835 3.4980566e-05 -4.3125298e-20)
(-0.0012958438 3.2550541e-05 -3.6601805e-20)
(-0.0012889988 3.0192388e-05 8.0667735e-20)
(-0.0012814803 2.7906228e-05 2.2755649e-20)
(-0.0012733198 2.5692027e-05 -1.0372525e-19)
(-0.0012645484 2.354955e-05 -3.1739919e-20)
(-0.0012551969 2.1478409e-05 8.1379843e-20)
(-0.0012452958 1.9478061e-05 3.4776534e-20)
(-0.0012348749 1.7547805e-05 -5.0062013e-20)
(-0.0012239635 1.5686818e-05 -3.9429997e-22)
(-0.0012125905 1.3894127e-05 2.0915034e-20)
(-0.0012007839 1.2168649e-05 -1.2390994e-20)
(-0.0011885713 1.0509163e-05 3.0047721e-20)
(-0.0011759796 8.9143686e-06 -7.7284565e-21)
(-0.0011630349 7.3828602e-06 -6.6367022e-20)
(-0.0011497625 5.9132176e-06 9.2420851e-21)
(-0.001136187 4.5041019e-06 3.4729918e-20)
(-0.0011223317 3.1542404e-06 -1.3023918e-20)
(-0.001108219 1.8625515e-06 1.5854625e-20)
(-0.0010938721 6.3213177e-07 2.8055453e-20)
(-0.0010793106 -5.2461207e-07 8.6668379e-21)
(-0.0010645551 -1.6065906e-06 -3.0067114e-20)
(-0.0010496289 -2.6329993e-06 -5.5492551e-20)
(-0.001034551 -3.6097869e-06 -1.6611219e-20)
(-0.0010193386 -4.5391869e-06 4.0042889e-20)
(-3.31797e-05 0.00027327211 -1.8061037e-19)
(-7.4762699e-05 0.00027363672 -5.1387425e-20)
(-0.00012235844 0.00027343606 2.3467315e-20)
(-0.0001685114 0.00027296303 -3.8189163e-20)
(-0.000215667 0.00027211877 1.6853113e-20)
(-0.00026249051 0.00027092993 -1.4402625e-20)
(-0.00030895129 0.00026943521 -9.4162458e-21)
(-0.00035499793 0.00026765544 -6.8289972e-21)
(-0.00040055865 0.0002656058 9.170554e-21)
(-0.00044556042 0.00026329848 2.7711223e-20)
(-0.0004899348 0.00026074397 1.6334847e-20)
(-0.00053361684 0.00025795197 2.284299e-20)
(-0.00057654419 0.00025493192 -2.5169151e-20)
(-0.00061865766 0.00025169324 1.6363375e-21)
(-0.0006599014 0.00024824547 2.7016378e-20)
(-0.0007002228 0.00024459841 -2.2004431e-20)
(-0.00073957238 0.00024076211 2.1463804e-20)
(-0.00077790387 0.00023674686 8.4759183e-21)
(-0.00081517417 0.00023256323 -1.5142832e-20)
(-0.0008513434 0.00022822202 1.298079e-20)
(-0.00088637496 0.00022373421 4.1883481e-21)
(-0.0009202355 0.00021911093 3.4159953e-21)
(-0.00095289497 0.00021436343 2.8691193e-20)
(-0.00098432664 0.00020950304 1.2711127e-20)
(-0.001014507 0.00020454109 -1.9325488e-20)
(-0.001043416 0.00019948894 -2.7043002e-20)
(-0.0010710366 0.00019435786 -2.3351785e-20)
(-0.0010973552 0.00018915906 1.7447349e-21)
(-0.0011223611 0.00018390362 1.9106181e-21)
(-0.001146047 0.00017860247 -8.8716825e-21)
(-0.0011684083 0.00017326641 -1.2972632e-20)
(-0.0011894433 0.00016790599 4.6217341e-22)
(-0.0012091531 0.00016253148 2.6088767e-20)
(-0.0012275415 0.00015715248 -1.9295542e-20)
(-0.0012446152 0.00015177741 -4.5614747e-20)
(-0.0012603841 0.00014641529 1.0493255e-20)
(-0.0012748603 0.00014107545 4.5042645e-20)
(-0.0012880577 0.00013576672 1.3070504e-20)
(-0.0012999923 0.0001304973 8.0025721e-22)
(-0.0013106822 0.00012527478 -4.6504803e-21)
(-0.0013201472 0.00012010629 -3.9240905e-21)
(-0.0013284093 0.00011499848 1.4211149e-20)
(-0.0013354917 0.00010995757 1.2108859e-20)
(-0.0013414193 0.00010498934 -2.6061051e-20)
(-0.0013462186 0.00010009913 1.1539346e-20)
(-0.0013499168 9.5291843e-05 -4.4406943e-21)
(-0.0013525428 9.057197e-05 -2.6611297e-20)
(-0.0013541259 8.5943578e-05 4.255199e-21)
(-0.0013546967 8.1410342e-05 -2.7711526e-20)
(-0.0013542862 7.697553e-05 1.5697786e-20)
(-0.0013529261 7.2642074e-05 2.4666468e-20)
(-0.0013506487 6.8412534e-05 -1.4160607e-20)
(-0.0013474865 6.4289124e-05 1.5110321e-20)
(-0.0013434723 6.0273605e-05 -4.0159952e-21)
(-0.0013386388 5.6367314e-05 -3.3278547e-21)
(-0.0013330192 5.257124e-05 6.5117024e-21)
(-0.0013266464 4.8886063e-05 -7.5531682e-21)
(-0.0013195533 4.5312173e-05 1.2257197e-20)
(-0.0013117726 4.1849655e-05 -2.6818038e-22)
(-0.0013033365 3.8498351e-05 -3.4550643e-20)
(-0.0012942773 3.5257835e-05 -2.8094389e-21)
(-0.0012846265 3.212745e-05 2.7086192e-20)
(-0.0012744153 2.9106328e-05 7.4719732e-21)
(-0.0012636745 2.6193391e-05 -8.9031624e-21)
(-0.0012524341 2.3387386e-05 3.2045731e-21)
(-0.0012407235 2.0686887e-05 -6.5722985e-21)
(-0.0012285718 1.8090336e-05 -1.7870007e-20)
(-0.0012160069 1.5596026e-05 1.2205339e-20)
(-0.0012030563 1.3202151e-05 1.7761835e-21)
(-0.0011897468 1.0906809e-05 5.6752453e-21)
(-0.0011761042 8.7080245e-06 -1.2374695e-22)
(-0.0011621537 6.6037459e-06 -3.9205471e-21)
(-0.0011479197 4.591689e-06 -9.6765992e-21)
(-0.0011334252 2.668987e-06 -1.3128604e-20)
(-0.0011186921 8.3420623e-07 1.0940488e-20)
(-0.001103743 -9.095592e-07 -3.7207541e-21)
(-0.0010886023 -2.5682275e-06 -5.5256466e-21)
(-0.0010732903 -4.1480969e-06 -1.6632195e-20)
(-0.0010578244 -5.6512465e-06 -2.0992324e-20)
(-0.0010422228 -7.079726e-06 8.7094181e-21)
(-3.3389011e-05 0.0003700068 -2.2302428e-19)
(-7.5414124e-05 0.00037002968 -9.0771859e-20)
(-0.00012356509 0.00036955511 -1.1029727e-20)
(-0.00017022523 0.00036872407 6.6167732e-20)
(-0.00021791751 0.00036746758 -1.7947069e-20)
(-0.0002652609 0.00036579795 -6.4466286e-20)
(-0.00031222661 0.00036373848 -6.4852454e-20)
(-0.00035876485 0.00036130594 -4.5063455e-20)
(-0.00040480468 0.00035851496 -1.0064432e-20)
(-0.0004502734 0.00035537875 2.1965425e-20)
(-0.00049510246 0.00035190982 -2.925329e-20)
(-0.00053922655 0.00034812038 4.5035444e-21)
(-0.00058258275 0.00034402274 -1.5386295e-20)
(-0.00062511127 0.00033962944 -1.6779086e-20)
(-0.00066675562 0.00033495338 2.5443062e-20)
(-0.00070746253 0.0003300078 -2.4417785e-20)
(-0.00074718195 0.0003248064 4.410161e-21)
(-0.00078586702 0.00031936322 -3.5537888e-21)
(-0.00082347415 0.00031369266 -2.5393652e-20)
(-0.00085996301 0.00030780944 1.4057525e-20)
(-0.00089529663 0.00030172854 2.7612118e-20)
(-0.00092944135 0.00029546514 -2.6313449e-20)
(-0.0009623669 0.00028903456 -2.206059e-20)
(-0.00099404634 0.00028245223 -1.1082956e-20)
(-0.0010244561 0.00027573359 -2.8701948e-20)
(-0.0010535761 0.00026889406 -2.5716744e-20)
(-0.0010813892 0.00026194899 -1.4997745e-20)
(-0.001107882 0.00025491358 1.1350605e-20)
(-0.0011330439 0.00024780286 9.6370174e-21)
(-0.0011568677 0.00024063163 2.2791393e-20)
(-0.0011793492 0.00023341441 -1.8072648e-20)
(-0.001200487 0.00022616537 -3.3224188e-20)
(-0.0012202828 0.00021889827 5.3599828e-21)
(-0.0012387406 0.00021162627 1.0900801e-21)
(-0.0012558678 0.00020436181 2.8253038e-20)
(-0.0012716744 0.00019711711 4.4355095e-21)
(-0.0012861727 0.00018990416 7.4038053e-21)
(-0.0012993774 0.00018273446 -2.6025875e-20)
(-0.0013113051 0.00017561893 -1.56121e-20)
(-0.0013219746 0.00016856783 9.1971696e-22)
(-0.0013314063 0.00016159079 -3.2709435e-21)
(-0.0013396227 0.00015469685 1.6792461e-21)
(-0.0013466478 0.00014789445 -4.1638292e-21)
(-0.0013525072 0.00014119139 -3.5262366e-20)
(-0.0013572276 0.0001345949 2.813632e-21)
(-0.0013608373 0.0001281116 1.7731475e-20)
(-0.0013633654 0.00012174751 -1.6035767e-20)
(-0.0013648422 0.00011550808 -2.430211e-20)
(-0.0013652986 0.00010939819 -1.6797666e-20)
(-0.0013647664 0.00010342214 1.2404626e-20)
(-0.0013632778 9.7583738e-05 8.5662053e-21)
(-0.0013608657 9.1886243e-05 -1.391881e-20)
(-0.0013575631 8.6332415e-05 1.8385901e-21)
(-0.0013534034 8.092453e-05 -2.3077198e-21)
(-0.0013484201 7.5664354e-05 -1.3681812e-21)
(-0.0013426465 7.0553208e-05 5.0896211e-21)
(-0.0013361163 6.5591976e-05 -8.8344352e-21)
(-0.0013288627 6.0781145e-05 -1.818612e-20)
(-0.001320919 5.6120803e-05 -3.8552743e-21)
(-0.0013123178 5.1610695e-05 4.4886503e-21)
(-0.0013030917 4.7250209e-05 6.0006092e-21)
(-0.0012932727 4.303842e-05 1.4532941e-20)
(-0.0012828924 3.8974106e-05 4.6649921e-21)
(-0.0012719818 3.5055777e-05 6.8428214e-21)
(-0.0012605713 3.1281678e-05 -8.078484e-22)
(-0.0012486908 2.7649819e-05 -2.1473158e-20)
(-0.0012363695 2.4158015e-05 -1.1537955e-21)
(-0.0012236357 2.0803864e-05 2.5107483e-22)
(-0.0012105173 1.7584782e-05 -1.7350804e-20)
(-0.0011970411 1.4498036e-05 8.9783433e-21)
(-0.0011832334 1.1540758e-05 5.0378399e-21)
(-0.0011691195 8.7099836e-06 3.9555331e-21)
(-0.0011547238 6.0027258e-06 1.2531752e-21)
(-0.0011400684 3.4160921e-06 -8.574312e-21)
(-0.001125173 9.4776064e-07 -3.233429e-21)
(-0.0011100617 -1.4037784e-06 -8.1044409e-21)
(-0.0010947628 -3.6433466e-06 4.7963199e-21)
(-0.0010792969 -5.7740604e-06 -1.8617436e-20)
(-0.0010636804 -7.7997887e-06 -2.7877044e-20)
(-0.0010479309 -9.7242565e-06 2.1855407e-22)
(-3.3609007e-05 0.00046739362 -2.999872e-19)
(-7.6008604e-05 0.0004672527 -1.2237318e-19)
(-0.00012461091 0.00046655167 -1.5098715e-19)
(-0.00017170864 0.00046539729 -5.169604e-20)
(-0.00021986095 0.00046373827 -4.9932859e-20)
(-0.00026765544 0.00046158322 -4.6328987e-20)
(-0.00031506161 0.00045895014 -2.9590808e-20)
(-0.00036202886 0.00045585427 1.8440419e-20)
(-0.00040848583 0.00045231039 -4.0728789e-21)
(-0.00045435949 0.00044833303 4.8668644e-20)
(-0.00049958091 0.00044393665 2.1948476e-20)
(-0.00054408422 0.00043913595 3.0122878e-20)
(-0.00058780593 0.00043394608 3.1123733e-20)
(-0.00063068562 0.00042838268 5.9231219e-20)
(-0.00067266619 0.00042246197 5.4447479e-20)
(-0.0007136938 0.00041620069 -2.6752136e-20)
(-0.00075371779 0.00040961618 2.8695139e-20)
(-0.00079269083 0.00040272627 4.378717e-20)
(-0.00083056887 0.00039554924 2.7730155e-20)
(-0.00086731121 0.00038810378 1.440218e-20)
(-0.00090288055 0.00038040891 -1.229995e-20)
(-0.00093724302 0.00037248392 -3.5889749e-20)
(-0.00097036816 0.00036434827 -2.3313147e-20)
(-0.0010022289 0.00035602152 2.3733817e-20)
(-0.0010328018 0.0003475233 2.1157035e-20)
(-0.0010620666 0.00033887316 2.7478435e-20)
(-0.0010900065 0.00033009057 1.0669368e-21)
(-0.0011166081 0.0003211948 -1.8337617e-20)
(-0.0011418611 0.00031220487 -4.6336187e-21)
(-0.0011657586 0.0003031395 2.2488581e-20)
(-0.0011882967 0.00029401704 -6.8232725e-21)
(-0.0012094746 0.00028485537 -1.0586586e-20)
(-0.0012292943 0.00027567184 1.4323706e-20)
(-0.0012477607 0.00026648322 4.0969936e-20)
(-0.0012648815 0.00025730557 5.6414746e-20)
(-0.0012806672 0.00024815446 -1.1744088e-20)
(-0.0012951306 0.00023904489 5.1326013e-21)
(-0.001308287 0.00022999126 -3.5720156e-21)
(-0.0013201537 0.00022100725 2.1871112e-21)
(-0.0013307501 0.00021210579 2.1694999e-20)
(-0.0013400974 0.00020329902 -2.0409908e-20)
(-0.0013482189 0.00019459836 -2.5103022e-20)
(-0.0013551391 0.00018601441 3.4095161e-20)
(-0.0013608843 0.00017755701 5.2846637e-20)
(-0.0013654821 0.00016923526 3.8021811e-21)
(-0.0013689614 0.00016105749 -4.5350117e-21)
(-0.001371352 0.00015303125 -2.306825e-20)
(-0.0013726848 0.00014516339 1.8817366e-20)
(-0.0013729915 0.00013746002 3.3825636e-20)
(-0.0013723044 0.00012992654 -8.5175929e-21)
(-0.0013706564 0.00012256767 -6.4013556e-21)
(-0.001368081 0.00011538748 -3.9779743e-21)
(-0.0013646117 0.00010838937 4.3551378e-22)
(-0.0013602826 0.00010157614 -4.413123e-21)
(-0.0013551275 9.4949986e-05 -2.9005773e-21)
(-0.0013491806 8.8512529e-05 7.3812804e-21)
(-0.0013424758 8.2264829e-05 -5.2283981e-21)
(-0.0013350469 7.6207453e-05 -1.1839976e-20)
(-0.0013269275 7.0340474e-05 2.6397124e-21)
(-0.0013181508 6.4663522e-05 1.1188963e-20)
(-0.0013087496 5.9175783e-05 -4.3909107e-21)
(-0.0012987565 5.387606e-05 -3.5999763e-21)
(-0.0012882033 4.8762773e-05 1.2257052e-20)
(-0.0012771213 4.3834016e-05 2.8961865e-20)
(-0.0012655413 3.9087568e-05 8.9570975e-21)
(-0.0012534933 3.4520922e-05 -8.6254028e-21)
(-0.0012410067 3.0131328e-05 7.9244163e-21)
(-0.0012281102 2.5915806e-05 -1.2842156e-20)
(-0.0012148317 2.187118e-05 -3.5663959e-20)
(-0.0012011983 1.7994124e-05 1.009722e-21)
(-0.0011872362 1.4281173e-05 1.7502742e-20)
(-0.0011729709 1.0728732e-05 4.7431148e-21)
(-0.0011584267 7.3331264e-06 -1.1417455e-20)
(-0.0011436267 4.0905547e-06 2.7231565e-21)
(-0.0011285918 9.9633907e-07 1.8132477e-20)
(-0.0011133463 -1.9560514e-06 -3.0512408e-21)
(-0.0010979155 -4.7711205e-06 1.6236213e-21)
(-0.0010823192 -7.4500993e-06 -2.296753e-20)
(-0.0010665757 -9.9967239e-06 -2.6855311e-20)
(-0.0010507031 -1.2415304e-05 6.454163e-21)
(-3.392431e-05 0.00056558725 -3.3144648e-19)
(-7.6758227e-05 0.00056536101 -6.3671828e-20)
(-0.00012587094 0.00056445929 -9.7806551e-20)
(-0.00017346953 0.00056300206 -1.8391082e-19)
(-0.00022214104 0.00056094608 -1.3557221e-19)
(-0.00027044846 0.00055830114 1.3175502e-20)
(-0.00031835852 0.00055508527 4.3948216e-21)
(-0.00036581873 0.0005513142 -1.0919032e-20)
(-0.00041275633 0.00054700377 3.0508558e-20)
(-0.00045909719 0.00054217016 3.5384105e-20)
(-0.00050477144 0.00053683001 1.1663045e-21)
(-0.00054971229 0.00053100059 -7.0586331e-21)
(-0.00059385536 0.00052469993 -3.5073574e-20)
(-0.00063713939 0.00051794682 1.2164289e-20)
(-0.00067950648 0.00051076085 5.0187483e-20)
(-0.00072090202 0.00050316234 -2.668726e-20)
(-0.00076127471 0.00049517233 -9.259448e-21)
(-0.00080057658 0.0004868125 6.3919926e-21)
(-0.00083876305 0.0004781051 -4.0522029e-21)
(-0.00087579299 0.00046907288 4.5885492e-20)
(-0.00091162874 0.00045973899 3.8243703e-20)
(-0.00094623614 0.00045012691 2.0413354e-20)
(-0.00097958457 0.00044026032 9.3946779e-21)
(-0.0010116469 0.00043016304 3.5534939e-20)
(-0.0010423996 0.00041985893 1.9189108e-20)
(-0.0010718225 0.0004093718 -7.6184045e-21)
(-0.001099899 0.00039872528 6.9785789e-21)
(-0.001126616 0.00038794281 3.1846603e-21)
(-0.0011519634 0.0003770475 9.6073916e-21)
(-0.0011759347 0.00036606208 3.4424438e-20)
(-0.0011985266 0.00035500878 2.1001558e-20)
(-0.0012197386 0.00034390931 2.6240076e-20)
(-0.0012395734 0.00033278473 4.2114155e-20)
(-0.0012580366 0.00032165542 3.113143e-20)
(-0.0012751367 0.00031054102 5.1489641e-21)
(-0.0012908845 0.00029946042 -2.5298767e-20)
(-0.0013052939 0.0002884318 1.1168057e-20)
(-0.0013183806 0.00027747251 1.5498838e-20)
(-0.0013301629 0.00026659908 1.928379e-21)
(-0.0013406609 0.00025582709 2.0148069e-20)
(-0.0013498969 0.00024517125 1.6257436e-20)
(-0.0013578946 0.00023464532 1.0328357e-20)
(-0.0013646798 0.0002242621 -1.2412387e-20)
(-0.0013702794 0.0002140335 2.6914459e-20)
(-0.001374722 0.00020397047 1.3904012e-20)
(-0.0013780372 0.00019408303 1.1902317e-20)
(-0.0013802558 0.0001843803 1.6756202e-20)
(-0.0013814093 0.00017487051 5.3984021e-21)
(-0.0013815303 0.00016556097 -1.2911386e-21)
(-0.0013806518 0.00015645819 1.6762928e-22)
(-0.0013788077 0.00014756779 1.4264063e-20)
(-0.0013760319 0.00013889463 -6.4860359e-21)
(-0.0013723588 0.00013044276 -1.8629192e-20)
(-0.0013678231 0.00012221546 -5.0152696e-21)
(-0.0013624593 0.00011421533 -1.7191599e-20)
(-0.0013563022 0.00010644425 -7.0248838e-21)
(-0.0013493862 9.8903442e-05 2.4914751e-20)
(-0.0013417458 9.1593517e-05 2.0675256e-20)
(-0.001333415 8.451449e-05 3.1318673e-21)
(-0.0013244276 7.7665844e-05 1.0071919e-20)
(-0.0013148169 7.1046533e-05 -7.2186168e-21)
(-0.0013046157 6.4655037e-05 -1.7549955e-20)
(-0.0012938563 5.848939e-05 -9.9941481e-21)
(-0.0012825704 5.2547219e-05 2.5243001e-20)
(-0.001270789 4.6825782e-05 2.5618442e-20)
(-0.0012585426 4.1321989e-05 1.8220529e-21)
(-0.0012458608 3.6032453e-05 -7.6181656e-22)
(-0.0012327724 3.0953509e-05 -9.0838745e-21)
(-0.0012193057 2.6081245e-05 -1.8510835e-20)
(-0.0012054877 2.1411546e-05 -1.7283815e-21)
(-0.0011913451 1.69401e-05 9.1621906e-21)
(-0.0011769033 1.266241e-05 -1.534913e-21)
(-0.0011621869 8.5738427e-06 -9.0488153e-21)
(-0.0011472196 4.6696343e-06 -4.164624e-21)
(-0.001132023 9.4433061e-07 6.2457283e-21)
(-0.0011166213 -2.6087572e-06 -8.0738043e-22)
(-0.0011010377 -5.9941489e-06 3.6900068e-21)
(-0.0010852922 -9.215457e-06 -1.8765865e-20)
(-0.0010694038 -1.2277532e-05 -9.1023753e-21)
(-0.001053391 -1.5185458e-05 8.4327135e-22)
(-3.4328017e-05 0.00066484465 -4.3425091e-19)
(-7.768467e-05 0.0006645581 -2.2899229e-19)
(-0.00012740255 0.00066346671 -1.4648484e-19)
(-0.00017559223 0.00066171554 -1.1420558e-19)
(-0.00022487143 0.00065926293 -1.1646825e-19)
(-0.00027378006 0.00065612153 -9.0483551e-20)
(-0.00032228212 0.00065231181 -2.5586186e-20)
(-0.00037032281 0.00064785124 -6.9301459e-20)
(-0.00041782742 0.00064275747 -3.2345205e-20)
(-0.00046472017 0.00063704876 4.0581866e-21)
(-0.00051092977 0.00063074419 -7.1831525e-21)
(-0.00055638815 0.00062386374 -2.0163475e-20)
(-0.00060102969 0.00061642846 -7.8467786e-20)
(-0.00064479204 0.00060846042 -3.645798e-20)
(-0.00068761625 0.00059998267 6.7657203e-23)
(-0.0007294468 0.00059101919 -1.2300531e-20)
(-0.00077023154 0.00058159486 1.1631545e-20)
(-0.00080992176 0.00057173531 -6.8100835e-21)
(-0.00084847224 0.0005614669 -3.9960001e-20)
(-0.00088584132 0.00055081654 6.9663917e-24)
(-0.00092199091 0.00053981163 2.982195e-20)
(-0.00095688654 0.00052847997 -1.8259314e-20)
(-0.00099049736 0.00051684959 -5.4405656e-21)
(-0.0010227962 0.00050494867 5.8716168e-20)
(-0.0010537594 0.00049280544 5.7360959e-20)
(-0.001083367 0.00048044804 -3.4266077e-20)
(-0.0011116027 0.00046790443 -1.8313229e-20)
(-0.0011384533 0.0004552023 -1.80869e-20)
(-0.0011639096 0.00044236895 2.3993789e-21)
(-0.0011879653 0.00042943121 1.7909593e-20)
(-0.0012106176 0.00041641534 -1.604068e-20)
(-0.0012318667 0.00040334692 1.2077863e-20)
(-0.0012517162 0.00039025083 1.8785111e-20)
(-0.0012701722 0.00037715112 -3.8024125e-20)
(-0.0012872441 0.00036407101 -2.9596852e-20)
(-0.0013029436 0.00035103279 -9.3086164e-21)
(-0.0013172853 0.00033805785 1.0955345e-20)
(-0.001330286 0.00032516659 -2.9923125e-21)
(-0.0013419648 0.00031237841 -4.9804156e-20)
(-0.001352343 0.00029971162 -4.5944711e-20)
(-0.0013614435 0.00028718347 -3.5627734e-21)
(-0.0013692915 0.00027481012 3.8090198e-20)
(-0.0013759135 0.00026260659 -1.3209658e-21)
(-0.0013813376 0.00025058681 -3.6655916e-20)
(-0.0013855932 0.00023876361 -1.0189211e-20)
(-0.0013887111 0.00022714873 2.326261e-20)
(-0.001390723 0.00021575281 3.5395476e-20)
(-0.0013916614 0.00020458544 -9.5264284e-21)
(-0.0013915598 0.00019365517 -2.7161752e-20)
(-0.0013904523 0.00018296954 4.8805954e-21)
(-0.0013883733 0.00017253508 -8.7947226e-21)
(-0.001385358 0.0001623574 -1.5518468e-21)
(-0.0013814415 0.00015244115 -9.8426099e-21)
(-0.0013766591 0.00014279011 -2.5392548e-20)
(-0.0013710463 0.00013340723 -2.0580284e-20)
(-0.0013646386 0.00012429461 -1.7316788e-20)
(-0.0013574711 0.0001154536 1.1239288e-20)
(-0.0013495788 0.00010688481 -7.1184224e-21)
(-0.0013409965 9.8588184e-05 -1.4902648e-20)
(-0.0013317585 9.0563001e-05 1.8599004e-21)
(-0.0013218986 8.2807941e-05 2.0838218e-21)
(-0.0013114501 7.5321127e-05 7.2239747e-21)
(-0.0013004459 6.810017e-05 -1.7935884e-20)
(-0.001288918 6.1142192e-05 -1.1387094e-20)
(-0.0012768978 5.4443875e-05 1.5025934e-20)
(-0.0012644162 4.8001517e-05 -3.6346879e-21)
(-0.001251503 4.181105e-05 7.2515731e-21)
(-0.0012381875 3.5868079e-05 -6.4765779e-21)
(-0.001224498 3.0167925e-05 -1.3883499e-20)
(-0.0012104619 2.4705655e-05 -1.4956333e-21)
(-0.001196106 1.9476105e-05 -1.2803239e-21)
(-0.001181456 1.4473903e-05 -2.1022147e-21)
(-0.0011665367 9.6934856e-06 3.1536506e-22)
(-0.0011513718 5.1291595e-06 4.4288394e-21)
(-0.0011359838 7.7464397e-07 2.4373029e-21)
(-0.0011203962 -3.3765653e-06 -5.8052304e-21)
(-0.001104632 -7.3303676e-06 -4.5637021e-21)
(-0.0010887108 -1.1091914e-05 -1.537311e-20)
(-0.0010726522 -1.466706e-05 -1.7407038e-20)
(-0.0010564746 -1.806175e-05 -6.853083e-21)
(-3.4811766e-05 0.0007654027 -5.5952625e-19)
(-7.8784838e-05 0.00076506341 -3.6036713e-19)
(-0.00012921145 0.0007637859 -9.6511968e-20)
(-0.00017808998 0.00076174221 -4.1967824e-20)
(-0.00022807429 0.00075888889 -2.7577174e-20)
(-0.00027768016 0.00075524183 -5.6894208e-20)
(-0.00032686903 0.00075082492 1.3767182e-20)
(-0.00037558373 0.0007456581 2.3468573e-20)
(-0.00042374724 0.00073976135 3.5208922e-20)
(-0.00047128173 0.0007331554 3.3117164e-20)
(-0.00051811414 0.00072586202 6.5004452e-20)