/*--------------------------------*- C++ -*----------------------------------*\
| =========                 |                                                 |
| \\      /  F ield         | OpenFOAM: The Open Source CFD Toolbox           |
|  \\    /   O peration     | Version:  2306                                  |
|   \\  /    A nd           | Website:  www.openfoam.com                      |
|    \\/     M anipulation  |                                                 |
\*---------------------------------------------------------------------------*/
FoamFile
{
    version     2.0;
    format      ascii;
    arch        "LSB;label=32;scalar=64";
    class       volVectorField;
    location    "0.11";
    object      U_0;
}
// * * * * * * * * * * * * * * * * * * * * * * * * * * * * * * * * * * * * * //

dimensions      [0 1 -1 0 0 0 0];

internalField   nonuniform List<vector> 
6400
(
(3.7509378e-05 4.0985747e-05 2.7791463e-21)
(3.8479748e-05 3.9962728e-05 1.5186727e-21)
(3.9409435e-05 3.8898491e-05 -2.9951761e-21)
(4.0297508e-05 3.7795084e-05 -5.9526275e-22)
(4.1142989e-05 3.6654374e-05 1.4452116e-21)
(4.1945191e-05 3.5478355e-05 -6.1663767e-22)
(4.2703302e-05 3.4268788e-05 -7.1418048e-22)
(4.3416695e-05 3.3027882e-05 -1.2181621e-21)
(4.4084911e-05 3.1757645e-05 5.4275508e-22)
(4.4707407e-05 3.0459744e-05 7.8834738e-22)
(4.5283808e-05 2.9136373e-05 -4.2470535e-22)
(4.5813809e-05 2.7789613e-05 2.8507493e-22)
(4.6297162e-05 2.6421251e-05 -1.7990763e-21)
(4.6733763e-05 2.5033288e-05 -6.3449618e-22)
(4.7123531e-05 2.3627596e-05 7.0241718e-22)
(4.7466386e-05 2.2206132e-05 -6.7267086e-22)
(4.7762347e-05 2.0770717e-05 -3.3122866e-22)
(4.8011468e-05 1.9323271e-05 -9.0382609e-22)
(4.8213928e-05 1.7865644e-05 5.1463385e-22)
(4.8370054e-05 1.6399821e-05 -1.8081917e-22)
(4.8480073e-05 1.4927303e-05 -3.8861675e-22)
(4.8544287e-05 1.3450033e-05 -2.2905404e-22)
(4.8563169e-05 1.1969666e-05 -5.851031e-22)
(4.8537092e-05 1.0487841e-05 -1.5632257e-22)
(4.8466576e-05 9.0064353e-06 -3.1118984e-22)
(4.8352134e-05 7.5268069e-06 -6.3750248e-22)
(4.8194271e-05 6.0505229e-06 -4.8479536e-22)
(4.799367e-05 4.5794129e-06 -7.8985734e-23)
(4.775094e-05 3.1146745e-06 5.8060282e-22)
(4.7466768e-05 1.6579574e-06 -9.1162736e-22)
(4.7141844e-05 2.1072556e-07 -1.0188161e-21)
(4.6776875e-05 -1.2257489e-06 3.1356511e-22)
(4.6372781e-05 -2.6500924e-06 1.6096644e-21)
(4.5930294e-05 -4.0609714e-06 -1.8159224e-22)
(4.5450154e-05 -5.4570703e-06 -1.3877085e-21)
(4.4933335e-05 -6.8373141e-06 -7.4971804e-22)
(4.4380707e-05 -8.2003994e-06 6.0607641e-22)
(4.3793099e-05 -9.5453982e-06 9.4935717e-22)
(4.3171442e-05 -1.0871057e-05 -1.4994966e-22)
(4.2516558e-05 -1.2176117e-05 -1.9515556e-21)
(4.1829446e-05 -1.3459904e-05 -3.8417465e-22)
(4.1111197e-05 -1.4721256e-05 9.3031326e-22)
(4.0362722e-05 -1.5959268e-05 5.7506957e-22)
(3.958494e-05 -1.7173101e-05 -1.8809188e-22)
(3.8778773e-05 -1.8361742e-05 -1.1845222e-21)
(3.7945326e-05 -1.9524521e-05 -9.7763242e-22)
(3.7085618e-05 -2.0660622e-05 4.319492e-22)
(3.6200586e-05 -2.1769363e-05 1.0276783e-21)
(3.5291313e-05 -2.2849976e-05 -1.4017027e-22)
(3.4358766e-05 -2.3901643e-05 -4.1086395e-22)
(3.3404008e-05 -2.4923956e-05 -7.2804991e-22)
(3.2428097e-05 -2.5916246e-05 7.5577186e-24)
(3.143193e-05 -2.6877951e-05 1.2509177e-21)
(3.0416601e-05 -2.7808457e-05 -8.1711769e-23)
(2.9383196e-05 -2.8707435e-05 -1.1337212e-21)
(2.8332643e-05 -2.9574284e-05 -5.4250468e-22)
(2.7265992e-05 -3.0408668e-05 2.3633354e-22)
(2.6184295e-05 -3.1210151e-05 1.1780296e-21)
(2.5088595e-05 -3.1978422e-05 -5.1273262e-22)
(2.3979814e-05 -3.2712899e-05 -1.4070591e-21)
(2.2858943e-05 -3.3413486e-05 -6.0800632e-22)
(2.1727112e-05 -3.4079982e-05 8.8631754e-23)
(2.0585311e-05 -3.4712088e-05 1.3885157e-21)
(1.9434463e-05 -3.5309435e-05 1.3079346e-22)
(1.8275482e-05 -3.5872054e-05 -1.1588403e-21)
(1.7109522e-05 -3.6399557e-05 -6.4558481e-22)
(1.5937547e-05 -3.6891975e-05 -2.0652559e-22)
(1.4760429e-05 -3.7349117e-05 1.0858637e-21)
(1.3579159e-05 -3.7770952e-05 1.399588e-22)
(1.239465e-05 -3.8157432e-05 -1.1009155e-21)
(1.1207878e-05 -3.8508463e-05 -7.8248453e-23)
(1.0019811e-05 -3.8823921e-05 5.2042491e-23)
(8.8313727e-06 -3.9104074e-05 7.5471103e-22)
(7.643546e-06 -3.9348794e-05 -5.6673797e-23)
(6.4571784e-06 -3.9558263e-05 -8.6506554e-22)
(5.273222e-06 -3.9732451e-05 -4.9103836e-23)
(4.0926299e-06 -3.9871544e-05 1.7796006e-22)
(2.9159051e-06 -3.9975919e-05 4.0687435e-22)
(1.7432013e-06 -4.0046717e-05 -5.0468123e-22)
(5.7753856e-07 -4.008622e-05 -7.7357101e-22)
(3.6523696e-05 3.9557144e-05 -1.3402437e-21)
(3.7452898e-05 3.856734e-05 -6.8412493e-23)
(3.8343194e-05 3.7537936e-05 7.6964452e-23)
(3.919371e-05 3.64709e-05 -2.5391251e-21)
(4.0003555e-05 3.5367985e-05 -5.6605961e-22)
(4.0772036e-05 3.42311e-05 -5.9889136e-22)
(4.1498437e-05 3.3061977e-05 -1.158838e-21)
(4.2182e-05 3.1862677e-05 1.5574796e-21)
(4.2822222e-05 3.0635016e-05 -1.2571462e-21)
(4.3418738e-05 2.9380779e-05 -2.3434885e-24)
(4.3971072e-05 2.8101892e-05 4.352178e-22)
(4.4478846e-05 2.6800372e-05 4.492957e-22)
(4.4941934e-05 2.5477942e-05 3.9375903e-22)
(4.5360167e-05 2.413651e-05 -1.9114423e-21)
(4.5733427e-05 2.2777926e-05 1.397145e-22)
(4.6061683e-05 2.1404089e-05 -2.9275692e-22)
(4.6344887e-05 2.0016667e-05 1.8104076e-22)
(4.6583062e-05 1.8617625e-05 1.1162661e-21)
(4.6776424e-05 1.7208525e-05 -1.7315965e-21)
(4.6925146e-05 1.5791359e-05 -1.1735711e-22)
(4.7029499e-05 1.4367691e-05 1.2827346e-22)
(4.7089796e-05 1.2939136e-05 -4.5271712e-22)
(4.7106351e-05 1.150751e-05 1.1051543e-21)
(4.7079658e-05 1.0074229e-05 -1.0349294e-21)
(4.701015e-05 8.6413043e-06 2.9780599e-23)
(4.6898324e-05 7.2099035e-06 -1.3586923e-22)
(4.6744613e-05 5.7817125e-06 3.6516126e-22)
(4.6549554e-05 4.3582654e-06 8.7555648e-22)
(4.6313858e-05 2.9408266e-06 -7.843924e-22)
(4.6038081e-05 1.5310698e-06 5.9012059e-22)
(4.5723008e-05 1.3030965e-07 1.2712651e-21)
(4.5369346e-05 -1.2603181e-06 4.1235371e-22)
(4.4977698e-05 -2.6392891e-06 -1.6074953e-22)
(4.4548884e-05 -4.0053816e-06 -1.5272642e-21)
(4.4083835e-05 -5.3573772e-06 8.6251416e-22)
(4.3583295e-05 -6.6941603e-06 1.2384616e-21)
(4.3047939e-05 -8.0144556e-06 1.9472139e-22)
(4.2478712e-05 -9.3173097e-06 -3.8154707e-22)
(4.18765e-05 -1.0601588e-05 -6.0378794e-22)
(4.1242202e-05 -1.1866099e-05 2.4526994e-22)
(4.0576677e-05 -1.3110159e-05 3.891368e-22)
(3.98808e-05 -1.4332563e-05 6.3398498e-22)
(3.9155605e-05 -1.5532578e-05 3.3474963e-23)
(3.8401974e-05 -1.6709197e-05 -4.9979064e-22)
(3.7620864e-05 -1.7861539e-05 3.1597007e-22)
(3.6813264e-05 -1.8988985e-05 1.1334532e-21)
(3.598019e-05 -2.0090624e-05 1.4691406e-21)
(3.5122575e-05 -2.1165786e-05 8.5730335e-23)
(3.4241314e-05 -2.2213771e-05 -8.456336e-22)
(3.3337404e-05 -2.3233834e-05 1.0854871e-21)
(3.2411856e-05 -2.4225589e-05 1.0086565e-21)
(3.1465709e-05 -2.5188253e-05 3.9543487e-22)
(3.0499935e-05 -2.6121276e-05 4.523227e-22)
(2.9515532e-05 -2.7024215e-05 4.6988515e-23)
(2.85135e-05 -2.78965e-05 1.3511736e-22)
(2.7494763e-05 -2.873772e-05 5.4398728e-22)
(2.6460259e-05 -2.9547563e-05 6.9391786e-22)
(2.5411121e-05 -3.03255e-05 7.324427e-22)
(2.4348291e-05 -3.1071201e-05 -1.3971481e-22)
(2.3272697e-05 -3.1784254e-05 6.3605379e-23)
(2.2185422e-05 -3.2464425e-05 5.3206108e-22)
(2.1087458e-05 -3.3111518e-05 2.2209127e-22)
(1.997965e-05 -3.3725194e-05 5.1018962e-22)
(1.8862997e-05 -3.4305231e-05 5.640075e-22)
(1.7738501e-05 -3.4851525e-05 5.143286e-22)
(1.6607077e-05 -3.5363846e-05 4.4494682e-22)
(1.5469706e-05 -3.5842054e-05 1.2139503e-22)
(1.4327305e-05 -3.6285991e-05 3.4647172e-22)
(1.3180839e-05 -3.6695726e-05 1.0935059e-22)
(1.2031242e-05 -3.707104e-05 2.0786701e-23)
(1.0879399e-05 -3.7411921e-05 6.6837753e-22)
(9.7262578e-06 -3.7718357e-05 6.260282e-22)
(8.5727578e-06 -3.7990518e-05 6.9516156e-22)
(7.4197633e-06 -3.82283e-05 4.4484664e-22)
(6.2682138e-06 -3.8431758e-05 2.1023053e-22)
(5.1189181e-06 -3.8600932e-05 -1.6247409e-23)
(3.9728498e-06 -3.8736104e-05 4.7530621e-22)
(2.8305884e-06 -3.8837419e-05 5.913413e-22)
(1.6922387e-06 -3.890628e-05 -1.2140749e-23)
(5.6069756e-07 -3.8944608e-05 -3.8919165e-22)
(3.5569665e-05 3.8181856e-05 1.4301439e-21)
(3.6459312e-05 3.7223761e-05 2.136091e-21)
(3.7311814e-05 3.6227703e-05 2.4405712e-21)
(3.8126276e-05 3.5195518e-05 2.8015781e-21)
(3.8901908e-05 3.4128853e-05 2.3409294e-21)
(3.9637965e-05 3.30295e-05 5.7414515e-22)
(4.0333674e-05 3.1899134e-05 1.0320252e-22)
(4.0988407e-05 3.0739699e-05 2.3189644e-21)
(4.1601732e-05 2.9552896e-05 1.8137468e-21)
(4.2173138e-05 2.8340496e-05 1.8470434e-21)
(4.2702196e-05 2.7104372e-05 1.7179939e-21)
(4.3188574e-05 2.5846307e-05 1.0433586e-21)
(4.3632067e-05 2.4568078e-05 1.2648117e-21)
(4.4032539e-05 2.3271375e-05 1.8747747e-21)
(4.4389801e-05 2.1958102e-05 2.6254e-21)
(4.4703812e-05 2.0629998e-05 6.4664e-22)
(4.4974524e-05 1.928876e-05 -5.2587146e-23)
(4.5202003e-05 1.7936202e-05 1.0878684e-21)
(4.5386418e-05 1.6573789e-05 1.0111438e-21)
(4.5527933e-05 1.5203522e-05 2.1499411e-21)
(4.5626784e-05 1.3826862e-05 9.4107563e-23)
(4.568323e-05 1.2445352e-05 -4.2271094e-22)
(4.5697533e-05 1.1060704e-05 2.2061944e-22)
(4.5670083e-05 9.6743838e-06 7.1902315e-22)
(4.5601358e-05 8.2882494e-06 1.9529991e-21)
(4.5491754e-05 6.9034112e-06 1.4938935e-22)
(4.5341785e-05 5.5216344e-06 -4.6372704e-22)
(4.5151968e-05 4.144219e-06 1.9467628e-22)
(4.492297e-05 2.7724622e-06 4.9235665e-23)
(4.4655366e-05 1.4081105e-06 5.2851994e-22)
(4.4349722e-05 5.2126802e-08 -1.0130929e-21)
(4.4006741e-05 -1.2940126e-06 -4.472299e-22)
(4.3627097e-05 -2.6291062e-06 4.130841e-22)
(4.3211478e-05 -3.9518709e-06 6.1944307e-22)
(4.2760743e-05 -5.261213e-06 9.2008845e-22)
(4.2275627e-05 -6.5558615e-06 -5.6550261e-22)
(4.1756869e-05 -7.8347255e-06 -8.4923861e-22)
(4.1205343e-05 -9.0967576e-06 3.6084535e-22)
(4.0621851e-05 -1.0341031e-05 1.1562967e-22)
(4.0007285e-05 -1.1566242e-05 5.6104091e-22)
(3.9362517e-05 -1.2771782e-05 -4.4695702e-22)
(3.8688315e-05 -1.3956388e-05 -5.8714046e-22)
(3.7985604e-05 -1.5119528e-05 3.4003971e-23)
(3.7255418e-05 -1.626005e-05 4.5128422e-22)
(3.6498496e-05 -1.7377192e-05 4.686889e-22)
(3.5715793e-05 -1.8470247e-05 -4.7749742e-22)
(3.4908371e-05 -1.9538483e-05 -3.7264072e-22)
(3.4077094e-05 -2.0581065e-05 4.8796811e-23)
(3.322282e-05 -2.15974e-05 -2.2585185e-22)
(3.2346591e-05 -2.2586811e-05 5.2756101e-22)
(3.1449406e-05 -2.3548786e-05 -9.04095e-23)
(3.0532119e-05 -2.448263e-05 -8.5564867e-22)
(2.9595684e-05 -2.5387793e-05 -2.2228039e-22)
(2.8641187e-05 -2.6263933e-05 1.3368571e-22)
(2.7669477e-05 -2.7110299e-05 3.2426066e-22)
(2.6681471e-05 -2.7926603e-05 -2.3885883e-22)
(2.5678202e-05 -2.8712476e-05 -6.9886198e-22)
(2.4660633e-05 -2.9467472e-05 -2.4674887e-22)
(2.3629732e-05 -3.0191289e-05 -1.7219119e-22)
(2.2586439e-05 -3.0883454e-05 2.0022777e-22)
(2.1531675e-05 -3.1543715e-05 -1.0322647e-22)
(2.0466373e-05 -3.2172004e-05 -1.2193366e-21)
(1.9391548e-05 -3.2767681e-05 -1.5519396e-22)
(1.8308072e-05 -3.3330897e-05 1.2023197e-23)
(1.7216862e-05 -3.3861294e-05 2.6797783e-22)
(1.6118961e-05 -3.4358778e-05 3.710862e-23)
(1.5015255e-05 -3.4823135e-05 -1.0179398e-21)
(1.3906565e-05 -3.5254287e-05 -2.3181492e-22)
(1.2793935e-05 -3.5652227e-05 -2.7871177e-22)
(1.1678277e-05 -3.601667e-05 6.3216858e-23)
(1.0560375e-05 -3.6347745e-05 2.1100063e-22)
(9.4411673e-06 -3.6645397e-05 -3.0908986e-22)
(8.3215546e-06 -3.6909723e-05 -1.9644712e-22)
(7.2024399e-06 -3.7140678e-05 -1.5269089e-22)
(6.0846564e-06 -3.7338281e-05 7.1092152e-23)
(4.9690324e-06 -3.7502557e-05 -1.619912e-22)
(3.8565156e-06 -3.7633906e-05 -4.727505e-22)
(2.7476637e-06 -3.7732339e-05 -2.2477505e-22)
(1.6426173e-06 -3.7799256e-05 -4.5067554e-22)
(5.4421753e-07 -3.7836391e-05 -4.1126568e-22)
(3.4645999e-05 3.6857815e-05 -2.5996394e-21)
(3.5497602e-05 3.5930092e-05 -3.2323905e-22)
(3.6313707e-05 3.496603e-05 4.8503462e-22)
(3.7093514e-05 3.396721e-05 -3.7515618e-21)
(3.7836244e-05 3.2935299e-05 -4.5650056e-21)
(3.8541087e-05 3.1871876e-05 -3.2583322e-21)
(3.9207374e-05 3.0778694e-05 -3.5415326e-22)
(3.9834394e-05 2.9657485e-05 3.3876304e-22)
(4.0421726e-05 2.8509884e-05 -2.8416779e-21)
(4.0968955e-05 2.7337622e-05 -3.2160998e-21)
(4.1475596e-05 2.6142557e-05 -1.5096494e-21)
(4.194135e-05 2.492629e-05 1.7021838e-22)
(4.236593e-05 2.3690486e-05 -2.8444061e-22)
(4.274915e-05 2.243685e-05 -1.9139184e-21)
(4.3090881e-05 2.1167159e-05 -1.8607014e-21)
(4.3391085e-05 1.9883073e-05 -1.3032141e-21)
(4.364973e-05 1.8586274e-05 1.0564134e-22)
(4.3866875e-05 1.7278344e-05 -2.4485664e-22)
(4.4042508e-05 1.5960983e-05 -1.744438e-21)
(4.4176834e-05 1.463582e-05 -1.223939e-21)
(4.4270184e-05 1.3304389e-05 -8.4731693e-22)
(4.4322692e-05 1.1968279e-05 6.2072799e-22)
(4.4334694e-05 1.0628908e-05 -6.5012954e-22)
(4.430643e-05 9.2880058e-06 -1.4331352e-21)
(4.4238298e-05 7.9469709e-06 -4.2646236e-22)
(4.4130809e-05 6.6071412e-06 -7.6913235e-23)
(4.3984458e-05 5.2700829e-06 6.173679e-22)
(4.3799709e-05 3.9371661e-06 -1.1705563e-22)
(4.3576962e-05 2.6096114e-06 -1.2841506e-21)
(4.3316898e-05 1.2889564e-06 -1.3794953e-22)
(4.3020158e-05 -2.3634719e-08 1.1081832e-21)
(4.2687373e-05 -1.3268282e-06 1.4932227e-21)
(4.2319176e-05 -2.6194579e-06 -1.5506751e-21)
(4.1916297e-05 -3.9003254e-06 -1.223896e-21)
(4.1479368e-05 -5.1682892e-06 8.4244405e-22)
(4.1009088e-05 -6.4220803e-06 1.1055691e-21)
(4.0506358e-05 -7.6608798e-06 2.8125883e-22)
(3.9971841e-05 -8.8833998e-06 -7.8948926e-22)
(3.9406348e-05 -1.0088915e-05 -8.0377781e-22)
(3.8810778e-05 -1.1276083e-05 6.8612771e-22)
(3.8185912e-05 -1.2444254e-05 1.2567261e-21)
(3.7532585e-05 -1.3592303e-05 4.915665e-22)
(3.6851597e-05 -1.471952e-05 -8.3602308e-22)
(3.6143822e-05 -1.582511e-05 -5.6294908e-22)
(3.5410208e-05 -1.6908053e-05 8.2359497e-22)
(3.4651666e-05 -1.7967755e-05 1.013897e-21)
(3.3869051e-05 -1.9003514e-05 5.0606495e-22)
(3.3063194e-05 -2.0014513e-05 -6.2986226e-22)
(3.2235059e-05 -2.1000091e-05 -5.4614089e-22)
(3.1385629e-05 -2.1959754e-05 5.5981511e-22)
(3.0515812e-05 -2.2892813e-05 9.3665727e-22)
(2.9626447e-05 -2.3798626e-05 3.6791537e-22)
(2.8718482e-05 -2.4676736e-05 -9.4576345e-22)
(2.7792843e-05 -2.5526801e-05 -2.4427474e-22)
(2.6850459e-05 -2.6347949e-05 1.2533417e-21)
(2.5892261e-05 -2.7140014e-05 1.1175291e-21)
(2.4919189e-05 -2.7902633e-05 4.809421e-22)
(2.3932214e-05 -2.8635373e-05 -6.2374826e-22)
(2.2932228e-05 -2.9337841e-05 -3.6078186e-22)
(2.192013e-05 -3.0009671e-05 1.2108247e-21)
(2.0896906e-05 -3.0650561e-05 1.3647835e-21)
(1.986345e-05 -3.1260481e-05 -2.9238522e-22)
(1.8820589e-05 -3.18387e-05 -9.1591371e-22)
(1.7769301e-05 -3.2385486e-05 3.0280639e-25)
(1.6710534e-05 -3.2900478e-05 1.013696e-21)
(1.5645188e-05 -3.3383512e-05 8.7065777e-22)
(1.4574133e-05 -3.3834371e-05 -1.8856018e-22)
(1.3498216e-05 -3.4253007e-05 -4.9717407e-22)
(1.2418424e-05 -3.4639401e-05 2.0744763e-22)
(1.133557e-05 -3.4993351e-05 8.1116958e-22)
(1.0250528e-05 -3.5314879e-05 8.3296256e-22)
(9.1642854e-06 -3.5603995e-05 2.536934e-22)
(8.0775953e-06 -3.5860679e-05 -4.85824e-22)
(6.9913122e-06 -3.6084948e-05 3.9327943e-22)
(5.9062952e-06 -3.6276836e-05 6.9767347e-22)
(4.8234229e-06 -3.6436403e-05 3.5583592e-22)
(3.7435371e-06 -3.6563973e-05 1.5240111e-22)
(2.6671828e-06 -3.6659639e-05 -1.8179234e-22)
(1.5945035e-06 -3.6724609e-05 -3.1058808e-23)
(5.2826469e-07 -3.6760682e-05 4.8828313e-23)
(3.375126e-05 3.5583024e-05 -4.3620197e-21)
(3.4566414e-05 3.4684515e-05 -4.2310094e-21)
(3.5347649e-05 3.375111e-05 -2.5683299e-21)
(3.6094166e-05 3.2784229e-05 -1.7955172e-21)
(3.680524e-05 3.1785539e-05 -3.4482527e-21)
(3.7480059e-05 3.0756615e-05 -3.9506826e-21)
(3.8117948e-05 2.9699089e-05 -3.5504693e-21)
(3.8718332e-05 2.8614569e-05 -8.6258112e-22)
(3.9280671e-05 2.7504646e-05 1.4667663e-21)
(3.9804503e-05 2.6370966e-05 -2.8963223e-21)
(4.0289518e-05 2.5215284e-05 -4.0481074e-21)
(4.073531e-05 2.403912e-05 -3.1720218e-21)
(4.1141562e-05 2.2844089e-05 -1.6426282e-21)
(4.1508208e-05 2.1631899e-05 3.7723059e-22)
(4.1835009e-05 2.0404083e-05 -1.8576211e-21)
(4.2121866e-05 1.9162405e-05 -2.3004035e-21)
(4.2368769e-05 1.7908343e-05 -2.0159307e-21)
(4.2575745e-05 1.6643476e-05 -1.5496382e-21)
(4.2742916e-05 1.5369505e-05 1.0806848e-21)
(4.2870328e-05 1.4087779e-05 -1.1898419e-21)
(4.2958201e-05 1.2800048e-05 -1.6787573e-21)
(4.3006772e-05 1.1507572e-05 -1.3744607e-21)
(4.301627e-05 1.0211977e-05 -1.1591968e-21)
(4.298707e-05 8.9147254e-06 1.3204434e-21)
(4.291954e-05 7.617189e-06 1.8866745e-23)
(4.2814027e-05 6.3207213e-06 -6.8500801e-22)
(4.267098e-05 5.0269067e-06 -9.2629368e-22)
(4.2490875e-05 3.7369358e-06 -1.1140012e-21)
(4.2274179e-05 2.4521631e-06 8.6101803e-22)
(4.2021471e-05 1.1737329e-06 1.6088265e-22)
(4.1733229e-05 -9.6859228e-08 -7.7991139e-22)
(4.1410079e-05 -1.3585668e-06 -1.3426355e-21)
(4.1052813e-05 -2.6101457e-06 -3.1409442e-22)
(4.0661976e-05 -3.8504726e-06 1.9349309e-21)
(4.0238214e-05 -5.0783796e-06 7.7683901e-22)
(3.9782323e-05 -6.2927543e-06 -2.3809398e-22)
(3.9294906e-05 -7.4926205e-06 -7.1196224e-22)
(3.8776774e-05 -8.6769658e-06 -2.2080828e-22)
(3.8228684e-05 -9.8448079e-06 1.4455136e-21)
(3.7651353e-05 -1.0995149e-05 1.2334602e-21)
(3.7045705e-05 -1.2127106e-05 5.2827681e-22)
(3.641242e-05 -1.3239729e-05 -1.1322744e-21)
(3.5752354e-05 -1.4332189e-05 -5.3103101e-22)
(3.5066393e-05 -1.540383e-05 1.5431376e-21)
(3.435531e-05 -1.6453562e-05 1.2584334e-21)
(3.3619982e-05 -1.7481007e-05 -2.1252296e-22)
(3.286125e-05 -1.848523e-05 -6.1141392e-22)
(3.2080074e-05 -1.9465519e-05 3.9559491e-22)
(3.1277254e-05 -2.0421267e-05 1.0952734e-21)
(3.0453698e-05 -2.1351927e-05 1.2978768e-21)
(2.9610308e-05 -2.2256924e-05 4.3029284e-22)
(2.8747888e-05 -2.313559e-05 -3.547179e-22)
(2.7867406e-05 -2.3987398e-05 -4.6019338e-24)
(2.6969729e-05 -2.4812024e-05 8.8800882e-22)
(2.6055796e-05 -2.5608702e-05 1.5954684e-21)
(2.5126523e-05 -2.6377205e-05 8.446803e-22)
(2.4182739e-05 -2.7117257e-05 -3.3692099e-23)
(2.3225345e-05 -2.782833e-05 7.8489203e-23)
(2.2255289e-05 -2.8510025e-05 6.1428174e-22)
(2.1273451e-05 -2.9162087e-05 1.3397204e-21)
(2.0280778e-05 -2.9784161e-05 1.3029996e-21)
(1.9278092e-05 -3.0376136e-05 1.6648758e-22)
(1.8266283e-05 -3.0937465e-05 -6.8531909e-23)
(1.7246266e-05 -3.1468185e-05 3.3586717e-22)
(1.6218906e-05 -3.1968204e-05 9.8500092e-22)
(1.5185113e-05 -3.2437132e-05 8.8639379e-22)
(1.4145724e-05 -3.2874812e-05 7.3418061e-23)
(1.310165e-05 -3.3281317e-05 2.1935635e-22)
(1.2053692e-05 -3.3656435e-05 7.2213005e-22)
(1.1002779e-05 -3.4000189e-05 9.2185171e-22)
(9.949761e-06 -3.4312371e-05 7.9972269e-22)
(8.8954101e-06 -3.4593151e-05 1.4926785e-22)
(7.8406529e-06 -3.4842414e-05 -2.6931849e-22)
(6.7863267e-06 -3.5060221e-05 4.2575856e-22)
(5.7331632e-06 -3.5246535e-05 1.1804026e-21)
(4.6820531e-06 -3.540153e-05 9.2549416e-22)
(3.6338618e-06 -3.5525408e-05 1.5434329e-22)
(2.5890623e-06 -3.5618318e-05 -7.0236641e-23)
(1.5477985e-06 -3.5681423e-05 -1.9620066e-22)
(5.1279304e-07 -3.571648e-05 1.7157175e-23)
(3.2884293e-05 3.4355672e-05 -1.9292456e-21)
(3.3664502e-05 3.3485138e-05 -6.5118533e-22)
(3.4412233e-05 3.2581042e-05 -3.1168441e-22)
(3.5126762e-05 3.1644818e-05 -2.5953966e-22)
(3.5807454e-05 3.0677968e-05 2.2833281e-22)
(3.6453405e-05 2.9682206e-05 -4.3918532e-22)
(3.7064037e-05 2.865881e-05 -3.2526856e-22)
(3.7638768e-05 2.7609547e-05 1.4137429e-21)
(3.8177051e-05 2.6535812e-05 8.7220955e-22)
(3.8678449e-05 2.5439183e-05 -1.2925427e-22)
(3.9142527e-05 2.432127e-05 -4.7845168e-23)
(3.9569002e-05 2.3183682e-05 -4.5948093e-22)
(3.9957601e-05 2.2027921e-05 -2.5325687e-22)
(4.0308094e-05 2.0855501e-05 -1.0226683e-22)
(4.0620361e-05 1.966803e-05 9.1195933e-23)
(4.0894281e-05 1.8467093e-05 -1.2119958e-22)
(4.112982e-05 1.7254199e-05 -4.6931464e-22)
(4.1327016e-05 1.6030827e-05 3.4369734e-22)
(4.1485876e-05 1.4798612e-05 4.9357767e-22)
(4.1606479e-05 1.3558844e-05 -6.316061e-22)
(4.1689041e-05 1.2313103e-05 3.1930982e-22)
(4.1733699e-05 1.1062816e-05 -4.217574e-22)
(4.1740806e-05 9.8093437e-06 2.7760996e-22)
(4.1710698e-05 8.5541903e-06 1.3561585e-22)
(4.1643535e-05 7.2986896e-06 -1.5767569e-22)
(4.1539742e-05 6.0440986e-06 4.7895192e-22)
(4.1399754e-05 4.7920295e-06 -7.9659765e-22)
(4.1223971e-05 3.5435314e-06 -2.0344994e-22)
(4.1012956e-05 2.2999094e-06 6.2408142e-22)
(4.0767209e-05 1.0624903e-06 -9.0743124e-23)
(4.0487134e-05 -1.675311e-07 4.939506e-22)
(4.017336e-05 -1.3890704e-06 -7.8300427e-22)
(3.9826569e-05 -2.6010488e-06 6.0156863e-22)
(3.9447308e-05 -3.8020588e-06 -1.8795324e-23)
(3.9036202e-05 -4.9912492e-06 -6.2838413e-22)
(3.8593986e-05 -6.167506e-06 7.1299109e-22)
(3.8121362e-05 -7.3297194e-06 5.1471658e-24)
(3.7619026e-05 -8.4770961e-06 -1.6271527e-22)
(3.7087667e-05 -9.608451e-06 -4.6551688e-22)
(3.6527995e-05 -1.0723076e-05 -8.3041721e-22)
(3.5940789e-05 -1.1819952e-05 8.318095e-22)
(3.5326918e-05 -1.2898151e-05 -1.8812355e-22)
(3.4687083e-05 -1.3956975e-05 -5.7623272e-22)
(3.402203e-05 -1.499566e-05 -4.2954904e-22)
(3.3332637e-05 -1.6013228e-05 -4.395785e-22)
(3.2619738e-05 -1.7009322e-05 -1.0880277e-22)
(3.188415e-05 -1.7982971e-05 -9.7980318e-22)
(3.1126698e-05 -1.8933419e-05 -1.2755488e-22)
(3.0348323e-05 -1.9860301e-05 -1.9706112e-22)
(2.954986e-05 -2.0762814e-05 -1.0201445e-22)
(2.8731999e-05 -2.1640473e-05 9.2794846e-23)
(2.7895622e-05 -2.2492731e-05 -9.9516404e-22)
(2.7041718e-05 -2.3318994e-05 -6.6651735e-23)
(2.6171131e-05 -2.4118885e-05 -1.2172024e-22)
(2.5284757e-05 -2.4891873e-05 -3.9980574e-22)
(2.4383489e-05 -2.5637558e-05 2.7463477e-22)
(2.3468083e-05 -2.635554e-05 -5.4604727e-22)
(2.2539406e-05 -2.7045535e-05 -2.9487558e-22)
(2.1598366e-05 -2.7707091e-05 -6.5990974e-22)
(2.0645855e-05 -2.8339799e-05 -8.2249626e-22)
(1.9682754e-05 -2.894361e-05 4.2115348e-23)
(1.8709908e-05 -2.9518134e-05 -7.034774e-22)
(1.7728178e-05 -3.0063055e-05 3.2186388e-23)
(1.6738496e-05 -3.0578208e-05 -1.6708899e-22)
(1.5741657e-05 -3.106359e-05 -7.3082808e-22)
(1.4738486e-05 -3.1518779e-05 -9.3094874e-23)
(1.3729878e-05 -3.1943691e-05 -1.000071e-21)
(1.271661e-05 -3.2338373e-05 -1.3986684e-22)
(1.1699583e-05 -3.2702584e-05 -2.9481404e-22)
(1.0679665e-05 -3.3036312e-05 -7.0791439e-22)
(9.6576438e-06 -3.3339415e-05 1.4626584e-22)
(8.6343771e-06 -3.3612022e-05 -7.1893504e-22)
(7.6106119e-06 -3.3854076e-05 -6.5735979e-22)
(6.5872163e-06 -3.4065587e-05 -4.3798525e-22)
(5.565034e-06 -3.4246506e-05 -4.6751072e-22)
(4.5448105e-06 -3.4397038e-05 8.0451855e-23)
(3.5273624e-06 -3.4517315e-05 -4.3253546e-22)
(2.5132171e-06 -3.4607541e-05 -5.1067969e-22)
(1.5024764e-06 -3.466881e-05 -5.087857e-22)
(4.9777207e-07 -3.4702866e-05 -3.717732e-22)
(3.2043917e-05 3.3173956e-05 2.3950927e-21)
(3.2790494e-05 3.2330187e-05 -1.2601585e-21)
(3.3506151e-05 3.145417e-05 -1.182878e-21)
(3.4190093e-05 3.0547331e-05 -7.4151043e-22)
(3.4841498e-05 2.9611096e-05 -1.012899e-21)
(3.5459709e-05 2.864706e-05 1.2347567e-21)
(3.6044139e-05 2.7656514e-05 -2.3904314e-21)
(3.6594124e-05 2.6641029e-05 -1.210018e-22)
(3.7109267e-05 2.5602047e-05 -3.3631566e-23)
(3.7589005e-05 2.4541048e-05 -6.3020515e-23)
(3.8032961e-05 2.3459476e-05 1.6491591e-21)
(3.844087e-05 2.2358992e-05 -1.2371022e-21)
(3.8812411e-05 2.1240903e-05 -5.590282e-22)
(3.9147384e-05 2.0106785e-05 -1.5848709e-22)
(3.9445588e-05 1.8958157e-05 -1.853144e-23)
(3.9706981e-05 1.7796393e-05 8.2941716e-22)
(3.9931493e-05 1.662317e-05 -1.195284e-21)
(4.0119058e-05 1.5439743e-05 -1.1449744e-22)
(4.0269823e-05 1.4247661e-05 -3.2113389e-22)
(4.0383857e-05 1.3048364e-05 -3.8179657e-22)
(4.0461223e-05 1.1843082e-05 1.0351469e-21)
(4.0502164e-05 1.0633494e-05 -1.1667613e-21)
(4.0506906e-05 9.4206086e-06 2.7943497e-22)
(4.0475667e-05 8.2061139e-06 3.7726205e-22)
(4.0408756e-05 6.9911674e-06 -1.7298739e-22)
(4.0306572e-05 5.7770824e-06 2.5349262e-22)
(4.0169496e-05 4.5653162e-06 -8.5467485e-22)
(3.9997908e-05 3.3568587e-06 9.1882323e-23)
(3.9792239e-05 2.1530222e-06 8.0882782e-22)
(3.9553017e-05 9.5514695e-07 4.8255895e-22)
(3.9280726e-05 -2.3568987e-07 9.2872767e-22)
(3.8975918e-05 -1.418416e-06 -7.7360042e-22)
(3.8639197e-05 -2.5919963e-06 -2.3101438e-22)
(3.8271102e-05 -3.7550603e-06 -1.1962777e-22)
(3.7872248e-05 -4.9067832e-06 5.2272659e-22)
(3.7443244e-05 -6.0460544e-06 7.0503905e-22)
(3.6984762e-05 -7.171877e-06 -7.1416155e-22)
(3.6497523e-05 -8.28338e-06 -2.3371234e-22)
(3.5982193e-05 -9.3794907e-06 5.7428942e-22)
(3.5439537e-05 -1.0459487e-05 3.1639286e-22)
(3.487022e-05 -1.1522336e-05 1.5362883e-22)
(3.4274932e-05 -1.2567206e-05 -1.3165086e-22)
(3.3654516e-05 -1.3593383e-05 1.2354287e-22)
(3.3009672e-05 -1.460014e-05 4.4150364e-22)
(3.2341277e-05 -1.5586542e-05 3.5038585e-22)
(3.1650062e-05 -1.6552129e-05 5.7773699e-22)
(3.0936814e-05 -1.7496123e-05 2.1230352e-22)
(3.0202417e-05 -1.8417685e-05 5.6430038e-23)
(2.9447596e-05 -1.9316476e-05 3.5637383e-22)
(2.86732e-05 -2.0191708e-05 9.1078454e-22)
(2.7880061e-05 -2.1042803e-05 1.0382085e-22)
(2.7069046e-05 -2.1869385e-05 -4.9126468e-22)
(2.6240926e-05 -2.2670821e-05 4.8522621e-22)
(2.5396539e-05 -2.3446807e-05 7.9605615e-22)
(2.453683e-05 -2.419671e-05 4.9108726e-22)
(2.3662557e-05 -2.4920176e-05 -2.4265877e-24)
(2.2774597e-05 -2.5616731e-05 1.7925632e-22)
(2.1873757e-05 -2.6286211e-05 8.0201149e-22)
(2.0960832e-05 -2.6928153e-05 4.7051292e-22)
(2.0036836e-05 -2.7542175e-05 9.5990237e-23)
(1.9102472e-05 -2.8128104e-05 8.0066043e-23)
(1.8158534e-05 -2.8685682e-05 -3.5477185e-22)
(1.720601e-05 -2.9214604e-05 5.5644046e-22)
(1.6245689e-05 -2.9714718e-05 8.944957e-22)
(1.5278381e-05 -3.0185752e-05 5.4314573e-22)
(1.4304925e-05 -3.0627613e-05 -1.1370759e-23)
(1.3326094e-05 -3.1040136e-05 -2.0514127e-22)
(1.2342781e-05 -3.1423264e-05 6.0476933e-22)
(1.1355779e-05 -3.1776858e-05 5.5876577e-22)
(1.0365854e-05 -3.2100843e-05 2.832201e-22)
(9.3739507e-06 -3.2395112e-05 3.5127665e-23)
(8.380826e-06 -3.2659857e-05 2.9964234e-22)
(7.3871621e-06 -3.2894795e-05 7.3055938e-22)
(6.3938181e-06 -3.3100174e-05 6.6807454e-22)
(5.4016576e-06 -3.3275869e-05 2.6679989e-22)
(4.4114646e-06 -3.3422059e-05 -2.9101839e-22)
(3.423912e-06 -3.3538774e-05 2.4782246e-22)
(2.4394987e-06 -3.3626431e-05 4.5279554e-22)
(1.4583951e-06 -3.3685888e-05 -5.8774419e-23)
(4.831698e-07 -3.371895e-05 -3.9719076e-22)
(3.1228937e-05 3.2036042e-05 1.7492623e-21)
(3.194339e-05 3.1217947e-05 3.6757955e-21)
(3.2628209e-05 3.0368903e-05 -1.4298378e-21)
(3.328271e-05 2.949026e-05 1.6267809e-21)
(3.3906073e-05 2.8583384e-05 6.8844019e-22)
(3.449766e-05 2.7649766e-05 1.9140448e-21)
(3.5056889e-05 2.6690773e-05 1.7207587e-21)
(3.5583159e-05 2.5707711e-05 -1.0366517e-21)
(3.6075955e-05 2.4702152e-05 1.4712741e-21)
(3.6534857e-05 2.3675354e-05 2.8437147e-22)
(3.6959442e-05 2.2628773e-05 2.0285993e-21)
(3.7349411e-05 2.1563905e-05 2.520806e-21)
(3.7704484e-05 2.0482081e-05 -9.0206107e-22)
(3.8024412e-05 1.9384842e-05 1.0648834e-21)
(3.8309061e-05 1.8273554e-05 -5.2944741e-23)
(3.8558351e-05 1.7149554e-05 1.0129971e-21)
(3.8772196e-05 1.6014484e-05 1.7326152e-21)
(3.8950518e-05 1.4869533e-05 -4.3431666e-22)
(3.9093355e-05 1.3716104e-05 5.826711e-22)
(3.9200911e-05 1.2555711e-05 -9.8025553e-23)
(3.9273266e-05 1.1389572e-05 8.7901049e-22)
(3.931054e-05 1.0219095e-05 1.7431716e-21)
(3.9312887e-05 9.0455258e-06 -3.426506e-22)
(3.9280529e-05 7.8701745e-06 6.2892903e-22)
(3.9213885e-05 6.694349e-06 -5.4038008e-22)
(3.9113193e-05 5.5193851e-06 1.4888296e-22)
(3.8978795e-05 4.3464981e-06 1.17494e-21)
(3.8811129e-05 3.1767428e-06 4.2617308e-23)
(3.8610614e-05 2.0114546e-06 4.4175647e-22)
(3.8377696e-05 8.5169577e-07 -1.3273429e-21)
(3.8112859e-05 -3.0133612e-07 -1.3414922e-21)
(3.7816597e-05 -1.4465364e-06 1.1943996e-21)
(3.7489439e-05 -2.5829162e-06 1.1358227e-21)
(3.7131982e-05 -3.709306e-06 6.954416e-22)
(3.6744821e-05 -4.8247611e-06 -1.1379794e-21)
(3.6328507e-05 -5.9282514e-06 -1.1734306e-21)
(3.5883696e-05 -7.0187993e-06 4.67586e-22)
(3.5411055e-05 -8.0955441e-06 1.4800549e-21)
(3.4911168e-05 -9.1575557e-06 8.8500211e-22)
(3.4384758e-05 -1.0203964e-05 -1.2008574e-21)
(3.3832552e-05 -1.1233856e-05 -1.2618199e-21)
(3.3255267e-05 -1.2246444e-05 1.0888642e-21)
(3.2653637e-05 -1.3241034e-05 1.5772287e-21)
(3.2028348e-05 -1.421679e-05 6.6324742e-22)
(3.1380164e-05 -1.5172934e-05 -1.197559e-21)
(3.0709922e-05 -1.6108995e-05 -6.7538453e-22)
(3.001834e-05 -1.7024217e-05 1.1245889e-21)
(2.9306115e-05 -1.7917758e-05 1.3785687e-21)
(2.8574092e-05 -1.878918e-05 1.5927231e-22)
(2.7823087e-05 -1.9637898e-05 -8.969166e-22)
(2.705391e-05 -2.0463345e-05 -7.9400292e-22)
(2.6267322e-05 -2.1264999e-05 1.5535834e-22)
(2.5464133e-05 -2.2042338e-05 1.148184e-21)
(2.4645217e-05 -2.2795047e-05 3.8044807e-22)
(2.381128e-05 -2.3522445e-05 -8.5024143e-22)
(2.296318e-05 -2.422429e-05 -5.944504e-22)
(2.2101751e-05 -2.490013e-05 2.5243275e-22)
(2.1227838e-05 -2.554966e-05 1.383373e-21)
(2.0342279e-05 -2.6172545e-05 2.9945097e-22)
(1.9445781e-05 -2.6768428e-05 -6.9447726e-22)
(1.853919e-05 -2.7336883e-05 -3.8829792e-22)
(1.7623349e-05 -2.7878091e-05 -2.7698182e-22)
(1.6699089e-05 -2.8391391e-05 1.123874e-21)
(1.5767244e-05 -2.8876804e-05 1.9644007e-22)
(1.4828603e-05 -2.9333977e-05 -6.1260174e-22)
(1.3883984e-05 -2.9762846e-05 -1.4492479e-22)
(1.2934184e-05 -3.0163255e-05 -8.255498e-23)
(1.1979902e-05 -3.0535178e-05 1.083681e-21)
(1.1021967e-05 -3.0878394e-05 1.202064e-22)
(1.0061285e-05 -3.1192935e-05 -5.676335e-22)
(9.0986096e-06 -3.1478646e-05 -4.9526942e-23)
(8.1346828e-06 -3.1735648e-05 2.5507698e-22)
(7.1702908e-06 -3.1963746e-05 1.0518447e-21)
(6.2061863e-06 -3.2163113e-05 3.6825367e-22)
(5.2431407e-06 -3.2333753e-05 -2.9723427e-22)
(4.2819618e-06 -3.2475664e-05 -1.9605429e-22)
(3.3234125e-06 -3.2588969e-05 4.483928e-23)
(2.3679088e-06 -3.2674086e-05 7.5386951e-22)
(1.4155738e-06 -3.2731785e-05 -1.8121971e-22)
(4.6897863e-07 -3.2763898e-05 -6.5936242e-22)
(3.0438453e-05 3.0940285e-05 -1.6313349e-21)
(3.1122039e-05 3.0146758e-05 4.5806537e-21)
(3.1777323e-05 2.9323537e-05 7.6866169e-23)
(3.2403556e-05 2.8471955e-05 -2.4826467e-21)
(3.3000044e-05 2.7593347e-05 4.0260195e-22)
(3.3566122e-05 2.6688983e-05 5.1009836e-22)
(3.4101107e-05 2.5760272e-05 3.7702856e-21)
(3.4604472e-05 2.4808428e-05 2.5401359e-22)
(3.5075765e-05 2.383492e-05 -2.4839104e-21)
(3.5514567e-05 2.284096e-05 -6.8069888e-23)