/*--------------------------------*- C++ -*----------------------------------*\
| =========                 |                                                 |
| \\      /  F ield         | OpenFOAM: The Open Source CFD Toolbox           |
|  \\    /   O peration     | Version:  2106                                  |
|   \\  /    A nd           | Website:  www.openfoam.com                      |
|    \\/     M anipulation  |                                                 |
\*---------------------------------------------------------------------------*/
FoamFile
{
    version     2.0;
    format      ascii;
    arch        "LSB;label=32;scalar=64";
    class       volScalarField;
    location    "3.5";
    object      p_rgh;
}
// * * * * * * * * * * * * * * * * * * * * * * * * * * * * * * * * * * * * * //

dimensions      [1 -1 -2 0 0 0 0];

internalField   nonuniform List<scalar> 
90000
(
0.00333333
0.00333515
0.00333885
0.0033444
0.00335179
0.00336098
0.00337196
0.0033847
0.00339921
0.00341543
0.00343335
0.00345295
0.00347417
0.003497
0.00352139
0.00354729
0.00357467
0.00360348
0.00363367
0.00366518
0.00369797
0.00373197
0.00376713
0.00380339
0.00384068
0.00387894
0.0039181
0.00395811
0.00399887
0.00404034
0.00408243
0.00412507
0.00416818
0.0042117
0.00425554
0.00429964
0.0043439
0.00438826
0.00443264
0.00447695
0.00452113
0.00456509
0.00460875
0.00465205
0.00469489
0.00473722
0.00477894
0.00481999
0.0048603
0.0048998
0.0049384
0.00497605
0.00501268
0.00504822
0.00508261
0.00511579
0.00514769
0.00517827
0.00520746
0.00523522
0.00526149
0.00528623
0.0053094
0.00533094
0.00535083
0.00536903
0.0053855
0.00540021
0.00541314
0.00542427
0.00543358
0.00544104
0.00544665
0.00545039
0.00545226
0.00545227
0.0054504
0.00544666
0.00544105
0.0054336
0.00542429
0.00541317
0.00540024
0.00538553
0.00536906
0.00535087
0.00533099
0.00530945
0.00528629
0.00526156
0.00523529
0.00520754
0.00517835
0.00514778
0.00511587
0.0050827
0.00504832
0.00501278
0.00497616
0.00493852
0.00489992
0.00486043
0.00482013
0.00477908
0.00473736
0.00469504
0.0046522
0.00460892
0.00456526
0.00452131
0.00447714
0.00443283
0.00438847
0.00434411
0.00429986
0.00425577
0.00421194
0.00416843
0.00412532
0.00408269
0.00404061
0.00399915
0.00395839
0.0039184
0.00387925
0.003841
0.00380372
0.00376747
0.00373233
0.00369834
0.00366557
0.00363407
0.0036039
0.0035751
0.00354774
0.00352185
0.00349748
0.00347468
0.00345347
0.0034339
0.003416
0.00339979
0.00338532
0.0033726
0.00336166
0.00335251
0.00334517
0.00333964
0.00333595
0.0033341
0.00333146
0.00333331
0.00333703
0.00334259
0.00334999
0.00335919
0.00337019
0.00338296
0.00339748
0.00341373
0.00343169
0.00345131
0.00347258
0.00349544
0.00351987
0.00354582
0.00357325
0.00360211
0.00363235
0.00366391
0.00369675
0.00373082
0.00376604
0.00380235
0.00383971
0.00387804
0.00391727
0.00395734
0.00399818
0.00403972
0.00408188
0.00412459
0.00416778
0.00421138
0.0042553
0.00429947
0.00434381
0.00438824
0.0044327
0.00447709
0.00452134
0.00456538
0.00460912
0.00465249
0.00469541
0.00473781
0.0047796
0.00482073
0.00486111
0.00490067
0.00493934
0.00497706
0.00501375
0.00504935
0.0050838
0.00511703
0.00514899
0.00517962
0.00520887
0.00523668
0.00526299
0.00528778
0.00531098
0.00533256
0.00535249
0.00537071
0.00538721
0.00540195
0.00541491
0.00542606
0.00543538
0.00544285
0.00544847
0.00545222
0.00545409
0.0054541
0.00545223
0.00544848
0.00544287
0.00543539
0.00542608
0.00541493
0.00540198
0.00538725
0.00537075
0.00535253
0.00533261
0.00531103
0.00528783
0.00526306
0.00523674
0.00520894
0.0051797
0.00514908
0.00511712
0.00508389
0.00504945
0.00501385
0.00497717
0.00493946
0.00490079
0.00486123
0.00482086
0.00477974
0.00473795
0.00469556
0.00465265
0.00460929
0.00456555
0.00452152
0.00447728
0.0044329
0.00438845
0.00434402
0.00429969
0.00425553
0.00421161
0.00416803
0.00412485
0.00408214
0.00403999
0.00399846
0.00395763
0.00391757
0.00387835
0.00384003
0.00380269
0.00376638
0.00373117
0.00369712
0.0036643
0.00363274
0.00360252
0.00357368
0.00354627
0.00352034
0.00349592
0.00347308
0.00345183
0.00343223
0.0034143
0.00339807
0.00338357
0.00337083
0.00335986
0.0033507
0.00334334
0.00333781
0.00333412
0.00333226
0.00332777
0.00332964
0.00333337
0.00333895
0.00334636
0.00335559
0.00336663
0.00337944
0.00339401
0.00341032
0.00342834
0.00344803
0.00346937
0.00349231
0.00351682
0.00354286
0.00357038
0.00359934
0.00362968
0.00366136
0.00369432
0.0037285
0.00376384
0.00380028
0.00383777
0.00387623
0.0039156
0.00395581
0.00399679
0.00403847
0.00408078
0.00412364
0.00416698
0.00421073
0.0042548
0.00429912
0.00434362
0.00438821
0.00443282
0.00447737
0.00452177
0.00456596
0.00460986
0.00465338
0.00469645
0.00473899
0.00478094
0.0048222
0.00486272
0.00490242
0.00494123
0.00497908
0.0050159
0.00505162
0.00508619
0.00511954
0.00515161
0.00518235
0.0052117
0.0052396
0.00526601
0.00529088
0.00531417
0.00533582
0.00535582
0.00537411
0.00539066
0.00540545
0.00541845
0.00542964
0.00543899
0.0054465
0.00545214
0.0054559
0.00545778
0.00545778
0.0054559
0.00545214
0.00544651
0.00543901
0.00542966
0.00541848
0.00540548
0.0053907
0.00537414
0.00535586
0.00533587
0.00531422
0.00529094
0.00526607
0.00523967
0.00521177
0.00518243
0.0051517
0.00511963
0.00508628
0.00505172
0.005016
0.00497919
0.00494134
0.00490254
0.00486285
0.00482234
0.00478107
0.00473914
0.0046966
0.00465354
0.00461002
0.00456614
0.00452196
0.00447756
0.00443302
0.00438842
0.00434383
0.00429934
0.00425503
0.00421096
0.00416723
0.00412389
0.00408104
0.00403874
0.00399707
0.0039561
0.0039159
0.00387654
0.00383809
0.00380062
0.00376418
0.00372885
0.00369469
0.00366174
0.00363008
0.00359975
0.00357081
0.00354331
0.00351728
0.00349279
0.00346986
0.00344854
0.00342887
0.00341087
0.00339459
0.00338004
0.00336726
0.00335626
0.00334706
0.00333968
0.00333413
0.00333042
0.00332856
0.00332223
0.00332411
0.00332786
0.00333346
0.00334091
0.00335018
0.00336127
0.00337414
0.00338879
0.00340518
0.00342329
0.00344308
0.00346453
0.00348759
0.00351223
0.00353841
0.00356607
0.00359518
0.00362568
0.00365752
0.00369065
0.003725
0.00376053
0.00379716
0.00383485
0.00387351
0.00391308
0.0039535
0.00399469
0.00403659
0.00407912
0.00412221
0.00416577
0.00420975
0.00425405
0.00429861
0.00434334
0.00438816
0.004433
0.00447778
0.00452242
0.00456684
0.00461096
0.00465471
0.00469801
0.00474078
0.00478294
0.00482442
0.00486515
0.00490506
0.00494407
0.00498212
0.00501913
0.00505504
0.00508979
0.00512332
0.00515556
0.00518646
0.00521596
0.00524401
0.00527055
0.00529555
0.00531896
0.00534073
0.00536083
0.00537921
0.00539586
0.00541073
0.00542379
0.00543504
0.00544444
0.00545198
0.00545765
0.00546143
0.00546332
0.00546333
0.00546144
0.00545766
0.005452
0.00544446
0.00543506
0.00542382
0.00541076
0.00539589
0.00537925
0.00536087
0.00534078
0.00531901
0.00529561
0.00527062
0.00524407
0.00521603
0.00518653
0.00515564
0.0051234
0.00508989
0.00505514
0.00501923
0.00498223
0.00494419
0.00490518
0.00486528
0.00482456
0.00478308
0.00474092
0.00469816
0.00465487
0.00461113
0.00456702
0.0045226
0.00447797
0.0044332
0.00438837
0.00434355
0.00429883
0.00425428
0.00420999
0.00416602
0.00412246
0.00407938
0.00403686
0.00399498
0.00395379
0.00391338
0.00387382
0.00383517
0.0037975
0.00376087
0.00372536
0.00369102
0.0036579
0.00362607
0.00359559
0.0035665
0.00353885
0.00351269
0.00348806
0.00346502
0.00344359
0.00342381
0.00340573
0.00338936
0.00337473
0.00336188
0.00335082
0.00334158
0.00333416
0.00332858
0.00332486
0.00332299
0.00331482
0.00331671
0.00332048
0.00332611
0.00333361
0.00334294
0.00335409
0.00336706
0.0033818
0.0033983
0.00341654
0.00343647
0.00345806
0.00348128
0.00350609
0.00353245
0.0035603
0.00358961
0.00362032
0.00365238
0.00368574
0.00372033
0.00375611
0.00379299
0.00383094
0.00386987
0.00390971
0.00395041
0.00399189
0.00403408
0.00407691
0.00412029
0.00416416
0.00420844
0.00425305
0.00429792
0.00434296
0.00438809
0.00443325
0.00447834
0.00452329
0.00456802
0.00461245
0.0046565
0.0047001
0.00474316
0.00478562
0.00482739
0.00486841
0.00490859
0.00494787
0.00498618
0.00502345
0.00505962
0.00509461
0.00512837
0.00516083
0.00519194
0.00522165
0.00524989
0.00527663
0.0053018
0.00532537
0.00534729
0.00536753
0.00538604
0.0054028
0.00541778
0.00543094
0.00544226
0.00545173
0.00545932
0.00546503
0.00546884
0.00547074
0.00547074
0.00546884
0.00546504
0.00545934
0.00545175
0.00544228
0.00543096
0.00541781
0.00540284
0.00538608
0.00536757
0.00534734
0.00532542
0.00530186
0.00527669
0.00524996
0.00522172
0.00519202
0.00516091
0.00512845
0.0050947
0.00505971
0.00502356
0.00498629
0.00494799
0.00490871
0.00486853
0.00482752
0.00478576
0.00474331
0.00470025
0.00465666
0.00461261
0.00456819
0.00452347
0.00447853
0.00443344
0.0043883
0.00434317
0.00429814
0.00425328
0.00420868
0.00416441
0.00412055
0.00407717
0.00403435
0.00399218
0.0039507
0.00391001
0.00387018
0.00383126
0.00379333
0.00375645
0.00372069
0.00368611
0.00365276
0.00362072
0.00359002
0.00356072
0.00353288
0.00350654
0.00348175
0.00345854
0.00343697
0.00341705
0.00339884
0.00338236
0.00336763
0.00335469
0.00334356
0.00333425
0.00332678
0.00332117
0.00331741
0.00331553
0.00330551
0.00330741
0.00331121
0.00331689
0.00332444
0.00333385
0.0033451
0.00335817
0.00337304
0.00338968
0.00340807
0.00342817
0.00344995
0.00347337
0.00349839
0.00352497
0.00355307
0.00358263
0.0036136
0.00364594
0.00367959
0.00371448
0.00375056
0.00378777
0.00382604
0.0038653
0.00390549
0.00394654
0.00398838
0.00403094
0.00407413
0.00411789
0.00416214
0.0042068
0.0042518
0.00429705
0.00434248
0.00438801
0.00443355
0.00447904
0.00452437
0.00456949
0.00461431
0.00465874
0.00470272
0.00474615
0.00478898
0.00483111
0.00487248
0.00491301
0.00495264
0.00499128
0.00502887
0.00506535
0.00510064
0.0051347
0.00516744
0.00519883
0.00522879
0.00525728
0.00528424
0.00530963
0.00533341
0.00535552
0.00537593
0.00539461
0.00541151
0.00542662
0.00543989
0.00545131
0.00546086
0.00546852
0.00547428
0.00547812
0.00548004
0.00548004
0.00547813
0.00547429
0.00546854
0.00546088
0.00545134
0.00543992
0.00542665
0.00541155
0.00539465
0.00537598
0.00535557
0.00533346
0.00530969
0.00528431
0.00525734
0.00522886
0.0051989
0.00516752
0.00513478
0.00510074
0.00506545
0.00502898
0.00499139
0.00495275
0.00491314
0.00487261
0.00483124
0.00478912
0.0047463
0.00470287
0.0046589
0.00461447
0.00456967
0.00452456
0.00447922
0.00443375
0.00438821
0.00434269
0.00429727
0.00425203
0.00420704
0.00416238
0.00411814
0.00407439
0.00403121
0.00398866
0.00394683
0.00390579
0.00386561
0.00382636
0.0037881
0.0037509
0.00371483
0.00367995
0.00364632
0.003614
0.00358303
0.00355349
0.00352541
0.00349884
0.00347383
0.00345042
0.00342866
0.00340858
0.00339021
0.00337358
0.00335873
0.00334568
0.00333445
0.00332506
0.00331753
0.00331186
0.00330808
0.00330618
0.00329429
0.00329621
0.00330004
0.00330578
0.0033134
0.0033229
0.00333427
0.00334747
0.00336249
0.0033793
0.00339787
0.00341818
0.00344018
0.00346384
0.00348912
0.00351597
0.00354436
0.00357422
0.00360552
0.00363819
0.00367217
0.00370743
0.00374388
0.00378147
0.00382013
0.0038598
0.00390041
0.00394188
0.00398415
0.00402714
0.00407078
0.004115
0.0041597
0.00420483
0.00425029
0.00429601
0.00434191
0.00438791
0.00443392
0.00447987
0.00452568
0.00457126
0.00461654
0.00466144
0.00470587
0.00474975
0.00479302
0.00483559
0.00487739
0.00491834
0.00495837
0.00499742
0.0050354
0.00507225
0.00510791
0.00514232
0.0051754
0.00520711
0.00523738
0.00526617
0.00529341
0.00531907
0.00534309
0.00536543
0.00538605
0.00540492
0.005422
0.00543726
0.00545067
0.00546221
0.00547186
0.0054796
0.00548542
0.0054893
0.00549124
0.00549124
0.00548931
0.00548543
0.00547962
0.00547188
0.00546224
0.0054507
0.00543729
0.00542204
0.00540496
0.0053861
0.00536548
0.00534314
0.00531913
0.00529348
0.00526624
0.00523745
0.00520719
0.00517548
0.0051424
0.005108
0.00507235
0.0050355
0.00499752
0.00495849
0.00491846
0.00487752
0.00483572
0.00479316
0.0047499
0.00470602
0.0046616
0.00461671
0.00457144
0.00452586
0.00448006
0.00443412
0.00438811
0.00434212
0.00429623
0.00425051
0.00420506
0.00415995
0.00411525
0.00407105
0.00402742
0.00398443
0.00394217
0.00390071
0.00386011
0.00382045
0.0037818
0.00374422
0.00370778
0.00367254
0.00363856
0.0036059
0.00357462
0.00354477
0.0035164
0.00348956
0.00346429
0.00344065
0.00341866
0.00339837
0.00337981
0.00336301
0.00334801
0.00333483
0.00332348
0.00331399
0.00330638
0.00330066
0.00329684
0.00329492
0.00328113
0.00328307
0.00328695
0.00329275
0.00330046
0.00331007
0.00332157
0.00333492
0.00335012
0.00336713
0.00338593
0.00340647
0.00342873
0.00345268
0.00347826
0.00350543
0.00353415
0.00356437
0.00359604
0.0036291
0.00366349
0.00369917
0.00373605
0.00377409
0.00381322
0.00385336
0.00389445
0.00393642
0.0039792
0.0040227
0.00406686
0.0041116
0.00415685
0.00420251
0.00424852
0.00429478
0.00434123
0.00438778
0.00443435
0.00448085
0.00452721
0.00457334
0.00461916
0.00466459
0.00470956
0.00475397
0.00479776
0.00484084
0.00488314
0.00492458
0.00496509
0.0050046
0.00504304
0.00508034
0.00511643
0.00515124
0.00518473
0.00521682
0.00524745
0.00527658
0.00530415
0.00533012
0.00535443
0.00537704
0.00539791
0.005417
0.00543429
0.00544973
0.0054633
0.00547498
0.00548475
0.00549258
0.00549847
0.00550239
0.00550436
0.00550436
0.0055024
0.00549848
0.0054926
0.00548477
0.00547501
0.00546333
0.00544976
0.00543432
0.00541704
0.00539795
0.00537709
0.00535448
0.00533018
0.00530422
0.00527665
0.00524752
0.00521689
0.00518481
0.00515133
0.00511652
0.00508043
0.00504314
0.00500471
0.00496521
0.0049247
0.00488326
0.00484097
0.00479789
0.00475411
0.00470971
0.00466475
0.00461933
0.00457351
0.00452739
0.00448104
0.00443454
0.00438798
0.00434144
0.004295
0.00424874
0.00420274
0.00415709
0.00411186
0.00406712
0.00402297
0.00397948
0.00393671
0.00389475
0.00385367
0.00381353
0.00377442
0.00373639
0.00369951
0.00366385
0.00362947
0.00359642
0.00356477
0.00353456
0.00350585
0.00347869
0.00345312
0.00342919
0.00340694
0.00338641
0.00336763
0.00335063
0.00333545
0.00332211
0.00331063
0.00330103
0.00329333
0.00328754
0.00328367
0.00328173
0.00326602
0.00326798
0.00327191
0.00327779
0.0032856
0.00329534
0.00330699
0.00332052
0.00333592
0.00335316
0.00337221
0.00339303
0.00341559
0.00343986
0.00346578
0.00349332
0.00352243
0.00355306
0.00358516
0.00361866
0.00365353
0.00368968
0.00372707
0.00376562
0.00380527
0.00384596
0.00388761
0.00393015
0.0039735
0.0040176
0.00406236
0.00410771
0.00415357
0.00419985
0.00424648
0.00429338
0.00434046
0.00438764
0.00443484
0.00448198
0.00452896
0.00457572
0.00462217
0.00466822
0.00471379
0.00475881
0.00480319
0.00484686
0.00488973
0.00493174
0.0049728
0.00501285
0.00505181
0.00508962
0.0051262
0.00516149
0.00519543
0.00522796
0.00525901
0.00528854
0.00531648
0.0053428
0.00536744
0.00539036
0.00541152
0.00543087
0.00544839
0.00546405
0.0054778
0.00548964
0.00549954
0.00550748
0.00551345
0.00551743
0.00551942
0.00551942
0.00551743
0.00551346
0.0055075
0.00549956
0.00548967
0.00547783
0.00546408
0.00544843
0.00543091
0.00541156
0.00539041
0.00536749
0.00534286
0.00531655
0.0052886
0.00525908
0.00522803
0.00519551
0.00516158
0.00512629
0.00508971
0.00505192
0.00501296
0.00497292
0.00493186
0.00488986
0.00484699
0.00480333
0.00475895
0.00471394
0.00466837
0.00462233
0.00457589
0.00452914
0.00448216
0.00443503
0.00438784
0.00434067
0.00429359
0.0042467
0.00420008
0.00415381
0.00410796
0.00406262
0.00401787
0.00397378
0.00393044
0.00388791
0.00384627
0.00380559
0.00376595
0.0037274
0.00369003
0.00365388
0.00361903
0.00358554
0.00355345
0.00352284
0.00349374
0.00346621
0.0034403
0.00341604
0.00339349
0.00337268
0.00335365
0.00333642
0.00332103
0.00330751
0.00329587
0.00328615
0.00327834
0.00327247
0.00326855
0.00326659
0.00324892
0.00325091
0.0032549
0.00326086
0.00326879
0.00327868
0.0032905
0.00330424
0.00331987
0.00333736
0.0033567
0.00337783
0.00340073
0.00342536
0.00345168
0.00347963
0.00350918
0.00354027
0.00357285
0.00360687
0.00364225
0.00367895
0.0037169
0.00375604
0.00379629
0.0038376
0.00387988
0.00392306
0.00396707
0.00401183
0.00405727
0.00410331
0.00414986
0.00419684
0.00424418
0.00429179
0.00433958
0.00438748
0.00443539
0.00448324
0.00453094
0.00457841
0.00462556
0.00467231
0.00471857
0.00476427
0.00480933
0.00485366
0.00489719
0.00493983
0.00498152
0.00502218
0.00506173
0.00510011
0.00513725
0.00517308
0.00520753
0.00524055
0.00527208
0.00530205
0.00533043
0.00535714
0.00538216
0.00540543
0.0054269
0.00544655
0.00546434
0.00548023
0.0054942
0.00550622
0.00551627
0.00552433
0.00553038
0.00553442
0.00553644
0.00553645
0.00553443
0.00553039
0.00552434
0.00551629
0.00550624
0.00549423
0.00548026
0.00546438
0.00544659
0.00542695
0.00540547
0.00538221
0.0053572
0.00533049
0.00530212
0.00527215
0.00524062
0.00520761
0.00517316
0.00513734
0.00510021
0.00506183
0.00502229
0.00498163
0.00493995
0.00489731
0.00485379
0.00480947
0.00476442
0.00471872
0.00467246
0.00462572
0.00457858
0.00453112
0.00448343
0.00443558
0.00438767
0.00433978
0.004292
0.0042444
0.00419707
0.00415009
0.00410355
0.00405753
0.0040121
0.00396734
0.00392334
0.00388017
0.0038379
0.00379661
0.00375636
0.00371724
0.00367929
0.0036426
0.00360723
0.00357323
0.00354066
0.00350958
0.00348004
0.0034521
0.00342579
0.00340117
0.00337828
0.00335716
0.00333784
0.00332035
0.00330473
0.003291
0.00327919
0.00326932
0.00326139
0.00325544
0.00325146
0.00324946
0.00322981
0.00323184
0.00323589
0.00324195
0.00325001
0.00326006
0.00327207
0.00328603
0.00330192
0.00331971
0.00333936
0.00336084
0.00338413
0.00340916
0.00343592
0.00346434
0.00349438
0.00352598
0.0035591
0.00359368
0.00362966
0.00366697
0.00370555
0.00374533
0.00378626
0.00382825
0.00387123
0.00391513
0.00395987
0.00400538
0.00405158
0.00409838
0.00414571
0.00419347
0.0042416
0.00429
0.0043386
0.00438729
0.00443601
0.00448466
0.00453315
0.00458141
0.00462935
0.00467688
0.00472392
0.00477038
0.00481619
0.00486126
0.00490552
0.00494887
0.00499126
0.00503259
0.00507281
0.00511183
0.00514959
0.00518602
0.00522105
0.00525462
0.00528668
0.00531715
0.005346
0.00537317
0.0053986
0.00542226
0.0054441
0.00546407
0.00548216
0.00549831
0.00551252
0.00552474
0.00553495
0.00554315
0.00554931
0.00555341
0.00555547
0.00555547
0.00555342
0.00554932
0.00554316
0.00553498
0.00552476
0.00551255
0.00549835
0.00548219
0.00546411
0.00544414
0.00542231
0.00539865
0.00537322
0.00534606
0.00531722
0.00528674
0.00525469
0.00522113
0.0051861
0.00514968
0.00511193
0.00507291
0.0050327
0.00499137
0.00494899
0.00490564
0.00486139
0.00481633
0.00477052
0.00472406
0.00467703
0.00462951
0.00458158
0.00453333
0.00448484
0.00443619
0.00438749
0.0043388
0.00429021
0.00424182
0.0041937
0.00414594
0.00409863
0.00405183
0.00400565
0.00396015
0.00391541
0.00387152
0.00382855
0.00378657
0.00374565
0.00370587
0.0036673
0.00363
0.00359404
0.00355947
0.00352636
0.00349476
0.00346474
0.00343633
0.00340958
0.00338456
0.00336129
0.00333981
0.00332017
0.00330239
0.00328651
0.00327256
0.00326055
0.00325051
0.00324246
0.0032364
0.00323236
0.00323033
0.00320865
0.00321072
0.00321484
0.00322101
0.00322921
0.00323944
0.00325167
0.00326588
0.00328206
0.00330016
0.00332017
0.00334204
0.00336574
0.00339123
0.00341847
0.0034474
0.00347798
0.00351016
0.00354388
0.00357909
0.00361571
0.0036537
0.00369298
0.00373348
0.00377515
0.0038179
0.00386166
0.00390635
0.00395191
0.00399824
0.00404528
0.00409293
0.00414111
0.00418975
0.00423875
0.00428803
0.0043375
0.00438708
0.00443668
0.00448621
0.00453559
0.00458473
0.00463354
0.00468193
0.00472983
0.00477714
0.00482378
0.00486967
0.00491473
0.00495888
0.00500203
0.00504412
0.00508507
0.0051248
0.00516325
0.00520034
0.00523601
0.00527019
0.00530283
0.00533387
0.00536324
0.0053909
0.0054168
0.00544089
0.00546312
0.00548346
0.00550188
0.00551833
0.00553279
0.00554523
0.00555564
0.00556398
0.00557025
0.00557443
0.00557652
0.00557653
0.00557444
0.00557026
0.005564
0.00555566
0.00554526
0.00553282
0.00551836
0.00550191
0.0054835
0.00546316
0.00544093
0.00541685
0.00539095
0.0053633
0.00533393
0.0053029
0.00527026
0.00523609
0.00520042
0.00516334
0.0051249
0.00508517
0.00504423
0.00500215
0.00495899
0.00491485
0.0048698
0.00482391
0.00477728
0.00472997
0.00468208
0.0046337
0.0045849
0.00453577
0.00448639
0.00443687
0.00438727
0.0043377
0.00428824
0.00423896
0.00418997
0.00414134
0.00409317
0.00404553
0.0039985
0.00395218
0.00390663
0.00386194
0.00381819
0.00377545
0.0037338
0.0036933
0.00365403
0.00361605
0.00357944
0.00354424
0.00351053
0.00347837
0.00344779
0.00341887
0.00339165
0.00336617
0.00334247
0.00332061
0.00330061
0.00328252
0.00326635
0.00325214
0.00323992
0.0032297
0.0032215
0.00321534
0.00321122
0.00320915
0.00318541
0.00318752
0.00319172
0.00319801
0.00320637
0.00321679
0.00322926
0.00324375
0.00326024
0.0032787
0.00329909
0.00332139
0.00334555
0.00337154
0.0033993
0.0034288
0.00345998
0.00349279
0.00352716
0.00356305
0.00360039
0.00363912
0.00367916
0.00372046
0.00376294
0.00380652
0.00385114
0.00389671
0.00394316
0.0039904
0.00403835
0.00408693
0.00413606
0.00418565
0.00423561
0.00428585
0.0043363
0.00438685
0.00443742
0.00448792
0.00453827
0.00458837
0.00463814
0.00468748
0.00473631
0.00478455
0.00483211
0.0048789
0.00492484
0.00496986
0.00501386
0.00505678
0.00509853
0.00513904
0.00517824
0.00521606
0.00525244
0.00528729
0.00532057
0.00535222
0.00538217
0.00541037
0.00543678
0.00546134
0.00548401
0.00550476
0.00552353
0.00554031
0.00555505
0.00556774
0.00557835
0.00558685
0.00559325
0.00559751
0.00559964
0.00559965
0.00559752
0.00559326
0.00558687
0.00557837
0.00556776
0.00555508
0.00554034
0.00552357
0.0055048
0.00548406
0.00546139
0.00543683
0.00541043
0.00538222
0.00535228
0.00532064
0.00528736
0.00525251
0.00521615
0.00517833
0.00513914
0.00509863
0.00505688
0.00501397
0.00496997
0.00492497
0.00487903
0.00483224
0.00478469
0.00473646
0.00468763
0.00463829
0.00458853
0.00453844
0.0044881
0.0044376
0.00438704
0.00433649
0.00428606
0.00423582
0.00418587
0.00413629
0.00408717
0.0040386
0.00399065
0.00394342
0.00389699
0.00385142
0.00380682
0.00376324
0.00372077
0.00367948
0.00363944
0.00360073
0.0035634
0.00352752
0.00349315
0.00346035
0.00342919
0.0033997
0.00337194
0.00334597
0.00332181
0.00329952
0.00327914
0.00326069
0.0032442
0.00322972
0.00321726
0.00320684
0.00319848
0.0031922
0.003188
0.0031859
0.00316005
0.0031622
0.00316648
0.0031729
0.00318144
0.00319208
0.00320481
0.0032196
0.00323643
0.00325527
0.00327609
0.00329885
0.00332352
0.00335005
0.00337839
0.0034085
0.00344033
0.00347382
0.00350891
0.00354555
0.00358367
0.00362321
0.00366409
0.00370625
0.00374962
0.00379411
0.00383966
0.00388618
0.0039336
0.00398183
0.00403079
0.00408039
0.00413054
0.00418117
0.00423218
0.00428347
0.00433497
0.00438658
0.00443822
0.00448978
0.00454118
0.00459234
0.00464315
0.00469352
0.00474338
0.00479264
0.00484119
0.00488897
0.00493588
0.00498184
0.00502676
0.00507058
0.00511321
0.00515458
0.00519461
0.00523322
0.00527036
0.00530595
0.00533993
0.00537224
0.00540282
0.00543162
0.00545858
0.00548366
0.00550681
0.00552799
0.00554716
0.00556429
0.00557934
0.0055923
0.00560313
0.00561182
0.00561834
0.0056227
0.00562487
0.00562488
0.0056227
0.00561835
0.00561183
0.00560315
0.00559232
0.00557937
0.00556432
0.0055472
0.00552803
0.00550685
0.0054837
0.00545863
0.00543167
0.00540288
0.0053723
0.00533999
0.00530602
0.00527043
0.0052333
0.00519469
0.00515467
0.00511331
0.00507069
0.00502688
0.00498195
0.004936
0.00488909
0.00484132
0.00479277
0.00474353
0.00469368
0.0046433
0.0045925
0.00454135
0.00448996
0.0044384
0.00438678
0.00433517
0.00428368
0.00423239
0.00418139
0.00413077
0.00408062
0.00403103
0.00398208
0.00393386
0.00388645
0.00383994
0.0037944
0.00374991
0.00370655
0.0036644
0.00362353
0.003584
0.00354589
0.00350926
0.00347418
0.0034407
0.00340888
0.00337878
0.00335044
0.00332392
0.00329926
0.00327651
0.0032557
0.00323686
0.00322004
0.00320525
0.00319253
0.0031819
0.00317336
0.00316695
0.00316266
0.00316052
0.00313251
0.00313471
0.00313909
0.00314565
0.00315438
0.00316525
0.00317826
0.00319338
0.00321058
0.00322984
0.00325112
0.00327439
0.0032996
0.00332671
0.00335569
0.00338647
0.003419
0.00345323
0.0034891
0.00352655
0.00356552
0.00360593
0.00364772
0.00369082
0.00373515
0.00378063
0.0038272
0.00387475
0.00392322
0.00397253
0.00402257
0.00407327
0.00412455
0.0041763
0.00422844
0.00428088
0.00433353
0.00438629
0.00443908
0.00449179
0.00454434
0.00459663
0.00464858
0.00470008
0.00475105
0.0048014
0.00485105
0.00489989
0.00494784
0.00499483
0.00504076
0.00508556
0.00512915
0.00517144
0.00521236
0.00525184
0.0052898
0.00532619
0.00536093
0.00539396
0.00542523
0.00545467
0.00548224
0.00550788
0.00553155
0.0055532
0.0055728
0.00559031
0.00560571
0.00561895
0.00563002
0.0056389
0.00564558
0.00565003
0.00565225
0.00565226
0.00565004
0.00564559
0.00563892
0.00563004
0.00561897
0.00560573
0.00559035
0.00557284
0.00555324
0.00553159
0.00550792
0.00548229
0.00545472
0.00542528
0.00539402
0.00536099
0.00532626
0.00528988
0.00525192
0.00521244
0.00517153
0.00512924
0.00508567
0.00504087
0.00499495
0.00494796
0.00490001
0.00485118
0.00480154
0.0047512
0.00470023
0.00464873
0.0045968
0.00454451
0.00449197
0.00443926
0.00438648
0.00433373
0.00428109
0.00422865
0.00417652
0.00412477
0.00407351
0.00402281
0.00397278
0.00392348
0.00387502
0.00382747
0.00378092
0.00373544
0.00369112
0.00364803
0.00360625
0.00356584
0.00352689
0.00348945
0.00345358
0.00341936
0.00338683
0.00335606
0.0033271
0.00329999
0.00327479
0.00325153
0.00323026
0.00321101
0.00319381
0.0031787
0.00316569
0.00315482
0.0031461
0.00313954
0.00313516
0.00313297
0.00310276
0.00310501
0.0031095
0.00311621
0.00312514
0.00313627
0.00314958
0.00316505
0.00318265
0.00320236
0.00322414
0.00324795
0.00327375
0.0033015
0.00333115
0.00336265
0.00339595
0.00343098
0.0034677
0.00350603
0.0035459
0.00358727
0.00363004
0.00367414
0.00371951
0.00376607
0.00381372
0.0038624
0.00391201
0.00396247
0.00401369
0.00406559
0.00411806
0.00417104
0.0042244
0.00427808
0.00433197
0.00438597
0.00444
0.00449396
0.00454774
0.00460127
0.00465444
0.00470716
0.00475933
0.00481087
0.00486168
0.00491168
0.00496077
0.00500886
0.00505588
0.00510174
0.00514635
0.00518964
0.00523153
0.00527194
0.00531081
0.00534805
0.00538361
0.00541743
0.00544944
0.00547957
0.00550779
0.00553404
0.00555827
0.00558044
0.0056005
0.00561843
0.00563418
0.00564774
0.00565908
0.00566817
0.005675
0.00567955
0.00568183
0.00568183
0.00567956
0.00567501
0.00566818
0.00565909
0.00564776
0.00563421
0.00561846
0.00560054
0.00558047
0.00555831
0.00553409
0.00550784
0.00547963
0.00544949
0.00541749
0.00538368
0.00534812
0.00531088
0.00527202
0.00523162
0.00518973
0.00514645
0.00510184
0.00505599
0.00500898
0.00496089
0.0049118
0.00486181
0.00481101
0.00475947
0.00470731
0.00465459
0.00460143
0.00454791
0.00449413
0.00444018
0.00438616
0.00433216
0.00427828
0.00422461
0.00417125
0.00411829
0.00406582
0.00401393
0.00396271
0.00391226
0.00386266
0.00381399
0.00376634
0.0037198
0.00367444
0.00363034
0.00358758
0.00354622
0.00350635
0.00346803
0.00343133
0.0033963
0.00336302
0.00333152
0.00330188
0.00327414
0.00324834
0.00322454
0.00320277
0.00318307
0.00316547
0.00315
0.00313669
0.00312557
0.00311664
0.00310993
0.00310545
0.00310321
0.00307074
0.00307305
0.00307764
0.00308452
0.00309367
0.00310507
0.00311871
0.00313456
0.0031526
0.00317279
0.0031951
0.0032195
0.00324593
0.00327437
0.00330475
0.00333702
0.00337114
0.00340703
0.00344465
0.00348393
0.00352479
0.00356717
0.00361099
0.00365619
0.00370268
0.00375038
0.00379921
0.00384909
0.00389993
0.00395163
0.00400412
0.0040573
0.00411108
0.00416536
0.00422005
0.00427505
0.00433027
0.00438562
0.00444098
0.00449628
0.0045514
0.00460625
0.00466074
0.00471476
0.00476823
0.00482105
0.00487312
0.00492436
0.00497467
0.00502396
0.00507215
0.00511914
0.00516486
0.00520923
0.00525216
0.00529357
0.0053334
0.00537158
0.00540802
0.00544268
0.00547548
0.00550637
0.00553529
0.00556219
0.00558702
0.00560974
0.0056303
0.00564868
0.00566483
0.00567872
0.00569034
0.00569965
0.00570665
0.00571132
0.00571366
0.00571366
0.00571133
0.00570667
0.00569967
0.00569036
0.00567874
0.00566485
0.00564871
0.00563034
0.00560978
0.00558706
0.00556224
0.00553534
0.00550642
0.00547554
0.00544274
0.00540809
0.00537165
0.00533348
0.00529365
0.00525224
0.00520932
0.00516496
0.00511924
0.00507225
0.00502407
0.00497478
0.00492448
0.00487325
0.00482118
0.00476837
0.00471491
0.00466089
0.00460641
0.00455156
0.00449645
0.00444116
0.0043858
0.00433047
0.00427525
0.00422025
0.00416557
0.0041113
0.00405753
0.00400436
0.00395188
0.00390018
0.00384935
0.00379948
0.00375066
0.00370296
0.00365648
0.00361129
0.00356747
0.0035251
0.00348425
0.00344498
0.00340737
0.00337148
0.00333738
0.00330511
0.00327474
0.00324631
0.00321988
0.00319549
0.00317319
0.003153
0.00313497
0.00311912
0.00310549
0.00309409
0.00308494
0.00307807
0.00307347
0.00307117
0.0030364
0.00303876
0.00304347
0.00305053
0.00305991
0.0030716
0.00308559
0.00310185
0.00312035
0.00314106
0.00316395
0.00318898
0.00321609
0.00324526
0.00327642
0.00330953
0.00334452
0.00338134
0.00341993
0.00346022
0.00350213
0.00354561
0.00359057
0.00363693
0.00368462
0.00373355
0.00378365
0.00383481
0.00388696
0.00394001
0.00399385
0.00404841
0.00410358
0.00415926
0.00421537
0.0042718
0.00432845
0.00438523
0.00444203
0.00449876
0.00455531
0.00461158
0.00466748
0.00472291
0.00477777
0.00483196
0.00488539
0.00493795
0.00498957
0.00504014
0.00508958
0.0051378
0.00518471
0.00523023
0.00527427
0.00531677
0.00535763
0.0053968
0.0054342
0.00546975
0.00550341
0.0055351
0.00556478
0.00559238
0.00561786
0.00564117
0.00566227
0.00568112
0.00569769
0.00571194
0.00572386
0.00573342
0.0057406
0.0057454
0.00574779
0.00574779
0.0057454
0.00574061
0.00573344
0.00572388
0.00571197
0.00569771
0.00568115
0.0056623
0.0056412
0.0056179
0.00559242
0.00556482
0.00553515
0.00550346
0.00546981
0.00543426
0.00539687
0.00535771
0.00531685
0.00527436
0.00523031
0.0051848
0.0051379
0.00508968
0.00504025
0.00498968
0.00493807
0.00488551
0.00483209
0.00477791
0.00472306
0.00466763
0.00461174
0.00455547
0.00449892
0.0044422
0.00438541
0.00432864
0.00427199
0.00421557
0.00415947
0.00410379
0.00404863
0.00399409
0.00394025
0.00388721