/*--------------------------------*- C++ -*----------------------------------*\
| =========                 |                                                 |
| \\      /  F ield         | OpenFOAM: The Open Source CFD Toolbox           |
|  \\    /   O peration     | Version:  2106                                  |
|   \\  /    A nd           | Website:  www.openfoam.com                      |
|    \\/     M anipulation  |                                                 |
\*---------------------------------------------------------------------------*/
FoamFile
{
    version     2.0;
    format      ascii;
    arch        "LSB;label=32;scalar=64";
    class       surfaceScalarField;
    location    "3.5";
    object      phi;
}
// * * * * * * * * * * * * * * * * * * * * * * * * * * * * * * * * * * * * * //

dimensions      [0 3 -1 0 0 0 0];

oriented        oriented;

internalField   nonuniform List<scalar> 
179250
(
-7.00922e-07
7.00875e-07
-1.40012e-06
6.99193e-07
-2.09654e-06
6.96416e-07
-2.78906e-06
6.92519e-07
-3.47654e-06
6.87479e-07
-4.15782e-06
6.81285e-07
-4.83176e-06
6.73936e-07
-5.49719e-06
6.65434e-07
-6.15298e-06
6.55788e-07
-6.79799e-06
6.4501e-07
-7.4311e-06
6.33115e-07
-8.05122e-06
6.2012e-07
-8.65727e-06
6.06047e-07
-9.24819e-06
5.90917e-07
-9.82295e-06
5.74757e-07
-1.03805e-05
5.57593e-07
-1.092e-05
5.39454e-07
-1.14404e-05
5.20371e-07
-1.19407e-05
5.00377e-07
-1.24202e-05
4.79506e-07
-1.2878e-05
4.57794e-07
-1.33133e-05
4.35279e-07
-1.37253e-05
4.11999e-07
-1.41133e-05
3.87995e-07
-1.44766e-05
3.63308e-07
-1.48146e-05
3.37981e-07
-1.51267e-05
3.12058e-07
-1.54122e-05
2.85584e-07
-1.56708e-05
2.58605e-07
-1.5902e-05
2.31168e-07
-1.61053e-05
2.0332e-07
-1.62804e-05
1.75111e-07
-1.6427e-05
1.46589e-07
-1.65448e-05
1.17805e-07
-1.66337e-05
8.88082e-08
-1.66933e-05
5.96495e-08
-1.67237e-05
3.03801e-08
-1.67247e-05
1.05128e-09
-1.66964e-05
-2.82856e-08
-1.66389e-05
-5.75791e-08
-1.65521e-05
-8.67777e-08
-1.64363e-05
-1.1583e-07
-1.62916e-05
-1.44685e-07
-1.61183e-05
-1.73292e-07
-1.59167e-05
-2.01601e-07
-1.56871e-05
-2.29561e-07
-1.543e-05
-2.57124e-07
-1.51458e-05
-2.8424e-07
-1.48349e-05
-3.10861e-07
-1.4498e-05
-3.36942e-07
-1.41355e-05
-3.62434e-07
-1.37482e-05
-3.87294e-07
-1.33367e-05
-4.11477e-07
-1.29018e-05
-4.3494e-07
-1.24442e-05
-4.57642e-07
-1.19646e-05
-4.79542e-07
-1.1464e-05
-5.00601e-07
-1.09432e-05
-5.20782e-07
-1.04032e-05
-5.4005e-07
-9.84482e-06
-5.58368e-07
-9.26912e-06
-5.75706e-07
-8.67708e-06
-5.92032e-07
-8.06977e-06
-6.07317e-07
-7.44823e-06
-6.21533e-07
-6.81358e-06
-6.34656e-07
-6.16691e-06
-6.46662e-07
-5.50939e-06
-6.57529e-07
-4.84215e-06
-6.67238e-07
-4.16637e-06
-6.75772e-07
-3.48326e-06
-6.83116e-07
-2.794e-06
-6.89255e-07
-2.09982e-06
-6.9418e-07
-1.40194e-06
-6.97882e-07
-7.01589e-07
-7.00353e-07
-3.97527e-13
-7.01589e-07
7.01588e-07
-7.01589e-07
1.40194e-06
-7.00353e-07
2.09982e-06
-6.97882e-07
2.794e-06
-6.9418e-07
3.48326e-06
-6.89255e-07
4.16637e-06
-6.83116e-07
4.84215e-06
-6.75772e-07
5.50938e-06
-6.67238e-07
6.16691e-06
-6.57529e-07
6.81358e-06
-6.46662e-07
7.44823e-06
-6.34656e-07
8.06977e-06
-6.21533e-07
8.67708e-06
-6.07317e-07
9.26911e-06
-5.92032e-07
9.84482e-06
-5.75706e-07
1.04032e-05
-5.58368e-07
1.09432e-05
-5.4005e-07
1.1464e-05
-5.20782e-07
1.19646e-05
-5.00601e-07
1.24442e-05
-4.79542e-07
1.29018e-05
-4.57642e-07
1.33367e-05
-4.3494e-07
1.37482e-05
-4.11477e-07
1.41355e-05
-3.87294e-07
1.4498e-05
-3.62434e-07
1.48349e-05
-3.36942e-07
1.51458e-05
-3.10861e-07
1.543e-05
-2.8424e-07
1.56871e-05
-2.57124e-07
1.59167e-05
-2.29561e-07
1.61183e-05
-2.01601e-07
1.62916e-05
-1.73292e-07
1.64363e-05
-1.44685e-07
1.65521e-05
-1.1583e-07
1.66389e-05
-8.67777e-08
1.66964e-05
-5.75791e-08
1.67247e-05
-2.82856e-08
1.67237e-05
1.0513e-09
1.66933e-05
3.03801e-08
1.66336e-05
5.96495e-08
1.65448e-05
8.88082e-08
1.6427e-05
1.17805e-07
1.62804e-05
1.4659e-07
1.61053e-05
1.75111e-07
1.5902e-05
2.0332e-07
1.56708e-05
2.31168e-07
1.54122e-05
2.58605e-07
1.51267e-05
2.85584e-07
1.48146e-05
3.12058e-07
1.44766e-05
3.37981e-07
1.41133e-05
3.63308e-07
1.37253e-05
3.87995e-07
1.33133e-05
4.11999e-07
1.2878e-05
4.35279e-07
1.24202e-05
4.57794e-07
1.19407e-05
4.79506e-07
1.14404e-05
5.00377e-07
1.092e-05
5.20371e-07
1.03805e-05
5.39454e-07
9.82294e-06
5.57593e-07
9.24819e-06
5.74757e-07
8.65727e-06
5.90918e-07
8.05122e-06
6.06047e-07
7.4311e-06
6.20121e-07
6.79798e-06
6.33115e-07
6.15297e-06
6.45011e-07
5.49719e-06
6.55789e-07
4.83175e-06
6.65435e-07
4.15781e-06
6.73937e-07
3.47653e-06
6.81287e-07
2.78905e-06
6.87481e-07
2.09652e-06
6.92523e-07
1.4001e-06
6.96421e-07
7.00899e-07
6.99203e-07
7.00899e-07
-7.02603e-07
1.40348e-06
-1.4035e-06
1.40008e-06
-2.10159e-06
1.3945e-06
-2.79576e-06
1.38669e-06
-3.48487e-06
1.37659e-06
-4.16777e-06
1.36419e-06
-4.84331e-06
1.34947e-06
-5.51033e-06
1.33245e-06
-6.16768e-06
1.31314e-06
-6.81423e-06
1.29156e-06
-7.44885e-06
1.26774e-06
-8.07045e-06
1.24172e-06
-8.67794e-06
1.21354e-06
-9.27027e-06
1.18325e-06
-9.8464e-06
1.15089e-06
-1.04053e-05
1.11652e-06
-1.09461e-05
1.0802e-06
-1.14677e-05
1.04199e-06
-1.19693e-05
1.00195e-06
-1.24499e-05
9.60162e-07
-1.29088e-05
9.16687e-07
-1.33451e-05
8.71603e-07
-1.37581e-05
8.24988e-07
-1.41471e-05
7.76922e-07
-1.45112e-05
7.2749e-07
-1.485e-05
6.76776e-07
-1.51628e-05
6.24868e-07
-1.54491e-05
5.71857e-07
-1.57083e-05
5.17835e-07
-1.59401e-05
4.62895e-07
-1.61439e-05
4.07134e-07
-1.63194e-05
3.50649e-07
-1.64664e-05
2.93537e-07
-1.65845e-05
2.359e-07
-1.66735e-05
1.77836e-07
-1.67333e-05
1.19449e-07
-1.67638e-05
6.08405e-08
-1.67648e-05
2.11251e-09
-1.67365e-05
-5.66317e-08
-1.66788e-05
-1.15289e-07
-1.65918e-05
-1.73756e-07
-1.64757e-05
-2.31931e-07
-1.63307e-05
-2.89711e-07
-1.6157e-05
-3.46994e-07
-1.59549e-05
-4.03679e-07
-1.57248e-05
-4.59667e-07
-1.5467e-05
-5.14858e-07
-1.51821e-05
-5.69156e-07
-1.48705e-05
-6.22463e-07
-1.45328e-05
-6.74687e-07
-1.41695e-05
-7.25734e-07
-1.37813e-05
-7.75513e-07
-1.33688e-05
-8.23938e-07
-1.29328e-05
-8.70921e-07
-1.24741e-05
-9.16379e-07
-1.19934e-05
-9.60233e-07
-1.14916e-05
-1.0024e-06
-1.09696e-05
-1.04281e-06
-1.04282e-05
-1.08139e-06
-9.8685e-06
-1.11808e-06
-9.29141e-06
-1.15279e-06
-8.69796e-06
-1.18549e-06
-8.08918e-06
-1.21609e-06
-7.46615e-06
-1.24456e-06
-6.82997e-06
-1.27084e-06
-6.18175e-06
-1.29488e-06
-5.52264e-06
-1.31664e-06
-4.8538e-06
-1.33608e-06
-4.1764e-06
-1.35317e-06
-3.49164e-06
-1.36788e-06
-2.80073e-06
-1.38017e-06
-2.10488e-06
-1.39003e-06
-1.40532e-06
-1.39744e-06
-7.03279e-07
-1.40239e-06
-4.07383e-13
-1.40487e-06
7.03278e-07
-1.40487e-06
1.40532e-06
-1.40239e-06
2.10488e-06
-1.39744e-06
2.80073e-06
-1.39003e-06
3.49164e-06
-1.38017e-06
4.1764e-06
-1.36788e-06
4.8538e-06
-1.35317e-06
5.52264e-06
-1.33608e-06
6.18175e-06
-1.31664e-06
6.82997e-06
-1.29488e-06
7.46615e-06
-1.27084e-06
8.08918e-06
-1.24456e-06
8.69796e-06
-1.21609e-06
9.29141e-06
-1.18549e-06
9.8685e-06
-1.15279e-06
1.04282e-05
-1.11808e-06
1.09696e-05
-1.08139e-06
1.14916e-05
-1.04281e-06
1.19934e-05
-1.0024e-06
1.24741e-05
-9.60233e-07
1.29328e-05
-9.16379e-07
1.33688e-05
-8.70921e-07
1.37813e-05
-8.23938e-07
1.41695e-05
-7.75513e-07
1.45328e-05
-7.25734e-07
1.48705e-05
-6.74687e-07
1.51821e-05
-6.22463e-07
1.5467e-05
-5.69156e-07
1.57248e-05
-5.14858e-07
1.59549e-05
-4.59667e-07
1.6157e-05
-4.03679e-07
1.63307e-05
-3.46994e-07
1.64757e-05
-2.89711e-07
1.65918e-05
-2.31931e-07
1.66788e-05
-1.73756e-07
1.67365e-05
-1.15289e-07
1.67648e-05
-5.66316e-08
1.67638e-05
2.11256e-09
1.67333e-05
6.08405e-08
1.66735e-05
1.19449e-07
1.65845e-05
1.77836e-07
1.64664e-05
2.359e-07
1.63194e-05
2.93537e-07
1.61439e-05
3.50649e-07
1.59401e-05
4.07134e-07
1.57083e-05
4.62895e-07
1.54491e-05
5.17835e-07
1.51628e-05
5.71857e-07
1.485e-05
6.24868e-07
1.45112e-05
6.76776e-07
1.41471e-05
7.2749e-07
1.37581e-05
7.76923e-07
1.33451e-05
8.24988e-07
1.29088e-05
8.71603e-07
1.24499e-05
9.16687e-07
1.19693e-05
9.60162e-07
1.14677e-05
1.00195e-06
1.09461e-05
1.04199e-06
1.04053e-05
1.0802e-06
9.8464e-06
1.11652e-06
9.27027e-06
1.15089e-06
8.67794e-06
1.18325e-06
8.07045e-06
1.21354e-06
7.44885e-06
1.24172e-06
6.81422e-06
1.26774e-06
6.16767e-06
1.29156e-06
5.51032e-06
1.31314e-06
4.8433e-06
1.33245e-06
4.16777e-06
1.34948e-06
3.48486e-06
1.36419e-06
2.79575e-06
1.3766e-06
2.10157e-06
1.38669e-06
1.40349e-06
1.39451e-06
7.02593e-07
1.4001e-06
1.40349e-06
-7.05381e-07
2.10885e-06
-1.40907e-06
2.10377e-06
-2.10994e-06
2.09537e-06
-2.80687e-06
2.08362e-06
-3.49872e-06
2.06844e-06
-4.18434e-06
2.04981e-06
-4.86256e-06
2.02769e-06
-5.53223e-06
2.00212e-06
-6.19218e-06
1.9731e-06
-6.8413e-06
1.94067e-06
-7.47845e-06
1.90489e-06
-8.10252e-06
1.86579e-06
-8.71243e-06
1.82345e-06
-9.30711e-06
1.77793e-06
-9.88553e-06
1.72931e-06
-1.04467e-05
1.67767e-06
-1.09896e-05
1.6231e-06
-1.15133e-05
1.56568e-06
-1.20169e-05
1.50553e-06
-1.24994e-05
1.44273e-06
-1.29602e-05
1.37741e-06
-1.33982e-05
1.30967e-06
-1.38129e-05
1.23963e-06
-1.42033e-05
1.16741e-06
-1.4569e-05
1.09313e-06
-1.49091e-05
1.01693e-06
-1.52232e-05
9.38934e-07
-1.55106e-05
8.59281e-07
-1.57709e-05
7.78108e-07
-1.60036e-05
6.95557e-07
-1.62082e-05
6.11771e-07
-1.63844e-05
5.26897e-07
-1.6532e-05
4.41083e-07
-1.66506e-05
3.54477e-07
-1.674e-05
2.67232e-07
-1.68e-05
1.795e-07
-1.68306e-05
9.14351e-08
-1.68317e-05
3.1907e-09
-1.68032e-05
-8.50781e-08
-1.67453e-05
-1.73216e-07
-1.6658e-05
-2.6107e-07
-1.65414e-05
-3.48483e-07
-1.63959e-05
-4.35303e-07
-1.62215e-05
-5.21377e-07
-1.60186e-05
-6.06553e-07
-1.57876e-05
-6.9068e-07
-1.55288e-05
-7.73612e-07
-1.52428e-05
-8.552e-07
-1.493e-05
-9.353e-07
-1.45909e-05
-1.01377e-06
-1.42261e-05
-1.09048e-06
-1.38364e-05
-1.16528e-06
-1.34223e-05
-1.23804e-06
-1.29845e-05
-1.30864e-06
-1.2524e-05
-1.37694e-06
-1.20414e-05
-1.44284e-06
-1.15376e-05
-1.50621e-06
-1.10135e-05
-1.56693e-06
-1.04699e-05
-1.6249e-06
-9.908e-06
-1.68002e-06
-9.32861e-06
-1.73219e-06
-8.73278e-06
-1.78131e-06
-8.12157e-06
-1.8273e-06
-7.49605e-06
-1.87008e-06
-6.85733e-06
-1.90957e-06
-6.20651e-06
-1.94569e-06
-5.54476e-06
-1.97839e-06
-4.87324e-06
-2.0076e-06
-4.19313e-06
-2.03328e-06
-3.50563e-06
-2.05538e-06
-2.81195e-06
-2.07385e-06
-2.11331e-06
-2.08867e-06
-1.41095e-06
-2.09981e-06
-7.06096e-07
-2.10724e-06
-4.21494e-13
-2.11096e-06
7.06095e-07
-2.11096e-06
1.41095e-06
-2.10724e-06
2.11331e-06
-2.09981e-06
2.81195e-06
-2.08867e-06
3.50563e-06
-2.07385e-06
4.19313e-06
-2.05538e-06
4.87324e-06
-2.03328e-06
5.54476e-06
-2.0076e-06
6.20651e-06
-1.97839e-06
6.85732e-06
-1.94569e-06
7.49605e-06
-1.90957e-06
8.12157e-06
-1.87008e-06
8.73278e-06
-1.8273e-06
9.32861e-06
-1.78131e-06
9.908e-06
-1.73219e-06
1.04699e-05
-1.68002e-06
1.10135e-05
-1.6249e-06
1.15376e-05
-1.56693e-06
1.20414e-05
-1.50621e-06
1.2524e-05
-1.44284e-06
1.29845e-05
-1.37694e-06
1.34223e-05
-1.30864e-06
1.38364e-05
-1.23804e-06
1.42261e-05
-1.16528e-06
1.45909e-05
-1.09048e-06
1.493e-05
-1.01377e-06
1.52428e-05
-9.353e-07
1.55288e-05
-8.552e-07
1.57876e-05
-7.73611e-07
1.60186e-05
-6.9068e-07
1.62215e-05
-6.06553e-07
1.63959e-05
-5.21377e-07
1.65414e-05
-4.35303e-07
1.6658e-05
-3.48483e-07
1.67453e-05
-2.61069e-07
1.68032e-05
-1.73216e-07
1.68317e-05
-8.50781e-08
1.68306e-05
3.19077e-09
1.68e-05
9.14351e-08
1.674e-05
1.795e-07
1.66506e-05
2.67232e-07
1.6532e-05
3.54477e-07
1.63844e-05
4.41083e-07
1.62082e-05
5.26897e-07
1.60036e-05
6.11772e-07
1.57709e-05
6.95557e-07
1.55106e-05
7.78108e-07
1.52232e-05
8.59281e-07
1.49091e-05
9.38934e-07
1.4569e-05
1.01693e-06
1.42033e-05
1.09313e-06
1.38129e-05
1.16741e-06
1.33982e-05
1.23963e-06
1.29601e-05
1.30967e-06
1.24994e-05
1.37741e-06
1.20169e-05
1.44274e-06
1.15133e-05
1.50553e-06
1.09896e-05
1.56568e-06
1.04467e-05
1.6231e-06
9.88553e-06
1.67767e-06
9.30711e-06
1.72931e-06
8.71242e-06
1.77793e-06
8.10251e-06
1.82345e-06
7.47844e-06
1.86579e-06
6.8413e-06
1.90489e-06
6.19218e-06
1.94067e-06
5.53222e-06
1.9731e-06
4.86255e-06
2.00212e-06
4.18433e-06
2.0277e-06
3.49872e-06
2.04981e-06
2.80686e-06
2.06845e-06
2.10993e-06
2.08363e-06
1.40906e-06
2.09538e-06
7.05376e-07
2.10378e-06
2.10887e-06
-7.09294e-07
2.81815e-06
-1.4169e-06
2.81137e-06
-2.12167e-06
2.80015e-06
-2.82249e-06
2.78444e-06
-3.51819e-06
2.76415e-06
-4.20762e-06
2.73924e-06
-4.88962e-06
2.70969e-06
-5.56301e-06
2.67551e-06
-6.22664e-06
2.63673e-06
-6.87937e-06
2.5934e-06
-7.52007e-06
2.54558e-06
-8.14761e-06
2.49334e-06
-8.76092e-06
2.43676e-06
-9.35892e-06
2.37593e-06
-9.94057e-06
2.31096e-06
-1.05049e-05
2.24195e-06
-1.10508e-05
2.16903e-06
-1.15774e-05
2.0923e-06
-1.20838e-05
2.01192e-06
-1.25691e-05
1.92801e-06
-1.30324e-05
1.84071e-06
-1.34729e-05
1.75019e-06
-1.38898e-05
1.65659e-06
-1.42825e-05
1.56008e-06
-1.46502e-05
1.46082e-06
-1.49923e-05
1.35899e-06
-1.53081e-05
1.25477e-06
-1.55971e-05
1.14832e-06
-1.58589e-05
1.03985e-06
-1.60929e-05
9.29533e-07
-1.62987e-05
8.17568e-07
-1.64759e-05
7.04147e-07
-1.66243e-05
5.89469e-07
-1.67436e-05
4.73735e-07
-1.68335e-05
3.57145e-07
-1.68939e-05
2.39905e-07
-1.69247e-05
1.22219e-07
-1.69258e-05
4.29329e-09
-1.68972e-05
-1.13665e-07
-1.68389e-05
-2.3145e-07
-1.67512e-05
-3.48853e-07
-1.6634e-05
-4.65669e-07
-1.64876e-05
-5.81692e-07
-1.63122e-05
-6.96718e-07
-1.61082e-05
-8.10545e-07
-1.5876e-05
-9.2297e-07
-1.56158e-05
-1.0338e-06
-1.53281e-05
-1.14283e-06
-1.50136e-05
-1.24987e-06
-1.46726e-05
-1.35474e-06
-1.43058e-05
-1.45725e-06
-1.39139e-05
-1.55721e-06
-1.34975e-05
-1.65445e-06
-1.30573e-05
-1.7488e-06
-1.25942e-05
-1.84008e-06
-1.21089e-05
-1.92814e-06
-1.16023e-05
-2.01282e-06
-1.10752e-05
-2.09397e-06
-1.05287e-05
-2.17145e-06
-9.96358e-06
-2.24511e-06
-9.38094e-06
-2.31483e-06
-8.78178e-06
-2.38048e-06
-8.16714e-06
-2.44194e-06
-7.53812e-06
-2.49911e-06
-6.89581e-06
-2.55187e-06
-6.24135e-06
-2.60015e-06
-5.57589e-06
-2.64385e-06
-4.9006e-06
-2.68289e-06
-4.21667e-06
-2.71721e-06
-3.52531e-06
-2.74674e-06
-2.82774e-06
-2.77143e-06
-2.12518e-06
-2.79123e-06
-1.41887e-06
-2.80611e-06
-7.1006e-07
-2.81605e-06
-4.39233e-13
-2.82102e-06
7.1006e-07
-2.82102e-06
1.41887e-06
-2.81605e-06
2.12517e-06
-2.80611e-06
2.82773e-06
-2.79123e-06
3.52531e-06
-2.77143e-06
4.21667e-06
-2.74674e-06
4.9006e-06
-2.71721e-06
5.57589e-06
-2.68289e-06
6.24135e-06
-2.64385e-06
6.89581e-06
-2.60015e-06
7.53812e-06
-2.55187e-06
8.16714e-06
-2.49911e-06
8.78178e-06
-2.44194e-06
9.38094e-06
-2.38048e-06
9.96358e-06
-2.31483e-06
1.05287e-05
-2.24511e-06
1.10752e-05
-2.17145e-06
1.16023e-05
-2.09397e-06
1.21089e-05
-2.01282e-06
1.25942e-05
-1.92814e-06
1.30573e-05
-1.84008e-06
1.34975e-05
-1.7488e-06
1.39139e-05
-1.65445e-06
1.43058e-05
-1.55721e-06
1.46726e-05
-1.45725e-06
1.50136e-05
-1.35474e-06
1.53281e-05
-1.24987e-06
1.56158e-05
-1.14283e-06
1.5876e-05
-1.0338e-06
1.61082e-05
-9.2297e-07
1.63122e-05
-8.10545e-07
1.64876e-05
-6.96718e-07
1.6634e-05
-5.81692e-07
1.67512e-05
-4.65669e-07
1.68389e-05
-3.48853e-07
1.68972e-05
-2.3145e-07
1.69258e-05
-1.13665e-07
1.69247e-05
4.29339e-09
1.68939e-05
1.22219e-07
1.68335e-05
2.39905e-07
1.67436e-05
3.57145e-07
1.66243e-05
4.73735e-07
1.64759e-05
5.8947e-07
1.62987e-05
7.04147e-07
1.60929e-05
8.17568e-07
1.58589e-05
9.29534e-07
1.55971e-05
1.03985e-06
1.53081e-05
1.14832e-06
1.49923e-05
1.25477e-06
1.46502e-05
1.35899e-06
1.42825e-05
1.46082e-06
1.38898e-05
1.56008e-06
1.34729e-05
1.65659e-06
1.30324e-05
1.75019e-06
1.25691e-05
1.84071e-06
1.20838e-05
1.92801e-06
1.15774e-05
2.01192e-06
1.10508e-05
2.0923e-06
1.05048e-05
2.16903e-06
9.94057e-06
2.24195e-06
9.35892e-06
2.31096e-06
8.76092e-06
2.37593e-06
8.14761e-06
2.43676e-06
7.52006e-06
2.49334e-06
6.87937e-06
2.54558e-06
6.22664e-06
2.5934e-06
5.56301e-06
2.63673e-06
4.88961e-06
2.67551e-06
4.20762e-06
2.70969e-06
3.51818e-06
2.73924e-06
2.82248e-06
2.76415e-06
2.12166e-06
2.78444e-06
1.41689e-06
2.80015e-06
7.0929e-07
2.81138e-06
2.81816e-06
-7.14378e-07
3.53252e-06
-1.42706e-06
3.52405e-06
-2.13689e-06
3.50998e-06
-2.84274e-06
3.49029e-06
-3.54344e-06
3.46485e-06
-4.23783e-06
3.43362e-06
-4.92472e-06
3.39658e-06
-5.60295e-06
3.35374e-06
-6.27136e-06
3.30513e-06
-6.92878e-06
3.25082e-06
-7.57407e-06
3.19088e-06
-8.20613e-06
3.1254e-06
-8.82385e-06
3.05448e-06
-9.42615e-06
2.97823e-06
-1.0012e-05
2.89679e-06
-1.05803e-05
2.8103e-06
-1.11302e-05
2.71889e-06
-1.16606e-05
2.62272e-06
-1.21707e-05
2.52196e-06
-1.26594e-05
2.41678e-06
-1.31261e-05
2.30736e-06
-1.35698e-05
2.19389e-06
-1.39897e-05
2.07657e-06
-1.43853e-05
1.95559e-06
-1.47556e-05
1.83118e-06
-1.51002e-05
1.70354e-06
-1.54183e-05
1.57289e-06
-1.57094e-05
1.43947e-06
-1.59731e-05
1.3035e-06
-1.62088e-05
1.16522e-06
-1.64161e-05
1.02487e-06
-1.65946e-05
8.82697e-07
-1.67441e-05
7.38949e-07
-1.68642e-05
5.93876e-07
-1.69548e-05
4.47731e-07
-1.70157e-05
3.00769e-07
-1.70467e-05
1.53249e-07
-1.70478e-05
5.42829e-09
-1.70191e-05
-1.42434e-07
-1.69604e-05
-2.90079e-07
-1.68721e-05
-4.37246e-07
-1.6754e-05
-5.83677e-07
-1.66066e-05
-7.29115e-07
-1.643e-05
-8.73303e-07
-1.62246e-05
-1.01599e-06
-1.59907e-05
-1.15692e-06
-1.57286e-05
-1.29584e-06
-1.54389e-05
-1.43252e-06
-1.51221e-05
-1.5667e-06
-1.47787e-05
-1.69816e-06
-1.44093e-05
-1.82665e-06
-1.40145e-05
-1.95196e-06
-1.35951e-05
-2.07386e-06
-1.31518e-05
-2.19212e-06
-1.26853e-05
-2.30655e-06
-1.21965e-05
-2.41694e-06
-1.16862e-05
-2.5231e-06
-1.11554e-05
-2.62482e-06
-1.06049e-05
-2.72194e-06
-1.00357e-05
-2.81428e-06
-9.44887e-06
-2.90168e-06
-8.84537e-06
-2.98397e-06
-8.22629e-06
-3.06102e-06
-7.59272e-06
-3.13268e-06
-6.94576e-06
-3.19883e-06
-6.28656e-06
-3.25935e-06
-5.61628e-06
-3.31413e-06
-4.93611e-06
-3.36307e-06
-4.24722e-06
-3.40609e-06
-3.55086e-06
-3.44311e-06
-2.84823e-06
-3.47405e-06
-2.14058e-06
-3.49888e-06
-1.42915e-06
-3.51754e-06
-7.15206e-07
-3.52999e-06
-4.56554e-13
-3.53623e-06
7.15205e-07
-3.53623e-06
1.42915e-06
-3.52999e-06
2.14058e-06
-3.51754e-06
2.84823e-06
-3.49888e-06
3.55086e-06
-3.47405e-06
4.24722e-06
-3.44311e-06
4.9361e-06
-3.40609e-06
5.61628e-06
-3.36307e-06
6.28656e-06
-3.31413e-06
6.94576e-06
-3.25935e-06
7.59272e-06
-3.19883e-06
8.22629e-06
-3.13268e-06
8.84537e-06
-3.06102e-06
9.44887e-06
-2.98397e-06
1.00357e-05
-2.90168e-06
1.06049e-05
-2.81428e-06
1.11554e-05
-2.72194e-06
1.16862e-05
-2.62482e-06
1.21965e-05
-2.5231e-06
1.26853e-05
-2.41694e-06
1.31518e-05
-2.30655e-06
1.35951e-05
-2.19212e-06
1.40145e-05
-2.07386e-06
1.44093e-05
-1.95196e-06
1.47787e-05
-1.82665e-06
1.51221e-05
-1.69816e-06
1.54389e-05
-1.5667e-06
1.57286e-05
-1.43252e-06
1.59906e-05
-1.29584e-06
1.62246e-05
-1.15692e-06
1.643e-05
-1.01599e-06
1.66066e-05
-8.73303e-07
1.6754e-05
-7.29115e-07
1.68721e-05
-5.83677e-07
1.69604e-05
-4.37246e-07
1.70191e-05
-2.90079e-07
1.70478e-05
-1.42434e-07
1.70467e-05
5.42842e-09
1.70157e-05
1.53249e-07
1.69548e-05
3.0077e-07
1.68642e-05
4.47731e-07
1.67441e-05
5.93876e-07
1.65946e-05
7.38949e-07
1.64161e-05
8.82697e-07
1.62088e-05
1.02487e-06
1.59731e-05
1.16522e-06
1.57094e-05
1.3035e-06
1.54183e-05
1.43947e-06
1.51002e-05
1.57289e-06
1.47556e-05
1.70354e-06
1.43853e-05
1.83118e-06
1.39897e-05
1.95559e-06
1.35698e-05
2.07657e-06
1.31261e-05
2.19389e-06
1.26594e-05
2.30736e-06
1.21706e-05
2.41678e-06
1.16606e-05
2.52196e-06
1.11302e-05
2.62272e-06
1.05803e-05
2.71889e-06
1.0012e-05
2.8103e-06
9.42615e-06
2.8968e-06
8.82385e-06
2.97823e-06
8.20613e-06
3.05448e-06
7.57407e-06
3.1254e-06
6.92877e-06
3.19088e-06
6.27135e-06
3.25082e-06
5.60295e-06
3.30514e-06
4.92472e-06
3.35374e-06
4.23782e-06
3.39659e-06
3.54344e-06
3.43363e-06
2.84273e-06
3.46486e-06
2.13689e-06
3.49029e-06
1.42705e-06
3.50999e-06
7.14375e-07
3.52406e-06
3.53253e-06
-7.20661e-07
4.25318e-06
-1.43961e-06
4.24299e-06
-2.15569e-06
4.22606e-06
-2.86775e-06
4.20235e-06
-3.57463e-06
4.17173e-06
-4.27513e-06
4.13413e-06
-4.96807e-06
4.08953e-06
-5.65228e-06
4.03794e-06
-6.32657e-06
3.97942e-06
-6.98978e-06
3.91403e-06
-7.64077e-06
3.84187e-06
-8.2784e-06
3.76303e-06
-8.90157e-06
3.67764e-06
-9.50918e-06
3.58585e-06
-1.01002e-05
3.4878e-06
-1.06736e-05
3.38366e-06
-1.12283e-05
3.2736e-06
-1.17634e-05
3.15782e-06
-1.22779e-05
3.03651e-06
-1.2771e-05
2.90987e-06
-1.32418e-05
2.77814e-06
-1.36894e-05
2.64152e-06
-1.41131e-05
2.50027e-06
-1.45122e-05
2.35462e-06
-1.48858e-05
2.20482e-06
-1.52334e-05
2.05114e-06
-1.55544e-05
1.89385e-06
-1.58481e-05
1.7332e-06
-1.61141e-05
1.5695e-06
-1.63519e-05
1.40301e-06
-1.65611e-05
1.23403e-06
-1.67412e-05
1.06285e-06
-1.6892e-05
8.89778e-07
-1.70133e-05
7.15108e-07
-1.71047e-05
5.39147e-07
-1.71661e-05
3.62203e-07
-1.71975e-05
1.84585e-07
-1.71986e-05
6.60413e-09
-1.71696e-05
-1.71427e-07
-1.71105e-05
-3.49196e-07
-1.70214e-05
-5.2639e-07
-1.69024e-05
-7.027e-07
-1.67537e-05
-8.77813e-07
-1.65755e-05
-1.05142e-06
-1.63683e-05
-1.22322e-06
-1.61323e-05
-1.39291e-06
-1.5868e-05
-1.56018e-06
-1.55757e-05
-1.72475e-06
-1.52561e-05
-1.88631e-06
-1.49097e-05
-2.0446e-06
-1.4537e-05
-2.19931e-06
-1.41388e-05
-2.35019e-06
-1.37157e-05
-2.49696e-06
-1.32685e-05
-2.63937e-06
-1.27979e-05
-2.77715e-06
-1.23047e-05
-2.91007e-06
-1.179e-05
-3.03788e-06
-1.12544e-05
-3.16037e-06
-1.0699e-05
-3.27731e-06
-1.01248e-05
-3.3885e-06
-9.53278e-06
-3.49373e-06
-8.92393e-06
-3.59282e-06
-8.29936e-06
-3.68559e-06
-7.66016e-06
-3.77188e-06
-7.00747e-06
-3.85153e-06
-6.34242e-06
-3.9244e-06
-5.66619e-06
-3.99036e-06
-4.97997e-06
-4.04929e-06
-4.28497e-06
-4.10109e-06
-3.58241e-06
-4.14566e-06
-2.87354e-06
-4.18293e-06
-2.1596e-06
-4.21282e-06
-1.44185e-06
-4.23529e-06
-7.21563e-07
-4.25028e-06
-4.72089e-13
-4.25779e-06
7.21562e-07
-4.25779e-06
1.44185e-06
-4.25028e-06
2.1596e-06
-4.23529e-06
2.87354e-06
-4.21282e-06
3.58241e-06
-4.18293e-06
4.28497e-06
-4.14566e-06
4.97997e-06
-4.10109e-06
5.66619e-06
-4.04929e-06
6.34242e-06
-3.99036e-06
7.00747e-06
-3.9244e-06
7.66016e-06
-3.85153e-06
8.29936e-06
-3.77188e-06
8.92393e-06
-3.68559e-06
9.53278e-06
-3.59282e-06
1.01248e-05
-3.49373e-06
1.0699e-05
-3.3885e-06
1.12544e-05
-3.27731e-06
1.179e-05
-3.16037e-06
1.23047e-05
-3.03788e-06
1.27979e-05
-2.91007e-06
1.32685e-05
-2.77715e-06
1.37157e-05
-2.63937e-06
1.41388e-05
-2.49696e-06
1.4537e-05
-2.35019e-06
1.49097e-05
-2.19931e-06
1.52561e-05
-2.0446e-06
1.55757e-05
-1.88631e-06
1.5868e-05
-1.72475e-06
1.61323e-05
-1.56018e-06
1.63683e-05
-1.39291e-06
1.65755e-05
-1.22322e-06
1.67537e-05
-1.05142e-06
1.69024e-05
-8.77813e-07
1.70214e-05
-7.02699e-07
1.71105e-05
-5.2639e-07
1.71696e-05
-3.49196e-07
1.71986e-05
-1.71427e-07
1.71975e-05
6.60431e-09
1.71661e-05
1.84585e-07
1.71047e-05
3.62203e-07
1.70133e-05
5.39147e-07
1.6892e-05
7.15108e-07
1.67412e-05
8.89779e-07
1.65611e-05
1.06285e-06
1.63519e-05
1.23403e-06
1.61141e-05
1.40301e-06
1.58481e-05
1.5695e-06
1.55544e-05
1.7332e-06
1.52334e-05
1.89385e-06
1.48858e-05
2.05114e-06
1.45122e-05
2.20482e-06
1.41131e-05
2.35462e-06
1.36894e-05
2.50027e-06
1.32418e-05
2.64152e-06
1.2771e-05
2.77814e-06
1.22779e-05
2.90988e-06
1.17634e-05
3.03651e-06
1.12283e-05
3.15782e-06
1.06735e-05
3.27361e-06
1.01002e-05
3.38366e-06
9.50918e-06
3.4878e-06
8.90156e-06
3.58585e-06
8.2784e-06
3.67764e-06
7.64077e-06
3.76303e-06
6.98978e-06
3.84187e-06
6.32657e-06
3.91404e-06
5.65228e-06
3.97943e-06
4.96807e-06
4.03795e-06
4.27513e-06
4.08953e-06
3.57462e-06
4.13413e-06
2.86775e-06
4.17173e-06
2.15569e-06
4.20236e-06
1.4396e-06
4.22607e-06
7.20659e-07
4.243e-06
4.25319e-06
-7.28167e-07
4.98135e-06
-1.4546e-06
4.96943e-06
-2.17814e-06
4.9496e-06
-2.89763e-06
4.92183e-06
-3.61187e-06
4.88597e-06
-4.31967e-06
4.84193e-06
-5.01984e-06
4.7897e-06
-5.71118e-06
4.72928e-06
-6.3925e-06
4.66075e-06
-7.06264e-06
4.58416e-06
-7.72041e-06
4.49964e-06
-8.3647e-06
4.40731e-06
-8.99437e-06
4.30731e-06
-9.60834e-06
4.19981e-06
-1.02055e-05
4.08498e-06
-1.07849e-05
3.96302e-06
-1.13454e-05
3.83412e-06
-1.18861e-05
3.69852e-06
-1.2406e-05
3.55645e-06
-1.29043e-05
3.40814e-06
-1.338e-05
3.25385e-06
-1.38323e-05
3.09385e-06
-1.42605e-05
2.92842e-06
-1.46637e-05
2.75783e-06
-1.50413e-05
2.5824e-06
-1.53925e-05
2.40241e-06
-1.57169e-05
2.21819e-06
-1.60137e-05
2.03004e-06
-1.62825e-05
1.83831e-06
-1.65228e-05
1.64332e-06
-1.67342e-05
1.44541e-06
-1.69163e-05
1.24493e-06
-1.70687e-05
1.04222e-06
-1.71913e-05
8.37645e-07
-1.72837e-05
6.31556e-07
-1.73458e-05
4.24316e-07
-1.73775e-05
2.16285e-07
-1.73787e-05
7.82968e-09
-1.73495e-05
-2.00686e-07
-1.72898e-05
-4.08895e-07
-1.71997e-05
-6.16432e-07
-1.70795e-05
-8.22933e-07
-1.69293e-05
-1.02803e-06
-1.67493e-05
-1.23137e-06
-1.65399e-05
-1.43259e-06
-1.63015e-05
-1.63134e-06
-1.60344e-05
-1.82726e-06
-1.57392e-05
-2.02001e-06
-1.54162e-05
-2.20925e-06
-1.50662e-05
-2.39464e-06
-1.46896e-05
-2.57586e-06
-1.42873e-05
-2.75258e-06
-1.38597e-05
-2.92449e-06
-1.34078e-05
-3.09128e-06
-1.29323e-05
-3.25266e-06
-1.2434e-05
-3.40835e-06
-1.19138e-05
-3.55806e-06
-1.13727e-05
-3.70153e-06
-1.08115e-05
-3.8385e-06
-1.02313e-05
-3.96873e-06
-9.633e-06
-4.09199e-06
-9.01777e-06
-4.20805e-06
-8.38664e-06
-4.31672e-06
-7.74073e-06
-4.41779e-06
-7.08117e-06
-4.51108e-06
-6.40913e-06
-4.59644e-06
-5.72579e-06
-4.6737e-06
-5.03236e-06
-4.74273e-06
-4.33005e-06
-4.8034e-06
-3.6201e-06
-4.85561e-06
-2.90377e-06
-4.89926e-06
-2.18232e-06
-4.93427e-06
-1.45702e-06
-4.96058e-06
-7.29155e-07
-4.97815e-06
-4.86238e-13
-4.98695e-06
7.29154e-07
-4.98695e-06
1.45702e-06
-4.97815e-06
2.18232e-06
-4.96058e-06
2.90377e-06
-4.93427e-06
3.6201e-06
-4.89926e-06
4.33005e-06
-4.85561e-06
5.03235e-06
-4.8034e-06
5.72579e-06
-4.74273e-06
6.40913e-06
-4.6737e-06
7.08117e-06
-4.59644e-06
7.74072e-06
-4.51108e-06
8.38664e-06
-4.41779e-06
9.01776e-06
-4.31672e-06
9.633e-06
-4.20805e-06
1.02313e-05
-4.09199e-06
1.08115e-05
-3.96873e-06
1.13727e-05
-3.8385e-06
1.19138e-05
-3.70153e-06
1.2434e-05
-3.55806e-06
1.29323e-05
-3.40835e-06
1.34078e-05
-3.25266e-06
1.38597e-05
-3.09128e-06
1.42873e-05
-2.92449e-06
1.46896e-05
-2.75258e-06
1.50662e-05
-2.57586e-06
1.54162e-05
-2.39464e-06
1.57392e-05
-2.20925e-06
1.60344e-05
-2.02001e-06
1.63015e-05
-1.82726e-06
1.65399e-05
-1.63134e-06
1.67493e-05
-1.43259e-06
1.69293e-05
-1.23137e-06
1.70795e-05
-1.02803e-06
1.71997e-05
-8.22933e-07
1.72898e-05
-6.16432e-07
1.73495e-05
-4.08895e-07
1.73787e-05
-2.00686e-07
1.73775e-05
7.8299e-09
1.73458e-05
2.16285e-07
1.72837e-05
4.24316e-07
1.71913e-05
6.31557e-07
1.70687e-05
8.37645e-07
1.69163e-05
1.04222e-06
1.67342e-05
1.24493e-06
1.65228e-05
1.44541e-06
1.62825e-05
1.64332e-06
1.60137e-05
1.83831e-06
1.57169e-05
2.03004e-06
1.53925e-05
2.21819e-06
1.50413e-05
2.40241e-06
1.46637e-05
2.5824e-06
1.42605e-05
2.75783e-06
1.38323e-05
2.92842e-06
1.338e-05
3.09385e-06
1.29043e-05
3.25385e-06
1.2406e-05
3.40814e-06
1.18861e-05
3.55645e-06
1.13454e-05
3.69852e-06
1.07849e-05
3.83413e-06
1.02055e-05
3.96302e-06
9.60833e-06
4.08498e-06
8.99437e-06
4.19981e-06
8.3647e-06
4.30732e-06
7.72041e-06
4.40731e-06
7.06263e-06
4.49965e-06
6.3925e-06
4.58417e-06
5.71118e-06
4.66075e-06
5.01984e-06
4.72929e-06
4.31967e-06
4.7897e-06
3.61186e-06
4.84194e-06
2.89762e-06
4.88597e-06
2.17814e-06
4.92184e-06
1.4546e-06
4.94961e-06
7.28165e-07
4.96943e-06
4.98136e-06
-7.36917e-07
5.71827e-06
-1.47208e-06
5.70459e-06
-2.20432e-06
5.68184e-06
-2.93245e-06
5.64996e-06
-3.65528e-06
5.6088e-06
-4.37159e-06
5.55825e-06
-5.08018e-06
5.49829e-06
-5.77984e-06
5.42894e-06
-6.46936e-06
5.35027e-06
-7.14755e-06
5.26236e-06
-7.81325e-06
5.16534e-06
-8.46529e-06
5.05936e-06
-9.10255e-06
4.94457e-06
-9.72391e-06
4.82117e-06
-1.03283e-05
4.68936e-06
-1.09146e-05
4.54936e-06
-1.14819e-05
4.40141e-06
-1.20291e-05
4.24575e-06
-1.25554e-05
4.08266e-06
-1.30596e-05
3.91242e-06
-1.35411e-05
3.73531e-06
-1.39989e-05
3.55165e-06
-1.44322e-05
3.36175e-06
-1.48403e-05
3.16594e-06
-1.52225e-05
2.96455e-06
-1.5578e-05
2.75794e-06
-1.59063e-05
2.54647e-06
-1.62068e-05
2.3305e-06
-1.64789e-05
2.1104e-06
-1.67221e-05
1.88657e-06
-1.69361e-05
1.65938e-06
-1.71204e-05
1.42924e-06
-1.72747e-05
1.19655e-06
-1.73988e-05
9.61704e-07
-1.74923e-05
7.25125e-07
-1.75553e-05
4.87223e-07
-1.75874e-05
2.48413e-07
-1.75887e-05
9.11422e-09
-1.75591e-05
-2.30254e-07
-1.74987e-05
-4.69272e-07
-1.74076e-05
-7.07519e-07
-1.7286e-05
-9.44577e-07
-1.7134e-05
-1.18003e-06
-1.69519e-05
-1.41346e-06
-1.674e-05
-1.64446e-06
-1.64988e-05
-1.87262e-06
-1.62285e-05
-2.09754e-06
-1.59297e-05
-2.31881e-06
-1.56029e-05
-2.53606e-06
-1.52486e-05
-2.74889e-06
-1.48676e-05
-2.95693e-06
-1.44603e-05
-3.1598e-06
-1.40277e-05
-3.35716e-06
-1.35703e-05
-3.54864e-06
-1.3089e-05
-3.73392e-06
-1.25847e-05
-3.91265e-06
-1.20583e-05
-4.08452e-06
-1.15106e-05
-4.24923e-06
-1.09426e-05
-4.40648e-06
-1.03554e-05
-4.55599e-06
-9.74985e-06
-4.69749e-06
-9.12716e-06
-4.83074e-06
-8.48839e-06
-4.95549e-06
-7.83465e-06
-5.07153e-06
-7.1671e-06
-5.17864e-06
-6.48691e-06
-5.27663e-06
-5.79528e-06
-5.36533e-06
-5.09344e-06
-5.44457e-06
-4.38261e-06
-5.51423e-06
-3.66405e-06
-5.57417e-06
-2.93902e-06
-5.62428e-06
-2.20882e-06
-5.66448e-06
-1.47471e-06
-5.69469e-06
-7.38007e-07
-5.71486e-06
-4.96607e-13
-5.72495e-06
7.38006e-07
-5.72495e-06
1.47471e-06
-5.71486e-06
2.20881e-06
-5.69469e-06
2.93902e-06
-5.66448e-06
3.66404e-06
-5.62428e-06
4.3826e-06
-5.57417e-06
5.09343e-06
-5.51423e-06
5.79528e-06
-5.44457e-06
6.48691e-06
-5.36533e-06
7.1671e-06
-5.27663e-06
7.83465e-06
-5.17864e-06
8.48839e-06
-5.07153e-06
9.12716e-06
-4.95549e-06
9.74985e-06
-4.83074e-06
1.03554e-05
-4.69749e-06
1.09426e-05
-4.55599e-06
1.15106e-05
-4.40648e-06
1.20583e-05
-4.24923e-06
1.25847e-05
-4.08452e-06
1.3089e-05
-3.91265e-06
1.35703e-05
-3.73392e-06
1.40277e-05
-3.54864e-06
1.44603e-05
-3.35716e-06
1.48676e-05
-3.1598e-06
1.52486e-05
-2.95693e-06
1.56029e-05
-2.74889e-06
1.59297e-05
-2.53606e-06
1.62285e-05
-2.31881e-06
1.64988e-05
-2.09754e-06
1.674e-05
-1.87262e-06
1.69519e-05
-1.64446e-06
1.7134e-05
-1.41346e-06
1.7286e-05
-1.18003e-06
1.74076e-05
-9.44577e-07
1.74987e-05
-7.07519e-07
1.75591e-05
-4.69271e-07
1.75887e-05
-2.30254e-07
1.75874e-05
9.11447e-09
1.75553e-05
2.48413e-07
1.74923e-05
4.87223e-07
1.73988e-05
7.25125e-07
1.72747e-05
9.61704e-07
1.71204e-05
1.19655e-06
1.69361e-05
1.42924e-06
1.67221e-05
1.65938e-06
1.64789e-05
1.88657e-06
1.62068e-05
2.1104e-06
1.59063e-05
2.3305e-06
1.5578e-05
2.54647e-06
1.52225e-05
2.75794e-06
1.48403e-05