/*--------------------------------*- C++ -*----------------------------------*\
| =========                 |                                                 |
| \\      /  F ield         | OpenFOAM: The Open Source CFD Toolbox           |
|  \\    /   O peration     | Version:  2106                                  |
|   \\  /    A nd           | Website:  www.openfoam.com                      |
|    \\/     M anipulation  |                                                 |
\*---------------------------------------------------------------------------*/
FoamFile
{
    version     2.0;
    format      ascii;
    arch        "LSB;label=32;scalar=64";
    class       volScalarField;
    location    "0.023";
    object      p;
}
// * * * * * * * * * * * * * * * * * * * * * * * * * * * * * * * * * * * * * //

dimensions      [1 -1 -2 0 0 0 0];

internalField   nonuniform List<scalar> 
65536
(
-11.872812
-11.865664
-11.851371
-11.829943
-11.801391
-11.765735
-11.722994
-11.673194
-11.616366
-11.552543
-11.481765
-11.404073
-11.319514
-11.228139
-11.130003
-11.025165
-10.913688
-10.795639
-10.671088
-10.540112
-10.402788
-10.259199
-10.109432
-9.9535759
-9.7917252
-9.623977
-9.4504323
-9.2711953
-9.0863739
-8.8960792
-8.7004257
-8.4995311
-8.2935163
-8.0825052
-7.8666246
-7.6460046
-7.4207778
-7.1910798
-6.9570488
-6.7188257
-6.4765537
-6.2303788
-5.9804491
-5.726915
-5.4699291
-5.2096462
-4.9462229
-4.6798179
-4.4105915
-4.1387058
-3.8643246
-3.587613
-3.3087378
-3.0278669
-2.7451694
-2.4608155
-2.1749766
-1.8878249
-1.5995333
-1.3102754
-1.0202256
-0.72955847
-0.43844926
-0.14707333
0.14439379
0.43577647
0.72689914
1.0175864
1.307663
1.5969543
1.8852858
2.1724839
2.4583754
2.742788
3.0255504
3.3064921
3.5854439
3.8622375
4.1367061
4.4086844
4.6780084
4.9445157
5.2080457
5.4684397
5.7255405
5.9791933
6.2292451
6.4755453
6.7179453
6.9562991
7.190463
7.4202957
7.6456588
7.8664165
8.0824355
8.2935859
8.4997401
8.700774
8.8965665
9.0869993
9.2719579
9.4513306
9.6250093
9.7928894
9.9548696
10.110852
10.260744
10.404453
10.541894
10.672983
10.797642
10.915796
11.027372
11.132305
11.23053
11.321989
11.406627
11.484391
11.555236
11.619119
11.676001
11.725848
11.768631
11.804322
11.8329
11.85435
11.868656
11.875812
11.875812
11.868656
11.85435
11.8329
11.804322
11.768631
11.725848
11.676001
11.619119
11.555236
11.484391
11.406627
11.321989
11.23053
11.132305
11.027372
10.915796
10.797642
10.672983
10.541894
10.404453
10.260744
10.110852
9.9548696
9.7928894
9.6250093
9.4513306
9.2719579
9.0869993
8.8965665
8.700774
8.4997401
8.2935859
8.0824356
7.8664165
7.6456588
7.4202957
7.190463
6.9562991
6.7179453
6.4755453
6.2292451
5.9791933
5.7255405
5.4684397
5.2080457
4.9445157
4.6780084
4.4086844
4.1367062
3.8622375
3.5854439
3.3064921
3.0255504
2.742788
2.4583754
2.1724839
1.8852858
1.5969543
1.307663
1.0175864
0.72689914
0.43577647
0.14439379
-0.14707333
-0.43844927
-0.72955847
-1.0202256
-1.3102754
-1.5995333
-1.8878249
-2.1749766
-2.4608155
-2.7451693
-3.0278669
-3.3087378
-3.587613
-3.8643246
-4.1387058
-4.4105915
-4.6798179
-4.9462229
-5.2096462
-5.4699291
-5.726915
-5.9804491
-6.2303788
-6.4765537
-6.7188257
-6.9570488
-7.1910798
-7.4207778
-7.6460046
-7.8666246
-8.0825051
-8.2935163
-8.4995311
-8.7004257
-8.8960792
-9.0863739
-9.2711953
-9.4504322
-9.623977
-9.7917252
-9.9535759
-10.109432
-10.259199
-10.402788
-10.540112
-10.671088
-10.795639
-10.913688
-11.025165
-11.130003
-11.228139
-11.319514
-11.404073
-11.481765
-11.552543
-11.616366
-11.673194
-11.722994
-11.765735
-11.801391
-11.829943
-11.851371
-11.865664
-11.872812
-11.879977
-11.872824
-11.858523
-11.837081
-11.808513
-11.772834
-11.730067
-11.680237
-11.623374
-11.559513
-11.488691
-11.410952
-11.326341
-11.234911
-11.136715
-11.031813
-10.920268
-10.802147
-10.67752
-10.546464
-10.409057
-10.26538
-10.115522
-9.9595709
-9.7976217
-9.6297714
-9.4561211
-9.2767751
-9.0918412
-8.9014309
-8.7056584
-8.5046418
-8.2985017
-8.0873624
-7.8713507
-7.6505967
-7.4252332
-7.1953959
-6.9612229
-6.7228552
-6.4804364
-6.2341122
-5.984031
-5.7303433
-5.4732018
-5.2127613
-4.9491786
-4.6826123
-4.4132231
-4.141173
-3.866626
-3.5897472
-3.3107036
-3.029663
-2.7467948
-2.4622694
-2.1762581
-1.8889332
-1.6004678
-1.3110357
-1.0208111
-0.72996906
-0.43868466
-0.14713343
0.14450897
0.43606681
0.72736442
1.0182263
1.3084771
1.597942
1.8864465
2.1738168
2.4598797
2.7444628
3.0273946
3.3085046
3.5876233
3.8645824
4.1392152
4.411356
4.6808409
4.9475075
5.2111949
5.4717442
5.7289984
5.9828025
6.2330034
6.4794504
6.7219948
6.9604906
7.1947938
7.4247633
7.6502605
7.8711494
8.0872969
8.2985727
8.5048494
8.7060027
8.9019114
9.0924573
9.2775256
9.4570047
9.6307864
9.798766
9.9608422
10.116917
10.266897
10.410692
10.548214
10.679381
10.804114
10.922337
11.03398
11.138975
11.237258
11.328771
11.413458
11.491269
11.562156
11.626077
11.682992
11.732869
11.775676
11.811389
11.839984
11.861446
11.875761
11.882921
11.882921
11.875761
11.861446
11.839984
11.811389
11.775676
11.732869
11.682992
11.626077
11.562156
11.491269
11.413458
11.328771
11.237258
11.138975
11.03398
10.922337
10.804114
10.679381
10.548214
10.410692
10.266897
10.116917
9.9608422
9.798766
9.6307864
9.4570047
9.2775256
9.0924573
8.9019114
8.7060027
8.5048494
8.2985727
8.0872969
7.8711494
7.6502605
7.4247633
7.1947938
6.9604906
6.7219948
6.4794504
6.2330034
5.9828025
5.7289985
5.4717442
5.2111949
4.9475075
4.6808409
4.411356
4.1392152
3.8645824
3.5876233
3.3085046
3.0273946
2.7444628
2.4598797
2.1738168
1.8864465
1.597942
1.3084771
1.0182263
0.72736442
0.43606681
0.14450897
-0.14713343
-0.43868466
-0.72996907
-1.0208111
-1.3110357
-1.6004678
-1.8889332
-2.1762581
-2.4622694
-2.7467948
-3.029663
-3.3107035
-3.5897472
-3.866626
-4.141173
-4.4132231
-4.6826123
-4.9491786
-5.2127613
-5.4732018
-5.7303433
-5.984031
-6.2341122
-6.4804364
-6.7228552
-6.9612229
-7.1953959
-7.4252332
-7.6505967
-7.8713507
-8.0873624
-8.2985017
-8.5046417
-8.7056584
-8.9014308
-9.0918412
-9.276775
-9.4561211
-9.6297714
-9.7976217
-9.9595709
-10.115522
-10.26538
-10.409057
-10.546464
-10.67752
-10.802147
-10.920268
-11.031813
-11.136715
-11.234911
-11.326341
-11.410952
-11.488691
-11.559513
-11.623374
-11.680237
-11.730067
-11.772834
-11.808513
-11.837081
-11.858523
-11.872824
-11.879977
-11.894288
-11.887127
-11.872808
-11.851341
-11.822738
-11.787016
-11.744197
-11.694307
-11.637376
-11.573437
-11.50253
-11.424696
-11.339983
-11.248442
-11.150128
-11.045099
-10.933419
-10.815155
-10.690379
-10.559164
-10.42159
-10.277741
-10.127701
-9.9715618
-9.8094169
-9.6413639
-9.4675038
-9.2879411
-9.102784
-8.9121436
-8.7161348
-8.5148754
-8.3084864
-8.0970922
-7.8808197
-7.6597992
-7.4341637
-7.2040489
-6.9695933
-6.730938
-6.4882266
-6.2416052
-5.9912223
-5.7372285
-5.4797768
-5.2190222
-4.9551215
-4.6882338
-4.4185197
-4.1461417
-3.8712636
-3.5940511
-3.3146711
-3.0332919
-2.7500828
-2.4652146
-2.1788587
-1.8911877
-1.6023749
-1.3125942
-1.0220202
-0.73082792
-0.43919286
-0.1472907
0.14470269
0.43661137
0.72825945
1.0194712
1.3100711
1.5998842
1.8887356
2.1764514
2.4628582
2.7477833
3.0310551
3.3125028
3.5919568
3.8692487
4.1442114
4.416679
4.6864875
4.9534742
5.2174781
5.4783401
5.7359031
5.9900116
6.2405127
6.4872553
6.7300906
6.9688723
7.2034564
7.4337016
7.6594691
7.8806227
8.0970292
8.3085581
8.5150819
8.7164762
8.9126195
9.1033935
9.2886834
9.4683774
9.6423671
9.8105478
9.972818
10.12908
10.279239
10.423206
10.560892
10.692216
10.817098
10.935463
11.047239
11.15236
11.250761
11.342383
11.427172
11.505075
11.576047
11.640044
11.697028
11.746964
11.789823
11.825578
11.854207
11.875695
11.890027
11.897195
11.897195
11.890027
11.875695
11.854207
11.825578
11.789823
11.746964
11.697028
11.640044
11.576047
11.505075
11.427172
11.342383
11.250761
11.15236
11.047239
10.935463
10.817098
10.692216
10.560892
10.423206
10.279239
10.12908
9.972818
9.8105478
9.6423671
9.4683774
9.2886834
9.1033935
8.9126195
8.7164762
8.5150819
8.3085581
8.0970292
7.8806227
7.6594691
7.4337016
7.2034564
6.9688723
6.7300906
6.4872553
6.2405127
5.9900116
5.7359031
5.4783401
5.2174781
4.9534742
4.6864875
4.416679
4.1442114
3.8692487
3.5919568
3.3125028
3.0310551
2.7477833
2.4628582
2.1764514
1.8887356
1.5998842
1.3100711
1.0194712
0.72825945
0.43661137
0.14470269
-0.1472907
-0.43919286
-0.73082792
-1.0220202
-1.3125942
-1.6023749
-1.8911877
-2.1788587
-2.4652146
-2.7500828
-3.0332919
-3.3146711
-3.5940511
-3.8712636
-4.1461417
-4.4185197
-4.6882338
-4.9551215
-5.2190222
-5.4797768
-5.7372285
-5.9912223
-6.2416052
-6.4882266
-6.730938
-6.9695933
-7.2040489
-7.4341637
-7.6597992
-7.8808197
-8.0970922
-8.3084864
-8.5148754
-8.7161348
-8.9121436
-9.102784
-9.2879411
-9.4675038
-9.6413639
-9.8094169
-9.9715618
-10.127701
-10.277741
-10.42159
-10.559164
-10.690379
-10.815155
-10.933419
-11.045099
-11.150128
-11.248442
-11.339983
-11.424696
-11.50253
-11.573437
-11.637375
-11.694307
-11.744197
-11.787016
-11.822738
-11.851341
-11.872808
-11.887127
-11.894288
-11.915751
-11.908577
-11.894232
-11.872726
-11.844071
-11.808285
-11.765388
-11.715408
-11.658374
-11.59432
-11.523284
-11.44531
-11.360444
-11.268738
-11.170246
-11.065027
-10.953146
-10.834668
-10.709666
-10.578214
-10.440392
-10.296283
-10.145972
-9.9895506
-9.8271128
-9.6587561
-9.4845819
-9.3046949
-9.1192033
-8.9282185
-8.7318556
-8.5302327
-8.3234709
-8.1116948
-7.8950317
-7.673612
-7.4475689
-7.2170385
-6.9821594
-6.743073
-6.4999233
-6.2528565
-6.0020214
-5.747569
-5.4896524
-5.2284269
-4.9640498
-4.6966802
-4.4264791
-4.1536093
-3.878235
-3.600522
-3.3206377
-3.0387505
-2.7550303
-2.4696479
-2.1827752
-1.894585
-1.605251
-1.3149474
-1.0238491
-0.73213144
-0.43997023
-0.14754148
0.14497863
0.43741385
0.72958796
1.0213249
1.3124489
1.6027845
1.8921568
2.1803913
2.4673144
2.7527532
3.0365356
3.3184905
3.5984482
3.8762398
4.1516979
4.4246565
4.694951
4.9624187
5.2268981
5.48823
5.7462568
6.000823
6.2517751
6.4989619
6.7422344
6.981446
7.2164524
7.447112
7.6732858
7.8948374
8.1116333
8.3235428
8.5304382
8.7321948
8.9286909
9.1198081
9.3054312
9.4854484
9.659751
9.8282341
9.9907961
10.147339
10.297768
10.441994
10.579928
10.711488
10.836594
10.955172
11.067149
11.172458
11.271036
11.362823
11.447764
11.525808
11.596907
11.661019
11.718105
11.768131
11.811067
11.846886
11.875567
11.897093
11.911451
11.918632
11.918632
11.911451
11.897093
11.875567
11.846886
11.811067
11.768131
11.718105
11.661019
11.596907
11.525808
11.447764
11.362823
11.271036
11.172458
11.067149
10.955172
10.836594
10.711488
10.579928
10.441994
10.297768
10.147339
9.9907961
9.8282341
9.659751
9.4854484
9.3054312
9.1198081
8.9286909
8.7321948
8.5304382
8.3235428
8.1116333
7.8948374
7.6732858
7.447112
7.2164524
6.981446
6.7422344
6.4989619
6.2517751
6.000823
5.7462568
5.48823
5.2268981
4.9624187
4.694951
4.4246565
4.1516979
3.8762398
3.5984482
3.3184905
3.0365356
2.7527532
2.4673144
2.1803913
1.8921568
1.6027845
1.3124489
1.0213249
0.72958796
0.43741385
0.14497863
-0.14754148
-0.43997023
-0.73213144
-1.0238491
-1.3149474
-1.605251
-1.894585
-2.1827752
-2.4696479
-2.7550303
-3.0387505
-3.3206377
-3.600522
-3.878235
-4.1536093
-4.4264791
-4.6966802
-4.9640498
-5.2284269
-5.4896524
-5.747569
-6.0020214
-6.2528565
-6.4999233
-6.743073
-6.9821594
-7.2170385
-7.4475689
-7.673612
-7.8950317
-8.1116948
-8.3234709
-8.5302326
-8.7318556
-8.9282185
-9.1192033
-9.3046949
-9.4845819
-9.6587561
-9.8271128
-9.9895505
-10.145972
-10.296283
-10.440392
-10.578214
-10.709666
-10.834668
-10.953146
-11.065027
-11.170246
-11.268738
-11.360444
-11.44531
-11.523284
-11.59432
-11.658374
-11.715408
-11.765388
-11.808285
-11.844071
-11.872726
-11.894232
-11.908577
-11.915751
-11.944385
-11.937194
-11.922815
-11.901257
-11.872533
-11.836661
-11.793661
-11.743561
-11.686389
-11.622181
-11.550975
-11.472814
-11.387744
-11.295817
-11.197088
-11.091616
-10.979466
-10.860703
-10.735401
-10.603633
-10.465479
-10.321023
-10.170351
-10.013554
-9.8507252
-9.6819638
-9.5073708
-9.3270513
-9.1411136
-8.9496696
-8.7528346
-8.5507268
-8.3434679
-8.1311825
-7.9139985
-7.6920463
-7.4654597
-7.234375
-6.9989312
-6.7592699
-6.5155356
-6.2678747
-6.0164365
-5.7613723
-5.5028356
-5.240982
-4.9759692
-4.7079568
-4.4371061
-4.1635803
-3.8875439
-3.6091634
-3.3286062
-3.0460414
-2.7616391
-2.4755708
-2.1880085
-1.8991257
-1.6090962
-1.3180949
-1.0262969
-0.73387823
-0.44101492
-0.14788344
0.14533959
0.43847747
0.7313536
1.0237915
1.3156149
1.606648
1.8967154
2.1856423
2.4732546
2.7593789
3.0438429
3.326475
3.6071049
3.8855636
4.1616831
4.435297
4.7062405
4.9743502
5.2394646
5.5014238
5.7600699
6.015247
6.2668014
6.5145814
6.7584377
6.9982232
7.2337935
7.4650065
7.6917228
7.9138059
8.1311219
8.3435397
8.5509313
8.7531717
8.950139
9.1417146
9.3277828
9.5082316
9.6829521
9.8518392
10.014791
10.171709
10.322499
10.46707
10.605335
10.73721
10.862616
10.981478
11.093724
11.199285
11.298099
11.390106
11.475251
11.553481
11.624751
11.689017
11.74624
11.796385
11.839424
11.875329
11.904079
11.925657
11.940049
11.947247
11.947247
11.940049
11.925657
11.904079
11.875329
11.839424
11.796385
11.74624
11.689017
11.624751
11.553481
11.475251
11.390106
11.298099
11.199285
11.093724
10.981478
10.862616
10.73721
10.605335
10.46707
10.322499
10.171709
10.014791
9.8518392
9.6829521
9.5082316
9.3277828
9.1417146
8.950139
8.7531717
8.5509313
8.3435397
8.1311219
7.9138059
7.6917228
7.4650065
7.2337935
6.9982232
6.7584377
6.5145814
6.2668014
6.015247
5.7600699
5.5014238
5.2394646
4.9743502
4.7062405
4.435297
4.1616831
3.8855636
3.6071049
3.326475
3.0438429
2.7593789
2.4732546
2.1856423
1.8967154
1.606648
1.3156149
1.0237915
0.7313536
0.43847748
0.14533959
-0.14788343
-0.44101491
-0.73387823
-1.0262969
-1.3180949
-1.6090962
-1.8991257
-2.1880085
-2.4755708
-2.7616391
-3.0460414
-3.3286062
-3.6091634
-3.8875439
-4.1635803
-4.4371061
-4.7079568
-4.9759692
-5.240982
-5.5028356
-5.7613723
-6.0164365
-6.2678747
-6.5155356
-6.7592699
-6.9989312
-7.234375
-7.4654597
-7.6920463
-7.9139985
-8.1311825
-8.3434679
-8.5507268
-8.7528346
-8.9496696
-9.1411136
-9.3270513
-9.5073708
-9.6819638
-9.8507252
-10.013554
-10.170351
-10.321023
-10.465479
-10.603633
-10.735401
-10.860703
-10.979466
-11.091616
-11.197088
-11.295817
-11.387744
-11.472814
-11.550975
-11.622181
-11.686389
-11.743561
-11.793661
-11.836661
-11.872533
-11.901257
-11.922815
-11.937194
-11.944385
-11.98021
-11.972997
-11.958574
-11.936952
-11.908142
-11.872162
-11.829034
-11.778783
-11.72144
-11.657039
-11.58562
-11.507224
-11.421899
-11.329696
-11.230671
-11.124883
-11.012396
-10.893277
-10.767599
-10.635436
-10.496868
-10.351978
-10.200854
-10.043586
-9.8802694
-9.7110017
-9.5358849
-9.3550244
-9.1685288
-8.9765105
-8.7790849
-8.5763708
-8.36849
-8.1555678
-7.9377321
-7.715114
-7.4878476
-7.2560695
-7.0199192
-6.7795389
-6.5350732
-6.2866693
-6.0344767
-5.7786471
-5.5193347
-5.2566954
-4.9908875
-4.7220709
-4.4504076
-4.176061
-3.8991965
-3.6199806
-3.3385817
-3.0551691
-2.7699136
-2.482987
-2.194562
-1.9048125
-1.6139129
-1.3220386
-1.0293653
-0.73606935
-0.44232752
-0.14831674
0.14578582
0.43980297
0.73355755
1.0268725
1.3195712
1.6114771
1.9024144
2.1922078
2.4806825
2.7676648
3.0529817
3.3364612
3.6179326
3.897226
4.1741733
4.4486075
4.7203632
4.9892766
5.2551855
5.5179299
5.7773512
6.033293
6.2856013
6.5341238
6.7787107
7.0192147
7.2554908
7.4873965
7.714792
7.9375404
8.1555073
8.3685614
8.5765742
8.7794203
8.9769776
9.1691268
9.3557523
9.5367414
9.7119851
9.8813779
10.044817
10.202205
10.353447
10.498451
10.637129
10.769399
10.895181
11.014399
11.12698
11.232858
11.331968
11.42425
11.509649
11.588114
11.659597
11.724055
11.781449
11.831745
11.874912
11.910925
11.939761
11.961403
11.975838
11.983058
11.983058
11.975838
11.961403
11.939761
11.910925
11.874912
11.831745
11.781449
11.724055
11.659597
11.588114
11.509649
11.42425
11.331968
11.232858
11.12698
11.014399
10.895181
10.769399
10.637129
10.498451
10.353447
10.202205
10.044817
9.8813779
9.7119851
9.5367414
9.3557523
9.1691268
8.9769776
8.7794203
8.5765742
8.3685614
8.1555073
7.9375404
7.714792
7.4873965
7.2554908
7.0192147
6.7787107
6.5341238
6.2856013
6.033293
5.7773512
5.5179299
5.2551855
4.9892766
4.7203632
4.4486075
4.1741733
3.897226
3.6179326
3.3364612
3.0529817
2.7676648
2.4806825
2.1922078
1.9024144
1.6114771
1.3195712
1.0268725
0.73355755
0.43980298
0.14578583
-0.14831674
-0.44232751
-0.73606935
-1.0293653
-1.3220386
-1.6139129
-1.9048125
-2.194562
-2.482987
-2.7699136
-3.0551691
-3.3385817
-3.6199806
-3.8991965
-4.176061
-4.4504076
-4.7220709
-4.9908875
-5.2566954
-5.5193347
-5.7786471
-6.0344767
-6.2866693
-6.5350732
-6.7795389
-7.0199192
-7.2560695
-7.4878476
-7.715114
-7.9377321
-8.1555678
-8.36849
-8.5763708
-8.7790849
-8.9765105
-9.1685288
-9.3550244
-9.5358849
-9.7110017
-9.8802694
-10.043586
-10.200854
-10.351978
-10.496868
-10.635436
-10.767599
-10.893277
-11.012396
-11.124883
-11.230671
-11.329696
-11.421899
-11.507224
-11.58562
-11.657039
-11.72144
-11.778783
-11.829034
-11.872162
-11.908142
-11.936952
-11.958574
-11.972997
-11.98021
-12.023246
-12.016007
-12.001532
-11.979832
-11.950919
-11.91481
-11.871527
-11.821095
-11.763547
-11.698915
-11.627238
-11.548561
-11.462929
-11.370395
-11.271015
-11.164847
-11.051956
-10.932409
-10.806279
-10.673642
-10.534576
-10.389166
-10.237499
-10.079666
-9.9157627
-9.745887
-9.5701411
-9.3886308
-9.2014653
-9.0087572
-8.8106223
-8.6071799
-8.3985523
-8.184865
-7.9662467
-7.7428288
-7.5147458
-7.2821349
-7.0451362
-6.8038921
-6.558548
-6.3092515
-6.0561527
-5.7994039
-5.5391596
-5.2755766
-5.0088135
-4.739031
-4.4663914
-4.191059
-3.9131996
-3.6329804
-3.3505703
-3.0661393
-2.7798587
-2.491901
-2.2024396
-1.9116489
-1.6197041
-1.326781
-1.033056
-0.73870626
-0.44390898
-0.14884181
0.14631746
0.44139098
0.73620096
1.0305698
1.32432
1.6172746
1.9092571
2.2000914
2.4896025
2.7776156
3.0639574
3.3484551
3.6309374
3.911234
4.189176
4.4645958
4.7373274
5.0072064
5.2740703
5.537758
5.7981108
6.0549717
6.3081858
6.5576005
6.8030655
7.0444329
7.2815571
7.5142953
7.742507
7.9660549
8.1848041
8.3986229
8.6073822
8.8109563
9.0092225
9.2020612
9.3893563
9.5709949
9.7468674
9.9168679
10.080894
10.238846
10.390631
10.536154
10.675331
10.808075
10.934308
11.053953
11.166939
11.273196
11.372661
11.465275
11.55098
11.629726
11.701466
11.766155
11.823755
11.874231
11.917553
11.953695
11.982634
12.004354
12.018841
12.026087
12.026087
12.018841
12.004354
11.982634
11.953695
11.917553
11.874231
11.823755
11.766155
11.701466
11.629726
11.55098
11.465275
11.372661
11.273196
11.166939
11.053953
10.934308
10.808075
10.675331
10.536154
10.390631
10.238846
10.080894
9.9168679
9.7468674
9.5709949
9.3893563
9.2020612
9.0092225
8.8109563
8.6073822
8.3986229
8.1848041
7.9660549
7.742507
7.5142953
7.2815571
7.0444329
6.8030655
6.5576005
6.3081858
6.0549717
5.7981108
5.537758
5.2740703
5.0072064
4.7373274
4.4645958
4.189176
3.911234
3.6309374
3.3484551
3.0639574
2.7776156
2.4896025
2.2000914
1.9092571
1.6172746
1.32432
1.0305698
0.73620097
0.44139099
0.14631746
-0.1488418
-0.44390897
-0.73870625
-1.033056
-1.326781
-1.6197041
-1.9116489
-2.2024396
-2.491901
-2.7798587
-3.0661393
-3.3505703
-3.6329804
-3.9131996
-4.191059
-4.4663914
-4.739031
-5.0088135
-5.2755766
-5.5391596
-5.7994039
-6.0561527
-6.3092515
-6.558548
-6.8038921
-7.0451362
-7.2821349
-7.5147458
-7.7428288
-7.9662467
-8.184865
-8.3985523
-8.6071799
-8.8106223
-9.0087572
-9.2014653
-9.3886308
-9.5701411
-9.745887
-9.9157627
-10.079666
-10.237499
-10.389166
-10.534576
-10.673642
-10.806279
-10.932409
-11.051956
-11.164847
-11.271015
-11.370395
-11.462929
-11.548561
-11.627238
-11.698915
-11.763547
-11.821095
-11.871527
-11.91481
-11.950919
-11.979832
-12.001532
-12.016007
-12.023246
-12.073519
-12.066249
-12.051715
-12.029924
-12.000889
-11.964629
-11.921165
-11.870523
-11.812734
-11.747832
-11.675856
-11.59685
-11.51086
-11.41794
-11.318144
-11.211532
-11.098169
-10.978123
-10.851466
-10.718274
-10.578627
-10.432609
-10.280308
-10.121815
-9.9572265
-9.7866406
-9.61016
-9.4278909
-9.2399429
-9.046429
-8.8474657
-8.6431726
-8.4336727
-8.219092
-7.9995595
-7.7752073
-7.5461706
-7.312587
-7.0745971
-6.8323442
-6.5859741
-6.335635
-6.0814777
-5.8236551
-5.5623224
-5.297637
-5.0297582
-4.7588473
-4.4850674
-4.2085834
-3.9295618
-3.6481705
-3.3645792
-3.0789585
-2.7914805
-2.5023184
-2.2116462
-1.9196392
-1.6264733
-1.332325
-1.0373715
-0.74179054
-0.44576025
-0.14945896
0.14693481
0.44324246
0.73928544
1.0348854
1.3298641
1.6240439
1.9172474
2.2092981
2.5000198
2.7892374
3.0767765
3.3624639
3.6461274
3.927596
4.2067
4.4832713
4.7571432
5.0281506
5.2961301
5.5609202
5.8223613
6.0802959
6.3345685
6.5850257
6.8315167
7.0738929
7.3120082
7.545719
7.7748845
7.9993666
8.21903
8.4337422
8.6433738
8.8477985
9.0468931
9.2405376
9.4286152
9.6110126
9.7876199
9.9583305
10.123042
10.281654
10.434072
10.580204
10.719962
10.853261
10.980021
11.100166
11.213623
11.320324
11.420205
11.513205
11.599268
11.678343
11.750382
11.815342
11.873182
11.923869
11.967372
12.003665
12.032725
12.054535
12.069083
12.076359
12.076359
12.069083
12.054535
12.032725
12.003665
11.967372
11.923869
11.873182
11.815342
11.750382
11.678343
11.599268
11.513205
11.420205
11.320324
11.213623
11.100166
10.980021
10.853261
10.719962
10.580204
10.434072
10.281654
10.123042
9.9583305
9.7876199
9.6110126
9.4286152
9.2405376
9.0468931
8.8477985
8.6433738
8.4337422
8.21903
7.9993666
7.7748845
7.545719
7.3120082
7.0738929
6.8315167
6.5850257
6.3345685
6.0802959
5.8223613
5.5609202
5.2961301
5.0281506
4.7571432
4.4832713
4.2067
3.927596
3.6461274
3.3624639
3.0767765
2.7892374
2.5000198
2.2092981
1.9172475
1.6240439
1.3298641
1.0348854
0.73928544
0.44324246
0.14693482
-0.14945895
-0.44576025
-0.74179054
-1.0373715
-1.3323249
-1.6264733
-1.9196392
-2.2116462
-2.5023184
-2.7914805
-3.0789585
-3.3645792
-3.6481705
-3.9295618
-4.2085834
-4.4850674
-4.7588473
-5.0297582
-5.297637
-5.5623224
-5.8236551
-6.0814777
-6.335635
-6.5859741
-6.8323442
-7.0745971
-7.312587
-7.5461706
-7.7752073
-7.9995595
-8.219092
-8.4336727
-8.6431726
-8.8474657
-9.046429
-9.2399429
-9.4278909
-9.61016
-9.7866406
-9.9572265
-10.121815
-10.280308
-10.432609
-10.578627
-10.718274
-10.851466
-10.978123
-11.098169
-11.211532
-11.318144
-11.41794
-11.51086
-11.59685
-11.675856
-11.747832
-11.812734
-11.870523
-11.921165
-11.964629
-12.000889
-12.029924
-12.051715
-12.066249
-12.073519
-12.131059
-12.123755
-12.109151
-12.087256
-12.058084
-12.021651
-11.97798
-11.927097
-11.869032
-11.803821
-11.731502
-11.65212
-11.565721
-11.472357
-11.372086
-11.264967
-11.151064
-11.030446
-10.903185
-10.769359
-10.629046
-10.482333
-10.329306
-10.170059
-10.004686
-9.8332871
-9.6559657
-9.4728281
-9.2839846
-9.0895486
-8.8896373
-8.6843707
-8.4738725
-8.2582691
-8.0376904
-7.8122691
-7.5821408
-7.347444
-7.1083198
-6.8649123
-6.6173679
-6.3658356
-6.1104668
-5.8514153
-5.5888369
-5.3228897
-5.053734
-4.7815317
-4.5064466
-4.2286446
-3.9482928
-3.6655601
-3.3806168
-3.0936344
-2.8047859
-2.5142452
-2.2221873
-1.9287882
-1.6342245
-1.3386738
-1.0423142
-0.74532406
-0.44788244
-0.15016854
0.14763826
0.44535853
0.74281284
1.039822
1.3362069
1.6317891
1.9263904
2.2198333
2.5119408
2.8025371
3.0914468
3.378496
3.6635115
3.9463217
4.2267561
4.5046456
4.7798227
5.0521217
5.3213783
5.5874303
5.8501174
6.1092811
6.3647653
6.616416
6.8640815
7.1076126
7.3468624
7.5816867
7.811944
8.0374956
8.2582054
8.4739405
8.6845707
8.8899692
9.0900122
9.284579
9.4735525
9.6568187
9.8342671
10.005791
10.171286
10.330654
10.483798
10.630626
10.771049
10.904983
11.032347
11.153064
11.267061
11.37427
11.474626
11.568069
11.654543
11.733994
11.806376
11.871645
11.929761
11.980689
12.024399
12.060864
12.090063
12.111977
12.126594
12.133905
12.133905
12.126594
12.111977
12.090063
12.060864
12.024399
11.980689
11.929761
11.871645
11.806376
11.733994
11.654543
11.568069
11.474626
11.37427
11.267061
11.153064
11.032347
10.904983
10.771049
10.630626
10.483798
10.330654
10.171286
10.005791
9.8342671
9.6568187
9.4735525
9.284579
9.0900122
8.8899692
8.6845707
8.4739405
8.2582054
8.0374956
7.811944
7.5816867
7.3468624
7.1076126
6.8640815
6.616416
6.3647653
6.1092811
5.8501174
5.5874303
5.3213783
5.0521217
4.7798227
4.5046456
4.2267561
3.9463217
3.6635115
3.378496
3.0914468
2.8025371
2.5119408
2.2198333
1.9263904
1.6317891
1.3362069
1.039822
0.74281285
0.44535853
0.14763827
-0.15016854
-0.44788244
-0.74532406
-1.0423142
-1.3386738
-1.6342245
-1.9287882
-2.2221873
-2.5142452
-2.8047859
-3.0936344
-3.3806168
-3.6655601
-3.9482928
-4.2286446
-4.5064466
-4.7815317
-5.053734
-5.3228897
-5.5888369
-5.8514153
-6.1104668
-6.3658356
-6.6173679
-6.8649123
-7.1083198
-7.347444
-7.5821408
-7.8122691
-8.0376904
-8.2582691
-8.4738725
-8.6843707
-8.8896373
-9.0895486
-9.2839846
-9.4728281
-9.6559657
-9.8332871
-10.004686
-10.170059
-10.329306
-10.482333
-10.629046
-10.769359
-10.903185
-11.030446
-11.151064
-11.264967
-11.372086
-11.472357
-11.565721
-11.65212
-11.731502
-11.803821
-11.869032
-11.927097
-11.97798
-12.021651
-12.058084
-12.087256
-12.109151
-12.123755
-12.131059
-12.195901
-12.188558
-12.173876
-12.151864
-12.122536
-12.085909
-12.042004
-11.99085
-11.932475
-11.866915
-11.79421
-11.714404
-11.627543
-11.533681
-11.432874
-11.325183
-11.210671
-11.089409
-10.961469
-10.826927
-10.685865
-10.538368
-10.384524
-10.224426
-10.058169
-9.8858547
-9.7075858
-9.5234697
-9.333617
-9.1381421
-8.9371625
-8.730799
-8.5191758
-8.3024202
-8.0806626
-7.8540365
-7.6226782
-7.3867269
-7.1463247
-6.9016161
-6.6527484
-6.3998716
-6.1431377
-5.8827012
-5.6187191
-5.3513502
-5.0807555
-4.8070979
-4.5305421
-4.2512548
-3.9694041
-3.6851597
-3.3986928
-3.110176
-2.819783
-2.5276888
-2.2340692
-1.9391013
-1.6429625
-1.3458315
-1.0478871
-0.74930893
-0.45027683
-0.15097099
0.14842825
0.44774047
0.74678532
1.0453826
1.3433524
1.640515
1.9366915
2.2317034
2.5253728
2.8175227
3.1079772
3.3965611
3.6831005
3.9674226
4.2493563
4.5287314
4.8053796
5.0791342
5.3498302
5.6173045
5.8813957
6.1419447
6.3987945
6.6517903
6.9007796
7.1456122
7.3861407
7.62222
7.8537079
8.0804648
8.3023541
8.519242
8.7309978
8.9374939
9.1386057
9.3342122
9.5241953
9.7084407
9.8868371
10.059277
10.225657
10.385876
10.539838
10.68745
10.828624
10.963273
11.091317
11.212679
11.327285
11.435067
11.535959
11.629901
11.716837
11.796713
11.869481
11.935098
11.993525
12.044725
12.088668
12.125328
12.154683
12.176714
12.191409
12.198759
12.198759
12.191409
12.176714
12.154683
12.125328
12.088668
12.044725
11.993525
11.935098
11.869481
11.796713
11.716837
11.629901
11.535959
11.435067
11.327285
11.212679
11.091317
10.963273
10.828624
10.68745
10.539838
10.385876
10.225657
10.059277
9.8868371
9.7084407
9.5241953
9.3342122
9.1386057
8.9374939
8.7309978
8.519242
8.3023541
8.0804648
7.8537079
7.62222
7.3861407
7.1456122
6.9007796
6.6517903
6.3987945
6.1419447
5.8813957
5.6173045
5.3498302
5.0791342
4.8053796
4.5287314
4.2493563
3.9674226
3.6831005
3.3965611
3.1079772
2.8175227
2.5253728
2.2317034
1.9366915
1.640515
1.3433524
1.0453826
0.74678532
0.44774047
0.14842825
-0.15097099
-0.45027683
-0.74930893
-1.0478871
-1.3458315
-1.6429625
-1.9391013
-2.2340692
-2.5276888
-2.819783
-3.110176
-3.3986928
-3.6851597
-3.9694041
-4.2512548
-4.5305421
-4.8070979
-5.0807555
-5.3513502
-5.6187191
-5.8827013
-6.1431377
-6.3998716
-6.6527484
-6.9016161
-7.1463247
-7.3867269
-7.6226782
-7.8540365
-8.0806626
-8.3024202
-8.5191758
-8.730799
-8.9371625
-9.1381421
-9.333617
-9.5234697
-9.7075858
-9.8858547
-10.058169
-10.224426
-10.384524
-10.538368
-10.685865
-10.826927
-10.961469
-11.089409
-11.210671
-11.325183
-11.432874
-11.533681
-11.627543
-11.714404
-11.79421
-11.866915
-11.932475
-11.99085
-12.042004
-12.085909
-12.122536
-12.151864
-12.173876
-12.188558
-12.195901
-12.268084
-12.260697
-12.245929
-12.223787
-12.194285
-12.157441
-12.113277
-12.06182
-12.0031
-11.937153
-11.864018
-11.783739
-11.696365
-11.601948
-11.500545
-11.392217
-11.277028
-11.155049
-11.026351
-10.891014
-10.749118
-10.600748
-10.445994
-10.284949
-10.117709
-9.9443749
-9.7650514
-9.579846
-9.3888701
-9.1922387
-8.9900699
-8.7824854
-8.56961
-8.3515718
-8.128502
-7.9005347
-7.6678073
-7.4304596
-7.1886345
-6.9424776
-6.692137
-6.4377634
-6.1795099
-5.9175319
-5.6519872
-5.3830356
-5.110839
-4.8355614
-4.5573684
-4.2764277
-3.9929083
-3.7069811
-3.4188182
-3.1285932
-2.8364809
-2.5426572
-2.2472992
-1.9505847
-1.6526926
-1.3538022
-1.0540937
-0.75374757
-0.45294486
-0.15186679
0.14930524
0.45038973
0.75120526
1.0515706
1.3513046
1.6502268
1.948157
2.2449156
2.5403237
2.8342035
3.1263776
3.4166701
3.7049059
3.9909114
4.2745142
4.5555433
4.8338293
5.1092045
5.381503
5.6505606
5.9162151
6.1783065
6.4366766
6.6911699
6.941633
7.1879147
7.4298668
7.6673434
7.9002013
8.1283003
8.3515027
8.5696741
8.782683
8.9904011
9.192703
9.3894669
9.5805742
9.7659097
9.9453618
10.118822
10.286186
10.447353
10.602226
10.750712
10.89272
11.028166
11.156968
11.279047
11.394332
11.502751
11.60424
11.698738
11.786188
11.866536
11.939735
12.00574
12.064512
12.116015
12.160219
12.197096
12.226624
12.248786
12.263568
12.270961
12.270961
12.263568
12.248786
12.226624
12.197096
12.160219
12.116015
12.064512
12.00574
11.939735
11.866536
11.786188
11.698738
11.60424
11.502751
11.394332
11.279047
11.156968
11.028166
10.89272
10.750712
10.602226
10.447353
10.286186
10.118822
9.9453618
9.7659097
9.5805742
9.3894669
9.192703
8.9904011
8.782683
8.5696741
8.3515027
8.1283003
7.9002013
7.6673434
7.4298668
7.1879147
6.941633
6.6911699
6.4366766
6.1783065
5.9162151
5.6505606
5.381503
5.1092045
4.8338293
4.5555433
4.2745142
3.9909114
3.7049059
3.4166701
3.1263776
2.8342035
2.5403237
2.2449156
1.948157
1.6502268
1.3513046
1.0515706
0.75120527
0.45038973
0.14930524
-0.15186679
-0.45294486
-0.75374757
-1.0540937
-1.3538022
-1.6526926
-1.9505847
-2.2472992
-2.5426572
-2.8364809
-3.1285932
-3.4188182
-3.7069811
-3.9929083
-4.2764277
-4.5573684
-4.8355614
-5.110839
-5.3830356
-5.6519872
-5.9175319
-6.1795099
-6.4377634
-6.6921371
-6.9424776
-7.1886345
-7.4304596
-7.6678073
-7.9005347
-8.128502
-8.3515718
-8.56961
-8.7824854
-8.9900699
-9.1922387