/*--------------------------------*- C++ -*----------------------------------*\
| =========                 |                                                 |
| \\      /  F ield         | OpenFOAM: The Open Source CFD Toolbox           |
|  \\    /   O peration     | Version:  2106                                  |
|   \\  /    A nd           | Website:  www.openfoam.com                      |
|    \\/     M anipulation  |                                                 |
\*---------------------------------------------------------------------------*/
FoamFile
{
    version     2.0;
    format      ascii;
    arch        "LSB;label=32;scalar=64";
    class       surfaceScalarField;
    location    "0.023";
    object      phi;
}
// * * * * * * * * * * * * * * * * * * * * * * * * * * * * * * * * * * * * * //

dimensions      [0 3 -1 0 0 0 0];

oriented        oriented;

internalField   nonuniform List<scalar> 
130560
(
-5.6544562e-07
5.6544561e-07
-1.1310739e-06
5.6562828e-07
-1.6970661e-06
5.6599224e-07
-2.2636009e-06
5.6653474e-07
-2.8308526e-06
5.6725169e-07
-3.3989902e-06
5.6813762e-07
-3.9681759e-06
5.6918573e-07
-4.5385638e-06
5.7038792e-07
-5.1102986e-06
5.7173478e-07
-5.6835143e-06
5.7321566e-07
-6.2583329e-06
5.7481866e-07
-6.8348636e-06
5.7653069e-07
-7.4132011e-06
5.783375e-07
-7.9934248e-06
5.802237e-07
-8.5755976e-06
5.8217284e-07
-9.1597651e-06
5.8416746e-07
-9.7459542e-06
5.8618908e-07
-1.0334173e-05
5.8821834e-07
-1.0924407e-05
5.9023498e-07
-1.1516625e-05
5.9221796e-07
-1.2110771e-05
5.9414547e-07
-1.2706766e-05
5.9599504e-07
-1.330451e-05
5.9774357e-07
-1.3903877e-05
5.9936741e-07
-1.4504719e-05
6.0084244e-07
-1.5106863e-05
6.0214411e-07
-1.5710111e-05
6.0324756e-07
-1.6314239e-05
6.0412762e-07
-1.6918998e-05
6.0475898e-07
-1.7524114e-05
6.0511618e-07
-1.8129288e-05
6.0517374e-07
-1.8734194e-05
6.0490618e-07
-1.9338482e-05
6.0428818e-07
-1.9941776e-05
6.0329456e-07
-2.0543677e-05
6.0190044e-07
-2.1143758e-05
6.0008124e-07
-2.1741571e-05
5.9781283e-07
-2.2336643e-05
5.9507155e-07
-2.2928477e-05
5.9183428e-07
-2.3516555e-05
5.8807856e-07
-2.4100338e-05
5.8378263e-07
-2.4679263e-05
5.7892547e-07
-2.525275e-05
5.7348695e-07
-2.5820198e-05
5.6744779e-07
-2.6380988e-05
5.6078972e-07
-2.6934483e-05
5.5349548e-07
-2.7480032e-05
5.4554892e-07
-2.8016967e-05
5.3693501e-07
-2.8544607e-05
5.2763996e-07
-2.9062258e-05
5.176512e-07
-2.9569216e-05
5.0695749e-07
-3.0064765e-05
4.9554894e-07
-3.0548182e-05
4.8341704e-07
-3.1018737e-05
4.7055474e-07
-3.1475693e-05
4.5695646e-07
-3.1918311e-05
4.4261811e-07
-3.2345848e-05
4.2753718e-07
-3.2757561e-05
4.117127e-07
-3.3152706e-05
3.951453e-07
-3.3530544e-05
3.7783723e-07
-3.3890336e-05
3.5979238e-07
-3.4231352e-05
3.4101627e-07
-3.4552868e-05
3.215161e-07
-3.4854169e-05
3.0130072e-07
-3.513455e-05
2.8038063e-07
-3.5393318e-05
2.5876804e-07
-3.5629795e-05
2.3647677e-07
-3.5843317e-05
2.1352232e-07
-3.6033239e-05
1.8992183e-07
-3.6198933e-05
1.6569405e-07
-3.6339792e-05
1.4085934e-07
-3.6455232e-05
1.1543964e-07
-3.654469e-05
8.945844e-08
-3.6607631e-05
6.294075e-08
-3.6643544e-05
3.591305e-08
-3.6651947e-05
8.403527e-09
-3.663239e-05
-1.955767e-08
-3.6584447e-05
-4.7943214e-08
-3.6507729e-05
-7.6717627e-08
-3.640188e-05
-1.0584869e-07
-3.6266578e-05
-1.3530205e-07
-3.6101536e-05
-1.6504204e-07
-3.5906504e-05
-1.9503199e-07
-3.568127e-05
-2.2523422e-07
-3.542566e-05
-2.5561008e-07
-3.513954e-05
-2.8612006e-07
-3.4822816e-05
-3.1672384e-07
-3.4475436e-05
-3.4738039e-07
-3.4097388e-05
-3.78048e-07
-3.3688703e-05
-4.0868443e-07
-3.3249456e-05
-4.3924694e-07
-3.2779764e-05
-4.6969239e-07
-3.2279787e-05
-4.9997732e-07
-3.1749729e-05
-5.3005804e-07
-3.1189838e-05
-5.5989074e-07
-3.0600406e-05
-5.8943153e-07
-2.998177e-05
-6.1863657e-07
-2.9334308e-05
-6.4746214e-07
-2.8658443e-05
-6.7586475e-07
-2.7954642e-05
-7.038012e-07
-2.7223413e-05
-7.3122871e-07
-2.6465308e-05
-7.5810497e-07
-2.568092e-05
-7.8438825e-07
-2.4870882e-05
-8.1003749e-07
-2.403587e-05
-8.3501238e-07
-2.3176596e-05
-8.5927346e-07
-2.2293814e-05
-8.8278219e-07
-2.1388313e-05
-9.0550104e-07
-2.046092e-05
-9.2739356e-07
-1.9512495e-05
-9.4842449e-07
-1.8543935e-05
-9.6855979e-07
-1.7556169e-05
-9.8776677e-07
-1.6550154e-05
-1.0060141e-06
-1.5526882e-05
-1.023272e-06
-1.448737e-05
-1.039512e-06
-1.3432663e-05
-1.0547075e-06
-1.2363829e-05
-1.0688335e-06
-1.1281963e-05
-1.0818664e-06
-1.0188178e-05
-1.0937848e-06
-9.0836096e-06
-1.1045687e-06
-7.9694093e-06
-1.1142003e-06
-6.8467458e-06
-1.1226635e-06
-5.7168016e-06
-1.1299442e-06
-4.5807714e-06
-1.1360301e-06
-3.4398603e-06
-1.1409112e-06
-2.2952811e-06
-1.1445791e-06
-1.1482533e-06
-1.1470279e-06
6.8536382e-15
-1.1482533e-06
1.1482533e-06
-1.1482533e-06
2.2952811e-06
-1.1470279e-06
3.4398603e-06
-1.1445791e-06
4.5807715e-06
-1.1409112e-06
5.7168016e-06
-1.1360301e-06
6.8467458e-06
-1.1299442e-06
7.9694093e-06
-1.1226635e-06
9.0836096e-06
-1.1142003e-06
1.0188178e-05
-1.1045687e-06
1.1281963e-05
-1.0937848e-06
1.2363829e-05
-1.0818664e-06
1.3432663e-05
-1.0688335e-06
1.448737e-05
-1.0547075e-06
1.5526883e-05
-1.039512e-06
1.6550154e-05
-1.023272e-06
1.7556169e-05
-1.0060141e-06
1.8543935e-05
-9.8776677e-07
1.9512495e-05
-9.6855979e-07
2.046092e-05
-9.4842449e-07
2.1388313e-05
-9.2739356e-07
2.2293814e-05
-9.0550104e-07
2.3176596e-05
-8.8278219e-07
2.403587e-05
-8.5927346e-07
2.4870882e-05
-8.3501238e-07
2.568092e-05
-8.1003749e-07
2.6465308e-05
-7.8438825e-07
2.7223413e-05
-7.5810497e-07
2.7954642e-05
-7.3122871e-07
2.8658443e-05
-7.038012e-07
2.9334308e-05
-6.7586475e-07
2.998177e-05
-6.4746214e-07
3.0600406e-05
-6.1863657e-07
3.1189838e-05
-5.8943153e-07
3.1749729e-05
-5.5989074e-07
3.2279787e-05
-5.3005804e-07
3.2779764e-05
-4.9997732e-07
3.3249456e-05
-4.6969239e-07
3.3688703e-05
-4.3924694e-07
3.4097388e-05
-4.0868443e-07
3.4475436e-05
-3.78048e-07
3.4822816e-05
-3.4738039e-07
3.513954e-05
-3.1672384e-07
3.542566e-05
-2.8612006e-07
3.568127e-05
-2.5561008e-07
3.5906504e-05
-2.2523422e-07
3.6101536e-05
-1.9503199e-07
3.6266578e-05
-1.6504204e-07
3.640188e-05
-1.3530205e-07
3.6507729e-05
-1.0584869e-07
3.6584447e-05
-7.6717626e-08
3.663239e-05
-4.7943213e-08
3.6651947e-05
-1.9557669e-08
3.6643544e-05
8.4035275e-09
3.6607631e-05
3.591305e-08
3.654469e-05
6.294075e-08
3.6455232e-05
8.945844e-08
3.6339792e-05
1.1543964e-07
3.6198933e-05
1.4085934e-07
3.6033239e-05
1.6569405e-07
3.5843317e-05
1.8992183e-07
3.5629795e-05
2.1352232e-07
3.5393318e-05
2.3647677e-07
3.513455e-05
2.5876804e-07
3.4854169e-05
2.8038064e-07
3.4552868e-05
3.0130072e-07
3.4231352e-05
3.215161e-07
3.3890336e-05
3.4101627e-07
3.3530544e-05
3.5979238e-07
3.3152706e-05
3.7783723e-07
3.2757561e-05
3.951453e-07
3.2345848e-05
4.117127e-07
3.1918311e-05
4.2753718e-07
3.1475693e-05
4.4261811e-07
3.1018737e-05
4.5695646e-07
3.0548182e-05
4.7055474e-07
3.0064765e-05
4.8341704e-07
2.9569216e-05
4.9554894e-07
2.9062258e-05
5.0695749e-07
2.8544607e-05
5.176512e-07
2.8016967e-05
5.2763996e-07
2.7480032e-05
5.3693501e-07
2.6934483e-05
5.4554892e-07
2.6380988e-05
5.5349548e-07
2.5820198e-05
5.6078972e-07
2.525275e-05
5.6744779e-07
2.4679263e-05
5.7348695e-07
2.4100338e-05
5.7892547e-07
2.3516555e-05
5.8378263e-07
2.2928477e-05
5.8807856e-07
2.2336642e-05
5.9183428e-07
2.1741571e-05
5.9507155e-07
2.1143758e-05
5.9781283e-07
2.0543677e-05
6.0008124e-07
1.9941776e-05
6.0190044e-07
1.9338482e-05
6.0329456e-07
1.8734194e-05
6.0428818e-07
1.8129288e-05
6.0490618e-07
1.7524114e-05
6.0517374e-07
1.6918998e-05
6.0511618e-07
1.6314239e-05
6.0475898e-07
1.5710111e-05
6.0412762e-07
1.5106863e-05
6.0324756e-07
1.4504719e-05
6.0214412e-07
1.3903877e-05
6.0084244e-07
1.330451e-05
5.9936741e-07
1.2706766e-05
5.9774357e-07
1.2110771e-05
5.9599504e-07
1.1516625e-05
5.9414547e-07
1.0924407e-05
5.9221796e-07
1.0334172e-05
5.9023498e-07
9.7459542e-06
5.8821834e-07
9.1597651e-06
5.8618908e-07
8.5755976e-06
5.8416746e-07
7.9934248e-06
5.8217284e-07
7.4132011e-06
5.802237e-07
6.8348636e-06
5.783375e-07
6.2583329e-06
5.7653069e-07
5.6835142e-06
5.7481866e-07
5.1102986e-06
5.7321566e-07
4.5385638e-06
5.7173478e-07
3.9681759e-06
5.7038792e-07
3.3989902e-06
5.6918573e-07
2.8308525e-06
5.6813762e-07
2.2636009e-06
5.672517e-07
1.6970661e-06
5.6653475e-07
1.1310739e-06
5.6599224e-07
5.6544561e-07
5.6562827e-07
5.6544561e-07
-5.6231435e-07
1.1277599e-06
-1.1248143e-06
1.1281282e-06
-1.6876841e-06
1.128862e-06
-2.2511051e-06
1.1299558e-06
-2.8152548e-06
1.1314014e-06
-3.380305e-06
1.1331878e-06
-3.9464208e-06
1.1353015e-06
-4.5137591e-06
1.1377262e-06
-5.0824673e-06
1.140443e-06
-5.6526823e-06
1.1434307e-06
-6.224529e-06
1.1466653e-06
-6.798119e-06
1.1501207e-06
-7.3735498e-06
1.1537683e-06
-7.9509034e-06
1.1575773e-06
-8.5302453e-06
1.1615147e-06
-9.1116234e-06
1.1655456e-06
-9.6950672e-06
1.1696329e-06
-1.0280587e-05
1.1737378e-06
-1.0868172e-05
1.1778198e-06
-1.145779e-05
1.1818368e-06
-1.204939e-05
1.1857449e-06
-1.2642894e-05
1.1894993e-06
-1.3238204e-05
1.1930536e-06
-1.3835197e-05
1.1963604e-06
-1.4433726e-05
1.1993715e-06
-1.503362e-05
1.2020376e-06
-1.5634681e-05
1.2043089e-06
-1.6236689e-05
1.2061351e-06
-1.6839395e-05
1.2074654e-06
-1.7442528e-05
1.2082488e-06
-1.8045788e-05
1.2084342e-06
-1.8648852e-05
1.2079706e-06
-1.9251372e-05
1.2068072e-06
-1.9852971e-05
1.2048937e-06
-2.045325e-05
1.2021801e-06
-2.1051786e-05
1.1986172e-06
-2.164813e-05
1.1941567e-06
-2.224181e-05
1.1887511e-06
-2.2832329e-05
1.1823541e-06
-2.3419172e-05
1.1749206e-06
-2.4001796e-05
1.1664072e-06
-2.4579642e-05
1.1567715e-06
-2.5152129e-05
1.1459734e-06
-2.5718655e-05
1.1339741e-06
-2.6278602e-05
1.120737e-06
-2.6831334e-05
1.1062275e-06
-2.7376198e-05
1.0904132e-06
-2.7912527e-05
1.073264e-06
-2.843964e-05
1.0547521e-06
-2.8956841e-05
1.0348525e-06
-2.9463426e-05
1.0135424e-06
-2.9958679e-05
9.9080215e-07
-3.0441877e-05
9.6661453e-07
-3.0912287e-05
9.4096539e-07
-3.1369174e-05
9.1384349e-07
-3.1811797e-05
8.8524062e-07
-3.2239411e-05
8.5515164e-07
-3.2651273e-05
8.2357458e-07
-3.3046638e-05
7.9051062e-07
-3.3424765e-05
7.5596422e-07
-3.3784916e-05
7.1994308e-07
-3.4126358e-05
6.8245821e-07
-3.4448366e-05
6.4352393e-07
-3.4750223e-05
6.0315789e-07
-3.5031223e-05
5.6138109e-07
-3.5290673e-05
5.1821784e-07
-3.5527892e-05
4.736958e-07
-3.5742216e-05
4.2784592e-07
-3.5932996e-05
3.8070242e-07
-3.6099605e-05
3.3230281e-07
-3.6241434e-05
2.8268777e-07
-3.6357895e-05
2.3190115e-07
-3.6448427e-05
1.7998993e-07
-3.651249e-05
1.2700411e-07
-3.6549574e-05
7.2996692e-08
-3.6559194e-05
1.8023702e-08
-3.6540895e-05
-3.7856196e-08
-3.6494256e-05
-9.4582336e-08
-3.6418884e-05
-1.5209004e-07
-3.631442e-05
-2.1031276e-07
-3.618054e-05
-2.6918163e-07
-3.6016957e-05
-3.2862543e-07
-3.5823418e-05
-3.8857078e-07
-3.559971e-05
-4.489423e-07
-3.5345657e-05
-5.0966269e-07
-3.5061124e-05
-5.7065288e-07
-3.4746016e-05
-6.3183223e-07
-3.4400278e-05
-6.9311863e-07
-3.4023897e-05
-7.5442866e-07
-3.3616904e-05
-8.1567779e-07
-3.317937e-05
-8.7678051e-07
-3.2711412e-05
-9.3765049e-07
-3.2213189e-05
-9.9820079e-07
-3.1684903e-05
-1.058344e-06
-3.1126801e-05
-1.1179924e-06
-3.0539174e-05
-1.1770582e-06
-2.9922357e-05
-1.2354538e-06
-2.9276728e-05
-1.2930915e-06
-2.8602708e-05
-1.3498843e-06
-2.7900763e-05
-1.4057459e-06
-2.7171401e-05
-1.4605906e-06
-2.6415173e-05
-1.5143337e-06
-2.5632669e-05
-1.5668918e-06
-2.4824524e-05
-1.6181826e-06
-2.3991411e-05
-1.6681255e-06
-2.3134043e-05
-1.7166415e-06
-2.2253172e-05
-1.7636535e-06
-2.1349586e-05
-1.8090864e-06
-2.0424113e-05
-1.8528672e-06
-1.9477612e-05
-1.8949253e-06
-1.8510979e-05
-1.9351927e-06
-1.7525142e-05
-1.9736039e-06
-1.652106e-05
-2.0100963e-06
-1.5499722e-05
-2.04461e-06
-1.4462145e-05
-2.0770884e-06
-1.3409375e-05
-2.1074781e-06
-1.2342479e-05
-2.1357288e-06
-1.1262552e-05
-2.1617938e-06
-1.0170707e-05
-2.1856298e-06
-9.0680784e-06
-2.2071971e-06
-7.9558188e-06
-2.2264599e-06
-6.8350963e-06
-2.243386e-06
-5.7070934e-06
-2.2579471e-06
-4.5730048e-06
-2.2701188e-06
-3.4340352e-06
-2.2798808e-06
-2.2913977e-06
-2.2872166e-06
-1.1463115e-06
-2.292114e-06
6.8680683e-15
-2.2945648e-06
1.1463115e-06
-2.2945648e-06
2.2913977e-06
-2.292114e-06
3.4340352e-06
-2.2872166e-06
4.5730048e-06
-2.2798808e-06
5.7070934e-06
-2.2701188e-06
6.8350963e-06
-2.2579471e-06
7.9558188e-06
-2.243386e-06
9.0680784e-06
-2.2264599e-06
1.0170707e-05
-2.2071971e-06
1.1262552e-05
-2.1856298e-06
1.2342479e-05
-2.1617938e-06
1.3409375e-05
-2.1357288e-06
1.4462145e-05
-2.1074781e-06
1.5499722e-05
-2.0770884e-06
1.652106e-05
-2.04461e-06
1.7525142e-05
-2.0100963e-06
1.8510979e-05
-1.9736039e-06
1.9477612e-05
-1.9351927e-06
2.0424113e-05
-1.8949253e-06
2.1349586e-05
-1.8528672e-06
2.2253172e-05
-1.8090864e-06
2.3134043e-05
-1.7636535e-06
2.3991411e-05
-1.7166415e-06
2.4824524e-05
-1.6681255e-06
2.5632669e-05
-1.6181826e-06
2.6415173e-05
-1.5668918e-06
2.7171401e-05
-1.5143337e-06
2.7900763e-05
-1.4605906e-06
2.8602708e-05
-1.4057459e-06
2.9276728e-05
-1.3498843e-06
2.9922357e-05
-1.2930915e-06
3.0539174e-05
-1.2354538e-06
3.1126801e-05
-1.1770582e-06
3.1684903e-05
-1.1179924e-06
3.2213189e-05
-1.058344e-06
3.2711412e-05
-9.9820079e-07
3.317937e-05
-9.3765049e-07
3.3616904e-05
-8.7678051e-07
3.4023897e-05
-8.1567779e-07
3.4400278e-05
-7.5442866e-07
3.4746016e-05
-6.9311863e-07
3.5061124e-05
-6.3183224e-07
3.5345657e-05
-5.7065288e-07
3.559971e-05
-5.0966269e-07
3.5823418e-05
-4.489423e-07
3.6016957e-05
-3.8857078e-07
3.618054e-05
-3.2862543e-07
3.631442e-05
-2.6918163e-07
3.6418884e-05
-2.1031276e-07
3.6494256e-05
-1.5209003e-07
3.6540895e-05
-9.4582336e-08
3.6559194e-05
-3.7856196e-08
3.6549574e-05
1.8023703e-08
3.651249e-05
7.2996693e-08
3.6448427e-05
1.2700411e-07
3.6357895e-05
1.7998993e-07
3.6241434e-05
2.3190115e-07
3.6099605e-05
2.8268777e-07
3.5932997e-05
3.3230281e-07
3.5742216e-05
3.8070243e-07
3.5527892e-05
4.2784592e-07
3.5290673e-05
4.736958e-07
3.5031223e-05
5.1821784e-07
3.4750223e-05
5.6138109e-07
3.4448366e-05
6.0315789e-07
3.4126358e-05
6.4352393e-07
3.3784916e-05
6.8245821e-07
3.3424765e-05
7.1994308e-07
3.3046638e-05
7.5596422e-07
3.2651273e-05
7.9051062e-07
3.2239411e-05
8.2357458e-07
3.1811797e-05
8.5515164e-07
3.1369174e-05
8.8524062e-07
3.0912287e-05
9.1384349e-07
3.0441877e-05
9.4096539e-07
2.9958679e-05
9.6661453e-07
2.9463426e-05
9.9080215e-07
2.8956841e-05
1.0135424e-06
2.843964e-05
1.0348525e-06
2.7912527e-05
1.0547521e-06
2.7376198e-05
1.073264e-06
2.6831334e-05
1.0904132e-06
2.6278602e-05
1.1062275e-06
2.5718655e-05
1.120737e-06
2.5152129e-05
1.1339741e-06
2.4579642e-05
1.1459734e-06
2.4001796e-05
1.1567715e-06
2.3419172e-05
1.1664072e-06
2.2832329e-05
1.1749206e-06
2.224181e-05
1.1823541e-06
2.164813e-05
1.1887511e-06
2.1051786e-05
1.1941567e-06
2.045325e-05
1.1986172e-06
1.9852971e-05
1.2021801e-06
1.9251371e-05
1.2048937e-06
1.8648852e-05
1.2068072e-06
1.8045788e-05
1.2079706e-06
1.7442528e-05
1.2084342e-06
1.6839395e-05
1.2082488e-06
1.6236689e-05
1.2074654e-06
1.5634681e-05
1.2061351e-06
1.503362e-05
1.204309e-06
1.4433726e-05
1.2020376e-06
1.3835197e-05
1.1993715e-06
1.3238204e-05
1.1963604e-06
1.2642894e-05
1.1930536e-06
1.204939e-05
1.1894993e-06
1.145779e-05
1.1857449e-06
1.0868172e-05
1.1818368e-06
1.0280587e-05
1.1778198e-06
9.6950672e-06
1.1737378e-06
9.1116234e-06
1.1696329e-06
8.5302453e-06
1.1655456e-06
7.9509034e-06
1.1615147e-06
7.3735498e-06
1.1575773e-06
6.798119e-06
1.1537683e-06
6.224529e-06
1.1501207e-06
5.6526823e-06
1.1466653e-06
5.0824673e-06
1.1434307e-06
4.5137591e-06
1.140443e-06
3.9464208e-06
1.1377262e-06
3.380305e-06
1.1353015e-06
2.8152548e-06
1.1331878e-06
2.2511051e-06
1.1314014e-06
1.687684e-06
1.1299558e-06
1.1248143e-06
1.128862e-06
5.6231433e-07
1.1281282e-06
1.1277599e-06
-5.5616744e-07
1.6839274e-06
-1.1125257e-06
1.6844864e-06
-1.669264e-06
1.6856004e-06
-2.2265692e-06
1.687261e-06
-2.7846236e-06
1.6894558e-06
-3.3436042e-06
1.6921685e-06
-3.9036812e-06
1.6953785e-06
-4.4650165e-06
1.6990615e-06
-5.0277626e-06
1.7031891e-06
-5.5920612e-06
1.7077293e-06
-6.158042e-06
1.7126462e-06
-6.7258216e-06
1.7179003e-06
-7.2955022e-06
1.7234488e-06
-7.8671703e-06
1.7292454e-06
-8.4408961e-06
1.7352405e-06
-9.016732e-06
1.7413815e-06
-9.5947119e-06
1.7476127e-06
-1.017485e-05
1.7538759e-06
-1.075714e-05
1.76011e-06
-1.1341555e-05
1.7662517e-06
-1.1928046e-05
1.7722353e-06
-1.2516539e-05
1.7779931e-06
-1.3106941e-05
1.7834556e-06
-1.3699132e-05
1.7885514e-06
-1.4292969e-05
1.793208e-06
-1.4888283e-05
1.7973514e-06
-1.548488e-05
1.8009066e-06
-1.6082543e-05
1.803798e-06
-1.6681027e-05
1.8059493e-06
-1.7280062e-05
1.8072837e-06
-1.7879352e-05
1.8077244e-06
-1.8478576e-05
1.8071948e-06
-1.9077388e-05
1.8056185e-06
-1.9675413e-05
1.8029196e-06
-2.0272257e-05
1.7990232e-06
-2.0867495e-05
1.7938552e-06
-2.1460681e-05
1.7873428e-06
-2.2051344e-05
1.7794148e-06
-2.2638992e-05
1.7700014e-06
-2.3223106e-05
1.759035e-06
-2.3803149e-05
1.7464498e-06
-2.437856e-05
1.7321826e-06
-2.4948759e-05
1.7161725e-06
-2.5513146e-05
1.6983614e-06
-2.6071103e-05
1.6786943e-06
-2.6621995e-05
1.6571189e-06
-2.7165168e-05
1.6335865e-06
-2.7699956e-05
1.6080517e-06
-2.8225676e-05
1.5804728e-06
-2.8741636e-05
1.5508118e-06
-2.9247128e-05
1.5190347e-06
-2.9741437e-05
1.4851115e-06
-3.0223839e-05
1.4490164e-06
-3.0693602e-05
1.410728e-06
-3.1149987e-05
1.3702292e-06
-3.1592254e-05
1.3275076e-06
-3.2019658e-05
1.2825552e-06
-3.2431452e-05
1.2353691e-06
-3.2826893e-05
1.1859508e-06
-3.3205235e-05
1.1343069e-06
-3.3565741e-05
1.0804487e-06
-3.3907675e-05
1.0243927e-06
-3.4230312e-05
9.6616025e-07
-3.4532931e-05
9.0577766e-07
-3.4814827e-05
8.4327632e-07
-3.5075301e-05
7.7869261e-07
-3.5313673e-05
7.120679e-07
-3.5529276e-05
6.4344851e-07
-3.5721459e-05
5.7288573e-07
-3.5889592e-05
5.0043568e-07
-3.6033064e-05
4.2615933e-07
-3.6151285e-05
3.5012241e-07
-3.624369e-05
2.7239528e-07
-3.6309739e-05
1.9305291e-07
-3.6348917e-05
1.1217473e-07
-3.6360738e-05
2.9844549e-08
-3.6344745e-05
-5.3849738e-08
-3.6300511e-05
-1.3881612e-07
-3.6227642e-05
-2.2495859e-07
-3.6125778e-05
-3.1217728e-07
-3.5994591e-05
-4.0036878e-07
-3.583379e-05
-4.8942626e-07
-3.5643121e-05
-5.7923967e-07
-3.5422367e-05
-6.696959e-07
-3.5171351e-05
-7.6067898e-07
-3.4889934e-05
-8.5207032e-07
-3.4578017e-05
-9.437489e-07
-3.4235544e-05
-1.0355915e-06
-3.38625e-05
-1.1274731e-06
-3.3458911e-05
-1.2192667e-06
-3.3024847e-05
-1.310844e-06
-3.2560422e-05
-1.4020756e-06
-3.2065792e-05
-1.4928309e-06
-3.1541157e-05
-1.5829787e-06
-3.0986762e-05
-1.6723875e-06
-3.0402895e-05
-1.7609255e-06
-2.9789888e-05
-1.8484611e-06
-2.9148116e-05
-1.9348628e-06
-2.8478e-05
-2.0200002e-06
-2.7780003e-05
-2.1037434e-06
-2.705463e-05
-2.1859639e-06
-2.6302429e-05
-2.2665347e-06
-2.552399e-05
-2.3453305e-06
-2.4719945e-05
-2.4222278e-06
-2.3890964e-05
-2.4971057e-06
-2.303776e-05
-2.5698455e-06
-2.2161082e-05
-2.6403315e-06
-2.1261718e-05
-2.7084509e-06
-2.0340491e-05
-2.7740942e-06
-1.9398261e-05
-2.8371556e-06
-1.8435921e-05
-2.8975326e-06
-1.7454397e-05
-2.9551272e-06
-1.6454648e-05
-3.0098453e-06
-1.5437661e-05
-3.061597e-06
-1.4404452e-05
-3.1102975e-06
-1.3356064e-05
-3.1558663e-06
-1.2293565e-05
-3.1982281e-06
-1.1218046e-05
-3.2373127e-06
-1.0130621e-05
-3.2730552e-06
-9.0324219e-06
-3.305396e-06
-7.9246006e-06
-3.3342812e-06
-6.808324e-06
-3.3596626e-06
-5.6847734e-06
-3.3814977e-06
-4.5551424e-06
-3.3997498e-06
-3.4206347e-06
-3.4143885e-06
-2.2824623e-06
-3.425389e-06
-1.1418433e-06
-3.432733e-06
6.9583454e-15
-3.4364081e-06
1.1418433e-06
-3.4364081e-06
2.2824623e-06
-3.432733e-06
3.4206347e-06
-3.425389e-06
4.5551424e-06
-3.4143885e-06
5.6847734e-06
-3.3997498e-06
6.808324e-06
-3.3814977e-06
7.9246006e-06
-3.3596626e-06
9.0324219e-06
-3.3342812e-06
1.0130621e-05
-3.305396e-06
1.1218046e-05
-3.2730552e-06
1.2293565e-05
-3.2373127e-06
1.3356064e-05
-3.1982281e-06
1.4404452e-05
-3.1558663e-06
1.5437661e-05
-3.1102975e-06
1.6454648e-05
-3.061597e-06
1.7454397e-05
-3.0098453e-06
1.8435921e-05
-2.9551272e-06
1.9398261e-05
-2.8975326e-06
2.0340491e-05
-2.8371556e-06
2.1261718e-05
-2.7740942e-06
2.2161083e-05
-2.7084509e-06
2.303776e-05
-2.6403315e-06
2.3890964e-05
-2.5698455e-06
2.4719945e-05
-2.4971057e-06
2.552399e-05
-2.4222278e-06
2.6302429e-05
-2.3453305e-06
2.705463e-05
-2.2665347e-06
2.7780003e-05
-2.1859639e-06
2.8478e-05
-2.1037434e-06
2.9148116e-05
-2.0200002e-06
2.9789888e-05
-1.9348628e-06
3.0402895e-05
-1.8484611e-06
3.0986762e-05
-1.7609255e-06
3.1541157e-05
-1.6723875e-06
3.2065792e-05
-1.5829787e-06
3.2560422e-05
-1.4928309e-06
3.3024847e-05
-1.4020756e-06
3.3458911e-05
-1.310844e-06
3.38625e-05
-1.2192667e-06
3.4235544e-05
-1.1274731e-06
3.4578017e-05
-1.0355915e-06
3.4889934e-05
-9.437489e-07
3.5171351e-05
-8.5207032e-07
3.5422367e-05
-7.6067898e-07
3.5643121e-05
-6.696959e-07
3.583379e-05
-5.7923967e-07
3.5994591e-05
-4.8942626e-07
3.6125778e-05
-4.0036878e-07
3.6227642e-05
-3.1217728e-07
3.6300511e-05
-2.2495859e-07
3.6344745e-05
-1.3881612e-07
3.6360738e-05
-5.3849736e-08
3.6348917e-05
2.9844551e-08
3.6309739e-05
1.1217473e-07
3.624369e-05
1.9305291e-07
3.6151285e-05
2.7239528e-07
3.6033064e-05
3.5012241e-07
3.5889592e-05
4.2615934e-07
3.5721459e-05
5.0043568e-07
3.5529276e-05
5.7288573e-07
3.5313673e-05
6.4344852e-07
3.5075301e-05
7.120679e-07
3.4814827e-05
7.7869261e-07
3.4532931e-05
8.4327632e-07
3.4230312e-05
9.0577766e-07
3.3907675e-05
9.6616025e-07
3.3565741e-05
1.0243927e-06
3.3205235e-05
1.0804487e-06
3.2826893e-05
1.1343069e-06
3.2431452e-05
1.1859508e-06
3.2019658e-05
1.2353691e-06
3.1592254e-05
1.2825552e-06
3.1149987e-05
1.3275076e-06
3.0693602e-05
1.3702292e-06
3.0223839e-05
1.410728e-06
2.9741437e-05
1.4490164e-06
2.9247128e-05
1.4851115e-06
2.8741636e-05
1.5190347e-06
2.8225676e-05
1.5508118e-06
2.7699956e-05
1.5804728e-06
2.7165168e-05
1.6080517e-06
2.6621995e-05
1.6335865e-06
2.6071103e-05
1.6571189e-06
2.5513146e-05
1.6786943e-06
2.4948759e-05
1.6983614e-06
2.437856e-05
1.7161725e-06
2.3803149e-05
1.7321826e-06
2.3223106e-05
1.7464498e-06
2.2638992e-05
1.759035e-06
2.2051344e-05
1.7700014e-06
2.1460681e-05
1.7794148e-06
2.0867495e-05
1.7873428e-06
2.0272257e-05
1.7938552e-06
1.9675413e-05
1.7990232e-06
1.9077388e-05
1.8029196e-06
1.8478576e-05
1.8056185e-06
1.7879352e-05
1.8071948e-06
1.7280062e-05
1.8077244e-06
1.6681027e-05
1.8072837e-06
1.6082543e-05
1.8059493e-06
1.548488e-05
1.803798e-06
1.4888283e-05
1.8009066e-06
1.4292969e-05
1.7973514e-06
1.3699132e-05
1.793208e-06
1.3106941e-05
1.7885514e-06
1.2516539e-05
1.7834556e-06
1.1928045e-05
1.7779931e-06
1.1341555e-05
1.7722353e-06
1.075714e-05
1.7662517e-06
1.017485e-05
1.76011e-06
9.5947119e-06
1.7538759e-06
9.016732e-06
1.7476127e-06
8.4408961e-06
1.7413815e-06
7.8671703e-06
1.7352405e-06
7.2955022e-06
1.7292454e-06
6.7258216e-06
1.7234488e-06
6.158042e-06
1.7179003e-06
5.5920612e-06
1.7126462e-06
5.0277626e-06
1.7077293e-06
4.4650165e-06
1.7031891e-06
3.9036812e-06
1.6990615e-06
3.3436042e-06
1.6953785e-06
2.7846236e-06
1.6921685e-06
2.2265692e-06
1.6894558e-06
1.669264e-06
1.6872609e-06
1.1125256e-06
1.6856004e-06
5.5616743e-07
1.6844864e-06
1.6839274e-06
-5.4702205e-07
2.2309494e-06
-1.0942423e-06
2.2317066e-06
-1.6418574e-06
2.2332155e-06
-2.1900615e-06
2.235465e-06
-2.7390444e-06
2.2384386e-06
-3.2889903e-06
2.2421144e-06
-3.8400766e-06
2.2464648e-06
-4.3924725e-06
2.2514574e-06
-4.9463377e-06
2.2570542e-06
-5.5018208e-06
2.2632124e-06
-6.0590587e-06
2.269884e-06
-6.6181747e-06
2.2770164e-06
-7.1792779e-06
2.284552e-06
-7.7424616e-06
2.2924291e-06
-8.3078024e-06
2.3005813e-06
-8.8753593e-06
2.3089384e-06
-9.4451725e-06
2.3174259e-06
-1.0017262e-05
2.3259658e-06
-1.0591629e-05
2.3344766e-06
-1.1168251e-05
2.3428736e-06
-1.1747084e-05
2.3510689e-06
-1.2328063e-05
2.3589721e-06
-1.2911098e-05
2.36649e-06
-1.3496074e-05
2.3735274e-06
-1.4082853e-05
2.3799873e-06
-1.4671272e-05
2.3857706e-06
-1.5261143e-05
2.3907772e-06
-1.5852251e-05
2.3949057e-06
-1.6444356e-05
2.3980542e-06
-1.7037192e-05
2.4001201e-06
-1.7630468e-05
2.4010007e-06
-1.8223867e-05
2.4005933e-06
-1.8817044e-05
2.3987958e-06
-1.9409631e-05
2.3955068e-06
-2.0001234e-05
2.3906259e-06
-2.0591433e-05
2.384054e-06
-2.1179784e-05
2.3756939e-06
-2.1765819e-05
2.36545e-06
-2.2349047e-05
2.3532292e-06
-2.2928953e-05
2.3389408e-06
-2.3505e-05
2.3224969e-06
-2.407663e-05
2.3038127e-06
-2.4643264e-05
2.2828068e-06
-2.5204304e-05
2.2594014e-06
-2.5759133e-05
2.2335227e-06
-2.6307115e-05
2.2051008e-06
-2.6847598e-05
2.1740703e-06
-2.7379917e-05
2.1403705e-06
-2.790339e-05
2.1039453e-06
-2.8417322e-05
2.0647439e-06
-2.8921008e-05
2.0227205e-06
-2.9413731e-05
1.9778348e-06
-2.9894767e-05
1.9300522e-06
-3.0363383e-05
1.8793437e-06
-3.081884e-05
1.8256864e-06
-3.1260396e-05
1.7690634e-06
-3.1687304e-05
1.7094639e-06
-3.2098819e-05
1.6468834e-06
-3.2494192e-05
1.5813239e-06
-3.2872679e-05
1.5127938e-06
-3.3233538e-05
1.4413082e-06
-3.3576034e-05
1.3668886e-06
-3.3899437e-05
1.2895633e-06
-3.4203027e-05
1.2093672e-06
-3.4486092e-05
1.1263419e-06
-3.4747935e-05
1.0405357e-06
-3.4987871e-05
9.5200361e-07
-3.520523e-05
8.6080716e-07
-3.5399359e-05
7.6701456e-07
-3.5569623e-05
6.707005e-07
-3.571541e-05
5.7194612e-07
-3.5836127e-05
4.7083889e-07
-3.5931204e-05
3.6747252e-07
-3.6000098e-05
2.6194682e-07
-3.6042291e-05
1.5436758e-07
-3.6057293e-05
4.4846392e-08
-3.6044643e-05
-6.6499548e-08
-3.6003911e-05
-1.7954758e-07
-3.59347e-05
-2.9416979e-07
-3.5836644e-05
-4.1023314e-07
-3.5709413e-05
-5.2759981e-07
-3.5552712e-05
-6.4612738e-07
-3.5366283e-05
-7.6566914e-07
-3.5149904e-05
-8.8607427e-07
-3.4903395e-05
-1.0071882e-06
-3.4626613e-05
-1.1288527e-06
-3.4319455e-05
-1.2509065e-06
-3.3981861e-05
-1.3731852e-06
-3.3613812e-05
-1.4955221e-06
-3.3215331e-05
-1.6177478e-06
-3.2786484e-05
-1.7396913e-06
-3.232738e-05
-1.8611798e-06
-3.1838171e-05
-1.9820393e-06
-3.1319055e-05
-2.1020948e-06
-3.0770272e-05
-2.2211707e-06
-3.0192106e-05
-2.3390912e-06
-2.9584887e-05
-2.4556808e-06
-2.8948985e-05
-2.5707642e-06
-2.8284818e-05
-2.6841672e-06
-2.7592845e-05
-2.7957166e-06
-2.6873568e-05
-2.905241e-06
-2.6127532e-05
-3.0125709e-06
-2.5355323e-05
-3.1175391e-06
-2.455757e-05
-3.2199808e-06
-2.3734941e-05
-3.3197347e-06
-2.2888144e-05
-3.4166425e-06
-2.2017926e-05
-3.5105496e-06
-2.1125071e-05
-3.6013057e-06
-2.0210401e-05
-3.6887646e-06
-1.9274771e-05
-3.772785e-06
-1.8319074e-05
-3.8532304e-06
-1.7344231e-05
-3.9299697e-06
-1.6351199e-05
-4.0028773e-06
-1.5340963e-05
-4.0718337e-06
-1.4314535e-05
-4.1367251e-06
-1.3272957e-05
-4.1974445e-06
-1.2217293e-05
-4.2538914e-06
-1.1148634e-05
-4.3059719e-06
-1.006809e-05
-4.3535994e-06
-8.9767913e-06
-4.3966946e-06
-7.8758872e-06
-4.4351853e-06
-6.7665425e-06
-4.4690073e-06
-5.6499364e-06
-4.4981037e-06
-4.5272604e-06
-4.5224259e-06
-3.3997159e-06
-4.5419329e-06
-2.268513e-06
-4.556592e-06
-1.1348676e-06
-4.5663784e-06
7.0810578e-15
-4.5712757e-06
1.1348676e-06
-4.5712757e-06
2.268513e-06
-4.5663784e-06
3.3997159e-06
-4.556592e-06
4.5272604e-06
-4.5419329e-06
5.6499365e-06
-4.5224259e-06
6.7665425e-06
-4.4981037e-06
7.8758872e-06
-4.4690073e-06
8.9767913e-06
-4.4351853e-06
1.006809e-05
-4.3966946e-06
1.1148634e-05
-4.3535994e-06
1.2217293e-05
-4.3059719e-06
1.3272957e-05
-4.2538914e-06
1.4314535e-05
-4.1974445e-06
1.5340963e-05
-4.1367251e-06
1.6351199e-05
-4.0718337e-06
1.7344231e-05
-4.0028773e-06
1.8319074e-05
-3.9299697e-06
1.9274771e-05
-3.8532304e-06
2.0210401e-05
-3.772785e-06
2.1125071e-05
-3.6887646e-06
2.2017926e-05
-3.6013057e-06
2.2888144e-05
-3.5105496e-06
2.3734941e-05
-3.4166425e-06
2.455757e-05
-3.3197347e-06
2.5355323e-05
-3.2199808e-06
2.6127532e-05
-3.1175391e-06
2.6873568e-05
-3.0125709e-06
2.7592845e-05
-2.905241e-06
2.8284818e-05
-2.7957166e-06
2.8948985e-05
-2.6841671e-06
2.9584887e-05
-2.5707642e-06
3.0192106e-05
-2.4556808e-06
3.0770272e-05
-2.3390912e-06
3.1319055e-05
-2.2211707e-06
3.1838171e-05
-2.1020948e-06
3.232738e-05
-1.9820393e-06
3.2786484e-05
-1.8611798e-06
3.3215331e-05
-1.7396913e-06
3.3613812e-05
-1.6177478e-06
3.3981861e-05
-1.4955221e-06
3.4319455e-05
-1.3731852e-06
3.4626613e-05
-1.2509065e-06
3.4903395e-05
-1.1288527e-06
3.5149904e-05
-1.0071882e-06
3.5366283e-05
-8.8607427e-07
3.5552712e-05
-7.6566914e-07
3.5709413e-05
-6.4612738e-07
3.5836644e-05
-5.2759981e-07
3.59347e-05
-4.1023314e-07
3.6003911e-05
-2.9416979e-07
3.6044643e-05
-1.7954758e-07
3.6057293e-05
-6.6499547e-08
3.6042291e-05
4.4846393e-08
3.6000098e-05
1.5436758e-07
3.5931204e-05
2.6194682e-07
3.5836127e-05
3.6747252e-07
3.571541e-05
4.7083889e-07
3.5569623e-05
5.7194612e-07
3.5399359e-05
6.707005e-07
3.520523e-05
7.6701456e-07
3.4987871e-05
8.6080716e-07
3.4747935e-05
9.5200361e-07
3.4486092e-05
1.0405357e-06
3.4203027e-05
1.1263419e-06
3.3899437e-05
1.2093672e-06
3.3576034e-05
1.2895633e-06
3.3233538e-05
1.3668886e-06
3.2872679e-05
1.4413082e-06
3.2494192e-05
1.5127938e-06
3.2098819e-05
1.5813239e-06
3.1687304e-05
1.6468834e-06
3.1260396e-05
1.7094639e-06
3.081884e-05
1.7690634e-06
3.0363383e-05
1.8256864e-06
2.9894767e-05
1.8793437e-06
2.9413731e-05
1.9300522e-06
2.8921008e-05
1.9778348e-06
2.8417322e-05
2.0227205e-06
2.790339e-05
2.0647439e-06
2.7379917e-05
2.1039453e-06
2.6847598e-05
2.1403705e-06
2.6307115e-05
2.1740703e-06
2.5759133e-05
2.2051008e-06
2.5204304e-05
2.2335227e-06
2.4643264e-05
2.2594014e-06
2.407663e-05
2.2828068e-06
2.3505e-05
2.3038127e-06
2.2928953e-05
2.3224969e-06
2.2349047e-05
2.3389408e-06
2.1765819e-05
2.3532292e-06
2.1179784e-05
2.36545e-06
2.0591433e-05
2.3756939e-06
2.0001234e-05
2.384054e-06
1.9409631e-05
2.3906259e-06
1.8817044e-05
2.3955068e-06
1.8223867e-05
2.3987958e-06
1.7630468e-05
2.4005933e-06
1.7037192e-05
2.4010007e-06
1.6444356e-05
2.4001201e-06
1.5852251e-05
2.3980542e-06
1.5261143e-05
2.3949057e-06
1.4671272e-05
2.3907772e-06
1.4082853e-05
2.3857706e-06
1.3496074e-05
2.3799873e-06
1.2911098e-05
2.3735274e-06
1.2328063e-05
2.36649e-06
1.1747084e-05
2.3589721e-06
1.1168251e-05
2.3510689e-06
1.0591629e-05
2.3428736e-06
1.0017262e-05
2.3344766e-06
9.4451725e-06
2.3259658e-06
8.8753593e-06
2.3174259e-06
8.3078024e-06
2.3089384e-06
7.7424616e-06
2.3005813e-06
7.1792779e-06
2.2924291e-06
6.6181747e-06
2.284552e-06
6.0590587e-06
2.2770164e-06
5.5018208e-06
2.269884e-06
4.9463377e-06