/*--------------------------------*- C++ -*----------------------------------*\
| =========                 |                                                 |
| \\      /  F ield         | OpenFOAM: The Open Source CFD Toolbox           |
|  \\    /   O peration     | Version:  2106                                  |
|   \\  /    A nd           | Website:  www.openfoam.com                      |
|    \\/     M anipulation  |                                                 |
\*---------------------------------------------------------------------------*/
FoamFile
{
    version     2.0;
    format      ascii;
    arch        "LSB;label=32;scalar=64";
    class       volVectorField;
    location    "0.023";
    object      U_0;
}
// * * * * * * * * * * * * * * * * * * * * * * * * * * * * * * * * * * * * * //

dimensions      [0 1 -1 0 0 0 0];

internalField   nonuniform List<vector> 
65536
(
(-7.1479549e-05 7.1538298e-05 0)
(-0.00021446261 7.1562171e-05 0)
(-0.0003575174 7.1609743e-05 0)
(-0.00050069115 7.168066e-05 0)
(-0.00064403022 7.1774396e-05 0)
(-0.00078757971 7.1890251e-05 0)
(-0.0009313832 7.2027354e-05 0)
(-0.0010754823 7.2184666e-05 0)
(-0.0012199164 7.2360982e-05 0)
(-0.0013647224 7.2554934e-05 0)
(-0.0015099341 7.2764998e-05 0)
(-0.0016555823 7.2989496e-05 0)
(-0.0018016942 7.32266e-05 0)
(-0.0019482931 7.3474339e-05 0)
(-0.0020953984 7.3730603e-05 0)
(-0.0022430251 7.3993153e-05 0)
(-0.0023911835 7.425962e-05 0)
(-0.0025398791 7.4527521e-05 0)
(-0.0026891123 7.479426e-05 0)
(-0.0028388782 7.5057137e-05 0)
(-0.0029891664 7.5313358e-05 0)
(-0.0031399608 7.5560039e-05 0)
(-0.0032912395 7.579422e-05 0)
(-0.0034429745 7.6012867e-05 0)
(-0.0035951319 7.6212886e-05 0)
(-0.0037476712 7.639113e-05 0)
(-0.0039005458 7.6544409e-05 0)
(-0.0040537026 7.6669496e-05 0)
(-0.0042070821 7.6763144e-05 0)
(-0.0043606182 7.6822086e-05 0)
(-0.0045142382 7.6843053e-05 0)
(-0.0046678629 7.6822779e-05 0)
(-0.0048214067 7.6758011e-05 0)
(-0.0049747773 7.6645522e-05 0)
(-0.0051278762 7.6482116e-05 0)
(-0.0052805983 7.626464e-05 0)
(-0.0054328324 7.5989996e-05 0)
(-0.0055844611 7.5655146e-05 0)
(-0.005735361 7.5257123e-05 0)
(-0.005885403 7.4793042e-05 0)
(-0.0060344519 7.4260108e-05 0)
(-0.0061823674 7.3655622e-05 0)
(-0.0063290038 7.2976995e-05 0)
(-0.0064742102 7.2221752e-05 0)
(-0.0066178309 7.1387542e-05 0)
(-0.0067597058 7.0472147e-05 0)
(-0.0068996704 6.9473488e-05 0)
(-0.007037556 6.8389632e-05 0)
(-0.0071731905 6.7218801e-05 0)
(-0.0073063981 6.5959377e-05 0)
(-0.0074370001 6.4609908e-05 0)
(-0.007564815 6.3169118e-05 0)
(-0.0076896591 6.1635907e-05 0)
(-0.0078113464 6.000936e-05 0)
(-0.0079296893 5.828875e-05 0)
(-0.0080444992 5.6473545e-05 0)
(-0.0081555863 5.456341e-05 0)
(-0.0082627605 5.2558207e-05 0)
(-0.0083658317 5.0458008e-05 0)
(-0.0084646098 4.8263088e-05 0)
(-0.008558906 4.5973932e-05 0)
(-0.0086485321 4.3591235e-05 0)
(-0.008733302 4.1115905e-05 0)
(-0.0088130312 3.8549062e-05 0)
(-0.0088875381 3.5892041e-05 0)
(-0.0089566434 3.3146388e-05 0)
(-0.0090201718 3.0313863e-05 0)
(-0.0090779511 2.7396436e-05 0)
(-0.0091298136 2.4396288e-05 0)
(-0.0091755962 2.1315807e-05 0)
(-0.0092151405 1.8157586e-05 0)
(-0.0092482937 1.492442e-05 0)
(-0.0092749088 1.1619302e-05 0)
(-0.009294845 8.2454179e-06 0)
(-0.0093079679 4.8061297e-06 0)
(-0.0093141501 1.3049924e-06 0)
(-0.009313272 -2.2542189e-06 0)
(-0.0093052208 -5.8674155e-06 0)
(-0.0092898921 -9.5307041e-06 0)
(-0.00926719 -1.3239861e-05 0)
(-0.009237027 -1.6990459e-05 0)
(-0.0091993249 -2.0777942e-05 0)
(-0.0091540143 -2.4597623e-05 0)
(-0.0091010356 -2.8444688e-05 0)
(-0.0090403388 -3.2314203e-05 0)
(-0.008971884 -3.6201122e-05 0)
(-0.0088956415 -4.0100294e-05 0)
(-0.0088115917 -4.4006479e-05 0)
(-0.0087197261 -4.791435e-05 0)
(-0.0086200464 -5.1818511e-05 0)
(-0.0085125655 -5.5713502e-05 0)
(-0.0083973072 -5.9593812e-05 0)
(-0.0082743064 -6.345389e-05 0)
(-0.0081436089 -6.7288153e-05 0)
(-0.0080052721 -7.1091003e-05 0)
(-0.0078593642 -7.4856833e-05 0)
(-0.007705965 -7.8580042e-05 0)
(-0.0075451651 -8.2255042e-05 0)
(-0.0073770666 -8.5876278e-05 0)
(-0.0072017824 -8.9438228e-05 0)
(-0.0070194367 -9.2935425e-05 0)
(-0.0068301643 -9.6362463e-05 0)
(-0.0066341109 -9.9714009e-05 0)
(-0.0064314328 -0.00010298482 0)
(-0.0062222966 -0.00010616973 0)
(-0.0060068791 -0.00010926371 0)
(-0.0057853672 -0.00011226184 0)
(-0.0055579574 -0.0001151593 0)
(-0.0053248559 -0.00011795145 0)
(-0.0050862777 -0.00012063378 0)
(-0.0048424469 -0.00012320194 0)
(-0.0045935962 -0.00012565175 0)
(-0.0043399662 -0.0001279792 0)
(-0.0040818057 -0.00013018048 0)
(-0.0038193707 -0.00013225198 0)
(-0.0035529242 -0.00013419028 0)
(-0.003282736 -0.00013599216 0)
(-0.003009082 -0.00013765465 0)
(-0.0027322438 -0.00013917498 0)
(-0.0024525084 -0.00014055062 0)
(-0.0021701676 -0.00014177927 0)
(-0.0018855176 -0.00014285889 0)
(-0.0015988584 -0.00014378766 0)
(-0.0013104932 -0.00014456402 0)
(-0.0010207285 -0.00014518669 0)
(-0.00072987267 -0.00014565461 0)
(-0.00043823622 -0.00014596699 0)
(-0.00014613087 -0.00014612331 0)
(0.00014613087 -0.00014612331 0)
(0.00043823623 -0.00014596699 0)
(0.00072987267 -0.00014565461 0)
(0.0010207285 -0.00014518669 0)
(0.0013104932 -0.00014456402 0)
(0.0015988584 -0.00014378766 0)
(0.0018855176 -0.00014285889 0)
(0.0021701676 -0.00014177927 0)
(0.0024525084 -0.00014055062 0)
(0.0027322438 -0.00013917498 0)
(0.003009082 -0.00013765465 0)
(0.003282736 -0.00013599216 0)
(0.0035529242 -0.00013419028 0)
(0.0038193707 -0.00013225198 0)
(0.0040818057 -0.00013018048 0)
(0.0043399662 -0.0001279792 0)
(0.0045935962 -0.00012565175 0)
(0.0048424469 -0.00012320194 0)
(0.0050862777 -0.00012063378 0)
(0.0053248559 -0.00011795145 0)
(0.0055579574 -0.0001151593 0)
(0.0057853672 -0.00011226184 0)
(0.0060068791 -0.00010926371 0)
(0.0062222966 -0.00010616973 0)
(0.0064314328 -0.00010298482 0)
(0.006634111 -9.9714009e-05 0)
(0.0068301643 -9.6362463e-05 0)
(0.0070194367 -9.2935425e-05 0)
(0.0072017824 -8.9438228e-05 0)
(0.0073770666 -8.5876278e-05 0)
(0.0075451651 -8.2255042e-05 0)
(0.007705965 -7.8580041e-05 0)
(0.0078593642 -7.4856833e-05 0)
(0.0080052721 -7.1091003e-05 0)
(0.0081436089 -6.7288153e-05 0)
(0.0082743064 -6.345389e-05 0)
(0.0083973072 -5.9593812e-05 0)
(0.0085125655 -5.5713502e-05 0)
(0.0086200464 -5.1818511e-05 0)
(0.0087197261 -4.791435e-05 0)
(0.0088115917 -4.4006479e-05 0)
(0.0088956415 -4.0100294e-05 0)
(0.0089718841 -3.6201122e-05 0)
(0.0090403388 -3.2314203e-05 0)
(0.0091010356 -2.8444688e-05 0)
(0.0091540143 -2.4597623e-05 0)
(0.0091993249 -2.0777942e-05 0)
(0.009237027 -1.6990459e-05 0)
(0.00926719 -1.3239861e-05 0)
(0.0092898921 -9.5307041e-06 0)
(0.0093052208 -5.8674155e-06 0)
(0.009313272 -2.2542189e-06 0)
(0.0093141501 1.3049925e-06 0)
(0.0093079679 4.8061297e-06 0)
(0.009294845 8.2454179e-06 0)
(0.0092749088 1.1619302e-05 0)
(0.0092482937 1.492442e-05 0)
(0.0092151405 1.8157586e-05 0)
(0.0091755962 2.1315807e-05 0)
(0.0091298136 2.4396288e-05 0)
(0.0090779511 2.7396436e-05 0)
(0.0090201718 3.0313863e-05 0)
(0.0089566434 3.3146388e-05 0)
(0.0088875381 3.5892041e-05 0)
(0.0088130312 3.8549062e-05 0)
(0.008733302 4.1115905e-05 0)
(0.0086485321 4.3591235e-05 0)
(0.008558906 4.5973932e-05 0)
(0.0084646098 4.8263088e-05 0)
(0.0083658317 5.0458008e-05 0)
(0.0082627605 5.2558207e-05 0)
(0.0081555863 5.456341e-05 0)
(0.0080444992 5.6473545e-05 0)
(0.0079296893 5.828875e-05 0)
(0.0078113464 6.000936e-05 0)
(0.0076896591 6.1635907e-05 0)
(0.007564815 6.3169118e-05 0)
(0.0074370001 6.4609908e-05 0)
(0.0073063981 6.5959377e-05 0)
(0.0071731905 6.7218801e-05 0)
(0.007037556 6.8389632e-05 0)
(0.0068996704 6.9473488e-05 0)
(0.0067597058 7.0472147e-05 0)
(0.0066178309 7.1387542e-05 0)
(0.0064742102 7.2221752e-05 0)
(0.0063290038 7.2976995e-05 0)
(0.0061823674 7.3655622e-05 0)
(0.0060344519 7.4260108e-05 0)
(0.005885403 7.4793042e-05 0)
(0.005735361 7.5257123e-05 0)
(0.0055844611 7.5655146e-05 0)
(0.0054328324 7.5989996e-05 0)
(0.0052805983 7.626464e-05 0)
(0.0051278762 7.6482116e-05 0)
(0.0049747773 7.6645522e-05 0)
(0.0048214067 7.6758011e-05 0)
(0.0046678629 7.6822779e-05 0)
(0.0045142382 7.6843053e-05 0)
(0.0043606182 7.6822086e-05 0)
(0.0042070821 7.6763144e-05 0)
(0.0040537026 7.6669496e-05 0)
(0.0039005458 7.6544409e-05 0)
(0.0037476712 7.639113e-05 0)
(0.0035951319 7.6212886e-05 0)
(0.0034429745 7.6012867e-05 0)
(0.0032912395 7.579422e-05 0)
(0.0031399608 7.5560039e-05 0)
(0.0029891663 7.5313358e-05 0)
(0.0028388782 7.5057137e-05 0)
(0.0026891123 7.479426e-05 0)
(0.0025398791 7.4527521e-05 0)
(0.0023911835 7.425962e-05 0)
(0.0022430251 7.3993153e-05 0)
(0.0020953984 7.3730604e-05 0)
(0.0019482931 7.3474339e-05 0)
(0.0018016942 7.32266e-05 0)
(0.0016555823 7.2989496e-05 0)
(0.0015099341 7.2764998e-05 0)
(0.0013647224 7.2554934e-05 0)
(0.0012199164 7.2360982e-05 0)
(0.0010754823 7.2184666e-05 0)
(0.0009313832 7.2027354e-05 0)
(0.00078757971 7.1890251e-05 0)
(0.00064403021 7.1774396e-05 0)
(0.00050069115 7.168066e-05 0)
(0.0003575174 7.1609743e-05 0)
(0.00021446261 7.156217e-05 0)
(7.1479546e-05 7.1538297e-05 0)
(-7.1077917e-05 0.00021435084 0)
(-0.00021325809 0.00021442273 0)
(-0.00035551112 0.00021456598 0)
(-0.00049788499 0.00021477953 0)
(-0.0006404268 0.0002150618 0)
(-0.00078318241 0.0002154107 0)
(-0.00092619612 0.0002158236 0)
(-0.0010695103 0.00021629738 0)
(-0.001213165 0.00021682843 0)
(-0.0013571979 0.00021741265 0)
(-0.0015016435 0.00021804545 0)
(-0.0016465333 0.00021872179 0)
(-0.0017918951 0.0002194362 0)
(-0.0019377531 0.00022018274 0)
(-0.0020841271 0.00022095509 0)
(-0.0022310329 0.00022174651 0)
(-0.0023784814 0.00022254991 0)
(-0.0025264786 0.00022335783 0)
(-0.0026750256 0.00022416246 0)
(-0.0028241182 0.0002249557 0)
(-0.0029737464 0.00022572917 0)
(-0.0031238946 0.0002264742 0)
(-0.0032745417 0.00022718191 0)
(-0.0034256599 0.00022784319 0)
(-0.0035772159 0.00022844874 0)
(-0.0037291697 0.00022898912 0)
(-0.0038814752 0.00022945475 0)
(-0.0040340796 0.00022983594 0)
(-0.0041869237 0.00023012294 0)
(-0.004339942 0.00023030594 0)
(-0.004493062 0.00023037513 0)
(-0.0046462049 0.00023032069 0)
(-0.0047992854 0.00023013287 0)
(-0.0049522115 0.00022980196 0)
(-0.0051048848 0.00022931838 0)
(-0.0052572007 0.00022867265 0)
(-0.005409048 0.00022785547 0)
(-0.0055603096 0.00022685772 0)
(-0.0057108622 0.00022567049 0)
(-0.0058605768 0.00022428512 0)
(-0.0060093184 0.0002226932 0)
(-0.0061569467 0.00022088664 0)
(-0.0063033161 0.00021885766 0)
(-0.0064482758 0.00021659882 0)
(-0.0065916701 0.00021410307 0)
(-0.0067333388 0.00021136374 0)
(-0.0068731174 0.00020837458 0)
(-0.0070108372 0.0002051298 0)
(-0.007146326 0.00020162404 0)
(-0.007279408 0.00019785245 0)
(-0.0074099043 0.00019381066 0)
(-0.0075376333 0.00018949483 0)
(-0.007662411 0.00018490167 0)
(-0.0077840514 0.00018002841 0)
(-0.0079023668 0.00017487288 0)
(-0.0080171681 0.00016943346 0)
(-0.0081282654 0.00016370915 0)
(-0.0082354685 0.00015769953 0)
(-0.0083385867 0.0001514048 0)
(-0.0084374301 0.00014482579 0)
(-0.0085318091 0.00013796394 0)
(-0.0086215356 0.00013082135 0)
(-0.008706423 0.00012340072 0)
(-0.0087862864 0.00011570541 0)
(-0.0088609439 0.00010773943 0)
(-0.0089302161 9.9507408e-05 0)
(-0.0089939269 9.1014619e-05 0)
(-0.009051904 8.2266974e-05 0)
(-0.0091039792 7.3271013e-05 0)
(-0.0091499891 6.4033898e-05 0)
(-0.0091897749 5.4563407e-05 0)
(-0.0092231833 4.4867925e-05 0)
(-0.009250067 3.4956432e-05 0)
(-0.0092702846 2.4838493e-05 0)
(-0.0092837015 1.4524237e-05 0)
(-0.0092901899 4.0243463e-06 0)
(-0.0092896292 -6.6499141e-06 0)
(-0.0092819067 -1.7486666e-05 0)
(-0.0092669176 -2.8473818e-05 0)
(-0.0092445656 -3.9598639e-05 0)
(-0.0092147626 -5.0847905e-05 0)
(-0.00917743 -6.2207966e-05 0)
(-0.009132498 -7.3664769e-05 0)
(-0.0090799065 -8.5203874e-05 0)
(-0.0090196053 -9.6810475e-05 0)
(-0.0089515538 -0.00010846943 0)
(-0.008875722 -0.00012016529 0)
(-0.0087920902 -0.00013188232 0)
(-0.008700649 -0.00014360455 0)
(-0.0086014001 -0.00015531577 0)
(-0.008494356 -0.00016699961 0)
(-0.00837954 -0.00017863953 0)
(-0.0082569866 -0.00019021887 0)
(-0.0081267415 -0.00020172088 0)
(-0.0079888616 -0.00021312876 0)
(-0.0078434148 -0.00022442567 0)
(-0.0076904806 -0.00023559482 0)
(-0.0075301493 -0.00024661944 0)
(-0.0073625227 -0.00025748285 0)
(-0.0071877135 -0.00026816848 0)
(-0.0070058456 -0.00027865992 0)
(-0.0068170535 -0.00028894096 0)
(-0.0066214827 -0.00029899558 0)
(-0.0064192893 -0.00030880804 0)
(-0.0062106396 -0.00031836289 0)
(-0.0059957104 -0.00032764497 0)
(-0.0057746883 -0.00033663952 0)
(-0.0055477696 -0.00034533213 0)
(-0.0053151603 -0.00035370882 0)
(-0.0050770754 -0.00036175608 0)
(-0.0048337389 -0.00036946084 0)
(-0.0045853831 -0.00037681056 0)
(-0.0043322488 -0.00038379323 0)
(-0.0040745845 -0.0003903974 0)
(-0.0038126461 -0.00039661221 0)
(-0.0035466967 -0.0004024274 0)
(-0.0032770059 -0.00040783336 0)
(-0.0030038496 -0.00041282111 0)
(-0.0027275093 -0.00041738238 0)
(-0.0024482719 -0.00042150955 0)
(-0.0021664293 -0.00042519575 0)
(-0.0018822776 -0.0004284348 0)
(-0.0015961167 -0.0004312213 0)
(-0.00130825 -0.00043355057 0)
(-0.0010189837 -0.00043541869 0)
(-0.00072862639 -0.00043682254 0)
(-0.00043748845 -0.00043775975 0)
(-0.00014588161 -0.00043822875 0)
(0.00014588161 -0.00043822875 0)
(0.00043748845 -0.00043775975 0)
(0.00072862639 -0.00043682254 0)
(0.0010189837 -0.00043541869 0)
(0.00130825 -0.00043355057 0)
(0.0015961167 -0.0004312213 0)
(0.0018822776 -0.0004284348 0)
(0.0021664294 -0.00042519575 0)
(0.0024482719 -0.00042150955 0)
(0.0027275093 -0.00041738238 0)
(0.0030038496 -0.00041282111 0)
(0.0032770059 -0.00040783336 0)
(0.0035466967 -0.0004024274 0)
(0.0038126461 -0.00039661221 0)
(0.0040745845 -0.0003903974 0)
(0.0043322488 -0.00038379323 0)
(0.0045853831 -0.00037681056 0)
(0.0048337389 -0.00036946084 0)
(0.0050770754 -0.00036175608 0)
(0.0053151603 -0.00035370882 0)
(0.0055477696 -0.00034533213 0)
(0.0057746883 -0.00033663952 0)
(0.0059957104 -0.00032764497 0)
(0.0062106396 -0.00031836289 0)
(0.0064192893 -0.00030880804 0)
(0.0066214827 -0.00029899558 0)
(0.0068170535 -0.00028894096 0)
(0.0070058456 -0.00027865992 0)
(0.0071877135 -0.00026816848 0)
(0.0073625227 -0.00025748285 0)
(0.0075301493 -0.00024661944 0)
(0.0076904806 -0.00023559482 0)
(0.0078434148 -0.00022442567 0)
(0.0079888616 -0.00021312876 0)
(0.0081267415 -0.00020172088 0)
(0.0082569866 -0.00019021887 0)
(0.00837954 -0.00017863953 0)
(0.008494356 -0.00016699961 0)
(0.0086014002 -0.00015531577 0)
(0.008700649 -0.00014360455 0)
(0.0087920902 -0.00013188232 0)
(0.008875722 -0.00012016529 0)
(0.0089515538 -0.00010846943 0)
(0.0090196053 -9.6810475e-05 0)
(0.0090799065 -8.5203874e-05 0)
(0.009132498 -7.3664769e-05 0)
(0.00917743 -6.2207966e-05 0)
(0.0092147626 -5.0847905e-05 0)
(0.0092445656 -3.959864e-05 0)
(0.0092669176 -2.8473818e-05 0)
(0.0092819067 -1.7486666e-05 0)
(0.0092896292 -6.6499142e-06 0)
(0.0092901899 4.0243463e-06 0)
(0.0092837015 1.4524237e-05 0)
(0.0092702846 2.4838493e-05 0)
(0.009250067 3.4956432e-05 0)
(0.0092231833 4.4867925e-05 0)
(0.0091897749 5.4563407e-05 0)
(0.0091499891 6.4033898e-05 0)
(0.0091039792 7.3271013e-05 0)
(0.009051904 8.2266974e-05 0)
(0.0089939269 9.1014619e-05 0)
(0.0089302161 9.9507408e-05 0)
(0.0088609439 0.00010773943 0)
(0.0087862864 0.00011570541 0)
(0.008706423 0.00012340072 0)
(0.0086215356 0.00013082135 0)
(0.0085318091 0.00013796394 0)
(0.0084374301 0.00014482579 0)
(0.0083385867 0.0001514048 0)
(0.0082354685 0.00015769953 0)
(0.0081282654 0.00016370915 0)
(0.0080171681 0.00016943346 0)
(0.0079023668 0.00017487288 0)
(0.0077840514 0.00018002841 0)
(0.007662411 0.00018490167 0)
(0.0075376333 0.00018949483 0)
(0.0074099043 0.00019381066 0)
(0.007279408 0.00019785245 0)
(0.007146326 0.00020162404 0)
(0.0070108372 0.0002051298 0)
(0.0068731174 0.00020837458 0)
(0.0067333388 0.00021136374 0)
(0.0065916701 0.00021410307 0)
(0.0064482758 0.00021659882 0)
(0.0063033161 0.00021885766 0)
(0.0061569467 0.00022088664 0)
(0.0060093184 0.0002226932 0)
(0.0058605768 0.00022428512 0)
(0.0057108622 0.00022567049 0)
(0.0055603096 0.00022685772 0)
(0.005409048 0.00022785547 0)
(0.0052572007 0.00022867265 0)
(0.0051048848 0.00022931838 0)
(0.0049522115 0.00022980196 0)
(0.0047992854 0.00023013287 0)
(0.0046462049 0.00023032069 0)
(0.004493062 0.00023037513 0)
(0.004339942 0.00023030594 0)
(0.0041869237 0.00023012294 0)
(0.0040340796 0.00022983594 0)
(0.0038814752 0.00022945475 0)
(0.0037291697 0.00022898912 0)
(0.0035772159 0.00022844874 0)
(0.0034256599 0.00022784319 0)
(0.0032745416 0.00022718191 0)
(0.0031238946 0.0002264742 0)
(0.0029737464 0.00022572917 0)
(0.0028241182 0.0002249557 0)
(0.0026750256 0.00022416246 0)
(0.0025264786 0.00022335783 0)
(0.0023784814 0.00022254991 0)
(0.0022310329 0.00022174651 0)
(0.0020841271 0.00022095509 0)
(0.0019377531 0.00022018274 0)
(0.0017918951 0.0002194362 0)
(0.0016465333 0.00021872179 0)
(0.0015016435 0.00021804545 0)
(0.0013571979 0.00021741265 0)
(0.001213165 0.00021682843 0)
(0.0010695103 0.00021629738 0)
(0.00092619611 0.0002158236 0)
(0.00078318241 0.0002154107 0)
(0.00064042679 0.0002150618 0)
(0.00049788499 0.00021477953 0)
(0.00035551112 0.00021456598 0)
(0.00021325809 0.00021442273 0)
(7.1077912e-05 0.00021435084 0)
(-7.0289652e-05 0.00035593395 0)
(-0.00021089396 0.00035605496 0)
(-0.00035157311 0.00035629608 0)
(-0.00049237641 0.00035665555 0)
(-0.00063335227 0.00035713074 0)
(-0.00077454788 0.00035771813 0)
(-0.00091600883 0.00035841336 0)
(-0.0010577788 0.00035921122 0)
(-0.0011998991 0.00036010566 0)
(-0.0013424087 0.00036108984 0)
(-0.0014853434 0.0003621561 0)
(-0.0016287358 0.00036329603 0)
(-0.0017726151 0.00036450047 0)
(-0.0019170065 0.00036575953 0)
(-0.0020619312 0.00036706265 0)
(-0.002207406 0.00036839857 0)
(-0.002353443 0.00036975545 0)
(-0.0025000494 0.00037112081 0)
(-0.0026472273 0.00037248164 0)
(-0.0027949735 0.00037382442 0)
(-0.0029432791 0.00037513512 0)
(-0.0030921296 0.00037639929 0)
(-0.0032415046 0.00037760207 0)
(-0.0033913776 0.00037872827 0)
(-0.0035417159 0.00037976237 0)
(-0.0036924805 0.00038068857 0)
(-0.0038436261 0.00038149089 0)
(-0.0039951008 0.00038215315 0)
(-0.0041468462 0.00038265905 0)
(-0.0042987973 0.00038299222 0)
(-0.0044508826 0.00038313626 0)
(-0.0046030238 0.00038307478 0)
(-0.0047551362 0.00038279148 0)
(-0.0049071284 0.00038227016 0)
(-0.0050589026 0.0003814948 0)
(-0.0052103547 0.00038044958 0)
(-0.0053613739 0.00037911895 0)
(-0.0055118436 0.00037748767 0)
(-0.0056616409 0.00037554086 0)
(-0.0058106371 0.00037326404 0)
(-0.0059586976 0.00037064318 0)
(-0.0061056824 0.00036766474 0)
(-0.0062514459 0.00036431572 0)
(-0.0063958377 0.00036058369 0)
(-0.0065387023 0.00035645686 0)
(-0.0066798795 0.00035192408 0)
(-0.0068192049 0.00034697491 0)
(-0.00695651 0.00034159963 0)
(-0.0070916225 0.00033578931 0)
(-0.0072243665 0.00032953582 0)
(-0.0073545631 0.00032283185 0)
(-0.0074820307 0.00031567097 0)
(-0.0076065851 0.00030804764 0)
(-0.0077280401 0.00029995726 0)
(-0.0078462077 0.00029139613 0)
(-0.0079608989 0.00028236156 0)
(-0.0080719233 0.00027285184 0)
(-0.0081790904 0.00026286625 0)
(-0.0082822094 0.0002524051 0)
(-0.0083810897 0.00024146974 0)
(-0.0084755417 0.00023006256 0)
(-0.0085653766 0.00021818701 0)
(-0.0086504074 0.00020584759 0)
(-0.0087304491 0.00019304989 0)
(-0.0088053189 0.00017980055 0)
(-0.0088748369 0.00016610727 0)
(-0.0089388268 0.00015197883 0)
(-0.0089971156 0.00013742507 0)
(-0.0090495345 0.00012245687 0)
(-0.0090959195 0.00010708615 0)
(-0.0091361112 9.1325875e-05 0)
(-0.0091699559 7.5190002e-05 0)
(-0.0091973054 5.8693494e-05 0)
(-0.0092180178 4.1852288e-05 0)
(-0.0092319577 2.4683281e-05 0)
(-0.0092389967 7.2043078e-06 0)
(-0.0092390137 -1.0565944e-05 0)
(-0.009231895 -2.8607967e-05 0)
(-0.0092175355 -4.6901275e-05 0)
(-0.0091958378 -6.5424622e-05 0)
(-0.0091667134 -8.4156002e-05 0)
(-0.0091300828 -0.00010307269 0)
(-0.0090858756 -0.00012215125 0)
(-0.009034031 -0.00014136764 0)
(-0.008974498 -0.00016069715 0)
(-0.0089072354 -0.00018011456 0)
(-0.0088322125 -0.00019959409 0)
(-0.0087494086 -0.00021910954 0)
(-0.0086588141 -0.00023863426 0)
(-0.0085604297 -0.00025814124 0)
(-0.0084542672 -0.00027760317 0)
(-0.0083403494 -0.00029699248 0)
(-0.00821871 -0.00031628137 0)
(-0.0080893941 -0.00033544194 0)
(-0.0079524578 -0.00035444615 0)
(-0.0078079686 -0.00037326595 0)
(-0.0076560052 -0.00039187331 0)
(-0.0074966574 -0.00041024027 0)
(-0.0073300263 -0.00042833902 0)
(-0.0071562242 -0.00044614193 0)
(-0.0069753742 -0.00046362163 0)
(-0.0067876103 -0.00048075107 0)
(-0.0065930776 -0.00049750355 0)
(-0.0063919314 -0.00051385282 0)
(-0.0061843378 -0.00052977309 0)
(-0.0059704729 -0.00054523911 0)
(-0.0057505228 -0.00056022623 0)
(-0.0055246835 -0.00057471044 0)
(-0.0052931604 -0.00058866841 0)
(-0.0050561681 -0.0006020776 0)
(-0.00481393 -0.00061491622 0)
(-0.0045666784 -0.00062716335 0)
(-0.0043146534 -0.00063879897 0)
(-0.0040581031 -0.00064980397 0)
(-0.0037972832 -0.00066016022 0)
(-0.0035324562 -0.00066985064 0)
(-0.0032638916 -0.00067885917 0)
(-0.0029918647 -0.00068717086 0)
(-0.002716657 -0.00069477188 0)
(-0.0024385549 -0.00070164956 0)
(-0.00215785 -0.0007077924 0)
(-0.001874838 -0.00071319014 0)
(-0.0015898186 -0.00071783372 0)
(-0.001303095 -0.00072171535 0)
(-0.001014973 -0.00072482852 0)
(-0.0007257609 -0.00072716799 0)
(-0.00043576888 -0.00072872983 0)
(-0.00014530838 -0.00072951141 0)
(0.00014530838 -0.00072951141 0)
(0.00043576888 -0.00072872983 0)
(0.0007257609 -0.000727168 0)
(0.001014973 -0.00072482852 0)
(0.001303095 -0.00072171535 0)
(0.0015898186 -0.00071783372 0)
(0.001874838 -0.00071319014 0)
(0.00215785 -0.0007077924 0)
(0.0024385549 -0.00070164956 0)
(0.002716657 -0.00069477188 0)
(0.0029918647 -0.00068717086 0)
(0.0032638916 -0.00067885917 0)
(0.0035324562 -0.00066985064 0)
(0.0037972832 -0.00066016022 0)
(0.0040581031 -0.00064980397 0)
(0.0043146534 -0.00063879897 0)
(0.0045666784 -0.00062716335 0)
(0.00481393 -0.00061491622 0)
(0.0050561681 -0.0006020776 0)
(0.0052931604 -0.00058866841 0)
(0.0055246835 -0.00057471044 0)
(0.0057505228 -0.00056022623 0)
(0.0059704729 -0.00054523911 0)
(0.0061843378 -0.00052977309 0)
(0.0063919314 -0.00051385282 0)
(0.0065930776 -0.00049750355 0)
(0.0067876103 -0.00048075107 0)
(0.0069753742 -0.00046362163 0)
(0.0071562242 -0.00044614193 0)
(0.0073300263 -0.00042833902 0)
(0.0074966574 -0.00041024027 0)
(0.0076560052 -0.00039187331 0)
(0.0078079686 -0.00037326595 0)
(0.0079524578 -0.00035444615 0)
(0.0080893941 -0.00033544194 0)
(0.00821871 -0.00031628137 0)
(0.0083403494 -0.00029699248 0)
(0.0084542672 -0.00027760317 0)
(0.0085604297 -0.00025814124 0)
(0.0086588141 -0.00023863426 0)
(0.0087494086 -0.00021910954 0)
(0.0088322125 -0.00019959409 0)
(0.0089072354 -0.00018011456 0)
(0.008974498 -0.00016069715 0)
(0.009034031 -0.00014136764 0)
(0.0090858756 -0.00012215125 0)
(0.0091300828 -0.00010307269 0)
(0.0091667134 -8.4156002e-05 0)
(0.0091958378 -6.5424622e-05 0)
(0.0092175355 -4.6901276e-05 0)
(0.009231895 -2.8607967e-05 0)
(0.0092390137 -1.0565944e-05 0)
(0.0092389967 7.2043079e-06 0)
(0.0092319577 2.4683281e-05 0)
(0.0092180178 4.1852288e-05 0)
(0.0091973054 5.8693494e-05 0)
(0.0091699559 7.5190002e-05 0)
(0.0091361112 9.1325875e-05 0)
(0.0090959195 0.00010708615 0)
(0.0090495345 0.00012245687 0)
(0.0089971156 0.00013742507 0)
(0.0089388268 0.00015197883 0)
(0.0088748369 0.00016610727 0)
(0.0088053189 0.00017980055 0)
(0.0087304491 0.00019304989 0)
(0.0086504074 0.00020584759 0)
(0.0085653766 0.00021818701 0)
(0.0084755417 0.00023006256 0)
(0.0083810897 0.00024146974 0)
(0.0082822094 0.0002524051 0)
(0.0081790904 0.00026286625 0)
(0.0080719233 0.00027285184 0)
(0.0079608989 0.00028236156 0)
(0.0078462077 0.00029139613 0)
(0.0077280401 0.00029995726 0)
(0.0076065851 0.00030804764 0)
(0.0074820307 0.00031567097 0)
(0.0073545631 0.00032283185 0)
(0.0072243665 0.00032953582 0)
(0.0070916225 0.00033578931 0)
(0.00695651 0.00034159963 0)
(0.0068192049 0.00034697491 0)
(0.0066798795 0.00035192408 0)
(0.0065387023 0.00035645686 0)
(0.0063958377 0.00036058369 0)
(0.0062514459 0.00036431572 0)
(0.0061056824 0.00036766474 0)
(0.0059586976 0.00037064318 0)
(0.0058106371 0.00037326404 0)
(0.0056616409 0.00037554086 0)
(0.0055118436 0.00037748767 0)
(0.0053613739 0.00037911895 0)
(0.0052103547 0.00038044958 0)
(0.0050589026 0.0003814948 0)
(0.0049071284 0.00038227016 0)
(0.0047551362 0.00038279148 0)
(0.0046030238 0.00038307478 0)
(0.0044508826 0.00038313626 0)
(0.0042987973 0.00038299222 0)
(0.0041468462 0.00038265905 0)
(0.0039951008 0.00038215315 0)
(0.0038436261 0.00038149089 0)
(0.0036924805 0.00038068857 0)
(0.0035417159 0.00037976237 0)
(0.0033913776 0.00037872827 0)
(0.0032415046 0.00037760207 0)
(0.0030921296 0.00037639929 0)
(0.0029432791 0.00037513512 0)
(0.0027949735 0.00037382442 0)
(0.0026472273 0.00037248164 0)
(0.0025000494 0.00037112081 0)
(0.002353443 0.00036975545 0)
(0.002207406 0.00036839857 0)
(0.0020619312 0.00036706265 0)
(0.0019170065 0.00036575953 0)
(0.0017726151 0.00036450047 0)
(0.0016287358 0.00036329603 0)
(0.0014853434 0.0003621561 0)
(0.0013424087 0.00036108984 0)
(0.0011998991 0.00036010566 0)
(0.0010577788 0.00035921122 0)
(0.00091600883 0.00035841336 0)
(0.00077454788 0.00035771813 0)
(0.00063335227 0.00035713074 0)
(0.0004923764 0.00035665555 0)
(0.00035157311 0.00035629608 0)
(0.00021089395 0.00035605495 0)
(7.0289647e-05 0.00035593395 0)
(-6.9116995e-05 0.00049554451 0)
(-0.00020737694 0.00049571625 0)
(-0.00034571457 0.00049605848 0)
(-0.00048418108 0.00049656873 0)
(-0.00062282678 0.00049724329 0)
(-0.00076170073 0.00049807725 0)
(-0.00090085038 0.00049906446 0)
(-0.0010403213 0.00050019763 0)
(-0.0011801566 0.00050146826 0)
(-0.0013203971 0.00050286673 0)
(-0.0014610803 0.00050438233 0)
(-0.0016022408 0.00050600323 0)
(-0.0017439093 0.00050771658 0)
(-0.001886113 0.0005095085 0)
(-0.0020288746 0.00051136415 0)
(-0.0021722126 0.00051326777 0)
(-0.0023161408 0.00051520269 0)
(-0.002460668 0.00051715143 0)
(-0.0026057979 0.00051909572 0)
(-0.0027515287 0.00052101656 0)
(-0.0028978532 0.00052289429 0)
(-0.0030447582 0.00052470862 0)
(-0.0031922248 0.00052643869 0)
(-0.0033402279 0.00052806316 0)
(-0.003488736 0.00052956025 0)
(-0.0036377116 0.00053090781 0)
(-0.0037871104 0.00053208336 0)
(-0.0039368819 0.00053306422 0)
(-0.0040869686 0.0005338275 0)
(-0.0042373069 0.00053435021 0)
(-0.0043878261 0.00053460933 0)
(-0.0045384489 0.00053458186 0)
(-0.0046890917 0.00053424489 0)
(-0.004839664 0.00053357569 0)
(-0.0049900687 0.00053255175 0)
(-0.0051402024 0.00053115086 0)
(-0.0052899553 0.00052935119 0)
(-0.0054392113 0.00052713133 0)
(-0.0055878482 0.00052447038 0)
(-0.0057357378 0.00052134799 0)
(-0.0058827461 0.00051774446 0)
(-0.0060287335 0.00051364076 0)
(-0.0061735548 0.00050901862 0)
(-0.0063170601 0.00050386059 0)
(-0.0064590939 0.00049815008 0)
(-0.0065994966 0.00049187141 0)
(-0.0067381039 0.0004850099 0)
(-0.0068747473 0.00047755189 0)
(-0.0070092546 0.00046948481 0)
(-0.0071414501 0.00046079719 0)
(-0.0072711549 0.00045147876 0)
(-0.0073981871 0.00044152046 0)
(-0.0075223627 0.00043091446 0)
(-0.0076434952 0.00041965425 0)
(-0.0077613964 0.00040773463 0)
(-0.007875877 0.00039515175 0)
(-0.0079867465 0.00038190316 0)
(-0.0080938139 0.00036798781 0)
(-0.008196888 0.00035340608 0)
(-0.008295778 0.0003381598 0)
(-0.0083902935 0.00032225228 0)
(-0.0084802455 0.0003056883 0)
(-0.0085654464 0.00028847412 0)
(-0.0086457104 0.00027061751 0)
(-0.0087208543 0.00025212773 0)
(-0.0087906977 0.00023301553 0)
(-0.0088550632 0.00021329316 0)
(-0.0089137774 0.00019297435 0)
(-0.0089666707 0.00017207432 0)
(-0.0090135783 0.00015060972 0)
(-0.00905434 0.00012859865 0)
(-0.0090888013 0.00010606065 0)
(-0.0091168131 8.3016639e-05 0)
(-0.0091382327 5.9488898e-05 0)
(-0.0091529238 3.5501057e-05 0)
(-0.0091607572 1.107805e-05 0)
(-0.0091616106 -1.3753949e-05 0)
(-0.0091553697 -3.8967591e-05 0)
(-0.009141928 -6.4534257e-05 0)
(-0.0091211875 -9.0424216e-05 0)
(-0.0090930587 -0.00011660667 0)
(-0.0090574609 -0.0001430498 0)
(-0.009014323 -0.00016972083 0)
(-0.0089635829 -0.00019658604 0)
(-0.0089051888 -0.00022361088 0)
(-0.0088390985 -0.00025076001 0)
(-0.0087652801 -0.00027799736 0)
(-0.0086837122 -0.00030528621 0)
(-0.0085943839 -0.00033258926 0)
(-0.008497295 -0.00035986868 0)
(-0.0083924564 -0.00038708623 0)
(-0.0082798897 -0.00041420328 0)
(-0.0081596279 -0.00044118092 0)
(-0.0080317149 -0.00046798005 0)
(-0.007896206 -0.0004945614 0)
(-0.0077531677 -0.00052088568 0)
(-0.0076026777 -0.00054691363 0)
(-0.0074448249 -0.00057260608 0)
(-0.0072797095 -0.00059792406 0)
(-0.0071074428 -0.00062282889 0)
(-0.0069281472 -0.00064728221 0)
(-0.0067419558 -0.00067124613 0)
(-0.0065490127 -0.00069468325 0)
(-0.0063494725 -0.00071755677 0)
(-0.0061435004 -0.00073983057 0)
(-0.0059312717 -0.00076146929 0)
(-0.0057129719 -0.00078243837 0)
(-0.0054887959 -0.00080270417 0)
(-0.0052589486 -0.00082223403 0)
(-0.0050236438 -0.00084099633 0)
(-0.0047831043 -0.00085896056 0)
(-0.0045375614 -0.00087609741 0)
(-0.0042872547 -0.00089237881 0)
(-0.0040324318 -0.000907778 0)
(-0.0037733474 -0.00092226958 0)
(-0.0035102637 -0.0009358296 0)
(-0.0032434492 -0.00094843556 0)
(-0.002973179 -0.00096006651 0)
(-0.0026997336 -0.00097070307 0)
(-0.0024233992 -0.00098032749 0)
(-0.0021444665 -0.00098892366 0)
(-0.0018632308 -0.00099647719 0)
(-0.0015799913 -0.0010029754 0)
(-0.0012950505 -0.0010084074 0)
(-0.0010087136 -0.0010127639 0)
(-0.00072128861 -0.0010160378 0)
(-0.00043308498 -0.0010182235 0)
(-0.00014441365 -0.0010193172 0)
(0.00014441366 -0.0010193172 0)
(0.00043308498 -0.0010182235 0)
(0.00072128861 -0.0010160378 0)
(0.0010087136 -0.0010127639 0)
(0.0012950505 -0.0010084074 0)
(0.0015799913 -0.0010029754 0)
(0.0018632308 -0.00099647719 0)
(0.0021444665 -0.00098892366 0)
(0.0024233992 -0.00098032749 0)
(0.0026997336 -0.00097070307 0)
(0.002973179 -0.00096006651 0)
(0.0032434492 -0.00094843556 0)
(0.0035102637 -0.0009358296 0)
(0.0037733474 -0.00092226958 0)
(0.0040324318 -0.000907778 0)
(0.0042872547 -0.00089237881 0)
(0.0045375614 -0.00087609741 0)
(0.0047831043 -0.00085896056 0)