/*--------------------------------*- C++ -*----------------------------------*\
| =========                 |                                                 |
| \\      /  F ield         | OpenFOAM: The Open Source CFD Toolbox           |
|  \\    /   O peration     | Version:  2106                                  |
|   \\  /    A nd           | Website:  www.openfoam.com                      |
|    \\/     M anipulation  |                                                 |
\*---------------------------------------------------------------------------*/
FoamFile
{
    version     2.0;
    format      ascii;
    arch        "LSB;label=32;scalar=64";
    class       volScalarField;
    location    "0.045";
    object      p;
}
// * * * * * * * * * * * * * * * * * * * * * * * * * * * * * * * * * * * * * //

dimensions      [1 -1 -2 0 0 0 0];

internalField   nonuniform List<scalar> 
256
(
-0.35969465
-0.30503796
-0.2036486
-0.071051506
0.073046118
0.20670319
0.30968116
0.36579004
0.36621755
0.31075949
0.20820583
0.074906602
-0.069156723
-0.20194336
-0.30383087
-0.35920885
-0.44861303
-0.38049727
-0.25419248
-0.089248403
0.090007334
0.25633105
0.3846958
0.45474121
0.45530679
0.38604172
0.25807431
0.092107606
-0.087083846
-0.25215318
-0.37898044
-0.44798488
-0.56095874
-0.4756214
-0.31765726
-0.11228179
0.11103325
0.3184057
0.47911121
0.56704136
0.56785254
0.48085771
0.32038254
0.11346567
-0.10969996
-0.31507543
-0.47358417
-0.56008405
-0.81663838
-0.69252211
-0.46266524
-0.16497092
0.15831282
0.45918828
0.69377364
0.82272249
0.82426093
0.69677275
0.46179304
0.16086275
-0.16206016
-0.45889417
-0.68907623
-0.81510476
-1.0969851
-0.9285073
-0.61817033
-0.22269134
0.20685234
0.60834766
0.92570591
1.1013282
1.1040604
0.93084869
0.61173
0.21030931
-0.21813388
-0.6118229
-0.92267511
-1.0945246
-1.7161018
-1.453992
-0.96731218
-0.34954689
0.31455283
0.93891501
1.4394032
1.718337
1.7240477
1.4503509
0.94227247
0.31245701
-0.3490548
-0.95788319
-1.4429579
-1.7114218
-2.3357317
-1.9655077
-1.2890155
-0.47054297
0.39312829
1.2273395
1.9261179
2.3193126
2.3307247
1.9518751
1.2343984
0.38736902
-0.46741465
-1.2644232
-1.9419955
-2.3278296
-3.6810766
-3.1005411
-2.0220919
-0.73153196
0.59806064
1.9026037
3.0251601
3.6504285
3.6700058
3.077003
1.9114742
0.56417924
-0.74820607
-1.9818016
-3.0574974
-3.6684492
3.6341945
3.0310431
1.9131702
0.60132202
-0.72157004
-1.9922345
-3.066347
-3.6637151
-3.6832765
-3.1172725
-2.0023042
-0.68871163
0.61781956
1.8733605
2.9875981
3.6218132
2.2697218
1.8951973
1.2133531
0.40030323
-0.44384327
-1.2473279
-1.9148688
-2.2895513
-2.3010266
-1.9407832
-1.2559963
-0.4386275
0.39635141
1.1882762
1.8710098
2.2616787
1.7252175
1.4512734
0.94955966
0.32132777
-0.34721696
-0.96943041
-1.4610556
-1.7312798
-1.736607
-1.4713475
-0.97233855
-0.34450311
0.3216777
0.94116192
1.4408601
1.7207548
0.99086006
0.83565829
0.55100151
0.19204688
-0.19467851
-0.55281518
-0.83599605
-0.99234306
-0.9955353
-0.84263199
-0.5583152
-0.20077842
0.18502458
0.54253594
0.82837057
0.98788094
0.8429442
0.71242753
0.47250821
0.16360174
-0.16895776
-0.47644681
-0.71428647
-0.84410759
-0.84523173
-0.71621859
-0.47741837
-0.16944871
0.16272584
0.47045782
0.71011836
0.84182371
0.3993109
0.33849228
0.22572498
0.080355594
-0.077458427
-0.22311796
-0.33642305
-0.39865287
-0.40010881
-0.34001704
-0.22771806
-0.083192813
0.074563972
0.22040441
0.33464701
0.39774535
0.36417472
0.30832545
0.20522382
0.071702722
-0.072580603
-0.2055657
-0.30799659
-0.36371549
-0.3641508
-0.3090634
-0.20678644
-0.074110259
0.070165377
0.20365493
0.3071356
0.36367675
0.33101021
0.28045884
0.18707375
0.065637734
-0.065965236
-0.18705332
-0.27991266
-0.33028864
-0.33062213
-0.280778
-0.18824661
-0.067631935
0.063986287
0.18562986
0.27948937
0.33060783
)
;

boundaryField
{
    leftWall
    {
        type            cyclic;
    }
    rightWall
    {
        type            cyclic;
    }
    lowerWall
    {
        type            calculated;
        value           nonuniform List<scalar> 
16
(
-0.35969465
-0.30503796
-0.2036486
-0.071051506
0.073046118
0.20670319
0.30968116
0.36579004
0.36621755
0.31075949
0.20820583
0.074906602
-0.069156723
-0.20194336
-0.30383087
-0.35920885
)
;
    }
    atmosphere
    {
        type            calculated;
        value           nonuniform List<scalar> 
16
(
0
0
0
0
-0.0015884979
-0.0011410077
-0.00050914507
-6.2693687e-05
-6.2923357e-05
-0.0005096919
-0.0011417861
-0.0015888872
0
0
0
0
)
;
    }
    defaultFaces
    {
        type            empty;
    }
}


// ************************************************************************* //
