/*--------------------------------*- C++ -*----------------------------------*\
| =========                 |                                                 |
| \\      /  F ield         | OpenFOAM: The Open Source CFD Toolbox           |
|  \\    /   O peration     | Version:  2306                                  |
|   \\  /    A nd           | Website:  www.openfoam.com                      |
|    \\/     M anipulation  |                                                 |
\*---------------------------------------------------------------------------*/
FoamFile
{
    version     2.0;
    format      ascii;
    arch        "LSB;label=32;scalar=64";
    class       volVectorField;
    location    "0.57";
    object      U_0;
}
// * * * * * * * * * * * * * * * * * * * * * * * * * * * * * * * * * * * * * //

dimensions      [0 1 -1 0 0 0 0];

internalField   nonuniform List<vector> 
6400
(
(-0.002910137 0.0055324038 1.0865237e-19)
(-0.0026703412 0.0053977546 9.2041146e-20)
(-0.0024472879 0.005263011 -4.1048523e-19)
(-0.0022399822 0.0051288164 -2.7169215e-19)
(-0.0020474526 0.0049957308 -4.93108e-20)
(-0.0018687557 0.0048642301 2.3018465e-19)
(-0.0017029822 0.0047347171 1.1013825e-19)
(-0.0015492586 0.0046075245 3.7543167e-19)
(-0.0014067528 0.0044829223 2.0695722e-19)
(-0.0012746723 0.0043611219 2.0286917e-19)
(-0.0011522661 0.0042422846 2.8630626e-19)
(-0.0010388295 0.0041265256 2.8011679e-19)
(-0.00093370037 0.0040139187 -5.788277e-21)
(-0.00083626263 0.0039045033 -3.8990485e-20)
(-0.0007459403 0.0037982928 -1.4224976e-20)
(-0.00066219975 0.0036952699 2.8739071e-20)
(-0.00058455003 0.0035953992 -2.333904e-21)
(-0.00051253436 0.0034986278 -6.2733369e-21)
(-0.00044574229 0.0034048893 -6.2732487e-20)
(-0.00038379316 0.0033141093 -3.6110271e-21)
(-0.00032633327 0.0032262035 1.2774524e-19)
(-0.00027304477 0.0031410856 3.4493191e-20)
(-0.00022364485 0.003058665 -3.5261419e-20)
(-0.00017786921 0.0029788504 -6.8848938e-20)
(-0.00013547131 0.0029015524 1.6053641e-21)
(-9.6238445e-05 0.0028266841 8.4073415e-20)
(-5.9970949e-05 0.0027541553 6.0012141e-21)
(-2.6488348e-05 0.002683893 -3.0997359e-20)
(4.3734503e-06 0.0026158104 2.9638716e-20)
(3.2768919e-05 0.0025498378 2.9915411e-20)
(5.8836351e-05 0.0024859062 5.0171372e-21)
(8.2703053e-05 0.0024239504 7.6585976e-20)
(0.00010448762 0.0023639104 7.7525632e-20)
(0.00012429993 0.0023057305 2.5847095e-20)
(0.00014224229 0.0022493588 3.3473951e-20)
(0.00015841041 0.0021947471 3.573032e-20)
(0.00017289423 0.0021418509 5.3593741e-21)
(0.00018577843 0.0020906291 3.9564455e-20)
(0.00019714316 0.0020410432 1.4436056e-20)
(0.00020706447 0.0019930578 -3.1260861e-20)
(0.00021561465 0.0019466395 -2.0961609e-20)
(0.00022286274 0.0019017572 3.9431523e-20)
(0.00022887479 0.0018583819 1.2759781e-20)
(0.00023371406 0.0018164855 -1.4303484e-20)
(0.00023744129 0.0017760424 -2.336523e-20)
(0.00024011475 0.0017370272 -1.8547849e-20)
(0.00024179053 0.0016994164 4.1594876e-20)
(0.00024252255 0.0016631869 1.4535944e-20)
(0.0002423627 0.0016283169 -3.7369052e-20)
(0.00024136105 0.0015947851 -1.3614096e-20)
(0.00023956563 0.0015625707 2.1599719e-20)
(0.00023702274 0.0015316538 1.6013563e-20)
(0.0002337772 0.0015020148 1.3816146e-20)
(0.00022987196 0.0014736347 1.7127572e-20)
(0.00022534824 0.0014464948 -4.3953246e-21)
(0.00022024586 0.0014205771 3.2077821e-21)
(0.00021460316 0.0013958639 1.3880874e-20)
(0.00020845694 0.0013723377 4.0634435e-20)
(0.00020184261 0.0013499817 2.214737e-20)
(0.00019479416 0.0013287793 -1.162745e-20)
(0.00018734433 0.0013087144 3.7317368e-21)
(0.00017952451 0.0012897713 -9.2255764e-22)
(0.00017136491 0.0012719345 6.9510143e-21)
(0.0001628946 0.0012551893 1.4017475e-20)
(0.00015414154 0.0012395212 -1.2996872e-20)
(0.00014513252 0.0012249163 -2.3755337e-21)
(0.00013589337 0.0012113608 2.3471574e-21)
(0.00012644905 0.0011988419 7.919957e-21)
(0.00011682356 0.001187347 -4.1770098e-21)
(0.00010703999 0.0011768639 -4.6470697e-21)
(9.7120652e-05 0.001167381 4.522409e-21)
(8.7087118e-05 0.001158887 2.481607e-21)
(7.696027e-05 0.0011513709 6.6252375e-21)
(6.6760291e-05 0.0011448213 2.3607411e-21)
(5.6506921e-05 0.0011392258 -6.8320257e-21)
(4.6219746e-05 0.0011345692 -5.6073699e-21)
(3.5917787e-05 0.0011308312 -8.2682505e-22)
(2.5614401e-05 0.0011279819 -3.7574651e-21)
(1.5317804e-05 0.0011259774 -1.4284548e-20)
(5.0718172e-06 0.0011247909 -2.6001386e-20)
(-0.0030378491 0.0053211792 -1.9442215e-19)
(-0.0027988526 0.0052000206 1.6936296e-19)
(-0.0025759107 0.0050780888 -2.9090545e-19)
(-0.0023681138 0.0049560247 -5.9090361e-19)
(-0.0021745711 0.0048343911 -4.3454071e-19)
(-0.0019944145 0.0047136744 -1.524589e-19)
(-0.0018268046 0.0045942908 -1.4070362e-19)
(-0.0016709324 0.0044765913 1.3287708e-19)
(-0.0015260248 0.0043608679 -1.0012704e-19)
(-0.0013913423 0.0042473579 -9.3321453e-20)
(-0.0012661816 0.0041362492 1.2392155e-19)
(-0.0011498804 0.0040276858 1.7121104e-19)
(-0.001041814 0.0039217721 -1.0803796e-19)
(-0.00094139703 0.0038185783 -2.6264619e-19)
(-0.00084808204 0.0037181476 -1.8106338e-19)
(-0.00076135904 0.0036204933 -7.7465201e-20)
(-0.00068075601 0.0035256117 -6.9773172e-20)
(-0.00060583376 0.0034334786 -5.055389e-20)
(-0.00053619035 0.003344052 -1.3107313e-19)
(-0.0004714548 0.0032572894 -1.1678563e-19)
(-0.00041128295 0.0031731302 1.6904995e-20)
(-0.00035536179 0.003091511 1.7916849e-20)
(-0.00030340755 0.0030123595 -6.5816422e-20)
(-0.00025515705 0.0029356113 -8.019169e-20)
(-0.00021036578 0.0028611916 -2.3081319e-20)
(-0.00016882 0.0027890288 2.554702e-20)
(-0.00013031411 0.0027190534 2.3814503e-20)
(-9.4667381e-05 0.0026511972 -2.1311982e-20)
(-6.1714008e-05 0.0025853956 -5.9092774e-20)
(-3.1290785e-05 0.0025215835 -6.805712e-21)
(-3.2592568e-06 0.0024597028 4.2702965e-20)
(2.2512578e-05 0.0023996978 6.4399919e-20)
(4.614786e-05 0.0023415149 8.4441172e-21)
(6.7759646e-05 0.0022851051 -2.6235267e-20)
(8.7453703e-05 0.0022304221 -3.4242688e-21)
(0.00010532928 0.002177423 1.0302599e-20)
(0.00012147945 0.0021260675 -5.7694041e-21)
(0.00013599174 0.0020763184 -2.3056099e-20)
(0.00014894887 0.0020281406 -3.4719972e-20)
(0.00016042926 0.0019815017 -4.3623865e-20)
(0.00017050734 0.001936371 -4.2302523e-22)
(0.000179254 0.0018927198 2.0310179e-20)
(0.000186737 0.0018505212 -8.8958685e-21)
(0.00019302102 0.0018097491 -2.6813207e-20)
(0.00019816806 0.0017703795 -3.112087e-20)
(0.00020223762 0.0017323892 -1.9977939e-20)
(0.00020528667 0.0016957558 6.9194434e-21)
(0.00020737004 0.0016604581 -2.3129277e-20)
(0.00020854048 0.0016264753 -2.6616485e-20)
(0.0002088486 0.0015937879 -3.3458488e-21)
(0.00020834314 0.0015623763 2.3262191e-20)
(0.00020707103 0.0015322218 5.7031116e-21)
(0.00020507744 0.0015033061 -2.172013e-21)
(0.00020240569 0.0014756113 3.4210762e-21)
(0.00019909765 0.0014491202 4.8797173e-21)
(0.00019519354 0.0014238157 2.5168402e-20)
(0.00019073197 0.0013996814 2.2982851e-20)
(0.00018575015 0.0013767008 1.255135e-20)
(0.00018028389 0.0013548581 -2.5086083e-21)
(0.00017436766 0.001334138 -9.7906209e-21)
(0.00016803448 0.001314525 1.9959074e-21)
(0.00016131617 0.0012960047 -5.2377523e-21)
(0.00015424343 0.0012785624 -3.745868e-21)
(0.00014684571 0.0012621844 2.7363567e-21)
(0.00013915132 0.0012468571 -3.4851658e-21)
(0.00013118755 0.0012325671 7.7955416e-21)
(0.00012298074 0.0012193018 -3.6087491e-21)
(0.00011455625 0.0012070489 -8.2317397e-21)
(0.00010593857 0.0011957966 -4.1905315e-21)
(9.715126e-05 0.0011855333 -3.1163731e-21)
(8.8217065e-05 0.0011762481 1.2196448e-20)
(7.9158123e-05 0.0011679301 1.2378267e-20)
(6.9995849e-05 0.001160569 5.6542511e-21)
(6.0750929e-05 0.0011541538 7.6300466e-21)
(5.1443644e-05 0.0011486725 -1.7105358e-22)
(4.2094074e-05 0.0011441104 -1.3665889e-21)
(3.2721639e-05 0.0011404474 -4.5211674e-21)
(2.3340485e-05 0.0011376545 -9.7139784e-21)
(1.3960119e-05 0.0011356885 -2.0033275e-20)
(4.622529e-06 0.001134524 -3.011096e-20)
(-0.0031520917 0.0051129735 4.8190499e-20)
(-0.0029145309 0.0050045728 1.8771652e-19)
(-0.0026923442 0.0048947959 -1.8043074e-19)
(-0.0024847011 0.0047842786 -3.5779631e-19)
(-0.0022907854 0.0046735831 -2.9612965e-19)
(-0.0021097997 0.0045632016 -2.1068791e-19)
(-0.0019409702 0.0044535601 -1.9053277e-19)
(-0.0017835485 0.0043450236 7.8894127e-20)
(-0.0016368163 0.0042379012 -2.9445013e-20)
(-0.0015000852 0.0041324516 -1.3696671e-19)
(-0.0013726974 0.0040288847 3.746325e-21)
(-0.0012540319 0.0039273688 -1.6364185e-20)
(-0.0011435 0.0038280343 -1.4387888e-19)
(-0.0010405478 0.0037309783 -1.2400084e-19)
(-0.00094465559 0.0036362696 -5.7931672e-20)
(-0.00085533621 0.0035439492 -1.2355392e-19)
(-0.00077213778 0.0034540393 -2.3848842e-19)
(-0.00069463975 0.0033665427 -1.6419221e-19)
(-0.00062245096 0.0032814429 -5.4356065e-20)
(-0.00055521015 0.0031987187 -4.7130188e-20)
(-0.00049258296 0.0031183344 -1.8701489e-20)
(-0.00043426354 0.0030402482 -6.3179085e-20)
(-0.00037997072 0.0029644079 -1.3025185e-19)
(-0.00032944272 0.0028907662 -6.945471e-21)
(-0.00028243938 0.002819267 -7.3852991e-21)
(-0.00023874315 0.0027498524 -1.9156084e-20)
(-0.00019815104 0.0026824713 -1.6561951e-20)
(-0.00016047772 0.0026170623 -5.9053582e-20)
(-0.00012555493 0.0025535804 -4.3020063e-20)
(-9.3222048e-05 0.0024919649 -1.5080748e-20)
(-6.3332764e-05 0.0024321691 -1.2079402e-20)
(-3.5754079e-05 0.0023741458 -1.6270655e-20)
(-1.0360374e-05 0.0023178482 7.8125231e-21)
(1.2965111e-05 0.0022632355 2.3711717e-20)
(3.4330547e-05 0.002210266 7.8321887e-21)
(5.3838026e-05 0.0021589013 -3.335375e-20)
(7.1583376e-05 0.0021091061 -3.2704199e-20)
(8.7656368e-05 0.0020608478 -1.3639756e-20)
(0.00010214175 0.0020140944 4.1274578e-21)
(0.00011512001 0.0019688168 -2.0149353e-20)
(0.00012666739 0.001924987 -3.5224074e-21)
(0.00013685646 0.0018825791 -3.083441e-20)
(0.0001457564 0.0018415683 -1.093115e-20)
(0.00015343319 0.0018019309 -8.8445414e-21)
(0.00015994987 0.0017636447 -2.2657918e-20)
(0.00016536696 0.0017266881 -1.4900047e-20)
(0.00016974247 0.0016910407 -1.323486e-20)
(0.00017313199 0.0016566828 -2.0532832e-20)
(0.00017558879 0.0016235952 8.5536436e-21)
(0.00017716419 0.0015917596 -8.3398184e-22)
(0.00017790759 0.001561158 1.9555497e-21)
(0.00017786637 0.001531773 -9.2690053e-21)
(0.0001770861 0.0015035875 -6.0278293e-21)
(0.00017561058 0.001476585 1.2598333e-20)
(0.00017348199 0.0014507493 3.825598e-21)
(0.00017074097 0.0014260647 7.6467015e-21)
(0.00016742659 0.0014025156 -1.7196402e-22)
(0.00016357636 0.0013800869 -3.13564e-21)
(0.00015922643 0.0013587639 -3.3820804e-21)
(0.00015441159 0.001338532 -1.2053148e-20)
(0.00014916526 0.001319377 -9.4832488e-21)
(0.00014351973 0.0013012853 -8.2600016e-21)
(0.00013750593 0.0012842432 -5.6229311e-21)
(0.00013115364 0.0012682378 -7.5990002e-21)
(0.0001244917 0.0012532564 -3.1472102e-21)
(0.00011754782 0.0012392864 4.3834096e-21)
(0.0001103487 0.001226316 -1.2753642e-20)
(0.00010292015 0.0012143336 -9.619168e-21)
(9.5286974e-05 0.0012033281 -8.1178259e-21)
(8.7473173e-05 0.0011932886 -3.3092907e-21)
(7.9502127e-05 0.0011842046 8.9362864e-21)
(7.139638e-05 0.001176066 2.8160209e-21)
(6.3177716e-05 0.0011688628 -4.9841143e-21)
(5.4867328e-05 0.0011625846 4.1314309e-21)
(4.6485926e-05 0.0011572196 5.1182541e-21)
(3.8053998e-05 0.0011527539 -8.412343e-22)
(2.9591556e-05 0.0011491676 -1.1967527e-20)
(2.1113522e-05 0.0011464322 -1.5436381e-20)
(1.2630395e-05 0.0011445056 -2.5702889e-20)
(4.1824554e-06 0.0011433637 -3.3491724e-20)
(-0.0032536264 0.0049082143 3.5785484e-19)
(-0.0030180633 0.0048118601 8.5779981e-20)
(-0.0027972041 0.0047135967 -2.9761089e-19)
(-0.0025902913 0.0046140516 -3.1825998e-19)
(-0.0023965781 0.0045137838 -2.2835833e-19)
(-0.0022153329 0.0044132873 -2.4122957e-19)
(-0.0020458432 0.0043129948 -3.139108e-19)
(-0.0018874174 0.0042132816 -2.0558782e-20)
(-0.0017393893 0.0041144699 4.1916428e-20)
(-0.0016011185 0.004016835 -1.078213e-19)
(-0.0014719915 0.0039206052 -1.4450608e-19)
(-0.0013514263 0.0038259692 -1.8113315e-19)
(-0.0012388695 0.0037330794 -1.9927788e-20)
(-0.0011337975 0.0036420557 1.1925497e-19)
(-0.0010357184 0.0035529897 -7.6051074e-21)
(-0.00094416895 0.0034659466 -2.0379312e-19)
(-0.00085871598 0.0033809703 -2.7838794e-19)
(-0.00077895769 0.0032980872 -7.6073851e-20)
(-0.00070451718 0.0032173056 -9.0812561e-21)
(-0.00063504313 0.0031386228 -2.4809029e-20)
(-0.0005702107 0.0030620244 -6.8097016e-20)
(-0.00050972324 0.0029874876 -1.1106107e-19)
(-0.00045330368 0.0029149811 -7.458325e-20)
(-0.00040069273 0.0028444724 1.4018612e-20)
(-0.000351655 0.0027759217 1.7150603e-21)
(-0.00030597295 0.0027092872 -6.2147275e-20)
(-0.00026344425 0.0026445286 -5.9279502e-20)
(-0.00022388163 0.0025816019 -3.3242004e-20)
(-0.00018711859 0.0025204645 -1.7442787e-20)
(-0.0001529938 0.0024610746 -4.2311745e-21)
(-0.00012135585 0.0024033911 -2.9450732e-20)
(-9.2071681e-05 0.0023473739 -3.4133072e-20)
(-6.5012367e-05 0.0022929856 4.2162208e-21)
(-4.0060025e-05 0.0022401907 5.070141e-20)
(-1.7105796e-05 0.0021889539 7.604666e-21)
(3.9557607e-06 0.0021392416 -1.1918483e-20)
(2.3223423e-05 0.0020910236 -2.175859e-20)
(4.0788183e-05 0.0020442717 -6.722737e-21)
(5.673616e-05 0.0019989561 1.8116075e-20)
(7.1149933e-05 0.0019550523 1.6769001e-20)
(8.4106928e-05 0.001912535 1.8697584e-20)
(9.5681197e-05 0.0018713808 -2.5090065e-20)
(0.00010594319 0.0018315673 4.7575057e-21)
(0.00011495992 0.0017930735 1.1373024e-20)
(0.00012279547 0.0017558789 1.0430095e-20)
(0.00012951118 0.0017199638 1.6809562e-21)
(0.0001351658 0.0016853098 -1.7664394e-20)
(0.00013981564 0.0016518986 -6.3783517e-23)
(0.00014351468 0.0016197129 1.6015229e-20)
(0.00014631474 0.0015887356 1.5259551e-20)
(0.00014826567 0.0015589504 3.3997693e-21)
(0.00014941528 0.0015303409 -4.2839378e-21)
(0.00014980959 0.0015028917 2.6136416e-21)
(0.00014949282 0.0014765874 8.1789987e-21)
(0.00014850746 0.0014514131 6.0615237e-21)
(0.00014689443 0.001427354 7.001413e-21)
(0.00014469317 0.0014043959 1.3586753e-21)
(0.00014194156 0.0013825246 5.2548659e-21)
(0.00013867602 0.0013617267 -9.261835e-22)
(0.00013493167 0.0013419883 1.6511961e-21)
(0.00013074233 0.0013232965 2.0442707e-21)
(0.00012614048 0.0013056385 -1.1236102e-20)
(0.00012115744 0.0012890016 1.7863222e-21)
(0.00011582343 0.0012733736 1.2485775e-21)
(0.00011016763 0.0012587428 4.4742519e-21)
(0.00010421803 0.0012450972 -3.0634845e-21)
(9.8001616e-05 0.001232426 -1.2104917e-20)
(9.154462e-05 0.001220718 -1.7061439e-21)
(8.4872404e-05 0.001209963 1.6046725e-21)
(7.8009331e-05 0.0012001507 5.477953e-21)
(7.097909e-05 0.0011912712 6.3380429e-21)
(6.3804618e-05 0.0011833149 1.2751573e-21)
(5.6508166e-05 0.0011762722 4.3250014e-21)
(4.911145e-05 0.0011701332 2.5661969e-21)
(4.1635514e-05 0.0011648867 6.8612998e-21)
(3.4101226e-05 0.001160519 -1.1204128e-21)
(2.6528991e-05 0.0011570109 -6.424946e-21)
(1.8934464e-05 0.001154334 -1.1422491e-20)
(1.1329291e-05 0.0011524477 -2.0945597e-20)
(3.7518911e-06 0.0011513289 -3.1046098e-20)
(-0.0033431888 0.0047072666 6.0078589e-19)
(-0.0031101177 0.0046222705 3.4098714e-19)
(-0.0028910927 0.004534896 -3.784389e-19)
(-0.0026854239 0.0044457598 -1.0870769e-19)
(-0.002492429 0.0043554154 -7.7486922e-21)
(-0.0023114373 0.0042643553 1.4715746e-19)
(-0.0021417934 0.0041730162 6.3668387e-20)
(-0.0019828594 0.0040817801 1.920234e-19)
(-0.0018340183 0.0039909792 3.1844502e-19)
(-0.0016946753 0.0039009011 9.2142875e-20)
(-0.0015642588 0.0038117896 1.641655e-19)
(-0.0014422241 0.00372385 1.1146135e-19)
(-0.0013280518 0.0036372534 5.2199876e-20)
(-0.0012212485 0.0035521386 1.8602657e-19)
(-0.0011213491 0.003468617 7.759776e-20)
(-0.0010279142 0.0033867747 7.6258155e-20)
(-0.00094053095 0.0033066757 5.9340346e-20)
(-0.00085881397 0.0032283653 -2.4867428e-20)
(-0.00078240153 0.0031518744 2.2173267e-20)
(-0.00071095546 0.0030772179 6.3226956e-20)
(-0.00064416115 0.0030043998 7.6807662e-20)
(-0.00058172914 0.0029334141 5.9186944e-20)
(-0.00052338844 0.0028642494 -6.0542276e-22)
(-0.00046888603 0.002796886 9.6262339e-21)
(-0.00041798989 0.0027312997 6.7864672e-20)
(-0.000370484 0.0026674632 4.1936543e-20)
(-0.00032616769 0.0026053476 3.8030106e-20)
(-0.00028485702 0.002544922 -1.774243e-20)
(-0.00024638196 0.0024861505 -1.8127638e-20)
(-0.00021058072 0.0024290066 -1.0774222e-20)
(-0.00017730464 0.0023734547 -2.6350828e-20)
(-0.00014641716 0.0023194634 3.0730846e-20)
(-0.00011778854 0.0022670027 6.0337004e-20)
(-9.129926e-05 0.0022160412 5.7669047e-20)
(-6.6839184e-05 0.0021665516 6.3530527e-21)
(-4.4301651e-05 0.0021185066 3.8528878e-21)
(-2.3585098e-05 0.002071879 1.8385243e-20)
(-4.5993142e-06 0.002026644 2.8668577e-20)
(1.2743881e-05 0.0019827779 3.8186542e-20)
(2.85299e-05 0.0019402586 3.4574339e-20)
(4.2835878e-05 0.0018990631 -1.7420027e-20)
(5.573739e-05 0.0018591709 3.9171079e-22)
(6.7305887e-05 0.0018205629 3.7074253e-20)
(7.7609221e-05 0.0017832198 3.2130568e-20)
(8.6712316e-05 0.0017471236 2.1019765e-20)
(9.4677254e-05 0.0017122566 7.244004e-21)
(0.00010156338 0.0016786021 1.4320441e-20)
(0.0001074276 0.0016461435 3.8436762e-20)
(0.00011232448 0.0016148652 7.0951693e-21)
(0.00011630629 0.0015847517 2.4010646e-20)
(0.00011942322 0.001555788 4.3769859e-21)
(0.00012172351 0.0015279594 7.1578851e-21)
(0.00012325356 0.0015012516 2.4024605e-20)
(0.00012405788 0.0014756505 5.9824739e-21)
(0.00012417931 0.0014511424 5.8046999e-21)
(0.00012365905 0.0014277136 1.0989936e-20)
(0.00012253684 0.0014053514 1.81879e-20)
(0.0001208508 0.0013840424 2.5067824e-20)
(0.00011863765 0.0013637742 4.7940271e-21)
(0.00011593284 0.0013445341 5.0908347e-21)
(0.00011277041 0.00132631 -3.5207879e-21)
(0.00010918312 0.0013090901 -4.0013353e-21)
(0.00010520268 0.0012928627 7.4545359e-21)
(0.00010085961 0.0012776162 1.2866134e-21)
(9.6183242e-05 0.0012633399 4.4178866e-21)
(9.1202003e-05 0.0012500227 -4.863378e-21)
(8.5943305e-05 0.0012376543 -5.458872e-21)
(8.0433595e-05 0.0012262243 1.3688911e-20)
(7.4698542e-05 0.001215723 1.2873183e-20)
(6.8762957e-05 0.001206141 1.1547336e-20)
(6.265087e-05 0.0011974687 4.2504433e-21)
(5.6385642e-05 0.0011896973 8.8236379e-21)
(4.9989879e-05 0.0011828175 1.5473718e-20)
(4.3485613e-05 0.0011768198 6.1286024e-21)
(3.6894289e-05 0.0011716936 6.3091226e-21)
(3.0237167e-05 0.0011674255 -4.8112791e-22)
(2.3535018e-05 0.0011639966 -1.5967616e-21)
(1.6804146e-05 0.0011613794 -6.0109175e-21)
(1.0057188e-05 0.0011595341 -2.0055143e-20)
(3.3308768e-06 0.0011584388 -2.5680421e-20)
(-0.0034214883 0.004510439 2.1665231e-19)
(-0.0031913419 0.0044361365 5.9509386e-19)
(-0.0029745979 0.0043590442 -2.7706311e-19)
(-0.002770629 0.0042797667 -3.7009861e-19)
(-0.0025788127 0.0041988493 -8.4966231e-20)
(-0.0023985348 0.0041167816 1.7492497e-19)
(-0.0022291936 0.0040340001 2.7635753e-19)
(-0.0020702013 0.0039508915 1.7616694e-19)
(-0.0019209874 0.003867795 8.7345258e-20)
(-0.001781 0.003785007 1.1163849e-19)
(-0.0016497074 0.0037027839 2.5508004e-19)
(-0.0015266005 0.0036213446 2.969026e-19)
(-0.0014111928 0.0035408751 -4.2673392e-20)
(-0.0013030203 0.0034615307 -6.1270226e-20)
(-0.0012016441 0.0033834393 1.64157e-20)
(-0.001106648 0.003306705 1.1102994e-19)
(-0.0010176395 0.0032314097 1.22772e-19)
(-0.00093425057 0.0031576161 -5.7694852e-20)
(-0.00085613452 0.0030853725 1.4439384e-22)
(-0.00078296662 0.0030147112 3.6990619e-20)
(-0.00071444299 0.0029456526 1.2022418e-19)
(-0.00065028281 0.0028782066 1.5170362e-19)
(-0.00059022235 0.0028123776 -2.0944255e-20)
(-0.00053401493 0.002748159 -5.911997e-20)
(-0.00048143279 0.0026855412 5.050799e-20)
(-0.00043226313 0.0026245099 5.3409855e-20)
(-0.0003863078 0.0025650469 5.0348146e-20)
(-0.00034338561 0.0025071319 -3.0717426e-20)
(-0.00030332609 0.0024507417 -2.7620226e-20)
(-0.00026596781 0.0023958555 -3.67304e-20)
(-0.00023116365 0.0023424478 -4.9233955e-20)
(-0.00019877553 0.0022904949 7.2151017e-20)
(-0.00016867399 0.0022399733 6.4287088e-20)
(-0.0001407386 0.0021908581 -3.1931392e-21)
(-0.00011485648 0.0021431276 -1.6641901e-20)
(-9.0921824e-05 0.0020967596 -1.9151158e-20)
(-6.8833598e-05 0.002051732 5.7666278e-20)
(-4.8497423e-05 0.0020080227 4.8890697e-20)
(-2.9824463e-05 0.001965614 -1.2127903e-20)
(-1.2730868e-05 0.0019244869 -2.4836905e-20)
(2.8620769e-06 0.0018846193 -4.3918135e-20)
(1.7032101e-05 0.0018459961 3.8903629e-20)
(2.9851155e-05 0.0018086 2.0661936e-20)
(4.1387269e-05 0.0017724133 -5.7107608e-21)
(5.1706271e-05 0.0017374209 1.8887794e-21)
(6.087063e-05 0.0017036069 3.0370219e-21)
(6.8940376e-05 0.0016709567 3.0141974e-20)
(7.597287e-05 0.0016394553 4.5531226e-20)
(8.2023051e-05 0.0016090889 1.9894226e-20)
(8.71435e-05 0.0015798436 -5.191643e-22)
(9.1384822e-05 0.0015517057 -1.8120997e-20)
(9.4795652e-05 0.0015246622 -9.1333245e-22)
(9.7422508e-05 0.0014986998 1.9906836e-20)
(9.9310254e-05 0.0014738061 7.2774194e-21)
(0.00010050209 0.0014499682 1.0837784e-20)
(0.00010103938 0.001427174 4.7015714e-22)
(0.00010096203 0.0014054116 1.2887565e-20)
(0.00010030852 0.0013846689 1.8779286e-20)
(9.911575e-05 0.0013649343 6.7972191e-21)
(9.7419361e-05 0.0013461964 -4.9531676e-21)
(9.5253667e-05 0.0013284439 -3.3983341e-21)
(9.2651787e-05 0.0013116659 -2.6793588e-21)
(8.9645594e-05 0.0012958514 9.8747194e-21)
(8.6265826e-05 0.0012809902 7.8974489e-21)
(8.2542182e-05 0.0012670719 -2.0650551e-21)
(7.8503348e-05 0.0012540863 -1.7593381e-21)
(7.4177034e-05 0.0012420239 2.4252834e-21)
(6.9589998e-05 0.0012308749 9.3172599e-21)
(6.476822e-05 0.0012206302 3.7669778e-21)
(5.973679e-05 0.0012112811 4.0618878e-21)
(5.4520036e-05 0.0012028185 3.6489724e-21)
(4.9141688e-05 0.001195234 9.7753959e-21)
(4.3624729e-05 0.0011885191 9.2937813e-21)
(3.7991461e-05 0.0011826647 6.2851528e-21)
(3.2263704e-05 0.0011776603 -3.5554577e-21)
(2.6463075e-05 0.0011734929 -2.9309932e-21)
(2.0610665e-05 0.0011701444 -2.0637894e-21)
(1.4723375e-05 0.0011675877 -7.2119655e-21)
(8.8147485e-06 0.001165784 -2.3334088e-20)
(2.919714e-06 0.0011647128 -3.0185278e-20)
(-0.0034892071 0.0043179894 1.825275e-20)
(-0.0032623618 0.0042537401 3.8800101e-19)
(-0.003048291 0.0041863427 -6.3761468e-20)
(-0.002846425 0.0041163879 -6.8365466e-19)
(-0.0026561968 0.0040444115 -4.2320748e-19)
(-0.0024770449 0.0039708976 -1.531137e-19)
(-0.0023084174 0.0038962806 6.0505163e-21)
(-0.0021497735 0.0038209489 1.4403053e-19)
(-0.0020005866 0.0037452463 -2.5058429e-19)
(-0.0018603454 0.0036694757 -1.0486577e-19)
(-0.0017285557 0.0035939028 1.2545528e-19)
(-0.0016047428 0.0035187573 2.490109e-19)
(-0.0014884515 0.0034442377 4.5071566e-20)
(-0.0013792466 0.0033705124 -3.1972182e-19)
(-0.0012767142 0.003297724 -2.0254664e-19)
(-0.0011804609 0.0032259915 5.7506552e-21)
(-0.0010901148 0.003155412 1.4599331e-20)
(-0.001005325 0.0030860642 -3.3145491e-20)
(-0.00092576021 0.003018011 -1.723991e-19)
(-0.0008511093 0.0029513003 -1.6476724e-19)
(-0.00078108008 0.0028859672 5.4035411e-20)
(-0.00071540015 0.0028220357 9.342535e-20)
(-0.00065381447 0.0027595244 -7.9140636e-21)
(-0.00059608349 0.0026984391 -1.0048975e-19)
(-0.00054198362 0.0026387833 -2.7874617e-20)
(-0.00049130702 0.0025805545 2.6146288e-20)
(-0.00044385927 0.0025237442 4.5672537e-20)
(-0.00039946081 0.0024683429 5.6604682e-21)
(-0.00035794248 0.0024143378 -1.0400118e-19)
(-0.00031914544 0.0023617146 -6.8571679e-20)
(-0.00028292336 0.0023104576 -3.3337267e-20)
(-0.00024913755 0.0022605498 -3.285207e-21)
(-0.00021765914 0.0022119742 5.9887974e-21)
(-0.00018836741 0.0021647127 -5.0505742e-20)
(-0.000161149 0.0021187483 -1.9595648e-20)
(-0.00013589786 0.0020740636 -1.8445094e-20)
(-0.00011251254 0.0020306419 -2.4643328e-21)
(-9.0898027e-05 0.0019884662 -2.6499592e-20)
(-7.0963509e-05 0.0019475201 -5.7907067e-20)
(-5.2627478e-05 0.0019077877 -4.5024859e-20)
(-3.5809087e-05 0.0018692541 -1.2838994e-20)
(-2.0428293e-05 0.001831904 -4.2370768e-22)
(-6.4156816e-06 0.0017957232 -1.272803e-20)
(6.2988589e-06 0.0017606969 -1.9963398e-20)
(1.7781973e-05 0.0017268127 -1.0591848e-20)
(2.8095818e-05 0.0016940556 -2.0764529e-23)
(3.7301132e-05 0.0016624129 3.4491759e-21)
(4.5455549e-05 0.0016318721 -1.36652e-20)
(5.2614289e-05 0.0016024209 -1.5406524e-20)
(5.8830339e-05 0.001574047 -2.0293904e-20)
(6.4154485e-05 0.0015467382 -1.0642148e-20)
(6.8635517e-05 0.0015204829 2.3304438e-22)
(7.2320219e-05 0.0014952694 5.8316241e-21)
(7.5253725e-05 0.0014710861 5.055287e-21)
(7.7479403e-05 0.0014479217 1.0685176e-20)
(7.9038915e-05 0.0014257653 2.1699636e-21)
(7.9972343e-05 0.0014046058 6.8931992e-21)
(8.0318226e-05 0.0013844325 1.3894044e-21)
(8.011374e-05 0.0013652349 -6.7611266e-21)
(7.9394687e-05 0.0013470023 -8.6032061e-21)
(7.8195623e-05 0.0013297245 4.8917073e-22)
(7.6549872e-05 0.0013133914 -5.3792981e-21)
(7.4489477e-05 0.0012979931 -2.6303463e-21)
(7.2045438e-05 0.0012835201 2.5150016e-21)
(6.9247734e-05 0.0012699627 -6.7628919e-22)
(6.612524e-05 0.0012573115 -2.8874671e-21)
(6.270586e-05 0.0012455577 -5.0595659e-21)
(5.9016717e-05 0.0012346922 -9.5297391e-21)
(5.5083974e-05 0.0012247066 -6.0617502e-21)
(5.093306e-05 0.0012155926 1.5798096e-21)
(4.658866e-05 0.0012073418 7.9398709e-21)
(4.207467e-05 0.0011999463 5.8348395e-21)
(3.7414442e-05 0.001193398 7.8194221e-21)
(3.2630578e-05 0.0011876882 3.5318179e-21)
(2.7745169e-05 0.001182807 -3.6908071e-21)
(2.2780083e-05 0.0011787416 -4.2514175e-21)
(1.7756676e-05 0.0011754744 -7.2372766e-21)
(1.2692482e-05 0.0011729788 -1.529298e-20)
(7.6020316e-06 0.0011712173 -2.0701419e-20)
(2.5183976e-06 0.0011701704 -2.8041678e-20)
(-0.0035470008 0.0041301298 5.2254657e-20)
(-0.0033237818 0.0040753179 -3.6581807e-20)
(-0.003112726 0.004017048 -1.4297753e-19)
(-0.0029133174 0.0039558956 -2.553071e-19)
(-0.0027250399 0.0038923854 -1.0913274e-19)
(-0.0025473815 0.0038269944 -3.3896061e-20)
(-0.0023798364 0.0037601532 -1.9829043e-19)
(-0.0022219077 0.0036922491 1.5490995e-19)
(-0.0020731101 0.0036236283 1.2321307e-20)
(-0.0019329705 0.0035545985 -1.4155433e-21)
(-0.0018010304 0.0034854315 1.8773643e-19)
(-0.001676848 0.0034163658 2.5026092e-20)
(-0.001559998 0.0033476095 8.2269414e-20)
(-0.0014500726 0.0032793421 3.3599953e-20)
(-0.0013466824 0.0032117182 6.0277912e-20)
(-0.0012494566 0.0031448697 1.6510832e-20)
(-0.0011580429 0.0030789063 -2.3136384e-19)
(-0.0010721078 0.0030139208 -6.3908317e-20)
(-0.00099133577 0.0029499891 4.0895526e-20)
(-0.00091542918 0.0028871722 1.3937854e-20)
(-0.00084410776 0.0028255187 5.9942974e-20)
(-0.00077710839 0.0027650659 -9.2154318e-20)
(-0.0007141851 0.002705843 -3.3648153e-20)
(-0.00065510574 0.0026478694 5.5270683e-20)
(-0.00059965188 0.0025911592 3.741281e-20)
(-0.00054762158 0.0025357206 2.7176003e-20)
(-0.0004988238 0.0024815548 -5.9780971e-20)
(-0.00045308248 0.0024286621 1.2108293e-21)
(-0.00041023121 0.0023770387 -9.1308739e-21)
(-0.00037011179 0.0023266776 -4.5455409e-21)
(-0.00033257995 0.0022775713 -8.7852167e-22)
(-0.00029749856 0.0022297102 -1.0251004e-19)
(-0.00026473908 0.0021830822 2.7942005e-21)
(-0.00023418149 0.0021376764 5.3324115e-20)
(-0.00020571213 0.0020934805 9.1859746e-21)
(-0.0001792245 0.0020504825 1.569182e-21)
(-0.00015461743 0.0020086698 -8.2327672e-20)
(-0.00013179629 0.0019680294 -3.3147662e-20)
(-0.000110671 0.0019285491 2.2818929e-20)
(-9.1156486e-05 0.0018902146 2.7091026e-21)
(-7.317298e-05 0.0018530176 1.0077099e-20)
(-5.6642299e-05 0.0018169429 -5.1454169e-20)
(-4.1492096e-05 0.0017819792 6.7282434e-21)
(-2.7652068e-05 0.0017481156 3.5674571e-20)
(-1.5056852e-05 0.0017153411 4.3976542e-21)
(-3.6442834e-06 0.0016836422 -4.2759846e-21)
(6.6481577e-06 0.0016530099 -4.9954502e-20)
(1.5878232e-05 0.001623432 -3.5753122e-20)
(2.4100904e-05 0.0015948983 1.1685588e-20)
(3.1369354e-05 0.0015673978 4.89683e-21)
(3.7734757e-05 0.0015409202 5.9302063e-21)
(4.3245796e-05 0.0015154555 -2.7452519e-20)
(4.7949441e-05 0.0014909929 -1.0615732e-20)
(5.1891139e-05 0.0014675223 1.9493887e-20)
(5.5114359e-05 0.0014450338 2.1059606e-23)
(5.7660782e-05 0.0014235174 1.8658686e-21)
(5.9570654e-05 0.0014029634 -1.6240238e-20)
(6.0882781e-05 0.001383362 -8.0725814e-21)
(6.1634506e-05 0.0013647037 6.1359057e-21)
(6.1861729e-05 0.001346979 -3.5918432e-21)
(6.1599085e-05 0.0013301784 -1.0141765e-20)
(6.0880089e-05 0.0013142928 -1.7214267e-20)
(5.9736996e-05 0.0012993131 -6.5334617e-21)
(5.8201056e-05 0.0012852306 2.5695594e-22)
(5.6302405e-05 0.0012720363 -5.5256633e-21)
(5.407e-05 0.0012597219 -6.9286123e-21)
(5.1532071e-05 0.001248279 -2.7888949e-20)
(4.8715962e-05 0.0012376991 -1.3589574e-20)
(4.5648013e-05 0.0012279745 9.7782406e-22)
(4.2353969e-05 0.0012190975 4.1803575e-21)
(3.8858759e-05 0.0012110602 7.0267187e-21)
(3.5186505e-05 0.0012038552 -4.6738161e-21)
(3.1360703e-05 0.001197475 1.3469746e-21)
(2.7404271e-05 0.0011919111 4.7941816e-21)
(2.3339698e-05 0.0011871542 -1.2490108e-21)
(1.9189027e-05 0.0011831918 -8.6909493e-21)
(1.4973741e-05 0.0011800066 -1.6034332e-20)
(1.0712054e-05 0.0011775729 -1.8600293e-20)
(6.4193689e-06 0.0011758541 -2.9798858e-20)
(2.1269788e-06 0.0011748319 -3.494047e-20)
(-0.003595497 0.0039470308 3.9345378e-19)
(-0.003376183 0.0039010655 -1.7501181e-19)
(-0.0031684388 0.0038513762 -8.210058e-19)
(-0.0029717974 0.0037985222 -4.0195956e-19)
(-0.0027857907 0.0037430161 -2.2902838e-19)
(-0.0026099518 0.0036853261 -1.1743246e-19)
(-0.0024438183 0.0036258776 -5.0234342e-19)
(-0.0022869345 0.0035650549 -2.5941162e-19)
(-0.0021388534 0.0035032045 1.9089252e-20)
(-0.0019991381 0.0034406368 -1.0879159e-19)
(-0.0018673639 0.0033776277 3.9868178e-20)
(-0.0017431202 0.0033144219 -1.8380638e-19)
(-0.0016260105 0.0032512355 -1.510048e-19)
(-0.001515653 0.0031882567 1.2835955e-19)
(-0.0014116823 0.0031256499 -4.2601415e-20)
(-0.0013137492 0.0030635577 -1.187848e-19)
(-0.001221521 0.003002101 -3.066801e-19)
(-0.0011346811 0.0029413839 -1.6797926e-19)
(-0.0010529299 0.0028814942 2.1579741e-20)
(-0.00097598336 0.0028225041 -5.2264524e-20)
(-0.00090357295 0.002764474 5.2014592e-21)
(-0.00083544582 0.0027074531 -1.0918506e-19)
(-0.0007713649 0.0026514803 -1.0863765e-19)
(-0.00071110577 0.0025965872 -1.4798561e-21)
(-0.00065445643 0.0025427975 -3.6425998e-20)
(-0.000601221 0.0024901281 -2.4458086e-20)
(-0.00055121308 0.0024385912 -4.9190473e-20)
(-0.00050425916 0.0023881938 -4.2864637e-20)
(-0.00046019646 0.0023389424 -2.336823e-20)
(-0.00041886971 0.0022908364 -7.0610215e-20)