/*--------------------------------*- C++ -*----------------------------------*\
| =========                 |                                                 |
| \\      /  F ield         | OpenFOAM: The Open Source CFD Toolbox           |
|  \\    /   O peration     | Version:  2306                                  |
|   \\  /    A nd           | Website:  www.openfoam.com                      |
|    \\/     M anipulation  |                                                 |
\*---------------------------------------------------------------------------*/
FoamFile
{
    version     2.0;
    format      ascii;
    arch        "LSB;label=32;scalar=64";
    class       volVectorField;
    location    "0.19";
    object      U;
}
// * * * * * * * * * * * * * * * * * * * * * * * * * * * * * * * * * * * * * //

dimensions      [0 1 -1 0 0 0 0];

internalField   nonuniform List<vector> 
51200
(
(-2.1540073e-05 8.601051e-06 5.3184217e-20)
(-5.3939143e-05 1.4004224e-05 -2.061237e-21)
(-9.1546949e-05 1.4382895e-05 -1.729052e-20)
(-0.00012856641 1.5106783e-05 7.5511937e-21)
(-0.00016713565 1.5497889e-05 1.4573861e-20)
(-0.0002056198 1.5574571e-05 -1.0595045e-20)
(-0.00024383895 1.5566073e-05 -2.4440395e-21)
(-0.00028173968 1.5506612e-05 1.6458066e-20)
(-0.0003192741 1.5413072e-05 1.2628045e-20)
(-0.00035640071 1.5295991e-05 -2.6415655e-20)
(-0.00039308311 1.5160426e-05 -3.3098342e-20)
(-0.0004292866 1.5008689e-05 3.8924493e-20)
(-0.00046497656 1.4842056e-05 5.0442951e-21)
(-0.00050011827 1.4661316e-05 -4.0124859e-20)
(-0.00053467722 1.446699e-05 -1.5667408e-20)
(-0.00056861929 1.4259429e-05 1.7505491e-20)
(-0.00060191097 1.4038877e-05 2.916565e-20)
(-0.00063451951 1.3805451e-05 -1.1363541e-20)
(-0.00066641311 1.3559123e-05 -2.6312791e-20)
(-0.00069756099 1.329965e-05 9.8087296e-21)
(-0.00072793351 1.3026491e-05 9.5667894e-22)
(-0.00075750218 1.273862e-05 -6.4016787e-21)
(-0.00078623968 1.2434285e-05 4.1707846e-20)
(-0.00081412004 1.2110701e-05 8.911656e-20)
(-0.00084111985 1.1764004e-05 1.2612199e-19)
(-0.00086722647 1.1390881e-05 -6.9106041e-20)
(-0.00089243868 1.1002877e-05 -2.7996165e-19)
(-0.00091673174 1.0633001e-05 -5.6018031e-20)
(-0.0009400676 1.0285112e-05 1.2718798e-19)
(-0.00096242698 9.953517e-06 1.2413464e-19)
(-0.00098379916 9.6330723e-06 1.0540198e-19)
(-0.0010041759 9.3203653e-06 -1.9740413e-20)
(-0.00102355 9.0132357e-06 9.5210694e-21)
(-0.0010419157 8.7103874e-06 -1.3946989e-19)
(-0.0010592683 8.411074e-06 -1.8777905e-19)
(-0.0010756048 8.1148764e-06 1.9781159e-19)
(-0.0010909239 7.8216066e-06 3.3215372e-20)
(-0.0011052261 7.5312234e-06 -3.9800534e-19)
(-0.0011185136 7.2437655e-06 1.2406999e-19)
(-0.00113079 6.9593335e-06 5.6073529e-19)
(-0.0011420611 6.678069e-06 1.1364564e-19)
(-0.001152334 6.4001488e-06 -2.7396415e-19)
(-0.0011616175 6.1257517e-06 -3.4532278e-19)
(-0.0011699218 5.8550739e-06 -2.6045185e-19)
(-0.0011772589 5.5883082e-06 2.0314844e-19)
(-0.0011836419 5.3256644e-06 7.5470861e-19)
(-0.0011890852 5.0673396e-06 -3.1518978e-21)
(-0.0011936047 4.8135254e-06 -2.8468232e-19)
(-0.0011972173 4.5644127e-06 -2.4066969e-19)
(-0.001199941 4.3201808e-06 -7.1377364e-19)
(-0.001201795 4.0810059e-06 3.9056669e-19)
(-0.0012027991 3.8470391e-06 4.8117899e-19)
(-0.0012029743 3.6184378e-06 -5.5098545e-20)
(-0.0012023422 3.3953429e-06 2.5536608e-19)
(-0.001200925 3.1778813e-06 -5.7690714e-19)
(-0.0011987456 2.9661572e-06 -4.5148463e-19)
(-0.0011958276 2.7602863e-06 5.3344913e-19)
(-0.0011921948 2.5603481e-06 1.592376e-19)
(-0.0011878714 2.3664221e-06 -1.0021781e-19)
(-0.001182882 2.1785786e-06 9.0472687e-20)
(-0.0011772513 1.9968695e-06 -3.3889907e-20)
(-0.0011710043 1.8213371e-06 -5.1977658e-21)
(-0.0011641659 1.6520202e-06 -2.6644853e-20)
(-0.0011567611 1.4889507e-06 -1.8126701e-19)
(-0.0011488148 1.3321579e-06 -3.3194475e-19)
(-0.001140352 1.1816642e-06 -2.7045002e-20)
(-0.0011313973 1.0375107e-06 6.1994206e-19)
(-0.0011219751 8.9974138e-07 -2.2210348e-20)
(-0.0011121097 7.6844965e-07 -2.5130153e-19)
(-0.001101825 6.4376588e-07 5.4705386e-19)
(-0.0010911446 5.259369e-07 -8.1431077e-20)
(-0.001080092 4.1535239e-07 -4.0054156e-19)
(-0.0010686903 3.1263784e-07 8.5633771e-20)
(-0.0010569623 2.1879773e-07 1.5749667e-19)
(-0.0010449305 1.3551577e-07 1.757552e-19)
(-0.0010326155 6.4556788e-08 -3.6939915e-19)
(-0.0010200327 4.250775e-09 -3.3879772e-19)
(-0.0010071681 -5.8947408e-08 3.3398347e-19)
(-0.00099407339 -1.9421069e-07 4.1020231e-19)
(-0.00098080731 -3.3749771e-07 -1.6434846e-19)
(-0.00096736091 -4.721051e-07 -5.9529273e-19)
(-0.00095374382 -5.9656559e-07 2.1993411e-19)
(-0.00093997224 -7.1131082e-07 4.3392176e-19)
(-0.00092606284 -8.1735676e-07 5.2539646e-21)
(-0.00091203178 -9.1572586e-07 1.4074104e-19)
(-0.0008978945 -1.0072408e-06 -1.8837611e-19)
(-0.00088366573 -1.0925524e-06 6.2005172e-22)
(-0.00086935953 -1.1721645e-06 -8.0384432e-21)
(-0.00085498929 -1.2464999e-06 -3.0179327e-19)
(-0.00084056776 -1.3159037e-06 1.3610785e-19)
(-0.0008261071 -1.3806729e-06 -2.1302194e-19)
(-0.00081161885 -1.4410812e-06 -1.4413367e-19)
(-0.00079711396 -1.4973612e-06 3.2513868e-19)
(-0.00078260281 -1.5497413e-06 1.6275447e-19)
(-0.00076809524 -1.5984215e-06 -4.4738017e-20)
(-0.00075360052 -1.6435987e-06 -3.2491667e-19)
(-0.00073912738 -1.6854489e-06 8.2152982e-21)
(-0.00072468407 -1.7241502e-06 2.3329373e-19)
(-0.0007102783 -1.7598563e-06 1.8623099e-19)
(-0.00069591731 -1.7927382e-06 -4.9607792e-20)
(-0.00068160787 -1.8229312e-06 -3.7908392e-19)
(-0.00066735628 -1.8505805e-06 8.3054686e-20)
(-0.0006531684 -1.8758305e-06 1.4948924e-19)
(-0.00063904966 -1.898806e-06 1.0877929e-19)
(-0.00062500509 -1.91963e-06 3.6556242e-22)
(-0.00061103931 -1.938432e-06 -3.6672198e-19)
(-0.00059715658 -1.9553166e-06 8.243054e-20)
(-0.00058336076 -1.9704033e-06 2.2251709e-19)
(-0.00056965538 -1.983792e-06 3.6398465e-20)
(-0.00055604364 -1.9955893e-06 1.667977e-20)
(-0.0005425284 -2.0058896e-06 -2.6441175e-19)
(-0.00052911223 -2.0147855e-06 -7.974399e-20)
(-0.00051579739 -2.0223674e-06 1.62787e-19)
(-0.00050258587 -2.0287198e-06 3.8019961e-20)
(-0.00048947941 -2.0339312e-06 3.5438647e-20)
(-0.00047647945 -2.03807e-06 -5.3186016e-20)
(-0.00046358723 -2.0412096e-06 8.7165402e-21)
(-0.00045080375 -2.0434325e-06 6.1635198e-20)
(-0.00043812979 -2.0447915e-06 -3.0454429e-21)
(-0.00042556593 -2.0453619e-06 3.7660949e-20)
(-0.00041311255 -2.0452015e-06 -6.8191026e-20)
(-0.00040076986 -2.0443701e-06 -2.7230889e-20)
(-0.00038853788 -2.0429222e-06 6.3599099e-20)
(-0.00037641647 -2.0409064e-06 5.9647891e-20)
(-0.00036440537 -2.0383781e-06 3.0888348e-21)
(-0.00035250413 -2.0353847e-06 -1.4709463e-19)
(-0.00034071219 -2.0319657e-06 -4.4865984e-20)
(-0.00032902887 -2.0281721e-06 9.4020544e-20)
(-0.00031745336 -2.0240383e-06 5.0244547e-20)
(-0.00030598476 -2.0195986e-06 -2.9101252e-20)
(-0.00029462205 -2.0148981e-06 -6.356072e-20)
(-0.00028336412 -2.0099614e-06 5.1534182e-21)
(-0.00027220978 -2.0048282e-06 1.7831894e-20)
(-0.00026115776 -1.9995239e-06 -2.5321668e-20)
(-0.00025020672 -1.9940789e-06 -4.9066693e-20)
(-0.00023935525 -1.9885183e-06 3.3314106e-21)
(-0.00022860187 -1.9828664e-06 6.581192e-20)
(-0.00021794506 -1.9771433e-06 2.0799804e-20)
(-0.00020738324 -1.971376e-06 6.3685424e-22)
(-0.00019691481 -1.9655834e-06 -5.4707514e-21)
(-0.00018653809 -1.9597819e-06 -2.4379232e-20)
(-0.00017625141 -1.9539858e-06 2.0309151e-20)
(-0.00016605304 -1.9482147e-06 7.7671269e-21)
(-0.00015594125 -1.9424818e-06 -2.4666662e-21)
(-0.00014591429 -1.9367959e-06 1.9095057e-20)
(-0.00013597039 -1.9311677e-06 -4.034537e-20)
(-0.00012610777 -1.9256044e-06 -2.0589506e-20)
(-0.00011632469 -1.9201082e-06 3.8851809e-20)
(-0.00010661941 -1.9146684e-06 2.3566762e-20)
(-9.6990263e-05 -1.9092604e-06 -1.0580602e-20)
(-8.7435694e-05 -1.9038139e-06 -3.1278952e-20)
(-7.7954395e-05 -1.8981451e-06 -9.1569065e-21)
(-6.8545605e-05 -1.89183e-06 2.0125374e-20)
(-5.9209757e-05 -1.8838277e-06 7.5127588e-21)
(-4.9949919e-05 -1.8717353e-06 -6.0045377e-21)
(-4.077471e-05 -1.8506608e-06 -8.5334826e-21)
(-3.1703524e-05 -1.8137422e-06 -2.3605318e-21)
(-2.2768801e-05 -1.7682972e-06 3.6287914e-21)
(-1.3935037e-05 -1.861658e-06 6.061948e-22)
(-4.7408822e-06 -2.6608588e-06 -3.9964892e-21)
(-5.3741241e-05 0.00012668575 5.7300971e-20)
(-0.00012362402 0.00013360037 -2.8131092e-21)
(-0.00020351072 0.00013537038 9.5668233e-21)
(-0.00028165745 0.00013729857 4.8480137e-20)
(-0.00036223981 0.00013818928 3.8770678e-20)
(-0.00044263665 0.00013826568 -1.2125932e-20)
(-0.00052255382 0.00013794961 4.931081e-20)
(-0.00060190057 0.0001373876 3.489437e-20)
(-0.00068055961 0.0001366435 -2.3439528e-20)
(-0.0007584136 0.00013575253 -1.9757751e-20)
(-0.00083535808 0.00013473412 -9.9698594e-21)
(-0.00091129716 0.00013359932 2.1607226e-20)
(-0.00098614008 0.00013235527 6.2134883e-20)
(-0.0010597999 0.00013100713 9.5949743e-20)
(-0.0011321933 0.00012955901 2.0319609e-20)
(-0.00120324 0.00012801451 3.7926566e-20)
(-0.0012728632 0.000126377 1.3348987e-19)
(-0.0013409893 0.00012464966 1.1111609e-20)
(-0.001407548 0.00012283562 -1.3935798e-19)
(-0.0014724726 0.00012093786 -8.3073208e-20)
(-0.0015357 0.00011895925 1.3658244e-21)
(-0.0015971714 0.00011690237 2.0896167e-20)
(-0.0016568316 0.00011476942 6.509288e-20)
(-0.0017146303 0.00011256201 1.7742034e-19)
(-0.0017705206 0.00011028123 1.7518525e-19)
(-0.0018244519 0.00010792877 -2.1125494e-19)
(-0.0018763668 0.0001055166 -3.5191443e-19)
(-0.0019262319 0.00010307208 -1.3570531e-19)
(-0.0019740325 0.0001006035 -8.9596446e-20)
(-0.0020197455 9.8111157e-05 3.2770223e-19)
(-0.0020633474 9.5595078e-05 4.8469102e-19)
(-0.0021048185 9.3056456e-05 -1.6406555e-19)
(-0.0021441438 9.0497401e-05 -4.1086898e-19)
(-0.0021813125 8.7920724e-05 -1.9368034e-19)
(-0.0022163183 8.5329659e-05 2.2475949e-19)
(-0.0022491589 8.2727694e-05 2.3417114e-19)
(-0.0022798362 8.0118487e-05 -3.8878282e-19)
(-0.0023083556 7.7505761e-05 -6.0332031e-19)
(-0.0023347267 7.4893257e-05 5.3459495e-19)
(-0.0023589623 7.2284684e-05 7.3362376e-19)
(-0.0023810792 6.9683702e-05 -8.3530268e-19)
(-0.0024010973 6.7093894e-05 -3.5620503e-19)
(-0.0024190398 6.4518739e-05 1.0462555e-18)
(-0.002434933 6.1961608e-05 1.294694e-18)
(-0.0024488063 5.942574e-05 2.9029301e-20)
(-0.0024606918 5.6914248e-05 -2.093132e-18)
(-0.0024706241 5.443011e-05 -1.2565416e-18)
(-0.0024786403 5.1976136e-05 1.0762645e-18)
(-0.0024847798 4.9554999e-05 1.0391008e-18)
(-0.0024890842 4.7169209e-05 -5.8310316e-19)
(-0.0024915968 4.4821107e-05 -9.7147649e-19)
(-0.0024923627 4.2512879e-05 9.3244166e-19)
(-0.0024914286 4.0246537e-05 1.3249766e-18)
(-0.0024888425 3.8023934e-05 -1.5973987e-19)
(-0.0024846537 3.5846748e-05 -8.4036727e-19)
(-0.0024789124 3.3716486e-05 -9.5585723e-19)
(-0.0024716697 3.1634515e-05 -8.5747178e-20)
(-0.0024629775 2.9602005e-05 1.1354378e-18)
(-0.002452888 2.7619997e-05 4.2076052e-19)
(-0.002441454 2.5689372e-05 -1.1287755e-18)
(-0.0024287285 2.381085e-05 -4.1351654e-19)
(-0.0024147644 2.1985014e-05 1.1673727e-18)
(-0.0023996147 2.0212319e-05 3.6014173e-19)
(-0.0023833322 1.8493071e-05 -1.2869175e-18)
(-0.0023659694 1.6827477e-05 -6.895691e-19)
(-0.0023475783 1.5215608e-05 7.4488445e-19)
(-0.0023282105 1.365744e-05 7.9310269e-19)
(-0.0023079169 1.215286e-05 2.2762596e-19)
(-0.0022867476 1.0701696e-05 -4.0192286e-19)
(-0.002264752 9.3037101e-06 -9.3031374e-19)
(-0.0022419785 7.9586791e-06 1.3265669e-19)
(-0.0022184746 6.6663565e-06 6.6251335e-19)
(-0.0021942868 5.4264338e-06 -8.8879499e-20)
(-0.0021694601 4.238408e-06 1.1246281e-19)
(-0.0021440399 3.1015553e-06 4.2258533e-19)
(-0.0021180742 2.0151318e-06 1.0428826e-19)
(-0.0020916147 9.7398257e-07 -6.293462e-19)
(-0.0020647325 -3.9783803e-08 -5.5885373e-19)
(-0.0020374191 -1.0592808e-06 2.06488e-19)
(-0.0020096673 -2.0397881e-06 2.4551224e-19)
(-0.0019815487 -2.9724424e-06 4.9988394e-21)
(-0.0019531108 -3.8581652e-06 1.5274884e-19)
(-0.00192439 -4.6988038e-06 2.3038752e-19)
(-0.0018954197 -5.4964221e-06 -3.6374087e-19)
(-0.0018662317 -6.2529583e-06 -4.0466231e-20)
(-0.0018368561 -6.9701336e-06 3.7751056e-19)
(-0.0018073217 -7.64953e-06 -3.6353937e-19)
(-0.0017776563 -8.2925974e-06 8.2244511e-20)
(-0.001747886 -8.9007385e-06 2.0733306e-19)
(-0.0017180362 -9.4752894e-06 -2.5505538e-19)
(-0.0016881306 -1.0017548e-05 -2.078371e-19)
(-0.001658192 -1.0528783e-05 -2.0834555e-19)
(-0.0016282419 -1.1010226e-05 2.8968757e-19)
(-0.0015983006 -1.1463089e-05 1.7833089e-19)
(-0.0015683874 -1.1888549e-05 -1.2213819e-19)
(-0.0015385205 -1.2287768e-05 -4.9246446e-20)
(-0.0015087168 -1.2661867e-05 1.5383255e-20)
(-0.0014789925 -1.3011947e-05 2.3916474e-19)
(-0.0014493624 -1.3339071e-05 -4.9115895e-20)
(-0.0014198407 -1.3644306e-05 -3.4144863e-19)
(-0.0013904404 -1.3928656e-05 -6.4824791e-20)
(-0.0013611737 -1.4193113e-05 2.434311e-19)
(-0.0013320517 -1.4438638e-05 2.3472701e-19)
(-0.0013030851 -1.466617e-05 -3.5303357e-21)
(-0.0012742832 -1.4876597e-05 -2.4920658e-19)
(-0.001245655 -1.5070817e-05 -2.2212126e-19)
(-0.0012172085 -1.5249656e-05 1.2960438e-19)
(-0.001188951 -1.5413954e-05 3.753883e-19)
(-0.0011608891 -1.5564482e-05 3.398692e-20)
(-0.0011330287 -1.5702022e-05 -3.0206518e-19)
(-0.0011053753 -1.5827295e-05 -1.0755249e-19)
(-0.0010779334 -1.5941019e-05 -3.4790629e-20)
(-0.0010507072 -1.6043865e-05 2.3926901e-19)
(-0.0010237004 -1.6136497e-05 2.8142744e-19)
(-0.00099691584 -1.6219555e-05 -1.8619335e-19)
(-0.00097035622 -1.6293626e-05 -2.5392612e-19)
(-0.00094402358 -1.6359293e-05 -4.2031187e-20)
(-0.00091791955 -1.6417124e-05 2.32746e-19)
(-0.00089204534 -1.6467639e-05 9.6551616e-20)
(-0.00086640175 -1.6511353e-05 -2.7484812e-19)
(-0.0008409892 -1.6548758e-05 -8.9557488e-20)
(-0.00081580778 -1.6580306e-05 2.2636438e-19)
(-0.00079085721 -1.6606458e-05 1.924652e-19)
(-0.00076613693 -1.6627622e-05 -9.5246316e-20)
(-0.00074164604 -1.6644211e-05 -2.8328459e-19)
(-0.00071738341 -1.6656613e-05 -3.5702349e-20)
(-0.0006933476 -1.6665181e-05 1.8818472e-19)
(-0.00066953698 -1.6670281e-05 1.1108819e-19)
(-0.00064594966 -1.6672227e-05 -3.678192e-20)
(-0.00062258356 -1.6671337e-05 -1.4971737e-19)
(-0.00059943638 -1.6667917e-05 -5.1625215e-20)
(-0.00057650568 -1.6662236e-05 1.6321227e-19)
(-0.00055378881 -1.6654564e-05 1.3989983e-19)
(-0.00053128301 -1.6645159e-05 -7.0743053e-20)
(-0.00050898536 -1.6634255e-05 -2.0847946e-19)
(-0.0004868928 -1.6622076e-05 -2.3204508e-20)
(-0.00046500219 -1.6608827e-05 1.5669146e-19)
(-0.00044331026 -1.6594708e-05 6.4618516e-20)
(-0.00042181366 -1.6579909e-05 -2.7318062e-20)
(-0.00040050896 -1.6564596e-05 -5.0018584e-20)
(-0.00037939264 -1.6548937e-05 -1.1935271e-20)
(-0.00035846115 -1.6533071e-05 2.1878503e-20)
(-0.00033771086 -1.6517144e-05 2.9747731e-20)
(-0.00031713811 -1.6501277e-05 -2.048342e-20)
(-0.00029673922 -1.648558e-05 -5.5059424e-20)
(-0.00027651048 -1.6470151e-05 -8.7745491e-21)
(-0.00025644817 -1.6455068e-05 4.0182643e-20)
(-0.00023654859 -1.6440383e-05 4.9165245e-20)
(-0.00021680806 -1.6426102e-05 -1.4675135e-20)
(-0.00019722299 -1.6412162e-05 -5.6923862e-20)
(-0.00017778984 -1.6398367e-05 -5.9442843e-21)
(-0.0001585053 -1.6384208e-05 3.158224e-20)
(-0.00013936629 -1.6368582e-05 2.1317991e-20)
(-0.00012037011 -1.6349096e-05 -9.0805075e-21)
(-0.00010151441 -1.6320868e-05 -2.0112337e-20)
(-8.2796193e-05 -1.6275454e-05 -1.9881304e-21)
(-6.420784e-05 -1.6204536e-05 8.59503e-21)
(-4.5727693e-05 -1.6122967e-05 4.1221834e-21)
(-2.7316366e-05 -1.6144559e-05 -2.4555089e-21)
(-9.0251288e-06 -1.6629179e-05 -3.6826251e-21)
(-7.0110445e-05 0.00032216914 -8.2580766e-20)
(-0.00015836683 0.00032794001 -4.4448048e-20)
(-0.00025884413 0.00033020354 -1.1817875e-20)
(-0.00035637889 0.00033202383 1.5436451e-20)
(-0.00045656513 0.0003326158 1.5383193e-20)
(-0.00055639153 0.00033220713 -4.5535833e-20)
(-0.00065560749 0.00033116199 4.2989985e-20)
(-0.00075413638 0.00032965105 -8.4046802e-21)
(-0.00085183864 0.00032776197 3.6185566e-20)
(-0.00094856149 0.00032554626 1.3593438e-19)
(-0.0010441651 0.00032303554 6.1721966e-20)
(-0.0011385205 0.00032025035 6.2668909e-20)
(-0.0012315061 0.00031720543 -2.2062362e-20)
(-0.0013230066 0.00031391246 7.9231925e-20)
(-0.0014129125 0.00031038156 1.4182954e-19)
(-0.0015011192 0.00030662209 3.8888735e-20)
(-0.0015875272 0.00030264311 8.7645785e-20)
(-0.0016720419 0.00029845367 -2.7159889e-20)
(-0.0017545734 0.00029406291 -9.283421e-20)
(-0.0018350368 0.00028948021 3.9599124e-20)
(-0.0019133522 0.00028471523 3.7681153e-20)
(-0.0019894448 0.00027977803 1.391327e-20)
(-0.0020632448 0.00027467915 7.7080762e-20)
(-0.0021346876 0.00026942981 1.4151818e-19)
(-0.0022037137 0.000264042 3.6548498e-20)
(-0.0022702678 0.00025852821 -5.8632236e-20)
(-0.0023343004 0.00025289526 -7.5948344e-20)
(-0.0023957711 0.00024714073 -1.6886517e-19)
(-0.0024546451 0.00024127496 -1.8429744e-19)
(-0.0025108901 0.00023531185 5.5613727e-20)
(-0.0025644781 0.00022926454 1.7214766e-19)
(-0.0026153871 0.00022314515 5.8871397e-21)
(-0.002663601 0.00021696514 -1.9867386e-19)
(-0.0027091091 0.00021073555 -2.3265288e-19)
(-0.0027519062 0.00020446713 1.0919435e-19)
(-0.0027919921 0.00019817043 1.9135713e-19)
(-0.0028293716 0.00019185576 -5.4346472e-20)
(-0.0028640546 0.00018553323 -1.0641712e-19)
(-0.0028960554 0.00017921274 2.3247096e-20)
(-0.0029253929 0.00017290388 -1.1891442e-19)
(-0.0029520904 0.00016661601 -3.1428021e-19)
(-0.0029761753 0.00016035811 1.853493e-19)
(-0.0029976791 0.00015413888 5.6649339e-19)
(-0.0030166371 0.00014796666 5.2907218e-19)
(-0.003033088 0.00014184939 -3.5277131e-20)
(-0.0030470741 0.00013579464 -1.0799032e-18)
(-0.0030586408 0.00012980959 -4.8656282e-19)
(-0.0030678363 0.00012390099 3.6523449e-19)
(-0.0030747117 0.00011807519 4.278469e-19)
(-0.0030793204 0.00011233813 3.2272337e-19)
(-0.0030817182 0.00010669529 -5.4595864e-19)
(-0.0030819629 0.00010115175 -3.6528349e-21)
(-0.003080114 9.5712162e-05 5.9700227e-19)
(-0.0030762328 9.0380736e-05 -6.1909681e-20)
(-0.0030703817 8.516126e-05 -9.6840377e-20)
(-0.0030626244 8.0057118e-05 -2.1913291e-19)
(-0.0030530255 7.5071287e-05 -1.938375e-19)
(-0.0030416503 7.0206308e-05 3.7998848e-19)
(-0.0030285648 6.5464368e-05 9.7879373e-20)
(-0.0030138351 6.0847265e-05 -5.1204618e-19)
(-0.0029975276 5.6356397e-05 -1.3838749e-19)
(-0.0029797087 5.1992842e-05 3.9301225e-19)
(-0.0029604446 4.7757323e-05 1.0333519e-19)
(-0.0029398013 4.3650211e-05 -2.6195299e-19)
(-0.002917844 3.9671597e-05 6.8589338e-20)
(-0.0028946377 3.5821265e-05 1.8358102e-19)
(-0.0028702464 3.2098699e-05 -8.3190935e-20)
(-0.0028447332 2.850315e-05 5.3415386e-20)
(-0.0028181606 2.503362e-05 -4.5485303e-20)
(-0.0027905896 2.168889e-05 -3.6707948e-19)
(-0.0027620805 1.8467574e-05 1.559715e-20)
(-0.0027326923 1.5368071e-05 2.1752047e-19)
(-0.0027024828 1.238851e-05 -4.1425234e-20)
(-0.0026715086 9.5265154e-06 1.1063544e-19)
(-0.0026398251 6.7789047e-06 1.3556689e-19)
(-0.0026074882 4.1423043e-06 9.1151963e-20)
(-0.0025745562 1.6149253e-06 -1.1722766e-19)
(-0.00254107 -8.0155579e-07 -3.9363828e-19)
(-0.0025070594 -3.0708439e-06 -1.0804553e-19)
(-0.0024725748 -5.2304766e-06 2.9569124e-19)
(-0.002437672 -7.2909386e-06 2.4398452e-19)
(-0.0024023957 -9.2554569e-06 -2.0868229e-19)
(-0.0023667878 -1.1127042e-05 -1.6863945e-19)
(-0.0023308884 -1.2908313e-05 -1.4226453e-19)
(-0.0022947362 -1.4601798e-05 -8.8845936e-20)
(-0.002258368 -1.6210048e-05 1.807267e-19)
(-0.0022218192 -1.7735669e-05 -1.1039586e-19)
(-0.0021851233 -1.9181296e-05 5.673113e-20)
(-0.0021483125 -2.0549595e-05 2.5307442e-19)
(-0.0021114174 -2.1843246e-05 -9.8200547e-20)
(-0.0020744669 -2.3064927e-05 -1.0754624e-19)
(-0.0020374885 -2.4217297e-05 -3.6420874e-20)
(-0.0020005082 -2.5303005e-05 6.2404245e-20)
(-0.0019635508 -2.6324657e-05 -4.1248892e-20)
(-0.0019266394 -2.728484e-05 -1.551248e-20)
(-0.0018897959 -2.8186092e-05 1.9598488e-19)
(-0.0018530409 -2.9030907e-05 -3.9552512e-20)
(-0.0018163935 -2.9821717e-05 -9.1592767e-20)
(-0.0017798719 -3.0560925e-05 -1.3329025e-19)
(-0.0017434929 -3.1250862e-05 -7.2837503e-20)
(-0.0017072721 -3.1893812e-05 1.7807816e-19)
(-0.0016712241 -3.2491996e-05 7.9951258e-20)
(-0.0016353623 -3.3047565e-05 3.6678524e-20)
(-0.0015996992 -3.3562634e-05 -1.0700404e-19)
(-0.0015642462 -3.4039218e-05 -7.2361823e-20)
(-0.0015290138 -3.4479305e-05 1.4915002e-19)
(-0.0014940114 -3.4884803e-05 2.2008996e-20)
(-0.0014592478 -3.5257561e-05 2.2406675e-20)
(-0.0014247308 -3.5599362e-05 -5.3202526e-20)
(-0.0013904674 -3.5911933e-05 -1.6404765e-19)
(-0.0013564637 -3.6196928e-05 5.8625693e-20)
(-0.0013227253 -3.6455958e-05 6.8144192e-20)
(-0.001289257 -3.6690552e-05 4.6811148e-20)
(-0.0012560629 -3.6902199e-05 8.514452e-20)
(-0.0012231465 -3.7092329e-05 -7.9945397e-20)
(-0.0011905107 -3.7262298e-05 -1.1310852e-19)
(-0.0011581578 -3.7413417e-05 -4.051448e-20)
(-0.0011260895 -3.754695e-05 7.8829886e-20)
(-0.0010943072 -3.7664106e-05 4.2747918e-20)
(-0.0010628115 -3.7766025e-05 -7.7537824e-20)
(-0.0010316029 -3.7853813e-05 1.2322445e-20)
(-0.0010006813 -3.7928517e-05 7.3356761e-20)
(-0.00097004601 -3.7991149e-05 3.5294461e-20)
(-0.00093969629 -3.8042662e-05 -6.9223287e-20)
(-0.00090963086 -3.8083974e-05 -9.5914686e-20)
(-0.00087984813 -3.8115959e-05 5.2693758e-20)
(-0.00085034622 -3.813943e-05 8.0330975e-20)
(-0.00082112297 -3.8155191e-05 2.4238724e-20)
(-0.00079217591 -3.8163973e-05 -4.6414224e-20)
(-0.00076350235 -3.8166497e-05 -4.7263486e-20)
(-0.00073509936 -3.8163434e-05 3.0113236e-20)
(-0.00070696381 -3.8155417e-05 4.233835e-20)
(-0.00067909234 -3.8143048e-05 3.2078027e-20)
(-0.00065148145 -3.81269e-05 -1.2316678e-20)
(-0.00062412744 -3.8107514e-05 -4.7204628e-20)
(-0.00059702648 -3.8085395e-05 -1.358853e-20)
(-0.0005701746 -3.8061014e-05 3.1511174e-20)
(-0.0005435677 -3.8034822e-05 2.4126591e-20)
(-0.00051720159 -3.8007238e-05 -1.9957419e-20)
(-0.00049107196 -3.7978659e-05 -1.8330904e-20)
(-0.00046517444 -3.7949449e-05 1.0453718e-20)
(-0.00043950457 -3.7919943e-05 -1.3106434e-20)
(-0.00041405783 -3.7890457e-05 5.3618425e-21)
(-0.00038882966 -3.7861282e-05 -2.1828864e-21)
(-0.00036381548 -3.7832671e-05 -1.7853514e-20)
(-0.00033901065 -3.7804853e-05 1.9469315e-20)
(-0.00031441053 -3.7778022e-05 7.7057857e-21)
(-0.00029001048 -3.775232e-05 -1.2987166e-21)
(-0.0002658059 -3.7727834e-05 -5.832975e-21)
(-0.00024179217 -3.7704542e-05 -7.891856e-21)
(-0.00021796475 -3.768228e-05 1.9946798e-20)
(-0.00019431911 -3.7660594e-05 1.3091252e-20)
(-0.00017085069 -3.7638565e-05 7.1953039e-22)
(-0.00014755464 -3.7614503e-05 -1.7356335e-20)
(-0.00012442531 -3.7585708e-05 -8.0479279e-21)
(-0.0001014549 -3.754941e-05 1.6512664e-20)
(-7.863024e-05 -3.7509309e-05 5.7869608e-21)
(-5.5926362e-05 -3.7497649e-05 3.3053576e-22)
(-3.3315775e-05 -3.7624001e-05 2.1580007e-21)
(-1.0984683e-05 -3.807953e-05 9.5455427e-21)
(-7.6146421e-05 0.00053931329 -4.5953079e-19)
(-0.00017261369 0.00054257087 -1.0840071e-19)
(-0.00028206764 0.0005440286 -1.4631402e-21)
(-0.00038781997 0.0005449308 -1.2582307e-19)
(-0.00049631383 0.00054470154 5.3966397e-20)
(-0.00060429042 0.00054345919 -7.608105e-20)
(-0.00071154893 0.00054143939 -5.5458341e-20)
(-0.00081804053 0.00053877797 -2.9754019e-20)
(-0.00092362999 0.00053555684 4.1548812e-20)
(-0.0010281573 0.00053182898 1.175984e-19)
(-0.0011314716 0.00052763047 7.876711e-20)
(-0.0012334318 0.0005229874 7.5343744e-20)
(-0.001333904 0.00051792031 -6.2112252e-20)
(-0.0014327611 0.00051244667 2.4888935e-20)
(-0.0015298822 0.00050658233 8.6693783e-20)
(-0.0016251524 0.00050034242 -4.0649832e-20)
(-0.0017184621 0.00049374176 6.6156394e-20)
(-0.0018097077 0.00048679527 2.4829249e-20)
(-0.0018987909 0.00047951801 -2.0717693e-20)
(-0.0019856189 0.0004719254 4.4202618e-20)
(-0.0020701046 0.00046403316 2.1425859e-21)
(-0.0021521667 0.00045585739 1.045781e-20)
(-0.0022317296 0.00044741452 7.0064261e-20)
(-0.0023087233 0.00043872131 2.2608323e-20)
(-0.0023830837 0.00042979478 -3.4492627e-20)
(-0.0024547525 0.00042065216 -7.1786625e-20)
(-0.0025236776 0.00041131016 -1.2084608e-19)
(-0.0025898142 0.00040178517 -9.8441489e-21)
(-0.0026531236 0.0003920962 6.3390756e-21)
(-0.0027135721 0.0003822627 -4.5883832e-20)
(-0.0027711316 0.00037230347 -5.6604525e-20)
(-0.0028257797 0.00036223659 -4.0023353e-21)
(-0.0028775001 0.00035207969 8.9911854e-20)
(-0.0029262824 0.00034185008 -5.8726053e-20)
(-0.002972122 0.00033156486 -1.7291468e-19)
(-0.0030150201 0.00032124087 1.9611227e-20)
(-0.0030549831 0.0003108947 1.7083348e-19)
(-0.0030920228 0.00030054259 6.4881291e-20)
(-0.0031261563 0.00029020046 -3.2679899e-20)
(-0.0031574053 0.00027988377 -7.021658e-20)
(-0.0031857965 0.00026960753 -3.9952899e-20)
(-0.0032113609 0.00025938623 7.6319035e-20)
(-0.0032341339 0.00024923384 1.1633712e-19)
(-0.0032541551 0.00023916372 -4.9786461e-20)
(-0.0032714677 0.00022918863 3.889113e-21)
(-0.0032861188 0.00021932068 -1.2746826e-19)
(-0.0032981586 0.00020957135 -1.5754879e-19)
(-0.0033076407 0.00019995143 3.6849554e-20)
(-0.0033146213 0.00019047102 -1.7833104e-20)
(-0.0033191594 0.00018113954 1.5520328e-19)
(-0.0033213163 0.00017196572 4.8282264e-20)
(-0.0033211556 0.00016295756 -1.4006985e-19)
(-0.0033187426 0.00015412239 8.2642656e-20)
(-0.0033141443 0.00014546682 5.0300919e-20)
(-0.003307429 0.00013699679 -2.0847386e-20)
(-0.0032986665 0.00012871755 -3.9100425e-20)
(-0.0032879272 0.00012063368 -5.5728569e-20)
(-0.0032752824 0.0001127491 8.8056073e-20)
(-0.0032608038 0.00010506711 6.8788501e-21)
(-0.0032445635 9.75904e-05 -1.9543161e-19)
(-0.0032266336 9.0321027e-05 -2.9466393e-20)
(-0.0032070864 8.3260506e-05 1.510152e-19)
(-0.0031859937 7.6409782e-05 3.8708177e-20)
(-0.0031634268 6.9769262e-05 -5.6644915e-20)
(-0.0031394568 6.333887e-05 3.8249624e-20)
(-0.0031141536 5.7118049e-05 2.0684537e-20)
(-0.0030875867 5.110578e-05 -1.2044672e-19)
(-0.0030598244 4.5300644e-05 -1.7849587e-20)
(-0.0030309337 3.9700834e-05 1.3861248e-20)
(-0.0030009808 3.4304203e-05 1.8584834e-21)
(-0.0029700303 2.9108309e-05 5.3684854e-22)
(-0.0029381455 2.4110486e-05 -7.2890737e-21)
(-0.0029053881 1.9307875e-05 -5.0319626e-20)
(-0.0028718184 1.4697457e-05 -3.7239662e-20)
(-0.0028374953 1.0276008e-05 1.0487637e-19)
(-0.0028024766 6.0400195e-06 4.6752838e-20)
(-0.0027668214 1.9907391e-06 -1.0855544e-19)
(-0.0027305787 -1.8617804e-06 -1.8043701e-19)
(-0.0026937983 -5.524519e-06 -6.3069468e-20)
(-0.0026565332 -9.01951e-06 8.3332576e-20)
(-0.00261883 -1.2352928e-05 1.313649e-20)
(-0.0025807352 -1.5529137e-05 -1.0592768e-19)
(-0.0025422941 -1.8552796e-05 -1.494533e-20)
(-0.0025035499 -2.1428412e-05 2.416403e-20)
(-0.0024645441 -2.416048e-05 7.4872895e-21)
(-0.002425316 -2.6753486e-05 1.6536435e-20)
(-0.0023859034 -2.921193e-05 -9.6932127e-20)
(-0.0023463422 -3.154031e-05 -3.5315934e-20)
(-0.0023066667 -3.3743116e-05 5.6170369e-20)
(-0.0022669095 -3.5824822e-05 5.6021481e-20)
(-0.0022271015 -3.7789871e-05 -2.1401028e-21)
(-0.0021872719 -3.9642656e-05 -8.4161099e-20)
(-0.0021474486 -4.1387536e-05 2.4315208e-20)
(-0.0021076576 -4.3028793e-05 3.5307998e-20)
(-0.0020679237 -4.4570656e-05 3.0700321e-20)
(-0.0020282702 -4.6017275e-05 5.559291e-20)
(-0.0019887187 -4.7372722e-05 -8.0039589e-20)
(-0.0019492899 -4.864097e-05 -4.8905925e-20)
(-0.0019100027 -4.9825922e-05 -9.8493232e-22)
(-0.0018708749 -5.0931372e-05 5.2159564e-21)
(-0.0018319233 -5.1961025e-05 6.5975275e-20)
(-0.0017931631 -5.2918498e-05 3.1304962e-21)
(-0.0017546085 -5.3807282e-05 2.2162638e-21)
(-0.0017162726 -5.4630796e-05 -1.8383332e-20)
(-0.0016781676 -5.5392322e-05 2.479191e-20)
(-0.0016403043 -5.6095073e-05 6.0749957e-20)
(-0.0016026929 -5.6742133e-05 -3.5040681e-20)
(-0.0015653423 -5.73365e-05 -2.2305249e-20)
(-0.0015282608 -5.7881063e-05 -4.6585486e-20)
(-0.0014914556 -5.8378605e-05 -7.265168e-20)
(-0.0014549333 -5.8831814e-05 5.8618408e-21)
(-0.0014186996 -5.924328e-05 5.6827893e-20)
(-0.0013827594 -5.9615484e-05 4.4680487e-20)
(-0.0013471169 -5.9950828e-05 -2.2927965e-21)
(-0.0013117758 -6.0251607e-05 -3.8995729e-20)
(-0.0012767389 -6.0520035e-05 -2.20568e-20)
(-0.0012420086 -6.0758213e-05 -3.166999e-20)
(-0.0012075867 -6.0968183e-05 1.2135026e-20)
(-0.0011734742 -6.1151886e-05 2.6013729e-20)
(-0.001139672 -6.1311176e-05 2.4160427e-20)
(-0.0011061803 -6.1447823e-05 1.70962e-20)
(-0.0010729987 -6.1563526e-05 -2.7033516e-20)
(-0.0010401266 -6.1659908e-05 -1.1450332e-20)
(-0.001007563 -6.1738513e-05 1.3542545e-20)
(-0.00097530632 -6.1800808e-05 3.5127009e-20)
(-0.00094335484 -6.1848201e-05 2.7540423e-20)
(-0.00091170642 -6.1882019e-05 -8.6401188e-21)
(-0.0008803586 -6.1903537e-05 4.9126726e-21)
(-0.00084930866 -6.1913947e-05 -2.238367e-20)
(-0.00081855361 -6.1914396e-05 -1.7788988e-21)
(-0.00078809023 -6.1905971e-05 3.6489434e-20)
(-0.00075791504 -6.1889685e-05 1.3931652e-20)
(-0.00072802439 -6.1866528e-05 1.3530365e-20)
(-0.00069841442 -6.1837395e-05 -1.0747829e-20)
(-0.0006690811 -6.1803167e-05 -2.4338773e-20)
(-0.00064002024 -6.1764654e-05 -2.1590512e-20)
(-0.00061122752 -6.1722624e-05 9.0598797e-21)
(-0.00058269846 -6.1677789e-05 6.1296067e-21)
(-0.00055442851 -6.163083e-05 -1.4423373e-20)
(-0.00052641299 -6.1582385e-05 -5.0415946e-21)
(-0.00049864714 -6.1533038e-05 1.1907159e-20)
(-0.00047112612 -6.1483332e-05 -5.0389582e-23)
(-0.00044384504 -6.1433773e-05 1.073135e-20)
(-0.00041679895 -6.1384838e-05 2.2748236e-21)
(-0.00038998285 -6.1336933e-05 -6.9634775e-21)
(-0.00036339173 -6.1290442e-05 8.578599e-21)
(-0.00033702054 -6.1245689e-05 -1.2527193e-20)
(-0.00031086423 -6.1202942e-05 -2.2820712e-23)
(-0.00028491775 -6.1162391e-05 1.6933962e-20)
(-0.00025917602 -6.1124132e-05 1.6384019e-20)
(-0.00023363396 -6.1088116e-05 1.2095467e-20)
(-0.0002082864 -6.105409e-05 2.927159e-21)
(-0.00018312797 -6.1021505e-05 5.4741002e-21)
(-0.0001581528 -6.0989433e-05 -1.8078309e-20)
(-0.00013335396 -6.0956729e-05 -4.0094646e-21)
(-0.00010872297 -6.0923206e-05 1.4359302e-20)
(-8.4248626e-05 -6.089441e-05 2.7676931e-21)
(-5.9912346e-05 -6.0893722e-05 8.1261192e-21)
(-3.5697754e-05 -6.0984079e-05 9.0943797e-21)
(-1.1774438e-05 -6.1239648e-05 1.548813e-20)
(-7.8171194e-05 0.00076701483 -5.9267096e-19)
(-0.0001777801 0.00076852628 -3.7021253e-19)
(-0.00029094792 0.00076900863 -1.2571951e-19)
(-0.00040012007 0.00076885386 1.2252668e-19)
(-0.00051213039 0.00076764522 -1.2300285e-19)