/*--------------------------------*- C++ -*----------------------------------*\
| =========                 |                                                 |
| \\      /  F ield         | OpenFOAM: The Open Source CFD Toolbox           |
|  \\    /   O peration     | Version:  2306                                  |
|   \\  /    A nd           | Website:  www.openfoam.com                      |
|    \\/     M anipulation  |                                                 |
\*---------------------------------------------------------------------------*/
FoamFile
{
    version     2.0;
    format      ascii;
    arch        "LSB;label=32;scalar=64";
    class       surfaceScalarField;
    location    "0.03";
    object      phi;
}
// * * * * * * * * * * * * * * * * * * * * * * * * * * * * * * * * * * * * * //

dimensions      [0 3 -1 0 0 0 0];

oriented        oriented;

internalField   nonuniform List<scalar> 
12640
(
5.5488172e-07
3.6594112e-07
5.6020892e-07
3.4676806e-07
5.647052e-07
3.2765118e-07
5.6840628e-07
3.086185e-07
5.7134731e-07
2.896946e-07
5.7356219e-07
2.7090314e-07
5.750843e-07
2.5226413e-07
5.7594612e-07
2.3379704e-07
5.7617902e-07
2.1551804e-07
5.7581361e-07
1.9744229e-07
5.748793e-07
1.7958305e-07
5.7340501e-07
1.6195173e-07
5.7141811e-07
1.4455826e-07
5.689458e-07
1.2741223e-07
5.6601304e-07
1.1052046e-07
5.6264477e-07
9.3889376e-08
5.5886291e-07
7.7524043e-08
5.5469433e-07
6.1426885e-08
5.5015526e-07
4.5605981e-08
5.4526926e-07
3.0059874e-08
5.4004424e-07
1.4788709e-08
5.3454113e-07
-2.1926763e-10
5.2873103e-07
-1.4893213e-08
5.2264858e-07
-2.9315022e-08
5.1630877e-07
-4.346011e-08
5.0972752e-07
-5.7329171e-08
5.0291827e-07
-7.0921751e-08
4.9589594e-07
-8.4241703e-08
4.8867301e-07
-9.7289619e-08
4.8126213e-07
-1.1006834e-07
4.736748e-07
-1.2258125e-07
4.6592207e-07
-1.3483154e-07
4.5801431e-07
-1.4682148e-07
4.4996076e-07
-1.5855475e-07
4.4177145e-07
-1.7003523e-07
4.3345442e-07
-1.8126656e-07
4.2501782e-07
-1.9225277e-07
4.1646873e-07
-2.0299656e-07
4.0781441e-07
-2.1350297e-07
3.9906096e-07
-2.2377545e-07
3.9021483e-07
-2.3381822e-07
3.8128105e-07
-2.4363497e-07
3.7226518e-07
-2.5322971e-07
3.6317183e-07
-2.6260581e-07
3.5400484e-07
-2.7176763e-07
3.4476885e-07
-2.8071908e-07
3.3546763e-07
-2.8946337e-07
3.2610377e-07
-2.9800447e-07
3.1668048e-07
-3.0634579e-07
3.0720029e-07
-3.1449079e-07
2.9766532e-07
-3.2244222e-07
2.880775e-07
-3.3020462e-07
2.7843929e-07
-3.3778027e-07
2.6875199e-07
-3.4517279e-07
2.5901689e-07
-3.5238415e-07
2.4923481e-07
-3.5941748e-07
2.3940678e-07
-3.6627538e-07
2.2953327e-07
-3.7296009e-07
2.1961475e-07
-3.794745e-07
2.096508e-07
-3.8582063e-07
1.9964266e-07
-3.9200004e-07
1.8958943e-07
-3.9801537e-07
1.794911e-07
-4.0386754e-07
1.6934671e-07
-4.0955841e-07
1.5915614e-07
-4.1508895e-07
1.4891851e-07
-4.2046155e-07
1.3863327e-07
-4.2567582e-07
1.282992e-07
-4.3073328e-07
1.1791526e-07
-4.3563436e-07
1.0748026e-07
-4.4037914e-07
9.6993089e-08
-4.4496877e-07
8.6452071e-08
-4.4940296e-07
7.5856085e-08
-4.536817e-07
6.5203377e-08
-4.5780455e-07
5.4491768e-08
-4.6177049e-07
4.372079e-08
-4.6557953e-07
3.2888128e-08
-4.6923021e-07
2.1990777e-08
-4.7272189e-07
1.1028989e-08
-4.7605481e-07
-4.7923262e-07
5.3130813e-07
3.5942708e-07
5.3697785e-07
3.4109825e-07
5.4183709e-07
3.2279198e-07
5.4591898e-07
3.0453671e-07
5.4925555e-07
2.8635809e-07
5.51879e-07
2.6827958e-07
5.5382046e-07
2.5032271e-07
5.5511079e-07
2.3250672e-07
5.5577941e-07
2.1484933e-07
5.5585581e-07
1.9736605e-07
5.5536767e-07
1.8007113e-07
5.5434235e-07
1.6297702e-07
5.5280623e-07
1.4609442e-07
5.5078483e-07
1.2943352e-07
5.4830286e-07
1.130025e-07
5.4538377e-07
9.6808337e-08
5.4205073e-07
8.0857156e-08
5.3832361e-07
6.5154048e-08
5.342258e-07
4.9703672e-08
5.2977758e-07
3.4508127e-08
5.2499605e-07
1.9570278e-08
5.1989319e-07
4.8838874e-09
5.1451152e-07
-9.5115159e-09
5.0884502e-07
-2.3648834e-08
5.0291386e-07
-3.75287e-08
4.9673315e-07
-5.1148313e-08
4.9031835e-07
-6.4507146e-08
4.8368271e-07
-7.7606015e-08
4.7684015e-07
-9.044687e-08
4.6980215e-07
-1.0303057e-07
4.6258043e-07
-1.1535958e-07
4.5518559e-07
-1.2743655e-07
4.4762858e-07
-1.3926421e-07
4.3991822e-07
-1.5084444e-07
4.3206412e-07
-1.6218123e-07
4.2407534e-07
-1.7327787e-07
4.1595908e-07
-1.8413657e-07
4.0772386e-07
-1.9476109e-07
3.993759e-07
-2.0515512e-07
3.909221e-07
-2.1532169e-07
3.8236811e-07
-2.2526438e-07
3.7371997e-07
-2.3498698e-07
3.649827e-07
-2.4449224e-07
3.5616138e-07
-2.5378456e-07
3.4726096e-07
-2.6286725e-07
3.3828468e-07
-2.7174287e-07
3.29237e-07
-2.8041568e-07
3.2012109e-07
-2.888884e-07
3.1093959e-07
-2.971643e-07
3.0169582e-07
-3.0524683e-07
2.9239211e-07
-3.1313836e-07
2.830305e-07
-3.2084311e-07
2.7361327e-07
-3.2836296e-07
2.6414193e-07
-3.3570128e-07
2.5461832e-07
-3.4286031e-07
2.450435e-07
-3.4984295e-07
2.3541824e-07
-3.5665014e-07
2.257434e-07
-3.6328516e-07
2.1601996e-07
-3.6975107e-07
2.0624818e-07
-3.7604879e-07
1.9642788e-07
-3.8218009e-07
1.8655941e-07
-3.8814718e-07
1.7664322e-07
-3.9395119e-07
1.6667786e-07
-3.9959305e-07
1.5666436e-07
-4.0507554e-07
1.4660094e-07
-4.1039814e-07
1.3648786e-07
-4.1556277e-07
1.2632401e-07
-4.2056953e-07
1.1610877e-07
-4.2541874e-07
1.0584106e-07
-4.3011142e-07
9.5519893e-08
-4.3464774e-07
8.5143694e-08
-4.3902707e-07
7.471176e-08
-4.4324986e-07
6.4222212e-08
-4.4731487e-07
5.3674267e-08
-4.5122255e-07
4.3065689e-08
-4.549709e-07
3.2395683e-08
-4.5856007e-07
2.166266e-08
-4.6198871e-07
1.0864174e-08
-4.6525648e-07
-4.6836841e-07
5.0865434e-07
3.5263838e-07
5.1462257e-07
3.3513005e-07
5.1980134e-07
3.1761314e-07
5.2422134e-07
3.0011677e-07
5.2791236e-07
2.8266698e-07
5.3090468e-07
2.6528745e-07
5.3322723e-07
2.4800014e-07
5.3490873e-07
2.3082519e-07
5.3597731e-07
2.1378065e-07
5.3646048e-07
1.9688288e-07
5.3638493e-07
1.8014678e-07
5.3577654e-07
1.6358538e-07
5.3466051e-07
1.4721051e-07
5.3306094e-07
1.310331e-07
5.3100142e-07
1.1506209e-07
5.2850484e-07
9.9305185e-08
5.2559226e-07
8.3769757e-08
5.2228613e-07
6.8460006e-08
5.1860521e-07
5.3384766e-08
5.1456976e-07
3.8543509e-08
5.1019836e-07
2.3941515e-08
5.0550415e-07
9.5779836e-09
5.0052152e-07
-4.5289895e-09
4.9525016e-07
-1.837741e-08
4.8970923e-07
-3.198758e-08
4.8391365e-07
-4.5353057e-08
4.7787857e-07
-5.8471732e-08
4.7161615e-07
-7.134355e-08
4.6513953e-07
-8.3970295e-08
4.5846111e-07
-9.6352182e-08
4.5159285e-07
-1.0849119e-07
4.445449e-07
-1.2038877e-07
4.3732759e-07
-1.320468e-07
4.2995045e-07
-1.4346748e-07
4.2242339e-07
-1.5465403e-07
4.1475408e-07
-1.6560817e-07
4.0695088e-07
-1.7633343e-07
3.990214e-07
-1.8683162e-07
3.9097274e-07
-1.9710623e-07
3.8281162e-07
-2.0716042e-07
3.7454436e-07
-2.16997e-07
3.6617642e-07
-2.2661902e-07
3.5771348e-07
-2.3602934e-07
3.4916022e-07
-2.4523135e-07
3.4052136e-07
-2.5422826e-07
3.3180134e-07
-2.6302255e-07
3.230032e-07
-2.716178e-07
3.1413167e-07
-2.8001664e-07
3.0518951e-07
-2.882222e-07
2.9617976e-07
-2.9623716e-07
2.8710501e-07
-3.0406373e-07
2.7796789e-07
-3.1170577e-07
2.6877033e-07
-3.1916551e-07
2.5951416e-07
-3.264451e-07
2.5020115e-07
-3.3354714e-07
2.4083187e-07
-3.404737e-07
2.3140848e-07
-3.4722643e-07
2.2193244e-07
-3.5380914e-07
2.1240361e-07
-3.6022222e-07
2.0282283e-07
-3.6646789e-07
1.9319085e-07
-3.7254823e-07
1.8350769e-07
-3.7846401e-07
1.7377319e-07
-3.8421668e-07
1.6398895e-07
-3.8980857e-07
1.541519e-07
-3.9523883e-07
1.4426415e-07
-4.0051039e-07
1.3432443e-07
-4.0562295e-07
1.2433216e-07
-4.105772e-07
1.1428668e-07
-4.1537338e-07
1.0418748e-07
-4.2001232e-07
9.4033224e-08
-4.2449349e-07
8.3823193e-08
-4.2881719e-07
7.3556443e-08
-4.3298293e-07
6.3231873e-08
-4.3699017e-07
5.2848094e-08
-4.4083878e-07
4.2404408e-08
-4.4452715e-07
3.1898854e-08
-4.4805472e-07
2.1330805e-08
-4.514205e-07
1.0698326e-08
-4.5462388e-07
-4.5767004e-07
4.8690032e-07
3.4561715e-07
4.931256e-07
3.2890469e-07
4.9858307e-07
3.1215571e-07
5.0330121e-07
2.9539855e-07
5.0730803e-07
2.786602e-07
5.1063124e-07
2.6196402e-07
5.132982e-07
2.4533331e-07
5.1533559e-07
2.2878792e-07
5.1676978e-07
2.1234635e-07
5.1762698e-07
1.9602572e-07
5.1793223e-07
1.7984157e-07
5.1770991e-07
1.6380768e-07
5.1698389e-07
1.4793662e-07
5.1577782e-07
1.3223927e-07
5.1411364e-07
1.1672625e-07
5.1201329e-07
1.0140552e-07
5.0949782e-07
8.6285375e-08
5.0658639e-07
7.1371384e-08
5.0330037e-07
5.6670626e-08
4.9965631e-07
4.2187706e-08
4.9567359e-07
2.792429e-08
4.913648e-07
1.3886725e-08
4.8676863e-07
6.7125374e-11
4.8187378e-07
-1.3482639e-08
4.7670626e-07
-2.6820033e-08
4.7127965e-07
-3.9926213e-08
4.6560758e-07
-5.279977e-08
4.5970424e-07
-6.5440025e-08
4.5358066e-07
-7.7846887e-08
4.4724966e-07
-9.0021354e-08
4.407226e-07
-1.0196407e-07
4.3400973e-07
-1.1367584e-07
4.27122e-07
-1.2515886e-07
4.2006827e-07
-1.3641399e-07
4.1285829e-07
-1.4744389e-07
4.0549956e-07
-1.5824991e-07
3.9800135e-07
-1.6883498e-07
3.9037053e-07
-1.7920109e-07
3.826144e-07
-1.8934998e-07
3.7473956e-07
-1.9928561e-07
3.6675267e-07
-2.0901014e-07
3.5865921e-07
-2.1852575e-07
3.5046517e-07
-2.2783534e-07
3.4217499e-07
-2.3694107e-07
3.3379345e-07
-2.4584663e-07
3.2532511e-07
-2.5455439e-07
3.1677396e-07
-2.6306671e-07
3.0814374e-07
-2.7138666e-07
2.9943786e-07
-2.7951643e-07
2.9065941e-07
-2.8745857e-07
2.8181142e-07
-2.9521575e-07
2.7289619e-07
-3.0279067e-07
2.6391612e-07
-3.1018537e-07
2.5487324e-07
-3.1740243e-07
2.4576887e-07
-3.2444299e-07
2.3660498e-07
-3.3130973e-07
2.2738323e-07
-3.3800473e-07
2.1810473e-07
-3.4453031e-07
2.087707e-07
-3.5088805e-07
1.9938117e-07
-3.5707849e-07
1.8993711e-07
-3.6310408e-07
1.8043915e-07
-3.6896588e-07
1.7088776e-07
-3.7466526e-07
1.6128249e-07
-3.8020338e-07
1.5162398e-07
-3.8558037e-07
1.4191161e-07
-3.9079807e-07
1.321454e-07
-3.9585688e-07
1.2232524e-07
-4.0075682e-07
1.1245049e-07
-4.054984e-07
1.0252027e-07
-4.100819e-07
9.2534315e-08
-4.1450773e-07
8.2491777e-08
-4.187745e-07
7.2391561e-08
-4.2288299e-07
6.2233213e-08
-4.2683181e-07
5.201501e-08
-4.3062095e-07
4.173718e-08
-4.3424934e-07
3.139772e-08
-4.3771515e-07
2.0995661e-08
-4.4101859e-07
1.0530342e-08
-4.4415863e-07
-4.4713979e-07
4.6602433e-07
3.3840289e-07
4.7246745e-07
3.2246182e-07
4.7816568e-07
3.0645753e-07
4.831448e-07
2.904193e-07
4.8743086e-07
2.7437404e-07
4.9104924e-07
2.5834554e-07
4.9402589e-07
2.4235684e-07
4.9638557e-07
2.2642826e-07
4.9815301e-07
2.1057883e-07
4.9935265e-07
1.9482624e-07
5.0000785e-07
1.7918634e-07
5.0014199e-07
1.6367354e-07
4.9977787e-07
1.4830058e-07
4.9893743e-07
1.3307979e-07
4.9764238e-07
1.1802137e-07
4.9591302e-07
1.0313482e-07
4.9376965e-07
8.8428696e-08
4.9123115e-07
7.3909659e-08
4.8831731e-07
5.95846e-08
4.8504563e-07
4.5459212e-08
4.8143188e-07
3.1538245e-08
4.7749675e-07
1.7821943e-08
4.7324782e-07
4.3159464e-09
4.6872008e-07
-8.9548593e-09
4.6391108e-07
-2.2011148e-08
4.5883821e-07
-3.4853341e-08
4.5351521e-07
-4.7476922e-08
4.4795587e-07
-5.9880687e-08
4.4217225e-07
-7.2063102e-08
4.3617605e-07
-8.4025053e-08
4.2997832e-07
-9.5766216e-08
4.2359012e-07
-1.0728767e-07
4.170205e-07
-1.1858919e-07
4.1027983e-07
-1.2967349e-07
4.0337728e-07
-1.4054119e-07
3.963213e-07
-1.5119384e-07
3.8911944e-07
-1.6163309e-07
3.8177939e-07
-1.7186107e-07
3.7430861e-07
-1.8187914e-07
3.6671377e-07
-1.9169076e-07
3.5900125e-07
-2.0129735e-07
3.5117659e-07
-2.1070141e-07
3.4324564e-07
-2.1990414e-07
3.3521358e-07
-2.2890915e-07
3.2708491e-07
-2.3771802e-07
3.188642e-07
-2.4633365e-07
3.1055638e-07
-2.5475894e-07
3.0216407e-07
-2.6299434e-07
2.9369148e-07
-2.7104368e-07
2.8514149e-07
-2.7890871e-07
2.7651756e-07
-2.8659157e-07
2.6782178e-07
-2.9409513e-07
2.5905692e-07
-3.0142056e-07
2.5022505e-07
-3.085704e-07
2.4132833e-07
-3.1554581e-07
2.3236851e-07
-3.2235004e-07
2.2334735e-07
-3.2898372e-07
2.1426605e-07
-3.3544897e-07
2.0512543e-07
-3.4174744e-07
1.9592687e-07
-3.4787957e-07
1.8667052e-07
-3.5384802e-07
1.773574e-07
-3.5965281e-07
1.6798821e-07
-3.6529616e-07
1.5856323e-07
-3.7077803e-07
1.4908255e-07
-3.7609979e-07
1.3954641e-07
-3.8126202e-07
1.2995454e-07
-3.8626506e-07
1.2030684e-07
-3.911093e-07
1.1060307e-07
-3.9579445e-07
1.0084287e-07
-4.0032194e-07
9.1025531e-08
-4.0469043e-07
8.1151381e-08
-4.0890007e-07
7.1218874e-08
-4.1295019e-07
6.1227312e-08
-4.1684047e-07
5.1176557e-08
-4.2057013e-07
4.1065353e-08
-4.2413806e-07
3.0893042e-08
-4.2754307e-07
2.0658722e-08
-4.3078386e-07
1.0361108e-08
-4.3386096e-07
-4.3677838e-07
4.4600368e-07
3.310327e-07
4.5262869e-07
3.1583677e-07
4.5853168e-07
3.0055444e-07
4.6373685e-07
2.852143e-07
4.6826783e-07
2.6984295e-07
4.7214824e-07
2.5446517e-07
4.7540184e-07
2.3910336e-07
4.7805167e-07
2.2377825e-07
4.8012108e-07
2.0850943e-07
4.8163258e-07
1.9331462e-07
4.8260889e-07
1.7821001e-07
4.8307149e-07
1.6321094e-07
4.8304192e-07
1.4833011e-07
4.8254134e-07
1.3358036e-07
4.8158972e-07
1.1897308e-07
4.8020691e-07
1.0451758e-07
4.784122e-07
9.0223381e-08
4.7622379e-07
7.6098128e-08
4.7366054e-07
6.2147785e-08
4.7073895e-07
4.8380638e-08
4.6747607e-07
3.4801106e-08
4.6388516e-07
2.1412547e-08
4.5998674e-07
8.2146721e-09
4.5580154e-07
-4.769838e-09
4.513329e-07
-1.7542562e-08
4.4659753e-07
-3.0117881e-08
4.4160895e-07
-4.2488418e-08
4.3638003e-07
-5.465166e-08
4.3092275e-07
-6.6605959e-08
4.2524866e-07
-7.835109e-08
4.1936862e-07
-8.9886285e-08
4.1329276e-07
-1.0121176e-07
4.0703185e-07
-1.1232821e-07
4.005945e-07
-1.2323616e-07
3.9399025e-07
-1.3393686e-07
3.8722723e-07
-1.444307e-07
3.8031344e-07
-1.5471944e-07
3.7325638e-07
-1.6480413e-07
3.6606409e-07
-1.7468687e-07
3.5874242e-07
-1.8436905e-07
3.5129759e-07
-1.9385263e-07
3.4373604e-07
-2.0313941e-07
3.3606285e-07
-2.1223116e-07
3.2828371e-07
-2.2112999e-07
3.2040333e-07
-2.2983762e-07
3.1242649e-07
-2.3835651e-07
3.0435676e-07
-2.4668916e-07
2.96199e-07
-2.5483626e-07
2.8795568e-07
-2.6280063e-07
2.7963155e-07
-2.7058432e-07
2.7122871e-07
-2.7818901e-07
2.6275027e-07
-2.8561675e-07
2.5419884e-07
-2.9286905e-07
2.455764e-07
-2.9994807e-07
2.3688572e-07
-3.0685543e-07
2.2812833e-07
-3.1359248e-07
2.1930597e-07
-3.2016138e-07
2.1042063e-07
-3.2656336e-07
2.0147228e-07
-3.3279912e-07
1.9246309e-07
-3.3887078e-07
1.8339413e-07
-3.4477883e-07
1.7426568e-07
-3.5052461e-07
1.6507873e-07
-3.5610903e-07
1.5583375e-07
-3.6153313e-07
1.465313e-07
-3.6679716e-07
1.3717116e-07
-3.7190176e-07
1.2775394e-07
-3.7684772e-07
1.1827895e-07
-3.8163439e-07
1.0874702e-07
-3.8626274e-07
9.9157166e-08
-3.9073216e-07
8.9509878e-08
-3.9504304e-07
7.9804113e-08
-3.9919443e-07
7.0039634e-08
-4.031857e-07
6.0216376e-08
-4.0701712e-07
5.0333435e-08
-4.1068707e-07
4.0389991e-08
-4.1419475e-07
3.0385525e-08
-4.1753842e-07
2.0319625e-08
-4.2071789e-07
1.0191368e-08
-4.2373286e-07
-4.2658719e-07
4.2681503e-07
3.2354008e-07
4.3358816e-07
3.0906351e-07
4.3966325e-07
2.9447942e-07
4.4506184e-07
2.7981582e-07
4.4980539e-07
2.6509938e-07
4.5391594e-07
2.5035447e-07
4.5741547e-07
2.3560382e-07
4.603255e-07
2.208683e-07
4.6266726e-07
2.0616768e-07
4.6446252e-07
1.9151952e-07
4.6573176e-07
1.7694094e-07
4.6649571e-07
1.6244695e-07
4.6677464e-07
1.4805113e-07
4.6658841e-07
1.3376679e-07
4.6595584e-07
1.196054e-07
4.648963e-07
1.0557731e-07
4.6342774e-07
9.1691921e-08
4.6156786e-07
7.7957742e-08
4.5933376e-07
6.4381817e-08
4.5674242e-07
5.0972076e-08
4.5380958e-07
3.7733855e-08
4.5055118e-07
2.4671333e-08
4.4697678e-07
1.1789031e-08
4.4312291e-07
-9.1612728e-10
4.3897744e-07
-1.3397302e-08
4.3456436e-07
-2.5704733e-08
4.2989544e-07
-3.781964e-08
4.2498303e-07
-4.9739229e-08
4.1983892e-07
-6.146178e-08
4.1447436e-07
-7.2986529e-08
4.0890027e-07
-8.4311983e-08
4.0312655e-07
-9.5438302e-08
3.9716335e-07
-1.0636497e-07
3.9101926e-07
-1.1709204e-07
3.8470402e-07
-1.2762143e-07
3.7822521e-07
-1.3795208e-07
3.7159118e-07
-1.4808545e-07
3.6481005e-07
-1.5802303e-07
3.5788808e-07
-1.6776479e-07
3.5083218e-07
-1.7731336e-07
3.4364908e-07
-1.8666958e-07
3.3634424e-07
-1.9583453e-07
3.2892335e-07
-2.0481053e-07
3.2139214e-07
-2.1359876e-07
3.1375515e-07
-2.2220081e-07
3.0601694e-07
-2.306184e-07
2.9818168e-07
-2.3885404e-07
2.9025449e-07
-2.4690903e-07
2.8223813e-07
-2.5478427e-07
2.7413589e-07
-2.6248208e-07
2.6595146e-07
-2.7000467e-07
2.5768747e-07
-2.7735292e-07
2.4934664e-07
-2.845284e-07
2.4093181e-07
-2.9153331e-07
2.3244492e-07
-2.9836869e-07
2.2388822e-07
-3.0503596e-07
2.1526337e-07
-3.1153638e-07
2.0657189e-07
-3.1787188e-07
1.9781545e-07
-3.2404245e-07
1.8899528e-07
-3.3005058e-07
1.8011261e-07
-3.3589634e-07
1.7116821e-07
-3.4158025e-07
1.6216298e-07
-3.4710389e-07
1.5309801e-07
-3.5246795e-07
1.4397306e-07
-3.5767233e-07
1.3478907e-07
-3.6271781e-07
1.2554589e-07
-3.6760464e-07
1.1624452e-07
-3.7233302e-07
1.0688422e-07
-3.7690228e-07
9.7465321e-08
-3.8131323e-07
8.7987734e-08
-3.8556569e-07
7.8451208e-08
-3.896576e-07
6.885577e-08
-3.9359064e-07
5.9200929e-08
-3.9736193e-07
4.9486017e-08
-4.0097221e-07
3.9711118e-08
-4.0441985e-07
2.9876053e-08
-4.0770315e-07
1.9979072e-08
-4.1082118e-07
1.0020722e-08
-4.1377437e-07
-4.1656656e-07
4.0843437e-07
3.1595623e-07
4.1532482e-07
3.0217295e-07
4.2154102e-07
2.8826317e-07
4.2710225e-07
2.7425461e-07
4.3202842e-07
2.6017306e-07
4.3633964e-07
2.460433e-07
4.4005589e-07
2.3188755e-07
4.4319736e-07
2.1772676e-07
4.4578398e-07
2.0358104e-07
4.4783535e-07
1.8946809e-07
4.4937133e-07
1.7540492e-07
4.5041113e-07
1.614072e-07
4.5097345e-07
1.4748885e-07
4.5107723e-07
1.3366299e-07
4.5074084e-07
1.1994195e-07
4.4998176e-07
1.0633641e-07
4.4881766e-07
9.2855944e-08
4.4726505e-07
7.9510405e-08
4.4534033e-07
6.6306576e-08
4.4306023e-07
5.3252062e-08
4.4044009e-07
4.0353857e-08
4.3749395e-07
2.7617447e-08
4.3423644e-07
1.5046654e-08
4.3067976e-07
2.6407024e-09
4.2684827e-07
-9.5657847e-09
4.2274367e-07
-2.1600409e-08
4.1838049e-07
-3.3456481e-08
4.1377132e-07
-4.5129961e-08
4.0892772e-07
-5.6618209e-08
4.0386053e-07
-6.7919387e-08
3.9858043e-07
-7.9031959e-08
3.9309754e-07
-8.9955298e-08
3.8742112e-07
-1.0068871e-07
3.8156101e-07
-1.1123182e-07
3.7552505e-07
-1.2158576e-07
3.6932216e-07
-1.3174903e-07
3.6296002e-07
-1.4172327e-07
3.5644602e-07
-1.5150893e-07
3.4978716e-07
-1.6110607e-07
3.4299087e-07
-1.7051691e-07
3.3606217e-07
-1.7974101e-07
3.290079e-07
-1.8878055e-07
3.218338e-07
-1.9763606e-07
3.1454474e-07
-2.0630972e-07
3.0714633e-07
-2.148022e-07
2.9964251e-07
-2.2311479e-07
2.9203838e-07
-2.3124969e-07
2.843372e-07
-2.3920796e-07
2.7654277e-07
-2.4699022e-07
2.6866001e-07
-2.5459922e-07
2.6069063e-07
-2.6203517e-07
2.526384e-07
-2.6930049e-07
2.4450604e-07
-2.7639599e-07
2.362961e-07
-2.8332305e-07
2.2801098e-07
-2.9008361e-07
2.1965292e-07
-2.9667777e-07
2.1122412e-07
-3.0310746e-07
2.0272559e-07
-3.0937317e-07
1.9415954e-07
-3.1547652e-07
1.8552721e-07
-3.2141821e-07
1.7682973e-07
-3.2719884e-07
1.6806855e-07
-3.3281913e-07
1.5924436e-07
-3.3827971e-07
1.5035844e-07
-3.4358193e-07
1.414106e-07
-3.4872451e-07
1.3240241e-07
-3.5370942e-07
1.2333387e-07
-3.5853607e-07
1.1420509e-07
-3.6320392e-07
1.0501695e-07
-3.6771398e-07
9.5769064e-08
-3.7206534e-07
8.6461612e-08
-3.762581e-07
7.7094715e-08
-3.802908e-07
6.7668318e-08
-3.8416419e-07
5.8182491e-08
-3.8787601e-07
4.8636756e-08
-3.9142648e-07
3.9030648e-08
-3.9481367e-07
2.9364546e-08
-3.9803708e-07
1.9637755e-08
-4.0109464e-07
9.8493146e-09
-4.0398589e-07
-4.0671703e-07
3.9083713e-07
3.0830955e-07
3.9781621e-07
2.95194e-07
4.0414485e-07
2.8193438e-07
4.098405e-07
2.6855909e-07
4.1492086e-07
2.5509261e-07
4.1940491e-07
2.4155942e-07
4.2331096e-07
2.2798152e-07
4.2665702e-07
2.1438066e-07
4.2946193e-07
2.0077615e-07
4.3174411e-07
1.87186e-07
4.3352172e-07
1.7362737e-07
4.3481265e-07
1.6011615e-07
4.3563494e-07
1.4666661e-07
4.3600584e-07
1.3329209e-07
4.3594262e-07
1.2000507e-07
4.3546256e-07
1.0681646e-07
4.3458167e-07
9.3736954e-08
4.3331618e-07
8.0775735e-08
4.3168133e-07
6.7941369e-08
4.2969414e-07
5.5239263e-08
4.2736688e-07
4.268119e-08
4.2471514e-07
3.0269201e-08
4.2175362e-07
1.8008184e-08
4.1849158e-07
5.9026751e-09
4.1495336e-07
-6.027447e-09
4.1114158e-07
-1.7788614e-08
4.0707002e-07
-2.938481e-08
4.0275074e-07
-4.0810796e-08
3.9819444e-07
-5.2062036e-08
3.9341272e-07
-6.3137524e-08
3.8841542e-07
-7.4034597e-08
3.8321213e-07
-8.475189e-08
3.7781271e-07
-9.5289144e-08
3.7222611e-07
-1.056454e-07
3.6646034e-07
-1.1581993e-07
3.6052406e-07
-1.2581303e-07
3.5442512e-07
-1.3562428e-07
3.4817059e-07
-1.4525453e-07
3.4176813e-07
-1.5470368e-07
3.3522329e-07
-1.6397204e-07
3.285433e-07
-1.7306092e-07
3.2173376e-07
-1.8197108e-07
3.1480028e-07
-1.907028e-07
3.0774836e-07
-1.9925792e-07
3.0058301e-07
-2.0763683e-07
2.9330927e-07
-2.1584096e-07
2.8593057e-07
-2.2387126e-07
2.7845168e-07
-2.3172893e-07
2.7087671e-07
-2.3941524e-07
2.6320878e-07
-2.4693114e-07
2.5545169e-07
-2.5427817e-07
2.4760805e-07
-2.6145711e-07
2.3968162e-07
-2.6846954e-07
2.3167424e-07
-2.7531604e-07
2.2358864e-07
-2.8199793e-07
2.1542731e-07
-2.8851645e-07
2.0719214e-07
-2.9487238e-07
1.98885e-07
-3.0106655e-07
1.9050801e-07
-3.0709928e-07
1.8206236e-07
-3.1297262e-07
1.7354908e-07
-3.1868562e-07
1.6496982e-07
-3.2423998e-07
1.5632632e-07
-3.2963599e-07
1.4761822e-07
-3.3487389e-07
1.3884751e-07
-3.399538e-07
1.3001448e-07
-3.4487636e-07
1.2111969e-07
-3.4964122e-07
1.1216379e-07
-3.5424816e-07
1.0314717e-07
-3.5869747e-07
9.4070178e-08
-3.6298838e-07
8.4933192e-08
-3.6712078e-07
7.5735949e-08
-3.7109403e-07
6.6478885e-08
-3.7490703e-07
5.7162148e-08
-3.7855919e-07
4.7785272e-08
-3.8204934e-07
3.8348617e-08
-3.8537746e-07
2.8851865e-08
-3.8854025e-07
1.929493e-08
-3.915378e-07
9.6777352e-09
-3.9436876e-07
-3.970393e-07
3.7399835e-07
3.0062643e-07
3.8103945e-07
2.881528e-07
3.8745396e-07
2.7551981e-07
3.9325764e-07
2.6275527e-07
3.9846653e-07
2.4988391e-07
4.030976e-07
2.3692833e-07
4.0716743e-07
2.2391174e-07
4.1069324e-07
2.1085495e-07
4.1369186e-07
1.9777722e-07
4.1618039e-07
1.8469754e-07
4.181756e-07
1.7163216e-07
4.1969473e-07
1.5859702e-07
4.2075397e-07
1.4560719e-07
4.2137e-07
1.3267608e-07
4.2155905e-07
1.19816e-07
4.2133715e-07
1.0703841e-07
4.2071949e-07
9.4354401e-08
4.1972193e-07
8.1773453e-08
4.1835898e-07
6.9304359e-08
4.1664451e-07
5.6953804e-08
4.1459423e-07
4.4731476e-08
4.1222065e-07
3.2642678e-08
4.0953625e-07
2.0692699e-08
4.0655386e-07
8.8850984e-09
4.0329526e-07
-2.7688931e-09
3.9976204e-07
-1.4255291e-08
3.9596832e-07
-2.5591144e-08
3.9192571e-07
-3.6768238e-08
3.876448e-07
-4.7781201e-08
3.8313638e-07
-5.8629041e-08
3.7841005e-07
-6.9308278e-08
3.7347584e-07
-7.981764e-08
3.6834299e-07
-9.0156407e-08
3.6302002e-07
-1.0032243e-07
3.5751572e-07
-1.1031555e-07
3.5183726e-07
-1.2013462e-07
3.4599331e-07
-1.2978031e-07
3.3999049e-07
-1.3925155e-07
3.3383588e-07
-1.4854903e-07
3.2753634e-07
-1.5767264e-07
3.2109825e-07
-1.6662282e-07
3.1452716e-07
-1.7540005e-07
3.0782879e-07
-1.8400433e-07
3.0100831e-07
-1.9243735e-07
2.9407126e-07
-2.0069979e-07
2.87022e-07
-2.0879161e-07
2.7986512e-07
-2.1671422e-07
2.7260408e-07
-2.2446788e-07
2.6524414e-07
-2.3205498e-07
2.5778788e-07
-2.3947498e-07
2.5023972e-07
-2.4672954e-07
2.4260162e-07
-2.5381911e-07
2.3487813e-07
-2.6074575e-07
2.2707051e-07
-2.6750849e-07
2.1918214e-07
-2.7410946e-07
2.1121497e-07
-2.8054954e-07
2.0317198e-07
-2.8682923e-07
1.9505426e-07
-2.9294881e-07
1.8686427e-07
-2.9890932e-07
1.786031e-07
-3.0471132e-07
1.7027306e-07
-3.1035546e-07
1.6187508e-07
-3.1584223e-07
1.5341058e-07
-3.2117132e-07
1.4488042e-07
-3.2634401e-07
1.3628608e-07
-3.3135906e-07
1.276277e-07
-3.3621771e-07
1.1890644e-07
-3.4091985e-07
1.1012283e-07
-3.4546468e-07
1.0127748e-07
-3.4985232e-07
9.2370989e-08
-3.5408211e-07
8.3403913e-08
-3.5815384e-07
7.4376579e-08
-3.6206635e-07
6.5288545e-08
-3.658189e-07
5.614066e-08
-3.6941127e-07
4.6932999e-08
-3.7284195e-07
3.7665769e-08
-3.7610989e-07
2.8338513e-08
-3.7921308e-07
1.8951828e-08
-3.8215104e-07
9.5058142e-09
-3.8492293e-07
-3.8753337e-07
3.5789242e-07
2.9293057e-07
3.6497165e-07
2.8107353e-07
3.7144777e-07
2.6904377e-07
3.7733503e-07
2.5686807e-07
3.8264793e-07
2.4457085e-07
3.8740193e-07
2.3217427e-07
3.9161202e-07
2.1970172e-07
3.9529375e-07
2.0717329e-07
3.9846275e-07
1.9460831e-07
4.0113474e-07
1.8202545e-07
4.0332545e-07
1.6944143e-07
4.0505054e-07
1.5687203e-07
4.0632547e-07
1.4433241e-07
4.0716568e-07
1.3183577e-07
4.0758661e-07
1.1939512e-07
4.0760287e-07
1.0702224e-07
4.0722922e-07
9.4727865e-08
4.0648045e-07
8.2522209e-08
4.0537094e-07
7.0413813e-08
4.0391321e-07
5.8411443e-08
4.0212154e-07
4.6523185e-08
4.0000958e-07
3.4754453e-08
3.97589e-07
2.3113258e-08
3.9487021e-07
1.1603826e-08
3.9187776e-07
2.2333426e-10
3.8860843e-07
-1.098582e-08
3.8507924e-07
-2.2061977e-08
3.8130005e-07
-3.2989068e-08
3.7728239e-07
-4.3763651e-08
3.7303551e-07
-5.4381973e-08
3.6856946e-07
-6.4842338e-08
3.6389372e-07
-7.5141989e-08
3.5901729e-07
-8.5279557e-08
3.5394848e-07
-9.525359e-08
3.4869562e-07
-1.0506274e-07
3.4326688e-07
-1.1470609e-07
3.3766947e-07
-1.2418276e-07
3.3191034e-07
-1.3349268e-07
3.2599689e-07
-1.4263556e-07
3.1993572e-07
-1.5161119e-07
3.1373249e-07
-1.6041948e-07
3.0739322e-07
-1.6906094e-07
3.0092431e-07
-1.7753527e-07
2.9433004e-07
-1.8584317e-07
2.8761561e-07
-1.9398534e-07
2.8078606e-07
-2.0196215e-07
2.7384591e-07
-2.0977389e-07
2.6679947e-07
-2.1742164e-07
2.5965002e-07
-2.2490589e-07
2.5240204e-07
-2.3222699e-07
2.4505876e-07
-2.3938629e-07
2.3762366e-07
-2.4638412e-07
2.3009928e-07
-2.5322142e-07
2.2248904e-07
-2.5989819e-07
2.1479532e-07
-2.6641553e-07
2.0702054e-07
-2.7277464e-07
1.9916691e-07
-2.7897555e-07
1.9123686e-07
-2.8501877e-07
1.8323229e-07
-2.9090476e-07
1.7515483e-07
-2.9663391e-07
1.6700645e-07
-3.0220704e-07
1.5878825e-07
-3.0762392e-07
1.5050166e-07
-3.1288502e-07
1.421482e-07
-3.1799037e-07
1.3372859e-07
-3.2293966e-07
1.2524432e-07
-3.2773336e-07
1.1669573e-07
-3.32371e-07
1.0808356e-07
-3.368526e-07
9.9409407e-08
-3.4117836e-07
9.0673089e-08
-3.4534565e-07
8.1875743e-08
-3.4935608e-07
7.30174e-08
-3.532084e-07
6.4098852e-08
-3.5690006e-07
5.511982e-08
-3.604324e-07
4.6081355e-08
-3.6380344e-07
3.6982957e-08
-3.6701146e-07
2.782547e-08
-3.7005561e-07
1.8609284e-08
-3.7293467e-07
9.3339352e-09
-3.7564778e-07
-3.7819955e-07
3.424947e-07
2.852444e-07
3.4958978e-07
2.7397857e-07
3.5610489e-07
2.6252852e-07
3.620533e-07
2.509197e-07
3.6744823e-07
2.39176e-07
3.7230252e-07
2.2732003e-07
3.7663044e-07
2.1537367e-07
3.804461e-07
2.0335753e-07
3.8376369e-07
1.9129074e-07
3.8659773e-07
1.7919142e-07
3.8896256e-07
1.670765e-07
3.9087304e-07
1.5496175e-07
3.9234334e-07
1.4286199e-07
3.933878e-07
1.3079124e-07
3.9402101e-07
1.1876189e-07
3.9425678e-07
1.0678638e-07
3.9410893e-07
9.4875819e-08
3.9359144e-07
8.3039916e-08
3.9271714e-07
7.128819e-08
3.9149897e-07
5.9629534e-08
3.8995114e-07
4.8071173e-08
3.8808573e-07
3.6619865e-08
3.8591342e-07
2.5285494e-08
3.834481e-07
1.406912e-08
3.8069727e-07
2.9741576e-09
3.7768229e-07
-7.9708484e-09
3.7440508e-07
-1.8784795e-08
3.7087786e-07
-2.9462013e-08
3.6711126e-07
-3.9997101e-08
3.6311453e-07
-5.0385418e-08
3.5889758e-07
-6.0625489e-08
3.544702e-07
-7.0714623e-08
3.4983993e-07
-8.0649453e-08
3.4501576e-07
-9.0429406e-08
3.4000552e-07
-1.0005269e-07
3.3481711e-07
-1.0951776e-07
3.2945819e-07
-1.1882375e-07
3.239355e-07
-1.2796996e-07
3.1825565e-07
-1.3695578e-07
3.1242551e-07
-1.4578092e-07
3.0645074e-07
-1.5444478e-07
3.0033749e-07
-1.629478e-07
2.9409121e-07
-1.7128902e-07
2.8771744e-07
-1.7946948e-07
2.8122093e-07
-1.8748866e-07
2.7460631e-07
-1.9534744e-07
2.6787858e-07
-2.0304625e-07
2.6104153e-07
-2.1058447e-07
2.5409922e-07
-2.1796337e-07
2.4705521e-07
-2.2518322e-07
2.3991365e-07
-2.3224474e-07
2.3267744e-07
-2.3914796e-07
2.2534983e-07
-2.458938e-07
2.1793389e-07
-2.5248218e-07
2.1043186e-07
-2.5891367e-07
2.0284688e-07
-2.651895e-07
1.9518084e-07
-2.7130947e-07
1.8743649e-07
-2.7727424e-07
1.7961533e-07
-2.8308359e-07
1.7171988e-07
-2.887385e-07
1.6375104e-07
-2.9423834e-07
1.5571117e-07
-2.9958374e-07
1.4760142e-07
-3.0477533e-07
1.3942304e-07
-3.0981207e-07
1.3117766e-07
-3.1469431e-07
1.2286599e-07
-3.1942156e-07
1.1448948e-07
-3.2399456e-07
1.0604907e-07
-3.2841212e-07
9.7544589e-08
-3.3267395e-07
8.8978204e-08
-3.3677931e-07
8.0349756e-08
-3.4072773e-07
7.1660187e-08
-3.4451877e-07
6.2910091e-08
-3.4814987e-07
5.409985e-08
-3.516223e-07
4.5230046e-08
-3.5493347e-07
3.6301003e-08
-3.580826e-07
2.731335e-08
-3.61068e-07
1.8266664e-08
-3.6388803e-07
9.1622927e-09
-3.6654321e-07
-3.6903723e-07
3.2777974e-07
2.7758717e-07
3.348706e-07
2.6688786e-07
3.4140461e-07
2.5599437e-07
3.4739363e-07
2.4493061e-07
3.5284933e-07
2.3372024e-07
3.5778342e-07
2.2238598e-07
3.6220847e-07
2.1094874e-07
3.6613744e-07
1.9942868e-07
3.6958319e-07
1.8784487e-07
3.7255878e-07
1.7621574e-07
3.7507818e-07
1.6455725e-07
3.7715418e-07
1.5288573e-07
3.7880057e-07
1.4121567e-07
3.8003073e-07
1.2956103e-07
3.8085759e-07
1.1793506e-07
3.8129472e-07
1.0634931e-07
3.8135498e-07
9.4815548e-08
3.8105113e-07
8.3343547e-08
3.8039641e-07
7.1943041e-08
3.794026e-07
6.062338e-08
3.7808271e-07
4.9390921e-08
3.7644642e-07
3.8256303e-08
3.7450825e-07
2.7223686e-08
3.722777e-07
1.6299697e-08
3.6976478e-07
5.4872413e-09
3.6698757e-07
-5.1938791e-09
3.6394916e-07
-1.5746264e-08
3.6066131e-07
-2.617417e-08
3.5713385e-07
-3.6469508e-08
3.5337658e-07
-4.662823e-08
3.4939864e-07
-5.6647501e-08
3.4520807e-07
-6.6523945e-08
3.408146e-07
-7.6255979e-08
3.3622599e-07
-8.5840694e-08
3.3144953e-07
-9.5276145e-08
3.2649335e-07
-1.045614e-07
3.2136438e-07
-1.1369495e-07
3.1606988e-07
-1.2267551e-07
3.1061653e-07
-1.3150251e-07
3.0501038e-07
-1.4017493e-07
2.992576e-07
-1.4869198e-07
2.9336382e-07
-1.5705413e-07
2.8733504e-07
-1.6526015e-07
2.8117606e-07
-1.7331051e-07
2.7489226e-07
-1.8120496e-07
2.6848769e-07
-1.8894301e-07
2.6196738e-07
-1.9652567e-07
2.5533519e-07
-2.0395242e-07
2.4859551e-07
-2.1122357e-07
2.4175187e-07
-2.1833971e-07
2.3480849e-07
-2.2530148e-07
2.277678e-07
-2.3210744e-07
2.2063347e-07
-2.3875945e-07
2.1340866e-07
-2.4525733e-07
2.0609625e-07
-2.5160118e-07
1.986983e-07
-2.577915e-07
1.9121746e-07
-2.6382902e-07
1.8365643e-07
-2.6971343e-07
1.7601686e-07
-2.7544385e-07
1.6830072e-07
-2.8102227e-07
1.6051018e-07
-2.8644778e-07
1.5264703e-07
-2.9172058e-07
1.4471251e-07
-2.9684053e-07
1.3670817e-07
-3.0180803e-07
1.2863566e-07
-3.0662164e-07
1.204963e-07