/*--------------------------------*- C++ -*----------------------------------*\
| =========                 |                                                 |
| \\      /  F ield         | OpenFOAM: The Open Source CFD Toolbox           |
|  \\    /   O peration     | Version:  2106                                  |
|   \\  /    A nd           | Website:  www.openfoam.com                      |
|    \\/     M anipulation  |                                                 |
\*---------------------------------------------------------------------------*/
FoamFile
{
    version     2.0;
    format      ascii;
    arch        "LSB;label=32;scalar=64";
    class       surfaceScalarField;
    location    "0.027";
    object      phi;
}
// * * * * * * * * * * * * * * * * * * * * * * * * * * * * * * * * * * * * * //

dimensions      [0 3 -1 0 0 0 0];

oriented        oriented;

internalField   nonuniform List<scalar> 
480
(
-0.0029897143
0.0029905991
-0.0055232082
0.0025334939
-0.007212665
0.0016894568
-0.0078032388
0.00059057387
-0.0072078907
-0.00059534818
-0.0055167927
-0.001691098
-0.002986173
-0.0025306197
-8.8960373e-07
-0.0029852834
0.00298453
-0.0029854196
0.0055155307
-0.0025310007
0.0072072113
-0.0016916806
0.0078032523
-0.00059604101
0.0072133453
0.00058990703
0.0055244629
0.0016888824
0.0029913552
0.0025331076
0.0029904704
-0.0032828857
0.0062744859
-0.0060637388
0.0053143469
-0.0079166755
0.0035423935
-0.0085631239
0.0012370223
-0.0079096018
-0.0012488703
-0.0060545492
-0.0035461506
-0.0032776214
-0.0053075474
-1.0083664e-06
-0.0062618965
0.003275758
-0.006262186
0.0060531146
-0.0053083572
0.0079088327
-0.0035473987
0.0085631463
-0.0012503547
0.0079174485
0.0012356049
0.0060651601
0.0035411708
0.0032847452
0.0053135226
0.0062742146
-0.0039524201
0.010228183
-0.0072984122
0.008660339
-0.0095240258
0.0057680071
-0.010298406
0.0020114028
-0.0095130642
-0.0020342125
-0.0072837948
-0.0057754199
-0.0039437856
-0.0086475567
-1.2856381e-06
-0.010204396
0.0039413994
-0.010204871
0.0072819439
-0.0086489017
0.0095120828
-0.0057775377
0.010298457
-0.0020367284
0.0095250192
0.0020090422
0.0073002259
0.0057659641
0.0039547972
0.0086589513
0.010227735
-0.0051409505
0.015370866
-0.0094883529
0.013007741
-0.012372265
0.0086519193
-0.013371994
0.0030111321
-0.012356053
-0.0030501536
-0.0094680686
-0.0086634046
-0.0051300642
-0.012985561
-1.7432918e-06
-0.015332717
0.0051268174
-0.015333432
0.0094655315
-0.012987616
0.012354723
-0.0086667295
0.01337209
-0.0030540954
0.012373618
0.003007515
0.0094908152
0.0086487665
0.0051441859
0.013005581
0.015370188
-0.007706121
0.023079637
-0.014221019
0.01952264
-0.018534293
0.012965193
-0.020028863
0.0045057013
-0.018517545
-0.0045614711
-0.014196028
-0.012984922
-0.007691658
-0.019489931
-2.6339658e-06
-0.023021741
0.0076866654
-0.023022731
0.014192036
-0.019492986
0.018515523
-0.012990217
0.020029122
-0.0045676945
0.01853639
0.0045002477
0.014224758
0.012960398
0.0077110638
0.019519275
0.023078602
-0.011483202
0.034566788
-0.021197157
0.029236595
-0.027625091
0.019393127
-0.02985617
0.0067367809
-0.027628872
-0.006788769
-0.021211238
-0.019402557
-0.011504832
-0.029196336
-3.8629054e-06
-0.034522711
0.011497414
-0.034524008
0.021205213
-0.029200785
0.027625904
-0.019410907
0.029856652
-0.0067984431
0.027628187
0.0067287128
0.02120267
0.019385915
0.01149055
0.029231396
0.034565203
-0.015548619
0.050120641
-0.028774353
0.04246233
-0.037562232
0.028181006
-0.040625497
0.0098000454
-0.037566153
-0.0098481126
-0.028767
-0.028201709
-0.015530808
-0.042432529
-5.1765374e-06
-0.050048342
0.015520165
-0.05004935
0.028757732
-0.042438352
0.037562213
-0.028215388
0.040627331
-0.0098635613
0.037567201
0.0097888427
0.0287818
0.028171315
0.015558294
0.042454902
0.050118263
-0.0099846119
0.06010826
-0.018637302
0.05111502
-0.024497134
0.034040837
-0.026578796
0.011881708
-0.024552505
-0.011874403
-0.018712895
-0.03404132
-0.01004232
-0.051103104
-3.7076931e-06
-0.060086954
0.01003453
-0.060087588
0.018706032
-0.051109854
0.024550203
-0.034059559
0.026581272
-0.011894631
0.02450163
0.011868484
0.018642662
0.034030284
0.0099904571
0.051107106
0.060105712
0.00993387
0.050171444
0.018517195
0.042531695
0.02429694
0.028261092
0.026306388
0.0098722601
0.02424984
-0.0098178554
0.01844837
-0.02823985
0.009885068
-0.042539802
3.7319576e-06
-0.050205618
-0.0098772074
-0.050206648
-0.018441361
-0.0425457
-0.024247362
-0.028253558
-0.026308688
-0.0098333045
-0.024301264
0.0098610609
-0.018522402
0.028251422
-0.0099395772
0.042524282
0.050169081
0.015487584
0.034678694
0.028690993
0.029328285
0.037462382
0.019489703
0.040512407
0.0068222353
0.037457406
-0.0067628547
0.028692378
-0.019474822
0.015507062
-0.029354486
5.2165113e-06
-0.034703773
-0.01549635
-0.034705081
-0.02868306
-0.029358991
-0.037453408
-0.01948321
-0.040514162
-0.0067725514
-0.03746728
0.0068141797
-0.02869837
0.019482511
-0.015497155
0.029323066
0.034677093
0.011277359
0.023397495
0.020794242
0.019811402
0.027080618
0.013203328
0.029259135
0.0046437185
0.027070193
-0.004573913
0.020770176
-0.013174805
0.011254342
-0.019838652
3.7885585e-06
-0.02345322
-0.011247054
-0.023454239
-0.020764248
-0.019841796
-0.027067262
-0.013180196
-0.029259585
-0.0045802284
-0.027083599
0.0046381928
-0.020799566
0.013198479
-0.011284493
0.019807993
0.02339644
0.0076790677
0.015715799
0.01417618
0.013314289
0.018489958
0.0088895504
0.019994583
0.0031390935
0.018497226
-0.0030765561
0.014188749
-0.008866328
0.0076891248
-0.013339027
2.6433336e-06
-0.015766738
-0.0076841166
-0.015767479
-0.014184758
-0.013341154
-0.01849521
-0.0088697435
-0.019994845
-0.0030805942
-0.018492043
0.0031353915
-0.01417989
0.0088863254
-0.007683971
0.013312074
0.015715098
0.0045216939
0.011192612
0.0083447448
0.0094912382
0.010886122
0.0063481732
0.011778071
0.0022471444
0.010896368
-0.0021948528
0.0083566932
-0.0063266533
0.0045288399
-0.0095111742
1.5079919e-06
-0.011239406
-0.00452603
-0.011239941
-0.0083544939
-0.0095126905
-0.01089522
-0.0063290177
-0.011778161
-0.0021976525
-0.010887281
0.002244511
-0.0083468575
0.0063459021
-0.0045244818
0.0094896984
0.011192109
0.0039352046
0.0072561097
0.0072707321
0.0061557107
0.0094974464
0.0041214589
0.010281969
0.0014626213
0.0095088384
-0.0014217217
0.0072867742
-0.0041045892
0.0039470336
-0.0061714335
1.315931e-06
-0.0072936886
-0.0039445927
-0.0072940323
-0.0072848862
-0.006172397
-0.0095078424
-0.0041060615
-0.010282027
-0.0014234682
-0.009498463
0.0014609473
-0.0072725787
0.0041200177
-0.0039376201
0.0061547398
0.0072557865
0.0022613754
0.0049941494
0.004180204
0.0042368821
0.0054656581
0.0028360048
0.0059239473
0.0010043321
0.0054788611
-0.00097663545
0.0041984852
-0.0028242133
0.0022743309
-0.0042472792
5.7796574e-07
-0.0050199357
-0.0022732623
-0.0050201921
-0.0041976536
-0.0042480057
-0.0054784067
-0.0028253084
-0.0059239509
-0.00097792402
-0.0054660929
0.0010030892
-0.0041810235
0.0028349484
-0.0022624617
0.004236178
0.0049939098
0.0049915337
0.0092275957
0.012063069
0.013067235
0.012090778
0.0092671021
0.0050206365
1.6635844e-06
-0.0050175655
-0.0092647568
-0.012089527
-0.013067271
-0.012064346
-0.0092299292
-0.0049945707
)
;

boundaryField
{
    leftWall
    {
        type            cyclic;
        value           nonuniform List<scalar> 
16
(
-8.8483406e-07
-1.0009884e-06
-1.2768698e-06
-1.7328123e-06
-2.6497371e-06
-3.9490246e-06
-5.2340656e-06
-3.0075676e-06
2.945684e-06
5.1668802e-06
3.8404137e-06
2.6286556e-06
1.4928452e-06
1.2974907e-06
5.8496416e-07
1.6381865e-06
)
;
    }
    rightWall
    {
        type            cyclic;
        value           nonuniform List<scalar> 
16
(
8.8483406e-07
1.0009884e-06
1.2768698e-06
1.7328123e-06
2.6497371e-06
3.9490246e-06
5.2340656e-06
3.0075676e-06
-2.945684e-06
-5.1668802e-06
-3.8404137e-06
-2.6286556e-06
-1.4928452e-06
-1.2974907e-06
-5.8496416e-07
-1.6381865e-06
)
;
    }
    lowerWall
    {
        type            calculated;
        value           uniform 0;
    }
    atmosphere
    {
        type            calculated;
        value           nonuniform List<scalar> 
16
(
9.774995e-07
8.1998576e-07
5.3191317e-07
1.6611181e-07
-1.7927559e-07
-5.3695068e-07
-8.1356279e-07
-9.6277398e-07
-9.6304942e-07
-8.1434189e-07
-5.3806452e-07
-1.8048554e-07
1.6504428e-07
5.3110624e-07
8.1950171e-07
9.7734192e-07
)
;
    }
    defaultFaces
    {
        type            empty;
        value           nonuniform List<scalar> 0();
    }
}


// ************************************************************************* //
