/*--------------------------------*- C++ -*----------------------------------*\
| =========                 |                                                 |
| \\      /  F ield         | OpenFOAM: The Open Source CFD Toolbox           |
|  \\    /   O peration     | Version:  2106                                  |
|   \\  /    A nd           | Website:  www.openfoam.com                      |
|    \\/     M anipulation  |                                                 |
\*---------------------------------------------------------------------------*/
FoamFile
{
    version     2.0;
    format      ascii;
    arch        "LSB;label=32;scalar=64";
    class       surfaceScalarField;
    location    "0.034";
    object      phi_0;
}
// * * * * * * * * * * * * * * * * * * * * * * * * * * * * * * * * * * * * * //

dimensions      [0 3 -1 0 0 0 0];

oriented        oriented;

internalField   nonuniform List<scalar> 
32512
(
1.3793024e-05
-1.3793024e-05
2.755078e-05
-1.3757756e-05
4.1238103e-05
-1.3687323e-05
5.4820039e-05
-1.3581936e-05
6.8261943e-05
-1.3441904e-05
8.1529585e-05
-1.3267642e-05
9.4589248e-05
-1.3059663e-05
0.00010740783
-1.2818579e-05
0.00011995292
-1.2545096e-05
0.00013219294
-1.2240014e-05
0.00014409716
-1.190422e-05
0.00015563584
-1.1538688e-05
0.00016678032
-1.1144474e-05
0.00017750303
-1.0722711e-05
0.00018777763
-1.0274603e-05
0.00019757906
-9.8014248e-06
0.00020688357
-9.3045132e-06
0.00021566883
-8.7852632e-06
0.00022391396
-8.2451233e-06
0.00023159955
-7.6855894e-06
0.00023870775
-7.1081999e-06
0.00024522228
-6.5145302e-06
0.00025112846
-5.9061869e-06
0.00025641327
-5.2848029e-06
0.0002610653
-4.6520313e-06
0.00026507484
-4.0095405e-06
0.00026843385
-3.3590088e-06
0.00027113597
-2.7021189e-06
0.00027317652
-2.0405527e-06
0.00027455251
-1.375987e-06
0.00027526259
-7.1008838e-07
0.0002753071
-4.4505559e-08
0.00027468798
6.1911948e-07
0.00027340878
1.2792008e-06
0.00027147463
1.9341452e-06
0.00026889223
2.5824032e-06
0.00026566977
3.2224655e-06
0.00026181691
3.8528589e-06
0.00025734476
4.4721516e-06
0.0002522658
5.0789565e-06
0.00024659387
5.6719333e-06
0.00024034407
6.2497914e-06
0.00023353278
6.8112909e-06
0.00022617754
7.355245e-06
0.00021829702
7.8805212e-06
0.00020991097
8.386042e-06
0.00020104019
8.870786e-06
0.0001917064
9.3337888e-06
0.00018193226
9.7741426e-06
0.00017174126
1.0190997e-05
0.0001611577
1.0583559e-05
0.00015020661
1.0951091e-05
0.0001389137
1.1292914e-05
0.00012730529
1.1608403e-05
0.0001154083
1.1896991e-05
0.00010325014
1.2158162e-05
9.0858682e-05
1.2391458e-05
7.826221e-05
1.2596472e-05
6.5489362e-05
1.2772849e-05
5.2569074e-05
1.2920288e-05
3.9530536e-05
1.3038538e-05
2.6403135e-05
1.31274e-05
1.3216411e-05
1.3186724e-05
2.0619852e-13
1.3216411e-05
-1.3216411e-05
1.3216411e-05
-2.6403135e-05
1.3186724e-05
-3.9530535e-05
1.31274e-05
-5.2569073e-05
1.3038538e-05
-6.5489361e-05
1.2920288e-05
-7.826221e-05
1.2772849e-05
-9.0858682e-05
1.2596472e-05
-0.00010325014
1.2391458e-05
-0.0001154083
1.2158162e-05
-0.00012730529
1.1896991e-05
-0.0001389137
1.1608403e-05
-0.00015020661
1.1292914e-05
-0.0001611577
1.0951091e-05
-0.00017174126
1.0583559e-05
-0.00018193226
1.0190997e-05
-0.0001917064
9.7741426e-06
-0.00020104019
9.3337888e-06
-0.00020991097
8.870786e-06
-0.00021829702
8.386042e-06
-0.00022617754
7.8805212e-06
-0.00023353278
7.3552451e-06
-0.00024034407
6.8112909e-06
-0.00024659387
6.2497914e-06
-0.0002522658
5.6719334e-06
-0.00025734475
5.0789565e-06
-0.00026181691
4.4721517e-06
-0.00026566977
3.8528589e-06
-0.00026889223
3.2224655e-06
-0.00027147463
2.5824032e-06
-0.00027340878
1.9341452e-06
-0.00027468798
1.2792008e-06
-0.0002753071
6.1911951e-07
-0.00027526259
-4.4505537e-08
-0.00027455251
-7.1008836e-07
-0.00027317652
-1.375987e-06
-0.00027113597
-2.0405527e-06
-0.00026843385
-2.7021188e-06
-0.00026507484
-3.3590088e-06
-0.0002610653
-4.0095405e-06
-0.00025641327
-4.6520312e-06
-0.00025112846
-5.2848028e-06
-0.00024522228
-5.9061869e-06
-0.00023870775
-6.5145302e-06
-0.00023159955
-7.1081999e-06
-0.00022391396
-7.6855894e-06
-0.00021566883
-8.2451233e-06
-0.00020688357
-8.7852632e-06
-0.00019757906
-9.3045131e-06
-0.00018777763
-9.8014248e-06
-0.00017750303
-1.0274603e-05
-0.00016678032
-1.0722711e-05
-0.00015563585
-1.1144474e-05
-0.00014409716
-1.1538688e-05
-0.00013219294
-1.190422e-05
-0.00011995292
-1.2240014e-05
-0.00010740783
-1.2545096e-05
-9.4589249e-05
-1.2818579e-05
-8.1529585e-05
-1.3059663e-05
-6.8261943e-05
-1.3267642e-05
-5.4820039e-05
-1.3441904e-05
-4.1238103e-05
-1.3581936e-05
-2.755078e-05
-1.3687323e-05
-1.3793024e-05
-1.3757756e-05
-1.3793024e-05
1.3857142e-05
-2.7650166e-05
2.767885e-05
-2.7579464e-05
4.1429794e-05
-2.7438267e-05
5.5074854e-05
-2.7226996e-05
6.8579224e-05
-2.6946274e-05
8.1908511e-05
-2.659693e-05
9.5028842e-05
-2.6179994e-05
0.00010790695
-2.5696691e-05
0.0001205103
-2.5148439e-05
0.00013280712
-2.453684e-05
0.00014476658
-2.3863673e-05
0.00015635878
-2.3130893e-05
0.00016755492
-2.2340614e-05
0.00017832732
-2.1495106e-05
0.0001886495
-2.0596787e-05
0.00019849629
-1.9648211e-05
0.00020784383
-1.8652057e-05
0.00021666969
-1.7611123e-05
0.00022495288
-1.6528311e-05
0.00023267391
-1.5406623e-05
0.00023981485
-1.424914e-05
0.00024635934
-1.3059022e-05
0.00025229265
-1.1839489e-05
0.00025760166
-1.0593816e-05
0.00026227494
-9.3253156e-06
0.00026630274
-8.0373334e-06
0.00026967696
-6.7332336e-06
0.00027239123
-5.4163898e-06
0.00027444085
-4.0901742e-06
0.00027582281
-2.7579482e-06
0.00027653578
-1.4230522e-06
0.00027658007
-8.8796406e-08
0.00027595764
1.241547e-06
0.00027467208
2.5647639e-06
0.00027272854
3.8776824e-06
0.00027013375
5.1771971e-06
0.00026689593
6.4602778e-06
0.00026302482
7.7239709e-06
0.00025853157
8.9654062e-06
0.00025342872
1.0181803e-05
0.00024773018
1.1370475e-05
0.00024145114
1.2528834e-05
0.00023460803
1.3654396e-05
0.0002272185
1.4744781e-05
0.0002193013
1.579772e-05
0.00021087629
1.6811052e-05
0.00020196434
1.7782732e-05
0.00019258731
1.8710825e-05
0.00018276794
1.9593513e-05
0.00017252984
2.0429092e-05
0.00016189743
2.1215973e-05
0.00015089584
2.1952678e-05
0.00013955091
2.2637847e-05
0.00012788908
2.3270228e-05
0.00011593739
2.3848683e-05
0.00010372337
2.4372182e-05
9.1275025e-05
2.4839804e-05
7.8620761e-05
2.5250735e-05
6.5789344e-05
2.5604266e-05
5.280984e-05
2.5899792e-05
3.9711565e-05
2.6136813e-05
2.6524039e-05
2.6314927e-05
1.3276928e-05
2.6433835e-05
2.0638739e-13
2.6493339e-05
-1.3276928e-05
2.6493339e-05
-2.6524038e-05
2.6433835e-05
-3.9711565e-05
2.6314927e-05
-5.2809839e-05
2.6136813e-05
-6.5789344e-05
2.5899792e-05
-7.8620761e-05
2.5604266e-05
-9.1275024e-05
2.5250735e-05
-0.00010372337
2.4839804e-05
-0.00011593739
2.4372182e-05
-0.00012788908
2.3848683e-05
-0.00013955091
2.3270228e-05
-0.00015089584
2.2637847e-05
-0.00016189743
2.1952678e-05
-0.00017252984
2.1215973e-05
-0.00018276793
2.0429092e-05
-0.00019258731
1.9593513e-05
-0.00020196434
1.8710825e-05
-0.00021087629
1.7782732e-05
-0.0002193013
1.6811052e-05
-0.0002272185
1.579772e-05
-0.00023460803
1.4744781e-05
-0.00024145114
1.3654396e-05
-0.00024773018
1.2528834e-05
-0.00025342872
1.1370475e-05
-0.00025853157
1.0181803e-05
-0.00026302482
8.9654063e-06
-0.00026689593
7.7239709e-06
-0.00027013375
6.4602779e-06
-0.00027272854
5.1771972e-06
-0.00027467208
3.8776824e-06
-0.00027595764
2.564764e-06
-0.00027658007
1.2415471e-06
-0.00027653578
-8.8796361e-08
-0.00027582281
-1.4230522e-06
-0.00027444085
-2.7579482e-06
-0.00027239123
-4.0901742e-06
-0.00026967696
-5.4163897e-06
-0.00026630274
-6.7332336e-06
-0.00026227494
-8.0373334e-06
-0.00025760166
-9.3253156e-06
-0.00025229265
-1.0593816e-05
-0.00024635934
-1.1839489e-05
-0.00023981485
-1.3059022e-05
-0.00023267391
-1.424914e-05
-0.00022495288
-1.5406623e-05
-0.00021666969
-1.6528311e-05
-0.00020784383
-1.7611123e-05
-0.00019849629
-1.8652057e-05
-0.0001886495
-1.9648211e-05
-0.00017832732
-2.0596787e-05
-0.00016755492
-2.1495106e-05
-0.00015635878
-2.2340614e-05
-0.00014476658
-2.3130893e-05
-0.00013280712
-2.3863673e-05
-0.0001205103
-2.453684e-05
-0.00010790695
-2.5148439e-05
-9.5028842e-05
-2.5696691e-05
-8.1908512e-05
-2.6179994e-05
-6.8579224e-05
-2.659693e-05
-5.5074855e-05
-2.6946274e-05
-4.1429795e-05
-2.7226996e-05
-2.767885e-05
-2.7438267e-05
-1.3857143e-05
-2.7579464e-05
-2.7650166e-05
1.3967331e-05
-4.1617498e-05
2.7898949e-05
-4.1511082e-05
4.1759246e-05
-4.1298564e-05
5.5512825e-05
-4.0980575e-05
6.9124606e-05
-4.0558054e-05
8.2559925e-05
-4.0032249e-05
9.5784642e-05
-3.940471e-05
0.00010876523
-3.867728e-05
0.00012146889
-3.7852093e-05
0.00013386361
-3.693156e-05
0.00014591829
-3.5918361e-05
0.00015760283
-3.4815433e-05
0.00016888818
-3.3625962e-05
0.00017974644
-3.2353364e-05
0.00019015093
-3.1001276e-05
0.00020007626
-2.9573542e-05
0.0002094984
-2.8074196e-05
0.00021839472
-2.6507446e-05
0.00022674407
-2.4877664e-05
0.00023452681
-2.3189362e-05
0.00024172486
-2.1447183e-05
0.00024832171
-1.9655879e-05
0.00025430252
-1.7820299e-05
0.00025965407
-1.5945369e-05
0.00026436484
-1.4036078e-05
0.00026842496
-1.209746e-05
0.00027182631
-1.013458e-05
0.00027456243
-8.1525143e-06
0.0002766286
-6.1563403e-06
0.00027802177
-4.1511171e-06
0.00027874059
-2.1418729e-06
0.00027878538
-1.3359046e-07
0.00027815812
1.8688075e-06
0.00027686241
3.8604728e-06
0.00027490346
5.8366366e-06
0.00027228803
7.7926264e-06
0.00026902443
9.7238788e-06
0.00026512245
1.1625947e-05
0.00026059335
1.349451e-05
0.00025544977
1.5325382e-05
0.00024970573
1.7114519e-05
0.00024337654
1.8858025e-05
0.00023647877
2.0552161e-05
0.00022903021
2.2193344e-05
0.00022104977
2.3778159e-05
0.00021255747
2.5303355e-05
0.00020357435
2.6765851e-05
0.00019412243
2.8162738e-05
0.00018422467
2.949128e-05
0.00017390485
3.074891e-05
0.00016318758
3.1933238e-05
0.00015209822
3.3042043e-05
0.00014066279
3.4073276e-05
0.00012890796
3.5025055e-05
0.00011686098
3.5895667e-05
0.0001045496
3.6683563e-05
9.2002042e-05
3.7387359e-05
7.9246948e-05
3.800583e-05
6.6313305e-05
3.8537909e-05
5.323041e-05
3.8982687e-05
4.0027811e-05
3.9339411e-05
2.6735259e-05
3.9607478e-05
1.3382655e-05
3.9786439e-05
2.0660966e-13
3.9875994e-05
-1.3382655e-05
3.9875994e-05
-2.6735259e-05
3.9786439e-05
-4.0027811e-05
3.9607478e-05
-5.3230409e-05
3.9339411e-05
-6.6313304e-05
3.8982687e-05
-7.9246947e-05
3.8537909e-05
-9.2002042e-05
3.800583e-05
-0.0001045496
3.7387359e-05
-0.00011686098
3.6683563e-05
-0.00012890796
3.5895667e-05
-0.00014066279
3.5025055e-05
-0.00015209822
3.4073276e-05
-0.00016318758
3.3042043e-05
-0.00017390485
3.1933238e-05
-0.00018422467
3.074891e-05
-0.00019412243
2.949128e-05
-0.00020357435
2.8162738e-05
-0.00021255747
2.6765851e-05
-0.00022104977
2.5303355e-05
-0.00022903021
2.3778159e-05
-0.00023647877
2.2193344e-05
-0.00024337654
2.0552161e-05
-0.00024970573
1.8858025e-05
-0.00025544977
1.7114519e-05
-0.00026059335
1.5325382e-05
-0.00026512245
1.349451e-05
-0.00026902443
1.1625947e-05
-0.00027228803
9.7238788e-06
-0.00027490346
7.7926265e-06
-0.00027686241
5.8366366e-06
-0.00027815812
3.8604729e-06
-0.00027878538
1.8688076e-06
-0.00027874059
-1.3359039e-07
-0.00027802177
-2.1418728e-06
-0.0002766286
-4.151117e-06
-0.00027456243
-6.1563402e-06
-0.00027182631
-8.1525143e-06
-0.00026842496
-1.013458e-05
-0.00026436484
-1.209746e-05
-0.00025965407
-1.4036078e-05
-0.00025430252
-1.5945369e-05
-0.00024832171
-1.7820299e-05
-0.00024172486
-1.9655879e-05
-0.00023452681
-2.1447182e-05
-0.00022674407
-2.3189362e-05
-0.00021839472
-2.4877664e-05
-0.0002094984
-2.6507446e-05
-0.00020007626
-2.8074195e-05
-0.00019015093
-2.9573542e-05
-0.00017974644
-3.1001276e-05
-0.00016888818
-3.2353364e-05
-0.00015760283
-3.3625962e-05
-0.00014591829
-3.4815433e-05
-0.00013386361
-3.5918361e-05
-0.00012146889
-3.693156e-05
-0.00010876523
-3.7852093e-05
-9.5784642e-05
-3.867728e-05
-8.2559926e-05
-3.940471e-05
-6.9124606e-05
-4.0032249e-05
-5.5512826e-05
-4.0558054e-05
-4.1759246e-05
-4.0980575e-05
-2.7898949e-05
-4.1298564e-05
-1.3967332e-05
-4.1511082e-05
-4.1617498e-05
1.4123446e-05
-5.5740944e-05
2.8210787e-05
-5.5598423e-05
4.2226025e-05
-5.5313802e-05
5.6133375e-05
-5.4887925e-05
6.9897371e-05
-5.432205e-05
8.348297e-05
-5.3617848e-05
9.6855654e-05
-5.2777394e-05
0.00010998153
-5.1803156e-05
0.00012282743
-5.0697992e-05
0.000135361
-4.9465129e-05
0.00014755079
-4.8108156e-05
0.00015936637
-4.6631007e-05
0.00017077835
-4.5037946e-05
0.00018175853
-4.3333547e-05
0.00019227994
-4.1522683e-05
0.0002023169
-3.9610498e-05
0.00021184509
-3.7602393e-05
0.00022084165
-3.5504007e-05
0.00022928518
-3.332119e-05
0.0002371558
-3.1059986e-05
0.00024443523
-2.8726612e-05
0.00025110679
-2.6327432e-05
0.00025715543
-2.3868939e-05
0.00026256779
-2.135773e-05
0.0002673322
-1.8800488e-05
0.00027143869
-1.6203953e-05
0.00027487902
-1.3574909e-05
0.00027764666
-1.0920157e-05
0.00027973682
-8.2464954e-06
0.0002811464
-5.5607021e-06
0.00028187404
-2.869512e-06
0.00028192005
-1.7959949e-07
0.00028128642
2.5024408e-06
0.00027997678
5.170111e-06
0.00027799639
7.8170245e-06
0.0002753521
1.0436923e-05
0.00027205228
1.3023691e-05
0.00026810686
1.5571372e-05
0.00026352719
1.8074176e-05
0.00025832608
2.0526496e-05
0.00025251768
2.2922912e-05
0.0002461175
2.5258208e-05
0.00023914229
2.752737e-05
0.00023161003
2.9725603e-05
0.00022353986
3.1848329e-05
0.00021495203
3.3891193e-05
0.00020586781
3.5850071e-05
0.00019630948
3.7721063e-05
0.00018630025
3.9500506e-05
0.0001758642
4.1184964e-05
0.0001650262
4.2771235e-05
0.0001538119
4.4256344e-05
0.00014224763
4.5637549e-05
0.00013036035
4.6912329e-05
0.00011817763
4.8078393e-05
0.00010572753
4.9133666e-05
9.3038589e-05
5.0076295e-05
8.0139779e-05
5.090464e-05
6.7060412e-05
5.1617276e-05
5.3830115e-05
5.2212984e-05
4.0478769e-05
5.2690757e-05
2.703646e-05
5.3049787e-05
1.3533425e-05
5.3289475e-05
2.0678819e-13
5.3409418e-05
-1.3533424e-05
5.3409418e-05
-2.703646e-05
5.3289475e-05
-4.0478769e-05
5.3049787e-05
-5.3830114e-05
5.2690757e-05
-6.7060411e-05
5.2212984e-05
-8.0139778e-05
5.1617276e-05
-9.3038589e-05
5.090464e-05
-0.00010572752
5.0076295e-05
-0.00011817763
4.9133666e-05
-0.00013036035
4.8078393e-05
-0.00014224763
4.6912329e-05
-0.0001538119
4.5637549e-05
-0.0001650262
4.4256344e-05
-0.0001758642
4.2771235e-05
-0.00018630025
4.1184964e-05
-0.00019630948
3.9500506e-05
-0.00020586781
3.7721064e-05
-0.00021495202
3.5850071e-05
-0.00022353986
3.3891194e-05
-0.00023161003
3.1848329e-05
-0.00023914229
2.9725603e-05
-0.0002461175
2.752737e-05
-0.00025251768
2.5258208e-05
-0.00025832608
2.2922912e-05
-0.00026352719
2.0526496e-05
-0.00026810686
1.8074176e-05
-0.00027205228
1.5571372e-05
-0.0002753521
1.3023691e-05
-0.00027799639
1.0436923e-05
-0.00027997678
7.8170246e-06
-0.00028128642
5.1701111e-06
-0.00028192005
2.5024408e-06
-0.00028187404
-1.7959941e-07
-0.0002811464
-2.869512e-06
-0.00027973682
-5.560702e-06
-0.00027764666
-8.2464954e-06
-0.00027487902
-1.0920157e-05
-0.00027143869
-1.3574909e-05
-0.0002673322
-1.6203953e-05
-0.00026256779
-1.8800488e-05
-0.00025715543
-2.135773e-05
-0.00025110679
-2.3868939e-05
-0.00024443523
-2.6327432e-05
-0.0002371558
-2.8726612e-05
-0.00022928518
-3.1059986e-05
-0.00022084165
-3.332119e-05
-0.00021184509
-3.5504007e-05
-0.0002023169
-3.7602393e-05
-0.00019227994
-3.9610498e-05
-0.00018175853
-4.1522683e-05
-0.00017077835
-4.3333547e-05
-0.00015936637
-4.5037946e-05
-0.00014755079
-4.6631007e-05
-0.000135361
-4.8108156e-05
-0.00012282743
-4.9465129e-05
-0.00010998153
-5.0697992e-05
-9.6855654e-05
-5.1803156e-05
-8.348297e-05
-5.2777394e-05
-6.9897371e-05
-5.3617848e-05
-5.6133375e-05
-5.432205e-05
-4.2226025e-05
-5.4887925e-05
-2.8210787e-05
-5.5313802e-05
-1.4123446e-05
-5.5598423e-05
-5.5740944e-05
1.432562e-05
-7.0066565e-05
2.8614632e-05
-6.9887434e-05
4.2830533e-05
-6.9529703e-05
5.6937038e-05
-6.8994431e-05
7.0898186e-05
-6.8283198e-05
8.4678442e-05
-6.7398104e-05
9.8242804e-05
-6.6341756e-05
0.0001115569
-6.5117256e-05
0.0001245871
-6.3728193e-05
0.0001373006
-6.2178623e-05
0.0001496655
-6.0473054e-05
0.00016165092
-5.8616429e-05
0.00017322708
-5.6614106e-05
0.00018436536
-5.4471833e-05
0.00019503841
-5.2195729e-05
0.00020522017
-4.9792261e-05
0.00021488599
-4.7268215e-05
0.00022401266
-4.4630673e-05
0.00023257846
-4.1886989e-05
0.00024056323
-3.9044758e-05
0.00024794841
-3.6111791e-05
0.00025471707
-3.3096085e-05
0.00026085393
-3.0005801e-05
0.00026634543
-2.684923e-05
0.00027117971
-2.3634768e-05
0.00027534664
-2.0370891e-05
0.00027883786
-1.7066122e-05
0.00028164671
-1.3729012e-05
0.00028376832
-1.0368107e-05
0.00028519955
-6.9919269e-06
0.00028593898
-3.6089386e-06
0.00028598691
-2.2753341e-07
0.00028534535
3.1439967e-06
0.00028401798
6.4974807e-06
0.00028201012
9.8248885e-06
0.00027932869
1.3118351e-05
0.0002759822
1.6370179e-05
0.0002719807
1.957288e-05
0.0002673357
2.2719175e-05
0.00026206018
2.5802011e-05
0.00025616852
2.8814574e-05
0.00024967643
3.1750301e-05
0.0002426009
3.4602892e-05
0.00023496019
3.7366313e-05
0.00022677371
4.003481e-05
0.000218062
4.2602906e-05
0.00020884666
4.5065415e-05
0.00019915028
4.7417437e-05
0.00018899642
4.9654364e-05
0.00017840951
5.1771878e-05
0.00016741479
5.3765953e-05
0.00015603829
5.5632852e-05
0.00014430671
5.7369127e-05
0.00013224742
5.8971612e-05
0.00011988839
6.0437427e-05
0.00010725809
6.1763966e-05
9.4385487e-05
6.2948899e-05
8.1299958e-05
6.3990169e-05
6.8031252e-05
6.4885982e-05
5.4609424e-05
6.5634812e-05
4.1064792e-05
6.6235389e-05
2.7427876e-05
6.6686703e-05
1.3729353e-05
6.6987998e-05
2.067875e-13
6.7138771e-05
-1.3729352e-05
6.7138771e-05
-2.7427876e-05
6.6987998e-05
-4.1064791e-05
6.6686703e-05
-5.4609424e-05
6.6235389e-05
-6.8031251e-05
6.5634812e-05
-8.1299958e-05
6.4885982e-05
-9.4385486e-05
6.3990169e-05
-0.00010725809
6.2948899e-05
-0.00011988839
6.1763966e-05
-0.00013224742
6.0437427e-05
-0.00014430671
5.8971613e-05
-0.00015603828
5.7369127e-05
-0.00016741479
5.5632852e-05
-0.00017840951
5.3765953e-05
-0.00018899642
5.1771878e-05
-0.00019915028
4.9654364e-05
-0.00020884666
4.7417437e-05
-0.000218062
4.5065415e-05
-0.00022677371
4.2602906e-05
-0.00023496019
4.003481e-05
-0.0002426009
3.7366314e-05
-0.00024967643
3.4602892e-05
-0.00025616852
3.1750301e-05
-0.00026206018
2.8814574e-05
-0.0002673357
2.5802011e-05
-0.0002719807
2.2719175e-05
-0.0002759822
1.957288e-05
-0.00027932869
1.6370179e-05
-0.00028201012
1.3118351e-05
-0.00028401798
9.8248886e-06
-0.00028534535
6.4974808e-06
-0.00028598691
3.1439968e-06
-0.00028593898
-2.2753331e-07
-0.00028519955
-3.6089385e-06
-0.00028376832
-6.9919268e-06
-0.00028164671
-1.0368107e-05
-0.00027883786
-1.3729012e-05
-0.00027534664
-1.7066122e-05
-0.00027117971
-2.037089e-05
-0.00026634543
-2.3634768e-05
-0.00026085393
-2.6849229e-05
-0.00025471707
-3.0005801e-05
-0.00024794841
-3.3096085e-05
-0.00024056323
-3.611179e-05
-0.00023257846
-3.9044758e-05
-0.00022401266
-4.1886989e-05
-0.00021488599
-4.4630673e-05
-0.00020522017
-4.7268214e-05
-0.00019503841
-4.9792261e-05
-0.00018436536
-5.2195729e-05
-0.00017322708
-5.4471833e-05
-0.00016165092
-5.6614106e-05
-0.0001496655
-5.8616429e-05
-0.0001373006
-6.0473054e-05
-0.00012458711
-6.2178623e-05
-0.0001115569
-6.3728193e-05
-9.8242804e-05
-6.5117256e-05
-8.4678442e-05
-6.6341756e-05
-7.0898186e-05
-6.7398104e-05
-5.6937039e-05
-6.8283198e-05
-4.2830533e-05
-6.8994431e-05
-2.8614632e-05
-6.9529703e-05
-1.4325621e-05
-6.9887434e-05
-7.0066565e-05
1.4574282e-05
-8.4640847e-05
2.9111338e-05
-8.4424489e-05
4.3574048e-05
-8.3992414e-05
5.7925516e-05
-8.3345898e-05
7.212917e-05
-8.2486852e-05
8.6148874e-05
-8.1417809e-05
9.9949035e-05
-8.0141916e-05
0.0001134947
-7.866292e-05
0.00012675166
-7.6985151e-05
0.00013968654
-7.5113506e-05
0.00015226691
-7.3053428e-05
0.00016446137
-7.0810885e-05
0.00017623961
-6.8392343e-05
0.00018757252
-6.5804743e-05
0.00019843226
-6.3055472e-05
0.00020879234
-6.0152337e-05
0.00021862765
-5.7103531e-05
0.00022791459
-5.3917607e-05
0.00023663104
-5.060344e-05
0.00024475648
-4.7170203e-05
0.00025227202
-4.3627326e-05
0.0002591604
-3.9984468e-05
0.00026540608
-3.6251481e-05
0.00027099523
-3.2438381e-05
0.00027591577
-2.8555307e-05
0.00028015737
-2.4612495e-05
0.0002837115
-2.0620243e-05
0.00028657136
-1.6588877e-05
0.00028873197
-1.2528722e-05
0.00029019012
-8.450071e-06
0.00029094433
-4.3631543e-06
0.00029099491
-2.781109e-07
0.00029034387
3.7950392e-06
0.00028899493
7.8464216e-06
0.00028695349
1.1866332e-05
0.00028422658
1.584526e-05
0.00028082284
1.9773913e-05
0.00027675249
2.3643235e-05
0.00027202723
2.7444428e-05
0.00026666028
3.1168965e-05
0.00026066624
3.4808613e-05
0.0002540611
3.8355438e-05
0.00024686217
4.1801824e-05
0.00023908801
4.514048e-05
0.00023075837
4.8364449e-05
0.00022189416
5.1467115e-05
0.00021251736
5.4442208e-05
0.00020265099
5.7283809e-05
0.00019231901
5.9986348e-05
0.00018154628
6.254461e-05
0.0001703585
6.4953731e-05
0.00015878215
6.7209196e-05
0.00014684444
6.930684e-05
0.00013457321
7.1242841e-05
0.00012199692
7.3013718e-05
0.00010914456
7.4616327e-05
9.6045604e-05
7.6047855e-05
8.2729955e-05
7.7305817e-05
6.9227889e-05
7.8388049e-05
5.5569993e-05
7.9292707e-05
4.1787122e-05
8.001826e-05
2.7910337e-05
8.0563488e-05
1.3970856e-05
8.0927479e-05
2.0647354e-13
8.1109626e-05
-1.3970855e-05
8.1109626e-05
-2.7910336e-05
8.0927479e-05
-4.1787122e-05
8.0563488e-05
-5.5569993e-05
8.001826e-05
-6.9227888e-05
7.9292707e-05
-8.2729955e-05
7.8388049e-05
-9.6045603e-05
7.7305817e-05
-0.00010914456
7.6047855e-05
-0.00012199692
7.4616327e-05
-0.00013457321
7.3013718e-05
-0.00014684444
7.1242841e-05
-0.00015878215
6.930684e-05
-0.0001703585
6.7209196e-05
-0.00018154628
6.4953731e-05
-0.00019231901
6.254461e-05
-0.00020265099
5.9986348e-05
-0.00021251736
5.7283809e-05
-0.00022189416
5.4442208e-05
-0.00023075837
5.1467115e-05
-0.000239088
4.8364449e-05
-0.00024686217
4.514048e-05
-0.0002540611
4.1801824e-05
-0.00026066624
3.8355438e-05
-0.00026666028
3.4808613e-05
-0.00027202723
3.1168966e-05
-0.00027675249
2.7444428e-05
-0.00028082284
2.3643235e-05
-0.00028422658
1.9773913e-05
-0.00028695349
1.584526e-05
-0.00028899493
1.1866332e-05
-0.00029034387
7.8464217e-06
-0.00029099491
3.7950394e-06
-0.00029094433
-2.7811078e-07
-0.00029019012
-4.3631542e-06
-0.00028873197
-8.4500708e-06
-0.00028657136
-1.2528722e-05
-0.0002837115
-1.6588877e-05
-0.00028015737
-2.0620243e-05
-0.00027591577
-2.4612495e-05
-0.00027099523
-2.8555307e-05
-0.00026540608
-3.2438381e-05
-0.0002591604
-3.6251481e-05
-0.00025227202
-3.9984467e-05
-0.00024475648
-4.3627325e-05
-0.00023663104
-4.7170203e-05
-0.00022791459
-5.060344e-05
-0.00021862765
-5.3917607e-05
-0.00020879234
-5.7103531e-05
-0.00019843226
-6.0152337e-05
-0.00018757252
-6.3055472e-05
-0.00017623961
-6.5804743e-05
-0.00016446137
-6.8392343e-05
-0.00015226691
-7.0810885e-05
-0.00013968654
-7.3053428e-05
-0.00012675166
-7.5113506e-05
-0.0001134947
-7.698515e-05
-9.9949035e-05
-7.866292e-05
-8.6148875e-05
-8.0141916e-05
-7.212917e-05
-8.1417809e-05
-5.7925516e-05
-8.2486852e-05
-4.3574049e-05
-8.3345898e-05
-2.9111338e-05
-8.3992414e-05
-1.4574283e-05
-8.4424489e-05
-8.4640847e-05
1.4870158e-05
-9.9511005e-05
2.9702355e-05
-9.9256687e-05
4.4458743e-05
-9.8748802e-05
5.9101696e-05
-9.7988851e-05
7.3593922e-05
-9.6979078e-05
8.7898572e-05
-9.5722458e-05
0.00010197934
-9.4222689e-05
0.00011580059
-9.248417e-05
0.00012932743
-9.051199e-05
0.00014252583
-8.8311901e-05
0.0001553627
-8.5890296e-05
0.000167806
-8.3254185e-05
0.00017982482
-8.0411164e-05
0.00019138946
-7.7369389e-05
0.00020247153
-7.4137536e-05
0.00021304397
-7.0724776e-05
0.00022308117
-6.7140737e-05
0.00023255903
-6.3395464e-05
0.00024145498
-5.9499387e-05
0.00024974806
-5.5463283e-05
0.00025741896
-5.1298234e-05
0.00026445009
-4.7015588e-05
0.00027082553
-4.2626926e-05
0.00027653116
-3.8144015e-05
0.00028155463
-3.3578775e-05
0.00028588537
-2.8943237e-05
0.00028951463
-2.4249505e-05
0.00029243548
-1.950972e-05
0.00029464278
-1.4736021e-05
0.00029613322
-9.9405109e-06
0.00029690528
-5.1352196e-06
0.00029695924
-3.320706e-07
0.00029629713
4.4571512e-06
0.00029492272
9.2208312e-06
0.0002928415
1.3947554e-05
0.00029006062
1.8626134e-05
0.0002865889
2.3245637e-05
0.00028243672
2.779541e-05
0.00027761605
3.2265101e-05
0.00027214034
3.664468e-05
0.00026602449
4.0924458e-05
0.00025928483
4.5095101e-05
0.000251939
4.9147648e-05
0.00024400596
5.3073522e-05
0.00023550587
5.6864538e-05
0.00022646007
6.0512913e-05
0.00021689101
6.4011273e-05
0.00020682217
6.7352653e-05
0.00019627801
7.0530504e-05
0.00018528393
7.3538692e-05
0.00017386616
7.6371498e-05
0.00016205174
7.9023615e-05
0.00014986844
8.1490144e-05
0.00013734468
8.3766594e-05
0.00012450953
8.5848873e-05
0.00011139257
8.7733286e-05
9.8023897e-05
8.9416528e-05
8.4434036e-05
9.0895678e-05
7.0653889e-05
9.2168196e-05
5.6714683e-05
9.3231913e-05
4.2647911e-05
9.4085032e-05
2.8485279e-05
9.4726121e-05
1.4258652e-05
9.5154107e-05
2.0585046e-13
9.5368278e-05
-1.4258651e-05
9.5368278e-05
-2.8485278e-05
9.5154107e-05
-4.2647911e-05
9.4726121e-05
-5.6714683e-05
9.4085032e-05
-7.0653889e-05
9.3231913e-05
-8.4434035e-05
9.2168196e-05
-9.8023897e-05
9.0895679e-05
-0.00011139257
8.9416528e-05
-0.00012450953
8.7733286e-05
-0.00013734468
8.5848873e-05
-0.00014986844
8.3766594e-05
-0.00016205174
8.1490144e-05
-0.00017386616
7.9023615e-05
-0.00018528393
7.6371498e-05
-0.00019627801
7.3538692e-05
-0.00020682217
7.0530504e-05
-0.00021689101
6.7352653e-05
-0.00022646007
6.4011273e-05
-0.00023550587
6.0512913e-05
-0.00024400596
5.6864538e-05
-0.000251939
5.3073522e-05
-0.00025928483
4.9147648e-05
-0.00026602449
4.5095101e-05
-0.00027214034
4.0924458e-05
-0.00027761605
3.6644681e-05
-0.00028243672
3.2265102e-05
-0.0002865889
2.779541e-05
-0.00029006062
2.3245637e-05
-0.0002928415
1.8626134e-05
-0.00029492272
1.3947555e-05
-0.00029629713
9.2208313e-06
-0.00029695924
4.4571513e-06
-0.00029690528
-3.3207046e-07
-0.00029613322
-5.1352194e-06
-0.00029464278
-9.9405108e-06
-0.00029243548
-1.4736021e-05
-0.00028951463
-1.9509719e-05
-0.00028588537
-2.4249505e-05
-0.00028155463
-2.8943237e-05
-0.00027653116
-3.3578775e-05
-0.00027082553
-3.8144015e-05
-0.00026445009
-4.2626926e-05
-0.00025741896
-4.7015588e-05
-0.00024974806
-5.1298234e-05
-0.00024145498
-5.5463283e-05
-0.00023255903
-5.9499387e-05
-0.00022308117
-6.3395463e-05
-0.00021304397
-6.7140736e-05
-0.00020247153
-7.0724776e-05
-0.00019138946
-7.4137536e-05
-0.00017982482
-7.7369388e-05
-0.000167806
-8.0411164e-05
-0.0001553627
-8.3254185e-05
-0.00014252583
-8.5890295e-05
-0.00012932743
-8.83119e-05
-0.0001158006
-9.051199e-05
-0.00010197934
-9.248417e-05
-8.7898572e-05
-9.4222689e-05
-7.3593923e-05
-9.5722458e-05
-5.9101697e-05
-9.6979078e-05
-4.4458744e-05
-9.7988851e-05
-2.9702356e-05
-9.8748802e-05
-1.4870158e-05
-9.9256687e-05
-9.9511005e-05
1.5214284e-05
-0.00011472529
3.0389757e-05
-0.00011443216
4.5487721e-05
-0.00011384677
6.0469708e-05
-0.00011297084
7.5297587e-05
-0.00011180696
8.993368e-05
-0.00011035855
0.00010434087
-0.00010862988
0.00011848271
-0.00010662601
0.00013232351
-0.0001043528
0.00014582848
-0.00010181687
0.00015896377
-9.902559e-05
0.00017169662
-9.5987032e-05
0.0001839954
-9.2709945e-05
0.00019582973
-8.920372e-05
0.00020717055
-8.5478352e-05
0.00021799018
-8.1544404e-05
0.00022826241
-7.7412964e-05
0.00023796255
-7.3095606e-05
0.0002470675
-6.8604344e-05
0.00025555581
-6.3951591e-05
0.0002634077
-5.9150117e-05
0.0002706051
-5.4212997e-05
0.00027713175
-4.9153575e-05
0.00028297315
-4.398541e-05
0.00028811661
-3.8722241e-05
0.00029255131
-3.3377934e-05
0.00029626825
-2.796644e-05
0.00029926028
-2.2501757e-05
0.00030152214
-1.6997881e-05
0.0003030504
-1.1468764e-05
0.00030384346
-5.9282811e-06
0.00030390157
-3.9018245e-07
0.00030322678
5.131939e-06
0.00030182293
1.0624686e-05
0.00029969559
1.607489e-05
0.00029685208
2.1469645e-05
0.00029330138
2.6796337e-05
0.00028905412
3.2042674e-05
0.00028412251
3.7196711e-05
0.00027852031
4.2246875e-05
0.00027226279
4.7181984e-05
0.00026536662
5.1991268e-05
0.00025784988
5.6664389e-05
0.00024973196
6.1191447e-05
0.00024103349
6.5563e-05
0.00023177634
6.9770067e-05
0.00022198347
7.3804141e-05
0.00021167894
7.7657189e-05
0.00020088778
8.1321656e-05
0.00018963601
8.4790468e-05
0.00017795048
8.8057029e-05
0.00016585887
9.111522e-05
0.00015338962
9.3959394e-05
0.00014057184
9.6584372e-05
0.00012743528
9.898544e-05
0.00011401022
0.00010115834
0.00010032749
0.00010309926
8.6418334e-05
0.00010480484
7.2314385e-05
0.00010627214
5.8047612e-05
0.00010749869
4.3650255e-05
0.00010848239
2.9154769e-05
0.00010922161
1.4593775e-05
0.0001097151
2.0497095e-13
0.00010996205
-1.4593775e-05
0.00010996205
-2.9154769e-05
0.0001097151
-4.3650254e-05
0.00010922161
-5.8047612e-05
0.00010848239
-7.2314385e-05
0.00010749869
-8.6418334e-05
0.00010627214
-0.00010032749
0.00010480484
-0.00011401022
0.00010309926
-0.00012743528
0.00010115834
-0.00014057184
9.898544e-05
-0.00015338962
9.6584372e-05
-0.00016585887
9.3959394e-05
-0.00017795048
9.111522e-05
-0.00018963601
8.8057029e-05
-0.00020088778
8.4790468e-05
-0.00021167893
8.1321656e-05
-0.00022198347
7.7657189e-05
-0.00023177634
7.3804141e-05
-0.00024103349
6.9770067e-05
-0.00024973196
6.5563e-05
-0.00025784988
6.1191447e-05
-0.00026536662
5.6664389e-05
-0.00027226279
5.1991269e-05
-0.00027852031
4.7181984e-05
-0.00028412251
4.2246875e-05
-0.00028905412
3.7196712e-05
-0.00029330138
3.2042674e-05
-0.00029685208
2.6796337e-05
-0.00029969559
2.1469645e-05
-0.00030182293
1.607489e-05
-0.00030322678
1.0624686e-05
-0.00030390157
5.1319391e-06
-0.00030384346
-3.9018229e-07
-0.0003030504
-5.9282809e-06
-0.00030152214
-1.1468764e-05
-0.00029926028
-1.699788e-05
-0.00029626825
-2.2501757e-05
-0.00029255131
-2.796644e-05
-0.00028811661
-3.3377933e-05
-0.00028297315
-3.8722241e-05
-0.00027713175
-4.398541e-05
-0.0002706051
-4.9153574e-05
-0.0002634077
-5.4212997e-05
-0.00025555581
-5.9150117e-05
-0.0002470675
-6.3951591e-05
-0.00023796255
-6.8604343e-05
-0.00022826241
-7.3095606e-05
-0.00021799018
-7.7412964e-05
-0.00020717055
-8.1544404e-05
-0.00019582973
-8.5478352e-05
-0.0001839954
-8.920372e-05
-0.00017169662
-9.2709945e-05
-0.00015896377
-9.5987032e-05
-0.00014582848
-9.9025589e-05