/*--------------------------------*- C++ -*----------------------------------*\
| =========                 |                                                 |
| \\      /  F ield         | OpenFOAM: The Open Source CFD Toolbox           |
|  \\    /   O peration     | Version:  2106                                  |
|   \\  /    A nd           | Website:  www.openfoam.com                      |
|    \\/     M anipulation  |                                                 |
\*---------------------------------------------------------------------------*/
FoamFile
{
    version     2.0;
    format      ascii;
    arch        "LSB;label=32;scalar=64";
    class       volVectorField;
    location    "0.034";
    object      U_0;
}
// * * * * * * * * * * * * * * * * * * * * * * * * * * * * * * * * * * * * * //

dimensions      [0 1 -1 0 0 0 0];

internalField   nonuniform List<vector> 
16384
(
(0.00088332592 -0.00088213892 0)
(0.0026477189 -0.00087988332 0)
(0.0044053421 -0.0008753788 0)
(0.0061517043 -0.0008686387 0)
(0.0078823479 -0.00085968294 0)
(0.0095928617 -0.00084853797 0)
(0.011278894 -0.00083523663 0)
(0.012936165 -0.00081981803 0)
(0.014560479 -0.00080232734 0)
(0.016147738 -0.0007828157 0)
(0.01769395 -0.00076133991 0)
(0.019195245 -0.00073796223 0)
(0.02064788 -0.00071275018 0)
(0.022048255 -0.00068577617 0)
(0.023392918 -0.00065711731 0)
(0.024678577 -0.00062685507 0)
(0.025902106 -0.00059507494 0)
(0.027060554 -0.00056186616 0)
(0.028151153 -0.00052732136 0)
(0.029171324 -0.00049153621 0)
(0.030118682 -0.00045460911 0)
(0.03099104 -0.0004166408 0)
(0.031786417 -0.00037773404 0)
(0.032503038 -0.00033799325 0)
(0.033139339 -0.00029752417 0)
(0.033693969 -0.0002564335 0)
(0.034165791 -0.00021482856 0)
(0.034553883 -0.00017281697 0)
(0.03485754 -0.00013050631 0)
(0.03507627 -8.8003798e-05 0)
(0.035209797 -4.5415951e-05 0)
(0.035258054 -2.847937e-06 0)
(0.035221192 3.9593345e-05 0)
(0.03509956 8.180932e-05 0)
(0.034893714 0.0001236968 0)
(0.034604414 0.00016515648 0)
(0.034232614 0.00020609198 0)
(0.033779457 0.00024640913 0)
(0.033246274 0.00028601635 0)
(0.032634576 0.00032482494 0)
(0.03194605 0.00036274919 0)
(0.031182549 0.00039970654 0)
(0.030346089 0.00043561771 0)
(0.029438843 0.00047040679 0)
(0.02846313 0.00050400134 0)
(0.027421412 0.00053633245 0)
(0.026316284 0.00056733481 0)
(0.02515047 0.00059694672 0)
(0.023926813 0.00062511013 0)
(0.022648268 0.00065177063 0)
(0.021317894 0.00067687749 0)
(0.019938852 0.0007003836 0)
(0.01851439 0.00072224545 0)
(0.01704784 0.00074242312 0)
(0.015542612 0.00076088026 0)
(0.014002183 0.00077758397 0)
(0.012430094 0.00079250485 0)
(0.010829941 0.00080561689 0)
(0.0092053679 0.00081689745 0)
(0.0075600617 0.00082632722 0)
(0.005897744 0.00083389017 0)
(0.0042221655 0.00083957353 0)
(0.0025370989 0.00084336773 0)
(0.00084633325 0.00084526642 0)
(-0.0008463332 0.00084526642 0)
(-0.0025370989 0.00084336773 0)
(-0.0042221654 0.00083957353 0)
(-0.005897744 0.00083389017 0)
(-0.0075600616 0.00082632722 0)
(-0.0092053678 0.00081689745 0)
(-0.010829941 0.00080561689 0)
(-0.012430094 0.00079250485 0)
(-0.014002183 0.00077758397 0)
(-0.015542612 0.00076088026 0)
(-0.01704784 0.00074242312 0)
(-0.01851439 0.00072224545 0)
(-0.019938852 0.0007003836 0)
(-0.021317894 0.00067687749 0)
(-0.022648268 0.00065177063 0)
(-0.023926813 0.00062511013 0)
(-0.02515047 0.00059694672 0)
(-0.026316284 0.00056733481 0)
(-0.027421412 0.00053633245 0)
(-0.02846313 0.00050400134 0)
(-0.029438843 0.00047040679 0)
(-0.030346089 0.00043561771 0)
(-0.031182549 0.00039970654 0)
(-0.03194605 0.00036274919 0)
(-0.032634576 0.00032482494 0)
(-0.033246274 0.00028601635 0)
(-0.033779457 0.00024640913 0)
(-0.034232614 0.00020609199 0)
(-0.034604414 0.00016515649 0)
(-0.034893714 0.00012369681 0)
(-0.03509956 8.1809321e-05 0)
(-0.035221192 3.9593347e-05 0)
(-0.035258054 -2.8479356e-06 0)
(-0.035209797 -4.5415949e-05 0)
(-0.03507627 -8.8003797e-05 0)
(-0.03485754 -0.00013050631 0)
(-0.034553883 -0.00017281697 0)
(-0.034165791 -0.00021482856 0)
(-0.033693969 -0.00025643349 0)
(-0.033139339 -0.00029752417 0)
(-0.032503038 -0.00033799325 0)
(-0.031786417 -0.00037773403 0)
(-0.03099104 -0.00041664079 0)
(-0.030118682 -0.00045460911 0)
(-0.029171324 -0.00049153621 0)
(-0.028151153 -0.00052732136 0)
(-0.027060554 -0.00056186616 0)
(-0.025902106 -0.00059507494 0)
(-0.024678577 -0.00062685507 0)
(-0.023392918 -0.00065711731 0)
(-0.022048255 -0.00068577617 0)
(-0.02064788 -0.00071275018 0)
(-0.019195245 -0.00073796223 0)
(-0.01769395 -0.00076133991 0)
(-0.016147738 -0.0007828157 0)
(-0.014560479 -0.00080232734 0)
(-0.012936165 -0.00081981802 0)
(-0.011278894 -0.00083523663 0)
(-0.0095928618 -0.00084853797 0)
(-0.0078823479 -0.00085968294 0)
(-0.0061517043 -0.0008686387 0)
(-0.0044053421 -0.0008753788 0)
(-0.002647719 -0.00087988332 0)
(-0.00088332597 -0.00088213892 0)
(0.00088743153 -0.0026495002 0)
(0.0026600251 -0.0026427253 0)
(0.004425817 -0.0026291957 0)
(0.0061802949 -0.0026089513 0)
(0.0079189802 -0.0025820521 0)
(0.0096374411 -0.0025485774 0)
(0.011331305 -0.0025086259 0)
(0.012996273 -0.0024623151 0)
(0.014628128 -0.0024097807 0)
(0.016222754 -0.0023511763 0)
(0.017776141 -0.0022866725 0)
(0.019284399 -0.0022164563 0)
(0.020743769 -0.0021407304 0)
(0.022150634 -0.0020597125 0)
(0.023501525 -0.0019736342 0)
(0.024793135 -0.0018827401 0)
(0.026022323 -0.001787287 0)
(0.027186125 -0.001687543 0)
(0.028281761 -0.0015837863 0)
(0.029306639 -0.0014763043 0)
(0.030258362 -0.0013653925 0)
(0.031134735 -0.0012513535 0)
(0.031933766 -0.001134496 0)
(0.032653673 -0.0010151337 0)
(0.033292885 -0.00089358399 0)
(0.033850044 -0.00077016753 0)
(0.034324009 -0.00064520664 0)
(0.034713853 -0.00051902456 0)
(0.035018869 -0.00039194443 0)
(0.035238561 -0.00026428831 0)
(0.035372654 -0.00013637634 0)
(0.035421082 -8.5257894e-06 0)
(0.035383993 0.00011895019 0)
(0.035261741 0.00024574363 0)
(0.035054887 0.00037155033 0)
(0.034764192 0.0004960727 0)
(0.034390615 0.00061902053 0)
(0.033935306 0.00074011083 0)
(0.033399602 0.00085906858 0)
(0.032785024 0.00097562735 0)
(0.032093263 0.0010895297 0)
(0.031326185 0.0012005277 0)
(0.030485816 0.0013083833 0)
(0.029574337 0.0014128684 0)
(0.028594079 0.0015137655 0)
(0.027547518 0.0016108678 0)
(0.026437259 0.001703979 0)
(0.025266041 0.0017929138 0)
(0.024036719 0.001877498 0)
(0.022752261 0.0019575682 0)
(0.021415745 0.002032972 0)
(0.020030341 0.0021035681 0)
(0.018599315 0.0021692257 0)
(0.017126014 0.0022298251 0)
(0.015613863 0.002285257 0)
(0.014066356 0.0023354228 0)
(0.012487048 0.0023802342 0)
(0.010879553 0.002419613 0)
(0.0092475301 0.0024534914 0)
(0.0075946827 0.0024818113 0)
(0.0059247492 0.0025045247 0)
(0.0042414965 0.0025215932 0)
(0.0025487142 0.002532988 0)
(0.00085020778 0.0025386903 0)
(-0.00085020773 0.0025386903 0)
(-0.0025487141 0.002532988 0)
(-0.0042414964 0.0025215932 0)
(-0.0059247491 0.0025045247 0)
(-0.0075946827 0.0024818113 0)
(-0.00924753 0.0024534914 0)
(-0.010879553 0.002419613 0)
(-0.012487048 0.0023802342 0)
(-0.014066356 0.0023354228 0)
(-0.015613863 0.002285257 0)
(-0.017126014 0.0022298251 0)
(-0.018599315 0.0021692257 0)
(-0.020030341 0.0021035681 0)
(-0.021415745 0.002032972 0)
(-0.022752261 0.0019575682 0)
(-0.024036719 0.001877498 0)
(-0.025266041 0.0017929138 0)
(-0.026437259 0.001703979 0)
(-0.027547517 0.0016108678 0)
(-0.028594079 0.0015137655 0)
(-0.029574337 0.0014128684 0)
(-0.030485816 0.0013083833 0)
(-0.031326185 0.0012005277 0)
(-0.032093263 0.0010895297 0)
(-0.032785024 0.00097562735 0)
(-0.033399602 0.00085906859 0)
(-0.033935306 0.00074011083 0)
(-0.034390615 0.00061902053 0)
(-0.034764192 0.0004960727 0)
(-0.035054887 0.00037155033 0)
(-0.035261741 0.00024574364 0)
(-0.035383993 0.0001189502 0)
(-0.035421082 -8.5257852e-06 0)
(-0.035372654 -0.00013637633 0)
(-0.035238561 -0.00026428831 0)
(-0.035018869 -0.00039194443 0)
(-0.034713853 -0.00051902456 0)
(-0.034324009 -0.00064520663 0)
(-0.033850044 -0.00077016752 0)
(-0.033292885 -0.00089358399 0)
(-0.032653673 -0.0010151337 0)
(-0.031933766 -0.001134496 0)
(-0.031134735 -0.0012513535 0)
(-0.030258362 -0.0013653925 0)
(-0.029306639 -0.0014763043 0)
(-0.028281761 -0.0015837863 0)
(-0.027186125 -0.001687543 0)
(-0.026022323 -0.001787287 0)
(-0.024793135 -0.0018827401 0)
(-0.023501525 -0.0019736342 0)
(-0.022150634 -0.0020597125 0)
(-0.020743769 -0.0021407304 0)
(-0.019284399 -0.0022164563 0)
(-0.017776141 -0.0022866725 0)
(-0.016222754 -0.0023511763 0)
(-0.014628128 -0.0024097807 0)
(-0.012996273 -0.0024623151 0)
(-0.011331305 -0.0025086259 0)
(-0.0096374411 -0.0025485774 0)
(-0.0079189803 -0.0025820521 0)
(-0.0061802949 -0.0026089513 0)
(-0.004425817 -0.0026291957 0)
(-0.0026600252 -0.0026427253 0)
(-0.00088743158 -0.0026495002 0)
(0.00089448812 -0.00442879 0)
(0.0026811771 -0.0044174653 0)
(0.0044610107 -0.0043948495 0)
(0.0062294413 -0.0043610095 0)
(0.0079819549 -0.0043160453 0)
(0.0097140848 -0.0042600899 0)
(0.011421424 -0.004193308 0)
(0.013099639 -0.004115896 0)
(0.014744482 -0.0040280808 0)
(0.016351801 -0.0039301191 0)
(0.017917555 -0.0038222961 0)
(0.019437825 -0.0037049245 0)
(0.020908822 -0.0035783431 0)
(0.022326898 -0.0034429157 0)
(0.023688558 -0.0032990294 0)
(0.024990469 -0.0031470931 0)
(0.026229464 -0.0029875362 0)
(0.027402556 -0.0028208067 0)
(0.028506941 -0.0026473697 0)
(0.029540008 -0.0024677055 0)
(0.030499339 -0.0022823081 0)
(0.031382722 -0.0020916834 0)
(0.032188148 -0.0018963473 0)
(0.032913822 -0.0016968241 0)
(0.033558158 -0.0014936447 0)
(0.034119787 -0.0012873448 0)
(0.034597559 -0.0010784634 0)
(0.034990539 -0.00086754068 0)
(0.035298013 -0.00065511697 0)
(0.035519483 -0.00044173061 0)
(0.035654668 -0.00022791666 0)
(0.035703503 -1.4205352e-05 0)
(0.035666136 0.0001988795 0)
(0.035542924 0.00041082229 0)
(0.035334432 0.00062111538 0)
(0.035041428 0.00082926152 0)
(0.034664878 0.0010347752 0)
(0.03420594 0.0012371833 0)
(0.033665964 0.0014360261 0)
(0.033046481 0.0016308581 0)
(0.032349198 0.0018212491 0)
(0.031575994 0.0020067847 0)
(0.030728912 0.0021870666 0)
(0.029810152 0.0023617141 0)
(0.028822065 0.0025303633 0)
(0.027767143 0.0026926686 0)
(0.026648018 0.0028483019 0)
(0.025467446 0.0029969538 0)
(0.024228308 0.0031383329 0)
(0.022933597 0.0032721664 0)
(0.021586413 0.0033981995 0)
(0.020189955 0.003516196 0)
(0.018747512 0.0036259377 0)
(0.017262461 0.0037272245 0)
(0.015738252 0.0038198738 0)
(0.014178407 0.0039037208 0)
(0.012586512 0.0039786182 0)
(0.010966207 0.0040444354 0)
(0.0093211807 0.004101059 0)
(0.0076551665 0.0041483922 0)
(0.0059719318 0.0041863547 0)
(0.0042752732 0.0042148824 0)
(0.0025690102 0.0042339274 0)
(0.00085697812 0.0042434579 0)
(-0.00085697806 0.0042434579 0)
(-0.0025690101 0.0042339274 0)
(-0.0042752732 0.0042148824 0)
(-0.0059719317 0.0041863547 0)
(-0.0076551665 0.0041483922 0)
(-0.0093211807 0.004101059 0)
(-0.010966207 0.0040444354 0)
(-0.012586512 0.0039786182 0)
(-0.014178407 0.0039037208 0)
(-0.015738252 0.0038198738 0)
(-0.017262461 0.0037272245 0)
(-0.018747512 0.0036259377 0)
(-0.020189955 0.003516196 0)
(-0.021586413 0.0033981995 0)
(-0.022933597 0.0032721664 0)
(-0.024228308 0.003138333 0)
(-0.025467446 0.0029969538 0)
(-0.026648018 0.0028483019 0)
(-0.027767143 0.0026926686 0)
(-0.028822065 0.0025303633 0)
(-0.029810152 0.0023617141 0)
(-0.030728912 0.0021870666 0)
(-0.031575994 0.0020067847 0)
(-0.032349198 0.0018212492 0)
(-0.033046481 0.0016308581 0)
(-0.033665964 0.0014360261 0)
(-0.03420594 0.0012371833 0)
(-0.034664878 0.0010347752 0)
(-0.035041428 0.00082926153 0)
(-0.035334432 0.00062111538 0)
(-0.035542924 0.0004108223 0)
(-0.035666136 0.00019887951 0)
(-0.035703503 -1.4205345e-05 0)
(-0.035654668 -0.00022791665 0)
(-0.035519483 -0.0004417306 0)
(-0.035298013 -0.00065511696 0)
(-0.034990539 -0.00086754068 0)
(-0.034597559 -0.0010784633 0)
(-0.034119787 -0.0012873448 0)
(-0.033558158 -0.0014936447 0)
(-0.032913822 -0.0016968241 0)
(-0.032188148 -0.0018963473 0)
(-0.031382722 -0.0020916834 0)
(-0.030499339 -0.0022823081 0)
(-0.029540008 -0.0024677055 0)
(-0.028506941 -0.0026473697 0)
(-0.027402556 -0.0028208067 0)
(-0.026229464 -0.0029875362 0)
(-0.024990469 -0.0031470931 0)
(-0.023688558 -0.0032990294 0)
(-0.022326898 -0.0034429157 0)
(-0.020908822 -0.0035783431 0)
(-0.019437826 -0.0037049245 0)
(-0.017917556 -0.0038222961 0)
(-0.016351801 -0.0039301191 0)
(-0.014744482 -0.0040280808 0)
(-0.013099639 -0.004115896 0)
(-0.011421424 -0.004193308 0)
(-0.0097140849 -0.0042600899 0)
(-0.007981955 -0.0043160453 0)
(-0.0062294413 -0.0043610095 0)
(-0.0044610107 -0.0043948495 0)
(-0.0026811771 -0.0044174653 0)
(-0.00089448818 -0.00442879 0)
(0.00090448579 -0.0062251585 0)
(0.002711145 -0.0062092409 0)
(0.0045108737 -0.006177453 0)
(0.0062990743 -0.0061298888 0)
(0.0080711835 -0.0060666889 0)
(0.0098226852 -0.0059880399 0)
(0.011549124 -0.0058941736 0)
(0.013246119 -0.005785366 0)
(0.014909375 -0.0056619358 0)
(0.016534696 -0.0055242439 0)
(0.018117995 -0.005372691 0)
(0.019655308 -0.0052077167 0)
(0.021142806 -0.005029797 0)
(0.0225768 -0.0048394432 0)
(0.023953755 -0.0046371994 0)
(0.025270301 -0.0044236402 0)
(0.026523237 -0.004199369 0)
(0.02770954 -0.0039650156 0)
(0.028826375 -0.0037212334 0)
(0.0298711 -0.0034686976 0)
(0.030841271 -0.0032081026 0)
(0.031734649 -0.0029401591 0)
(0.032549203 -0.0026655925 0)
(0.033283114 -0.0023851395 0)
(0.03393478 -0.0020995464 0)
(0.034502814 -0.0018095663 0)
(0.034986051 -0.0015159565 0)
(0.035383546 -0.0012194767 0)
(0.035694574 -0.00092088615 0)
(0.03591863 -0.00062094169 0)
(0.036055431 -0.00032039548 0)
(0.036104908 -1.9992836e-05 0)
(0.03606721 0.00027952983 0)
(0.035942697 0.00057744709 0)
(0.035731941 0.00087304568 0)
(0.035435715 0.0011656267 0)
(0.035054996 0.0014545075 0)
(0.034590956 0.0017390228 0)
(0.034044959 0.0020185262 0)
(0.033418553 0.0022923916 0)
(0.032713464 0.0025600139 0)
(0.031931592 0.0028208105 0)
(0.031075004 0.0030742218 0)
(0.030145925 0.0033197122 0)
(0.029146731 0.0035567705 0)
(0.028079945 0.0037849106 0)
(0.026948226 0.0040036716 0)
(0.025754366 0.0042126184 0)
(0.024501275 0.0044113416 0)
(0.023191983 0.0045994576 0)
(0.021829624 0.0047766087 0)
(0.020417433 0.0049424627 0)
(0.018958739 0.0050967133 0)
(0.017456955 0.005239079 0)
(0.015915572 0.0053693036 0)
(0.014338151 0.0054871555 0)
(0.012728319 0.0055924277 0)
(0.011089757 0.0056849369 0)
(0.0094261963 0.0057645239 0)
(0.0077414113 0.0058310526 0)
(0.0060392123 0.0058844102 0)
(0.0043234386 0.0059245069 0)
(0.0025979526 0.0059512752 0)
(0.00086663279 0.0059646706 0)
(-0.00086663274 0.0059646706 0)
(-0.0025979526 0.0059512752 0)
(-0.0043234386 0.0059245069 0)
(-0.0060392122 0.0058844102 0)
(-0.0077414113 0.0058310526 0)
(-0.0094261963 0.0057645239 0)
(-0.011089757 0.0056849369 0)
(-0.012728319 0.0055924277 0)
(-0.014338151 0.0054871555 0)
(-0.015915572 0.0053693036 0)
(-0.017456955 0.005239079 0)
(-0.018958739 0.0050967133 0)
(-0.020417433 0.0049424628 0)
(-0.021829624 0.0047766087 0)
(-0.023191983 0.0045994576 0)
(-0.024501275 0.0044113416 0)
(-0.025754366 0.0042126184 0)
(-0.026948226 0.0040036716 0)
(-0.028079945 0.0037849106 0)
(-0.029146731 0.0035567705 0)
(-0.030145925 0.0033197122 0)
(-0.031075004 0.0030742218 0)
(-0.031931592 0.0028208105 0)
(-0.032713464 0.0025600139 0)
(-0.033418553 0.0022923916 0)
(-0.034044959 0.0020185262 0)
(-0.034590956 0.0017390228 0)
(-0.035054996 0.0014545075 0)
(-0.035435715 0.0011656267 0)
(-0.035731941 0.00087304569 0)
(-0.035942697 0.0005774471 0)
(-0.03606721 0.00027952984 0)
(-0.036104908 -1.9992826e-05 0)
(-0.036055431 -0.00032039547 0)
(-0.03591863 -0.00062094168 0)
(-0.035694574 -0.00092088614 0)
(-0.035383546 -0.0012194767 0)
(-0.034986051 -0.0015159565 0)
(-0.034502814 -0.0018095663 0)
(-0.03393478 -0.0020995464 0)
(-0.033283114 -0.0023851395 0)
(-0.032549203 -0.0026655925 0)
(-0.031734649 -0.0029401591 0)
(-0.030841271 -0.0032081026 0)
(-0.0298711 -0.0034686976 0)
(-0.028826375 -0.0037212334 0)
(-0.02770954 -0.0039650156 0)
(-0.026523237 -0.004199369 0)
(-0.025270301 -0.0044236402 0)
(-0.023953755 -0.0046371994 0)
(-0.0225768 -0.0048394432 0)
(-0.021142806 -0.005029797 0)
(-0.019655308 -0.0052077166 0)
(-0.018117995 -0.005372691 0)
(-0.016534696 -0.0055242439 0)
(-0.014909375 -0.0056619358 0)
(-0.01324612 -0.0057853659 0)
(-0.011549124 -0.0058941736 0)
(-0.0098226853 -0.0059880399 0)
(-0.0080711835 -0.0060666889 0)
(-0.0062990744 -0.0061298888 0)
(-0.0045108737 -0.006177453 0)
(-0.002711145 -0.0062092409 0)
(-0.00090448584 -0.0062251585 0)
(0.00091743311 -0.0080444102 0)
(0.0027499546 -0.0080238426 0)
(0.0045754488 -0.0079827683 0)
(0.006389254 -0.0079213088 0)
(0.0081867427 -0.0078396458 0)
(0.009963336 -0.0077380204 0)
(0.011714516 -0.0076167319 0)
(0.01343584 -0.0074761367 0)
(0.015122953 -0.0073166468 0)
(0.016771598 -0.0071387282 0)
(0.018377633 -0.0069428986 0)
(0.019937037 -0.0067297257 0)
(0.021445925 -0.0064998247 0)
(0.022900558 -0.0062538558 0)
(0.024297349 -0.0059925219 0)
(0.02563288 -0.0057165654 0)
(0.026903902 -0.0054267657 0)
(0.02810735 -0.0051239363 0)
(0.029240347 -0.0048089216 0)
(0.030300212 -0.0044825937 0)
(0.031284466 -0.0041458495 0)
(0.032190834 -0.0037996077 0)
(0.033017255 -0.003444805 0)
(0.033761884 -0.0030823937 0)
(0.034423091 -0.0027133377 0)
(0.03499947 -0.0023386102 0)
(0.035489836 -0.0019591901 0)
(0.035893228 -0.0015760587 0)
(0.036208909 -0.0011901974 0)
(0.036436366 -0.0008025842 0)
(0.036575307 -0.00041419126 0)
(0.036625661 -2.5981832e-05 0)
(0.036587578 0.00036109224 0)
(0.036461422 0.00074609305 0)
(0.03624777 0.0011280988 0)
(0.035947406 0.0015062062 0)
(0.035561319 0.0018795327 0)
(0.035090698 0.0022472183 0)
(0.034536925 0.0026084275 0)
(0.03390157 0.0029623507 0)
(0.033186383 0.003308206 0)
(0.032393292 0.00364524 0)
(0.031524394 0.0039727294 0)
(0.030581945 0.004289982 0)
(0.029568357 0.0045963368 0)
(0.028486189 0.0048911657 0)
(0.02733814 0.005173873 0)
(0.026127042 0.0054438963 0)
(0.024855849 0.0057007065 0)
(0.023527633 0.0059438081 0)
(0.022145577 0.0061727388 0)
(0.020712962 0.0063870695 0)
(0.019233167 0.0065864042 0)
(0.017709654 0.0067703796 0)
(0.016145965 0.0069386646 0)
(0.014545715 0.0070909603 0)
(0.012912582 0.007226999 0)
(0.011250302 0.0073465443 0)
(0.0095626594 0.0074493905 0)
(0.0078534847 0.0075353618 0)
(0.0061266432 0.0076043128 0)
(0.0043860302 0.0076561272 0)
(0.002635564 0.0076907183 0)
(0.00087917932 0.0077080283 0)
(-0.00087917927 0.0077080283 0)
(-0.0026355639 0.0076907183 0)
(-0.0043860302 0.0076561272 0)
(-0.0061266432 0.0076043128 0)
(-0.0078534847 0.0075353618 0)
(-0.0095626593 0.0074493905 0)
(-0.011250302 0.0073465443 0)
(-0.012912582 0.007226999 0)
(-0.014545715 0.0070909603 0)
(-0.016145965 0.0069386646 0)
(-0.017709654 0.0067703796 0)
(-0.019233167 0.0065864042 0)
(-0.020712962 0.0063870695 0)
(-0.022145577 0.0061727388 0)
(-0.023527633 0.0059438081 0)
(-0.024855849 0.0057007065 0)
(-0.026127042 0.0054438963 0)
(-0.02733814 0.005173873 0)
(-0.028486189 0.0048911657 0)
(-0.029568357 0.0045963368 0)
(-0.030581945 0.004289982 0)
(-0.031524394 0.0039727294 0)
(-0.032393292 0.00364524 0)
(-0.033186383 0.003308206 0)
(-0.03390157 0.0029623508 0)
(-0.034536925 0.0026084275 0)
(-0.035090698 0.0022472183 0)
(-0.035561319 0.0018795327 0)
(-0.035947406 0.0015062062 0)
(-0.03624777 0.0011280988 0)
(-0.036461422 0.00074609306 0)
(-0.036587578 0.00036109225 0)
(-0.036625661 -2.598182e-05 0)
(-0.036575307 -0.00041419125 0)
(-0.036436366 -0.00080258419 0)
(-0.036208909 -0.0011901973 0)
(-0.035893228 -0.0015760587 0)
(-0.035489836 -0.00195919 0)
(-0.03499947 -0.0023386102 0)
(-0.034423091 -0.0027133377 0)
(-0.033761884 -0.0030823936 0)
(-0.033017255 -0.003444805 0)
(-0.032190834 -0.0037996077 0)
(-0.031284466 -0.0041458495 0)
(-0.030300213 -0.0044825937 0)
(-0.029240347 -0.0048089216 0)
(-0.02810735 -0.0051239363 0)
(-0.026903902 -0.0054267657 0)
(-0.02563288 -0.0057165653 0)
(-0.024297349 -0.0059925219 0)
(-0.022900558 -0.0062538558 0)
(-0.021445925 -0.0064998247 0)
(-0.019937037 -0.0067297257 0)
(-0.018377633 -0.0069428986 0)
(-0.016771598 -0.0071387282 0)
(-0.015122953 -0.0073166468 0)
(-0.01343584 -0.0074761367 0)
(-0.011714516 -0.0076167319 0)
(-0.009963336 -0.0077380204 0)
(-0.0081867428 -0.0078396458 0)
(-0.006389254 -0.0079213088 0)
(-0.0045754489 -0.0079827683 0)
(-0.0027499547 -0.0080238426 0)
(-0.00091743316 -0.0080444102 0)
(0.00093335746 -0.0098924902 0)
(0.0027976881 -0.0098672007 0)
(0.0046548728 -0.0098166967 0)
(0.006500171 -0.0097411274 0)
(0.0083288773 -0.0096407161 0)
(0.010136335 -0.0095157592 0)
(0.01191795 -0.0093666245 0)
(0.013669204 -0.0091937501 0)
(0.015385667 -0.0089976424 0)
(0.017063012 -0.0087788739 0)
(0.018697023 -0.0085380811 0)
(0.020283613 -0.0082759617 0)
(0.021818829 -0.0079932717 0)
(0.023298866 -0.0076908227 0)
(0.024720077 -0.0073694785 0)
(0.026078982 -0.0070301517 0)
(0.027372278 -0.0066738003 0)
(0.028596843 -0.0063014242 0)
(0.029749752 -0.0059140612 0)
(0.030828273 -0.0055127834 0)
(0.031829882 -0.0050986935 0)
(0.032752266 -0.0046729207 0)
(0.033593323 -0.0042366166 0)
(0.034351173 -0.003790952 0)
(0.035024158 -0.0033371121 0)
(0.035610842 -0.0028762934 0)
(0.036110018 -0.0024096995 0)
(0.036520705 -0.0019385374 0)
(0.03684215 -0.0014640138 0)
(0.037073827 -0.00098733162 0)
(0.037215438 -0.0005096864 0)
(0.037266909 -3.2262981e-05 0)
(0.037228387 0.00044376776 0)
(0.037100241 0.00091725198 0)
(0.036883056 0.0013870558 0)
(0.036577628 0.0018520679 0)
(0.036184962 0.0023112026 0)
(0.035706266 0.0027634019 0)
(0.035142943 0.0032076376 0)
(0.034496592 0.0036429138 0)
(0.033768992 0.0040682683 0)
(0.032962106 0.0044827743 0)
(0.032078064 0.004885542 0)
(0.031119165 0.0052757195 0)
(0.030087862 0.0056524939 0)
(0.02898676 0.0060150923 0)
(0.027818606 0.006362782 0)
(0.026586282 0.0066948712 0)
(0.025292795 0.0070107093 0)
(0.023941273 0.0073096867 0)
(0.022534953 0.0075912349 0)
(0.021077178 0.0078548263 0)
(0.019571385 0.0080999741 0)
(0.018021099 0.0083262315 0)
(0.016429925 0.0085331917 0)
(0.014801542 0.008720487 0)
(0.013139694 0.0088877887 0)
(0.011448182 0.0090348061 0)
(0.0097308601 0.0091612863 0)
(0.0079916247 0.0092670136 0)
(0.0062344102 0.009351809 0)
(0.0044631808 0.00941553 0)
(0.0026819241 0.0094580697 0)
(0.0008946443 0.0094793573 0)
(-0.00089464425 0.0094793573 0)
(-0.002681924 0.0094580697 0)
(-0.0044631807 0.00941553 0)
(-0.0062344102 0.009351809 0)
(-0.0079916247 0.0092670136 0)
(-0.00973086 0.0091612863 0)
(-0.011448182 0.0090348061 0)
(-0.013139694 0.0088877887 0)
(-0.014801542 0.008720487 0)
(-0.016429925 0.0085331917 0)
(-0.018021099 0.0083262315 0)
(-0.019571385 0.0080999741 0)
(-0.021077178 0.0078548263 0)
(-0.022534953 0.0075912349 0)
(-0.023941273 0.0073096867 0)
(-0.025292795 0.0070107093 0)
(-0.026586282 0.0066948713 0)
(-0.027818606 0.006362782 0)
(-0.02898676 0.0060150923 0)
(-0.030087862 0.005652494 0)
(-0.031119165 0.0052757195 0)
(-0.032078064 0.004885542 0)
(-0.032962106 0.0044827744 0)
(-0.033768992 0.0040682683 0)
(-0.034496592 0.0036429138 0)
(-0.035142943 0.0032076376 0)
(-0.035706266 0.0027634019 0)
(-0.036184962 0.0023112026 0)
(-0.036577628 0.0018520679 0)
(-0.036883056 0.0013870558 0)
(-0.037100241 0.000917252 0)
(-0.037228387 0.00044376777 0)
(-0.037266909 -3.2262967e-05 0)
(-0.037215438 -0.00050968638 0)
(-0.037073827 -0.0009873316 0)
(-0.03684215 -0.0014640138 0)
(-0.036520705 -0.0019385374 0)
(-0.036110018 -0.0024096995 0)
(-0.035610842 -0.0028762934 0)
(-0.035024158 -0.0033371121 0)
(-0.034351173 -0.0037909519 0)
(-0.033593323 -0.0042366166 0)
(-0.032752266 -0.0046729207 0)
(-0.031829882 -0.0050986935 0)
(-0.030828273 -0.0055127834 0)
(-0.029749752 -0.0059140612 0)
(-0.028596843 -0.0063014242 0)
(-0.027372278 -0.0066738003 0)
(-0.026078982 -0.0070301517 0)
(-0.024720077 -0.0073694785 0)
(-0.023298866 -0.0076908227 0)
(-0.021818829 -0.0079932717 0)
(-0.020283613 -0.0082759616 0)
(-0.018697023 -0.0085380811 0)
(-0.017063012 -0.0087788739 0)
(-0.015385667 -0.0089976424 0)
(-0.013669204 -0.0091937501 0)
(-0.01191795 -0.0093666245 0)
(-0.010136335 -0.0095157592 0)
(-0.0083288773 -0.0096407161 0)
(-0.006500171 -0.0097411274 0)
(-0.0046548728 -0.0098166967 0)
(-0.0027976881 -0.0098672007 0)
(-0.00093335751 -0.0098924902 0)
(0.00095230532 -0.011775394 0)
(0.0028544847 -0.011745297 0)
(0.0047493774 -0.01168519 0)
(0.0066321495 -0.011595253 0)
(0.0084980026 -0.01147575 0)
(0.010342188 -0.011327034 0)
(0.012160021 -0.011149542 0)
(0.013946894 -0.010943796 0)
(0.015698289 -0.010710398 0)
(0.017409792 -0.010450029 0)
(0.019077105 -0.010163446 0)
(0.020696056 -0.0098514791 0)
(0.022262615 -0.0095150269 0)
(0.023772899 -0.0091550553 0)
(0.025223188 -0.0087725916 0)
(0.02660993 -0.0083687215 0)
(0.027929754 -0.0079445846 0)
(0.029179475 -0.0075013702 0)
(0.030356104 -0.0070403132 0)
(0.031456856 -0.0065626889 0)
(0.03247915 -0.0060698092 0)
(0.033420624 -0.0055630177 0)
(0.034279132 -0.0050436848 0)
(0.035052751 -0.0045132034 0)
(0.035739786 -0.0039729842 0)
(0.03633877 -0.003424451 0)
(0.036848465 -0.0028690364 0)
(0.037267869 -0.002308177 0)
(0.037596208 -0.0017433092 0)
(0.037832942 -0.0011758652 0)
(0.037977764 -0.00060726816 0)
(0.038030593 -3.8928933e-05 0)
(0.037991579 0.00052775829 0)
(0.037861092 0.0010914195 0)
(0.037639728 0.0016507043 0)
(0.037328296 0.0022042894 0)
(0.036927819 0.0027508815 0)
(0.036439528 0.0032892206 0)
(0.035864854 0.003818082 0)
(0.035205426 0.0043362795 0)
(0.03446306 0.0048426669 0)
(0.033639758 0.0053361405 0)
(0.032737693 0.0058156401 0)
(0.031759212 0.0062801513 0)
(0.030706819 0.0067287059 0)
(0.029583172 0.0071603833 0)
(0.028391076 0.007574311 0)
(0.027133472 0.0079696652 0)
(0.025813431 0.0083456713 0)
(0.024434147 0.0087016033 0)
(0.022998924 0.0090367846 0)
(0.021511175 0.0093505873 0)
(0.019974408 0.0096424316 0)
(0.018392224 0.0099117861 0)
(0.016768302 0.010158167 0)
(0.015106397 0.010381136 0)
(0.013410333 0.010580302 0)
(0.011683989 0.01075532 0)
(0.0099313 0.010905889 0)
(0.0081562431 0.011031752 0)
(0.0063628342 0.011132696 0)
(0.0045551201 0.011208552 0)
(0.0027371708 0.011259194 0)
(0.00091307375 0.011284535 0)
(-0.0009130737 0.011284535 0)
(-0.0027371708 0.011259194 0)
(-0.00455512 0.011208552 0)
(-0.0063628342 0.011132696 0)
(-0.008156243 0.011031752 0)
(-0.0099312999 0.010905889 0)
(-0.011683989 0.01075532 0)
(-0.013410333 0.010580302 0)
(-0.015106397 0.010381136 0)
(-0.016768302 0.010158167 0)
(-0.018392224 0.0099117861 0)
(-0.019974408 0.0096424316 0)
(-0.021511175 0.0093505873 0)
(-0.022998924 0.0090367846 0)
(-0.024434147 0.0087016033 0)
(-0.025813431 0.0083456713 0)
(-0.027133472 0.0079696653 0)
(-0.028391076 0.007574311 0)
(-0.029583172 0.0071603833 0)
(-0.030706819 0.0067287059 0)
(-0.031759212 0.0062801513 0)
(-0.032737693 0.0058156402 0)
(-0.033639758 0.0053361405 0)
(-0.03446306 0.004842667 0)
(-0.035205426 0.0043362795 0)
(-0.035864854 0.003818082 0)
(-0.036439528 0.0032892206 0)
(-0.036927819 0.0027508815 0)
(-0.037328296 0.0022042894 0)
(-0.037639728 0.0016507043 0)
(-0.037861092 0.0010914195 0)
(-0.037991579 0.00052775831 0)
(-0.038030593 -3.8928916e-05 0)
(-0.037977764 -0.00060726814 0)
(-0.037832942 -0.0011758652 0)
(-0.037596208 -0.0017433092 0)
(-0.037267869 -0.002308177 0)
(-0.036848465 -0.0028690364 0)
(-0.03633877 -0.003424451 0)
(-0.035739786 -0.0039729842 0)
(-0.035052751 -0.0045132034 0)
(-0.034279132 -0.0050436848 0)
(-0.033420624 -0.0055630177 0)
(-0.03247915 -0.0060698092 0)
(-0.031456856 -0.0065626889 0)
(-0.030356104 -0.0070403131 0)
(-0.029179475 -0.0075013702 0)
(-0.027929754 -0.0079445846 0)
(-0.02660993 -0.0083687215 0)
(-0.025223188 -0.0087725916 0)
(-0.023772899 -0.0091550553 0)
(-0.022262615 -0.0095150269 0)
(-0.020696056 -0.0098514791 0)
(-0.019077105 -0.010163446 0)
(-0.017409792 -0.010450029 0)
(-0.015698289 -0.010710398 0)
(-0.013946894 -0.010943796 0)
(-0.012160022 -0.011149542 0)
(-0.010342188 -0.011327034 0)
(-0.0084980027 -0.01147575 0)
(-0.0066321496 -0.011595253 0)
(-0.0047493775 -0.01168519 0)
(-0.0028544848 -0.011745297 0)
(-0.00095230538 -0.011775394 0)
(0.00097434313 -0.013699221 0)
(0.0029205437 -0.013664213 0)
(0.0048592943 -0.013594302 0)
(0.0067856525 -0.013489694 0)
(0.0086947125 -0.013350697 0)
(0.010581619 -0.01317772 0)
(0.012441581 -0.012971274 0)
(0.014269888 -0.012731962 0)
(0.01606192 -0.012460486 0)
(0.017813162 -0.012157636 0)
(0.019519219 -0.011824293 0)
(0.021175824 -0.011461421 0)
(0.022778853 -0.011070065 0)
(0.024324336 -0.010651348 0)
(0.025808466 -0.010206464 0)
(0.027227608 -0.0097366743 0)
(0.028578312 -0.009243304 0)
(0.029857319 -0.0087277358 0)
(0.031061569 -0.0081914051 0)
(0.032188207 -0.0076357947 0)
(0.033234593 -0.0070624298 0)
(0.034198305 -0.0064728727 0)
(0.035077145 -0.0058687168 0)
(0.035869141 -0.005251582 0)
(0.036572554 -0.0046231089 0)
(0.037185879 -0.0039849537 0)
(0.037707846 -0.0033387824 0)
(0.038137423 -0.0026862665 0)
(0.038473814 -0.0020290772 0)
(0.038716464 -0.0013688805 0)
(0.038865051 -0.00070733284 0)
(0.03891949 -4.6075874e-05 0)
(0.038879928 0.00061326773 0)
(0.038746744 0.0012690987 0)
(0.038520539 0.0019198451 0)
(0.038202142 0.0025639665 0)
(0.037792596 0.0031999575 0)
(0.037293156 0.0038263507 0)
(0.036705288 0.0044417207 0)
(0.036030655 0.0050446861 0)
(0.035271115 0.0056339124 0)
(0.034428716 0.0062081145 0)
(0.033505683 0.0067660582 0)
(0.032504415 0.0073065622 0)
(0.031427478 0.0078284995 0)
(0.030277592 0.0083307983 0)
(0.029057628 0.0088124429 0)
(0.027770598 0.0092724745 0)
(0.026419646 0.0097099914 0)
(0.025008041 0.010124149 0)
(0.023539168 0.01051416 0)
(0.022016521 0.010879293 0)
(0.020443693 0.011218875 0)
(0.018824368 0.011532286 0)
(0.017162315 0.011818965 0)
(0.015461379 0.012078401 0)
(0.013725474 0.012310141 0)
(0.011958572 0.012513782 0)
(0.010164701 0.012688975 0)
(0.0083479319 0.012835421 0)
(0.0065123771 0.012952873 0)
(0.0046621785 0.013041134 0)
(0.0028015028 0.013100056 0)
(0.00093453391 0.013129542 0)
(-0.00093453386 0.013129542 0)
(-0.0028015028 0.013100056 0)
(-0.0046621785 0.013041134 0)
(-0.006512377 0.012952873 0)
(-0.0083479318 0.012835421 0)
(-0.0101647 0.012688975 0)