/*--------------------------------*- C++ -*----------------------------------*\
| =========                 |                                                 |
| \\      /  F ield         | OpenFOAM: The Open Source CFD Toolbox           |
|  \\    /   O peration     | Version:  2106                                  |
|   \\  /    A nd           | Website:  www.openfoam.com                      |
|    \\/     M anipulation  |                                                 |
\*---------------------------------------------------------------------------*/
FoamFile
{
    version     2.0;
    format      ascii;
    arch        "LSB;label=32;scalar=64";
    class       volScalarField;
    location    "0.011";
    object      p_rgh;
}
// * * * * * * * * * * * * * * * * * * * * * * * * * * * * * * * * * * * * * //

dimensions      [1 -1 -2 0 0 0 0];

internalField   nonuniform List<scalar> 
1024
(
-24.706372
-23.754892
-21.888879
-19.18073
-15.735374
-11.68607
-7.1891377
-2.4177972
2.4444276
7.2109944
11.69914
15.736905
19.169797
21.866428
23.723626
24.670335
24.670335
23.723626
21.866428
19.169797
15.736905
11.69914
7.2109944
2.4444276
-2.4177972
-7.1891377
-11.68607
-15.735374
-19.18073
-21.888879
-23.754892
-24.706372
-25.656321
-24.667964
-22.72969
-19.91681
-16.338445
-12.133125
-7.4632753
-2.5088184
2.5397511
7.4887333
12.148499
16.340614
19.904699
22.704381
24.632554
25.615444
25.615444
24.632554
22.704381
19.904699
16.340614
12.148499
7.4887333
2.5397511
-2.5088184
-7.4632753
-12.133125
-16.338445
-19.91681
-22.72969
-24.667964
-25.656321
-27.561469
-26.499119
-24.41586
-21.392863
-17.547668
-13.029386
-8.0127162
-2.6910202
2.7311531
8.0458902
13.049716
17.5512
21.378215
24.38441
26.454805
27.510194
27.510194
26.454805
24.38441
21.378215
17.5512
13.049716
8.0458902
2.7311531
-2.6910202
-8.0127162
-13.029386
-17.547668
-21.392863
-24.41586
-26.499119
-27.561469
-30.509865
-29.33286
-27.024977
-23.676518
-19.418138
-14.415402
-8.8620474
-2.9722404
3.0277426
8.9080761
14.443928
19.423783
23.657392
26.982954
29.273305
30.440822
30.440822
29.273305
26.982954
23.657392
19.423783
14.443928
8.9080761
3.0277426
-2.9722404
-8.8620474
-14.415402
-19.418138
-23.676518
-27.024977
-29.33286
-30.509865
-34.611893
-33.275093
-30.654212
-26.852394
-22.018708
-16.341753
-10.041856
-3.3621361
3.440982
10.107344
16.38255
22.02723
26.825965
30.595467
33.191602
34.515008
34.515008
33.191602
30.595467
26.825965
22.02723
16.38255
10.107344
3.440982
-3.3621361
-10.041856
-16.341753
-22.018708
-26.852394
-30.654212
-33.275093
-34.611893
-40.024867
-38.476693
-35.441899
-31.040834
-25.447173
-18.880177
-11.595451
-3.8743439
3.9871225
11.689076
18.938382
25.459075
31.002582
35.357259
38.356522
39.885466
39.885466
38.356522
35.357259
31.002582
25.459075
18.938382
11.689076
3.9871225
-3.8743439
-11.595451
-18.880177
-25.447173
-31.040834
-35.441899
-38.476693
-40.024867
-46.957057
-45.137315
-41.570925
-36.400721
-29.832444
-22.125068
-13.579724
-4.526774
4.6874205
13.712704
22.20686
29.847308
36.343078
41.44618
44.961157
46.753081
46.753081
44.961157
41.44618
36.343078
29.847308
22.20686
13.712704
4.6874205
-4.526774
-13.579724
-22.125068
-29.832444
-36.400721
-41.570925
-45.137315
-46.957057
-55.676645
-53.513877
-49.276326
-43.13585
-35.339493
-26.196899
-16.06709
-5.3422325
5.5687342
16.253515
26.309099
35.354611
43.045787
49.088837
53.251715
55.374093
55.374093
53.251715
49.088837
43.045787
35.354611
26.309099
16.253515
5.5687342
-5.3422325
-16.06709
-26.196899
-35.339493
-43.13585
-49.276326
-53.513877
-55.676645
-66.523384
-63.931576
-58.855035
-51.502958
-42.175449
-31.246209
-19.147506
-6.3488787
6.6643755
19.404862
31.395654
42.183628
51.358174
58.56838
63.536134
66.069147
66.069147
63.536134
58.56838
51.358174
42.183628
31.395654
19.404862
6.6643755
-6.3488787
-19.147506
-31.246209
-42.175449
-51.502958
-58.855035
-63.931576
-66.523384
-79.923395
-76.797737
-70.677974
-61.82139
-50.596909
-37.45929
-22.93143
-7.5802609
8.0159238
23.281374
37.651625
50.583948
61.585552
70.234715
76.195321
79.235062
79.235062
76.195321
70.234715
61.585552
50.583948
37.651625
23.281374
8.0159237
-7.5802609
-22.93143
-37.45929
-50.596909
-61.82139
-70.677974
-76.797737
-79.923395
-96.406681
-92.618157
-85.203799
-74.482859
-60.913963
-45.054671
-27.545678
-9.0741949
9.6755521
28.024662
45.303981
60.861705
74.103058
84.518579
91.698486
95.360815
95.360815
91.698486
84.518579
74.103058
60.861705
45.303981
28.024662
9.6755521
-9.0741949
-27.545678
-45.054671
-60.913963
-74.482859
-85.203799
-92.618157
-96.406681
-116.62408
-112.01266
-102.99086
-89.958356
-73.496571
-54.289555
-33.126128
-10.853701
11.720984
33.814477
54.638327
73.397044
89.371621
101.94907
110.62178
115.0469
115.0469
110.62178
101.94907
89.371621
73.397044
54.638327
33.814477
11.720984
-10.853701
-33.126128
-54.289555
-73.496571
-89.958356
-102.99086
-112.01266
-116.62408
-141.38891
-135.74276
-124.717
-108.80534
-88.767307
-65.440985
-39.798412
-12.918353
14.247623
40.864757
66.002305
88.660987
107.96507
123.18208
133.67806
139.03675
139.03675
133.67806
123.18208
107.96507
88.660987
66.002305
40.864757
14.247623
-12.918353
-39.798412
-65.440985
-88.767307
-108.80534
-124.717
-135.74276
-141.38891
-171.71985
-164.77763
-151.26956
-131.7498
-107.26519
-78.829271
-47.646013
-15.191994
17.429125
49.488988
79.877305
107.27854
130.64519
149.10865
161.83731
168.34282
168.34282
161.83731
149.10865
130.64519
107.27854
79.877305
49.488988
17.429125
-15.191994
-47.646013
-78.829271
-107.26519
-131.7498
-151.26956
-164.77763
-171.71985
-208.92078
-200.40324
-183.8304
-159.94366
-130.10031
-95.4648
-57.432574
-18.089484
21.372112
60.11904
97.091163
130.35412
158.6834
181.10277
196.5354
204.41551
204.41551
196.5354
181.10277
158.6834
130.35412
97.091163
60.11904
21.372112
-18.089484
-57.432574
-95.4648
-130.10031
-159.94366
-183.8304
-200.40324
-208.92078
-166.64882
-162.55401
-153.92921
-139.91207
-119.87243
-92.926558
-58.802227
-18.578459
26.24208
71.575431
115.37185
155.03671
189.02375
216.04571
234.68357
244.22494
244.22494
234.68357
216.04571
189.02375
155.03671
115.37185
71.575431
26.24208
-18.578459
-58.802227
-92.926558
-119.87243
-139.91207
-153.92921
-162.55401
-166.64882
243.5396
234.02695
215.44545
188.50162
154.61805
115.06901
71.388851
26.176516
-18.511578
-58.598101
-92.596269
-119.43822
-139.3917
-153.33871
-161.91646
-165.98769
-165.98769
-161.91646
-153.33871
-139.3917
-119.43822
-92.596269
-58.598101
-18.511578
26.176516
71.388851
115.06901
154.61805
188.50162
215.44545
234.02695
243.5396
203.70797
195.85622
180.47992
158.14013
129.91596
96.772526
59.924068
21.307109
-18.017203
-57.220505
-95.122279
-129.64993
-159.40565
-183.21999
-199.74501
-208.23789
-208.23789
-199.74501
-183.21999
-159.40565
-129.64993
-95.122279
-57.220505
-18.017203
21.307109
59.924068
96.772526
129.91596
158.14013
180.47992
195.85622
203.70797
167.58716
161.11179
148.44237
130.06312
106.8052
79.529234
49.275768
17.358954
-15.114484
-47.422123
-78.468521
-106.78527
-131.17113
-150.61227
-164.0673
-170.98245
-170.98245
-164.0673
-150.61227
-131.17113
-106.78527
-78.468521
-47.422123
-15.114484
17.358954
49.275768
79.529234
106.8052
130.06312
148.44237
161.11179
167.58716
138.20307
132.87714
122.44544
107.32107
88.135031
65.61376
40.627041
14.169536
-12.833253
-39.5531
-65.045398
-88.238474
-108.16466
-123.98832
-134.95396
-140.56947
-140.56947
-134.95396
-123.98832
-108.16466
-88.238474
-65.045398
-39.5531
-12.833253
14.169536
40.627041
65.61376
88.135031
107.32107
122.44544
132.87714
138.20307
114.10241
109.71411
101.11352
88.640504
72.798774
54.195385
33.543111
11.631348
-10.758211
-32.849339
-53.842592
-72.897568
-89.230975
-102.16279
-111.1155
-115.69176
-115.69176
-111.1155
-102.16279
-89.230975
-72.897568
-53.842592
-32.849339
-10.758211
11.631348
33.543111
54.195385
72.798774
88.640504
101.11352
109.71411
114.10241
94.252269
90.632885
83.537093
73.24352
60.1574
44.78175
27.704116
9.5689825
-8.9631662
-27.221291
-44.530258
-60.210416
-73.62778
-84.230088
-91.562956
-95.309964
-95.309964
-91.562956
-84.230088
-73.62778
-60.210416
-44.530258
-27.221291
-8.9631662
9.5689825
27.704116
44.78175
60.1574
73.24352
83.537093
90.632885
94.252269
77.895339
74.907185
69.047809
60.545544
49.730608
37.017484
22.890483
7.8827862
-7.4502052
-22.543476
-36.827628
-49.745335
-60.782542
-69.491712
-75.509895
-78.583814
-78.583814
-75.509895
-69.491712
-60.782542
-49.745335
-36.827628
-22.543476
-7.4502052
7.8827862
22.890483
37.017484
49.730608
60.545544
69.047809
74.907185
77.895339
65.612508
63.098919
58.168974
51.01276
41.905493
31.19442
19.286575
6.6317484
-6.2965971
-19.013142
-31.036029
-41.898226
-51.169125
-58.476775
-63.522686
-66.098853
-66.098853
-63.522686
-58.476775
-51.169125
-41.898226
-31.036029
-19.013142
-6.2965971
6.6317484
19.286575
31.19442
41.905493
51.01276
58.168974
63.098919
65.612508
50.669079
48.724796
44.911778
39.377965
32.336727
24.057855
14.857403
5.0839613
-4.8939166
-14.701552
-23.965375
-32.327376
-39.459594
-45.078058
-48.956016
-50.93548
-50.93548
-48.956016
-45.078058
-39.459594
-32.327376
-23.965375
-14.701552
-4.8939166
5.0839613
14.857403
24.057855
32.336727
39.377965
44.911778
48.724796
50.669079
51.292001
49.32994
45.480348
39.889476
32.770011
24.39232
15.074182
5.1692084
-4.9478161
-14.889827
-24.275921
-32.742216
-39.956605
-45.634703
-49.551193
-51.549475
-51.549475
-49.551193
-45.634703
-39.956605
-32.742216
-24.275921
-14.889827
-4.9478161
5.1692084
15.074182
24.39232
32.770011
39.889476
45.480348
49.32994
51.292001
25.2315
24.259269
22.353188
19.588214
16.072411
11.942314
7.3562967
2.4891033
-2.4736765
-7.3460326
-11.941769
-16.084323
-19.613495
-22.391519
-24.307704
-25.285431
-25.285431
-24.307704
-22.391519
-19.613495
-16.084323
-11.941769
-7.3460326
-2.4736765
2.4891033
7.3562967
11.942314
16.072411
19.588214
22.353188
24.259269
25.2315
51.548142
49.577068
45.709266
40.090798
32.934176
24.510623
15.140315
5.1801955
-4.9908335
-14.980257
-24.40484
-32.899451
-40.133044
-45.822275
-49.744098
-51.744373
-51.744373
-49.744098
-45.822275
-40.133044
-32.899451
-24.40484
-14.980257
-4.9908335
5.1801955
15.140315
24.510623
32.934176
40.090798
45.709266
49.577068
51.548142
-3.7960892
-3.6570239
-3.3829178
-2.9819603
-2.4667442
-1.8544242
-1.1667068
-0.42903906
0.33157089
1.0826196
1.7948509
2.4390865
2.9886548
3.4211479
3.7192874
3.8713235
3.8713235
3.7192874
3.4211479
2.9886548
2.4390865
1.7948509
1.0826196
0.33157089
-0.42903906
-1.1667068
-1.8544242
-2.4667442
-2.9819603
-3.3829178
-3.6570239
-3.7960892
67.192641
64.620278
59.572909
52.241857
42.905336
31.918392
19.699782
6.7167141
-6.5368359
-19.547249
-31.816021
-42.86835
-52.275484
-59.671685
-64.768779
-67.368048
-67.368048
-64.768779
-59.671685
-52.275484
-42.86835
-31.816021
-19.547249
-6.5368359
6.7167141
19.699782
31.918392
42.905336
52.241857
59.572909
64.620278
67.192641
-40.104742
-38.570325
-35.559366
-31.185588
-25.61456
-19.057824
-11.765185
-4.015441
3.8954936
11.66266
18.987337
25.585875
31.202041
35.617443
38.660218
40.21183
40.21183
38.660218
35.617443
31.202041
25.585875
18.987337
11.66266
3.8954936
-4.015441
-11.765185
-19.057824
-25.61456
-31.185588
-35.559366
-38.570325
-40.104742
97.13186
93.405742
86.095636
75.480905
61.96733
46.071354
28.401901
9.6358934
-9.5072813
-28.292733
-45.99907
-61.942514
-75.507743
-86.170252
-93.516684
-97.262608
-97.262608
-93.516684
-86.170252
-75.507743
-61.942514
-45.99907
-28.292733
-9.5072813
9.6358934
28.401901
46.071354
61.96733
75.480905
86.095636
93.405742
97.13186
)
;

boundaryField
{
    leftWall
    {
        type            cyclic;
    }
    rightWall
    {
        type            cyclic;
    }
    lowerWall
    {
        type            fixedFluxPressure;
        gradient        uniform 0;
        value           nonuniform List<scalar> 
32
(
-24.706372
-23.754892
-21.888879
-19.18073
-15.735374
-11.68607
-7.1891377
-2.4177972
2.4444276
7.2109944
11.69914
15.736905
19.169797
21.866428
23.723626
24.670335
24.670335
23.723626
21.866428
19.169797
15.736905
11.69914
7.2109944
2.4444276
-2.4177972
-7.1891377
-11.68607
-15.735374
-19.18073
-21.888879
-23.754892
-24.706372
)
;
    }
    atmosphere
    {
        type            totalPressure;
        rho             rho;
        psi             none;
        gamma           1;
        p0              uniform 0;
        value           nonuniform List<scalar> 
32
(
0
0
0
0
0
0
0
0
-0.0020260318
-0.001885554
-0.0016112646
-0.0012445695
-0.00084186184
-0.00046641987
-0.00017726805
-2.0232808e-05
-2.0232808e-05
-0.00017726805
-0.00046641987
-0.00084186184
-0.0012445695
-0.0016112646
-0.001885554
-0.0020260318
0
0
0
0
0
0
0
0
)
;
    }
    defaultFaces
    {
        type            empty;
    }
}


// ************************************************************************* //
