/*--------------------------------*- C++ -*----------------------------------*\
| =========                 |                                                 |
| \\      /  F ield         | OpenFOAM: The Open Source CFD Toolbox           |
|  \\    /   O peration     | Version:  2306                                  |
|   \\  /    A nd           | Website:  www.openfoam.com                      |
|    \\/     M anipulation  |                                                 |
\*---------------------------------------------------------------------------*/
FoamFile
{
    version     2.0;
    format      ascii;
    arch        "LSB;label=32;scalar=64";
    class       volVectorField;
    location    "0.02";
    object      U;
}
// * * * * * * * * * * * * * * * * * * * * * * * * * * * * * * * * * * * * * //

dimensions      [0 1 -1 0 0 0 0];

internalField   nonuniform List<vector> 
6400
(
(-0.0021174058 0.048815637 -8.8471868e-18)
(-0.0046792599 0.048554504 2.3243988e-17)
(-0.0076016248 0.047721787 4.052854e-18)
(-0.010304505 0.046453867 -2.2732289e-17)
(-0.012880708 0.044768557 -4.41727e-18)
(-0.015221938 0.042708971 7.3250806e-18)
(-0.017286677 0.040326764 4.6934848e-18)
(-0.019037496 0.037680635 -2.7894867e-18)
(-0.020449083 0.034835362 5.7208111e-18)
(-0.021508583 0.031859461 4.6881827e-18)
(-0.022216023 0.028822112 3.01949e-18)
(-0.022583869 0.025789772 1.3815266e-18)
(-0.022635658 0.022822981 -1.9538571e-19)
(-0.022403808 0.019973736 -1.5276558e-18)
(-0.021926671 0.017283936 -3.2322322e-18)
(-0.021245791 0.01478492 3.6560419e-18)
(-0.020403795 0.01249705 7.2218742e-19)
(-0.01944212 0.010430594 -5.6827655e-20)
(-0.018399043 0.008587149 -4.3288229e-19)
(-0.01730847 0.0069612908 -2.5701643e-18)
(-0.016199288 0.0055423073 -4.4873399e-19)
(-0.015095185 0.0043158332 4.2317605e-19)
(-0.014014822 0.0032652928 -5.3180713e-19)
(-0.01297226 0.0023730945 -1.5334221e-19)
(-0.01197753 0.0016215772 6.1017508e-19)
(-0.0110372 0.00099375861 -9.6997125e-20)
(-0.010154885 0.00047382222 -2.4476291e-19)
(-0.0093327462 4.5836149e-05 -9.0417211e-19)
(-0.0085713203 -0.00030376309 -5.2341123e-19)
(-0.0078683855 -0.00058638594 1.0206084e-19)
(-0.0072211047 -0.00081163688 -2.2014328e-20)
(-0.0066269085 -0.00098891428 6.9619068e-20)
(-0.0060826615 -0.001126108 -2.8705518e-19)
(-0.0055850006 -0.0012299375 -9.0961701e-20)
(-0.0051305058 -0.0013061268 5.9761563e-20)
(-0.004715797 -0.0013595274 -6.8708571e-20)
(-0.0043376057 -0.0013942333 -1.7717273e-19)
(-0.0039928209 -0.0014136865 -3.3736633e-19)
(-0.0036785171 -0.0014207706 -7.03558e-20)
(-0.0033919688 -0.0014178942 -8.1868848e-20)
(-0.0031306552 -0.0014070637 -1.1411832e-19)
(-0.0028922583 -0.0013899453 8.1239956e-20)
(-0.0026746567 -0.0013679194 3.6808975e-20)
(-0.0024759154 -0.0013421266 5.6618968e-20)
(-0.0022942751 -0.0013135061 -1.0542989e-19)
(-0.0021281395 -0.0012828294 -2.2501021e-19)
(-0.0019760627 -0.0012507278 -6.8738662e-20)
(-0.0018367371 -0.0012177158 4.7740735e-20)
(-0.0017089808 -0.0011842108 7.2860902e-20)
(-0.0015917265 -0.0011505493 -1.0682366e-19)
(-0.001484011 -0.001117001 -5.2316961e-20)
(-0.0013849646 -0.0010837803 -3.7647083e-21)
(-0.0012938026 -0.0010510556 -4.9275115e-20)
(-0.0012098165 -0.0010189575 6.9822265e-21)
(-0.0011323668 -0.00098758528 1.1812941e-20)
(-0.0010608757 -0.00095701284 -2.7374193e-20)
(-0.00099482097 -0.00092729293 -1.9294646e-20)
(-0.00093373054 -0.00089846121 -9.7606317e-22)
(-0.00087717729 -0.00087053942 2.3417928e-21)
(-0.00082477451 -0.00084353804 7.0533873e-21)
(-0.00077617188 -0.0008174585 2.2658108e-21)
(-0.00073105174 -0.00079229499 -7.4884339e-21)
(-0.00068912588 -0.00076803599 -1.9574029e-20)
(-0.00065013257 -0.00074466551 1.3603928e-20)
(-0.00061383392 -0.00072216412 5.8790717e-21)
(-0.00058001356 -0.00070050985 -5.8773434e-21)
(-0.0005484745 -0.00067967879 2.761512e-21)
(-0.00051903726 -0.00065964574 2.8383383e-21)
(-0.00049153815 -0.00064038466 -1.7343003e-21)
(-0.00046582777 -0.00062186905 -9.9795629e-22)
(-0.00044176964 -0.00060407222 -9.9103012e-21)
(-0.00041923897 -0.00058696761 -8.3774398e-21)
(-0.00039812157 -0.0005705289 8.1483057e-21)
(-0.00037831286 -0.00055473024 7.2818106e-21)
(-0.00035971695 -0.00053954631 7.8475988e-21)
(-0.00034224588 -0.00052495244 -3.3547286e-21)
(-0.00032581891 -0.00051092466 -3.9598702e-21)
(-0.00031036179 -0.00049743978 8.3380966e-21)
(-0.0002958062 -0.00048447539 5.7557351e-21)
(-0.00028208941 -0.00047200989 5.0475572e-21)
(-0.0024601523 0.05528085 -1.4864484e-17)
(-0.005440019 0.054973128 5.3781873e-17)
(-0.0088371215 0.053989632 1.6615422e-17)
(-0.011975645 0.052490462 2.1548204e-17)
(-0.0149624 0.050495228 1.6325891e-17)
(-0.017668333 0.04805435 -1.2437756e-17)
(-0.020041328 0.045229444 1.1115755e-17)
(-0.022034781 0.042091658 -1.5486906e-19)
(-0.02361695 0.03872071 -6.0938133e-18)
(-0.024771947 0.035201829 2.8432492e-18)
(-0.025500671 0.031621507 -2.1293383e-18)
(-0.025820356 0.028062749 3.7989392e-18)
(-0.025762712 0.024600569 4.3463539e-18)
(-0.025370692 0.021298389 9.3507956e-19)
(-0.024694336 0.018206309 2.178621e-18)
(-0.023787397 0.015360091 -1.2087575e-19)
(-0.022704302 0.012781035 -2.2346921e-19)
(-0.021496873 0.010477566 1.4149677e-18)
(-0.020211962 0.0084473245 8.3534259e-19)
(-0.018890077 0.0066795579 1.0750929e-18)
(-0.017564781 0.005157517 -8.8401779e-19)
(-0.0162627 0.0038606339 4.1251246e-19)
(-0.015003983 0.0027663586 -3.571859e-19)
(-0.013802987 0.001851644 1.602662e-19)
(-0.012669064 0.0010942195 3.0826757e-19)
(-0.011607457 0.00047355477 -5.103222e-19)
(-0.010621842 -3.2178606e-05 -1.8659736e-19)
(-0.0097125451 -0.00044019553 -4.6792587e-19)
(-0.0088763013 -0.00076514433 -3.7022713e-19)
(-0.0081098105 -0.0010200309 1.1168833e-19)
(-0.0074095507 -0.0012168132 -1.4292851e-19)
(-0.0067712931 -0.0013655607 -2.2880556e-20)
(-0.0061905603 -0.001474796 -3.6504615e-20)
(-0.0056628408 -0.0015517037 -6.479042e-20)
(-0.0051837091 -0.0016023072 -1.5292926e-19)
(-0.004748917 -0.0016316348 -1.9237698e-20)
(-0.004354452 -0.0016438675 1.0787175e-20)
(-0.0039965693 -0.0016424691 -1.2820095e-19)
(-0.0036718067 -0.0016302992 -1.4515265e-19)
(-0.0033769855 -0.0016097112 -2.1594722e-19)
(-0.0031092045 -0.001582636 -6.2097025e-20)
(-0.0028658273 -0.0015506525 1.8949179e-20)
(-0.0026444661 -0.0015150477 -6.0956038e-20)
(-0.0024429644 -0.001476867 5.2315835e-20)
(-0.0022593784 -0.0014369558 -6.4711014e-20)
(-0.002091959 -0.0013959949 -1.6076711e-19)
(-0.0019391335 -0.0013545293 -1.9624998e-19)
(-0.0017994893 -0.0013129924 -3.3752628e-20)
(-0.0016717581 -0.0012717264 -4.3429637e-21)
(-0.0015548011 -0.0012309983 -6.1047042e-20)
(-0.0014475963 -0.0011910138 -3.9264779e-20)
(-0.0013492257 -0.0011519287 -7.5976099e-20)
(-0.001258865 -0.001113858 -3.00611e-20)
(-0.0011757732 -0.0010768836 -4.5397476e-20)
(-0.0010992844 -0.0010410609 -4.646466e-20)
(-0.0010287992 -0.0010064239 -2.6830779e-20)
(-0.00096377815 -0.00097298911 -3.5526515e-20)
(-0.00090373522 -0.00094075974 2.2763512e-21)
(-0.00084823207 -0.00090972805 -2.375799e-20)
(-0.00079687311 -0.00087987794 -2.6536374e-20)
(-0.00074930103 -0.00085118682 1.4905947e-20)
(-0.00070519275 -0.00082362722 -4.9441025e-21)
(-0.00066425594 -0.00079716805 -1.8170575e-20)
(-0.00062622576 -0.00077177565 -1.3341999e-20)
(-0.00059086209 -0.00074741464 -2.3899862e-20)
(-0.00055794704 -0.00072404861 5.3704022e-25)
(-0.00052728266 -0.00070164061 -1.2766823e-20)
(-0.00049868895 -0.00068015365 1.0702407e-20)
(-0.00047200209 -0.000659551 -4.3468715e-21)
(-0.00044707283 -0.00063979649 -1.3259579e-20)
(-0.00042376508 -0.00062085469 -3.5268158e-21)
(-0.00040195459 -0.00060269107 -3.1282149e-21)
(-0.00038152789 -0.0005852721 8.7680616e-21)
(-0.00036238117 -0.00056856539 -9.9862494e-21)
(-0.00034441945 -0.00055253966 -2.3787103e-21)
(-0.0003275557 -0.00053716484 5.0946305e-21)
(-0.00031171012 -0.00052241204 -5.7746375e-21)
(-0.00029680945 -0.00050825356 1.9541896e-21)
(-0.00028278637 -0.00049466291 -3.997463e-22)
(-0.00026957911 -0.00048161475 -5.2746588e-21)
(-0.002864554 0.062805548 -3.4329568e-17)
(-0.0063388304 0.062443409 -4.2842669e-17)
(-0.010298165 0.061282938 -4.1111765e-17)
(-0.013954379 0.059510921 -2.0176681e-17)
(-0.017430454 0.057147404 2.3447893e-18)
(-0.020571706 0.054250619 -2.8432087e-18)
(-0.023312163 0.050893256 -7.552994e-18)
(-0.025592753 0.047161314 5.1997867e-18)
(-0.027372599 0.043153218 1.098137e-18)
(-0.028631252 0.038975755 -5.793477e-18)
(-0.029370483 0.03473811 -4.5254159e-18)
(-0.029613907 0.030545049 -3.6210295e-18)
(-0.029404358 0.026490419 1.0429944e-18)
(-0.028798926 0.022652319 -6.4094158e-19)
(-0.027863438 0.019090893 1.1136319e-18)
(-0.026668021 0.015846525 -7.9618298e-19)
(-0.02528242 0.012940585 6.1392196e-20)
(-0.023771565 0.010377905 -2.5056956e-19)
(-0.022192764 0.0081499342 8.2876812e-19)
(-0.020594191 0.0062381997 1.3807803e-18)
(-0.019014456 0.0046176205 2.2211422e-19)
(-0.017483005 0.0032593766 -1.1963795e-18)
(-0.016020927 0.002133314 9.5759743e-19)
(-0.014641909 0.0012097522 1.6149989e-18)
(-0.01335345 0.00046135938 1.1606931e-18)
(-0.012161783 -0.00014162559 4.5165199e-19)
(-0.011067125 -0.00062132816 2.6335068e-19)
(-0.010064518 -0.00099693802 6.6238857e-19)
(-0.0091501616 -0.0012860804 8.6099151e-19)
(-0.0083192222 -0.0015042994 4.3655338e-19)
(-0.0075659562 -0.0016645817 2.1197417e-19)
(-0.0068843434 -0.0017778285 1.7976802e-19)
(-0.0062683607 -0.0018531338 2.3300237e-19)
(-0.0057121527 -0.0018980341 2.4057302e-19)
(-0.0052101472 -0.0019187449 1.1641994e-19)
(-0.0047571243 -0.0019203703 3.6282469e-19)
(-0.0043482528 -0.0019070842 3.9316062e-19)
(-0.0039791025 -0.0018822875 2.1175956e-19)
(-0.0036456392 -0.0018487406 2.4185116e-19)
(-0.0033442098 -0.0018086762 1.9953055e-19)
(-0.0030715202 -0.0017638931 1.5856727e-19)
(-0.0028246097 -0.0017158343 3.177521e-20)
(-0.0026008236 -0.0016656521 -1.7463774e-20)
(-0.0023977862 -0.0016142618 1.4682328e-19)
(-0.002213374 -0.0015623855 1.9503414e-19)
(-0.0020456905 -0.0015105884 5.9284175e-20)
(-0.0018930432 -0.0014593088 -1.274201e-19)
(-0.0017539215 -0.001408882 1.1665087e-20)
(-0.0016269773 -0.00135956 9.7602078e-20)
(-0.0015110074 -0.0013115282 1.0922464e-19)
(-0.0014049371 -0.0012649182 4.9584927e-20)
(-0.0013078062 -0.0012198187 -8.5638228e-21)
(-0.0012187563 -0.0011762845 -9.3976945e-21)
(-0.0011370194 -0.0011343432 1.4952776e-20)
(-0.0010619079 -0.0010940013 4.1626499e-20)
(-0.0009928053 -0.001055249 2.0464862e-20)
(-0.00092915875 -0.0010180635 3.1461535e-20)
(-0.00087047175 -0.00098241267 9.7355153e-21)
(-0.00081629802 -0.00094825702 -1.8453917e-21)
(-0.00076623602 -0.00091555198 2.2547582e-20)
(-0.00071992403 -0.00088424941 5.1967606e-21)
(-0.00067703593 -0.00085429887 1.3316017e-20)
(-0.00063727731 -0.00082564864 -1.138862e-20)
(-0.00060038216 -0.00079824651 3.5935041e-21)
(-0.00056610985 -0.0007720404 1.0582834e-20)
(-0.00053424244 -0.00074697888 1.4678652e-20)
(-0.0005045824 -0.00072301146 7.7252622e-21)
(-0.00047695044 -0.00070008898 4.2597008e-21)
(-0.00045118372 -0.00067816369 5.0607135e-21)
(-0.00042713411 -0.00065718949 1.6792042e-20)
(-0.00040466679 -0.00063712198 -1.2929573e-21)
(-0.00038365888 -0.00061791851 -2.2828532e-23)
(-0.00036399832 -0.00059953821 1.3866949e-20)
(-0.00034558275 -0.00058194202 -4.9810242e-21)
(-0.00032831863 -0.00056509265 2.0778407e-21)
(-0.00031212039 -0.00054895454 -3.6444012e-21)
(-0.00029690968 -0.00053349383 7.4406024e-21)
(-0.00028261463 -0.00051867832 3.4242442e-21)
(-0.00026916929 -0.00050447739 -2.903836e-21)
(-0.00025651323 -0.00049086195 3.0979087e-22)
(-0.0033408479 0.071581202 -2.0165867e-17)
(-0.0073991496 0.071156342 1.3992041e-17)
(-0.012024197 0.069790606 1.5530773e-17)
(-0.016296968 0.06769967 -4.8048168e-18)
(-0.020358834 0.064901203 -9.4629165e-19)
(-0.024023247 0.061461024 1.2641606e-17)
(-0.027205928 0.057463518 -3.6150315e-19)
(-0.029830368 0.053012139 -8.9549789e-19)
(-0.031842349 0.048228806 -6.6517207e-19)
(-0.033214318 0.043248457 7.6195752e-19)
(-0.033948686 0.038210507 4.1781943e-18)
(-0.034077661 0.033248803 8.2013743e-19)
(-0.033659283 0.028482081 4.6530613e-19)
(-0.032769932 0.024007699 1.5102932e-18)
(-0.031497129 0.01989788 -2.1429805e-18)
(-0.029933074 0.016197647 2.4363925e-19)
(-0.028167476 0.012926833 -2.1991882e-19)
(-0.02628185 0.010083943 -9.0325347e-19)
(-0.024346154 0.0076509573 -6.8554679e-19)
(-0.022417274 0.0055983285 -6.4568308e-19)
(-0.020539044 0.0038895194 6.754223e-19)
(-0.01874307 0.0024849958 -6.9379156e-19)
(-0.01705021 0.0013451883 1.7118882e-19)
(-0.015472007 0.00043193241 -2.4841514e-19)
(-0.014018044 -0.00029387712 -4.9820345e-19)
(-0.012688162 -0.00086246945 -3.4897697e-19)
(-0.01147558 -0.0012991059 -6.6893363e-20)
(-0.010376004 -0.001627894 -3.3436561e-19)
(-0.0093825937 -0.0018693384 -3.6738191e-19)
(-0.0084874508 -0.0020404048 -3.1514063e-19)
(-0.0076823939 -0.0021551885 8.1129079e-20)
(-0.0069592972 -0.0022253021 1.2198893e-19)
(-0.0063103293 -0.002260249 -1.1207652e-19)
(-0.005728105 -0.0022677618 1.3553334e-20)
(-0.0052057702 -0.0022541008 -1.7216236e-19)
(-0.0047370386 -0.0022243108 1.3046514e-19)
(-0.0043161975 -0.0021824396 1.2995955e-19)
(-0.0039380908 -0.0021317208 -5.5298039e-20)
(-0.0035980897 -0.0020747263 6.168692e-20)
(-0.0032920556 -0.0020134916 -1.3517612e-20)
(-0.0030162987 -0.0019496187 9.0182019e-20)
(-0.0027675371 -0.0018843607 8.9012604e-20)
(-0.0025428561 -0.00181869 1.1270173e-19)
(-0.0023396695 -0.0017533542 7.8373445e-20)
(-0.0021556841 -0.001688921 5.8384071e-20)
(-0.0019888671 -0.0016258145 1.1976818e-20)
(-0.0018374164 -0.0015643443 -9.3881157e-20)
(-0.0016997335 -0.0015047297 -1.797454e-20)
(-0.0015744001 -0.0014471183 4.2398283e-20)
(-0.0014601574 -0.0013916018 1.3878525e-20)
(-0.0013558866 -0.0013382279 5.5208905e-20)
(-0.001260593 -0.0012870105 7.2368329e-20)
(-0.0011733914 -0.0012379373 -5.1913114e-21)
(-0.0010934927 -0.0011909763 -1.2366186e-20)
(-0.0010201934 -0.001146081 -3.7264022e-20)
(-0.00095286499 -0.0011031938 -1.2038452e-20)
(-0.00089094572 -0.0010622498 3.937558e-20)
(-0.00083393276 -0.0010231789 4.0317904e-20)
(-0.0007813755 -0.00098590792 -2.6778323e-20)
(-0.00073286965 -0.00095036223 -3.9376536e-20)
(-0.00068805205 -0.00091646676 -6.851491e-21)
(-0.00064659607 -0.00088414702 3.5557614e-20)
(-0.00060820757 -0.00085332977 3.2812282e-21)
(-0.00057262141 -0.00082394355 -1.4539095e-20)
(-0.00053959823 -0.000795919 -6.0519304e-21)
(-0.00050892176 -0.00076918921 1.6540839e-22)
(-0.0004803963 -0.00074368982 4.0324552e-20)
(-0.00045384459 -0.00071935913 1.9302063e-20)
(-0.00042910589 -0.00069613822 -2.7091163e-20)
(-0.00040603427 -0.00067397085 -1.9172869e-20)
(-0.0003844971 -0.00065280351 1.3682652e-20)
(-0.00036437371 -0.00063258535 7.2746693e-21)
(-0.00034555418 -0.00061326807 7.673859e-22)
(-0.00032793827 -0.00059480592 -1.0521712e-20)
(-0.0003114345 -0.00057715554 -8.0898082e-21)
(-0.00029595929 -0.00056027587 -7.8363896e-21)
(-0.0002814362 -0.00054412808 9.4315366e-21)
(-0.0002677952 -0.00052867548 9.5395961e-21)
(-0.00025497212 -0.00051388333 -2.7499965e-21)
(-0.0002429082 -0.00049971881 -5.0678234e-21)
(-0.0038996982 0.08183043 -5.8267221e-17)
(-0.0086457618 0.081334792 -7.5708259e-17)
(-0.014057839 0.079735422 4.0638322e-17)
(-0.019066211 0.0772772 -2.2732106e-17)
(-0.02383274 0.073970067 -7.0939497e-18)
(-0.028130936 0.069885771 9.0123169e-18)
(-0.031851953 0.065119918 1.1731156e-18)
(-0.034894305 0.059795993 -7.573101e-18)
(-0.037183755 0.054065517 -2.7485198e-18)
(-0.038681404 0.048100725 -9.6985824e-18)
(-0.039389618 0.042082022 -8.8661717e-18)
(-0.039352286 0.036182811 -4.2750047e-18)
(-0.038648353 0.030555457 -3.3881721e-18)
(-0.037381132 0.025322779 2.6110424e-18)
(-0.035668422 0.020571465 -1.0755458e-18)
(-0.033632296 0.016350713 -2.9986422e-18)
(-0.031388656 0.012676002 1.1017683e-18)
(-0.029039972 0.0095352635 1.9716589e-18)
(-0.026671341 0.0068961943 2.2841731e-18)
(-0.024349317 0.0047134024 3.636232e-19)
(-0.022122348 0.0029350797 -1.0804536e-18)
(-0.020022657 0.0015079607 4.6445646e-19)
(-0.018069992 0.00037844764 -6.7695077e-19)
(-0.016277718 -0.00050494458 -9.6264509e-19)
(-0.014645215 -0.0011849558 -7.6369842e-19)
(-0.01316489 -0.0016955685 -2.326972e-18)
(-0.01183083 -0.0020702478 -1.4798324e-18)
(-0.010633359 -0.0023363031 -7.6872376e-19)
(-0.0095615716 -0.0025161929 -1.0235486e-18)
(-0.008604209 -0.0026283612 -5.9474479e-19)
(-0.0077501744 -0.002687795 -8.3631255e-19)
(-0.0069888712 -0.0027065795 -5.5099851e-19)
(-0.006310404 -0.0026943977 6.3830898e-20)
(-0.0057056801 -0.0026589622 -3.1549349e-19)
(-0.0051664442 -0.0026063834 -5.3346063e-19)
(-0.0046852681 -0.0025414775 -3.6254591e-19)
(-0.0042555128 -0.0024680198 -4.1470772e-19)
(-0.0038712744 -0.0023889532 -1.997302e-19)
(-0.0035273226 -0.0023065574 -3.7460737e-19)
(-0.0032190363 -0.0022225841 -4.4896885e-19)
(-0.0029423403 -0.0021383676 -2.8244841e-21)
(-0.0026936451 -0.0020549126 2.400329e-19)
(-0.0024697914 -0.0019729636 1.7421721e-19)
(-0.0022679994 -0.0018930608 -8.1530363e-20)
(-0.0020858225 -0.0018155849 5.9161884e-20)
(-0.0019211068 -0.001740792 -1.5950534e-20)
(-0.001771955 -0.0016688423 -8.2098346e-20)
(-0.0016366949 -0.0015998214 -7.6616916e-21)
(-0.0015138509 -0.0015337588 -3.1580039e-20)
(-0.0014021199 -0.0014706412 -8.5260895e-21)
(-0.0013003498 -0.0014104234 2.5571905e-20)
(-0.0012075203 -0.0013530368 6.4382347e-21)
(-0.0011227275 -0.0012983963 -1.853944e-20)
(-0.0010451689 -0.0012464054 2.7667433e-21)
(-0.00097413123 -0.0011969602 -9.7479609e-21)
(-0.00090898002 -0.0011499524 -3.4602468e-20)
(-0.00084914973 -0.0011052723 -2.581309e-20)
(-0.00079413573 -0.0010628098 1.0943737e-20)
(-0.00074348713 -0.0010224564 -9.2876898e-21)
(-0.00069680046 -0.00098410606 -9.167068e-21)
(-0.00065371425 -0.00094765569 -5.6374794e-21)
(-0.00061390417 -0.00091300593 1.4100759e-20)
(-0.00057707886 -0.00088006135 -1.5962641e-20)
(-0.00054297621 -0.00084873071 -5.3232278e-21)
(-0.00051136012 -0.00081892699 5.2216102e-21)
(-0.00048201765 -0.00079056749 -2.3778799e-20)
(-0.00045475653 -0.00076357373 4.9286269e-21)
(-0.00042940286 -0.00073787137 3.5384597e-22)
(-0.00040579925 -0.00071339011 -6.5928132e-21)
(-0.00038380304 -0.00069006354 -9.3543727e-21)
(-0.00036328474 -0.00066782899 -6.355739e-21)
(-0.00034412673 -0.00064662737 -1.2312788e-21)
(-0.00032622202 -0.00062640297 -1.0297135e-21)
(-0.00030947318 -0.00060710334 -6.0434141e-21)
(-0.0002937914 -0.00058867908 1.2812526e-21)
(-0.00027909562 -0.00057108368 -3.5807394e-21)
(-0.00026531183 -0.00055427338 -2.4344161e-21)
(-0.00025237227 -0.00053820699 1.3271206e-21)
(-0.00024021496 -0.00052284573 2.9434186e-21)
(-0.00022878311 -0.00050815312 -3.2761273e-21)
(-0.0045510533 0.093807519 -3.2960647e-17)
(-0.010102464 0.093234744 -5.4814391e-17)
(-0.016441833 0.09137742 4.0359144e-19)
(-0.02232891 0.088506069 -2.6954432e-18)
(-0.027947614 0.084613112 -3.8921168e-17)
(-0.033020854 0.079772017 -1.5386524e-18)
(-0.037406316 0.074086984 2.0173486e-17)
(-0.040965923 0.067703589 3.2101441e-17)
(-0.043594704 0.060810771 2.5143578e-18)
(-0.045235292 0.053630969 1.9358639e-17)
(-0.04588851 0.046401279 2.3641261e-17)
(-0.045614194 0.039349937 2.4781093e-18)
(-0.04452058 0.032676014 1.9634274e-18)
(-0.042749411 0.026535919 -4.8111705e-18)
(-0.040461237 0.021033725 -3.3593507e-18)
(-0.037818882 0.016221316 -1.6767938e-18)
(-0.034972821 0.012105004 -2.3164781e-19)
(-0.032051916 0.0086555411 -6.3980795e-19)
(-0.029159182 0.0058191777 -1.3224111e-18)
(-0.026370749 0.0035287234 -4.0365219e-18)
(-0.023737926 0.0017122809 -4.7632874e-18)
(-0.021294153 0.00029398274 9.5866742e-19)
(-0.019058569 -0.00079644375 1.6004238e-18)
(-0.017031819 -0.0016180431 -8.2448878e-19)
(-0.015205771 -0.0022196902 9.2188856e-19)
(-0.013571154 -0.0026475539 -1.0646193e-18)
(-0.012114499 -0.0029387201 -8.5288817e-19)
(-0.010820534 -0.0031234615 6.1277534e-19)
(-0.0096735563 -0.0032262512 -3.6358881e-19)
(-0.0086582062 -0.0032666571 4.7519411e-19)
(-0.0077599605 -0.0032601919 -2.5285623e-19)
(-0.0069654004 -0.0032190623 -2.7127201e-19)
(-0.0062623306 -0.0031528083 7.6520799e-19)
(-0.0056398012 -0.0030688386 5.8700116e-20)
(-0.0050880668 -0.0029728693 1.06648e-19)
(-0.004598511 -0.0028692808 -1.7579433e-19)
(-0.0041635513 -0.0027614047 -3.8015853e-19)
(-0.0037765388 -0.0026517512 1.3392634e-19)
(-0.0034316556 -0.0025421917 -2.4894551e-19)
(-0.0031238198 -0.002434101 -1.7612496e-19)
(-0.0028485956 -0.002328469 3.0532562e-19)
(-0.0026021124 -0.0022259891 2.220364e-19)
(-0.002380992 -0.0021271276 -2.1658377e-20)
(-0.0021822847 -0.0020321773 -1.3326392e-21)
(-0.0020034139 -0.0019412996 1.2630433e-19)
(-0.0018421266 -0.0018545577 2.7268669e-20)
(-0.0016964503 -0.0017719417 -4.6597132e-20)
(-0.0015646563 -0.0016933881 -1.8513655e-20)
(-0.0014452274 -0.0016187948 3.2974021e-20)
(-0.0013368301 -0.0015480333 5.6018638e-20)
(-0.0012382907 -0.001480957 8.5858687e-20)
(-0.0011485748 -0.0014174083 3.9050154e-20)
(-0.0010667689 -0.001357224 1.5996046e-20)
(-0.00099206533 -0.0013002387 3.9077619e-20)
(-0.00092374898 -0.0012462879 -1.3496631e-20)
(-0.00086118544 -0.0011952101 -2.7809369e-20)
(-0.00080381114 -0.0011468486 3.7524137e-20)
(-0.00075112467 -0.0011010517 7.3794521e-20)
(-0.00070267921 -0.0010576744 8.6256579e-21)
(-0.00065807601 -0.0010165782 -1.5753571e-20)
(-0.00061695866 -0.00097763119 1.0276655e-20)
(-0.00057900812 -0.00094070868 2.6689803e-20)
(-0.00054393841 -0.00090569262 2.5375489e-20)
(-0.00051149279 -0.00087247169 1.592149e-20)
(-0.00048144046 -0.00084094101 -1.982025e-20)
(-0.00045357365 -0.00081100195 -1.1059001e-20)
(-0.00042770504 -0.00078256182 1.7957817e-20)
(-0.00040366556 -0.0007555336 3.1062622e-20)
(-0.00038130241 -0.00072983564 -4.0021998e-21)
(-0.00036047727 -0.00070539138 -1.5811809e-20)
(-0.00034106483 -0.00068212903 -4.5622117e-21)
(-0.00032295137 -0.0006599813 1.0066705e-20)
(-0.00030603363 -0.00063888516 2.6124505e-20)
(-0.00029021766 -0.00061878152 -7.7736339e-22)
(-0.00027541795 -0.00059961502 -2.0371975e-21)
(-0.00026155653 -0.00058133379 -4.3491106e-21)
(-0.00024856228 -0.0005638892 5.7336132e-21)
(-0.00023637018 -0.00054723569 1.8303514e-20)
(-0.0002249208 -0.0005313305 2.9458744e-22)
(-0.00021415976 -0.00051613354 -8.1366145e-21)
(-0.0053018888 0.1077947 -4.1405829e-17)
(-0.011787445 0.1071429 2.9409139e-17)
(-0.01921276 0.10501523 -2.9232026e-18)
(-0.026150078 0.10169689 3.2652476e-17)
(-0.032805541 0.097145292 -4.5248564e-18)
(-0.038837092 0.091427204 -9.7875197e-18)
(-0.044056189 0.084648733 -5.8069174e-17)
(-0.048270111 0.076978193 -1.6141188e-17)
(-0.051325777 0.068651885 9.7456471e-18)
(-0.053135374 0.059961068 -2.65181e-17)
(-0.053695244 0.051222893 -3.4830027e-18)
(-0.053086971 0.042743298 6.0117542e-18)
(-0.051461011 0.034787615 7.4084122e-18)
(-0.04901522 0.027556906 7.7328044e-18)
(-0.045971031 0.021175985 -3.6393428e-18)
(-0.042547477 0.015695954 7.452696e-18)
(-0.038940895 0.01110583 -4.2201045e-18)
(-0.035313301 0.0073487904 2.3868547e-18)
(-0.031787242 0.0043401772 7.7908615e-18)
(-0.028446825 0.0019833017 3.5213962e-18)
(-0.02534924 0.00017008325 -1.1413806e-18)
(-0.022524938 -0.0011975701 -1.0423265e-18)
(-0.019977003 -0.0022032552 5.4847893e-19)
(-0.017696988 -0.0029188145 -2.0476592e-18)
(-0.015671619 -0.003408256 -7.6501148e-19)
(-0.013881517 -0.0037233533 -1.3543043e-18)
(-0.012304897 -0.0039056789 -1.7215387e-18)
(-0.01091949 -0.0039882371 -6.8153738e-19)
(-0.0097037069 -0.0039969196 -9.6118207e-19)
(-0.0086373512 -0.0039518439 -4.1004085e-19)
(-0.0077019817 -0.0038685051 -7.8044732e-19)
(-0.0068810427 -0.0037587429 -5.6092492e-19)
(-0.0061598516 -0.0036315321 -6.795223e-20)
(-0.0055255002 -0.0034936207 -3.6543503e-19)
(-0.004966712 -0.0033500353 -4.0544972e-19)
(-0.0044736789 -0.0032044795 -4.4589273e-19)
(-0.0040378959 -0.0030596465 -2.5882881e-19)
(-0.0036520021 -0.0029174584 -1.4247349e-19)
(-0.003309634 -0.0027792519 -2.4155442e-19)
(-0.0030052907 -0.0026459229 -2.0329535e-19)
(-0.002734217 -0.0025180373 -5.0323043e-20)
(-0.0024923006 -0.0023959148 8.6557871e-21)
(-0.0022759824 -0.0022796944 -3.9019504e-20)
(-0.0020821784 -0.0021693834 1.2500284e-19)
(-0.0019082129 -0.0020648944 -3.0796678e-21)
(-0.0017517607 -0.0019660739 -1.1257835e-19)
(-0.0016107983 -0.0018727233 -1.2546231e-19)
(-0.0014835615 -0.0017846148 3.7114694e-20)
(-0.0013685099 -0.0017015037 1.9327197e-20)
(-0.0012642958 -0.0016231367 -3.9797891e-20)
(-0.0011697382 -0.0015492591 -7.543684e-21)
(-0.0010838004 -0.0014796187 -6.1752684e-20)
(-0.0010055704 -0.0014139698 -4.1943223e-21)
(-0.00093424469 -0.0013520747 1.5981099e-20)
(-0.0008691141 -0.0012937061 7.5805356e-20)
(-0.00080955153 -0.0012386473 1.2976481e-20)
(-0.00075500154 -0.0011866928 -6.4731379e-20)
(-0.00070497127 -0.0011376488 1.5333101e-20)
(-0.00065902268 -0.0010913326 8.3905496e-21)
(-0.00061676578 -0.0010475727 5.4981128e-20)
(-0.00057785281 -0.0010062083 3.3750165e-20)
(-0.00054197316 -0.00096708886 -4.2532496e-20)
(-0.00050884896 -0.00093007368 -1.8727766e-21)
(-0.00047823126 -0.0008950313 7.7523195e-21)
(-0.00044989664 -0.00086183896 3.0403903e-20)
(-0.00042364435 -0.00083038219 1.5015914e-20)
(-0.00039929371 -0.00080055416 -3.1090156e-20)
(-0.00037668188 -0.00077225529 1.6077584e-20)
(-0.00035566191 -0.00074539269 6.132291e-21)
(-0.000336101 -0.00071987977 2.4367755e-20)
(-0.00031787897 -0.00069563577 4.8156429e-21)
(-0.00030088692 -0.00067258538 -1.6686452e-20)
(-0.00028502605 -0.00065065833 9.950781e-21)
(-0.00027020664 -0.00062978909 -5.1285274e-21)
(-0.00025634707 -0.00060991645 1.9412745e-20)
(-0.00024337302 -0.00059098331 1.0381699e-20)
(-0.00023121676 -0.00057293632 -1.6102606e-20)
(-0.00021981643 -0.00055572565 2.2354825e-22)
(-0.00020911556 -0.00053930467 1.3310763e-21)
(-0.0001990625 -0.00052362983 1.9340136e-20)
(-0.0061519403 0.12409023 -9.1757083e-17)
(-0.013704578 0.12336717 -2.128773e-16)
(-0.022389108 0.1209832 -1.2729044e-16)
(-0.030581492 0.11721342 -7.4904333e-17)
(-0.038506948 0.11194961 -9.0212148e-18)
(-0.045738737 0.10523714 -1.6254451e-17)
(-0.052023833 0.097169544 7.1263463e-18)
(-0.057086548 0.087935671 -4.6545e-17)
(-0.060697311 0.07783167 -2.2108823e-17)
(-0.062717615 0.067244948 -8.1775659e-18)
(-0.06313379 0.056608114 -2.8986375e-17)
(-0.06205741 0.046340182 -9.444008e-18)
(-0.059701488 0.036801675 -1.2928e-18)
(-0.05634745 0.028254161 -1.6472292e-18)
(-0.052304549 0.020846531 -5.7031639e-21)
(-0.047870279 0.014621882 -2.8103393e-18)
(-0.043302111 0.009538091 5.0459715e-18)
(-0.038801693 0.0054959931 3.0811171e-18)
(-0.034510982 0.0023677024 2.0821666e-18)
(-0.03052955 -1.0327357e-06 9.6272744e-20)
(-0.026909514 -0.0017503044 -1.7412683e-18)
(-0.023660359 -0.0030015544 -1.2657452e-19)
(-0.020774282 -0.0038614155 3.3416776e-19)
(-0.018232544 -0.0044219001 4.039822e-19)
(-0.016007067 -0.0047566046 2.0906027e-19)
(-0.014066151 -0.0049237787 5.5562235e-19)
(-0.012377577 -0.0049687541 7.9239779e-19)
(-0.010910441 -0.0049263114 -3.7656168e-21)
(-0.0096361846 -0.0048228324 2.2156472e-20)
(-0.0085290798 -0.0046781225 -3.8437604e-19)
(-0.0075663463 -0.0045069024 4.9606971e-20)
(-0.0067280614 -0.0043200057 -1.3536762e-20)
(-0.005996951 -0.0041253134 -4.2374863e-19)
(-0.0053581267 -0.0039284859 -4.3540804e-20)
(-0.0047988063 -0.0037335207 -4.0054736e-19)
(-0.0043080455 -0.0035431746 2.6346174e-19)
(-0.0038764844 -0.0033592849 2.3846498e-19)
(-0.0034961207 -0.0031830158 -1.5902757e-19)
(-0.0031601127 -0.0030150392 7.1267437e-20)
(-0.0028626089 -0.002855672 -1.0818609e-19)
(-0.0025985988 -0.002704979 -1.8669725e-19)
(-0.0023637859 -0.0025628479 -8.9988985e-20)
(-0.00215448 -0.0024290451 -1.6550678e-19)
(-0.0019675059 -0.0023032571 1.7951812e-20)
(-0.0018001265 -0.0021851201 1.7420675e-19)
(-0.0016499776 -0.0020742427 6.6257481e-20)
(-0.001515013 -0.0019702213 -1.5146374e-19)
(-0.0013934579 -0.0018726516 -6.5844925e-20)
(-0.0012837697 -0.0017811362 -1.5853118e-20)
(-0.0011846049 -0.0016952905 6.5549553e-20)
(-0.0010947911 -0.0016147457 5.1355563e-20)
(-0.0010133028 -0.0015391512 -5.0723127e-20)
(-0.0009392411 -0.0014681757 -5.9345642e-20)
(-0.00087181694 -0.0014015073 1.4232817e-20)
(-0.00081033581 -0.001338854 8.235004e-20)
(-0.00075418546 -0.0012799427 -6.6953039e-20)
(-0.00070282507 -0.001224519 -2.9479578e-20)
(-0.00065577599 -0.0011723458 1.0218193e-20)
(-0.00061261386 -0.0011232028 5.6798864e-21)
(-0.00057296172 -0.0010768855 4.5352338e-20)
(-0.00053648417 -0.001033204 -5.521922e-20)
(-0.00050288223 -0.0009919823 -1.4397898e-20)
(-0.00047188897 -0.00095305701 -2.1797938e-21)
(-0.00044326565 -0.00091627678 5.1368224e-21)
(-0.00041679843 -0.00088150125 2.8408954e-20)
(-0.00039229545 -0.00084860031 -2.2170097e-20)
(-0.0003695843 -0.00081745328 -6.0748935e-21)
(-0.00034850985 -0.00078794825 -8.5855859e-22)
(-0.00032893228 -0.00075998137 6.7738484e-21)
(-0.00031072539 -0.00073345627 3.1067589e-20)
(-0.00029377516 -0.00070828346 -2.6507943e-20)
(-0.00027797837 -0.00068437982 -7.2754407e-21)
(-0.0002632415 -0.0006616681 1.4535361e-20)
(-0.00024947969 -0.00064007649 -1.8453875e-21)
(-0.00023661586 -0.00061953817 7.6089244e-21)
(-0.00022457987 -0.00059999098 -1.5019784e-20)
(-0.00021330787 -0.00058137701 3.4297315e-22)
(-0.00020274161 -0.00056364234 4.0444998e-21)
(-0.00019282792 -0.00054673664 -3.0171935e-21)
(-0.00018351828 -0.00053061299 8.287192e-21)
(-0.0070857599 0.14298101 7.0440351e-18)
(-0.015827392 0.14221389 1.0423611e-16)
(-0.025949463 0.13964045 -2.173134e-16)
(-0.035640669 0.13547526 -4.2718991e-17)
(-0.045134056 0.12949143 -4.2250968e-17)
(-0.053891324 0.12169103 1.3873524e-16)
(-0.061569308 0.1121244 4.5757413e-17)
(-0.067764125 0.10099441 5.1574491e-17)
(-0.07212344 0.088671974 3.084129e-17)
(-0.074423627 0.075681466 8.7778609e-18)
(-0.074630559 0.062625496 1.2113475e-17)
(-0.072898371 0.050092057 5.0916464e-20)
(-0.069535145 0.038580316 2.4357192e-18)
(-0.064948902 0.028435536 -6.2006413e-18)
(-0.059577782 0.01983292 -6.5887129e-20)
(-0.053830278 0.012793129 -3.3476127e-18)
(-0.048043397 0.0072213234 -6.6300601e-19)
(-0.042463359 0.0029562832 -3.0094015e-18)
(-0.03726765 -0.00022027362 -3.1787185e-18)
(-0.032551145 -0.0025124079 -3.4031483e-18)
(-0.028339347 -0.0041013003 3.8033573e-18)
(-0.02462813 -0.0051485603 1.5044909e-18)