/*--------------------------------*- C++ -*----------------------------------*\
| =========                 |                                                 |
| \\      /  F ield         | OpenFOAM: The Open Source CFD Toolbox           |
|  \\    /   O peration     | Version:  2106                                  |
|   \\  /    A nd           | Website:  www.openfoam.com                      |
|    \\/     M anipulation  |                                                 |
\*---------------------------------------------------------------------------*/
FoamFile
{
    version     2.0;
    format      ascii;
    arch        "LSB;label=32;scalar=64";
    class       volScalarField;
    location    "0.044";
    object      reconstructedDistanceFunction;
}
// * * * * * * * * * * * * * * * * * * * * * * * * * * * * * * * * * * * * * //

dimensions      [0 1 0 0 0 0 0];

internalField   nonuniform List<scalar> 
256
(
0
0
0
0
0
0
0
0
0
0
0
0
0
0
0
0
0
0
0
0
0
0
0
0
0
0
0
0
0
0
0
0
0
0
0
0
0
0
0
0
0
0
0
0
0
0
0
0
0
0
0
0
0
0
0
0
0
0
0
0
0
0
0
0
0
0.2189437
0.21888024
0.21879452
0.21870537
0.2186193
0.21855646
0.21852057
0.21852092
0.21855631
0.21861895
0.21870536
0.21879445
0.21888064
0.21894306
0
0.15647867
0.15644372
0.15638029
0.15629459
0.15620543
0.15611934
0.15605648
0.15602057
0.15602093
0.15605633
0.156119
0.15620542
0.15629451
0.15638069
0.15644308
0.15647962
0.093978667
0.093943734
0.093880341
0.09379465
0.093705491
0.093619389
0.093556505
0.093520577
0.09352093
0.093556349
0.093619045
0.093705487
0.093794572
0.093880739
0.093943102
0.093979622
0.031478667
0.031443754
0.031380389
0.031294713
0.031205554
0.031119435
0.031056525
0.031020579
0.031020932
0.031056369
0.031119092
0.03120555
0.031294635
0.031380786
0.031443122
0.031479622
-0.031021333
-0.031056227
-0.031119562
-0.031205224
-0.031294383
-0.031380518
-0.031443454
-0.031479418
-0.031479065
-0.03144361
-0.031380862
-0.031294387
-0.031205302
-0.031119166
-0.031056859
-0.031020378
-0.093521333
-0.093556207
-0.093619514
-0.093705162
-0.093794319
-0.093880472
-0.093943433
-0.093979416
-0.093979062
-0.09394359
-0.093880815
-0.093794323
-0.09370524
-0.093619118
-0.093556839
-0.093520378
-0.15602133
-0.15605619
-0.15611947
-0.1562051
-0.15629426
-0.15638043
-0.15644341
-0.15647941
-0.15647906
-0.15644357
-0.15638077
-0.15629426
-0.15620518
-0.15611907
-0.15605682
-0.15602038
-0.21852133
-0.21855617
-0.21861942
-0.21870504
-0.21879419
-0.21888038
-0.21894339
-0.21897941
-0.21897906
-0.21894355
-0.21888072
-0.2187942
-0.21870511
-0.21861902
-0.2185568
-0.21852038
0
0
0
0
0
0
0
0
0
0
0
0
0
0
0
0
0
0
0
0
0
0
0
0
0
0
0
0
0
0
0
0
0
0
0
0
0
0
0
0
0
0
0
0
0
0
0
0
0
0
0
0
0
0
0
0
0
0
0
0
0
0
0
0
)
;

boundaryField
{
    leftWall
    {
        type            cyclic;
    }
    rightWall
    {
        type            cyclic;
    }
    lowerWall
    {
        type            calculated;
        value           uniform 0;
    }
    atmosphere
    {
        type            calculated;
        value           uniform 0;
    }
    defaultFaces
    {
        type            empty;
    }
}


// ************************************************************************* //
