/*--------------------------------*- C++ -*----------------------------------*\
| =========                 |                                                 |
| \\      /  F ield         | OpenFOAM: The Open Source CFD Toolbox           |
|  \\    /   O peration     | Version:  2106                                  |
|   \\  /    A nd           | Website:  www.openfoam.com                      |
|    \\/     M anipulation  |                                                 |
\*---------------------------------------------------------------------------*/
FoamFile
{
    version     2.0;
    format      ascii;
    arch        "LSB;label=32;scalar=64";
    class       volScalarField;
    location    "0.036";
    object      p_rgh;
}
// * * * * * * * * * * * * * * * * * * * * * * * * * * * * * * * * * * * * * //

dimensions      [1 -1 -2 0 0 0 0];

internalField   nonuniform List<scalar> 
256
(
-5.3270917
-4.5173277
-3.0204048
-1.06615
1.0494821
3.0024479
4.4976746
5.3058777
5.3064019
4.4968924
3.0025998
1.0489203
-1.0657447
-3.0210091
-4.5170939
-5.3279362
-5.5274863
-4.6874278
-3.1355157
-1.1086122
1.0854446
3.1129858
4.6671872
5.5087033
5.5095348
4.6667243
3.1133554
1.0854254
-1.1073674
-3.1351814
-4.686248
-5.5282335
-8.3968198
-7.1187246
-4.7558132
-1.6705727
1.6669561
4.7454851
7.0991894
8.368572
8.3689103
7.0969457
4.7446003
1.6652171
-1.6710564
-4.7577878
-7.1208086
-8.3987992
-8.4787919
-7.1848514
-4.8078015
-1.7055265
1.6530519
4.7708289
7.1679079
8.4744423
8.4761325
7.1684552
4.7727536
1.6566592
-1.6999949
-4.8029566
-7.1801117
-8.4773791
-17.726651
-15.031316
-10.024047
-3.4898162
3.5637407
10.05321
15.003391
17.645991
17.645226
14.992213
10.048187
3.5580311
-3.4954378
-10.036349
-15.04395
-17.736074
-16.460833
-13.917714
-9.3050941
-3.2894243
3.2027197
9.2510845
13.904452
16.468831
16.472807
13.905846
9.2498774
3.2111644
-3.2768124
-9.2924891
-13.907921
-16.455894
-34.931516
-29.586794
-19.737179
-6.8968276
6.9730139
19.780702
29.568546
34.83343
34.830078
29.547283
19.76605
6.9798508
-6.8896374
-19.746799
-29.613582
-34.951596
-35.733237
-30.415579
-20.481387
-7.2368819
7.4447331
21.107837
31.612629
37.301983
37.300881
31.593917
21.094582
7.4615522
-7.2145252
-20.475828
-30.430068
-35.748068
36.609854
31.006903
20.723096
7.34156
-7.0721652
-20.110245
-29.895963
-35.108761
-35.103999
-29.865911
-20.074331
-7.0519586
7.3648209
20.750824
31.041287
36.631048
35.375608
30.007224
20.090671
7.1040593
-6.989272
-20.080911
-30.137338
-35.560161
-35.552373
-30.102609
-20.040393
-6.9497002
7.1788477
20.145239
30.054025
35.401179
13.84557
11.627693
7.6536643
2.520459
-2.8096971
-7.7661047
-11.560012
-13.723785
-13.731229
-11.569237
-7.7618642
-2.8060775
2.5601664
7.6338061
11.605977
13.835347
20.266689
17.268427
11.644561
4.2468283
-3.9711044
-11.573825
-17.410952
-20.48678
-20.478996
-17.387123
-11.55932
-3.9655097
4.2082287
11.670125
17.297236
20.28187
3.9736501
3.3797113
2.2808365
0.82674653
-0.76896573
-2.2388471
-3.3858429
-4.0157216
-4.0174213
-3.3894818
-2.2503998
-0.80083756
0.76131071
2.2474672
3.362867
3.9610704
13.451693
11.322224
7.5135965
2.5632379
-2.6928321
-7.5348196
-11.23915
-13.23907
-13.239298
-11.238108
-7.5375061
-2.699521
2.5483889
7.5023341
11.310164
13.4159
-3.6339944
-2.9802834
-1.9152411
-0.57372829
0.7649209
1.9662231
2.8886296
3.3882975
3.3876903
2.8861538
1.9596558
0.75333143
-0.58567185
-1.9212779
-2.9773956
-3.5996482
14.530001
12.356799
8.2820999
2.9389145
-2.8679193
-8.2647177
-12.38933
-14.621457
-14.620203
-12.38262
-8.2565489
-2.8568464
2.9486236
8.2925067
12.365215
14.540323
)
;

boundaryField
{
    leftWall
    {
        type            cyclic;
    }
    rightWall
    {
        type            cyclic;
    }
    lowerWall
    {
        type            fixedFluxPressure;
        gradient        uniform 0;
        value           nonuniform List<scalar> 
16
(
-5.3270917
-4.5173277
-3.0204048
-1.06615
1.0494821
3.0024479
4.4976746
5.3058777
5.3064019
4.4968924
3.0025998
1.0489203
-1.0657447
-3.0210091
-4.5170939
-5.3279362
)
;
    }
    atmosphere
    {
        type            totalPressure;
        rho             rho;
        psi             none;
        gamma           1;
        p0              uniform 0;
        value           nonuniform List<scalar> 
16
(
0
0
0
0
-0.0012384331
-0.00089197314
-0.00039868213
-4.8964142e-05
-4.9290578e-05
-0.00039945572
-0.00089277648
-0.0012388907
0
0
0
0
)
;
    }
    defaultFaces
    {
        type            empty;
    }
}


// ************************************************************************* //
