/*--------------------------------*- C++ -*----------------------------------*\
| =========                 |                                                 |
| \\      /  F ield         | OpenFOAM: The Open Source CFD Toolbox           |
|  \\    /   O peration     | Version:  2106                                  |
|   \\  /    A nd           | Website:  www.openfoam.com                      |
|    \\/     M anipulation  |                                                 |
\*---------------------------------------------------------------------------*/
FoamFile
{
    version     2.0;
    format      ascii;
    arch        "LSB;label=32;scalar=64";
    class       volVectorField;
    location    "0.036";
    object      U;
}
// * * * * * * * * * * * * * * * * * * * * * * * * * * * * * * * * * * * * * //

dimensions      [0 1 -1 0 0 0 0];

internalField   nonuniform List<vector> 
256
(
(-0.0011586278 -0.0019347683 0)
(-0.0033044843 -0.0016421916 0)
(-0.0049381777 -0.0011070514 0)
(-0.0058097633 -0.0003983303 0)
(-0.0057875521 0.00037502176 0)
(-0.0048855474 0.0010993318 0)
(-0.0032509313 0.0016552442 0)
(-0.0011283631 0.0019616727 0)
(0.0011373447 0.0019614999 0)
(0.0032579128 0.001655382 0)
(0.0048907416 0.0010984645 0)
(0.0057912523 0.00037540791 0)
(0.0058097521 -0.00039812564 0)
(0.0049332451 -0.0011063829 0)
(0.0032966329 -0.0016421093 0)
(0.0011467023 -0.0019343314 0)
(-0.00021474393 0.0066699959 0)
(-0.00062246183 0.005664016 0)
(-0.00092175858 0.00377165 0)
(-0.0010619944 0.0013035892 0)
(-0.0010290007 -0.0013591264 0)
(-0.00084529594 -0.0037972367 0)
(-0.00054650964 -0.0056542301 0)
(-0.00017577037 -0.0066310746 0)
(0.00018415679 -0.0066307097 0)
(0.00055237196 -0.0056482594 0)
(0.00085047975 -0.0037946914 0)
(0.0010335945 -0.0013523127 0)
(0.0010622909 0.001310586 0)
(0.00091698702 0.0037812042 0)
(0.00061487993 0.0056692586 0)
(0.00020300562 0.006675714 0)
(-0.00038352729 -0.0017067571 0)
(-0.0011186921 -0.0014416775 0)
(-0.0016997493 -0.001003028 0)
(-0.0019947985 -0.00040442093 0)
(-0.0019627824 0.00028307405 0)
(-0.0016309513 0.00095876654 0)
(-0.001047466 0.0014900175 0)
(-0.00033710427 0.00182016 0)
(0.00035195244 0.0018207806 0)
(0.0010562764 0.0014934426 0)
(0.0016368976 0.0009582259 0)
(0.0019709459 0.0002882358 0)
(0.0019975508 -0.00039690756 0)
(0.0016932222 -0.0009949654 0)
(0.0011074151 -0.001437076 0)
(0.00036125671 -0.001701366 0)
(0.0028353708 0.0091992336 0)
(0.008031697 0.0078760505 0)
(0.012012819 0.0052392924 0)
(0.01423833 0.0017627418 0)
(0.014309705 -0.0019502909 0)
(0.012169475 -0.0053177463 0)
(0.0081849314 -0.0078376281 0)
(0.0029155789 -0.0090559227 0)
(-0.0029019978 -0.0090510869 0)
(-0.0081791037 -0.0078191859 0)
(-0.012161501 -0.0053149966 0)
(-0.014296357 -0.0019368478 0)
(-0.014235379 0.0017862356 0)
(-0.012021458 0.005266894 0)
(-0.0080430391 0.0078999301 0)
(-0.0028582366 0.0092196321 0)
(0.00082786572 -0.01378457 0)
(0.0022459303 -0.011622588 0)
(0.0032258002 -0.0078858595 0)
(0.0038840928 -0.0029466721 0)
(0.0039957041 0.0025829358 0)
(0.0034610542 0.0077569436 0)
(0.0025083825 0.011753222 0)
(0.0010038548 0.014110543 0)
(-0.00096160974 0.014116012 0)
(-0.0024975898 0.011765806 0)
(-0.0034565775 0.0077457064 0)
(-0.0039641131 0.0025952131 0)
(-0.0038677931 -0.0029187772 0)
(-0.0032355276 -0.007860899 0)
(-0.0022686816 -0.011606062 0)
(-0.00089924275 -0.013764549 0)
(0.0005851007 0.0078948738 0)
(0.0015950333 0.0070045265 0)
(0.0024942582 0.0046393705 0)
(0.0034710624 0.0014003531 0)
(0.0038194863 -0.0018407861 0)
(0.0032769302 -0.004832306 0)
(0.0024133352 -0.0069382046 0)
(0.0010092515 -0.0075085293 0)
(-0.00096596442 -0.0074796021 0)
(-0.0024124774 -0.0068841035 0)
(-0.0032634275 -0.0048484915 0)
(-0.0037621621 -0.0018406371 0)
(-0.0034539574 0.0014556124 0)
(-0.0025200118 0.0046986822 0)
(-0.0016224423 0.0070798055 0)
(-0.0006615483 0.0079624135 0)
(-0.025223928 -0.018413756 0)
(-0.072123833 -0.015499164 0)
(-0.10859229 -0.011125251 0)
(-0.12792502 -0.0048387263 0)
(-0.12770928 0.0031761497 0)
(-0.10807129 0.010459782 0)
(-0.071348721 0.016038398 0)
(-0.024583907 0.020018692 0)
(0.024746545 0.020069697 0)
(0.071357117 0.016091306 0)
(0.10801299 0.010385011 0)
(0.12778897 0.0031846627 0)
(0.12801602 -0.0047158308 0)
(0.10862219 -0.011043395 0)
(0.072087918 -0.01541773 0)
(0.02495022 -0.018326685 0)
(-0.035140525 0.11161542 0)
(-0.10055809 0.096017637 0)
(-0.15197818 0.064271011 0)
(-0.18050758 0.021878346 0)
(-0.18151268 -0.022988376 0)
(-0.15435145 -0.065015977 0)
(-0.10264259 -0.09614099 0)
(-0.035689835 -0.11028395 0)
(0.035870683 -0.11011934 0)
(0.10266829 -0.095842163 0)
(0.15426958 -0.065083467 0)
(0.18154832 -0.02316106 0)
(0.1806034 0.021975099 0)
(0.15203975 0.064457202 0)
(0.10052791 0.096413745 0)
(0.034856277 0.11194162 0)
(0.035720358 0.10420787 0)
(0.10183807 0.090378425 0)
(0.15287519 0.061506736 0)
(0.17999013 0.022149217 0)
(0.1792674 -0.020341597 0)
(0.15110887 -0.061023857 0)
(0.099801527 -0.091676937 0)
(0.034569809 -0.10576877 0)
(-0.034743914 -0.10560207 0)
(-0.099825898 -0.091376458 0)
(-0.15102933 -0.061093453 0)
(-0.17930374 -0.020519817 0)
(-0.18008607 0.022241402 0)
(-0.15293832 0.06168774 0)
(-0.10180795 0.090767544 0)
(-0.035429033 0.10452871 0)
(0.025539815 -0.012677326 0)
(0.073193384 -0.0099701256 0)
(0.11058096 -0.0063376867 0)
(0.13084182 -0.0017830685 0)
(0.13122005 0.0033181276 0)
(0.11153223 0.0069447532 0)
(0.073914463 0.0091431385 0)
(0.025540635 0.011120686 0)
(-0.025705504 0.011175507 0)
(-0.073922857 0.0092049339 0)
(-0.11147181 0.0068738408 0)
(-0.13129887 0.0033303241 0)
(-0.13093045 -0.0016507255 0)
(-0.1106071 -0.0062491732 0)
(-0.07315496 -0.0098885606 0)
(-0.025266832 -0.012592199 0)
(-0.0022486347 -0.001575436 0)
(-0.0061904713 -0.00087514526 0)
(-0.00901068 -0.00033199061 0)
(-0.01061126 4.1747168e-05 0)
(-0.010354869 0.00041942792 0)
(-0.0083480328 0.00048111028 0)
(-0.0055458499 0.0005618697 0)
(-0.0020519537 0.0011448975 0)
(0.0020149561 0.0011739601 0)
(0.0055508469 0.00061223765 0)
(0.0083400629 0.00046093065 0)
(0.01030564 0.00041174532 0)
(0.010596802 8.9150275e-05 0)
(0.0090314658 -0.00028069831 0)
(0.0062117362 -0.00080391233 0)
(0.0023143078 -0.0015122198 0)
(0.0011515147 -0.0014038321 0)
(0.0034159295 -0.0010048627 0)
(0.0053535779 -0.00055042168 0)
(0.0064187967 -5.5318013e-05 0)
(0.0065106396 0.00041285783 0)
(0.0055965315 0.00067974156 0)
(0.0036035878 0.00079166334 0)
(0.001142468 0.001023111 0)
(-0.0011909033 0.0010290516 0)
(-0.0036166847 0.00080793209 0)
(-0.0056026559 0.00067248464 0)
(-0.0065472369 0.00043003009 0)
(-0.0064353273 -2.7356503e-05 0)
(-0.0053381619 -0.00052290617 0)
(-0.003387417 -0.00098782757 0)
(-0.0010722445 -0.0013833563 0)
(-0.0063273568 -0.0087399918 0)
(-0.017960953 -0.0072464677 0)
(-0.026828674 -0.0047008134 0)
(-0.031626633 -0.0015097511 0)
(-0.031596971 0.0018190982 0)
(-0.02674814 0.0048165986 0)
(-0.017891124 0.0070880017 0)
(-0.006315903 0.0084585804 0)
(0.0063129781 0.0084625883 0)
(0.017894771 0.0071041732 0)
(0.026746248 0.0048134024 0)
(0.031586634 0.0018269013 0)
(0.031622826 -0.0014884851 0)
(0.026831652 -0.0046760641 0)
(0.017963405 -0.0072255351 0)
(0.0063385715 -0.0087199712 0)
(0.0040738794 0.026353926 0)
(0.011629902 0.022419407 0)
(0.017461785 0.01505864 0)
(0.020636283 0.0053867456 0)
(0.020665465 -0.0051638548 0)
(0.017539824 -0.014980357 0)
(0.011693693 -0.022549754 0)
(0.0040715788 -0.026609716 0)
(-0.0040952673 -0.02660782 0)
(-0.011709668 -0.022536212 0)
(-0.017550888 -0.014970446 0)
(-0.020675361 -0.0051421926 0)
(-0.020637073 0.0054066364 0)
(-0.017451082 0.015080802 0)
(-0.011611201 0.022430992 0)
(-0.0040411468 0.026364358 0)
(-0.010130874 -0.026955006 0)
(-0.028810912 -0.022798428 0)
(-0.043082604 -0.015171316 0)
(-0.050759239 -0.00525821 0)
(-0.050708114 0.0054268309 0)
(-0.042959212 0.015244196 0)
(-0.028689158 0.022729897 0)
(-0.010074449 0.026798061 0)
(0.010089216 0.026796805 0)
(0.028702804 0.022727823 0)
(0.042966832 0.015236627 0)
(0.050708353 0.005420743 0)
(0.050755242 -0.0052631385 0)
(0.043075514 -0.015173572 0)
(0.028799392 -0.0227991 0)
(0.010117587 -0.026952952 0)
(0.0098629844 0.069848597 0)
(0.02809364 0.059239244 0)
(0.042080329 0.039597982 0)
(0.049703466 0.013941182 0)
(0.049768124 -0.013882803 0)
(0.042236788 -0.039589099 0)
(0.028237639 -0.059297645 0)
(0.0098958721 -0.069942305 0)
(-0.0099288043 -0.069939893 0)
(-0.028265022 -0.059274056 0)
(-0.042255804 -0.039566028 0)
(-0.049777319 -0.013845927 0)
(-0.049699737 0.013972011 0)
(-0.042061863 0.039632864 0)
(-0.028065283 0.059256062 0)
(-0.0098247842 0.069861694 0)
)
;

boundaryField
{
    leftWall
    {
        type            cyclic;
    }
    rightWall
    {
        type            cyclic;
    }
    lowerWall
    {
        type            slip;
    }
    atmosphere
    {
        type            slip;
    }
    defaultFaces
    {
        type            empty;
    }
}


// ************************************************************************* //
