/*--------------------------------*- C++ -*----------------------------------*\
| =========                 |                                                 |
| \\      /  F ield         | OpenFOAM: The Open Source CFD Toolbox           |
|  \\    /   O peration     | Version:  2106                                  |
|   \\  /    A nd           | Website:  www.openfoam.com                      |
|    \\/     M anipulation  |                                                 |
\*---------------------------------------------------------------------------*/
FoamFile
{
    version     2.0;
    format      ascii;
    arch        "LSB;label=32;scalar=64";
    class       volScalarField;
    location    "0.12";
    object      p;
}
// * * * * * * * * * * * * * * * * * * * * * * * * * * * * * * * * * * * * * //

dimensions      [1 -1 -2 0 0 0 0];

internalField   nonuniform List<scalar> 
32768
(
382.83062
382.831
382.78662
382.70319
382.57943
382.41411
382.20706
381.95832
381.66796
381.33604
380.9626
380.54758
380.09086
379.59237
379.05204
378.46973
377.84525
377.17841
376.46898
375.71671
374.92131
374.08249
373.19994
372.27323
371.30217
370.28597
369.22494
368.11739
366.9646
365.7644
364.51599
363.2248
361.87245
360.49493
359.03406
357.55958
356.01178
354.40495
352.78432
351.06329
349.31433
347.53067
345.64482
343.73826
341.79174
339.74202
337.66741
335.55411
333.34948
331.09987
328.81027
326.45235
324.03959
321.58016
319.0524
316.47062
313.86132
311.18732
308.43457
305.65004
302.83259
299.94726
297.01236
294.04695
291.02385
287.94228
284.83579
281.70168
278.52081
275.2908
272.02312
268.73371
265.41127
262.05224
258.66752
255.25821
251.82419
248.36141
244.87171
241.37838
237.8735
234.33701
230.79182
227.24667
223.69059
220.13378
216.58495
213.03068
209.48279
205.95093
202.40536
198.88239
195.39222
191.90581
188.46578
185.05969
181.64277
178.25857
174.9243
171.60185
168.32126
165.11427
161.9506
158.82029
155.75039
152.72663
149.72897
146.77525
143.8841
141.03758
138.24213
135.52056
132.87852
130.30451
127.79559
125.36968
123.02747
120.71491
118.42561
116.21427
114.09387
112.0371
110.05059
108.13955
106.27232
104.42012
102.59434
100.83606
99.168808
97.582457
96.055527
94.600587
93.278275
92.120463
91.029357
89.696716
88.417615
87.400744
86.300781
85.177054
84.102964
83.182599
82.518175
81.807923
81.098384
80.654802
80.186955
79.502008
78.700022
77.935712
77.229065
76.6467
76.08483
75.261968
74.024138
72.519199
70.997144
69.38919
67.617036
65.654489
63.4459
61.015604
58.359198
55.40153
52.176235
49.069233
46.249788
43.797112
41.553631
37.994297
34.445685
35.265259
36.175553
29.919787
22.522719
33.256449
1.485039
0.90004441
0.97418786
0.89052947
0.74944332
0.65268528
0.58212189
0.52712004
0.48302832
0.4466632
0.41601382
0.38974635
0.36692685
0.34687729
0.32909921
0.31321263
0.29892096
0.28598916
0.27422833
0.26348448
0.25363068
0.24456108
0.23618672
0.22843224
0.22123306
0.21453375
0.20828587
0.20244871
0.19698445
0.19186058
0.18704924
0.1825254
0.17826652
0.17425245
0.17046519
0.16688847
0.1635078
0.16030952
0.15728235
0.15441499
0.15169804
0.14912231
0.14667948
0.14436246
0.1421616
0.14007231
0.1380908
0.13620977
0.13442413
0.13272954
0.1311218
0.12959698
0.12815146
0.12678187
0.12548511
0.12425821
0.12309875
0.12200413
0.12097201
0.12000026
0.11908694
0.11823027
0.11742837
0.11667981
0.11598313
0.11533698
0.11474079
0.11419285
0.11369215
0.11323788
0.11282924
0.11246557
0.1121459
0.11187
0.1116373
0.11144743
0.11130032
0.11119554
0.11113279
0.11111451
374.08642
374.08548
374.04176
373.95905
373.83505
373.66947
373.46228
373.21349
372.92324
372.5914
372.21787
371.80263
371.34563
370.8468
370.30604
369.72321
369.09816
368.43072
367.72066
366.96773
366.17168
365.33216
364.44894
363.52147
362.54976
361.53262
360.47107
359.36225
358.20923
357.00731
355.75918
354.46527
353.11431
351.73191
350.2732
348.79684
347.24321
345.64345
344.01634
342.28894
340.55253
338.75302
336.86619
334.97169
333.00643
330.95787
328.89386
326.76255
324.55611
322.31798
320.01422
317.64771
315.24377
312.77861
310.24055
307.66305
305.04826
302.36039
299.61344
296.83421
294.0001
291.10379
288.17464
285.20669
282.17362
279.09178
275.98348
272.83656
269.64746
266.41845
263.15129
259.85954
256.52781
253.16065
249.77337
246.36104
242.92313
239.45435
235.95908
232.46424
228.95398
225.40893
221.86183
218.31339
214.75408
211.19394
207.63419
204.07382
200.53246
196.99157
193.44136
189.92949
186.42639
182.92918
179.49454
176.07728
172.65649
169.28619
165.94737
162.61958
159.34792
156.14036
152.96571
149.83343
146.76477
143.73631
140.73284
137.78765
134.90954
132.06229
129.25459
126.53695
123.91492
121.34094
118.80891
116.38081
114.04862
111.7357
109.45454
107.26734
105.15302
103.0755
101.06411
99.152471
97.310219
95.487802
93.683943
91.933926
90.260401
88.666129
87.15403
85.73218
84.409383
83.184018
82.012876
80.793649
79.57234
78.390002
77.24147
76.184107
75.231021
74.386911
73.653198
72.944221
72.367315
71.95721
71.513003
70.764211
69.985687
69.404809
68.801057
68.109552
67.351604
66.568531
65.580531
64.221597
62.593579
60.846703
58.986303
56.964763
54.649719
52.081022
49.342438
46.487611
43.393265
40.601097
37.898069
34.309801
31.771955
28.698185
25.355107
26.366163
22.128202
21.298847
35.621377
4.0293327
0.58508277
0.73657543
0.8400509
0.76583732
0.68129208
0.61137334
0.55324862
0.50493517
0.46458377
0.43047927
0.40128244
0.37600074
0.35386719
0.33431568
0.3169114
0.30131073
0.28724158
0.27448585
0.26286635
0.25223737
0.242478
0.23348675
0.22517802
0.21747893
0.21032686
0.20366787
0.19745496
0.19164817
0.18620944
0.18110815
0.17631694
0.17181085
0.16756763
0.16356746
0.15979256
0.1562269
0.152856
0.14966655
0.14664749
0.14378728
0.14107697
0.13850702
0.13606903
0.13375529
0.13156076
0.12947829
0.12749932
0.12562083
0.12383809
0.1221463
0.12054117
0.11901876
0.11757546
0.11620791
0.11491302
0.1136879
0.11253003
0.11143687
0.11040609
0.10943558
0.10852343
0.10766786
0.1068669
0.10611927
0.10542363
0.10477869
0.10418276
0.10363518
0.10313494
0.10268108
0.10227279
0.1019093
0.1015902
0.10131472
0.10108233
0.10089275
0.1007456
0.10064082
0.10057832
0.10056004
365.33337
365.332
365.28834
365.20558
365.08131
364.91539
364.70786
364.45875
364.16811
363.83599
363.46228
363.04691
362.58983
362.09094
361.55012
360.96721
360.34204
359.6744
358.96408
358.21081
357.41435
356.57434
355.69056
354.76242
353.79005
352.77197
351.70981
350.59948
349.44634
348.24177
346.99479
345.69654
344.34813
342.96002
341.5031
340.02247
338.46546
336.87037
335.23153
333.50875
331.77193
329.95639
328.08102
326.18284
324.19687
322.16373
320.09477
317.94179
315.74778
313.50544
311.18244
308.82212
306.41812
303.93205
301.39129
298.82367
296.19098
293.48637
290.74709
287.96403
285.1108
282.21012
279.28333
276.3006
273.25203
270.17261
267.06012
263.89776
260.69996
257.46425
254.19206
250.89381
247.54612
244.17337
240.78543
237.36365
233.91646
230.43621
226.93247
223.43623
219.90838
216.34893
212.80766
209.25276
205.68367
202.11843
198.54437
194.97859
191.43664
187.87175
184.32431
180.82224
177.28852
173.79606
170.3721
166.9217
163.50127
160.15357
156.79959
153.46612
150.208
146.99095
143.80328
140.67743
137.61164
134.56659
131.5457
128.60802
125.75348
122.92683
120.12975
117.40699
114.77099
112.198
109.68973
107.27837
104.92013
102.583
100.32341
98.147795
96.018985
93.957086
91.979695
90.068791
88.20027
86.369031
84.588326
82.871342
81.216585
79.635438
78.143102
76.739113
75.399618
74.102951
72.855519
71.641185
70.453812
69.300112
68.196272
67.185293
66.272406
65.457813
64.727492
64.035575
63.441749
62.985895
62.537512
61.997691
61.467053
60.988646
60.488964
59.91931
59.247686
58.401099
57.277497
55.838082
54.193393
52.406977
50.402394
48.391636
46.039684
43.567501
40.990456
38.252084
34.673719
31.362342
28.890352
24.648614
24.842518
22.013144
12.789577
8.5435792
13.534797
31.887216
3.8531121
0.06396722
0.44669477
0.62135153
0.65640611
0.63961751
0.59980054
0.55480741
0.51178773
0.47294327
0.43862231
0.4084802
0.38198406
0.35858696
0.33782654
0.31930287
0.30267841
0.28768078
0.27408673
0.26171114
0.25039984
0.24002371
0.23047395
0.22165774
0.21349674
0.20592354
0.19887912
0.19231261
0.18617984
0.18044088
0.17506374
0.17001742
0.16527418
0.16081032
0.1566046
0.15263787
0.14889289
0.14535414
0.1420076
0.13884148
0.13584189
0.13299976
0.13030503
0.1277493
0.12532466
0.12302344
0.12083954
0.1187661
0.11679747
0.11492826
0.11315375
0.11146944
0.10987116
0.10835507
0.1069176
0.10555548
0.10426568
0.10304552
0.10189171
0.10080223
0.099774976
0.098807761
0.097898585
0.097045609
0.096247464
0.095502395
0.094808982
0.094165977
0.093572012
0.093026157
0.092527456
0.092074993
0.091667924
0.091305547
0.09098729
0.090712541
0.090480865
0.090291808
0.090145014
0.090040381
0.089978034
0.089959451
356.57166
356.56991
356.5261
356.44311
356.31846
356.15207
355.94401
355.69432
355.40304
355.07017
354.69564
354.27938
353.82131
353.32133
352.77932
352.19513
351.5686
350.89954
350.18772
349.4329
348.6348
347.7931
346.90754
345.97754
345.00321
343.98311
342.91875
341.8062
340.65068
339.44339
338.19451
336.89191
335.54355
334.14849
332.6922
331.20503
329.64339
328.04905
326.39971
324.67604
322.93631
321.10943
319.23281
317.33206
315.33112
313.29735
311.22425
309.05715
306.85874
304.60982
302.2755
299.90951
297.49752
294.99286
292.44822
289.87976
287.22639
284.50585
281.76293
278.97077
276.09993
273.19201
270.25685
267.24988
264.18604
261.10679
257.98204
254.80159
251.59036
248.3352
245.05081
241.74472
238.37775
234.997
231.60065
228.16025
224.70193
221.20324
217.68587
214.18716
210.63115
207.05416
203.5198
199.94574
196.3629
192.79215
189.19376
185.62224
182.06809
178.46992
174.93696
171.43551
167.86639
164.38622
160.96155
157.47686
154.05385
150.7084
147.35361
144.02512
140.7722
137.54926
134.33084
131.19736
128.15245
125.10018
122.07396
119.15665
116.28777
113.44081
110.70878
108.05246
105.36691
102.70427
100.20596
97.865995
95.524518
93.171129
90.936527
88.791427
86.639434
84.530387
82.565895
80.717199
78.872621
77.016786
75.234954
73.551774
71.911348
70.315035
68.814755
67.425002
66.112275
64.834614
63.587048
62.379113
61.211498
60.087969
59.021697
58.040408
57.158085
56.374375
55.654577
54.973591
54.373174
53.877835
53.454355
53.074983
52.752461
52.458892
52.12111
51.677921
51.080419
50.238369
49.103954
47.669265
45.938611
44.09129
42.224032
39.941582
37.615836
35.107851
32.309331
29.810045
25.126003
20.950323
20.842259
13.895236
7.7380983
7.0684576
3.7172678
13.841213
8.763411
1.0756292
-0.12951072
0.069765623
0.30906361
0.44927588
0.51077286
0.52615926
0.5145952
0.49068501
0.46249552
0.43391242
0.40670585
0.38156091
0.35863587
0.33784904
0.31903032
0.30197613
0.28648634
0.27237952
0.2594949
0.24769158
0.23684743
0.22685682
0.21762879
0.20908165
0.20114801
0.19377001
0.186893
0.18047085
0.17446335
0.16883445
0.16355339
0.15859132
0.15392277
0.14952532
0.14537878
0.14146497
0.13776743
0.13427129
0.13096312
0.12783031
0.12486252
0.12204965
0.11938129
0.11684944
0.1144466
0.112166
0.10999984
0.10794225
0.10598879
0.1041339
0.10237248
0.10070017
0.099112957
0.097607072
0.096179029
0.094825584
0.093543719
0.092330583
0.091183854
0.090101007
0.089079725
0.088117968
0.087213844
0.086365574
0.085571656
0.084830466
0.084140598
0.083500784
0.082909919
0.082366901
0.081870724
0.081420513
0.081015487
0.080654919
0.080338164
0.080064693
0.079834066
0.079645851
0.079499728
0.079395588
0.07933362
0.079315178
347.80142
347.79931
347.75517
347.67173
347.54655
347.37952
347.17073
346.92024
346.62807
346.29421
345.91861
345.50121
345.04194
344.54067
343.99729
343.41166
342.7836
342.11293
341.39942
340.64282
339.84286
338.9992
338.11158
337.17944
336.20281
335.18034
334.11339
332.99818
331.8398
330.62936
329.37763
328.07093
326.72023
325.31969
323.86133
322.36766
320.80198
319.20411
317.54476
315.82137
314.07295
312.23539
310.36037
308.4481
306.43369
304.40054
302.3177
300.13427
297.92996
295.67428
293.32627
290.94814
288.52556
286.00609
283.45233
280.87371
278.20138
275.46543
272.71179
269.90735
267.01736
264.09738
261.14768
258.1176
255.03778
251.94946
248.80806
245.61067
242.38094
239.09839
235.8014
232.48266
229.09093
225.70622
222.2892
218.82105
215.35587
211.83035
208.29976
204.7998
201.20965
197.62048
194.07988
190.4711
186.88305
183.29525
179.66747
176.10229
172.52367
168.88976
165.38144
161.86061
158.25352
154.80682
151.35746
147.8283
144.4372
141.08221
137.67902
134.36997
131.14041
127.8935
124.67275
121.55872
118.49233
115.41189
112.41941
109.55932
106.67916
103.76525
101.01744
98.437901
95.841116
93.170312
90.587605
88.182164
85.865199
83.607609
81.435832
79.291408
77.15004
75.045983
73.026812
71.135187
69.323764
67.514987
65.741845
64.058844
62.457242
60.914898
59.429493
58.008578
56.632757
55.323195
54.13557
53.008763
51.887132
50.828671
49.860722
48.924388
48.009786
47.166687
46.400783
45.70604
45.103948
44.602071
44.244533
44.067296
44.047142
44.104113
44.037613
43.700863
43.197921
42.386829
41.162499
39.653681
37.88519
36.12488
34.218767
31.246857
29.070152
26.663362
22.550932
22.780578
17.204388
7.7655612
8.5222134
11.232571
10.888016
1.6084056
0.69804362
-0.056523589
-0.25593596
-0.2046413
-0.099677574
0.057302824
0.22025867
0.33729431
0.40204236
0.43040764
0.43531015
0.42649208
0.41048109
0.39124797
0.37107211
0.35118752
0.33221521
0.31442762
0.29790805
0.28263915
0.26855459
0.25556746
0.24358514
0.2325167
0.22227728
0.21278959
0.20398167
0.19579179
0.18816285
0.18104194
0.17438673
0.16815736
0.16231791
0.15683635
0.15168432
0.1468361
0.14226856
0.13796098
0.13389466
0.13005266
0.12641955
0.12298137
0.11972551
0.11663997
0.11371502
0.11094135
0.10830873
0.10580928
0.103436
0.10118176
0.099040592
0.097006531
0.095074276
0.093238675
0.091495071
0.089839226
0.088267209
0.086775363
0.085360295
0.084018838
0.082748057
0.08154518
0.080407946
0.079333921
0.078320788
0.077366561
0.0764694
0.07562758
0.074839534
0.074103758
0.073418884
0.072783648
0.072196967
0.071657725
0.071164953
0.070717829
0.070315592
0.069957541
0.069642942
0.069371268
0.069142136
0.068955157
0.068809997
0.068706593
0.068645119
0.068626919
339.02285
339.02032
338.97572
338.89167
338.76578
338.59795
338.38826
338.13676
337.84347
337.50838
337.13146
336.71264
336.25185
335.74897
335.20388
334.61643
333.98646
333.31375
332.5981
331.83924
331.03689
330.19073
329.30046
328.36555
327.38594
326.36045
325.2901
324.17163
323.00932
321.79523
320.53924
319.22797
317.87344
316.46662
315.00476
313.50409
311.93232
310.32972
308.65982
306.93346
305.17554
303.32689
301.45039
299.52137
297.49841
295.46034
293.35933
291.16507
288.95365
286.67965
284.31972
281.93095
279.48555
276.95436
274.39065
271.79048
269.09548
266.34677
263.5798
260.75351
257.84287
254.90544
251.9303
248.88243
245.78965
242.67889
239.5087
236.29556
233.04297
229.72882
226.42282
223.08226
219.65693
216.26479
212.81365
209.31805
205.84613
202.28248
198.74503
195.23423
191.59831
188.00825
184.44879
180.79192
177.20891
173.58375
169.92672
166.37664
162.74602
159.10273
155.62315
152.03919
148.4099
144.99248
141.5039
137.93669
134.55231
131.21785
127.79422
124.45421
121.26306
117.9922
114.71342
111.6704
108.62527
105.45828
102.48392
99.68156
96.801282
93.919851
91.141417
88.442364
85.858687
83.373008
80.909527
78.412721
75.928668
73.651278
71.595335
69.555982
67.436539
65.358193
63.36975
61.396112
59.448038
57.650212
56.009287
54.385197
52.777178
51.269688
49.830614
48.443189
47.084447
45.733494
44.496091
43.417215
42.398293
41.366366
40.378827
39.49491
38.674273
37.819237
36.959175
36.222626
35.646
35.224434
34.999072
34.947442
35.10509
35.542562
35.982678
36.010757
35.492419
34.719515
33.52145
32.05848
30.007753
27.820726
26.181911
22.612801
20.702124
19.425254
12.717736
9.2209557
7.0814248
5.4981983
7.9606107
1.1443246
-0.26778989
-0.22708753
-0.20090501
-0.23088327
-0.22847893
-0.14925005
-0.052190163
0.058103694
0.16953158
0.26051451
0.31813643
0.35081844
0.36473505
0.36588467
0.3590296
0.3475388
0.33364398
0.31875403
0.30372244
0.28904293
0.27498434
0.26167705
0.24916886
0.23745905
0.22652165
0.21631193
0.20678645
0.19789908
0.18959716
0.18183822
0.17457529
0.16776928
0.16138666
0.15539435
0.14976195
0.14446209
0.13947005
0.13476332
0.13032143
0.12612584
0.1221596
0.11840742
0.11485493
0.11148936
0.10829911
0.10527366
0.10240297
0.099677137
0.097089017
0.094630932
0.092295288
0.090075386
0.08796567
0.085960632
0.084054925
0.082243764
0.080522727
0.078887721
0.077334955
0.075860902
0.074462288
0.073136076
0.071879449
0.070689798
0.069564631
0.068501606
0.067498739
0.06655406
0.065665736
0.064832082
0.064051549
0.063322691
0.062644178
0.062014784
0.061433405
0.060899
0.060410635
0.059967444
0.059568729
0.059213729
0.058901831
0.058632542
0.05840541
0.058220036
0.058076162
0.05797366
0.057912783
0.0578948
330.23623
330.23324
330.18804
330.10324
329.97648
329.80767
329.59688
329.34417
329.04954
328.713
328.3345
327.91399
327.45138
326.94657
326.39944
325.80982
325.17755
324.50243
323.78422
323.02267
322.21748
321.36833
320.47491
319.5367
318.55357
317.52447
316.45011
315.32774
314.16078
312.94244
311.68115
310.36495
309.00497
307.5917
306.12491
304.61594
303.03824
301.42793
299.74711
298.0176
296.24564
294.38712
292.5071
290.5566
288.52669
286.4809
284.35673
282.15329
279.93019
277.63358
275.26435
272.85784
270.38298
267.84685
265.26721
262.63364
259.91613
257.15888
254.37301
251.51099
248.58223
245.62736
242.61624
239.55035
236.44322
233.30417
230.09409
226.86087
223.5857
220.24243
216.92418
213.54422
210.0853
206.68095
203.18264
199.66784
196.18469
192.5766
189.03903
185.49186
181.80413
178.22099
174.62073
170.92686
167.35757
163.67608
160.00445
156.45899
152.7543
149.11282
145.65331
141.98709
138.36152
134.95955
131.39521
127.85068
124.49009
121.08503
117.66661
114.36305
111.14079
107.85368
104.58194
101.52439
98.465758
95.3059
92.359342
89.547332
86.613966
83.799211
81.148799
78.391067
75.660559
73.195845
70.906969
68.527177
66.039456
63.644263
61.460173
59.44117
57.416685
55.394777
53.509007
51.641051
49.620733
47.655472
45.991126
44.45262
42.908895
41.439012
40.039504
38.654924
37.317459
36.066478
34.892939
33.805919
32.840942
31.926496
30.947798
29.946891
29.0404
28.171704
27.240311
26.399317
25.785131
25.471086
25.558629
25.775712
26.352511
27.291362
27.701234
28.182467
28.457997
27.707614
25.903629
24.292042
21.906684
19.256614
19.602596
13.170003
7.0990752
8.0760904
7.6957316
12.061227
5.331062
1.7258212
0.12777185
-0.34661991
-0.24765427
-0.22806401
-0.22960663
-0.2071759
-0.16962421
-0.10630225
-0.032482195
0.050153348
0.13273059
0.20177911
0.25207141
0.28485658
0.30311479
0.31042273
0.31003596
0.30455583
0.29590669
0.28544014
0.27407
0.2623944
0.25079293
0.23949738
0.22864183
0.2182963
0.2084909
0.19922812
0.19049944
0.18228282
0.1745521
0.16727824
0.16043442
0.15399368
0.14792779
0.14221124
0.13682038
0.13173306
0.12692876
0.1223885
0.11809474
0.11403137
0.11018349
0.10653803
0.10308141
0.099802107
0.096690083
0.093735574
0.090929077
0.088261984
0.085727414
0.083318361
0.081027583
0.078849324
0.076777544
0.074806716
0.072932739
0.071150998
0.069457124
0.067847194
0.066317601
0.064864979
0.063486199
0.062178355
0.060938734
0.059764839
0.058654184
0.05760467
0.056614297
0.055681171
0.054803529
0.05397974
0.0532083
0.052487813
0.051816993
0.051194652
0.050619708
0.050091161
0.049608101
0.049169699
0.048775178
0.048423912
0.048115334
0.047848927
0.047624215
0.047440819
0.047298482
0.0471971
0.047136921
0.047119182
321.4419
321.43837
321.39247
321.30677
321.17899
321.00902
320.79696
320.54283
320.24665
319.90842
319.52809
319.10561
318.6409
318.13384
317.58433
316.99219
316.35724
315.6793
314.95811
314.19342
313.38493
312.5323
311.63521
310.69317
309.70594
308.67263
307.59364
306.4667
305.29438
304.07107
302.80364
301.48167
300.11536
298.6946
297.2219
295.70372
294.11849
292.49973
290.80664
289.07188
287.28473
285.41583
283.52792
281.55517
279.51827
277.46102
275.30903
273.0979
270.86153
268.53591
266.15258
263.72956
261.22723
258.67492
256.07308
253.40817
250.66938
247.89616
245.08302
242.18017
239.23622
236.26036
233.20602
230.12232
226.99179
223.81235
220.56705
217.31537
214.00752
210.63381
207.29433
203.85957
200.37785
196.95077
193.39595
189.87409
186.36141
182.70687
179.175
175.56209
171.83291
168.25815
164.5884
160.87399
157.30441
153.55321
149.895
146.33426
142.5437
138.93303
135.42136
131.67324
128.11786
124.70729
121.0504
117.50997
114.21642
110.77781
107.24286
104.01875
100.82766
97.388552
94.19805
91.226639
88.027097
84.87914
82.045777
79.171121
76.195316
73.424813
70.835204
68.144246
65.369941
62.815636
60.521379
58.20385
55.838694
53.551409
51.300423
49.127483
47.072127
45.094177
43.240098
41.483172
39.62175
37.733777
35.995859
34.374583
32.842488
31.336174
29.935633
28.643615
27.331043
26.080954
25.05413
24.114618
23.16642
22.231191
21.282834
20.308344
19.319372
18.403458
17.578705
16.690704
15.810027
15.153012
15.463376
15.997823
17.270245
18.962042
20.02966
21.082055
21.567849
20.792232
18.789215
17.540657
13.778826
9.430945
8.4804968
7.3018475
11.398989
3.3235075
0.38518062
-0.28396453
-0.19024722
-0.079940991
-0.25292304
-0.27741991
-0.23597149
-0.21726023
-0.20322547
-0.17596397
-0.13734741
-0.086874247
-0.027075279
0.037663026
0.10078899
0.15575017
0.19888036
0.22974019
0.24958243
0.26042023
0.26437766
0.26335016
0.25887847
0.25214229
0.24400803
0.23509243
0.22582323
0.21649014
0.20728411
0.19832725
0.18969281
0.18142547
0.17354224
0.16604428
0.15893026
0.15218917
0.14580752
0.13976808
0.13405263
0.12864339
0.12352303
0.11867468
0.11408222
0.10973035
0.10560468
0.10169171
0.097978869
0.094454012
0.091106747
0.087927188
0.084905274
0.082032278
0.079300019
0.076701177
0.074228833
0.071875867
0.069636678
0.067505511
0.065477206
0.063546932
0.061710083
0.05996265
0.058300357
0.056719568
0.055216914
0.05378922
0.052433518
0.051147042
0.049927207
0.048771609
0.047677965
0.046644217
0.045668431
0.044748795
0.043883623
0.043071352
0.042310536
0.041599833
0.040938002
0.040323901
0.039756483
0.039234784
0.038757922
0.038325098
0.037935565
0.037588705
0.037284008
0.037020925
0.036799008
0.036617925
0.036477374
0.036377326
0.036317951
0.036300518
312.64025
312.63612
312.58941
312.50267
312.37372
312.20243
311.9889
311.73316
311.43521
311.09505
310.71264
310.28793
309.82082
309.31121
308.75898
308.16396
307.52597
306.84481
306.12024
305.35197
304.53972
303.68314
302.78188
301.83547
300.84362
299.80551
298.72131
297.58913
296.41083
295.18176
293.9075
292.57895
291.2053
289.7764
288.29645
286.76818
285.17475
283.54511
281.84034
280.09704
278.29321
276.415
274.51327
272.51935
270.4747
268.39912
266.22036
264.00231
261.74232
259.3898
256.9925
254.54245
252.01585
249.44197
246.81448
244.11303
241.35467
238.55799
235.71225
232.76795
229.80155
226.80259
223.70697
220.59551
217.43288
214.20833
210.93302
207.65652
204.30763
200.9075
197.52676
194.03019
190.54456
187.07267
183.46247
179.9332
176.3643
172.67392
169.13171
165.44998
161.70566
158.12648
154.3693
150.65329
147.04735
143.22411
139.56484
135.98134
132.12104
128.55053
124.98817
121.1378
117.64024
114.21745
110.49964
106.95583
103.65352
100.22043
96.640359
93.388031
90.261434
86.778125
83.533862
80.622075
77.399547
74.249346
71.511466
68.575257
65.519036
62.832939
60.267201
57.5945
54.908806
52.32401
49.889347
47.582302
45.330856
43.138291
40.988124
38.830353
36.675393
34.667224
32.809357
30.977277
29.132345
27.461208
25.842889
24.155235
22.670024
21.195445
19.636444
18.303011
17.159859
15.989844
15.003818
14.188226
13.416272
12.531731
11.483496
10.429331
9.4331756
8.3004731
7.26378
6.5551054
5.4731881
4.7205335
5.1993816
6.0237898
7.8761529
10.044462
12.307926
14.694534
16.28265
15.230673
9.5702613
6.3876634
4.5655934
10.134091
5.0207846
0.91064959
-0.37946407
-0.28102336
-0.20586088
-0.22415289
-0.22820202
-0.20315258
-0.22321042
-0.23395252
-0.21987409
-0.2050042
-0.18551404
-0.15810631
-0.12190486
-0.078275878
-0.029091406
0.022626951
0.07289209
0.11777377
0.15473603
0.18297888
0.20289235
0.21554982
0.22228995
0.22444168
0.22318158
0.21948059
0.21410306
0.20763004
0.2004922
0.19300229
0.18538228
0.17778736
0.17032283
0.16305971
0.15603979
0.14928915
0.1428228
0.13664512
0.13075419
0.12514415
0.1198059
0.11472913
0.10990277
0.1053152
0.10095477
0.096809942
0.092869545
0.089122779
0.085559421
0.082169478
0.078944371
0.075875295
0.072953648
0.070171868
0.067522872
0.06500016
0.062596966
0.06030757
0.058126712
0.056049025
0.054070066
0.052185483
0.050390683
0.04868168
0.047054953
0.045507122
0.044034983
0.042635546
0.041306017
0.04004379
0.038846427
0.037711651
0.03663733
0.03562149
0.034662287
0.033757997
0.032907017
0.032107856
0.031359143
0.030659589
0.030008001
0.029403286
0.028844447
0.028330556
0.027860773
0.027434308
0.027050488
0.026708683
0.026408373
0.026149096
0.025930396
0.025751917
0.025613444
0.025514866
0.025456404
0.025439323
303.83173
303.82693
303.77931
303.69141
303.56113
303.38836
303.17319
302.91563
302.6157
302.27339
301.88865
301.46143
300.99163
300.47917
299.92389
299.32565
298.68425
297.99949
297.27111
296.49885
295.6824
294.82139
293.91548
292.96419
291.96717
290.92368
289.83369
288.69563
287.51073
286.27521
284.99335
283.65749
282.27555
280.83767
279.34955
277.80984
276.20783
274.5652
272.84837
271.09424
269.27205
267.38458
265.46459
263.45058
261.39511
259.29701
257.09219
254.8632
252.57787
250.19331
247.78158
245.30125
242.74904
240.14584
237.48901
234.75243
231.97292
229.1449
226.25209
223.27523
220.2902
217.24892
214.11236
210.96875
207.76511
204.49839
201.19762
197.87622
194.47683
191.06025
187.62428
184.06473
180.58464
177.03976
173.39373
169.84396
166.18954
162.48022
158.89373
155.15483
151.40601
147.79722
143.98802
140.25534
136.59271
132.7143
129.03371
125.38819
121.48205
117.91921
114.30878
110.43942
106.96046
103.44574
99.67822
96.188551
92.869051
89.314304
85.830175
82.617493
79.303287
75.924037
72.788982
69.730938
66.466855
63.384149
60.64861
57.755912
54.716407
51.988207
49.391082
46.693458
44.162934
41.795735
39.258083
36.713842
34.486573
32.390336
30.244571
28.253258
26.209916
24.160441
22.387829
20.459931
18.340194
16.537779
15.214505
13.831547
12.346835
10.95123
9.3895303
7.7846665
6.5619995
5.2602642
4.1339856
3.4568847
3.5024516
3.3397939
2.7722025
2.0741523
1.5447791
1.1830127
0.77523354
0.32261762
-0.055492279
-0.28012668
-0.36272611
-0.30503217
0.17460724
1.4862265
4.6263148
9.8553213
13.090892
10.69596
11.594082
5.1934104
0.20084322
-0.43522589
-0.37703344
-0.29111871
-0.30640064
-0.3032644
-0.27939667
-0.25653896
-0.24124681
-0.22788923
-0.22478397
-0.22207125
-0.21078023
-0.19587333
-0.17487712
-0.14752846
-0.11486391
-0.077131744
-0.036014755
0.0064587883
0.047677534
0.08512331
0.11702647
0.14258834
0.16180844
0.17522246
0.18365055
0.18800014
0.1891418
0.18784457
0.18475112
0.18037997
0.17513476
0.16932622
0.16318686
0.15688853
0.15055644
0.14428184
0.13812473
0.13212746
0.12632097
0.12072095
0.11533796
0.11017655
0.10523462
0.1005089
0.095994436
0.091684754
0.087572538
0.083650026
0.079909226
0.076342102
0.072940767
0.069697544
0.066605135
0.063656691
0.060844654
0.058162606
0.055604712
0.053165402
0.050838634
0.048619259
0.04650273
0.0444845
0.042560372
0.040726092
0.038977565
0.037310983
0.035723663
0.034212407
0.032774158
0.031406122
0.0301057
0.028870459
0.02769812
0.026586552
0.025533757
0.024537873
0.02359716
0.022709991
0.021874852
0.021090326
0.020355132
0.019668037
0.019027898
0.018433669
0.017884424
0.017379266
0.016917374
0.016498056
0.016120589
0.015784475
0.015489127
0.015234081
0.015018961
0.014843423
0.014707229
0.014610308
0.014552866
0.014536184
295.01684
295.0113
294.96267
294.87348
294.74174
294.56733
294.35033
294.09078
293.78866
293.44396
293.05664
292.62664
292.15388
291.63825
291.07961
290.4778
289.83263
289.14389
288.41132
287.63465
286.81355
285.94767
285.03662
284.07995
283.07725
282.02784
280.9315
279.78693
278.59485
277.35212
276.06208
274.71803
273.32707
271.87938
270.3819
268.83014
267.21815
265.56149
263.83191
262.06393
260.22351
258.32509
256.38276
254.3506
252.28143
250.15248
247.92954
245.68187
243.36337
240.95324
238.52057
236.00529
233.42508
230.79015
228.09846
225.33132
222.51571
219.65544
216.71422
213.70277
210.69841
207.59584
204.42433
201.23985
197.99235
194.69062
191.35562
187.96921
184.51976
181.08435
177.59022
173.97387
170.48364
166.85225
163.17909
159.59873
155.87153
152.12324
148.49093
144.69572
140.8952
137.25263
133.40023
129.64545
125.94699
122.00899
118.31738
114.62423
110.65608
107.06101
103.3916
99.460684
96.030934
92.484326
88.597592
85.141892
81.885338
78.194209
74.704884
71.652654
68.211735
64.702557
61.695729
58.662044
55.321135
52.268985
49.506661
46.541474
43.646209
41.068928
38.397847
35.588587
33.058212
30.828727
28.53406
25.937301
23.497666
21.364129
19.091528
17.084395
15.243048
13.232908
11.582398
9.9346597
7.6244146
5.4788983
3.8486791
2.9620743
2.5066169
2.0579691
1.5350934
1.018813
0.56075097
0.14675933
-0.12065225
-0.37460939
-0.47527088
-0.48214451
-0.497409
-0.52248114
-0.54734692
-0.56937184
-0.58720683
-0.59821957
-0.60390235
-0.60245938
-0.59413115
-0.58780605
-0.4886833
-0.43202022
-0.65207808
0.8680366
5.3778987
4.8694868
0.352789
-0.49508023
-0.40208702
-0.39509943
-0.39451813
-0.3654258
-0.33577367
-0.3126461
-0.29232259
-0.2718047
-0.25473702
-0.24097139
-0.2307655
-0.22055555
-0.20712899
-0.19036511
-0.16903237
-0.14355844
-0.11398661
-0.081083134
-0.046012413
-0.010284677
0.024341918
0.056187703
0.083992383
0.10706817
0.12525504
0.13879126
0.14816543
0.15398542
0.15688201
0.15744808
0.15620863
0.15360463
0.15000205
0.14569371
0.14090522
0.13581521
0.13055625
0.12523064
0.11991271
0.11465911
0.10950982
0.10449262
0.099626999
0.094922436
0.090387037
0.086024162
0.081833935
0.077814526
0.07396273
0.07027441
0.066744635
0.063368044
0.06013912
0.057052146
0.05410157
0.051281633
0.048586999
0.046013135
0.043553831
0.04120399
0.038959611
0.03681662
0.034770146
0.032816295
0.030951145
0.029171378
0.027473108
0.025853441
0.024309439
0.022838206
0.021437022
0.020103343
0.018834784
0.017629102
0.016484189
0.015398067