/*--------------------------------*- C++ -*----------------------------------*\
| =========                 |                                                 |
| \\      /  F ield         | OpenFOAM: The Open Source CFD Toolbox           |
|  \\    /   O peration     | Version:  2106                                  |
|   \\  /    A nd           | Website:  www.openfoam.com                      |
|    \\/     M anipulation  |                                                 |
\*---------------------------------------------------------------------------*/
FoamFile
{
    version     2.0;
    format      ascii;
    arch        "LSB;label=32;scalar=64";
    class       volScalarField;
    location    "0.023";
    object      p;
}
// * * * * * * * * * * * * * * * * * * * * * * * * * * * * * * * * * * * * * //

dimensions      [1 -1 -2 0 0 0 0];

internalField   nonuniform List<scalar> 
1024
(
-11.831182
-11.377174
-10.486614
-9.1942809
-7.5499512
-5.6176135
-3.4712243
-1.1917141
1.1322339
3.410291
5.5542509
7.4822135
9.1206431
10.407728
11.294004
11.745836
11.745819
11.293984
10.407723
9.1205904
7.4820982
5.5540926
3.4100964
1.1320461
-1.1918847
-3.4713628
-5.6177071
-7.5500199
-9.1943304
-10.486642
-11.377181
-11.831201
-12.28378
-11.812227
-10.887504
-9.5449977
-7.8374353
-5.8315976
-3.6043636
-1.2365282
1.1777394
3.5437086
5.7691687
7.7706044
9.4717767
10.807743
11.728202
12.197204
12.197202
11.728204
10.807734
9.4717299
7.7705042
5.7689957
3.5434626
1.1775417
-1.2366836
-3.6045209
-5.8316757
-7.8374875
-9.5450433
-10.88754
-11.812249
-12.283763
-13.203254
-12.695997
-11.701277
-10.25747
-8.4213982
-6.2651386
-3.8753331
-1.3241553
1.2708783
3.8157908
6.2055225
8.355565
10.183713
11.619998
12.609319
13.113498
13.113505
12.609342
11.620017
10.183715
8.3555021
6.2053344
3.8154024
1.2706727
-1.3242838
-3.8756449
-6.2651822
-8.4213847
-10.257456
-11.701268
-12.695983
-13.203248
-14.619865
-14.057586
-12.954979
-11.355069
-9.3198583
-6.9273113
-4.2655984
-1.4562919
1.4135051
4.2401096
6.8767111
9.2556601
11.279897
12.870329
13.965633
14.524254
14.524271
13.965684
12.870404
11.279982
9.2557104
6.8765738
4.2391921
1.4133764
-1.4561493
-4.2651425
-6.9270979
-9.3197228
-11.354973
-12.954915
-14.057543
-14.619853
-16.551328
-15.915096
-14.66758
-12.856686
-10.552423
-7.8436471
-4.8350365
-1.6475766
1.5985951
4.7703109
7.7819019
10.484778
12.781504
14.585305
15.827464
16.460925
16.460955
15.827554
14.585454
12.781721
10.485092
7.7824428
4.7716334
1.5990931
-1.6471765
-4.834619
-7.8433279
-10.552183
-12.85651
-14.667457
-15.915021
-16.551304
-19.121096
-18.385161
-16.941995
-14.847843
-12.184169
-9.0543979
-5.5800044
-1.8961716
1.8560658
5.5315689
8.9988073
12.118206
14.770124
16.853287
18.288047
19.019499
19.019541
18.288174
16.853501
14.770433
12.118634
8.9994061
5.5323983
1.856776
-1.8956181
-5.5795324
-9.0540085
-12.183858
-14.847605
-16.941827
-18.38506
-19.121063
-22.41289
-21.549028
-19.855233
-17.39799
-14.273462
-10.603465
-6.530482
-2.2119934
2.1863971
6.4967567
10.556897
14.210312
17.316836
19.757436
21.438523
22.295564
22.295618
21.438685
19.757706
17.317216
14.210807
10.557516
6.4974857
2.1871298
-2.2113642
-6.5299395
-10.603005
-14.273083
-17.397694
-19.855021
-21.5489
-22.412847
-26.551789
-25.526745
-23.517242
-20.602743
-16.898013
-12.548112
-7.7221564
-2.6066424
2.6024816
7.70722
12.513837
16.838746
20.516567
23.40631
25.396943
26.411852
26.411918
25.39714
23.406634
20.517009
16.839299
12.514484
7.7079303
2.6031965
-2.605973
-7.7215508
-12.547581
-16.897566
-20.602388
-23.516985
-25.526591
-26.551737
-31.695499
-30.469547
-28.066643
-24.582648
-20.155792
-14.960312
-9.1986185
-3.0937934
3.1207459
9.2098826
14.942934
20.101514
24.488774
27.936399
30.311599
31.522673
31.522753
30.311834
27.936783
24.489289
20.102139
14.943639
9.2106305
3.1214994
-3.093067
-9.1979404
-14.959701
-20.155271
-24.582228
-28.066338
-30.469363
-31.695438
-38.040057
-36.565298
-33.67539
-29.48684
-24.167434
-17.928173
-11.012763
-3.6897462
3.7614709
11.061337
17.934624
24.119743
29.381144
33.516549
36.366018
37.819081
37.819177
36.366301
33.517009
29.38175
24.120466
17.93542
11.062162
3.7622987
-3.6889394
-11.011994
-17.927465
-24.166824
-29.486343
-33.67503
-36.565083
-38.039985
-45.828743
-44.046815
-40.556165
-35.499262
-29.081194
-21.559136
-13.227836
-4.4127534
4.550852
13.331163
21.600202
29.042789
35.376011
40.355366
43.787103
45.537388
45.537505
43.787447
40.355927
35.376741
29.043647
21.601127
13.332097
4.5517801
-4.4118433
-13.226951
-21.558306
-29.080476
-35.49867
-40.555739
-44.046568
-45.82866
-55.359757
-53.198951
-48.96813
-42.842631
-35.075267
-25.981785
-15.919258
-5.2844108
5.5191217
16.100556
26.071679
35.050024
42.694904
48.708125
52.85351
54.968581
54.968726
52.853937
48.70883
42.695797
35.051057
26.072772
16.101631
5.5201832
-5.2833699
-15.918223
-25.980793
-35.074407
-42.841909
-48.967615
-53.198666
-55.359659
-67.356431
-64.725641
-59.575091
-52.115475
-42.65495
-31.577795
-19.316753
-6.3723459
6.7657133
19.617087
31.740541
42.652832
51.942279
59.24726
64.281183
66.848521
66.848688
64.281704
59.248175
51.943449
42.654183
31.741907
19.618283
6.7667882
-6.3712451
-19.315564
-31.576601
-42.653927
-52.114623
-59.574537
-64.72538
-67.356349
-79.91778
-76.751303
-70.561917
-61.617238
-50.308127
-37.118155
-22.583825
-7.3783663
8.0565288
23.145695
37.450616
50.359973
61.378248
70.06048
76.051823
79.111799
79.111992
76.052435
70.061589
61.379653
50.36159
37.452251
23.147103
8.0576294
-7.3770506
-22.582392
-37.116736
-50.306952
-61.616244
-70.561319
-76.751062
-79.917703
-100.18693
-96.234368
-88.513205
-77.345036
-63.226578
-46.754475
-28.50322
-9.4061084
9.945537
29.054087
47.08355
63.256009
77.03505
87.880439
95.352087
99.16865
99.168818
95.352781
87.882066
77.037063
63.258351
47.085808
29.055719
9.9472218
-9.4046861
-28.501385
-46.752448
-63.224935
-77.343512
-88.51248
-96.234311
-100.18692
-98.647517
-95.362009
-88.803776
-78.961643
-65.93405
-49.899549
-31.112763
-10.214096
11.824697
33.842876
54.932019
73.955807
90.227848
103.06956
111.93148
116.4652
116.46538
111.93235
103.07169
90.230419
73.958667
54.934709
33.844682
11.826551
-10.212233
-31.11079
-49.897579
-65.932498
-78.960289
-88.803228
-95.362161
-98.647556
116.19557
111.67388
102.83472
90.02391
73.789483
54.809443
33.769376
11.800597
-10.186602
-31.034842
-49.770174
-65.76004
-78.750447
-88.564557
-95.104705
-98.381308
-98.381362
-95.105325
-88.566104
-78.752336
-65.762171
-49.771992
-31.035924
-10.18712
11.800601
33.768415
54.807873
73.788058
90.022426
102.83414
111.67403
116.19563
98.888718
95.084184
87.635501
76.821816
63.08198
46.954894
28.97524
9.9202065
-9.3780781
-28.419426
-46.620511
-63.045978
-77.125252
-88.263649
-95.965462
-99.908508
-99.908651
-95.966107
-88.265231
-77.127174
-63.048205
-46.62264
-28.42067
-9.3788785
9.9204923
28.974029
46.953284
63.08063
76.82052
87.634905
95.084176
98.888728
78.809238
75.761438
69.79356
61.14488
50.168822
37.308876
23.058669
8.0271308
-7.3463857
-22.491085
-36.971169
-50.112146
-61.379731
-70.292132
-76.459698
-79.615331
-79.615507
-76.460275
-70.293217
-61.381088
-50.113701
-36.972693
-22.492293
-7.3477792
8.0248122
23.057338
37.307716
50.167885
61.144093
69.793097
75.761262
78.809183
66.527127
63.972939
58.964381
51.695633
42.451595
31.592462
19.527715
6.738036
-6.336986
-19.219494
-31.423107
-42.448378
-51.865225
-59.290531
-64.41736
-67.036394
-67.036549
-64.417848
-59.291404
-51.866334
-42.449655
-31.4244
-19.220702
-6.3383724
6.7362064
19.526293
31.591279
42.450663
51.694887
58.963915
63.972727
66.527062
54.539392
52.440194
48.325891
42.357865
34.770866
25.861578
15.968432
5.4697496
-5.2445252
-15.793872
-25.775121
-34.79506
-42.500393
-48.57734
-52.774822
-54.919072
-54.919208
-52.775222
-48.57801
-42.501239
-34.796048
-25.776197
-15.795002
-5.2457745
5.4683835
15.967214
25.860538
34.770025
42.357186
48.325419
52.43993
54.539304
45.423049
43.679277
40.259838
35.297507
28.984716
21.564638
13.318649
4.5611024
-4.386042
-13.183639
-21.501371
-29.013332
-35.424468
-40.47698
-43.965158
-45.746132
-45.746237
-43.96547
-40.477497
-35.425142
-29.014137
-21.502257
-13.18457
-4.3870247
4.5601121
13.317712
21.563808
28.984035
35.296971
40.259464
43.679065
45.422978
36.174738
34.781597
32.049942
28.086527
23.045717
17.12276
10.544504
3.5625665
-3.5541356
-10.549184
-17.151064
-23.104066
-28.176982
-32.169913
-34.924106
-36.329422
-36.32951
-34.924365
-32.170336
-28.177538
-23.104733
-17.151809
-10.549979
-3.5549635
3.5617272
10.543705
17.122042
23.045113
28.086045
32.049597
34.781393
36.17467
33.4439
32.165465
29.657082
26.013831
21.373684
15.912191
9.8356799
3.3745124
-3.2334694
-9.7266652
-15.862602
-21.40253
-26.128235
-29.850969
-32.420401
-33.731958
-33.732025
-32.420598
-29.85129
-26.128662
-21.403047
-15.863185
-9.7272892
-3.2341155
3.3738861
9.8350873
15.911665
21.373247
26.013488
29.656839
32.165321
33.443852
21.023979
20.205666
18.602095
16.277983
13.326873
9.8668039
6.0350441
1.9819425
-2.1415393
-6.1880339
-9.9936383
-13.412706
-16.316271
-18.595096
-20.163569
-20.962825
-20.962884
-20.163743
-18.595374
-16.316636
-13.413139
-9.9941155
-6.1885342
-2.1420527
1.9813916
6.0345112
9.8663253
13.326464
16.27765
18.601848
20.205515
21.023928
28.867591
27.773998
25.626093
22.501171
18.51198
13.802955
8.5457744
2.9444759
-2.778858
-8.4010112
-13.724901
-18.54263
-22.66092
-25.910833
-28.156873
-29.304287
-29.304323
-28.156982
-25.911013
-22.661167
-18.54294
-13.725259
-8.4013989
-2.7792478
2.9441461
8.5454568
13.80272
18.511798
22.501023
25.625983
27.77393
28.867568
6.9920565
6.7004994
6.1316898
5.3137454
4.2879227
3.1085459
1.8436843
0.58686431
-0.78623487
-2.1080601
-3.3178353
-4.3756255
-5.2514923
-5.9239137
-6.3788105
-6.608084
-6.6081317
-6.3789476
-5.9241289
-5.2517662
-4.3759383
-3.3181673
-2.1083936
-0.78655094
0.58658447
1.8434035
3.1082685
4.2876354
5.3134775
6.1314797
6.7003679
6.9920119
30.157742
29.029963
26.812078
23.577066
19.427848
14.487954
8.8808018
2.9117357
-2.9408487
-8.790517
-14.380016
-19.471214
-23.848614
-27.320176
-29.728795
-30.96237
-30.962366
-29.728783
-27.320171
-23.848635
-19.471283
-14.380148
-8.7907281
-2.9411507
2.9112942
8.8805391
14.487813
19.42782
23.577071
26.812094
29.029974
30.157746
-5.774096
-5.5741675
-5.1774958
-4.5893651
-3.8146525
-2.8523564
-1.6825264
-0.54374582
0.54359099
1.6681682
2.7790889
3.8211237
4.7398503
5.4838827
6.0083788
6.2796809
6.2796478
6.0082869
5.4837449
4.7396885
3.8209602
2.7789491
1.668082
0.54360552
-0.54361259
-1.6823285
-2.8523455
-3.814774
-4.5895031
-5.1776142
-5.574245
-5.7741227
33.701737
32.417494
29.896198
26.23169
21.55802
16.046144
9.8977143
3.3543006
-3.2972543
-9.8308932
-16.002511
-21.57075
-26.319174
-30.058307
-32.638373
-33.955153
-33.955199
-32.638522
-30.05852
-26.319491
-21.57114
-16.002964
-9.8314017
-3.2978295
3.3536424
9.8969403
16.045512
21.557567
26.231394
29.896
32.417362
33.701693
-20.461717
-19.681774
-18.150249
-15.922895
-13.080993
-9.7285653
-5.9911807
-2.0267247
2.0057698
5.9675566
9.7116586
13.093624
15.979834
18.254469
19.82499
20.626852
20.626888
19.825097
18.254649
15.980083
13.093937
9.7120238
5.9679561
2.0061857
-2.0263133
-5.9907569
-9.7282316
-13.08073
-15.922679
-18.150084
-19.681671
-20.461682
47.285814
45.471296
41.911701
36.74339
30.164201
22.425683
13.822641
4.6829931
-4.6372802
-13.781284
-22.398151
-30.15567
-36.755036
-41.941546
-45.514822
-47.336734
-47.336821
-45.515075
-41.941954
-36.755581
-30.156329
-22.398892
-13.782074
-4.6380838
4.6822076
13.8219
22.425011
30.163616
36.742913
41.911347
45.471077
47.285739
)
;

boundaryField
{
    leftWall
    {
        type            cyclic;
    }
    rightWall
    {
        type            cyclic;
    }
    lowerWall
    {
        type            calculated;
        value           nonuniform List<scalar> 
32
(
-11.831182
-11.377174
-10.486614
-9.1942809
-7.5499512
-5.6176135
-3.4712243
-1.1917141
1.1322339
3.410291
5.5542509
7.4822135
9.1206431
10.407728
11.294004
11.745836
11.745819
11.293984
10.407723
9.1205904
7.4820982
5.5540926
3.4100964
1.1320461
-1.1918847
-3.4713628
-5.6177071
-7.5500199
-9.1943304
-10.486642
-11.377181
-11.831201
)
;
    }
    atmosphere
    {
        type            calculated;
        value           nonuniform List<scalar> 
32
(
0
0
0
0
0
0
0
0
-0.0041644663
-0.0038614777
-0.0032885904
-0.002532597
-0.001709216
-0.0009452542
-0.00035884097
-4.0937138e-05
-4.0933062e-05
-0.00035882948
-0.0009452372
-0.0017091969
-0.0025325784
-0.0032885761
-0.0038614698
-0.0041644665
0
0
0
0
0
0
0
0
)
;
    }
    defaultFaces
    {
        type            empty;
    }
}


// ************************************************************************* //
