/*--------------------------------*- C++ -*----------------------------------*\
| =========                 |                                                 |
| \\      /  F ield         | OpenFOAM: The Open Source CFD Toolbox           |
|  \\    /   O peration     | Version:  2106                                  |
|   \\  /    A nd           | Website:  www.openfoam.com                      |
|    \\/     M anipulation  |                                                 |
\*---------------------------------------------------------------------------*/
FoamFile
{
    version     2.0;
    format      ascii;
    arch        "LSB;label=32;scalar=64";
    class       volVectorField;
    location    "0.023";
    object      U;
}
// * * * * * * * * * * * * * * * * * * * * * * * * * * * * * * * * * * * * * //

dimensions      [0 1 -1 0 0 0 0];

internalField   nonuniform List<vector> 
1024
(
(-0.00045511405 0.00050002411 0)
(-0.001341925 0.00047699678 0)
(-0.002165602 0.00043127496 0)
(-0.0028873677 0.00036813565 0)
(-0.0034762895 0.00028899456 0)
(-0.0039110859 0.00019969582 0)
(-0.0041760381 0.0001044725 0)
(-0.0042675319 9.3911201e-06 0)
(-0.0041911001 -8.1669383e-05 0)
(-0.0039582224 -0.00016585319 0)
(-0.0035855048 -0.0002402058 0)
(-0.0030944264 -0.00030309921 0)
(-0.0025053551 -0.00035290489 0)
(-0.001841283 -0.00039148475 0)
(-0.0011254815 -0.00041561312 0)
(-0.00037822697 -0.00042862429 0)
(0.00037892707 -0.00042861321 0)
(0.0011262464 -0.0004155631 0)
(0.0018419734 -0.00039149423 0)
(0.0025058659 -0.0003528712 0)
(0.0030949296 -0.00030304344 0)
(0.0035858833 -0.00024015997 0)
(0.0039584535 -0.00016580188 0)
(0.0041911964 -8.1599777e-05 0)
(0.0042674771 9.4769125e-06 0)
(0.0041758315 0.00010456968 0)
(0.003910706 0.00019977561 0)
(0.0034757887 0.00028906141 0)
(0.0028867876 0.00036816396 0)
(0.0021649542 0.00043128966 0)
(0.0013411795 0.00047695334 0)
(0.00045435503 0.0005001104 0)
(-0.00022905976 0.001305748 0)
(-0.0006729834 0.0012427353 0)
(-0.0010770987 0.0011212274 0)
(-0.001419423 0.00095003879 0)
(-0.0016844514 0.00073888014 0)
(-0.0018613734 0.00050213715 0)
(-0.0019446002 0.00025316369 0)
(-0.0019377533 5.457074e-06 0)
(-0.0018529688 -0.00022995442 0)
(-0.001702301 -0.00044382215 0)
(-0.0014993732 -0.00062930003 0)
(-0.0012595554 -0.00078353416 0)
(-0.00099622852 -0.00090466827 0)
(-0.00071736409 -0.00099436137 0)
(-0.00043206065 -0.001052301 0)
(-0.00014459134 -0.0010812925 0)
(0.00014537185 -0.0010812728 0)
(0.00043282057 -0.0010522086 0)
(0.00071805238 -0.00099430582 0)
(0.00099681982 -0.00090452792 0)
(0.0012600811 -0.00078334578 0)
(0.0014997545 -0.00062912003 0)
(0.0017025617 -0.00044359153 0)
(0.0018531025 -0.0002297566 0)
(0.001937725 5.6784936e-06 0)
(0.0019443828 0.00025337118 0)
(0.0018609548 0.00050233529 0)
(0.0016838866 0.00073904757 0)
(0.0014187754 0.00095019294 0)
(0.0010763618 0.0011213382 0)
(0.00067229694 0.0012427843 0)
(0.00022824045 0.001305796 0)
(0.00019468209 0.0014202127 0)
(0.00058384264 0.0013433964 0)
(0.00096590927 0.0011955988 0)
(0.0013332155 0.00098870734 0)
(0.0016764356 0.00073931942 0)
(0.001982454 0.00046632198 0)
(0.0022369867 0.00018906977 0)
(0.0024222272 -7.760303e-05 0)
(0.0025196636 -0.00032024129 0)
(0.0025155352 -0.00052707872 0)
(0.0023993879 -0.00069329828 0)
(0.0021665431 -0.000819828 0)
(0.0018225244 -0.0009097691 0)
(0.0013809323 -0.00096888594 0)
(0.0008616234 -0.0010052222 0)
(0.00029292196 -0.0010205939 0)
(-0.00029207514 -0.0010205633 0)
(-0.00086079328 -0.001005113 0)
(-0.0013801667 -0.00096872347 0)
(-0.0018218537 -0.00090952162 0)
(-0.0021659805 -0.00081952309 0)
(-0.0023989534 -0.00069295983 0)
(-0.0025152767 -0.00052668656 0)
(-0.0025195725 -0.00031987399 0)
(-0.0024222749 -7.7236146e-05 0)
(-0.0022372256 0.0001894043 0)
(-0.0019828889 0.00046666482 0)
(-0.0016770015 0.00073964251 0)
(-0.0013338785 0.00098900971 0)
(-0.00096669161 0.0011958236 0)
(-0.00058467697 0.0013435768 0)
(-0.00019556967 0.0014201941 0)
(0.00083857497 0.00054248629 0)
(0.0024898191 0.00048895318 0)
(0.0040629994 0.00038772068 0)
(0.0055072722 0.00025263232 0)
(0.0067713405 0.0001004669 0)
(0.0078077393 -4.9313113e-05 0)
(0.0085719749 -0.00017842625 0)
(0.0090249523 -0.00027297921 0)
(0.0091390121 -0.0003236666 0)
(0.008898106 -0.00032605093 0)
(0.0082971141 -0.0002882416 0)
(0.0073488547 -0.00021922922 0)
(0.0060845778 -0.00013396298 0)
(0.0045523032 -5.0141483e-05 0)
(0.0028170774 1.5953362e-05 0)
(0.0009541269 5.2807139e-05 0)
(-0.00095318138 5.2858285e-05 0)
(-0.0028161615 1.6108565e-05 0)
(-0.0045514544 -4.9903037e-05 0)
(-0.0060838246 -0.00013362987 0)
(-0.0073482221 -0.00021882684 0)
(-0.0082966338 -0.0002877794 0)
(-0.008897809 -0.00032558142 0)
(-0.0091389008 -0.0003231968 0)
(-0.0090250152 -0.00027243363 0)
(-0.0085722228 -0.00017787907 0)
(-0.0078081803 -4.8784391e-05 0)
(-0.0067719608 0.00010096559 0)
(-0.0055080363 0.00025304379 0)
(-0.0040638793 0.00038802866 0)
(-0.0024907717 0.00048915415 0)
(-0.00083957962 0.00054253929 0)
(0.0017700985 -0.0018438956 0)
(0.0052503843 -0.0018187318 0)
(0.0085490778 -0.0017620578 0)
(0.011549997 -0.0016647815 0)
(0.014144048 -0.0015141844 0)
(0.016232698 -0.0012978008 0)
(0.017730899 -0.0010066899 0)
(0.018570529 -0.00063731904 0)
(0.018707107 -0.00019487616 0)
(0.018117584 0.00030224432 0)
(0.016809632 0.00082799885 0)
(0.014824443 0.0013501312 0)
(0.012230026 0.0018308479 0)
(0.0091253911 0.0022327564 0)
(0.0056356947 0.002522196 0)
(0.0019061251 0.0026732609 0)
(-0.0019050528 0.0026733296 0)
(-0.0056346588 0.0025224004 0)
(-0.0091244304 0.0022330851 0)
(-0.012229176 0.0018312956 0)
(-0.014823738 0.0013506778 0)
(-0.01680912 0.00082863421 0)
(-0.01811731 0.00030295986 0)
(-0.018706936 -0.00019403858 0)
(-0.018570499 -0.00063651999 0)
(-0.017731158 -0.0010059193 0)
(-0.016233189 -0.0012970813 0)
(-0.014144742 -0.0015135343 0)
(-0.011550864 -0.0016642312 0)
(-0.0085500871 -0.0017616395 0)
(-0.0052514917 -0.0018184678 0)
(-0.0017712591 -0.0018438126 0)
(0.0030801402 -0.0063910044 0)
(0.0091316048 -0.006205679 0)
(0.014855876 -0.0058336964 0)
(0.020045582 -0.0052735773 0)
(0.024508907 -0.0045254271 0)
(0.028075774 -0.0035938201 0)
(0.030603627 -0.0024909329 0)
(0.031983046 -0.0012394481 0)
(0.032142795 0.00012384357 0)
(0.031058605 0.0015449824 0)
(0.028756438 0.0029630441 0)
(0.025311109 0.0043051331 0)
(0.020847076 0.0054963721 0)
(0.015534977 0.0064649747 0)
(0.0095855005 0.0071490827 0)
(0.0032403201 0.0075031496 0)
(-0.0032390854 0.0075032383 0)
(-0.0095843088 0.0071493456 0)
(-0.01553387 0.0064654005 0)
(-0.020846091 0.00549695 0)
(-0.025310276 0.004305846 0)
(-0.028755777 0.0029638843 0)
(-0.031058096 0.0015459523 0)
(-0.032142593 0.00012494754 0)
(-0.031983172 -0.0012384033 0)
(-0.030603954 -0.0024899246 0)
(-0.028076339 -0.0035928734 0)
(-0.024509705 -0.004524571 0)
(-0.02004659 -0.0052728541 0)
(-0.014857057 -0.0058331454 0)
(-0.0091329099 -0.0062053328 0)
(-0.00308151 -0.006390888 0)
(0.0048304 -0.0139445 0)
(0.014317319 -0.013486387 0)
(0.023283394 -0.012577272 0)
(0.03139973 -0.011231979 0)
(0.03836368 -0.0094746167 0)
(0.043908844 -0.0073412475 0)
(0.047814478 -0.0048825071 0)
(0.049913535 -0.0021665207 0)
(0.05010226 0.0007160068 0)
(0.048351727 0.0036542064 0)
(0.044712149 0.0065224923 0)
(0.039310043 0.0091890794 0)
(0.032345032 0.011521682 0)
(0.024084215 0.013397047 0)
(0.014852474 0.014711044 0)
(0.0050192281 0.015388002 0)
(-0.0050177921 0.015388114 0)
(-0.014851089 0.014711375 0)
(-0.024082928 0.013397582 0)
(-0.032343883 0.011522404 0)
(-0.039309065 0.0091899649 0)
(-0.044711369 0.0065235257 0)
(-0.048351178 0.003655353 0)
(-0.050102003 0.00071717556 0)
(-0.049913591 -0.0021652555 0)
(-0.047814829 -0.0048812406 0)
(-0.043909486 -0.0073400435 0)
(-0.038364601 -0.0094735182 0)
(-0.031400912 -0.011231045 0)
(-0.023284793 -0.012576556 0)
(-0.014318877 -0.013485936 0)
(-0.0048320399 -0.013944347 0)
(0.006950286 -0.025401654 0)
(0.020599587 -0.02452561 0)
(0.033497557 -0.022794112 0)
(0.045169757 -0.02024774 0)
(0.055179049 -0.016948272 0)
(0.063140227 -0.012981181 0)
(0.06873408 -0.0084575019 0)
(0.071718784 -0.003515525 0)
(0.071946179 0.0016704592 0)
(0.069381548 0.0068952777 0)
(0.064108571 0.011940353 0)
(0.056320051 0.016585789 0)
(0.046309678 0.020616693 0)
(0.034463396 0.023836903 0)
(0.021245004 0.026082956 0)
(0.0071779777 0.027236975 0)
(-0.0071763015 0.027237114 0)
(-0.021243391 0.026083368 0)
(-0.034461899 0.023837562 0)
(-0.046308344 0.020617579 0)
(-0.056318908 0.016586867 0)
(-0.064107647 0.011941615 0)
(-0.069380897 0.0068966942 0)
(-0.071945847 0.0016719712 0)
(-0.071718797 -0.0035139407 0)
(-0.068734452 -0.0084559152 0)
(-0.063140947 -0.012979669 0)
(-0.055180107 -0.016946875 0)
(-0.045171142 -0.020246541 0)
(-0.03349922 -0.022793185 0)
(-0.020601457 -0.024525022 0)
(-0.0069522632 -0.025401454 0)
(0.0090639331 -0.041325052 0)
(0.026867587 -0.039869466 0)
(0.043701923 -0.036997193 0)
(0.058952457 -0.03278321 0)
(0.072048141 -0.027339807 0)
(0.082479894 -0.020819222 0)
(0.089820193 -0.013415395 0)
(0.093739012 -0.0053646891 0)
(0.094029974 0.0030365376 0)
(0.090649334 0.011443565 0)
(0.083721413 0.019505189 0)
(0.073513098 0.026882148 0)
(0.060417659 0.033248889 0)
(0.044944283 0.038313444 0)
(0.027697987 0.041835187 0)
(0.0093567653 0.043641358 0)
(-0.0093548185 0.043641532 0)
(-0.027696124 0.041835699 0)
(-0.044942565 0.03831425 0)
(-0.060416138 0.033249964 0)
(-0.073511786 0.026883432 0)
(-0.083720325 0.019506704 0)
(-0.090648551 0.011445297 0)
(-0.094029547 0.0030384073 0)
(-0.093738971 -0.0053627237 0)
(-0.08982058 -0.013413425 0)
(-0.082480681 -0.020817346 0)
(-0.072049329 -0.027338039 0)
(-0.05895406 -0.032781678 0)
(-0.043703884 -0.036995991 0)
(-0.026869824 -0.039868697 0)
(-0.0090663132 -0.041324791 0)
(0.010272536 -0.061126754 0)
(0.030463434 -0.058963673 0)
(0.049592556 -0.054696384 0)
(0.066979441 -0.048436226 0)
(0.081977465 -0.04034874 0)
(0.093991965 -0.030660198 0)
(0.10251137 -0.019663795 0)
(0.10711833 -0.0077109977 0)
(0.10752909 0.0047398477 0)
(0.10368226 0.017145838 0)
(0.095746599 0.028980634 0)
(0.084050498 0.039761093 0)
(0.069056317 0.049028228 0)
(0.051355678 0.056376225 0)
(0.031642461 0.061474212 0)
(0.010688074 0.064085251 0)
(-0.010685856 0.064085473 0)
(-0.031640363 0.061474859 0)
(-0.051353772 0.056377212 0)
(-0.069054661 0.049029524 0)
(-0.084049061 0.039762581 0)
(-0.09574535 0.028982408 0)
(-0.10368133 0.017147926 0)
(-0.10752855 0.0047421118 0)
(-0.10711821 -0.0077085883 0)
(-0.10251176 -0.019661381 0)
(-0.093992773 -0.030657915 0)
(-0.081978727 -0.040346514 0)
(-0.066981235 -0.048434269 0)
(-0.049594815 -0.05469482 0)
(-0.030466069 -0.058962658 0)
(-0.010275363 -0.061126413 0)
(0.0090075549 -0.081814538 0)
(0.026748516 -0.078950951 0)
(0.043652035 -0.073295466 0)
(0.059163189 -0.064980265 0)
(0.072720428 -0.054202242 0)
(0.083763842 -0.041241211 0)
(0.091781113 -0.026479833 0)
(0.096296077 -0.010366974 0)
(0.096920769 0.0064522548 0)
(0.093563852 0.023160004 0)
(0.086439229 0.039022837 0)
(0.075887004 0.053420214 0)
(0.062341885 0.065755411 0)
(0.046354223 0.075510544 0)
(0.02855644 0.082267102 0)
(0.0096449352 0.085723711 0)
(-0.009642528 0.085724002 0)
(-0.028554221 0.082267945 0)
(-0.046352266 0.075511761 0)
(-0.062340263 0.065756974 0)
(-0.075885587 0.053421866 0)
(-0.086437852 0.039024831 0)
(-0.093562789 0.023162479 0)
(-0.096920099 0.0064549319 0)
(-0.09629583 -0.010364057 0)
(-0.09178145 -0.026476935 0)
(-0.083764546 -0.041238521 0)
(-0.072721602 -0.054199451 0)
(-0.059165061 -0.064977773 0)
(-0.043654507 -0.073293416 0)
(-0.026751517 -0.078949595 0)
(-0.0090108184 -0.081814088 0)
(0.0032229793 -0.096471713 0)
(0.0096703039 -0.093206712 0)
(0.016062055 -0.0867355 0)
(0.022307274 -0.07717083 0)
(0.028224134 -0.064674194 0)
(0.033514953 -0.049509416 0)
(0.037845711 -0.032079779 0)
(0.040757618 -0.012824591 0)
(0.041709876 0.00743227 0)
(0.04056493 0.027498793 0)
(0.03759497 0.046438542 0)
(0.033051405 0.063577872 0)
(0.02715232 0.078224282 0)
(0.02018081 0.089782314 0)
(0.012428246 0.097777397 0)
(0.0041963963 0.1018654 0)
(-0.004194102 0.10186582 0)
(-0.012426253 0.097778558 0)
(-0.020179163 0.089783841 0)
(-0.027151129 0.07822613 0)
(-0.033050322 0.063579485 0)
(-0.037593502 0.046440559 0)
(-0.040563687 0.02750168 0)
(-0.041708998 0.0074354158 0)
(-0.040757133 -0.012821038 0)
(-0.037845934 -0.032076388 0)
(-0.033515276 -0.049506412 0)
(-0.028224853 -0.064670703 0)
(-0.02230895 -0.077167613 0)
(-0.016064498 -0.086732736 0)
(-0.0096735163 -0.093204827 0)
(-0.0032265483 -0.096471094 0)
(-0.0086104636 -0.096887851 0)
(-0.025332681 -0.093919749 0)
(-0.04062256 -0.08796093 0)
(-0.053667693 -0.078999871 0)
(-0.063875909 -0.067013332 0)
(-0.070968931 -0.052103503 0)
(-0.074802166 -0.034525321 0)
(-0.075677336 -0.014529602 0)
(-0.074395512 0.0068913184 0)
(-0.071140777 0.02802132 0)
(-0.065481634 0.047732706 0)
(-0.057392383 0.06545503 0)
(-0.047164048 0.080516155 0)
(-0.035097285 0.092343242 0)
(-0.021633529 0.10050285 0)
(-0.007312358 0.10466107 0)
(0.0073138557 0.10466163 0)
(0.021634486 0.10050436 0)
(0.035097784 0.09234522 0)
(0.04716393 0.080518505 0)
(0.057392552 0.065456623 0)
(0.065483402 0.047734654 0)
(0.07114265 0.02802438 0)
(0.074396889 0.0068945128 0)
(0.075678125 -0.01452576 0)
(0.074801997 -0.034521657 0)
(0.07096948 -0.052100379 0)
(0.063876407 -0.067009101 0)
(0.053666812 -0.078995801 0)
(0.040620667 -0.087957528 0)
(0.025329585 -0.09391734 0)
(0.0086068314 -0.096887107 0)
(-0.025122045 -0.057486673 0)
(-0.074203397 -0.056272057 0)
(-0.11989982 -0.053718936 0)
(-0.16015655 -0.049645687 0)
(-0.19333071 -0.04368335 0)
(-0.2183164 -0.035629446 0)
(-0.23420346 -0.025444343 0)
(-0.24099226 -0.012517057 0)
(-0.23982563 0.0024701659 0)
(-0.23085779 0.0169722 0)
(-0.2132797 0.029950105 0)
(-0.18736107 0.041644218 0)
(-0.15414674 0.051573408 0)
(-0.11477776 0.059343223 0)
(-0.070772399 0.06472462 0)
(-0.023911615 0.067472043 0)
(0.023911027 0.067473014 0)
(0.070771066 0.064726912 0)
(0.11477599 0.059345446 0)
(0.15414421 0.051575463 0)
(0.18735958 0.04164356 0)
(0.2132819 0.029949976 0)
(0.23086084 0.016975667 0)
(0.23982783 0.0024745786 0)
(0.24099332 -0.012511694 0)
(0.23420335 -0.025440831 0)
(0.21831847 -0.03562756 0)
(0.19333346 -0.043678334 0)
(0.16015728 -0.049640362 0)
(0.1198993 -0.053714054 0)
(0.07420125 -0.056268163 0)
(0.025119067 -0.057485523 0)
(-0.038338352 -0.0033863394 0)
(-0.11347386 -0.0048760363 0)
(-0.1841078 -0.0075081916 0)
(-0.24741618 -0.010713615 0)
(-0.30096615 -0.013469934 0)
(-0.34299319 -0.014977716 0)
(-0.37134782 -0.014658536 0)
(-0.3849439 -0.010264117 0)
(-0.38538231 -0.0028156383 0)
(-0.37273687 0.0034576942 0)
(-0.3452308 0.0074550952 0)
(-0.30364232 0.01074202 0)
(-0.25008432 0.013229804 0)
(-0.18635499 0.014933895 0)
(-0.11496426 0.016072598 0)
(-0.038859352 0.016629614 0)
(0.038856644 0.016630921 0)
(0.11495891 0.016075851 0)
(0.18634825 0.014936872 0)
(0.25007669 0.013232569 0)
(0.30363827 0.010738826 0)
(0.34523686 0.007452075 0)
(0.37274582 0.0034614365 0)
(0.3853867 -0.0028104398 0)
(0.3849425 -0.010257456 0)
(0.37134436 -0.014655776 0)
(0.34299669 -0.014977851 0)
(0.30097288 -0.013463073 0)
(0.24742052 -0.010706359 0)
(0.18411062 -0.0075014473 0)
(0.11347306 -0.0048704928 0)
(0.038335234 -0.0033849039 0)
(-0.027035455 0.10105405 0)
(-0.08040411 0.095971479 0)
(-0.13169668 0.086351758 0)
(-0.17937538 0.07260829 0)
(-0.22182289 0.056306114 0)
(-0.2575527 0.038472501 0)
(-0.28415719 0.018451996 0)
(-0.30001515 0.0021488597 0)
(-0.30539009 -0.0096887742 0)
(-0.2993682 -0.025006367 0)
(-0.28024953 -0.042863293 0)
(-0.24866108 -0.057888807 0)
(-0.20631225 -0.071116863 0)
(-0.15459825 -0.081965876 0)
(-0.095735915 -0.089367172 0)
(-0.032425589 -0.093239742 0)
(0.032422196 -0.093236132 0)
(0.095729435 -0.089358904 0)
(0.15459046 -0.081963533 0)
(0.20630454 -0.071115886 0)
(0.2486574 -0.057904469 0)
(0.28025583 -0.042879482 0)
(0.29937748 -0.024998914 0)
(0.30539416 -0.0096739159 0)
(0.30001315 0.0021637164 0)
(0.28415366 0.018449271 0)
(0.25755541 0.038461143 0)
(0.22182885 0.056313288 0)
(0.1793803 0.072615073 0)
(0.1317008 0.086362206 0)
(0.08040499 0.095983197 0)
(0.027033954 0.10105682 0)
(0.032461835 0.093138765 0)
(0.095845312 0.089276834 0)
(0.15478183 0.081895914 0)
(0.20656579 0.071070144 0)
(0.2489811 0.057889345 0)
(0.28063456 0.042899185 0)
(0.29979879 0.025032529 0)
(0.30583478 0.0096990835 0)
(0.30044859 -0.0021303583 0)
(0.2845697 -0.018400255 0)
(0.25794469 -0.03839538 0)
(0.22218178 -0.056251084 0)
(0.17967724 -0.072589865 0)
(0.13192492 -0.086348269 0)
(0.08054762 -0.095982882 0)
(0.027084468 -0.10107357 0)
(-0.027081325 -0.10106982 0)
(-0.080541743 -0.09597437 0)
(-0.13191774 -0.086346102 0)
(-0.17966997 -0.072589161 0)
(-0.22217815 -0.05626746 0)
(-0.25795011 -0.038412191 0)
(-0.28457769 -0.018392868 0)
(-0.30045169 -0.0021156074 0)
(-0.30583193 0.0097142407 0)
(-0.29979442 0.025030095 0)
(-0.28063709 0.042888298 0)
(-0.24898717 0.05789663 0)
(-0.20657085 0.071077077 0)
(-0.15478622 0.081906242 0)
(-0.095846055 0.089288199 0)
(-0.032459942 0.093141446 0)
(0.03889944 -0.016804761 0)
(0.11508354 -0.016238186 0)
(0.18655242 -0.015081601 0)
(0.25035297 -0.013350361 0)
(0.30397917 -0.010818537 0)
(0.34563759 -0.007489999 0)
(0.37319474 -0.0034659009 0)
(0.3858591 0.0028304709 0)
(0.38541498 0.010306268 0)
(0.37179996 0.01473043 0)
(0.34342522 0.015072567 0)
(0.30136428 0.013565971 0)
(0.24775014 0.010801046 0)
(0.18435857 0.0075965792 0)
(0.11363064 0.0049655901 0)
(0.038391293 0.0034754895 0)
(-0.038388386 0.0034769465 0)
(-0.11362495 0.0049691034 0)
(-0.18435144 0.0075993571 0)
(-0.24774221 0.010803567 0)
(-0.30136011 0.013561963 0)
(-0.34343138 0.015068841 0)
(-0.37180908 0.014734132 0)
(-0.38541917 0.010311331 0)
(-0.38585771 0.0028369238 0)
(-0.37319168 -0.0034628831 0)
(-0.34564114 -0.0074895653 0)
(-0.3039858 -0.010811585 0)
(-0.25035711 -0.013342965 0)
(-0.18655499 -0.015074988 0)
(-0.11508264 -0.016233029 0)
(-0.038896348 -0.016803405 0)
(0.023964724 -0.067733257 0)
(0.070928017 -0.064973528 0)
(0.11503078 -0.059567951 0)
(0.15448668 -0.051762703 0)
(0.18777805 -0.041785519 0)
(0.21376583 -0.030041957 0)
(0.23139275 -0.017016056 0)
(0.24038544 -0.0024718775 0)
(0.24155426 0.012564982 0)
(0.23474471 0.025534919 0)
(0.21882283 0.035758987 0)
(0.19378312 0.043838436 0)
(0.16052959 0.049814384 0)
(0.12017687 0.053901409 0)
(0.074374146 0.056464657 0)
(0.025178916 0.057683187 0)
(-0.025178073 0.057684174 0)
(-0.074372461 0.056466991 0)
(-0.12017472 0.053903591 0)
(-0.16052674 0.0498164 0)
(-0.19378153 0.043837553 0)
(-0.21882529 0.035758677 0)
(-0.23474821 0.025538412 0)
(-0.24155701 0.01256937 0)
(-0.24038683 -0.0024669161 0)
(-0.23139276 -0.01701256 0)
(-0.21376793 -0.030039907 0)
(-0.18778074 -0.041780504 0)
(-0.15448734 -0.051757433 0)
(-0.11503016 -0.059563093 0)
(-0.070925882 -0.064969756 0)
(-0.023961841 -0.067732095 0)
(0.0073857193 -0.10501114 0)
(0.021845756 -0.10083727 0)
(0.035440093 -0.092646606 0)
(0.04762309 -0.080774462 0)
(0.057950207 -0.065655623 0)
(0.066123388 -0.047869547 0)
(0.071834724 -0.028092554 0)
(0.075116492 -0.0068968174 0)
(0.076397942 0.014586622 0)
(0.075488291 0.034640401 0)
(0.071604248 0.052270287 0)
(0.064433295 0.067220999 0)
(0.054122169 0.079238465 0)
(0.040959879 0.088224394 0)
(0.025538745 0.094200294 0)
(0.0086774881 0.097177109 0)
(-0.0086788206 0.097177692 0)
(-0.025539531 0.094201846 0)
(-0.040960246 0.088226378 0)
(-0.054121936 0.079240781 0)
(-0.064433465 0.067222467 0)
(-0.071606184 0.052272116 0)
(-0.075490423 0.034643447 0)
(-0.076399603 0.01458985 0)
(-0.075117495 -0.0068927836 0)
(-0.071834736 -0.028088806 0)
(-0.066124007 -0.047866319 0)
(-0.057950752 -0.065651406 0)
(-0.047622227 -0.08077044 0)
(-0.035438211 -0.092643264 0)
(-0.021842719 -0.10083496 0)
(-0.0073821378 -0.10501041 0)
(-0.0040934522 -0.10262222 0)
(-0.012129754 -0.098504205 0)
(-0.019699994 -0.090449315 0)
(-0.026509745 -0.078804957 0)
(-0.032274059 -0.064048769 0)
(-0.036712906 -0.046781852 0)
(-0.039616506 -0.027706891 0)
(-0.040734238 -0.007492965 0)
(-0.039791509 0.012909341 0)
(-0.036926895 0.032306542 0)
(-0.032674806 0.049867608 0)
(-0.027493221 0.065146681 0)
(-0.021712562 0.077741034 0)
(-0.015622805 0.08738222 0)
(-0.0094020248 0.093905254 0)
(-0.003134948 0.097197798 0)
(0.0031327078 0.097198235 0)
(0.0094000846 0.09390643 0)
(0.015621196 0.08738377 0)
(0.021711404 0.077742905 0)
(0.027492124 0.065148278 0)
(0.032673256 0.049869628 0)
(0.036925533 0.032309448 0)
(0.039790511 0.012912536 0)
(0.040733641 -0.0074893565 0)
(0.03961661 -0.027703467 0)
(0.036713183 -0.046778806 0)
(0.032274746 -0.064045328 0)
(0.026511392 -0.078801766 0)
(0.019702404 -0.090446645 0)
(0.012132902 -0.098502354 0)
(0.0040969596 -0.10262164 0)
(-0.0094956987 -0.085124919 0)
(-0.028120647 -0.081682701 0)
(-0.04564977 -0.074955192 0)
(-0.061398556 -0.065244617 0)
(-0.074744086 -0.052970638 0)
(-0.085142608 -0.038652834 0)
(-0.09216712 -0.022890249 0)
(-0.095474631 -0.0062997395 0)
(-0.094859638 0.010380439 0)
(-0.090413332 0.026349093 0)
(-0.082510081 0.040962856 0)
(-0.071627132 0.053779446 0)
(-0.058270578 0.064427161 0)
(-0.042991698 0.072634976 0)
(-0.026344112 0.078213726 0)
(-0.0088731939 0.081038404 0)
(0.0088707791 0.081038711 0)
(0.026341889 0.078214606 0)
(0.042989742 0.07263625 0)
(0.058268964 0.064428794 0)
(0.071625705 0.053781161 0)
(0.082508666 0.040964928 0)
(0.090412221 0.026351657 0)
(0.094858907 0.010383219 0)
(0.095474337 -0.0062967171 0)
(0.09216743 -0.022887253 0)
(0.085143307 -0.038650055 0)
(0.074745257 -0.052967825 0)
(0.061400422 -0.065242109 0)
(0.045652231 -0.074953173 0)
(0.02812362 -0.081681358 0)
(0.0094989341 -0.085124483 0)
(-0.010552544 -0.070135915 0)
(-0.031248112 -0.067294269 0)
(-0.050723326 -0.061743131 0)
(-0.068218521 -0.053736309 0)
(-0.083048866 -0.043629207 0)
(-0.094628368 -0.031859478 0)
(-0.10249881 -0.018924758 0)
(-0.10633675 -0.0053482173 0)
(-0.10595992 0.0082993135 0)
(-0.10142464 0.021425426 0)
(-0.093018115 0.033527309 0)
(-0.081146225 0.044210706 0)
(-0.066313421 0.053145219 0)
(-0.049107339 0.06007134 0)
(-0.030169479 0.064797471 0)
(-0.010175684 0.067194982 0)
(0.010173471 0.06719521 0)
(0.030167389 0.064798134 0)
(0.049105443 0.060072351 0)
(0.06631178 0.053146541 0)
(0.081144798 0.044212217 0)
(0.093016869 0.033529112 0)
(0.10142372 0.021427548 0)
(0.10595939 0.0083016112 0)
(0.10633665 -0.0053457845 0)
(0.1024992 -0.018922341 0)
(0.094629181 -0.031857207 0)
(0.083050128 -0.043627026 0)
(0.068220302 -0.0537344 0)
(0.050725557 -0.061741624 0)
(0.031250702 -0.06729329 0)
(0.01055532 -0.070135589 0)
(-0.0089649492 -0.036209731 0)
(-0.026541999 -0.034669981 0)
(-0.043068644 -0.031673479 0)
(-0.057894492 -0.027378387 0)
(-0.070438842 -0.022003037 0)
(-0.08021311 -0.015809296 0)
(-0.086840283 -0.009084834 0)
(-0.090058244 -0.0021229288 0)
(-0.089762649 0.0047762171 0)
(-0.085999087 0.011332359 0)
(-0.078954974 0.017306949 0)
(-0.068955459 0.022522828 0)
(-0.056412151 0.02684282 0)
(-0.041813284 0.030165207 0)
(-0.025704792 0.032418837 0)
(-0.0086726876 0.033557899 0)
(0.0086707111 0.033558077 0)
(0.025702903 0.032419358 0)
(0.041811549 0.030166027 0)
(0.05641062 0.02684391 0)
(0.068954141 0.022524127 0)
(0.078953882 0.017308483 0)
(0.085998303 0.011334115 0)
(0.08976221 0.004778114 0)
(0.0900582 -0.0021209358 0)
(0.08684069 -0.0090828401 0)
(0.080213927 -0.015807403 0)
(0.070440063 -0.02200127 0)
(0.057896127 -0.027376862 0)
(0.043070634 -0.031672295 0)
(0.02654426 -0.034669223 0)
(0.0089673509 -0.036209476 0)
(-0.0074115066 -0.043757383 0)
(-0.021943776 -0.041968145 0)
(-0.035610598 -0.038475931 0)
(-0.047876256 -0.033446696 0)
(-0.058263877 -0.027113226 0)
(-0.06637334 -0.019759751 0)
(-0.07189703 -0.011704646 0)
(-0.07463275 -0.0032839276 0)
(-0.074465729 0.0051607819 0)
(-0.071422554 0.013290268 0)
(-0.06566498 0.020814859 0)
(-0.057429824 0.027481705 0)
(-0.047043446 0.033076783 0)
(-0.034905493 0.037426875 0)
(-0.021473709 0.040400946 0)
(-0.0072477712 0.041910691 0)
(0.0072460861 0.041910846 0)
(0.021472088 0.040401404 0)
(0.034903991 0.037427611 0)
(0.047042109 0.033077773 0)
(0.057428682 0.027482913 0)
(0.065664065 0.020816279 0)
(0.071421922 0.013291874 0)
(0.074465436 0.00516251 0)
(0.074632808 -0.0032821535 0)
(0.071897435 -0.011702907 0)
(0.066374087 -0.019758124 0)
(0.058264951 -0.02711175 0)
(0.047877644 -0.033445445 0)
(0.03561225 -0.038474974 0)
(0.021945624 -0.041967541 0)
(0.007413456 -0.043757178 0)
(-0.0043351184 0.0027957536 0)
(-0.012827524 0.0027981782 0)
(-0.020790389 0.0027853974 0)
(-0.027899848 0.0027256308 0)
(-0.033872991 0.002579504 0)
(-0.038479737 0.0023079665 0)
(-0.041552939 0.0018794849 0)
(-0.042984675 0.0012703178 0)
(-0.042763247 0.00053291112 0)
(-0.040916541 -0.00033023559 0)
(-0.037519901 -0.0012722037 0)
(-0.032736986 -0.0022243517 0)
(-0.026762873 -0.0031094712 0)
(-0.019826766 -0.0038522313 0)
(-0.012184422 -0.0043874676 0)
(-0.0041103949 -0.0046674616 0)
(0.0041089601 -0.0046673685 0)
(0.012183042 -0.0043871945 0)
(0.01982549 -0.0038517911 0)
(0.026761742 -0.0031088829 0)
(0.032736034 -0.0022236378 0)
(0.037519157 -0.0012713789 0)
(0.040916039 -0.00032932611 0)
(0.042762981 0.00053386462 0)
(0.042984678 0.0012712763 0)
(0.041553257 0.0018805218 0)
(0.038480361 0.002308977 0)
(0.033873911 0.0025804338 0)
(0.027901039 0.0027264242 0)
(0.020791802 0.002786006 0)
(0.012829099 0.0027985618 0)
(0.0043367768 0.0027958841 0)
(-0.0048923945 -0.036351436 0)
(-0.014484862 -0.034880473 0)
(-0.023504508 -0.03200696 0)
(-0.03159772 -0.02786281 0)
(-0.038451567 -0.022634148 0)
(-0.04380748 -0.016547742 0)
(-0.047477445 -0.0098530958 0)
(-0.04928606 -0.0028014204 0)
(-0.049167748 0.0041967863 0)
(-0.047185808 0.010971557 0)
(-0.043419027 0.017280066 0)
(-0.038007808 0.022895267 0)
(-0.031159617 0.02762566 0)
(-0.023135622 0.031314401 0)
(-0.014239696 0.033841464 0)
(-0.004807379 0.035125646 0)
(0.0048060096 0.035125777 0)
(0.014238373 0.033841844 0)
(0.023134387 0.03131503 0)
(0.031158511 0.027626509 0)
(0.038006867 0.022896325 0)
(0.043418282 0.017281308 0)
(0.047185294 0.01097296 0)
(0.04916751 0.0041983273 0)
(0.049286222 -0.0027997252 0)
(0.047477934 -0.0098515964 0)
(0.043808157 -0.016546409 0)
(0.038452464 -0.022632981 0)
(0.031598827 -0.027861841 0)
(0.023505789 -0.03200623 0)
(0.014486269 -0.03488002 0)
(0.0048938666 -0.036351282 0)
(-0.0013512133 0.030177245 0)
(-0.0039903593 0.029073515 0)
(-0.0064401619 0.026899312 0)
(-0.0085875861 0.023721331 0)
(-0.0103372 0.019639295 0)
(-0.011612198 0.01478518 0)
(-0.012352894 0.0093202607 0)
(-0.012682934 0.0034481148 0)
(-0.012560668 -0.00257426 0)
(-0.011873685 -0.0085639335 0)
(-0.010753145 -0.014276138 0)
(-0.0092790695 -0.019471784 0)
(-0.0075135572 -0.023930341 0)
(-0.0055239941 -0.027458694 0)
(-0.0033768126 -0.029901878 0)
(-0.0011362361 -0.031151368 0)
(0.0011352378 -0.031151365 0)
(0.0033758593 -0.029901878 0)
(0.005523122 -0.027458688 0)
(0.007512798 -0.023930339 0)
(0.0092784637 -0.01947178 0)
(0.010752714 -0.014276133 0)
(0.011873465 -0.0085639258 0)
(0.012560694 -0.002574256 0)
(0.012682909 0.0034481075 0)
(0.012352876 0.0093202359 0)
(0.011612528 0.01478522 0)
(0.010337804 0.019639364 0)
(0.0085883926 0.023721406 0)
(0.006441116 0.026899377 0)
(0.0039914184 0.029073558 0)
(0.0013523265 0.03017726 0)
(-0.0054811819 -0.036773855 0)
(-0.016228868 -0.035282777 0)
(-0.026337219 -0.032370281 0)
(-0.035411431 -0.028169664 0)
(-0.043102365 -0.022872558 0)
(-0.049122751 -0.016717397 0)
(-0.053248228 -0.0099753822 0)
(-0.055243027 -0.0029594717 0)
(-0.055094251 0.0041813432 0)
(-0.052900392 0.011068806 0)
(-0.048694186 0.017458003 0)
(-0.042636047 0.023124695 0)
(-0.034960587 0.027883267 0)
(-0.025961281 0.031583488 0)
(-0.015980212 0.034112436 0)
(-0.0053951796 0.035395595 0)
(0.0053936779 0.035395778 0)
(0.015978762 0.034112892 0)
(0.02595993 0.0315843 0)
(0.034959377 0.027884293 0)
(0.042635027 0.023125967 0)
(0.048693386 0.017459427 0)
(0.052899842 0.011070333 0)
(0.055093987 0.0041828967 0)
(0.055243174 -0.0029580333 0)
(0.053248802 -0.0099738366 0)
(0.049123584 -0.016715903 0)
(0.04310338 -0.022871208 0)
(0.035412633 -0.028168533 0)
(0.02633858 -0.032369431 0)
(0.016230346 -0.035282265 0)
(0.0054827213 -0.036773678 0)
(0.00041619777 0.05995448 0)
(0.0012385557 0.05767161 0)
(0.0020343285 0.053190107 0)
(0.0027835711 0.046676213 0)
(0.0034619535 0.038373149 0)
(0.0040483901 0.028594621 0)
(0.0045068576 0.017717196 0)
(0.0048136401 0.006160779 0)
(0.0049248744 -0.0057039657 0)
(0.0048384563 -0.017365913 0)
(0.0045648157 -0.028372227 0)
(0.0040804886 -0.038294657 0)
(0.0034053934 -0.04674545 0)
(0.0025634839 -0.053392891 0)
(0.0015924056 -0.057975584 0)
(0.00053994778 -0.060313018 0)
(-0.00054051613 -0.060313103 0)
(-0.0015929289 -0.057975837 0)
(-0.0025639669 -0.053393295 0)
(-0.0034058471 -0.046745987 0)
(-0.0040808209 -0.038295298 0)
(-0.0045650835 -0.028372938 0)
(-0.0048386012 -0.017366655 0)
(-0.0049249544 -0.0057046922 0)
(-0.0048136529 0.0061601098 0)
(-0.0045067622 0.017716523 0)
(-0.0040481623 0.028593948 0)
(-0.0034615857 0.038372546 0)
(-0.0027831089 0.046675717 0)
(-0.0020338168 0.053189742 0)
(-0.0012379776 0.057671386 0)
(-0.00041557346 0.059954405 0)
(-0.0059337062 -0.050047963 0)
(-0.017567964 -0.048102228 0)
(-0.028506712 -0.044288364 0)
(-0.038319957 -0.038760351 0)
(-0.046625844 -0.031738988 0)
(-0.053105757 -0.023502969 0)
(-0.057514172 -0.01438181 0)
(-0.059685343 -0.004724521 0)
(-0.059553432 0.0050855127 0)
(-0.057147995 0.014695303 0)
(-0.052571654 0.023713861 0)
(-0.046004997 0.031807835 0)
(-0.037704395 0.038673058 0)
(-0.027987566 0.044055254 0)
(-0.017222645 0.047756701 0)
(-0.0058139002 0.049641868 0)
(0.0058119122 0.04964198 0)
(0.017220734 0.047757108 0)
(0.027985804 0.044055837 0)
(0.037702841 0.038673894 0)
(0.046003719 0.031808812 0)
(0.052570692 0.023714977 0)
(0.057147393 0.014696496 0)
(0.059553227 0.0050867293 0)
(0.059685555 -0.004723287 0)
(0.057514779 -0.014380606 0)
(0.053106723 -0.023501834 0)
(0.046627123 -0.031737987 0)
(0.038321505 -0.038759533 0)
(0.028508472 -0.044287755 0)
(0.017569871 -0.048101839 0)