/*--------------------------------*- C++ -*----------------------------------*\
| =========                 |                                                 |
| \\      /  F ield         | OpenFOAM: The Open Source CFD Toolbox           |
|  \\    /   O peration     | Version:  2306                                  |
|   \\  /    A nd           | Website:  www.openfoam.com                      |
|    \\/     M anipulation  |                                                 |
\*---------------------------------------------------------------------------*/
FoamFile
{
    version     2.0;
    format      ascii;
    arch        "LSB;label=32;scalar=64";
    class       volVectorField;
    location    "0.57";
    object      U;
}
// * * * * * * * * * * * * * * * * * * * * * * * * * * * * * * * * * * * * * //

dimensions      [0 1 -1 0 0 0 0];

internalField   nonuniform List<vector> 
6400
(
(4.1137601e-05 -2.6738888e-05 -9.51422e-20)
(9.8118215e-05 -3.3563066e-05 -2.810891e-21)
(0.00016240533 -3.3282008e-05 2.0636143e-20)
(0.00022437028 -3.3517431e-05 -1.6709019e-20)
(0.00028744056 -3.3536097e-05 -3.4521137e-20)
(0.0003496256 -3.3301508e-05 1.5873375e-20)
(0.00041090485 -3.3030602e-05 9.9708108e-21)
(0.00047129712 -3.2720472e-05 -2.3262443e-20)
(0.00053075303 -3.2370839e-05 -2.5967279e-20)
(0.00058919402 -3.1983248e-05 5.2150535e-20)
(0.00064652987 -3.1558163e-05 6.5808383e-20)
(0.00070266415 -3.1096153e-05 -2.3300887e-20)
(0.00075749809 -3.0598219e-05 3.0524427e-20)
(0.00081093454 -3.0065611e-05 5.3860781e-20)
(0.00086287986 -2.9499695e-05 2.4614524e-20)
(0.00091324477 -2.8901923e-05 1.4584875e-20)
(0.00096194488 -2.8273819e-05 -1.2312101e-20)
(0.0010089011 -2.7616946e-05 1.6235909e-20)
(0.0010540399 -2.6932814e-05 1.5548278e-20)
(0.0010972934 -2.6222845e-05 -1.7050795e-20)
(0.0011385998 -2.5488368e-05 1.7014615e-20)
(0.0011779031 -2.4730438e-05 2.720219e-20)
(0.0012151532 -2.394977e-05 -1.4383723e-20)
(0.0012503061 -2.3146497e-05 -8.2691297e-20)
(0.0012833238 -2.2319865e-05 -1.7136249e-19)
(0.0013141742 -2.1467681e-05 6.0150091e-21)
(0.0013428322 -2.0586116e-05 2.3705278e-19)
(0.0013692894 -1.9671014e-05 3.7595811e-20)
(0.0013935647 -1.873408e-05 -1.3132407e-19)
(0.0014156481 -1.7827899e-05 -7.5340866e-20)
(0.0014355054 -1.6961627e-05 -5.1694877e-20)
(0.001453134 -1.6126766e-05 -3.5093408e-20)
(0.0014685488 -1.5315974e-05 -9.9947318e-20)
(0.0014817718 -1.452448e-05 1.1911385e-19)
(0.0014928285 -1.374962e-05 2.318318e-19)
(0.001501749 -1.2990143e-05 -1.4993813e-19)
(0.001508568 -1.2245265e-05 -1.0396965e-19)
(0.0015133243 -1.151495e-05 2.3086815e-19)
(0.0015160616 -1.0799395e-05 -1.034107e-19)
(0.0015168278 -1.0098779e-05 -4.1053856e-19)
(0.0015156745 -9.4137151e-06 -7.3248141e-20)
(0.0015126571 -8.7449803e-06 2.631962e-19)
(0.0015078342 -8.0935002e-06 4.4489689e-19)
(0.0015012684 -7.4613207e-06 3.7159542e-19)
(0.0014930253 -6.8503135e-06 -2.1512196e-19)
(0.001483173 -6.2624151e-06 -7.9576748e-19)
(0.0014717831 -5.6988717e-06 -1.5799689e-19)
(0.0014589295 -5.1605568e-06 2.7954696e-19)
(0.0014446878 -4.6486246e-06 2.5696907e-19)
(0.001429136 -4.1656783e-06 4.1705551e-19)
(0.0014123536 -3.7159308e-06 -2.7222464e-19)
(0.001394421 -3.3053035e-06 -1.8924125e-19)
(0.0013754052 -2.9349482e-06 1.4736053e-19)
(0.001355372 -2.5955538e-06 -2.081047e-19)
(0.0013343976 -2.2550719e-06 2.048899e-19)
(0.0013125473 -1.9117788e-06 1.7158602e-19)
(0.0012898628 -1.5479254e-06 -3.4410458e-19)
(0.0012664857 -1.0916357e-06 -8.2187885e-20)
(0.0012425441 -6.3988333e-07 8.8362719e-20)
(0.001218066 -2.1580965e-07 -4.7008461e-20)
(0.0011931117 1.7754515e-07 1.3317543e-20)
(0.0011677488 5.4147778e-07 7.5329029e-20)
(0.0011420456 8.7739536e-07 -5.976127e-21)
(0.0011160692 1.1876435e-06 -1.370354e-19)
(0.0010898832 1.4737251e-06 -4.0468181e-20)
(0.0010635498 1.7369078e-06 1.3220346e-19)
(0.0010371287 1.9784964e-06 -3.4521835e-20)
(0.0010106763 2.1993601e-06 -1.1804214e-20)
(0.00098424739 2.4002621e-06 -2.525566e-20)
(0.0009578927 2.5828249e-06 -3.2326471e-19)
(0.00093166009 2.7471237e-06 6.3136162e-20)
(0.00090559628 2.8938759e-06 3.0748746e-19)
(0.00087974412 3.0243804e-06 2.1151298e-20)
(0.00085414301 3.1397186e-06 -5.5869528e-20)
(0.00082882889 3.240452e-06 -4.7845807e-20)
(0.00080383627 3.3266049e-06 1.8223007e-19)
(0.0007791962 3.4000483e-06 1.2357219e-19)
(0.0007549365 3.4607957e-06 -1.9915893e-19)
(0.0007310833 3.5099183e-06 -1.9474454e-19)
(0.0007076595 3.5481433e-06 1.4033311e-20)
(8.3346683e-05 -0.00022371644 -7.7524814e-20)
(0.00018791896 -0.0002280144 -2.5693563e-20)
(0.00030552035 -0.00022664399 -3.82675e-20)
(0.00041870277 -0.00022545778 -7.7343058e-20)
(0.00053325369 -0.00022368806 -7.2851304e-20)
(0.00064610742 -0.00022156421 3.1209752e-21)
(0.00075721098 -0.00021934044 -4.2989985e-20)
(0.00086659405 -0.00021700135 -6.8662167e-21)
(0.00097414246 -0.00021450347 3.8834095e-20)
(0.0010796829 -0.00021181346 4.8046534e-20)
(0.0011830229 -0.00020891023 7.5738849e-20)
(0.0012839616 -0.0002057834 6.22767e-20)
(0.0013822971 -0.00020243045 4.1918482e-20)
(0.0014778325 -0.00019885398 -6.0262948e-20)
(0.0015703795 -0.00019505991 1.7563783e-20)
(0.0016597604 -0.00019105621 1.8173558e-20)
(0.0017458084 -0.00018685242 -7.8384894e-20)
(0.0018283686 -0.00018245916 1.0870386e-20)
(0.0019072988 -0.00017788775 9.7336725e-20)
(0.0019824693 -0.00017314995 7.9905488e-20)
(0.0020537636 -0.00016825805 4.3227134e-20)
(0.0021210786 -0.00016322431 3.5693129e-20)
(0.0021843243 -0.00015806103 3.6270356e-22)
(0.0022434246 -0.00015278037 -9.4126196e-20)
(0.0022983172 -0.00014739413 -2.2895105e-19)
(0.0023489543 -0.00014191299 -3.6958098e-20)
(0.0023953014 -0.00013634669 1.7448366e-19)
(0.0024373286 -0.00013070514 4.7399322e-20)
(0.0024749995 -0.00012501045 4.5983036e-20)
(0.002508317 -0.00011931299 -1.045405e-19)
(0.0025373218 -0.00011363484 -2.9693591e-19)
(0.002562048 -0.00010798164 -5.6817443e-20)
(0.0025825336 -0.00010235985 6.3355738e-20)
(0.0025988278 -9.6776429e-05 1.5663934e-19)
(0.0026109908 -9.1240343e-05 1.0400265e-19)
(0.0026190946 -8.5761645e-05 -7.2729921e-20)
(0.0026232212 -8.0349788e-05 1.1572819e-19)
(0.0026234623 -7.5015362e-05 1.7851768e-19)
(0.0026199196 -6.9768362e-05 -5.3366259e-19)
(0.0026127027 -6.4617573e-05 -5.7589588e-19)
(0.0026019283 -5.9572089e-05 6.511155e-19)
(0.0025877208 -5.4640216e-05 4.349313e-19)
(0.0025702097 -4.9828762e-05 -2.770346e-19)
(0.0025495317 -4.5145652e-05 -2.2947046e-19)
(0.0025258304 -4.059484e-05 -1.4928223e-19)
(0.0024992539 -3.6181757e-05 5.3435685e-19)
(0.0024699557 -3.1912646e-05 4.5875878e-19)
(0.002438092 -2.7793024e-05 -4.879173e-19)
(0.0024038187 -2.3827118e-05 -3.3422589e-19)
(0.0023672937 -2.0020317e-05 2.757232e-19)
(0.0023286759 -1.6373857e-05 3.3476437e-19)
(0.0022881312 -1.2883113e-05 -1.579684e-19)
(0.0022458247 -9.4904628e-06 -3.9525273e-19)
(0.0022019356 -6.2656355e-06 -7.7673968e-20)
(0.0021566069 -3.253518e-06 1.8838614e-19)
(0.0021099668 -4.2928196e-07 2.8055153e-19)
(0.0020622091 2.2449689e-06 -7.3578444e-20)
(0.0020134387 4.8135083e-06 -5.7616434e-19)
(0.0019637645 7.2259491e-06 -1.8740005e-19)
(0.0019133782 9.4730415e-06 5.0559663e-19)
(0.0018624344 1.1555631e-05 1.7695253e-19)
(0.001811071 1.3478676e-05 -3.9449261e-19)
(0.00175942 1.5243262e-05 -2.3248073e-19)
(0.0017076085 1.6856171e-05 2.0198611e-19)
(0.0016557551 1.8321168e-05 1.8198858e-20)
(0.0016039762 1.9642753e-05 -8.7709328e-20)
(0.001552383 2.0826333e-05 1.2992202e-19)
(0.0015010783 2.1876478e-05 -1.3908166e-19)
(0.0014501616 2.279754e-05 -1.9368128e-19)
(0.001399724 2.3598328e-05 -1.0868053e-19)
(0.0013498498 2.4281252e-05 -5.9132802e-20)
(0.0013006214 2.4851445e-05 2.1047777e-19)
(0.0012521138 2.5316565e-05 2.3475632e-19)
(0.0012043934 2.5682921e-05 6.8909353e-20)
(0.0011575194 2.5955403e-05 -1.792667e-19)
(0.0011115494 2.6138235e-05 7.2206762e-20)
(0.0010665337 2.6241594e-05 2.9206738e-19)
(0.0010225151 2.6265821e-05 -1.9678813e-19)
(0.00097953278 2.6217858e-05 -2.4007551e-19)
(0.00093761991 2.6104733e-05 6.9434064e-20)
(9.4444973e-05 -0.00050421583 1.1909601e-19)
(0.00021064664 -0.00050353972 4.6888657e-21)
(0.00034188465 -0.00049961995 -5.3349534e-20)
(0.00046785029 -0.00049490618 -1.1279857e-19)
(0.00059530646 -0.00048977393 -5.0089139e-20)
(0.00072078971 -0.00048451974 2.2050521e-20)
(0.00084421291 -0.00047917006 -6.5199256e-20)
(0.00096556066 -0.00047360389 2.4088581e-20)
(0.0010846657 -0.0004677019 7.0517091e-21)
(0.0012013069 -0.0004613768 -7.8645763e-20)
(0.0013152489 -0.00045457511 6.6278311e-20)
(0.0014262512 -0.00044727014 5.1238251e-20)
(0.0015340738 -0.00043945442 1.389477e-19)
(0.001638484 -0.00043113326 -1.1881649e-21)
(0.0017392595 -0.00042232045 -6.8119903e-20)
(0.0018361911 -0.00041303501 5.5682521e-20)
(0.0019290833 -0.00040330002 -6.856113e-21)
(0.0020177553 -0.00039314143 6.4144862e-20)
(0.0021020419 -0.00038258719 8.9457212e-20)
(0.0021817936 -0.00037166657 -3.630868e-20)
(0.0022568778 -0.0003604106 2.5258299e-20)
(0.0023271781 -0.00034885076 4.33632e-20)
(0.0023925949 -0.00033701939 -1.1756587e-20)
(0.0024530453 -0.00032494971 -9.4325214e-20)
(0.0025084635 -0.00031267594 -1.5673808e-19)
(0.0025588005 -0.00030023249 -8.1795594e-20)
(0.0026040232 -0.00028765447 -4.8825644e-22)
(0.002644113 -0.0002749781 5.581081e-20)
(0.0026790675 -0.00026223518 5.3990772e-20)
(0.0027089055 -0.00024943826 2.8875498e-20)
(0.0027336636 -0.00023661922 -3.5226496e-20)
(0.0027533882 -0.00022381297 -1.984592e-19)
(0.0027681388 -0.00021105529 -7.0291307e-20)
(0.0027779905 -0.00019837634 1.1818302e-19)
(0.0027830305 -0.00018580644 5.9894978e-20)
(0.0027833614 -0.00017337395 7.5195491e-20)
(0.0027790967 -0.00016110531 2.2360145e-21)
(0.0027703613 -0.00014902765 -1.1108853e-19)
(0.0027572922 -0.00013716544 -2.2311236e-19)
(0.0027400356 -0.00012554054 -2.3145243e-19)
(0.0027187465 -0.00011417431 1.0231781e-19)
(0.0026935893 -0.00010308669 2.5089038e-19)
(0.0026647341 -9.2294643e-05 1.5383743e-19)
(0.0026323602 -8.1815847e-05 6.748292e-20)
(0.0025966522 -7.1662077e-05 -2.0087471e-20)
(0.0025577957 -6.1846484e-05 -1.0738654e-19)
(0.0025159828 -5.2380656e-05 -2.1453583e-20)
(0.0024714118 -4.3275768e-05 -1.7734636e-20)
(0.0024242799 -3.4536742e-05 1.5731587e-19)
(0.0023747906 -2.616662e-05 3.465471e-19)
(0.0023231544 -1.8137695e-05 -1.1251594e-19)
(0.0022696239 -1.0513094e-05 -2.634009e-19)
(0.0022142995 -3.3686787e-06 3.0861115e-20)
(0.0021572655 3.3711726e-06 3.8950077e-21)
(0.002098813 9.6960036e-06 -6.9554354e-20)
(0.0020392034 1.561905e-05 -3.6185074e-20)
(0.0019786174 2.1146102e-05 -7.4926924e-20)
(0.0019172271 2.6242661e-05 -1.2332424e-19)
(0.0018552068 3.0959838e-05 -6.871421e-20)
(0.0017927234 3.5310761e-05 -4.8021559e-20)
(0.0017299441 3.9301569e-05 1.3654136e-20)
(0.001667028 4.2945045e-05 4.5986307e-22)
(0.0016041307 4.6240796e-05 -2.2297594e-19)
(0.0015414019 4.9203623e-05 -2.0229307e-20)
(0.0014789792 5.1842071e-05 2.8317805e-19)
(0.001416998 5.416508e-05 1.4647335e-19)
(0.0013555854 5.6185981e-05 -1.9467894e-19)
(0.0012948579 5.7916458e-05 -3.7775826e-19)
(0.0012349291 5.9366214e-05 -6.4766175e-20)
(0.0011759002 6.0556701e-05 -9.5084404e-20)
(0.0011178621 6.1493126e-05 -1.4737109e-19)
(0.0010609066 6.2186694e-05 5.4696193e-20)
(0.0010051151 6.2655167e-05 6.4552353e-20)
(0.00095055599 6.2915435e-05 2.0024087e-19)
(0.00089729141 6.2982293e-05 9.2956658e-20)
(0.00084538288 6.2857251e-05 2.8763343e-19)
(0.00079487462 6.2565055e-05 1.5096739e-19)
(0.00074580703 6.2115927e-05 -4.8270345e-19)
(0.00069822246 6.1517133e-05 -1.2700778e-19)
(0.00065214832 6.0787401e-05 3.5190977e-19)
(9.0107528e-05 -0.00077454425 4.572834e-19)
(0.00020272274 -0.00076955123 1.4403445e-19)
(0.00033043998 -0.00076291861 -7.2933912e-20)
(0.00045315808 -0.00075505325 -1.1818517e-20)
(0.00057766936 -0.00074683693 -1.8459892e-19)
(0.00070028904 -0.00073853834 -5.8327302e-20)
(0.00082082941 -0.00073001712 -3.8617332e-20)
(0.00093917966 -0.00072108161 2.0524274e-20)
(0.0010551183 -0.00071156724 2.5823145e-21)
(0.001168396 -0.00070135494 2.4586044e-21)
(0.0012787629 -0.00069037223 6.4295197e-20)
(0.0013859699 -0.00067858381 9.1029069e-21)
(0.0014897718 -0.00066598177 1.5400855e-19)
(0.0015899313 -0.00065257689 8.5714591e-20)
(0.0016862229 -0.00063839265 -4.5440358e-21)
(0.0017784342 -0.00062346084 1.1096553e-19)
(0.0018663671 -0.00060781961 1.8777556e-20)
(0.001949839 -0.00059151162 5.8674051e-20)
(0.0020286836 -0.00057458278 9.4978857e-20)
(0.0021027513 -0.00055708139 -8.7450908e-21)
(0.0021719105 -0.00053905812 4.7382734e-20)
(0.0022360474 -0.00052056461 5.6321153e-20)
(0.0022950658 -0.00050165366 -9.4027662e-20)
(0.0023488875 -0.00048237917 -7.1764578e-20)
(0.0023974529 -0.00046279592 1.3251462e-19)
(0.00244072 -0.00044295862 7.8485472e-20)
(0.0024786648 -0.0004229212 -1.2975514e-19)
(0.0025112796 -0.00040273821 -7.3360415e-20)
(0.0025385757 -0.00038246338 8.6239105e-20)
(0.0025605821 -0.00036214616 8.0005928e-20)
(0.0025773463 -0.00034184103 -1.3177233e-19)
(0.0025889291 -0.00032159908 -2.2798464e-19)
(0.0025954072 -0.00030147332 3.03574e-20)
(0.0025968728 -0.00028150998 2.2224518e-19)
(0.0025934305 -0.00026175665 -1.146023e-20)
(0.0025852013 -0.00024225571 -3.5608766e-19)
(0.0025723159 -0.00022304988 -1.2744669e-19)
(0.0025549178 -0.00020418132 1.0764789e-19)
(0.0025331637 -0.0001856864 -2.3666386e-19)
(0.0025072198 -0.00016760029 -2.0616854e-19)
(0.0024772604 -0.00014995612 7.3999881e-21)
(0.0024434689 -0.00013278564 4.8432698e-20)
(0.0024060338 -0.0001161175 1.3393701e-19)
(0.0023651529 -9.9978865e-05 2.5097401e-19)
(0.0023210311 -8.4394234e-05 1.116653e-19)
(0.0022738748 -6.9384743e-05 -1.1086866e-19)
(0.0022238966 -5.496853e-05 -1.559244e-20)
(0.0021713152 -4.1162752e-05 1.2311763e-19)
(0.0021163484 -2.7962079e-05 2.7401055e-19)
(0.0020592392 -1.5396813e-05 3.4067193e-19)
(0.0020001379 -3.5183449e-06 -3.9542073e-20)
(0.0019391622 7.6894702e-06 -4.1684939e-19)
(0.0018766676 1.8156415e-05 -9.5861166e-20)
(0.0018129463 2.7965435e-05 2.3434107e-19)
(0.0017481239 3.7173503e-05 -4.4015931e-20)
(0.0016823877 4.5777013e-05 -2.4276446e-19)
(0.0016159345 5.3774733e-05 -1.9034567e-19)
(0.0015489573 6.1154234e-05 -8.1121596e-20)
(0.0014816446 6.7931593e-05 2.0901222e-21)
(0.0014141767 7.4115219e-05 -3.9793348e-20)
(0.0013467362 7.9710948e-05 3.7902996e-20)
(0.0012794839 8.4739229e-05 1.1036152e-19)
(0.0012125817 8.9213199e-05 -4.6441499e-20)
(0.001146188 9.3151363e-05 -1.032849e-19)
(0.0010804385 9.6572983e-05 -2.9826643e-20)
(0.0010154726 9.9495943e-05 1.5053459e-19)
(0.0009514204 0.00010194121 -5.4958908e-20)
(0.0008883962 0.00010393472 -3.3513554e-19)
(0.0008265176 0.00010548493 -1.6675506e-19)
(0.00076587882 0.00010662102 -1.2225823e-19)
(0.00070656244 0.00010738036 6.3162918e-20)
(0.00064866584 0.00010775754 8.5849785e-20)
(0.00059227016 0.00010778825 -8.666931e-20)
(0.00053743902 0.00010751153 -9.7750371e-20)
(0.00048421387 0.00010692169 1.0658149e-19)
(0.00043265614 0.00010605502 4.0611135e-19)
(0.0003828172 0.00010494309 -1.2897579e-19)
(0.00033471613 0.00010358526 -4.4831136e-19)
(0.00028838916 0.00010201567 9.8960525e-20)
(0.00024386149 0.00010025454 8.2938791e-20)
(8.2725333e-05 -0.0010255545 6.6794801e-19)
(0.00018728249 -0.0010190936 1.2340473e-19)
(0.00030686341 -0.0010109659 -1.5261991e-19)
(0.00042225688 -0.001001122 -3.6203232e-19)
(0.00053979635 -0.00099060983 -1.7690638e-19)
(0.00065568395 -0.00097969731 3.2590096e-20)
(0.00076961119 -0.00096822157 1.0390177e-19)
(0.00088135807 -0.00095599598 7.8082756e-20)
(0.00099064753 -0.00094285969 8.7666229e-20)
(0.0010972048 -0.0009286955 3.2552333e-20)
(0.0012007704 -0.00091343319 1.4673415e-19)
(0.0013010939 -0.00089704172 9.4697214e-20)
(0.0013979327 -0.00087952052 1.5952153e-19)
(0.0014910542 -0.00086089069 1.6604839e-19)
(0.0015802386 -0.00084118839 3.1770221e-20)
(0.0016652789 -0.00082046065 1.3616207e-19)
(0.0017459826 -0.00079876263 7.410068e-20)
(0.0018221727 -0.00077615542 1.1011878e-19)
(0.0018936886 -0.00075270443 1.0909123e-19)
(0.0019603868 -0.0007284786 -2.9298765e-20)
(0.0020221416 -0.0007035499 1.3590471e-20)
(0.0020788456 -0.00067799169 1.4809536e-19)
(0.002130409 -0.00065187892 1.0441673e-19)
(0.0021767608 -0.00062528819 1.6052261e-19)
(0.0022178487 -0.00059829638 2.3656217e-19)
(0.0022536393 -0.00057098087 -6.2944708e-21)
(0.0022841169 -0.00054341829 -2.3525053e-19)
(0.0023092825 -0.00051568544 -1.499287e-19)
(0.0023291574 -0.00048785673 6.7498361e-20)
(0.0023437783 -0.00046000584 2.0008644e-20)
(0.0023532025 -0.00043220645 -1.5821134e-19)
(0.0023575015 -0.00040452793 1.6120202e-20)
(0.0023567626 -0.00037704265 1.2634673e-19)
(0.0023510889 -0.00034981555 1.1835001e-19)
(0.0023405959 -0.00032291386 -1.9415923e-19)
(0.0023254154 -0.00029639585 -4.4727351e-19)
(0.0023056875 -0.00027032244 -8.5102354e-20)
(0.0022815686 -0.00024475118 1.0335734e-19)
(0.0022532266 -0.00021973126 -1.9563161e-19)
(0.0022208375 -0.00019531296 -3.077378e-19)
(0.0021845852 -0.00017154062 -2.4381762e-19)
(0.0021446636 -0.00014845672 2.0738525e-19)
(0.0021012728 -0.00012609998 4.2605293e-19)
(0.0020546202 -0.00010450411 1.1324643e-19)
(0.0020049204 -8.3702585e-05 -2.029235e-19)
(0.0019523884 -6.3718472e-05 -1.6577404e-19)
(0.0018972437 -4.4587744e-05 1.3478259e-19)
(0.0018397268 -2.6331611e-05 4.1603453e-19)
(0.0017800407 -8.9653079e-06 1.8463739e-19)
(0.0017183548 7.4981014e-06 -8.4397178e-20)
(0.0016549469 2.3013236e-05 9.7736367e-20)
(0.0015900682 3.763323e-05 2.7637858e-20)
(0.0015239059 5.1428949e-05 -1.0747041e-19)
(0.0014566822 6.4321315e-05 5.3331825e-21)
(0.001388611 7.6299782e-05 2.2687785e-20)
(0.0013199037 8.7376472e-05 -2.0960427e-20)
(0.0012507451 9.7568082e-05 -3.1342618e-19)
(0.0011813329 0.00010688111 -3.7373384e-19)
(0.0011118673 0.00011534374 -5.3931349e-20)
(0.0010425158 0.00012297051 3.3895571e-20)
(0.0009734605 0.00012978599 1.5385576e-19)
(0.00090486954 0.00013581077 2.583073e-19)
(0.00083690025 0.00014107298 1.0128137e-19)
(0.00076970717 0.00014559635 -2.1194786e-19)
(0.00070342597 0.00014940785 -4.3379867e-19)
(0.00063819169 0.00015253735 -1.0413314e-20)
(0.00057413521 0.00015501585 1.7121273e-19)
(0.00051135688 0.00015688078 3.0937781e-20)
(0.00044996771 0.0001581436 -2.5554399e-19)
(0.00039008771 0.00015883931 -4.9633318e-19)
(0.0003317673 0.00015901859 8.3226114e-20)
(0.00027508853 0.00015871031 3.6052074e-19)
(0.00022016396 0.00015793026 1.8468231e-19)
(0.00016701186 0.00015672577 -1.5318885e-19)
(0.00011567983 0.00015511711 -2.3742994e-19)
(6.62534e-05 0.00015315288 -6.4944519e-20)
(1.8727514e-05 0.00015085323 -2.4581735e-19)
(-2.6868028e-05 0.00014824611 1.127069e-20)
(-7.0484953e-05 0.00014536862 1.1031204e-19)
(-0.00011212621 0.00014224517 -2.1944671e-19)
(7.6931756e-05 -0.0012564047 6.9603616e-19)
(0.00017486052 -0.0012503405 1.3465752e-19)
(0.00028750967 -0.0012418528 2.5660744e-20)
(0.00039668555 -0.0012311098 -1.7028293e-19)
(0.00050825624 -0.001219081 -8.216856e-20)
(0.00061841893 -0.0012060514 -3.5508289e-20)
(0.00072677358 -0.0011919369 -3.9829496e-20)
(0.00083300915 -0.0011766157 -1.5493639e-20)
(0.00093679882 -0.0011599721 8.6244359e-20)
(0.0010378412 -0.0011419204 2.0350119e-20)
(0.0011358638 -0.0011224122 7.0488668e-20)
(0.001230611 -0.0011014337 6.5188513e-20)
(0.0013218397 -0.0010789995 3.1067337e-20)
(0.00140932 -0.001055146 -1.6863585e-20)
(0.0014928356 -0.0010299253 -2.9324176e-20)
(0.001572184 -0.0010034017 1.5934958e-19)
(0.0016471778 -0.00097564876 4.8129194e-20)
(0.0017176448 -0.00094674698 7.3487547e-21)
(0.0017834295 -0.00091678245 4.4219005e-20)
(0.0018443934 -0.00088584484 5.1230971e-20)
(0.0019004164 -0.00085402816 1.2225515e-19)
(0.0019513966 -0.00082142833 1.8774538e-19)
(0.0019972495 -0.00078814248 2.0435196e-19)
(0.0020379099 -0.0007542706 1.0503159e-19)
(0.002073332 -0.00071991168 8.1218359e-20)
(0.0021034882 -0.0006851657 -4.9052581e-20)
(0.0021283689 -0.00065013373 -1.4569424e-19)
(0.0021479823 -0.0006149142 -1.2639813e-19)
(0.0021623564 -0.00057960206 -7.2262671e-20)
(0.0021715353 -0.00054429511 -5.2846866e-20)
(0.002175583 -0.00050908828 1.4126304e-20)
(0.0021745765 -0.00047407141 1.508575e-19)
(0.0021686112 -0.00043933459 3.9020459e-20)
(0.0021577973 -0.00040496326 -2.1279855e-19)
(0.0021422582 -0.00037104353 -3.0734394e-19)
(0.0021221329 -0.00033764996 -1.2283219e-19)
(0.0020975684 -0.00030485972 -6.7491259e-20)
(0.0020687297 -0.00027274648 -1.6725402e-19)
(0.0020357906 -0.00024137305 -2.4625009e-19)
(0.0019989341 -0.00021080484 -3.6438419e-19)
(0.0019583524 -0.00018109559 -2.5972841e-19)
(0.0019142446 -0.00015230168 7.499704e-20)
(0.0018668163 -0.0001244693 1.0946128e-19)
(0.0018162805 -9.7640793e-05 -6.2511512e-20)
(0.0017628591 -7.1861394e-05 -3.2915322e-21)
(0.001706762 -4.7160624e-05 1.1744483e-19)
(0.0016482123 -2.3581366e-05 2.1259687e-19)
(0.0015874546 -1.1148814e-06 6.7222637e-20)
(0.0015247217 2.0180459e-05 -7.1267514e-20)
(0.0014602324 4.0307308e-05 -6.8305609e-21)
(0.001394206 5.9296853e-05 3.2548702e-20)
(0.0013268714 7.7108417e-05 5.0465095e-20)
(0.0012584491 9.3751205e-05 8.3909462e-20)
(0.0011891541 0.00010922967 -6.6417793e-20)
(0.0011192061 0.00012354307 -1.5129094e-19)
(0.0010488208 0.00013670498 9.0470499e-20)
(0.00097818644 0.00014872973 1.3135874e-20)
(0.00090750264 0.00015963917 -1.6809552e-19)
(0.00083696254 0.00016946417 -1.8646791e-19)
(0.00076673977 0.00017820603 -2.2591079e-19)
(0.00069701749 0.00018591589 1.9206771e-20)
(0.00062795425 0.0001926207 2.5582118e-19)
(0.00055970987 0.00019834925 2.5264238e-19)
(0.00049243552 0.00020314487 -1.6601222e-20)
(0.00042626381 0.00020703479 -2.9394837e-19)
(0.00036133073 0.00021005977 -1.3649547e-19)
(0.00029776444 0.00021225979 -8.9460499e-20)
(0.00023565096 0.00021369878 1.1173007e-21)
(0.00017509794 0.00021437699 -1.424645e-20)
(0.0001162264 0.00021434784 -2.249101e-19)
(5.9103095e-05 0.00021365739 -6.0197536e-20)
(3.7814133e-06 0.00021237204 5.7970488e-20)
(-4.9651852e-05 0.00021051569 8.1247807e-20)
(-0.00010113885 0.00020811681 5.098132e-20)
(-0.00015064831 0.00020524424 2.8900943e-20)
(-0.00019813047 0.00020192763 -1.2730592e-19)
(-0.0002435655 0.00019819267 -3.042128e-19)
(-0.00028693088 0.00019410536 -4.4526776e-20)
(-0.00032820458 0.00018968912 -3.6967999e-21)
(-0.00036738234 0.00018498097 -7.774372e-20)
(7.3958621e-05 -0.0014746812 7.5670722e-19)
(0.00016824597 -0.0014697792 -8.3643488e-20)
(0.00027695508 -0.0014615627 -9.6457265e-20)
(0.00038257325 -0.0014505408 2.2873214e-19)
(0.00049068876 -0.0014374758 5.1214623e-20)
(0.00059755294 -0.0014226698 -2.5147284e-19)
(0.00070272311 -0.0014061547 -1.3260751e-19)
(0.00080583351 -0.0013878993 2.9567366e-20)
(0.0009065215 -0.0013678546 -1.215187e-20)
(0.0010044614 -0.001345983 3.0301026e-20)
(0.0010993647 -0.0013222709 1.0631693e-19)
(0.0011909659 -0.0012967308 1.0705453e-19)
(0.0012790156 -0.0012693983 1.4092601e-19)
(0.0013632813 -0.0012403297 7.1349547e-20)
(0.0014435455 -0.0012095957 -1.752437e-20)
(0.0015196057 -0.00117728 1.4231679e-19)
(0.0015912756 -0.0011434759 9.8421006e-20)
(0.0016583844 -0.0011082839 6.7827218e-20)
(0.001720779 -0.0010718121 1.4800141e-19)
(0.001778323 -0.0010341713 7.0723688e-20)
(0.0018308988 -0.00099547797 8.8472683e-20)
(0.0018784082 -0.00095585101 1.1301784e-19)
(0.0019207697 -0.00091541045 1.8060932e-19)
(0.0019579218 -0.00087428 1.5306264e-19)
(0.0019898225 -0.00083258112 6.4030825e-20)
(0.0020164475 -0.0007904371 1.0645425e-20)
(0.0020377923 -0.00074797349 -7.7396505e-20)
(0.002053871 -0.00070531041 -1.22402e-19)
(0.0020647155 -0.0006625652 -9.3081802e-20)
(0.0020703742 -0.00061985718 -1.2901542e-20)
(0.0020709176 -0.00057730446 6.9766105e-20)
(0.0020664283 -0.00053501872 1.0736805e-19)
(0.0020570066 -0.00049310562 -6.1877891e-21)
(0.0020427669 -0.00045167371 -1.0497433e-19)
(0.0020238402 -0.00041082512 -1.155894e-19)
(0.0020003731 -0.00037065229 -1.5293657e-19)
(0.0019725158 -0.00033125073 -1.9972407e-19)
(0.0019404396 -0.00029270741 -3.3036785e-19)
(0.0019043248 -0.00025510038 -2.8122363e-19)
(0.0018643621 -0.00021850825 -2.1245449e-19)
(0.0018207476 -0.00018299767 -1.6879297e-19)
(0.0017736872 -0.00014863383 -2.7929203e-19)
(0.0017233939 -0.000115479 -2.1291969e-19)
(0.0016700782 -8.3579467e-05 9.9881179e-20)
(0.0016139691 -5.2982757e-05 2.2391002e-19)
(0.0015552857 -2.3740486e-05 2.4302765e-19)
(0.0014942879 4.1633374e-06 2.2699246e-19)
(0.0014311994 3.067544e-05 -6.1862582e-20)
(0.0013662158 5.576654e-05 -2.3661683e-20)
(0.0012995913 7.9417864e-05 -4.5044128e-20)
(0.0012315559 0.00010162558 -1.893203e-19)
(0.0011623385 0.00012238283 -3.5339067e-20)
(0.0010921708 0.00014169077 1.5538701e-20)
(0.0010212616 0.00015956243 -3.8823779e-20)
(0.00094982834 0.00017601038 -3.5636241e-20)
(0.00087809508 0.00019104517 1.3929803e-20)
(0.00080625126 0.00020469334 -2.1159353e-20)
(0.00073450367 0.00021697549 2.4990334e-20)
(0.00066302914 0.00022793119 -5.3410721e-20)
(0.0005920075 0.00023757394 -2.7260777e-19)
(0.00052163939 0.00024595487 -1.0496525e-19)
(0.00045206664 0.00025311808 5.1107159e-20)
(0.00038345365 0.00025909295 1.5212874e-19)
(0.00031594818 0.00026394778 1.0358934e-19)
(0.00024967556 0.00026770385 -1.1085808e-19)
(0.00018477533 0.00027042153 -7.366341e-20)
(0.0001213947 0.00027214337 -1.4952337e-19)
(5.958562e-05 0.00027291258 -4.7646233e-20)
(-5.5799366e-07 0.00027280098 7.7955655e-20)
(-5.8878765e-05 0.00027185477 -6.852356e-20)
(-0.00011532332 0.00027012275 -4.1700483e-20)
(-0.00016983876 0.00026766324 -4.3930618e-20)
(-0.00022235672 0.00026453966 -6.2890603e-20)
(-0.00027282427 0.00026078589 1.4253102e-20)
(-0.0003212022 0.00025646372 8.3930206e-20)
(-0.00036745452 0.00025162051 -2.0499488e-20)
(-0.0004115576 0.00024630317 -1.7463592e-19)
(-0.00045349404 0.00024056653 -1.4691438e-19)
(-0.00049325175 0.00023445457 -1.4446912e-19)
(-0.00053082814 0.00022801211 -2.6505501e-20)
(7.3399557e-05 -0.0016882617 9.5669752e-19)
(0.00016682752 -0.0016845219 1.8304411e-19)
(0.00027450003 -0.0016767059 -6.2467067e-20)
(0.00037915005 -0.0016655717 -2.3636981e-20)
(0.00048628936 -0.0016516292 2.4450435e-20)
(0.00059222628 -0.0016351844 3.7042076e-20)
(0.00069651605 -0.001616376 -5.0695968e-20)
(0.00079877303 -0.0015952607 1.1098737e-19)
(0.00089861452 -0.001571859 1.5311772e-19)
(0.00099569621 -0.0015461861 9.0198037e-20)
(0.0010897136 -0.0015182683 1.605905e-19)
(0.0011803884 -0.0014881485 1.4119271e-19)
(0.0012674611 -0.0014558882 2.3480583e-19)
(0.0013506916 -0.0014215659 1.7280471e-19)
(0.0014298568 -0.0013852735 6.2899934e-20)
(0.0015047504 -0.0013471158 8.8979719e-20)
(0.0015751832 -0.0013072073 5.6025617e-20)
(0.001640982 -0.00126567 8.5499569e-20)
(0.0017019931 -0.0012226339 1.8842122e-19)
(0.0017580798 -0.0011782326 1.5738665e-19)
(0.0018091239 -0.0011326057 1.2951714e-19)
(0.0018550285 -0.0010858949 2.4349051e-19)
(0.001895713 -0.0010382445 3.1148684e-19)
(0.0019311177 -0.00098980207 2.7130635e-19)
(0.0019612029 -0.00094071243 9.0740588e-20)
(0.0019859459 -0.00089112329 1.2363273e-19)
(0.0020053459 -0.00084118285 5.1671679e-21)
(0.002019422 -0.00079103446 -8.9886743e-20)
(0.0020282097 -0.00074081989 -7.7762347e-20)
(0.0020317594 -0.00069067983 3.230553e-20)
(0.0020301459 -0.00064075336 2.0099065e-19)
(0.0020234594 -0.00059117529 2.5794468e-19)
(0.002011804 -0.0005420701 1.1555045e-19)
(0.0019952997 -0.00049356603 9.0278134e-20)
(0.0019740852 -0.00044578259 -5.8891784e-21)
(0.0019483088 -0.00039883327 -1.2576498e-19)
(0.0019181266 -0.00035282982 -1.5431513e-19)
(0.00188372 -0.0003078675 -3.4088301e-19)
(0.0018452749 -0.00026404574 -2.6275806e-19)
(0.0018029869 -0.00022145322 -1.6477653e-19)
(0.0017570603 -0.0001801719 -2.1864052e-19)
(0.0017077011 -0.00014027484 -1.9283608e-19)
(0.0016551318 -0.0001018337 -1.0671347e-19)
(0.0015995793 -6.4905717e-05 2.2491674e-20)
(0.0015412606 -2.9548125e-05 1.1978529e-19)
(0.0014804494 4.2319788e-06 2.6929592e-19)
(0.0014173637 3.6377223e-05 2.6397365e-19)
(0.0013521997 6.6828048e-05 5.5385721e-20)
(0.0012852201 9.5578306e-05 -3.8315136e-20)
(0.0012166672 0.00012261454 -1.1459315e-19)
(0.0011467736 0.00014793149 -2.2418409e-19)
(0.0010757717 0.00017151899 -1.1381768e-19)
(0.0010038968 0.00019338266 -5.281044e-20)
(0.00093136985 0.00021353109 -4.7821146e-20)
(0.00085840664 0.00023199703 4.6517715e-20)
(0.00078523398 0.00024878666 5.8895659e-20)
(0.00071204152 0.00026392386 -6.6021166e-20)
(0.00063903774 0.00027745154 -2.4714469e-20)
(0.00056640853 0.00028939452 -1.0382082e-20)
(0.00049433218 0.00029980958 -1.9541431e-19)
(0.00042301509 0.00030872122 -1.3818688e-19)
(0.00035259344 0.00031621575 -4.4174718e-20)
(0.00028324493 0.00032230352 -1.4785259e-20)
(0.00021510561 0.00032706408 -3.080646e-20)
(0.00014829645 0.00033053995 -7.7518821e-20)
(8.2968271e-05 0.00033282331 -5.6472997e-20)
(1.9228695e-05 0.00033391602 -1.3088562e-19)
(-4.2813335e-05 0.0003338851 9.7707811e-21)
(-0.00010305283 0.00033285015 8.5098301e-20)
(-0.00016139558 0.00033085358 -4.0269004e-20)
(-0.00021777123 0.00032794658 -3.2026968e-20)
(-0.00027211617 0.00032419776 -6.2496704e-20)
(-0.00032437063 0.0003196734 2.227583e-20)
(-0.00037448608 0.00031443254 6.0901427e-20)
(-0.00042242361 0.00030853866 -1.0744131e-20)
(-0.00046815172 0.00030205189 -1.1489828e-19)
(-0.00051164864 0.0002950309 -1.7814143e-19)
(-0.00055290015 0.00028753483 -1.8240381e-20)
(-0.00059189901 0.00027961915 -6.3963116e-20)
(-0.00062864589 0.00027133748 -8.8525972e-20)
(7.4495941e-05 -0.0019029897 1.1791585e-18)
(0.00016910362 -0.0019001009 4.3435282e-19)
(0.00027795172 -0.0018925227 -1.5340831e-19)
(0.00038364013 -0.0018811553 -2.3548529e-19)
(0.00049175839 -0.0018662699 -1.2218957e-19)
(0.00059863734 -0.0018481626 2.7934757e-20)
(0.00070385127 -0.0018270508 -8.4377783e-20)
(0.00080701738 -0.0018030621 -1.815846e-20)
(0.00090774492 -0.0017762783 4.3204003e-20)
(0.0010056767 -0.001746764 6.632292e-20)
(0.0011004941 -0.0017145845 8.5910347e-22)
(0.0011919057 -0.0016798148 -1.4266084e-20)
(0.0012796398 -0.0016425437 7.5326932e-20)
(0.0013634461 -0.0016028737 4.6630148e-20)
(0.0014430929 -0.0015609198 6.114031e-21)
(0.0015183667 -0.0015168093 1.1087506e-19)
(0.0015890729 -0.0014706791 -3.6327095e-21)
(0.0016550337 -0.0014226744 -1.7206037e-21)
(0.0017160918 -0.0013729475 1.4602752e-21)