/*--------------------------------*- C++ -*----------------------------------*\
| =========                 |                                                 |
| \\      /  F ield         | OpenFOAM: The Open Source CFD Toolbox           |
|  \\    /   O peration     | Version:  2306                                  |
|   \\  /    A nd           | Website:  www.openfoam.com                      |
|    \\/     M anipulation  |                                                 |
\*---------------------------------------------------------------------------*/
FoamFile
{
    version     2.0;
    format      ascii;
    arch        "LSB;label=32;scalar=64";
    class       volVectorField;
    location    "0.58";
    object      U;
}
// * * * * * * * * * * * * * * * * * * * * * * * * * * * * * * * * * * * * * //

dimensions      [0 1 -1 0 0 0 0];

internalField   nonuniform List<vector> 
6400
(
(-0.003059615 -0.11455008 1.6046706e-16)
(-0.0070615046 -0.1143068 2.1423932e-16)
(-0.011533469 -0.11338281 4.5666298e-17)
(-0.015712363 -0.1119449 -4.5709634e-17)
(-0.01984151 -0.11001292 -2.083963e-16)
(-0.023725455 -0.10765432 -9.0130618e-17)
(-0.027335439 -0.10493701 -9.0731118e-17)
(-0.030651515 -0.10191834 -4.9419704e-17)
(-0.033659442 -0.098651578 1.911899e-18)
(-0.036351856 -0.095187742 -4.0880477e-17)
(-0.038728687 -0.091575329 -1.4991172e-17)
(-0.040796185 -0.08785945 -6.2462922e-18)
(-0.042565699 -0.084080955 -1.111924e-17)
(-0.044052417 -0.080275881 7.4009641e-18)
(-0.045274174 -0.076475212 8.1712993e-18)
(-0.046250374 -0.072704914 1.5327689e-17)
(-0.047001085 -0.068986196 -2.754374e-18)
(-0.047546313 -0.065335923 1.0649852e-17)
(-0.047905452 -0.061767109 2.1253958e-17)
(-0.048096901 -0.058289452 1.7871184e-17)
(-0.048137818 -0.054909864 9.1812112e-18)
(-0.048043977 -0.051632966 4.3873622e-18)
(-0.047829724 -0.04846154 1.8067798e-18)
(-0.047507989 -0.045396928 1.551736e-17)
(-0.047090346 -0.04243937 2.3278438e-17)
(-0.046587107 -0.039588293 3.3509939e-18)
(-0.046007432 -0.036842542 -6.2942156e-19)
(-0.045359449 -0.034200574 9.5067397e-18)
(-0.04465038 -0.031660607 1.822753e-17)
(-0.043886659 -0.02922073 1.959035e-17)
(-0.043074043 -0.026878986 5.7513127e-18)
(-0.042217718 -0.024633425 1.1973613e-18)
(-0.041322391 -0.022482148 2.8884608e-18)
(-0.040392373 -0.020423322 8.072187e-18)
(-0.039431647 -0.018455191 1.0592199e-17)
(-0.038443934 -0.016576078 -9.1894848e-19)
(-0.037432737 -0.014784374 -9.1218995e-19)
(-0.036401386 -0.013078529 2.8667421e-18)
(-0.035353069 -0.011457033 5.2620979e-18)
(-0.034290856 -0.0099184035 8.974758e-18)
(-0.033217718 -0.0084611666 5.30988e-18)
(-0.032136542 -0.0070838424 5.6946586e-19)
(-0.031050135 -0.0057849274 -5.9581315e-18)
(-0.02996123 -0.0045628775 -4.7502295e-18)
(-0.028872485 -0.0034160958 -7.3313449e-19)
(-0.027786479 -0.002342926 -1.6202254e-18)
(-0.026705717 -0.0013416412 -5.7189247e-18)
(-0.02563266 -0.00041042762 -6.0711331e-18)
(-0.024569603 0.00045258935 -5.1772291e-18)
(-0.02351871 0.001249315 -3.0174648e-19)
(-0.022482203 0.0019818283 2.5762504e-18)
(-0.021462062 0.0026522423 3.7688078e-19)
(-0.020460182 0.0032627528 1.6456048e-19)
(-0.019478331 0.003815625 -1.1687504e-18)
(-0.018518143 0.0043131888 -3.9804146e-19)
(-0.017581114 0.0047578316 2.4718989e-18)
(-0.016668599 0.00515199 3.0804575e-18)
(-0.015781803 0.0054981397 7.3958461e-19)
(-0.014921787 0.0057987865 -1.6272058e-18)
(-0.014089458 0.0060564553 -3.6994855e-19)
(-0.013285575 0.0062736787 1.5903747e-18)
(-0.012510746 0.0064529874 6.8389838e-19)
(-0.01176543 0.0065968982 -1.8753575e-18)
(-0.011049944 0.0067079035 -2.0072451e-18)
(-0.01036446 0.00678846 -8.6647577e-20)
(-0.0097090148 0.0068409795 1.2347977e-18)
(-0.0090835158 0.006867818 1.305867e-18)
(-0.0084877446 0.0068712676 3.7166148e-19)
(-0.0079213664 0.0068535469 -7.9915326e-19)
(-0.0073839371 0.006816794 7.4788033e-19)
(-0.0068749124 0.0067630596 1.2152938e-18)
(-0.0063936566 0.0066943001 2.7348248e-19)
(-0.0059394516 0.0066123739 -5.9140525e-19)
(-0.0055115064 0.0065190362 -1.3642006e-18)
(-0.0051089671 0.0064159361 -4.7555026e-20)
(-0.0047309264 0.0063046144 4.5867294e-20)
(-0.0043764332 0.0061865029 -9.3486964e-20)
(-0.0040445017 0.0060629226 -5.7611346e-19)
(-0.0037341217 0.0059350858 -8.7223214e-19)
(-0.0034442663 0.0058040973 -6.1195679e-19)
(-0.0027489175 -0.10594246 3.4129449e-17)
(-0.0063408476 -0.10573878 -1.4132944e-16)
(-0.01036181 -0.10495052 -4.5895564e-18)
(-0.014129516 -0.10371712 7.0449192e-18)
(-0.017864147 -0.10205148 2.0046719e-17)
(-0.02139265 -0.10000882 3.4931942e-18)
(-0.02469004 -0.09764546 -1.8718195e-17)
(-0.027738621 -0.095009123 3.0658852e-17)
(-0.030525105 -0.092144093 8.1923646e-18)
(-0.033041551 -0.089092912 -6.8099832e-18)
(-0.035285882 -0.085896334 1.737211e-17)
(-0.037261215 -0.082592697 1.5832291e-17)
(-0.038974995 -0.079217227 1.1930497e-17)
(-0.040438075 -0.075801532 1.9536149e-17)
(-0.041663814 -0.072373332 7.8541513e-18)
(-0.042667231 -0.068956396 -1.292406e-18)
(-0.043464265 -0.065570662 1.4132047e-17)
(-0.044071163 -0.062232483 1.9843341e-17)
(-0.044503991 -0.058954961 2.395494e-17)
(-0.044778269 -0.055748335 2.0969417e-17)
(-0.044908716 -0.052620375 2.507903e-17)
(-0.044909089 -0.049576769 1.4774279e-17)
(-0.044792094 -0.046621487 8.916173e-18)
(-0.04456936 -0.043757105 2.1685069e-17)
(-0.04425145 -0.040985098 -1.5905871e-18)
(-0.043847911 -0.038306081 2.2936827e-19)
(-0.043367342 -0.035720023 1.2116324e-17)
(-0.042817474 -0.033226416 1.6522209e-17)
(-0.042205262 -0.030824421 2.2054206e-17)
(-0.041536971 -0.028512971 -2.3022228e-19)
(-0.040818268 -0.026290859 1.1399303e-18)
(-0.0400543 -0.024156796 7.6595018e-18)
(-0.039249771 -0.022109454 7.5858561e-18)
(-0.038409009 -0.0201475 1.2065705e-17)
(-0.037536029 -0.018269608 -4.9177145e-18)
(-0.036634582 -0.01647447 2.5650543e-19)
(-0.035708202 -0.014760796 4.8658315e-18)
(-0.034760239 -0.013127312 5.7867313e-18)
(-0.033793892 -0.01157275 8.0416497e-18)
(-0.032812228 -0.010095837 -3.2239286e-18)
(-0.031818205 -0.0086952898 -4.470725e-18)
(-0.030814684 -0.0073697982 -3.1711125e-18)
(-0.029804432 -0.0061180187 -7.1758819e-18)
(-0.028790134 -0.0049385599 -4.5715277e-18)
(-0.027774392 -0.0038299724 -2.0207849e-18)
(-0.026759721 -0.002790743 -2.1235782e-18)
(-0.025748554 -0.0018192912 -5.7801256e-18)
(-0.024743239 -0.00091396269 -7.0466908e-18)
(-0.023746112 -7.2985624e-05 -4.6180408e-18)
(-0.022759155 0.00070536749 -4.9892113e-19)
(-0.021784519 0.0014229928 9.7262529e-19)
(-0.020824142 0.0020818756 -7.9297423e-19)
(-0.019879841 0.0026840335 -6.6419485e-19)
(-0.018953322 0.0032315602 -1.8858889e-18)
(-0.018046162 0.00372661 -1.1949412e-18)
(-0.017159809 0.0041713907 7.1416414e-19)
(-0.016295576 0.0045681566 1.0866898e-18)
(-0.015454639 0.0049191985 9.9564627e-19)
(-0.014638034 0.0052268367 -1.8079388e-18)
(-0.01384666 0.0054934091 -2.3607312e-18)
(-0.013081273 0.0057212629 -5.5307969e-19)
(-0.01234249 0.0059127444 -1.2670155e-18)
(-0.01163079 0.0060701887 -2.2657187e-18)
(-0.010946519 0.0061959098 -2.2827785e-18)
(-0.010289889 0.006292191 -9.862992e-19)
(-0.0096609861 0.006361276 1.3139198e-19)
(-0.0090597749 0.0064053589 1.3717401e-19)
(-0.0084861033 0.0064265768 1.9299558e-20)
(-0.0079397105 0.0064270016 -8.7332512e-19)
(-0.0074202333 0.006408633 -4.1403305e-20)
(-0.0069272141 0.0063733916 5.2125518e-19)
(-0.0064601093 0.0063231144 -4.3086554e-20)
(-0.0060182973 0.0062595492 -8.9374091e-19)
(-0.0056010871 0.006184351 -1.3411076e-18)
(-0.0052077275 0.0060990787 -4.9302477e-19)
(-0.0048374152 0.0060051934 -3.6125622e-19)
(-0.0044893042 0.005904057 -6.6839678e-19)
(-0.0041625136 0.0057969312 -9.2437027e-19)
(-0.003856137 0.0056849782 -9.7020029e-19)
(-0.0035692498 0.0055692625 -8.4061449e-19)
(-0.0024778501 -0.098200392 1.8302977e-17)
(-0.0057126291 -0.098028629 -1.1076925e-16)
(-0.0093396981 -0.09735288 5.2915495e-17)
(-0.012747174 -0.096290135 1.3689738e-16)
(-0.016134848 -0.094847952 1.206216e-16)
(-0.019348765 -0.093071438 3.3881618e-17)
(-0.022366969 -0.091007439 6.8446589e-17)
(-0.025173602 -0.088695783 8.3228605e-17)
(-0.027756248 -0.086173509 7.2861107e-17)
(-0.030106727 -0.083476331 3.6093173e-17)
(-0.03222164 -0.080638697 3.3129742e-17)
(-0.034101898 -0.077693325 3.9716312e-18)
(-0.035752087 -0.074670654 8.0044745e-18)
(-0.037179797 -0.071598392 -4.27951e-19)
(-0.038394924 -0.068501251 -3.345355e-18)
(-0.039409017 -0.06540083 8.5623599e-18)
(-0.040234671 -0.062315646 1.4123972e-18)
(-0.040885024 -0.059261272 1.5548327e-18)
(-0.04137332 -0.056250554 -2.3938081e-18)
(-0.041712588 -0.053293886 -3.5676748e-18)
(-0.041915391 -0.050399497 -1.1063647e-17)
(-0.041993652 -0.047573755 -1.4925594e-17)
(-0.041958553 -0.044821446 4.1241227e-18)
(-0.04182047 -0.042146049 1.4050924e-18)
(-0.041588963 -0.039549966 9.9627768e-18)
(-0.041272787 -0.037034739 1.026839e-17)
(-0.04087993 -0.034601231 -1.7490115e-18)
(-0.04041766 -0.032249778 4.5292668e-18)
(-0.039892592 -0.029980319 3.2869492e-18)
(-0.039310746 -0.027792502 9.2933508e-18)
(-0.03867762 -0.025685762 1.0992465e-17)
(-0.037998247 -0.023659382 -2.5952936e-18)
(-0.037277258 -0.021712545 -2.555791e-19)
(-0.036518939 -0.01984436 -3.6015591e-19)
(-0.035727276 -0.018053895 5.5403836e-18)
(-0.034906005 -0.016340182 1.0313464e-17)
(-0.034058645 -0.014702232 -1.8295827e-18)
(-0.033188531 -0.01313903 7.415723e-19)
(-0.032298843 -0.01164954 -1.1466925e-18)
(-0.031392624 -0.010232696 1.0698442e-18)
(-0.030472797 -0.0088873979 8.4034319e-18)
(-0.029542183 -0.0076125059 -3.2828065e-19)
(-0.0286035 -0.0064068333 -5.4162802e-18)
(-0.02765938 -0.005269139 -2.6876083e-18)
(-0.02671236 -0.0041981197 -1.8923018e-18)
(-0.025764892 -0.0031924044 -1.6908266e-18)
(-0.024819336 -0.0022505543 -4.3545619e-18)
(-0.023877968 -0.001371057 -4.3765227e-18)
(-0.022942973 -0.00055232249 -2.684453e-18)
(-0.022016507 0.00020733433 5.322454e-19)
(-0.021100379 0.00090959566 1.2765898e-18)
(-0.020196552 0.0015562851 -2.6152753e-19)
(-0.019306796 0.0021492665 -1.1058174e-18)
(-0.018432747 0.0026904751 -1.2685228e-18)
(-0.017575928 0.0031819017 1.7147315e-18)
(-0.01673774 0.0036255864 -2.2890651e-19)
(-0.015919457 0.004023613 -2.4944003e-20)
(-0.015122228 0.0043781005 1.4226274e-18)
(-0.014347066 0.0046911957 -2.2278883e-19)
(-0.013594858 0.0049650634 -2.0163914e-19)
(-0.012866357 0.0052018779 -1.5632043e-18)
(-0.012162189 0.0054038145 -1.7460562e-18)
(-0.011482848 0.0055730394 -8.8675461e-19)
(-0.010828705 0.0057117012 -1.0256287e-18)
(-0.010200008 0.005821922 6.1152272e-19)
(-0.0095968854 0.005905789 -4.3214569e-19)
(-0.0090193531 0.0059653459 -1.4328377e-19)
(-0.0084673182 0.0060025854 9.822531e-19)
(-0.0079405859 0.0060194425 1.6603001e-19)
(-0.0074388655 0.0060177872 6.6935292e-19)
(-0.0069617775 0.0059994191 -2.821855e-19)
(-0.0065088611 0.0059660622 -4.738147e-19)
(-0.0060795819 0.0059193606 -2.8019291e-19)
(-0.0056733392 0.0058608743 -3.4808958e-19)
(-0.0052894743 0.0057920766 2.5345325e-19)
(-0.0049272788 0.0057143524 -9.4583999e-19)
(-0.0045860018 0.0056289964 -1.0874168e-18)
(-0.0042648578 0.0055372123 -5.37457e-19)
(-0.0039630353 0.0054401133 -4.0776728e-19)
(-0.0036797031 0.0053387233 -1.4043851e-19)
(-0.0022407122 -0.09121362 1.1707061e-16)
(-0.005163449 -0.0910678 1.6456974e-16)
(-0.0084454675 -0.090485587 6.4536147e-17)
(-0.011536211 -0.089565598 1.9779798e-17)
(-0.014617501 -0.088311378 2.3207554e-17)
(-0.017551817 -0.086759818 2.8276836e-18)
(-0.020319749 -0.084949966 6.4226678e-18)
(-0.022907024 -0.082915181 5.5555204e-17)
(-0.02530206 -0.08068659 1.4897948e-17)
(-0.027496677 -0.078294333 -9.074159e-18)
(-0.029486634 -0.075767666 -9.393055e-18)
(-0.031271293 -0.073134619 -4.6146049e-18)
(-0.03285315 -0.070421544 6.3247919e-18)
(-0.034237326 -0.067652736 5.0791007e-18)
(-0.035431043 -0.064850173 1.8014971e-17)
(-0.0364431 -0.062033384 -2.8053613e-17)
(-0.037283394 -0.059219419 -1.6040787e-17)
(-0.037962493 -0.056422919 -6.378024e-18)
(-0.038491272 -0.053656247 1.171674e-18)
(-0.038880619 -0.050929678 1.4338813e-17)
(-0.039141204 -0.04825161 -1.3152848e-17)
(-0.039283311 -0.045628789 -7.4091379e-18)
(-0.039316721 -0.043066534 2.5108269e-19)
(-0.039250637 -0.040568948 8.4222998e-18)
(-0.039093649 -0.038139117 1.8909963e-17)
(-0.038853722 -0.035779286 -2.3397882e-18)
(-0.038538213 -0.033491016 -2.2852594e-18)
(-0.03815389 -0.031275316 5.7464802e-18)
(-0.037706979 -0.029132765 7.785711e-18)
(-0.037203204 -0.027063601 1.6670876e-17)
(-0.036647835 -0.025067801 -2.2471212e-19)
(-0.036045737 -0.023145142 -5.9791783e-18)
(-0.035401415 -0.021295248 -8.6510512e-21)
(-0.034719061 -0.019517625 1.391043e-18)
(-0.034002589 -0.01781169 1.0749962e-17)
(-0.033255676 -0.016176788 -1.8770634e-18)
(-0.032481792 -0.014612202 -5.0123423e-18)
(-0.031684228 -0.013117163 -4.9397027e-19)
(-0.030866117 -0.011690854 1.4743148e-18)
(-0.030030458 -0.010332405 6.6883997e-18)
(-0.029180124 -0.0090408948 2.3465252e-19)
(-0.02831788 -0.0078153475 -3.2194104e-18)
(-0.02744639 -0.0066547297 -1.4971749e-18)
(-0.026568219 -0.0055579465 -2.4454231e-18)
(-0.025685842 -0.0045238365 -4.1135276e-18)
(-0.024801642 -0.0035511678 -3.3306389e-18)
(-0.023917908 -0.0026386381 -1.430406e-18)
(-0.02303684 -0.0017848744 -5.6623488e-19)
(-0.022160562 -0.00098842655 -1.5780469e-18)
(-0.02129109 -0.00024776248 -1.2170169e-18)
(-0.020430294 0.00043873506 -1.4941638e-18)
(-0.019579995 0.0010726442 1.9367689e-20)
(-0.018741903 0.0016557254 3.5762436e-20)
(-0.0179176 0.0021897551 9.0065995e-19)
(-0.01710856 0.0026765694 1.6357607e-18)
(-0.016316141 0.0031180514 -2.943708e-18)
(-0.015541582 0.0035161255 -8.9496877e-19)
(-0.014786 0.0038727505 7.9839588e-19)
(-0.01405039 0.0041899114 8.7177929e-19)
(-0.013335626 0.0044696118 4.2527105e-19)
(-0.012642457 0.0047138654 -3.0130114e-18)
(-0.011971512 0.0049246883 -2.453397e-18)
(-0.011323302 0.00510409 -9.8976439e-19)
(-0.010698217 0.0052540651 -7.4233108e-20)
(-0.010096536 0.0053765859 8.9018207e-19)
(-0.009518425 0.005473594 -1.4209142e-18)
(-0.008963946 0.0055469929 -3.6258813e-19)
(-0.0084330584 0.0055986409 9.6940425e-19)
(-0.0079256264 0.0056303449 2.314432e-19)
(-0.0074414239 0.0056438539 5.8686214e-19)
(-0.0069801416 0.0056408539 -8.458244e-19)
(-0.0065413934 0.005622963 -7.6713877e-19)
(-0.0061247231 0.005591727 -4.096025e-19)
(-0.0057296118 0.0055486163 -1.7675718e-19)
(-0.0053554848 0.0054950233 3.8098653e-19)
(-0.0050017192 0.0054322595 -1.3654959e-18)
(-0.0046676506 0.0053615551 -1.4742148e-18)
(-0.0043525807 0.0052840578 -8.1093612e-19)
(-0.0040557841 0.0052008324 -5.2478497e-19)
(-0.0037765149 0.0051128626 2.328971e-19)
(-0.0020325356 -0.084888182 1.1414586e-16)
(-0.0046816776 -0.084763633 1.3000101e-16)
(-0.0076603988 -0.084259508 2.0948041e-18)
(-0.01047167 -0.083459382 -1.1586923e-16)
(-0.013281429 -0.082363847 -4.5802114e-17)
(-0.015966384 -0.081003134 -1.0538236e-16)
(-0.01850932 -0.079409898 -5.9555574e-17)
(-0.020897375 -0.077612174 -2.8523365e-17)
(-0.023119783 -0.075636231 -5.9101253e-17)
(-0.025168527 -0.073507619 -2.2865244e-17)
(-0.027038869 -0.071251289 9.3616292e-18)
(-0.028729098 -0.068891329 3.6135237e-17)
(-0.030240182 -0.066450602 1.1820321e-17)
(-0.031575382 -0.06395042 2.1591462e-17)
(-0.032739848 -0.061410307 3.0001591e-18)
(-0.033740206 -0.058847854 5.3370119e-18)
(-0.034584175 -0.056278666 1.7019325e-17)
(-0.035280212 -0.053716375 6.2060918e-18)
(-0.035837205 -0.051172723 1.2547086e-17)
(-0.036264215 -0.048657681 2.3953246e-18)
(-0.036570267 -0.046179602 8.189774e-19)
(-0.036764189 -0.043745386 -4.6485743e-18)
(-0.036854496 -0.04136066 -1.3884475e-18)
(-0.036849305 -0.039029936 7.2809467e-18)
(-0.03675629 -0.036756781 -8.5296194e-19)
(-0.03658265 -0.034543958 -7.3743485e-18)
(-0.036335109 -0.032393559 -3.4165633e-18)
(-0.036019922 -0.030307125 1.9949911e-18)
(-0.0356429 -0.028285743 7.3869749e-18)
(-0.035209434 -0.026330137 2.1267798e-18)
(-0.03472453 -0.024440736 -6.8532323e-18)
(-0.034192843 -0.022617733 -6.4984524e-18)
(-0.033618714 -0.020861133 -1.7994292e-18)
(-0.033006198 -0.019170786 4.3888398e-18)
(-0.032359104 -0.017546421 2.8950646e-18)
(-0.031681017 -0.015987659 -8.0833654e-18)
(-0.03097533 -0.014494037 -4.5078941e-18)
(-0.030245262 -0.01306501 -9.2099519e-19)
(-0.029493881 -0.011699963 6.4090844e-18)
(-0.028724121 -0.010398212 1.2161401e-18)
(-0.027938792 -0.0091590056 -3.9189137e-18)
(-0.027140594 -0.0079815254 -3.8536574e-18)
(-0.026332121 -0.0068648856 -7.6802809e-18)
(-0.025515872 -0.0058081317 -5.6697271e-18)
(-0.024694252 -0.0048102389 -3.6666531e-18)
(-0.023869573 -0.0038701092 3.0465925e-19)
(-0.023044054 -0.0029865714 2.746829e-19)
(-0.022219821 -0.0021583841 -2.9298774e-18)
(-0.02139891 -0.0013842327 -3.2029571e-18)
(-0.020583255 -0.00066271034 -1.2379285e-18)
(-0.019774782 7.6332498e-06 1.8006295e-19)
(-0.018975102 0.00062828213 8.4305574e-19)
(-0.018185916 0.0012008363 3.6152631e-19)
(-0.017408761 0.0017269311 6.0105884e-19)
(-0.016645058 0.0022082554 -5.651782e-19)
(-0.015896122 0.0026465458 -8.5419485e-19)
(-0.015163156 0.0030435776 7.3639526e-19)
(-0.014447249 0.0034011598 4.3709809e-19)
(-0.013749376 0.0037211268 6.0203194e-19)
(-0.013070396 0.004005332 -2.5652693e-19)
(-0.012411055 0.0042556396 -1.2879954e-18)
(-0.011771985 0.0044739175 -1.4525649e-18)
(-0.011153705 0.0046620294 -1.9313091e-18)
(-0.010556625 0.0048218269 -3.0864406e-19)
(-0.0099810509 0.0049551426 2.2832244e-19)
(-0.0094271814 0.0050637825 -4.7514013e-19)
(-0.0088951179 0.0051495196 2.2019925e-19)
(-0.0083848668 0.0052140867 5.7820971e-19)
(-0.0078963448 0.0052591711 2.1208606e-19)
(-0.0074293839 0.0052864086 6.1987532e-19)
(-0.0069837375 0.0052973785 6.2986014e-21)
(-0.0065590866 0.0052935992 -1.6777379e-19)
(-0.0061550457 0.0052765243 -6.634935e-19)
(-0.0057711694 0.0052475393 -3.2102346e-19)
(-0.0054069591 0.0052079592 1.6637469e-19)
(-0.0050618695 0.0051590261 -9.5184916e-19)
(-0.0047353147 0.005101908 -1.078261e-18)
(-0.0044266756 0.0050376981 -7.7530502e-19)
(-0.0041353055 0.0049674143 -2.6045719e-19)
(-0.0038605365 0.0048920002 2.8763884e-19)
(-0.0018490987 -0.079143986 1.9320839e-17)
(-0.0042574433 -0.079037015 -1.2796409e-16)
(-0.0069686074 -0.0785984 6.4221479e-17)
(-0.0095324269 -0.077899359 -5.2772929e-17)
(-0.012100742 -0.076938345 -8.5218856e-18)
(-0.014562639 -0.075740199 1.3882185e-17)
(-0.016902821 -0.074332334 -2.2893614e-17)
(-0.019109695 -0.072738396 -3.0104695e-17)
(-0.021173295 -0.07098064 -1.8878336e-17)
(-0.023085883 -0.069080813 -1.1680514e-17)
(-0.024842466 -0.067060271 -6.9086382e-18)
(-0.02644061 -0.064939779 -1.9086193e-17)
(-0.027880175 -0.062739212 -2.4394727e-17)
(-0.029163023 -0.06047728 -2.1605902e-17)
(-0.0302927 -0.058171314 -1.7318447e-17)
(-0.031274118 -0.055837123 -1.7492214e-18)
(-0.032113241 -0.053488923 -1.2668679e-17)
(-0.032816794 -0.05113932 -1.4318132e-17)
(-0.033392006 -0.048799354 -9.8855431e-18)
(-0.033846385 -0.04647857 -9.614537e-18)
(-0.034187534 -0.044185125 -7.6208034e-18)
(-0.034423003 -0.041925913 -8.5063933e-18)
(-0.034560171 -0.03970669 -1.1722332e-17)
(-0.034606165 -0.037532212 -5.4333101e-18)
(-0.034567803 -0.035406361 -4.8695672e-18)
(-0.034451556 -0.033332268 -1.1634693e-17)
(-0.034263534 -0.031312419 -1.3465735e-17)
(-0.034009479 -0.029348758 -6.8811717e-18)
(-0.033694775 -0.027442775 7.7390668e-19)
(-0.03332446 -0.025595582 2.0735886e-19)
(-0.032903253 -0.02380798 -1.0309353e-17)
(-0.032435573 -0.022080509 -1.0431229e-17)
(-0.031925563 -0.020413497 -2.7971829e-18)
(-0.031377119 -0.018807091 4.4676376e-18)
(-0.030793913 -0.01726129 1.2445342e-18)
(-0.030179415 -0.015775965 -5.6981116e-18)
(-0.029536915 -0.014350875 -2.7856599e-18)
(-0.028869542 -0.012985681 6.3708318e-19)
(-0.028180281 -0.011679955 4.0555619e-18)
(-0.027471985 -0.010433185 3.6536326e-18)
(-0.026747389 -0.0092447783 3.0197785e-18)
(-0.026009116 -0.0081140663 -4.6440336e-18)
(-0.025259687 -0.0070403033 -8.5680854e-18)
(-0.024501528 -0.0060226689 -5.0017455e-18)
(-0.023736967 -0.0050602687 -1.9492051e-18)
(-0.022968245 -0.0041521326 1.9064956e-18)
(-0.022197507 -0.0032972156 -2.2496509e-18)
(-0.021426809 -0.0024944007 -4.5291441e-18)
(-0.020658111 -0.0017424997 -1.7308654e-18)
(-0.019893291 -0.0010402511 1.0132133e-19)
(-0.019134144 -0.00038633582 1.6728623e-18)
(-0.018382375 0.00022068252 2.9053842e-19)
(-0.017639483 0.00078217122 -6.7055974e-19)
(-0.016907006 0.0012996705 -1.3097311e-18)
(-0.016186312 0.0017747308 -6.8572504e-19)
(-0.015478676 0.0022089495 2.1149768e-18)
(-0.014785266 0.0026039631 1.083381e-18)
(-0.014107143 0.0029614402 -8.4048614e-20)
(-0.013445263 0.0032830752 -1.4231379e-18)
(-0.01280047 0.0035705813 -5.6842567e-19)
(-0.012173504 0.0038256835 4.6161987e-19)
(-0.011564997 0.0040501119 -1.4061748e-18)
(-0.010975478 0.0042455943 -2.2424237e-18)
(-0.010405372 0.004413849 -1.5581808e-18)
(-0.0098550046 0.0045565787 -7.6283514e-20)
(-0.0093246057 0.0046754631 2.4116407e-19)
(-0.0088143114 0.0047721533 -3.9037356e-19)
(-0.0083241692 0.0048482651 -1.3514263e-20)
(-0.0078541424 0.0049053737 -3.3324774e-19)
(-0.0074041148 0.0049450091 7.0742105e-19)
(-0.0069738961 0.0049686506 8.0980092e-19)
(-0.0065632276 0.0049777226 -1.3741298e-19)
(-0.0061717873 0.0049735918 -9.6381079e-19)
(-0.0057991964 0.0049575634 -8.8819307e-19)
(-0.0054450248 0.0049308789 8.5640996e-20)
(-0.0051087974 0.004894714 -3.706504e-19)
(-0.00479 0.0048501771 -9.9196114e-19)
(-0.0044880851 0.004798309 -9.2485209e-19)
(-0.0042024779 0.0047400815 -3.1120429e-19)
(-0.0039325817 0.0046763987 -2.8146485e-20)
(-0.001686851 -0.073912618 4.5919715e-17)
(-0.003882448 -0.073820273 1.7782164e-17)
(-0.0063567256 -0.073436898 6.4911321e-17)
(-0.0087007005 -0.072823505 9.7215486e-17)
(-0.01105365 -0.071977025 6.5265978e-17)
(-0.013315474 -0.070917937 5.5022526e-17)
(-0.015472553 -0.069669347 4.4919536e-17)
(-0.017514453 -0.068251276 4.84656e-17)
(-0.019431976 -0.066682651 3.5214433e-17)
(-0.02121774 -0.06498205 1.8696389e-17)
(-0.022866673 -0.063167818 1.6841183e-17)
(-0.024375873 -0.061257901 -1.15419e-17)
(-0.025744406 -0.059269614 -8.1357109e-19)
(-0.026973087 -0.057219398 -1.0483025e-17)
(-0.028064228 -0.055122635 4.4802133e-18)
(-0.029021386 -0.052993508 1.4168185e-19)
(-0.029849114 -0.050844925 -8.4791691e-18)
(-0.03055272 -0.048688486 -1.3722466e-18)
(-0.03113805 -0.04653449 1.2571569e-18)
(-0.031611302 -0.044391982 6.0792646e-18)
(-0.031978854 -0.042268822 1.6974701e-17)
(-0.032247137 -0.040171773 1.1794705e-17)
(-0.032422522 -0.038106597 -1.2281007e-18)
(-0.032511241 -0.036078159 5.8533396e-18)
(-0.032519326 -0.034090529 -1.0092994e-18)
(-0.032452566 -0.032147079 -1.7953429e-18)
(-0.032316482 -0.030250575 3.3014359e-18)
(-0.032116315 -0.028403262 3.1311588e-18)
(-0.031857024 -0.026606936 8.1231649e-18)
(-0.03154329 -0.024863017 -2.2280303e-19)
(-0.031179528 -0.023172603 -4.4794038e-18)
(-0.030769903 -0.021536521 4.9788409e-19)
(-0.030318344 -0.019955368 2.2475406e-18)
(-0.029828566 -0.018429543 5.9174021e-18)
(-0.029304084 -0.016959279 -1.4054819e-18)
(-0.028748232 -0.015544663 -5.3551375e-19)
(-0.028164183 -0.014185654 3.6946719e-18)
(-0.027554958 -0.012882098 4.0255768e-18)
(-0.026923444 -0.011633736 6.2911278e-18)
(-0.026272402 -0.010440213 6.3473165e-18)
(-0.02560448 -0.0093010855 2.3671823e-18)
(-0.024922218 -0.0082158234 -5.9400306e-18)
(-0.024228058 -0.0071838135 -7.3020096e-18)
(-0.023524344 -0.0062043626 -3.3981505e-18)
(-0.022813329 -0.0052766991 1.156266e-18)
(-0.022097176 -0.0043999748 1.5536651e-18)
(-0.021377959 -0.0035732648 -3.9519884e-18)
(-0.020657661 -0.0027955709 -3.766585e-18)
(-0.019938172 -0.0020658245 -7.3810253e-19)
(-0.019221301 -0.0013828917 2.5260131e-18)
(-0.018508764 -0.00074556492 2.7365501e-18)
(-0.017802232 -0.00015255992 1.0294506e-18)
(-0.017103173 0.00039743874 1.815548e-20)
(-0.016413013 0.00090576959 -1.1516755e-18)
(-0.015733106 0.0013738871 3.0928233e-18)
(-0.015064684 0.0018032551 2.9634753e-18)
(-0.014408883 0.0021953795 8.5614507e-19)
(-0.013766734 0.0025517985 1.2882153e-18)
(-0.013139173 0.0028740756 -7.2939186e-19)
(-0.012527029 0.0031637932 1.1096331e-18)
(-0.011931034 0.0034225468 9.429303e-19)
(-0.011351821 0.0036519381 -1.1905906e-18)
(-0.010789922 0.0038535682 -9.5156258e-19)
(-0.010245777 0.0040290314 -7.4664492e-19)
(-0.0097197288 0.0041799091 1.6589692e-18)
(-0.009212033 0.0043077634 8.9418215e-19)
(-0.0087228562 0.0044141316 -3.1059952e-19)
(-0.0082522821 0.0045005201 7.8021175e-19)
(-0.0078003155 0.0045683995 3.9366385e-19)
(-0.0073668863 0.0046192003 1.7020376e-18)
(-0.0069518546 0.0046543078 1.1805094e-18)
(-0.0065550154 0.0046750586 1.229396e-19)
(-0.006176104 0.0046827371 -3.9514679e-20)
(-0.0058148017 0.0046785725 -3.1916932e-19)
(-0.0054707402 0.0046637365 8.8441326e-19)
(-0.0051435083 0.0046393413 1.2901667e-19)
(-0.0048326564 0.0046064385 -8.1801852e-19)
(-0.0045377024 0.0045660177 -4.6492715e-19)
(-0.0042581368 0.0045190064 -2.4253449e-19)
(-0.003993428 0.0044662699 5.2102139e-20)
(-0.0015428136 -0.069135444 7.6489662e-17)
(-0.0035497347 -0.069055346 6.6065782e-17)
(-0.0058135313 -0.068718786 4.9677618e-17)
(-0.0079615452 -0.068178307 9.6428829e-17)
(-0.010121816 -0.067429777 4.599716e-17)
(-0.01220372 -0.066490139 -3.3834764e-17)
(-0.014195121 -0.065378953 8.4746874e-17)
(-0.016086627 -0.064113237 4.7864784e-17)
(-0.017869778 -0.06270915 3.6568171e-17)
(-0.019537597 -0.061182622 5.0368391e-17)
(-0.021085051 -0.059549458 2.0554117e-17)
(-0.022508959 -0.057825214 1.6492292e-17)
(-0.023807833 -0.056025002 1.5700686e-17)
(-0.024981708 -0.054163288 1.4209748e-17)
(-0.026031947 -0.052253724 1.832167e-17)
(-0.026961044 -0.050309024 -4.1997917e-18)
(-0.027772417 -0.048340882 1.8198236e-17)
(-0.028470218 -0.046359925 1.5707706e-17)
(-0.029059146 -0.04437571 1.4185595e-17)
(-0.029544289 -0.04239674 1.8788923e-17)
(-0.02993098 -0.040430513 1.9974833e-18)
(-0.030224676 -0.038483575 -7.6991038e-18)
(-0.03043086 -0.036561599 3.5897832e-18)
(-0.03055496 -0.034669459 4.4327911e-18)
(-0.03060229 -0.03281131 -1.3927043e-18)
(-0.030578009 -0.030990667 3.0990126e-18)
(-0.030487084 -0.029210483 -4.259407e-18)
(-0.030334275 -0.027473214 1.2335542e-18)
(-0.030124126 -0.025780885 5.3757084e-18)
(-0.029860962 -0.02413515 -1.5250841e-18)
(-0.02954889 -0.022537343 5.5384018e-19)
(-0.029191813 -0.020988521 -5.0194083e-18)
(-0.028793435 -0.019489503 -8.5313534e-19)
(-0.028357273 -0.018040898 2.780086e-18)
(-0.027886674 -0.01664314 -2.2370252e-19)
(-0.027384824 -0.015296502 3.72796e-18)
(-0.026854762 -0.014001117 -1.5539104e-18)
(-0.02629939 -0.012756995 2.8633828e-19)
(-0.025721486 -0.01156403 -1.7046978e-19)
(-0.02512371 -0.01042201 -4.6244872e-18)
(-0.024508616 -0.0093306278 -4.2260358e-18)
(-0.023878654 -0.0082894814 -1.0067816e-18)
(-0.023236178 -0.0072980813 6.6196179e-19)
(-0.022583451 -0.0063558534 -1.9602181e-18)
(-0.021922645 -0.0054621422 -2.2688778e-18)
(-0.021255846 -0.0046162136 -2.8311408e-18)
(-0.020585053 -0.0038172563 3.0532358e-19)
(-0.019912176 -0.0030643847 2.0112204e-18)
(-0.01923904 -0.0023566437 -5.297193e-19)
(-0.018567385 -0.0016930132 4.6550195e-19)
(-0.017898863 -0.0010724028 -4.3229255e-20)
(-0.017235036 -0.00049366413 1.4613262e-18)
(-0.016577446 4.4448431e-05 5.4044821e-19)
(-0.01592737 0.00054314301 8.8504589e-19)
(-0.01528613 0.0010037305 3.8839204e-18)
(-0.014654933 0.0014275617 7.8350909e-20)
(-0.014034876 0.0018160233 1.5687713e-18)
(-0.013426967 0.0021705317 2.172219e-18)
(-0.012832116 0.0024925283 1.3980691e-18)
(-0.01225114 0.0027834738 1.3811411e-18)
(-0.011684762 0.0030448429 -1.0684265e-18)
(-0.01113361 0.0032781173 -1.1733837e-19)
(-0.010598223 0.0034847804 2.1258934e-19)
(-0.010079048 0.0036663108 5.3436209e-19)
(-0.0095764455 0.0038241769 1.523855e-18)
(-0.0090906906 0.0039598309 -3.8140146e-19)
(-0.0086219774 0.0040747038 4.6921683e-19)
(-0.0081704214 0.0041701998 1.4264673e-18)
(-0.0077360639 0.0042476919 1.0706381e-18)
(-0.0073188759 0.0043085169 1.4565469e-18)
(-0.0069187622 0.0043539722 9.1860332e-20)
(-0.0065355663 0.0043853113 1.8411259e-19)
(-0.0061690749 0.0044037414 3.8713748e-19)
(-0.005819023 0.0044104194 3.707115e-19)
(-0.0054850987 0.0044064509 7.8666532e-19)
(-0.0051669481 0.0043928878 -5.7754179e-19)
(-0.0048641803 0.0043707267 -7.316913e-19)
(-0.0045763728 0.0043409085 -3.0432229e-19)
(-0.0043030757 0.0043043171 -4.4136734e-20)
(-0.0040438168 0.0042617801 2.6882653e-19)
(-0.0014144869 -0.064762017 6.7134864e-17)
(-0.003253471 -0.064692234 5.0216878e-17)
(-0.0053296021 -0.064395545 -5.454296e-18)
(-0.0073023889 -0.063917429 -6.7852219e-17)
(-0.0092897827 -0.063253038 -1.4280837e-17)
(-0.011209498 -0.062416435 -2.7949193e-18)
(-0.013050702 -0.061424254 1.2736044e-17)
(-0.014804947 -0.06029102 -1.2597554e-17)
(-0.016464474 -0.05903058 2.1934115e-17)
(-0.018022726 -0.057656642 -1.06711e-17)
(-0.019474801 -0.056182865 -2.1830746e-17)
(-0.020817374 -0.05462277 2.2310583e-18)
(-0.022048581 -0.052989572 -8.8220082e-18)
(-0.023167883 -0.051296016 1.1613125e-18)
(-0.024175922 -0.049554225 -3.1923682e-18)
(-0.025074354 -0.047775589 -2.3445737e-18)
(-0.025865691 -0.045970682 -6.1573365e-18)
(-0.026553141 -0.044149217 -8.3824539e-18)
(-0.027140452 -0.04232002 -7.5251568e-18)
(-0.027631783 -0.040491037 -9.8744865e-18)
(-0.028031571 -0.038669363 -1.211061e-17)
(-0.028344432 -0.036861272 -1.4689327e-17)
(-0.028575066 -0.035072279 -7.2093444e-18)
(-0.028728186 -0.03330719 -1.3873494e-18)
(-0.028808462 -0.031570167 7.681363e-18)
(-0.028820469 -0.029864792 -1.5166886e-18)
(-0.028768661 -0.028194125 -6.9990145e-18)
(-0.028657342 -0.026560762 -7.6519049e-19)
(-0.028490658 -0.024966891 1.113771e-18)
(-0.028272584 -0.02341434 7.0557585e-18)
(-0.028006925 -0.021904622 -9.9660679e-19)
(-0.027697317 -0.020438975 -6.3982399e-18)
(-0.027347233 -0.019018398 -1.630257e-18)
(-0.026959988 -0.017643675 1.0245573e-18)
(-0.026538751 -0.016315406 7.6939636e-18)
(-0.026086549 -0.015034022 2.5105486e-19)
(-0.025606279 -0.013799809 -5.175126e-18)
(-0.025100715 -0.012612919 -2.2123992e-18)
(-0.024572518 -0.011473382 -6.1225889e-19)
(-0.024024242 -0.010381116 5.1529251e-18)
(-0.023458336 -0.0093359369 9.0100486e-18)
(-0.022877158 -0.0083375599 3.1199558e-18)
(-0.022282972 -0.0073856101 -5.0551607e-18)
(-0.021677953 -0.0064796238 -5.0877929e-18)