/*--------------------------------*- C++ -*----------------------------------*\
| =========                 |                                                 |
| \\      /  F ield         | OpenFOAM: The Open Source CFD Toolbox           |
|  \\    /   O peration     | Version:  2306                                  |
|   \\  /    A nd           | Website:  www.openfoam.com                      |
|    \\/     M anipulation  |                                                 |
\*---------------------------------------------------------------------------*/
FoamFile
{
    version     2.0;
    format      ascii;
    arch        "LSB;label=32;scalar=64";
    class       volVectorField;
    location    "0.58";
    object      U_0;
}
// * * * * * * * * * * * * * * * * * * * * * * * * * * * * * * * * * * * * * //

dimensions      [0 1 -1 0 0 0 0];

internalField   nonuniform List<vector> 
6400
(
(-0.0030601702 -0.1145469 1.6036087e-16)
(-0.0070626545 -0.11430337 2.1415661e-16)
(-0.011535246 -0.11337878 4.5690995e-17)
(-0.015714648 -0.11194009 -4.5689421e-17)
(-0.019844166 -0.11000721 -2.0836087e-16)
(-0.023728331 -0.10764766 -9.0074243e-17)
(-0.027338382 -0.10492937 -9.0680689e-17)
(-0.030654375 -0.10190973 -4.9403156e-17)
(-0.033662079 -0.098642038 1.9119016e-18)
(-0.036354148 -0.095177333 -4.0859974e-17)
(-0.03873053 -0.091564134 -1.5002134e-17)
(-0.040797497 -0.087847566 -6.2693976e-18)
(-0.042566419 -0.084068489 -1.1107911e-17)
(-0.044052506 -0.080262945 7.3911251e-18)
(-0.045273611 -0.076461916 8.1606023e-18)
(-0.046249156 -0.072691363 1.5324261e-17)
(-0.046999222 -0.06897249 -2.7565235e-18)
(-0.047543826 -0.065322151 1.0644024e-17)
(-0.047902371 -0.06175335 2.1247016e-17)
(-0.048093261 -0.058275776 1.7863006e-17)
(-0.048133657 -0.05489633 9.1740824e-18)
(-0.048039337 -0.051619624 4.3805663e-18)
(-0.047824644 -0.04844843 1.8048145e-18)
(-0.047502508 -0.045384084 1.5510201e-17)
(-0.047084502 -0.042426819 2.3270669e-17)
(-0.046580936 -0.039576055 3.3476944e-18)
(-0.046000967 -0.036830633 -6.2825262e-19)
(-0.045352721 -0.034189006 9.5020697e-18)
(-0.044643417 -0.03164939 1.8223491e-17)
(-0.043879485 -0.02920987 1.9580446e-17)
(-0.043066683 -0.026868488 5.7487706e-18)
(-0.042210193 -0.024623293 1.1984833e-18)
(-0.04131472 -0.022472385 2.8869607e-18)
(-0.040384575 -0.020413929 8.0684215e-18)
(-0.039423739 -0.01844617 1.0587965e-17)
(-0.038435932 -0.01656743 -9.1682806e-19)
(-0.037424656 -0.0147761 -9.1249286e-19)
(-0.036393242 -0.013070628 2.8640852e-18)
(-0.035344875 -0.011449506 5.2618094e-18)
(-0.034282626 -0.0099112503 8.9731301e-18)
(-0.033209467 -0.0084543865 5.3074747e-18)
(-0.032128284 -0.007077434 5.7090556e-19)
(-0.031041883 -0.0057788891 -5.9554234e-18)
(-0.029952998 -0.004557207 -4.7508389e-18)
(-0.028864286 -0.0034107902 -7.3353146e-19)
(-0.027778327 -0.0023379819 -1.6192027e-18)
(-0.026697624 -0.001337054 -5.7166625e-18)
(-0.025624641 -0.00040619204 -6.0686389e-18)
(-0.02456167 0.00045647855 -5.176863e-18)
(-0.023510874 0.001252865 -3.0226071e-19)
(-0.022474478 0.0019850466 2.5761188e-18)
(-0.021454458 0.0026551373 3.7696637e-19)
(-0.020452711 0.0032653335 1.6367361e-19)
(-0.019471002 0.0038179014 -1.1687919e-18)
(-0.018510967 0.0043151714 -3.9765637e-19)
(-0.017574099 0.0047595318 2.47138e-18)
(-0.016661753 0.0051534195 3.0788117e-18)
(-0.015775134 0.0054993109 7.3846738e-19)
(-0.014915301 0.0057997122 -1.6274235e-18)
(-0.014083161 0.0060571485 -3.7007898e-19)
(-0.013279471 0.006274153 1.5897792e-18)
(-0.012504838 0.0064532563 6.8354699e-19)
(-0.011759721 0.0065969755 -1.8744138e-18)
(-0.011044436 0.0067078029 -2.006687e-18)
(-0.010359153 0.0067881952 -8.6965531e-20)
(-0.0097039095 0.006840564 1.2344339e-18)
(-0.0090786109 0.0068672651 1.3057625e-18)
(-0.0084830383 0.0068705902 3.7115715e-19)
(-0.007916856 0.0068527577 -7.9932334e-19)
(-0.0073796194 0.0068159051 7.4785239e-19)
(-0.0068707835 0.0067620826 1.2148582e-18)
(-0.0063897117 0.0066932462 2.7255695e-19)
(-0.0059356856 0.0066112535 -5.9118779e-19)
(-0.0055079138 0.0065178593 -1.3636055e-18)
(-0.0051055419 0.0064147117 -4.7571698e-20)
(-0.0047276622 0.0063033511 4.6305114e-20)
(-0.0043733234 0.0061852085 -9.3434541e-20)
(-0.0040415396 0.0060616043 -5.7615817e-19)
(-0.0037313004 0.0059337499 -8.7180887e-19)
(-0.0034415787 0.0058027496 -6.1106648e-19)
(-0.0027493428 -0.10593802 3.4058714e-17)
(-0.0063417198 -0.10573413 -1.4137075e-16)
(-0.010363155 -0.10494538 -4.5966391e-18)
(-0.014131243 -0.10371135 7.0221529e-18)
(-0.017866147 -0.102045 2.004672e-17)
(-0.021394805 -0.10000158 3.5237799e-18)
(-0.024692231 -0.097637439 -1.8723644e-17)
(-0.027740729 -0.095000326 3.0634062e-17)
(-0.03052702 -0.092134546 8.177782e-18)
(-0.033043173 -0.08908266 -6.828623e-18)
(-0.035287125 -0.08588544 1.7362835e-17)
(-0.037262009 -0.082581236 1.584461e-17)
(-0.038975287 -0.079205283 1.1921289e-17)
(-0.040437829 -0.075789194 1.9529592e-17)
(-0.041663009 -0.072360689 7.8495719e-18)
(-0.042665859 -0.068943535 -1.2972615e-18)
(-0.043462331 -0.065557665 1.4124534e-17)
(-0.04406868 -0.062219426 1.9822598e-17)
(-0.044500981 -0.058941913 2.3949676e-17)
(-0.044774757 -0.055735356 2.096851e-17)
(-0.044904733 -0.052607519 2.5067801e-17)
(-0.044904667 -0.04956408 1.4769956e-17)
(-0.044787267 -0.046609003 8.914796e-18)
(-0.04456416 -0.043744859 2.1683563e-17)
(-0.044245909 -0.040973115 -1.5855273e-18)
(-0.043842061 -0.038294382 2.2971552e-19)
(-0.043361211 -0.035708625 1.2113484e-17)
(-0.04281109 -0.033215333 1.6511986e-17)
(-0.04219865 -0.030813662 2.2046284e-17)
(-0.041530156 -0.028502544 -2.3157308e-19)
(-0.04081127 -0.026280771 1.1391319e-18)
(-0.04004714 -0.024147051 7.6550042e-18)
(-0.039242467 -0.022100057 7.582723e-18)
(-0.03840158 -0.020138453 1.2067292e-17)
(-0.03752849 -0.018260912 -4.9184206e-18)
(-0.036626951 -0.016466128 2.4914664e-19)
(-0.035700492 -0.014752809 4.8655284e-18)
(-0.034752465 -0.01311968 5.7896244e-18)
(-0.033786068 -0.011565473 8.0357846e-18)
(-0.032804368 -0.010088916 -3.2249376e-18)
(-0.031810323 -0.0086887238 -4.4700692e-18)
(-0.030806791 -0.0073635859 -3.1724196e-18)
(-0.029796543 -0.0061121584 -7.1727826e-18)
(-0.028782263 -0.0049330494 -4.5698992e-18)
(-0.02776655 -0.0038248089 -2.0216308e-18)
(-0.026751922 -0.0027859229 -2.123116e-18)
(-0.02574081 -0.0018148105 -5.7779831e-18)
(-0.024735563 -0.00090981633 -7.0433117e-18)
(-0.023738514 -6.9167735e-05 -4.6170137e-18)
(-0.022751648 0.00070886284 -4.9997225e-19)
(-0.021777115 0.0014261729 9.7172653e-19)
(-0.02081685 0.0020847484 -7.9344714e-19)
(-0.019872672 0.0026866075 -6.6373097e-19)
(-0.018946286 0.0032338447 -1.8851026e-18)
(-0.018039268 0.0037286148 -1.1954998e-18)
(-0.017153065 0.0041731264 7.1353584e-19)
(-0.01628899 0.004569634 1.0872189e-18)
(-0.015448217 0.0049204293 9.9511684e-19)
(-0.014631783 0.0052278326 -1.8076077e-18)
(-0.013840584 0.0054941823 -2.3601359e-18)
(-0.013075376 0.0057218259 -5.5342737e-19)
(-0.012336776 0.0059131098 -1.2667725e-18)
(-0.011625263 0.0060703692 -2.2642397e-18)
(-0.010941179 0.0061959181 -2.2821335e-18)
(-0.010284737 0.0062920399 -9.8578431e-19)
(-0.0096560232 0.0063609779 1.3171734e-19)
(-0.0090549997 0.0064049262 1.365872e-19)
(-0.0084815144 0.0064260217 1.8864938e-20)
(-0.0079353056 0.0064263357 -8.7320796e-19)
(-0.0074160095 0.0064078675 -4.1494896e-20)
(-0.0069231681 0.0063725376 5.2161636e-19)
(-0.0064562368 0.0063221822 -4.3223969e-20)
(-0.0060145939 0.0062585486 -8.9348897e-19)
(-0.0055975479 0.0061832913 -1.3404976e-18)
(-0.005204347 0.0060979686 -4.928186e-19)
(-0.0048341878 0.006004041 -3.6143035e-19)
(-0.0044862239 0.0059028697 -6.6825207e-19)
(-0.0041595743 0.0057957158 -9.2375782e-19)
(-0.0038533325 0.0056837409 -9.6956656e-19)
(-0.0035665738 0.0055680088 -8.3997663e-19)
(-0.0024781739 -0.098194992 1.8320662e-17)
(-0.0057132845 -0.098023057 -1.1081057e-16)
(-0.0093407047 -0.097346919 5.2862375e-17)
(-0.012748462 -0.096283666 1.3687715e-16)
(-0.016136332 -0.094840907 1.2061373e-16)
(-0.019350351 -0.093063783 3.3876789e-17)
(-0.022368564 -0.090999157 6.8417985e-17)
(-0.025175111 -0.088686877 8.3194371e-17)
(-0.027757583 -0.086163997 7.2840276e-17)
(-0.030107807 -0.083466247 3.607966e-17)
(-0.032222394 -0.080628089 3.3131429e-17)
(-0.034102267 -0.077682252 3.9627772e-18)
(-0.035752027 -0.074659181 7.9874748e-18)
(-0.037179273 -0.071586591 -4.2434376e-19)
(-0.038393917 -0.068489194 -3.3432179e-18)
(-0.039407516 -0.065388589 8.5620746e-18)
(-0.040232677 -0.062303289 1.4134705e-18)
(-0.040882544 -0.059248864 1.5505321e-18)
(-0.041370371 -0.056238154 -2.399073e-18)
(-0.041709189 -0.053281547 -3.5710806e-18)
(-0.041911565 -0.050387266 -1.105976e-17)
(-0.041989426 -0.047561672 -1.4917976e-17)
(-0.041953952 -0.044809548 4.1278615e-18)
(-0.041815523 -0.042134364 1.4054693e-18)
(-0.041583698 -0.039538519 9.9571752e-18)
(-0.04126723 -0.037023552 1.0270648e-17)
(-0.040874107 -0.034590319 -1.7523531e-18)
(-0.040411595 -0.032239156 4.527818e-18)
(-0.039886308 -0.029969999 3.2860172e-18)
(-0.039304265 -0.027782492 9.2917753e-18)
(-0.038670962 -0.025676068 1.0990506e-17)
(-0.03799143 -0.023650011 -2.5936071e-18)
(-0.037270301 -0.0217035 -2.5367181e-19)
(-0.036511858 -0.019835646 -3.6035419e-19)
(-0.035720088 -0.018045514 5.5358919e-18)
(-0.034898725 -0.016332136 1.0310159e-17)
(-0.034051287 -0.014694522 -1.8278238e-18)
(-0.033181109 -0.013131658 7.4275308e-19)
(-0.032291371 -0.011642506 -1.146175e-18)
(-0.031385114 -0.010225999 1.0677704e-18)
(-0.030465264 -0.0088810388 8.4005076e-18)
(-0.029534639 -0.0076064831 -3.2766715e-19)
(-0.028595958 -0.0064011452 -5.4158116e-18)
(-0.027651851 -0.0052637836 -2.6866413e-18)
(-0.026704858 -0.0041930941 -1.8913565e-18)
(-0.025757428 -0.0031877054 -1.6897805e-18)
(-0.024811923 -0.0022461779 -4.3516576e-18)
(-0.023870616 -0.0013669984 -4.3747749e-18)
(-0.022935694 -0.00054857626 -2.6835172e-18)
(-0.022009313 0.00021077399 5.3123902e-19)
(-0.021093279 0.00091273578 1.2744196e-18)
(-0.020189557 0.0015591329 -2.6119435e-19)
(-0.019299916 0.0021518301 -1.1049318e-18)
(-0.01842599 0.002692763 -1.2674055e-18)
(-0.017569302 0.0031839232 1.7137768e-18)
(-0.016731254 0.0036273512 -2.2851756e-19)
(-0.015913118 0.0040251313 -2.4875421e-20)
(-0.015116041 0.0043793831 1.4217033e-18)
(-0.014341039 0.0046922535 -2.2247659e-19)
(-0.013588994 0.0049659078 -2.0126703e-19)
(-0.012860661 0.0052025204 -1.5630671e-18)
(-0.012156664 0.0054042667 -1.7461642e-18)
(-0.011477496 0.0055733132 -8.8507635e-19)
(-0.010823529 0.0057118084 -1.0246524e-18)
(-0.010195008 0.0058218744 6.1102499e-19)
(-0.0095920617 0.0059055982 -4.3174006e-19)
(-0.0090147053 0.0059650234 -1.4327961e-19)
(-0.0084628451 0.0060021424 9.8179799e-19)
(-0.0079362857 0.0060188899 1.6631687e-19)
(-0.0074347357 0.0060171356 6.6819809e-19)
(-0.0069578151 0.0059986787 -2.8186359e-19)
(-0.0065050625 0.0059652429 -4.7311795e-19)
(-0.0060759431 0.0059184714 -2.8006312e-19)
(-0.0056698557 0.0058599239 -3.4785235e-19)
(-0.0052861415 0.0057910734 2.5336595e-19)
(-0.0049240915 0.0057133039 -9.4553574e-19)
(-0.0045829546 0.0056279097 -1.0866462e-18)
(-0.0042619454 0.005536094 -5.3752843e-19)
(-0.0039602519 0.0054389692 -4.0745173e-19)
(-0.0036770429 0.0053375589 -1.3993788e-19)
(-0.0022409563 -0.091207507 1.1707061e-16)
(-0.0051639344 -0.091061546 1.6452843e-16)
(-0.0084462083 -0.090479015 6.4532607e-17)
(-0.011537154 -0.089558614 1.9782328e-17)
(-0.014618577 -0.088303929 2.3217392e-17)
(-0.017552953 -0.086751877 2.8268787e-18)
(-0.020320869 -0.08494152 6.4172192e-18)
(-0.022908055 -0.082906232 5.5554615e-17)
(-0.02530293 -0.08067715 1.489899e-17)
(-0.02749732 -0.078284429 -9.0806834e-18)
(-0.029486992 -0.075757335 -9.4014878e-18)
(-0.031271317 -0.073123906 -4.6334684e-18)
(-0.0328528 -0.070410502 6.3212504e-18)
(-0.034236574 -0.067641422 5.07287e-18)
(-0.035429869 -0.064838648 1.8007339e-17)
(-0.036441493 -0.062021705 -2.8046473e-17)
(-0.037281351 -0.059207644 -1.6039714e-17)
(-0.03796002 -0.056411103 -6.3661339e-18)
(-0.038488379 -0.05364444 1.1635374e-18)
(-0.03887732 -0.050917927 1.4334953e-17)
(-0.039137519 -0.048239957 -1.3144642e-17)
(-0.03927926 -0.04561727 -7.4099619e-18)
(-0.039312326 -0.043055182 2.4537627e-19)
(-0.039245921 -0.04055779 8.4196626e-18)
(-0.039088635 -0.038128176 1.8904813e-17)
(-0.038848435 -0.035768583 -2.3423927e-18)
(-0.038532673 -0.033480567 -2.2857607e-18)
(-0.03814812 -0.031265136 5.746883e-18)
(-0.037701 -0.029122864 7.7812837e-18)
(-0.037197035 -0.027053988 1.6666374e-17)
(-0.036641495 -0.025058485 -2.2485731e-19)
(-0.036039243 -0.023136129 -5.9741887e-18)
(-0.035394785 -0.021286543 -5.4494813e-21)
(-0.03471231 -0.019509232 1.3859544e-18)
(-0.033995732 -0.017803612 1.0744957e-17)
(-0.033248728 -0.016169026 -1.8753797e-18)
(-0.032474767 -0.014604759 -5.0093704e-18)
(-0.03167714 -0.013110042 -4.9816198e-19)
(-0.030858979 -0.011684053 1.4722159e-18)
(-0.030023282 -0.010325925 6.688512e-18)
(-0.029172923 -0.0090347356 2.3517185e-19)
(-0.028310667 -0.0078095079 -3.2191971e-18)
(-0.027439176 -0.0066492084 -1.498321e-18)
(-0.026561017 -0.0055527415 -2.4436927e-18)
(-0.025678663 -0.0045189452 -4.1117615e-18)
(-0.024794497 -0.003546587 -3.32879e-18)
(-0.023910809 -0.0026343639 -1.4299537e-18)
(-0.023029798 -0.0017809025 -5.6616498e-19)
(-0.022153587 -0.00098475178 -1.5769741e-18)
(-0.021284194 -0.00024437883 -1.2159211e-18)
(-0.020423485 0.0004418334 -1.4928047e-18)
(-0.019573282 0.0010754644 1.8540102e-20)
(-0.018735297 0.001658275 3.5235278e-20)
(-0.017911108 0.0021920421 9.0076342e-19)
(-0.017102191 0.0026786024 1.6348771e-18)
(-0.016309902 0.0031198395 -2.9423317e-18)
(-0.015535479 0.0035176783 -8.9546839e-19)
(-0.014780039 0.0038740779 7.9671127e-19)
(-0.014044578 0.0041910235 8.7159006e-19)
(-0.013329966 0.0044705193 4.2688976e-19)
(-0.012636953 0.0047145789 -3.0118678e-18)
(-0.011966168 0.0049252186 -2.4539011e-18)
(-0.01131812 0.0051044481 -9.8945e-19)
(-0.010693199 0.005254262 -7.3195798e-20)
(-0.010091683 0.0053766325 8.8991604e-19)
(-0.0095137371 0.0054735011 -1.4213495e-18)
(-0.0089594231 0.0055467712 -3.6245912e-19)
(-0.0084286995 0.0055983008 9.6930175e-19)
(-0.0079214299 0.0056298967 2.3134623e-19)
(-0.0074373878 0.0056433075 5.8639622e-19)
(-0.0069762632 0.0056402188 -8.4536903e-19)
(-0.0065376697 0.0056222482 -7.671233e-19)
(-0.0061211504 0.0055909413 -4.1001479e-19)
(-0.0057261863 0.0055477679 -1.7644277e-19)
(-0.0053522022 0.0054941199 3.8120014e-19)
(-0.0049985748 0.0054313084 -1.36453e-18)
(-0.0046646398 0.0053605631 -1.4738639e-18)
(-0.0043496985 0.005283031 -8.1028082e-19)
(-0.0040530253 0.0051997766 -5.2437776e-19)
(-0.0037738745 0.005111783 2.326309e-19)
(-0.0020327169 -0.084881547 1.1413702e-16)
(-0.0046820291 -0.084756881 1.2999511e-16)
(-0.0076609301 -0.084252496 2.0983456e-18)
(-0.010472341 -0.083452033 -1.1583888e-16)
(-0.013282182 -0.082356121 -4.5776536e-17)
(-0.015967162 -0.08099501 -1.053735e-16)
(-0.018510063 -0.079401366 -5.9550808e-17)
(-0.020898024 -0.077603236 -2.8533401e-17)
(-0.02312028 -0.075626896 -5.9093442e-17)
(-0.025168819 -0.073497906 -2.2868041e-17)
(-0.027038907 -0.071241228 9.3569914e-18)
(-0.028728842 -0.068880956 3.6131773e-17)
(-0.030239598 -0.06643996 1.1817843e-17)
(-0.031574444 -0.063939555 2.1586872e-17)
(-0.032738538 -0.061399268 2.997106e-18)
(-0.033738514 -0.05883669 5.3341558e-18)
(-0.034582097 -0.056267424 1.7022009e-17)
(-0.03527775 -0.053705103 6.206851e-18)
(-0.035834366 -0.051161464 1.254254e-17)
(-0.03626101 -0.048646475 2.3898757e-18)
(-0.03656671 -0.046168485 8.163858e-19)
(-0.036760298 -0.043734393 -4.6487804e-18)
(-0.036850288 -0.041349818 -1.3888412e-18)
(-0.036844801 -0.039019272 7.2786861e-18)
(-0.036751508 -0.036746317 -8.5413662e-19)
(-0.036577611 -0.034533713 -7.3723521e-18)
(-0.036329832 -0.03238355 -3.4168141e-18)
(-0.036014427 -0.030297364 1.9977283e-18)
(-0.035637205 -0.028276243 7.3879074e-18)
(-0.035203557 -0.026320906 2.1258793e-18)
(-0.034718488 -0.024431783 -6.8517809e-18)
(-0.034186654 -0.022609064 -6.4971173e-18)
(-0.033612391 -0.020852754 -1.7995656e-18)
(-0.032999758 -0.019162702 4.3893686e-18)
(-0.032352561 -0.017538634 2.8965406e-18)
(-0.031674385 -0.015980173 -8.0810583e-18)
(-0.030968622 -0.014486853 -4.5086828e-18)
(-0.030238491 -0.013058129 -9.211133e-19)
(-0.02948706 -0.011693387 6.4101485e-18)
(-0.028717263 -0.010391941 1.2172331e-18)
(-0.027931908 -0.0091530395 -3.9199525e-18)
(-0.027133695 -0.0079758633 -3.8540309e-18)
(-0.02632522 -0.006859526 -7.6750457e-18)
(-0.02550898 -0.0058030728 -5.6665462e-18)
(-0.02468738 -0.0048054782 -3.6677975e-18)
(-0.023862732 -0.0038656438 3.0536483e-19)
(-0.023037254 -0.0029823976 2.7492098e-19)
(-0.022213074 -0.0021544978 -2.9293415e-18)
(-0.021392224 -0.0013806291 -3.2006746e-18)
(-0.020576641 -0.00065938392 -1.2378167e-18)
(-0.019768249 1.0688429e-05 1.78934e-19)
(-0.018968659 0.00063107238 8.4308799e-19)
(-0.018179571 0.0012033688 3.6117838e-19)
(-0.017402523 0.0017292133 6.0096573e-19)
(-0.016638934 0.0022102955 -5.6458914e-19)
(-0.015890118 0.0026483521 -8.5484312e-19)
(-0.015157279 0.003045159 7.3647365e-19)
(-0.014441505 0.0034025255 4.3656864e-19)
(-0.01374377 0.0037222863 6.0107629e-19)
(-0.013064932 0.004006295 -2.5594085e-19)
(-0.012405737 0.0042564161 -1.2867328e-18)
(-0.011766815 0.0044745177 -1.4517998e-18)
(-0.011148687 0.0046624633 -1.9306271e-18)
(-0.010551761 0.0048221048 -3.0836512e-19)
(-0.0099763408 0.0049552747 2.2846834e-19)
(-0.0094226261 0.0050637788 -4.7515281e-19)
(-0.0088907173 0.0051493901 2.1924203e-19)
(-0.0083806202 0.0052138411 5.777997e-19)
(-0.0078922509 0.005258819 2.124093e-19)
(-0.007425441 0.0052859591 6.2034522e-19)
(-0.0069799433 0.0052968406 5.5291575e-21)
(-0.0065554384 0.0052929814 -1.6798862e-19)
(-0.0061515403 0.0052758348 -6.6315948e-19)
(-0.0057678034 0.0052467859 -3.2065068e-19)
(-0.0054037287 0.0052071492 1.6666074e-19)
(-0.0050587705 0.0051581663 -9.5116917e-19)
(-0.004732343 0.0051010048 -1.077939e-18)
(-0.0044238267 0.0050367575 -7.7518182e-19)
(-0.0041325747 0.0049664418 -2.6050831e-19)
(-0.0038579191 0.0048910008 2.8741532e-19)
(-0.0018492303 -0.079136982 1.9311997e-17)
(-0.0042576891 -0.079029912 -1.2798475e-16)
(-0.0069689732 -0.078591083 6.4202002e-17)
(-0.0095328822 -0.077891766 -5.2761546e-17)
(-0.01210124 -0.076930444 -8.5022093e-18)
(-0.014563134 -0.075731975 1.389104e-17)
(-0.016903264 -0.07432378 -2.2890209e-17)
(-0.01911004 -0.072729512 -3.0104106e-17)
(-0.021173494 -0.070971435 -1.8877815e-17)
(-0.023085893 -0.069071301 -1.1677252e-17)
(-0.024842247 -0.067050477 -6.9077951e-18)
(-0.026440129 -0.064929731 -1.9076184e-17)
(-0.027879402 -0.062728944 -2.4396498e-17)
(-0.029161936 -0.060466831 -2.1603935e-17)
(-0.030291283 -0.058160724 -1.731631e-17)
(-0.031272361 -0.055826432 -1.7497927e-18)
(-0.032111139 -0.053478171 -1.2665191e-17)
(-0.032814348 -0.051128548 -1.4314338e-17)
(-0.03338922 -0.048788599 -9.8809964e-18)
(-0.033843268 -0.046467868 -9.6111316e-18)
(-0.034184098 -0.044174508 -7.6294426e-18)
(-0.03441926 -0.041915409 -8.5039225e-18)
(-0.034556136 -0.039696327 -1.1715642e-17)
(-0.034601855 -0.037522013 -5.4320857e-18)
(-0.034563234 -0.035396347 -4.8676699e-18)
(-0.034446747 -0.033322457 -1.1632263e-17)
(-0.034258501 -0.031302826 -1.3461559e-17)
(-0.03400424 -0.029339397 -6.8770664e-18)
(-0.033689345 -0.027433656 7.7685848e-19)
(-0.033318857 -0.025586716 2.0450713e-19)
(-0.032897492 -0.023799374 -1.0307467e-17)
(-0.032429669 -0.022072171 -1.0428067e-17)
(-0.031919531 -0.020405431 -2.7945264e-18)
(-0.031370973 -0.018799303 4.468563e-18)
(-0.030787667 -0.017253784 1.2448551e-18)
(-0.030173081 -0.015768742 -5.6939335e-18)
(-0.029530507 -0.014343939 -2.7875403e-18)
(-0.028863072 -0.012979033 6.3377705e-19)
(-0.028173762 -0.011673596 4.0555045e-18)
(-0.027465428 -0.010427116 3.6532965e-18)
(-0.026740805 -0.0092389988 3.0215006e-18)
(-0.026002516 -0.0081085756 -4.6425133e-18)
(-0.025253083 -0.0070351003 -8.5655852e-18)
(-0.024494931 -0.0060177519 -4.9994553e-18)
(-0.023730387 -0.0050556352 -1.9487823e-18)
(-0.022961692 -0.0041477799 1.9061307e-18)
(-0.022190992 -0.0032931404 -2.2494129e-18)
(-0.021420342 -0.002490599 -4.5272331e-18)
(-0.020651701 -0.0017389669 -1.7297242e-18)
(-0.019886946 -0.0010369823 1.0070631e-19)
(-0.019127875 -0.0003833252 1.6720841e-18)
(-0.018376188 0.00022344091 2.9013e-19)
(-0.017633387 0.00078468392 -6.7124506e-19)
(-0.016901009 0.0013019446 -1.3087793e-18)
(-0.016180421 0.0017767737 -6.8406957e-19)
(-0.015472897 0.002210769 2.1133811e-18)
(-0.014779605 0.0026055676 1.082029e-18)
(-0.014101606 0.0029628383 -8.3836833e-20)
(-0.013439854 0.0032842756 -1.4220214e-18)
(-0.012795194 0.0035715931 -5.6822101e-19)
(-0.012168364 0.003826516 4.6151466e-19)
(-0.011559997 0.0040507746 -1.4057698e-18)
(-0.010970619 0.0042460965 -2.2424636e-18)
(-0.010400656 0.0044142002 -1.5579891e-18)
(-0.0098504334 0.0045567884 -7.6266351e-20)
(-0.0093201796 0.0046755407 2.4130351e-19)
(-0.0088100305 0.004772108 -3.9014466e-19)
(-0.008320033 0.0048481061 -1.3563466e-20)
(-0.0078501498 0.0049051099 -3.3357501e-19)
(-0.0074002644 0.004944649 7.0746088e-19)
(-0.006970186 0.0049682025 8.1017584e-19)
(-0.0065596553 0.0049771946 -1.3721751e-19)
(-0.0061683501 0.0049729917 -9.6387952e-19)
(-0.0057958912 0.0049568985 -8.8817237e-19)
(-0.0054418483 0.004930156 8.6135089e-20)
(-0.0051057459 0.0048939397 -3.7057526e-19)
(-0.0047870697 0.0048493575 -9.9143837e-19)
(-0.004485272 0.0047974496 -9.2469853e-19)
(-0.0041997778 0.0047391877 -3.1088874e-19)
(-0.0039299903 0.0046754753 -2.807165e-20)
(-0.0016869429 -0.073905364 4.5910873e-17)
(-0.0038826101 -0.073812936 1.7758558e-17)
(-0.0063569605 -0.073429382 6.488476e-17)
(-0.0087009851 -0.072815763 9.7196514e-17)
(-0.011053946 -0.071969031 6.5244335e-17)
(-0.013315743 -0.07090968 5.5018503e-17)
(-0.015472758 -0.069660822 4.4924986e-17)
(-0.017514555 -0.068242483 4.846324e-17)
(-0.019431937 -0.066673597 3.5196724e-17)
(-0.021217525 -0.064972749 1.8685205e-17)
(-0.022866249 -0.063158287 1.6834016e-17)
(-0.024375211 -0.061248165 -1.1547291e-17)
(-0.025743483 -0.0592597 -8.1852975e-19)
(-0.026971883 -0.057209338 -1.0483025e-17)
(-0.028062728 -0.055112461 4.4756334e-18)
(-0.029019582 -0.052983255 1.4682335e-19)
(-0.029847 -0.050834628 -8.4823893e-18)
(-0.030550295 -0.048678178 -1.3760416e-18)
(-0.031135319 -0.046524204 1.255721e-18)
(-0.031608269 -0.044381748 6.0788107e-18)
(-0.031975529 -0.04225867 1.6975458e-17)
(-0.032243531 -0.040161728 1.1788939e-17)
(-0.032418647 -0.038096683 -1.230462e-18)
(-0.032507111 -0.036068397 5.8533398e-18)
(-0.032514956 -0.034080939 -1.006679e-18)
(-0.03244797 -0.032137677 -1.7969925e-18)
(-0.032311676 -0.030241377 3.3012689e-18)
(-0.032111314 -0.02839428 3.1290659e-18)
(-0.031851843 -0.026598181 8.1186599e-18)
(-0.031537943 -0.024854499 -2.2385369e-19)
(-0.03117403 -0.023164329 -4.4796943e-18)
(-0.030764268 -0.021528499 4.9697044e-19)
(-0.030312586 -0.019947602 2.2485625e-18)
(-0.029822698 -0.018422039 5.9146928e-18)
(-0.029298118 -0.016952042 -1.4070863e-18)
(-0.028742182 -0.015537695 -5.3501486e-19)
(-0.02815806 -0.014178958 3.6923367e-18)
(-0.027548775 -0.012875674 4.0219165e-18)
(-0.026917211 -0.011627587 6.2894028e-18)
(-0.026266131 -0.010434339 6.345439e-18)
(-0.025598181 -0.0092954865 2.3658977e-18)
(-0.024915903 -0.0082104988 -5.9377901e-18)
(-0.024221737 -0.0071787624 -7.299301e-18)
(-0.023518027 -0.0061995833 -3.3966237e-18)
(-0.022807027 -0.0052721896 1.1563158e-18)
(-0.022090898 -0.0043957324 1.5540545e-18)
(-0.021371715 -0.0035692863 -3.9513457e-18)
(-0.02065146 -0.0027918526 -3.7668415e-18)
(-0.019932023 -0.0020623622 -7.3700693e-19)
(-0.019215213 -0.0013796807 2.5268518e-18)
(-0.018502745 -0.00074260008 2.7355636e-18)
(-0.01779629 -0.00014983522 1.0278491e-18)
(-0.017097316 0.00039992904 1.8345259e-20)
(-0.016407246 0.00090803219 -1.150765e-18)
(-0.015727438 0.001375929 3.0913405e-18)
(-0.015059121 0.0018050835 2.9621389e-18)
(-0.014403429 0.0021970023 8.5640961e-19)
(-0.013761396 0.0025532236 1.2880902e-18)
(-0.013133954 0.0028753112 -7.2876738e-19)
(-0.012521933 0.0031648477 1.1095494e-18)
(-0.011926066 0.0034234289 9.4216179e-19)
(-0.011346982 0.0036526565 -1.1907256e-18)
(-0.010785216 0.0038541316 -9.513589e-19)
(-0.010241205 0.0040294488 -7.4572093e-19)
(-0.0097152927 0.0041801892 1.6582569e-18)
(-0.0092077329 0.004307915 8.9409343e-19)
(-0.0087186924 0.0044141633 -3.1069108e-19)
(-0.0082482543 0.0045004403 7.7980174e-19)
(-0.0077964228 0.0045682166 3.9367194e-19)
(-0.0073631276 0.0046189224 1.7009425e-18)
(-0.0069482282 0.0046539428 1.1798263e-18)
(-0.0065515191 0.0046746139 1.2268219e-19)
(-0.0061727356 0.00468222 -3.9426878e-20)
(-0.0058115583 0.0046779899 -3.1900175e-19)
(-0.005467619 0.0046630949 8.8441513e-19)
(-0.005140506 0.004638647 1.2909915e-19)
(-0.0048297695 0.0046056971 -8.1775442e-19)
(-0.0045349273 0.0045652348 -4.6425398e-19)
(-0.0042554698 0.0045181869 -2.4219779e-19)
(-0.0039908652 0.0044654185 5.1875736e-20)
(-0.001542874 -0.069128033 7.6507349e-17)
(-0.0035498306 -0.069047866 6.6062832e-17)
(-0.0058136625 -0.068711157 4.9659911e-17)
(-0.0079616945 -0.06817049 9.6403532e-17)
(-0.010121951 -0.067421754 4.5961742e-17)
(-0.012203811 -0.066481901 -3.3852474e-17)
(-0.014195136 -0.065370497 8.4730529e-17)
(-0.016086536 -0.064104564 4.7830546e-17)
(-0.01786955 -0.062700266 3.6546816e-17)
(-0.019537203 -0.061173537 5.0359071e-17)
(-0.021084463 -0.059540188 2.0545685e-17)
(-0.022508155 -0.057815778 1.6478817e-17)
(-0.023806792 -0.056015423 1.5694311e-17)
(-0.024980412 -0.054153593 1.4204174e-17)
(-0.026030386 -0.052243941 1.8320755e-17)
(-0.026959207 -0.050299181 -4.1977923e-18)
(-0.027770301 -0.048331007 1.8195821e-17)
(-0.028467821 -0.046350049 1.5699611e-17)
(-0.029056469 -0.04436586 1.418045e-17)
(-0.029541338 -0.042386944 1.8780296e-17)
(-0.029927762 -0.040420794 1.9971595e-18)
(-0.0302212 -0.038473959 -7.699516e-18)
(-0.030427135 -0.036552106 3.58693e-18)
(-0.030550998 -0.034660108 4.4265738e-18)
(-0.030598105 -0.03280212 -1.393879e-18)
(-0.030573613 -0.030981653 3.1039612e-18)
(-0.03048249 -0.029201659 -4.2608274e-18)
(-0.030329497 -0.027464592 1.2294486e-18)
(-0.030119178 -0.025772476 5.3725237e-18)
(-0.029855856 -0.024126963 -1.5220073e-18)
(-0.029543641 -0.022529386 5.5580002e-19)
(-0.029186432 -0.020980801 -5.0173703e-18)
(-0.028787935 -0.019482025 -8.5211357e-19)
(-0.028351667 -0.018033668 2.7778391e-18)
(-0.027880974 -0.016636162 -2.2575602e-19)
(-0.027379042 -0.015289778 3.7269623e-18)
(-0.026848909 -0.013994651 -1.5538498e-18)
(-0.026293478 -0.012750788 2.8344539e-19)
(-0.025715525 -0.011558083 -1.684571e-19)
(-0.025117711 -0.010416324 -4.6220211e-18)
(-0.024502589 -0.0093252031 -4.2254893e-18)
(-0.023872609 -0.0082843175 -1.0057946e-18)
(-0.023230126 -0.0072931774 6.6052922e-19)
(-0.022577401 -0.006351208 -1.9589458e-18)
(-0.021916607 -0.0054577533 -2.2663902e-18)
(-0.021249829 -0.0046120788 -2.8299001e-18)
(-0.020579066 -0.0038133727 3.0520455e-19)
(-0.019906228 -0.0030607488 2.0106145e-18)
(-0.01923314 -0.0023532516 -5.293427e-19)
(-0.018561541 -0.0016898605 4.6588216e-19)
(-0.017893082 -0.0010694847 -4.3700568e-20)
(-0.017229327 -0.00049097524 1.4610898e-18)
(-0.016571814 4.6913973e-05 5.4035333e-19)
(-0.015921824 0.00054539124 8.835457e-19)
(-0.015280674 0.0010057679 3.882336e-18)
(-0.014649574 0.0014293952 7.8709952e-20)
(-0.014029621 0.0018176599 1.5682619e-18)
(-0.013421818 0.0021719789 2.1724693e-18)
(-0.012827079 0.0024937937 1.3975487e-18)
(-0.012246219 0.0027845654 1.3796433e-18)
(-0.011679959 0.0030457685 -1.0680651e-18)
(-0.011128929 0.0032788851 -1.1749138e-19)
(-0.010593666 0.0034853987 2.1268233e-19)
(-0.010074616 0.0036667877 5.3403086e-19)
(-0.0095721405 0.0038245206 1.5235204e-18)
(-0.0090865132 0.0039600497 -3.8091132e-19)
(-0.008617928 0.0040748057 4.6853845e-19)
(-0.0081664998 0.0041701927 1.4257579e-18)
(-0.0077322696 0.0042475835 1.0703957e-18)
(-0.0073152078 0.0043083149 1.4557624e-18)
(-0.0069152189 0.0043536839 9.1705266e-20)
(-0.006532146 0.0043849438 1.8348745e-19)
(-0.0061657756 0.0044033014 3.8729018e-19)
(-0.0058158422 0.0044099135 3.7090166e-19)
(-0.0054820338 0.0044058853 7.8621024e-19)
(-0.0051639962 0.0043922683 -5.7752346e-19)
(-0.0048613384 0.0043700589 -7.3136027e-19)
(-0.0045736377 0.0043401974 -3.0401339e-19)
(-0.0043004439 0.0043035677 -4.4030963e-20)
(-0.0040412848 0.0042609968 2.6902496e-19)
(-0.0014145223 -0.064754526 6.7108337e-17)
(-0.0032535143 -0.064684683 5.0205075e-17)
(-0.0053296513 -0.06438787 -5.4542961e-18)
(-0.0073024311 -0.063909598 -6.7866134e-17)
(-0.0092897902 -0.063245036 -1.4282805e-17)
(-0.011209447 -0.062408258 -2.8094092e-18)
(-0.013050567 -0.061415899 1.2716291e-17)
(-0.014804704 -0.060282489 -1.2610541e-17)
(-0.016464096 -0.059021879 2.1935678e-17)
(-0.018022191 -0.057647779 -1.0675295e-17)
(-0.019474086 -0.056173853 -2.1825265e-17)
(-0.020816459 -0.054613625 2.2445332e-18)
(-0.022047448 -0.052980314 -8.8135077e-18)
(-0.02316652 -0.051286667 1.1442585e-18)
(-0.024174316 -0.049544808 -3.193895e-18)
(-0.025072498 -0.047766128 -2.3445737e-18)
(-0.025863582 -0.045961203 -6.1578734e-18)
(-0.026550775 -0.044139744 -8.3767617e-18)
(-0.027137832 -0.042310578 -7.525157e-18)
(-0.027628912 -0.040481649 -9.8742598e-18)
(-0.028028454 -0.038660051 -1.2111474e-17)
(-0.028341077 -0.036852058 -1.4686341e-17)
(-0.028571481 -0.035063182 -7.2113125e-18)
(-0.028724383 -0.033298227 -1.3877263e-18)
(-0.02880445 -0.031561355 7.6793753e-18)
(-0.02881626 -0.029856145 -1.51747e-18)
(-0.028764265 -0.028185656 -6.9955895e-18)
(-0.028652773 -0.026552483 -7.6591505e-19)
(-0.028485928 -0.024958812 1.1114406e-18)
(-0.028267705 -0.023406469 7.0516312e-18)
(-0.028001908 -0.021896968 -9.9500993e-19)
(-0.027692175 -0.020431545 -6.3950071e-18)
(-0.027341977 -0.019011197 -1.6302571e-18)
(-0.026954631 -0.017636708 1.0251851e-18)
(-0.026533303 -0.016308675 7.6939959e-18)
(-0.026081021 -0.015027533 2.495893e-19)
(-0.025600681 -0.013793564 -5.1740343e-18)
(-0.025095059 -0.012606919 -2.209831e-18)
(-0.024566815 -0.01146763 -6.1269021e-19)
(-0.0240185 -0.010375612 5.1522246e-18)
(-0.023452567 -0.0093306807 9.0075342e-18)
(-0.022871371 -0.0083325516 3.1188088e-18)
(-0.022277175 -0.0073808489 -5.051931e-18)
(-0.021672157 -0.0064751085 -5.0864697e-18)