/*--------------------------------*- C++ -*----------------------------------*\
| =========                 |                                                 |
| \\      /  F ield         | OpenFOAM: The Open Source CFD Toolbox           |
|  \\    /   O peration     | Version:  2106                                  |
|   \\  /    A nd           | Website:  www.openfoam.com                      |
|    \\/     M anipulation  |                                                 |
\*---------------------------------------------------------------------------*/
FoamFile
{
    version     2.0;
    format      ascii;
    arch        "LSB;label=32;scalar=64";
    class       surfaceScalarField;
    location    "0.05";
    object      phi;
}
// * * * * * * * * * * * * * * * * * * * * * * * * * * * * * * * * * * * * * //

dimensions      [0 3 -1 0 0 0 0];

oriented        oriented;

internalField   nonuniform List<scalar> 
130560
(
-2.4245893e-06
2.4245893e-06
-4.8477418e-06
2.4231525e-06
-7.2680213e-06
2.4202795e-06
-9.6839935e-06
2.4159722e-06
-1.2094226e-05
2.4102328e-06
-1.4497291e-05
2.4030646e-06
-1.6891763e-05
2.3944717e-06
-1.9276221e-05
2.3844589e-06
-2.1649253e-05
2.3730318e-06
-2.400945e-05
2.3601969e-06
-2.6355411e-05
2.3459613e-06
-2.8685745e-05
2.3303333e-06
-3.0999066e-05
2.3133215e-06
-3.3294002e-05
2.2949356e-06
-3.5569188e-05
2.2751859e-06
-3.7823271e-05
2.2540837e-06
-4.0054912e-05
2.2316408e-06
-4.2262782e-05
2.2078699e-06
-4.4445567e-05
2.1827846e-06
-4.6601966e-05
2.1563991e-06
-4.8730694e-05
2.1287282e-06
-5.0830482e-05
2.0997878e-06
-5.2900076e-05
2.0695942e-06
-5.493824e-05
2.0381646e-06
-5.6943757e-05
2.005517e-06
-5.8915427e-05
1.9716698e-06
-6.085207e-05
1.9366425e-06
-6.2752525e-05
1.900455e-06
-6.4615653e-05
1.863128e-06
-6.6440336e-05
1.8246828e-06
-6.8225477e-05
1.7851415e-06
-6.9970004e-05
1.7445267e-06
-7.1672866e-05
1.7028618e-06
-7.3333036e-05
1.6601706e-06
-7.4949514e-05
1.6164777e-06
-7.6521322e-05
1.5718084e-06
-7.8047511e-05
1.5261884e-06
-7.9527155e-05
1.4796439e-06
-8.0959357e-05
1.432202e-06
-8.2343247e-05
1.3838901e-06
-8.3677983e-05
1.3347362e-06
-8.4962752e-05
1.2847689e-06
-8.6196769e-05
1.2340172e-06
-8.737928e-05
1.1825106e-06
-8.8509559e-05
1.1302792e-06
-8.9586912e-05
1.0773535e-06
-9.0610677e-05
1.0237644e-06
-9.158022e-05
9.6954329e-07
-9.2494942e-05
9.14722e-07
-9.3354275e-05
8.5933271e-07
-9.4157683e-05
8.03408e-07
-9.4904664e-05
7.4698081e-07
-9.5594748e-05
6.9008444e-07
-9.6227501e-05
6.327525e-07
-9.6802519e-05
5.7501893e-07
-9.7319437e-05
5.1691794e-07
-9.7777921e-05
4.5848402e-07
-9.8177673e-05
3.9975191e-07
-9.851843e-05
3.4075659e-07
-9.8799963e-05
2.8153325e-07
-9.902208e-05
2.2211727e-07
-9.9184625e-05
1.6254417e-07
-9.9287474e-05
1.0284954e-07
-9.9330544e-05
4.3069469e-08
-9.9313784e-05
-1.6760094e-08
-9.923718e-05
-7.6603433e-08
-9.9100756e-05
-1.364243e-07
-9.8904569e-05
-1.9618656e-07
-9.8648715e-05
-2.5585408e-07
-9.8333324e-05
-3.153907e-07
-9.7958564e-05
-3.747603e-07
-9.7524637e-05
-4.3392679e-07
-9.7031783e-05
-4.9285416e-07
-9.6480277e-05
-5.515065e-07
-9.5870429e-05
-6.0984799e-07
-9.5202586e-05
-6.6784296e-07
-9.447713e-05
-7.2545589e-07
-9.3694478e-05
-7.8265144e-07
-9.2855084e-05
-8.393945e-07
-9.1959434e-05
-8.9565015e-07
-9.100805e-05
-9.5138375e-07
-9.0001489e-05
-1.0065609e-06
-8.8940342e-05
-1.0611475e-06
-8.7825232e-05
-1.1151098e-06
-8.6656817e-05
-1.1684144e-06
-8.5435789e-05
-1.2210282e-06
-8.4162871e-05
-1.2729185e-06
-8.2838818e-05
-1.324053e-06
-8.1464418e-05
-1.3743998e-06
-8.004049e-05
-1.4239277e-06
-7.8567885e-05
-1.4726056e-06
-7.7047482e-05
-1.520403e-06
-7.5480192e-05
-1.5672902e-06
-7.3866954e-05
-1.6132376e-06
-7.2208737e-05
-1.6582165e-06
-7.0506539e-05
-1.7021985e-06
-6.8761383e-05
-1.745156e-06
-6.6974321e-05
-1.787062e-06
-6.5146431e-05
-1.82789e-06
-6.3278817e-05
-1.8676142e-06
-6.1372607e-05
-1.9062096e-06
-5.9428956e-05
-1.9436517e-06
-5.7449039e-05
-1.9799168e-06
-5.5434057e-05
-2.014982e-06
-5.3385232e-05
-2.048825e-06
-5.1303807e-05
-2.0814243e-06
-4.9191048e-05
-2.1127593e-06
-4.7048238e-05
-2.1428098e-06
-4.4876681e-05
-2.171557e-06
-4.2677699e-05
-2.1989823e-06
-4.0452631e-05
-2.2250684e-06
-3.8202832e-05
-2.2497986e-06
-3.5929675e-05
-2.2731572e-06
-3.3634546e-05
-2.2951291e-06
-3.1318845e-05
-2.3157004e-06
-2.8983987e-05
-2.3348579e-06
-2.6631398e-05
-2.3525893e-06
-2.4262515e-05
-2.3688834e-06
-2.1878785e-05
-2.3837296e-06
-1.9481667e-05
-2.3971184e-06
-1.7072625e-05
-2.4090413e-06
-1.4653135e-05
-2.4194906e-06
-1.2224675e-05
-2.4284597e-06
-9.7887325e-06
-2.4359427e-06
-7.3467976e-06
-2.4419349e-06
-4.9003652e-06
-2.4464324e-06
-2.4509328e-06
-2.4494324e-06
-1.2164105e-15
-2.4509328e-06
2.4509328e-06
-2.4509328e-06
4.9003652e-06
-2.4494324e-06
7.3467976e-06
-2.4464324e-06
9.7887325e-06
-2.4419349e-06
1.2224675e-05
-2.4359427e-06
1.4653135e-05
-2.4284597e-06
1.7072625e-05
-2.4194906e-06
1.9481667e-05
-2.4090413e-06
2.1878785e-05
-2.3971184e-06
2.4262515e-05
-2.3837296e-06
2.6631398e-05
-2.3688834e-06
2.8983987e-05
-2.3525893e-06
3.1318845e-05
-2.3348579e-06
3.3634546e-05
-2.3157004e-06
3.5929675e-05
-2.2951291e-06
3.8202832e-05
-2.2731572e-06
4.0452631e-05
-2.2497986e-06
4.2677699e-05
-2.2250684e-06
4.4876681e-05
-2.1989823e-06
4.7048238e-05
-2.171557e-06
4.9191048e-05
-2.1428098e-06
5.1303807e-05
-2.1127593e-06
5.3385232e-05
-2.0814243e-06
5.5434057e-05
-2.048825e-06
5.7449039e-05
-2.014982e-06
5.9428956e-05
-1.9799168e-06
6.1372607e-05
-1.9436517e-06
6.3278817e-05
-1.9062096e-06
6.5146431e-05
-1.8676142e-06
6.6974321e-05
-1.82789e-06
6.8761383e-05
-1.787062e-06
7.0506539e-05
-1.745156e-06
7.2208737e-05
-1.7021985e-06
7.3866954e-05
-1.6582165e-06
7.5480192e-05
-1.6132376e-06
7.7047482e-05
-1.5672902e-06
7.8567885e-05
-1.520403e-06
8.004049e-05
-1.4726056e-06
8.1464418e-05
-1.4239277e-06
8.2838818e-05
-1.3743998e-06
8.4162871e-05
-1.324053e-06
8.5435789e-05
-1.2729185e-06
8.6656817e-05
-1.2210282e-06
8.7825232e-05
-1.1684144e-06
8.8940342e-05
-1.1151098e-06
9.0001489e-05
-1.0611475e-06
9.100805e-05
-1.0065609e-06
9.1959434e-05
-9.5138375e-07
9.2855084e-05
-8.9565015e-07
9.3694478e-05
-8.393945e-07
9.447713e-05
-7.8265144e-07
9.5202586e-05
-7.2545589e-07
9.5870429e-05
-6.6784296e-07
9.6480277e-05
-6.0984799e-07
9.7031783e-05
-5.515065e-07
9.7524637e-05
-4.9285416e-07
9.7958564e-05
-4.3392679e-07
9.8333324e-05
-3.747603e-07
9.8648715e-05
-3.153907e-07
9.8904569e-05
-2.5585408e-07
9.9100756e-05
-1.9618656e-07
9.923718e-05
-1.364243e-07
9.9313784e-05
-7.6603433e-08
9.9330544e-05
-1.6760094e-08
9.9287474e-05
4.3069469e-08
9.9184625e-05
1.0284954e-07
9.902208e-05
1.6254417e-07
9.8799963e-05
2.2211727e-07
9.851843e-05
2.8153325e-07
9.8177673e-05
3.4075659e-07
9.7777921e-05
3.9975191e-07
9.7319437e-05
4.5848402e-07
9.6802519e-05
5.1691794e-07
9.6227501e-05
5.7501893e-07
9.5594748e-05
6.327525e-07
9.4904664e-05
6.9008444e-07
9.4157683e-05
7.4698081e-07
9.3354275e-05
8.03408e-07
9.2494942e-05
8.5933271e-07
9.158022e-05
9.14722e-07
9.0610677e-05
9.6954329e-07
8.9586912e-05
1.0237644e-06
8.8509559e-05
1.0773535e-06
8.737928e-05
1.1302792e-06
8.6196769e-05
1.1825106e-06
8.4962752e-05
1.2340172e-06
8.3677983e-05
1.2847689e-06
8.2343247e-05
1.3347362e-06
8.0959357e-05
1.3838901e-06
7.9527155e-05
1.432202e-06
7.8047511e-05
1.4796439e-06
7.6521322e-05
1.5261884e-06
7.4949514e-05
1.5718084e-06
7.3333036e-05
1.6164777e-06
7.1672866e-05
1.6601706e-06
6.9970004e-05
1.7028618e-06
6.8225477e-05
1.7445267e-06
6.6440336e-05
1.7851415e-06
6.4615653e-05
1.8246828e-06
6.2752525e-05
1.863128e-06
6.085207e-05
1.900455e-06
5.8915427e-05
1.9366425e-06
5.6943757e-05
1.9716698e-06
5.493824e-05
2.005517e-06
5.2900076e-05
2.0381646e-06
5.0830482e-05
2.0695942e-06
4.8730694e-05
2.0997878e-06
4.6601966e-05
2.1287282e-06
4.4445567e-05
2.1563991e-06
4.2262782e-05
2.1827846e-06
4.0054912e-05
2.2078699e-06
3.7823271e-05
2.2316408e-06
3.5569188e-05
2.2540837e-06
3.3294002e-05
2.2751859e-06
3.0999066e-05
2.2949356e-06
2.8685745e-05
2.3133215e-06
2.6355411e-05
2.3303333e-06
2.400945e-05
2.3459613e-06
2.1649253e-05
2.3601969e-06
1.9276221e-05
2.3730318e-06
1.6891763e-05
2.3844589e-06
1.4497291e-05
2.3944717e-06
1.2094226e-05
2.4030646e-06
9.6839935e-06
2.4102328e-06
7.2680214e-06
2.4159722e-06
4.8477418e-06
2.4202795e-06
2.4245893e-06
2.4231525e-06
2.4245893e-06
-2.4263708e-06
4.8509601e-06
-4.8513037e-06
4.8480854e-06
-7.2733616e-06
4.8423374e-06
-9.691109e-06
4.8337196e-06
-1.2103113e-05
4.8222366e-06
-1.4507943e-05
4.8078951e-06
-1.6904175e-05
4.790703e-06
-1.9290386e-05
4.7706701e-06
-2.1665162e-05
4.7478077e-06
-2.4027093e-05
4.7221285e-06
-2.6374779e-05
4.6936472e-06
-2.8706826e-05
4.6623798e-06
-3.1021848e-05
4.6283438e-06
-3.3318471e-05
4.5915587e-06
-3.559533e-05
4.552045e-06
-3.7851072e-05
4.5098252e-06
-4.0084354e-05
4.4649232e-06
-4.2293849e-05
4.4173642e-06
-4.4478239e-05
4.3671754e-06
-4.6636225e-05
4.3143852e-06
-4.8766521e-05
4.2590234e-06
-5.0867854e-05
4.2011215e-06
-5.2938973e-05
4.1407124e-06
-5.4978638e-05
4.0778304e-06
-5.6985633e-05
4.0125114e-06
-5.8958755e-05
3.9447925e-06
-6.0896825e-05
3.8747125e-06
-6.2798682e-05
3.8023111e-06
-6.4663184e-05
3.72763e-06
-6.6489212e-05
3.6507117e-06
-6.8275671e-05
3.5716003e-06
-7.0021485e-05
3.4903411e-06
-7.1725605e-05
3.4069809e-06
-7.3387001e-05
3.3215674e-06
-7.5004674e-05
3.2341499e-06
-7.6577644e-05
3.1447787e-06
-7.8104961e-05
3.0535053e-06
-7.9585699e-05
2.9603825e-06
-8.1018961e-05
2.8654641e-06
-8.2403876e-05
2.768805e-06
-8.3739601e-05
2.6704614e-06
-8.5025323e-05
2.5704902e-06
-8.6260255e-05
2.4689497e-06
-8.7443644e-05
2.3658989e-06
-8.8574762e-05
2.2613979e-06
-8.9652916e-05
2.1555077e-06
-9.0677442e-05
2.0482903e-06
-9.1647708e-05
1.9398084e-06
-9.2563111e-05
1.8301257e-06
-9.3423085e-05
1.7193065e-06
-9.4227093e-05
1.6074161e-06
-9.4974633e-05
1.4945204e-06
-9.5665234e-05
1.3806859e-06
-9.6298462e-05
1.2659799e-06
-9.6873913e-05
1.1504704e-06
-9.7391221e-05
1.0342257e-06
-9.7850052e-05
9.1731492e-07
-9.8250107e-05
7.9980752e-07
-9.8591124e-05
6.8177348e-07
-9.8872874e-05
5.6328321e-07
-9.9095164e-05
4.4440747e-07
-9.9257838e-05
3.2521737e-07
-9.9360772e-05
2.0578429e-07
-9.9403883e-05
8.6180065e-08
-9.938712e-05
-3.3523404e-08
-9.9310469e-05
-1.5325421e-07
-9.9173953e-05
-2.729401e-07
-9.8977631e-05
-3.9250878e-07
-9.8721597e-05
-5.1188792e-07
-9.8405982e-05
-6.310052e-07
-9.8030954e-05
-7.4978832e-07
-9.7596716e-05
-8.6816511e-07
-9.7103507e-05
-9.8606351e-07
-9.6551602e-05
-1.1034116e-06
-9.5941312e-05
-1.2201379e-06
-9.5272984e-05
-1.3361708e-06
-9.4547e-05
-1.4514395e-06
-9.3763779e-05
-1.5658731e-06
-9.2923772e-05
-1.6794013e-06
-9.2027468e-05
-1.7919545e-06
-9.1075388e-05
-1.9034631e-06
-9.0068091e-05
-2.0138585e-06
-8.9006166e-05
-2.1230723e-06
-8.7890238e-05
-2.2310372e-06
-8.6720967e-05
-2.337686e-06
-8.5499042e-05
-2.4429528e-06
-8.4225189e-05
-2.5467721e-06
-8.2900162e-05
-2.6490793e-06
-8.1524751e-05
-2.7498106e-06
-8.0099776e-05
-2.8489033e-06
-7.8626086e-05
-2.9462955e-06
-7.7104563e-05
-3.0419262e-06
-7.5536117e-05
-3.1357355e-06
-7.392169e-05
-3.2276648e-06
-7.2262251e-05
-3.3176562e-06
-7.0558796e-05
-3.4056532e-06
-6.8812351e-05
-3.4916004e-06
-6.702397e-05
-3.5754438e-06
-6.5194729e-05
-3.6571304e-06
-6.3325735e-05
-3.7366087e-06
-6.1418116e-05
-3.8138284e-06
-5.9473027e-05
-3.8887408e-06
-5.7491645e-05
-3.9612983e-06
-5.5475172e-05
-4.0314551e-06
-5.3424831e-05
-4.0991665e-06
-5.1341865e-05
-4.1643897e-06
-4.9227541e-05
-4.2270831e-06
-4.7083144e-05
-4.2872069e-06
-4.4909979e-05
-4.3447228e-06
-4.2709367e-05
-4.3995942e-06
-4.0482649e-05
-4.4517861e-06
-3.8231183e-05
-4.5012651e-06
-3.595634e-05
-4.5479998e-06
-3.3659509e-05
-4.5919602e-06
-3.1342091e-05
-4.6331183e-06
-2.9005501e-05
-4.6714478e-06
-2.6651166e-05
-4.7069241e-06
-2.4280525e-05
-4.7395244e-06
-2.1895027e-05
-4.769228e-06
-1.9496129e-05
-4.7960158e-06
-1.70853e-05
-4.8198706e-06
-1.4664013e-05
-4.8407772e-06
-1.2233751e-05
-4.8587221e-06
-9.7959999e-06
-4.8736938e-06
-7.3522521e-06
-4.8856827e-06
-4.9040034e-06
-4.8946811e-06
-2.4527525e-06
-4.9006833e-06
-1.2148498e-15
-4.9036853e-06
2.4527525e-06
-4.9036853e-06
4.9040034e-06
-4.9006833e-06
7.3522521e-06
-4.8946811e-06
9.7959999e-06
-4.8856827e-06
1.2233751e-05
-4.8736938e-06
1.4664013e-05
-4.8587221e-06
1.70853e-05
-4.8407772e-06
1.9496129e-05
-4.8198706e-06
2.1895027e-05
-4.7960158e-06
2.4280525e-05
-4.769228e-06
2.6651166e-05
-4.7395244e-06
2.9005501e-05
-4.7069241e-06
3.1342091e-05
-4.6714478e-06
3.3659509e-05
-4.6331183e-06
3.595634e-05
-4.5919602e-06
3.8231183e-05
-4.5479998e-06
4.0482649e-05
-4.5012651e-06
4.2709367e-05
-4.4517861e-06
4.4909979e-05
-4.3995942e-06
4.7083144e-05
-4.3447228e-06
4.9227541e-05
-4.2872069e-06
5.1341865e-05
-4.2270831e-06
5.3424831e-05
-4.1643897e-06
5.5475172e-05
-4.0991665e-06
5.7491645e-05
-4.0314551e-06
5.9473027e-05
-3.9612983e-06
6.1418116e-05
-3.8887408e-06
6.3325735e-05
-3.8138284e-06
6.5194729e-05
-3.7366087e-06
6.702397e-05
-3.6571304e-06
6.8812351e-05
-3.5754438e-06
7.0558796e-05
-3.4916004e-06
7.2262251e-05
-3.4056532e-06
7.392169e-05
-3.3176562e-06
7.5536117e-05
-3.2276648e-06
7.7104563e-05
-3.1357355e-06
7.8626086e-05
-3.0419262e-06
8.0099776e-05
-2.9462955e-06
8.1524751e-05
-2.8489033e-06
8.2900162e-05
-2.7498106e-06
8.4225189e-05
-2.6490793e-06
8.5499042e-05
-2.5467721e-06
8.6720967e-05
-2.4429528e-06
8.7890238e-05
-2.337686e-06
8.9006166e-05
-2.2310372e-06
9.0068091e-05
-2.1230723e-06
9.1075388e-05
-2.0138585e-06
9.2027468e-05
-1.9034631e-06
9.2923772e-05
-1.7919545e-06
9.3763779e-05
-1.6794013e-06
9.4547e-05
-1.5658731e-06
9.5272984e-05
-1.4514395e-06
9.5941312e-05
-1.3361708e-06
9.6551602e-05
-1.2201379e-06
9.7103507e-05
-1.1034116e-06
9.7596716e-05
-9.8606351e-07
9.8030954e-05
-8.6816511e-07
9.8405982e-05
-7.4978832e-07
9.8721597e-05
-6.310052e-07
9.8977631e-05
-5.1188792e-07
9.9173953e-05
-3.9250878e-07
9.9310469e-05
-2.729401e-07
9.938712e-05
-1.5325421e-07
9.9403883e-05
-3.3523404e-08
9.9360772e-05
8.6180065e-08
9.9257838e-05
2.0578429e-07
9.9095164e-05
3.2521737e-07
9.8872874e-05
4.4440747e-07
9.8591124e-05
5.6328321e-07
9.8250107e-05
6.8177348e-07
9.7850052e-05
7.9980752e-07
9.7391221e-05
9.1731492e-07
9.6873913e-05
1.0342257e-06
9.6298462e-05
1.1504704e-06
9.5665234e-05
1.2659799e-06
9.4974633e-05
1.3806859e-06
9.4227093e-05
1.4945204e-06
9.3423085e-05
1.6074161e-06
9.2563111e-05
1.7193065e-06
9.1647708e-05
1.8301257e-06
9.0677442e-05
1.9398084e-06
8.9652916e-05
2.0482903e-06
8.8574762e-05
2.1555077e-06
8.7443644e-05
2.2613979e-06
8.6260255e-05
2.3658989e-06
8.5025323e-05
2.4689497e-06
8.3739601e-05
2.5704902e-06
8.2403876e-05
2.6704614e-06
8.1018961e-05
2.768805e-06
7.9585699e-05
2.8654641e-06
7.8104961e-05
2.9603825e-06
7.6577644e-05
3.0535053e-06
7.5004674e-05
3.1447787e-06
7.3387001e-05
3.2341499e-06
7.1725605e-05
3.3215674e-06
7.0021485e-05
3.4069809e-06
6.8275671e-05
3.4903411e-06
6.6489212e-05
3.5716003e-06
6.4663184e-05
3.6507117e-06
6.2798682e-05
3.72763e-06
6.0896825e-05
3.8023111e-06
5.8958755e-05
3.8747125e-06
5.6985633e-05
3.9447925e-06
5.4978638e-05
4.0125114e-06
5.2938973e-05
4.0778304e-06
5.0867854e-05
4.1407124e-06
4.8766521e-05
4.2011215e-06
4.6636226e-05
4.2590234e-06
4.4478239e-05
4.3143852e-06
4.2293849e-05
4.3671754e-06
4.0084354e-05
4.4173643e-06
3.7851072e-05
4.4649232e-06
3.559533e-05
4.5098252e-06
3.3318471e-05
4.552045e-06
3.1021848e-05
4.5915587e-06
2.8706826e-05
4.6283438e-06
2.6374779e-05
4.6623798e-06
2.4027093e-05
4.6936472e-06
2.1665162e-05
4.7221285e-06
1.9290386e-05
4.7478077e-06
1.6904175e-05
4.7706701e-06
1.4507943e-05
4.790703e-06
1.2103113e-05
4.8078951e-06
9.691109e-06
4.8222366e-06
7.2733616e-06
4.8337196e-06
4.8513037e-06
4.8423374e-06
2.4263708e-06
4.8480854e-06
4.8509601e-06
-2.4292154e-06
7.2801756e-06
-4.8569913e-06
7.2758612e-06
-7.2818888e-06
7.2672349e-06
-9.7024707e-06
7.2543015e-06
-1.2117302e-05
7.2370684e-06
-1.4524952e-05
7.2155451e-06
-1.6923993e-05
7.1897439e-06
-1.9313002e-05
7.1596792e-06
-2.1690563e-05
7.125368e-06
-2.4055264e-05
7.0868297e-06
-2.6405703e-05
7.0440859e-06
-2.8740484e-05
6.9971608e-06
-3.1058221e-05
6.9460809e-06
-3.3357537e-05
6.890875e-06
-3.5637066e-05
6.8315744e-06
-3.7895454e-05
6.7682124e-06
-4.0131355e-05
6.700825e-06
-4.2343441e-05
6.6294502e-06
-4.4530395e-05
6.5541286e-06
-4.6690912e-05
6.4749028e-06
-4.8823707e-05
6.3918177e-06
-5.0927506e-05
6.3049206e-06
-5.3001054e-05
6.2142607e-06
-5.5043113e-05
6.1198897e-06
-5.7052463e-05
6.0218612e-06
-5.9027902e-05
5.9202311e-06
-6.0968247e-05
5.8150573e-06
-6.2872335e-05
5.7063999e-06
-6.4739026e-05
5.5943209e-06
-6.6567199e-05
5.4788846e-06
-6.8355756e-05
5.3601569e-06
-7.0103621e-05
5.2382059e-06
-7.1809741e-05
5.1131016e-06
-7.347309e-05
4.984916e-06
-7.5092663e-05
4.8537228e-06
-7.6667482e-05
4.7195975e-06
-7.8196594e-05
4.5826174e-06
-7.9679073e-05
4.4428618e-06
-8.111402e-05
4.3004114e-06
-8.2500564e-05
4.1553486e-06
-8.383786e-05
4.0077577e-06
-8.5125094e-05
3.8577243e-06
-8.636148e-05
3.7053355e-06
-8.7546261e-05
3.5506802e-06
-8.8678712e-05
3.3938485e-06
-8.9758136e-05
3.2349319e-06
-9.0783869e-05
3.0740235e-06
-9.1755278e-05
2.9112173e-06
-9.2671761e-05
2.7466089e-06
-9.353275e-05
2.580295e-06
-9.4337707e-05
2.4123734e-06
-9.508613e-05
2.2429429e-06
-9.5777548e-05
2.0721037e-06
-9.6411524e-05
1.8999565e-06
-9.6987657e-05
1.7266033e-06
-9.7505578e-05
1.5521468e-06
-9.7964954e-05
1.3766906e-06
-9.8365485e-05
1.200339e-06
-9.8706909e-05
1.0231971e-06
-9.8988996e-05
8.4537035e-07
-9.9211554e-05
6.6696513e-07
-9.9374424e-05
4.8808812e-07
-9.9477487e-05
3.088465e-07
-9.9520654e-05
1.2934792e-07
-9.9503878e-05
-5.029972e-08
-9.9427144e-05
-2.2998833e-07
-9.9290475e-05
-4.0960955e-07
-9.9093928e-05
-5.8905489e-07
-9.8837601e-05
-7.682158e-07
-9.8521622e-05
-9.4698373e-07
-9.814616e-05
-1.1252502e-06
-9.7711418e-05
-1.3029069e-06
-9.7217636e-05
-1.4798457e-06
-9.6665089e-05
-1.6559587e-06
-9.6054089e-05
-1.8311383e-06
-9.5384982e-05
-2.0052776e-06
-9.4658152e-05
-2.1782698e-06
-9.3874016e-05
-2.3500088e-06
-9.3033028e-05
-2.5203891e-06
-9.2135677e-05
-2.6893061e-06
-9.1182484e-05
-2.8566555e-06
-9.0174009e-05
-3.0223341e-06
-8.9110841e-05
-3.1862396e-06
-8.7993608e-05
-3.3482707e-06
-8.6822967e-05
-3.5083268e-06
-8.5599611e-05
-3.6663087e-06
-8.4324265e-05
-3.8221183e-06
-8.2997686e-05
-3.9756585e-06
-8.1620662e-05
-4.1268339e-06
-8.0194016e-05
-4.27555e-06
-7.8718597e-05
-4.4217139e-06
-7.7195289e-05
-4.5652344e-06
-7.5625003e-05
-4.7060215e-06
-7.4008681e-05
-4.8439869e-06
-7.2347293e-05
-4.9790441e-06
-7.0641838e-05
-5.1111082e-06
-6.8893342e-05
-5.240096e-06
-6.710286e-05
-5.3659264e-06
-6.527147e-05
-5.4885201e-06
-6.3400279e-05
-5.6077995e-06
-6.1490418e-05
-5.7236894e-06
-5.9543043e-05
-5.8361164e-06
-5.7559332e-05
-5.9450094e-06
-5.5540487e-05
-6.0502993e-06
-5.3487735e-05
-6.1519194e-06
-5.1402319e-05
-6.2498051e-06
-4.9285508e-05
-6.3438942e-06
-4.7138588e-05
-6.4341269e-06
-4.4962865e-05
-6.5204458e-06
-4.2759664e-05
-6.6027957e-06
-4.0530325e-05
-6.6811244e-06
-3.8276209e-05
-6.7553817e-06
-3.5998688e-05
-6.8255203e-06
-3.3699153e-05
-6.8914954e-06
-3.1379007e-05
-6.9532648e-06
-2.9039665e-05
-7.010789e-06
-2.6682558e-05
-7.0640311e-06
-2.4309126e-05
-7.1129572e-06
-2.1920818e-05
-7.1575359e-06
-1.9519095e-05
-7.1977386e-06
-1.7105426e-05
-7.2335395e-06
-1.4681287e-05
-7.2649157e-06
-1.2248162e-05
-7.2918471e-06
-9.8075397e-06
-7.3143164e-06
-7.3609132e-06
-7.3323092e-06
-4.9097805e-06
-7.3458139e-06
-2.4556419e-06
-7.3548218e-06
-1.2166265e-15
-7.3593272e-06
2.4556419e-06
-7.3593272e-06
4.9097805e-06
-7.3548218e-06
7.3609132e-06
-7.3458139e-06
9.8075397e-06
-7.3323092e-06
1.2248162e-05
-7.3143164e-06
1.4681287e-05
-7.2918471e-06
1.7105426e-05
-7.2649157e-06
1.9519095e-05
-7.2335395e-06
2.1920818e-05
-7.1977386e-06
2.4309126e-05
-7.1575359e-06
2.6682558e-05
-7.1129572e-06
2.9039665e-05
-7.0640311e-06
3.1379007e-05
-7.010789e-06
3.3699153e-05
-6.9532648e-06
3.5998688e-05
-6.8914954e-06
3.8276209e-05
-6.8255203e-06
4.0530325e-05
-6.7553817e-06
4.2759664e-05
-6.6811244e-06
4.4962865e-05
-6.6027957e-06
4.7138588e-05
-6.5204458e-06
4.9285508e-05
-6.4341269e-06
5.1402319e-05
-6.3438942e-06
5.3487735e-05
-6.2498051e-06
5.5540487e-05
-6.1519194e-06
5.7559332e-05
-6.0502993e-06
5.9543043e-05
-5.9450094e-06
6.1490418e-05
-5.8361164e-06
6.3400279e-05
-5.7236894e-06
6.527147e-05
-5.6077995e-06
6.710286e-05
-5.4885201e-06
6.8893342e-05
-5.3659264e-06
7.0641838e-05
-5.240096e-06
7.2347293e-05
-5.1111082e-06
7.4008681e-05
-4.9790441e-06
7.5625003e-05
-4.8439869e-06
7.7195289e-05
-4.7060215e-06
7.8718597e-05
-4.5652344e-06
8.0194016e-05
-4.4217139e-06
8.1620662e-05
-4.27555e-06
8.2997686e-05
-4.1268339e-06
8.4324265e-05
-3.9756585e-06
8.5599611e-05
-3.8221183e-06
8.6822967e-05
-3.6663087e-06
8.7993608e-05
-3.5083268e-06
8.9110841e-05
-3.3482707e-06
9.0174009e-05
-3.1862396e-06
9.1182484e-05
-3.0223341e-06
9.2135677e-05
-2.8566555e-06
9.3033028e-05
-2.6893061e-06
9.3874016e-05
-2.5203891e-06
9.4658152e-05
-2.3500088e-06
9.5384982e-05
-2.1782698e-06
9.6054089e-05
-2.0052776e-06
9.6665089e-05
-1.8311383e-06
9.7217636e-05
-1.6559587e-06
9.7711418e-05
-1.4798457e-06
9.814616e-05
-1.3029069e-06
9.8521622e-05
-1.1252502e-06
9.8837601e-05
-9.4698373e-07
9.9093928e-05
-7.682158e-07
9.9290475e-05
-5.8905489e-07
9.9427144e-05
-4.0960955e-07
9.9503878e-05
-2.2998833e-07
9.9520654e-05
-5.029972e-08
9.9477487e-05
1.2934792e-07
9.9374424e-05
3.088465e-07
9.9211554e-05
4.8808812e-07
9.8988996e-05
6.6696513e-07
9.8706909e-05
8.4537035e-07
9.8365485e-05
1.0231971e-06
9.7964954e-05
1.200339e-06
9.7505578e-05
1.3766906e-06
9.6987657e-05
1.5521468e-06
9.6411524e-05
1.7266033e-06
9.5777548e-05
1.8999565e-06
9.508613e-05
2.0721037e-06
9.4337707e-05
2.2429429e-06
9.353275e-05
2.4123734e-06
9.2671761e-05
2.580295e-06
9.1755278e-05
2.7466089e-06
9.0783869e-05
2.9112173e-06
8.9758136e-05
3.0740235e-06
8.8678712e-05
3.2349319e-06
8.7546261e-05
3.3938485e-06
8.636148e-05
3.5506802e-06
8.5125094e-05
3.7053355e-06
8.383786e-05
3.8577243e-06
8.2500564e-05
4.0077577e-06
8.111402e-05
4.1553486e-06
7.9679073e-05
4.3004114e-06
7.8196594e-05
4.4428618e-06
7.6667482e-05
4.5826174e-06
7.5092663e-05
4.7195975e-06
7.347309e-05
4.8537228e-06
7.1809741e-05
4.984916e-06
7.0103621e-05
5.1131016e-06
6.8355756e-05
5.2382059e-06
6.6567199e-05
5.3601569e-06
6.4739026e-05
5.4788846e-06
6.2872335e-05
5.5943209e-06
6.0968247e-05
5.7063999e-06
5.9027902e-05
5.8150573e-06
5.7052463e-05
5.9202311e-06
5.5043113e-05
6.0218612e-06
5.3001054e-05
6.1198897e-06
5.0927506e-05
6.2142607e-06
4.8823707e-05
6.3049206e-06
4.6690912e-05
6.3918177e-06
4.4530395e-05
6.4749028e-06
4.2343441e-05
6.5541286e-06
4.0131355e-05
6.6294502e-06
3.7895454e-05
6.700825e-06
3.5637066e-05
6.7682124e-06
3.3357537e-05
6.8315744e-06
3.1058221e-05
6.890875e-06
2.8740484e-05
6.9460809e-06
2.6405703e-05
6.9971608e-06
2.4055264e-05
7.0440859e-06
2.1690563e-05
7.0868297e-06
1.9313002e-05
7.125368e-06
1.6923993e-05
7.1596792e-06
1.4524952e-05
7.1897439e-06
1.2117302e-05
7.2155451e-06
9.7024707e-06
7.2370684e-06
7.2818888e-06
7.2543015e-06
4.8569913e-06
7.2672349e-06
2.4292154e-06
7.2758612e-06
7.2801756e-06
-2.4331241e-06
9.7132997e-06
-4.8648063e-06
9.7075434e-06
-7.2936056e-06
9.6960341e-06
-9.7180823e-06
9.6787783e-06
-1.21368e-05
9.6557857e-06
-1.4548324e-05
9.6270691e-06
-1.6951225e-05
9.5926449e-06
-1.9344078e-05
9.5525323e-06
-2.1725464e-05
9.506754e-06
-2.409397e-05
9.4553358e-06
-2.6448191e-05
9.3983067e-06
-2.8786729e-05
9.3356989e-06
-3.1108195e-05
9.2675476e-06
-3.3411212e-05
9.1938914e-06
-3.5694409e-05
9.1147718e-06
-3.7956431e-05
9.0302337e-06
-4.019593e-05
8.9403248e-06
-4.2411576e-05
8.845096e-06
-4.4602049e-05
8.7446012e-06
-4.6766043e-05
8.6388974e-06
-4.890227e-05
8.5280445e-06
-5.1009455e-05
8.4121055e-06
-5.308634e-05
8.2911462e-06
-5.5131686e-05
8.1652355e-06
-5.714427e-05
8.0344449e-06
-5.9122888e-05
7.8988491e-06
-6.1066356e-05
7.7585252e-06
-6.2973509e-05
7.6135535e-06
-6.4843205e-05
7.4640166e-06
-6.6674321e-05
7.3100003e-06
-6.8465757e-05
7.1515926e-06
-7.0216435e-05
6.9888845e-06
-7.1925303e-05
6.8219692e-06
-7.3591329e-05
6.6509426e-06
-7.521351e-05
6.4759033e-06
-7.6790864e-05
6.2969519e-06
-7.8322439e-05
6.1141918e-06
-7.9807305e-05
5.9277284e-06
-8.1244564e-05
5.7376696e-06
-8.263334e-05
5.5441254e-06
-8.3972791e-05
5.3472081e-06
-8.5262098e-05
5.1470319e-06
-8.6500476e-05
4.9437132e-06
-8.7687166e-05
4.7373705e-06
-8.8821442e-05
4.5281239e-06
-8.9902606e-05
4.3160957e-06
-9.0929992e-05
4.1014099e-06
-9.1902967e-05
3.8841922e-06
-9.2820928e-05
3.6645699e-06
-9.3683305e-05
3.442672e-06
-9.4489561e-05
3.2186291e-06
-9.5239191e-05
2.9925731e-06
-9.5931724e-05
2.7646374e-06
-9.6566725e-05
2.5349566e-06
-9.7143788e-05
2.3036668e-06
-9.7662546e-05
2.0709049e-06
-9.8122665e-05
1.8368092e-06
-9.8523845e-05
1.6015188e-06
-9.8865821e-05
1.3651739e-06
-9.9148366e-05
1.1279153e-06
-9.9371286e-05
8.8988488e-07
-9.9534423e-05
6.5122496e-07
-9.9637655e-05
4.1207858e-07
-9.9680896e-05
1.725893e-07
-9.9664097e-05
-6.7098916e-08
-9.9587244e-05
-3.068418e-07
-9.9450359e-05
-5.4649479e-07
-9.92535e-05
-7.8591314e-07
-9.8996764e-05
-1.024952e-06
-9.8680281e-05
-1.2634666e-06
-9.8304219e-05
-1.5013122e-06
-9.7868782e-05
-1.7383443e-06
-9.7374209e-05
-1.9744184e-06
-9.6820777e-05
-2.2093909e-06
-9.6208797e-05
-2.4431182e-06
-9.5538617e-05
-2.6754573e-06
-9.4810621e-05
-2.906266e-06
-9.4025227e-05
-3.1354028e-06
-9.3182889e-05
-3.3627269e-06
-9.2284097e-05
-3.5880984e-06
-9.1329374e-05
-3.8113786e-06
-9.0319278e-05
-4.0324297e-06
-8.9254403e-05
-4.2511151e-06
-8.8135374e-05
-4.4672995e-06
-8.6962852e-05
-4.680849e-06
-8.5737529e-05
-4.8916311e-06
-8.4460133e-05
-5.0995148e-06
-8.3131421e-05
-5.3043708e-06
-8.1752183e-05
-5.5060716e-06
-8.0323242e-05
-5.7044912e-06
-7.884545e-05
-5.8995058e-06
-7.7319691e-05
-6.0909934e-06
-7.5746878e-05
-6.2788341e-06
-7.4127955e-05
-6.4629101e-06
-7.2463893e-05
-6.6431059e-06
-7.0755693e-05
-6.8193082e-06
-6.9004383e-05
-6.9914063e-06
-6.7211018e-05
-7.1592916e-06
-6.5376679e-05
-7.3228584e-06
-6.3502475e-05
-7.4820034e-06
-6.1589539e-05
-7.636626e-06
-5.9639027e-05
-7.7866284e-06
-5.7652121e-05
-7.9319156e-06
-5.5630024e-05
-8.0723956e-06
-5.3573964e-05
-8.2079792e-06
-5.1485189e-05
-8.3385804e-06
-4.9364967e-05
-8.464116e-06
-4.7214588e-05
-8.5845064e-06
-4.5035359e-05
-8.6996749e-06
-4.2828607e-05
-8.809548e-06
-4.0595675e-05
-8.9140558e-06
-3.8337925e-05
-9.0131315e-06
-3.6056734e-05
-9.106712e-06
-3.3753492e-05
-9.1947374e-06
-3.1429605e-05
-9.2771515e-06
-2.9086492e-05
-9.3539015e-06
-2.6725585e-05
-9.4249385e-06
-2.4348325e-05
-9.4902168e-06
-2.1956167e-05
-9.5496947e-06
-1.9550571e-05
-9.603334e-06
-1.713301e-05
-9.6511004e-06
-1.4704963e-05
-9.6929633e-06
-1.2267914e-05
-9.7288958e-06
-9.8233559e-06
-9.7588748e-06
-7.3727839e-06
-9.7828812e-06
-4.9176983e-06
-9.8008994e-06
-2.4596021e-06
-9.812918e-06
-1.2233012e-15
-9.8189293e-06
2.459602e-06
-9.8189293e-06
4.9176983e-06
-9.812918e-06
7.3727839e-06
-9.8008994e-06
9.8233558e-06
-9.7828812e-06
1.2267914e-05
-9.7588748e-06
1.4704963e-05
-9.7288958e-06
1.713301e-05
-9.6929633e-06
1.9550571e-05
-9.6511004e-06
2.1956167e-05
-9.603334e-06
2.4348325e-05
-9.5496947e-06
2.6725585e-05
-9.4902168e-06
2.9086492e-05
-9.4249385e-06
3.1429605e-05
-9.3539015e-06
3.3753492e-05
-9.2771515e-06
3.6056734e-05
-9.1947374e-06
3.8337925e-05
-9.106712e-06
4.0595675e-05
-9.0131315e-06
4.2828607e-05
-8.9140558e-06
4.5035359e-05
-8.809548e-06
4.7214588e-05
-8.6996749e-06
4.9364967e-05
-8.5845064e-06
5.1485189e-05
-8.464116e-06
5.3573964e-05
-8.3385804e-06
5.5630024e-05
-8.2079792e-06
5.7652121e-05
-8.0723956e-06
5.9639027e-05
-7.9319156e-06
6.1589539e-05
-7.7866284e-06
6.3502475e-05
-7.636626e-06
6.5376679e-05
-7.4820034e-06
6.7211018e-05
-7.3228584e-06
6.9004383e-05
-7.1592916e-06
7.0755693e-05
-6.9914063e-06
7.2463893e-05
-6.8193082e-06
7.4127955e-05
-6.6431059e-06
7.5746878e-05
-6.4629101e-06
7.7319691e-05
-6.2788341e-06
7.884545e-05
-6.0909934e-06
8.0323242e-05
-5.8995058e-06
8.1752183e-05
-5.7044912e-06
8.3131421e-05
-5.5060716e-06
8.4460133e-05
-5.3043708e-06
8.5737529e-05
-5.0995148e-06
8.6962852e-05
-4.8916311e-06
8.8135374e-05
-4.680849e-06
8.9254403e-05
-4.4672995e-06
9.0319278e-05
-4.2511151e-06
9.1329374e-05
-4.0324297e-06
9.2284097e-05
-3.8113786e-06
9.3182889e-05
-3.5880984e-06
9.4025227e-05
-3.3627269e-06
9.4810621e-05
-3.1354028e-06
9.5538617e-05
-2.906266e-06
9.6208797e-05
-2.6754573e-06
9.6820777e-05
-2.4431182e-06
9.7374209e-05
-2.2093909e-06
9.7868782e-05
-1.9744184e-06
9.8304219e-05
-1.7383443e-06
9.8680281e-05
-1.5013122e-06
9.8996764e-05
-1.2634666e-06
9.92535e-05
-1.024952e-06
9.9450359e-05
-7.8591314e-07
9.9587244e-05
-5.4649479e-07
9.9664097e-05
-3.068418e-07
9.9680896e-05
-6.7098916e-08
9.9637655e-05
1.725893e-07
9.9534423e-05
4.1207858e-07
9.9371286e-05
6.5122496e-07
9.9148366e-05
8.8988488e-07
9.8865821e-05
1.1279153e-06
9.8523845e-05
1.3651739e-06
9.8122665e-05
1.6015188e-06
9.7662546e-05
1.8368092e-06
9.7143788e-05
2.0709049e-06
9.6566725e-05
2.3036668e-06
9.5931724e-05
2.5349566e-06
9.5239191e-05
2.7646374e-06
9.4489561e-05
2.9925731e-06
9.3683305e-05
3.2186291e-06
9.2820928e-05
3.442672e-06
9.1902967e-05
3.6645699e-06
9.0929992e-05
3.8841922e-06
8.9902606e-05
4.1014099e-06
8.8821442e-05
4.3160957e-06
8.7687166e-05
4.5281239e-06
8.6500476e-05
4.7373705e-06
8.5262098e-05
4.9437132e-06
8.3972791e-05
5.1470319e-06
8.263334e-05
5.3472081e-06
8.1244564e-05
5.5441254e-06
7.9807305e-05
5.7376696e-06
7.8322439e-05
5.9277284e-06
7.6790864e-05
6.1141918e-06
7.521351e-05
6.2969519e-06
7.3591329e-05
6.4759033e-06
7.1925303e-05
6.6509426e-06
7.0216435e-05
6.8219692e-06
6.8465757e-05
6.9888845e-06
6.6674321e-05
7.1515926e-06
6.4843205e-05
7.3100003e-06
6.2973509e-05
7.4640166e-06
6.1066356e-05
7.6135535e-06
5.9122888e-05
7.7585252e-06
5.714427e-05
7.8988491e-06
5.5131686e-05
8.0344449e-06
5.308634e-05
8.1652355e-06
5.1009455e-05
8.2911462e-06
4.890227e-05
8.4121055e-06
4.6766043e-05
8.5280445e-06
4.4602049e-05
8.6388974e-06
4.2411576e-05
8.7446012e-06
4.019593e-05
8.845096e-06
3.7956431e-05
8.9403248e-06
3.5694409e-05
9.0302337e-06
3.3411212e-05
9.1147718e-06