/*--------------------------------*- C++ -*----------------------------------*\
| =========                 |                                                 |
| \\      /  F ield         | OpenFOAM: The Open Source CFD Toolbox           |
|  \\    /   O peration     | Version:  2306                                  |
|   \\  /    A nd           | Website:  www.openfoam.com                      |
|    \\/     M anipulation  |                                                 |
\*---------------------------------------------------------------------------*/
FoamFile
{
    version     2.0;
    format      ascii;
    arch        "LSB;label=32;scalar=64";
    class       surfaceScalarField;
    location    "0.37";
    object      phi_0;
}
// * * * * * * * * * * * * * * * * * * * * * * * * * * * * * * * * * * * * * //

dimensions      [0 3 -1 0 0 0 0];

oriented        oriented;

internalField   nonuniform List<scalar> 
12640
(
-2.853274e-10
-7.6927954e-09
-1.1409461e-09
-2.3069883e-08
-2.564879e-09
-3.8401625e-08
-4.5536777e-09
-5.3655005e-08
-7.1021744e-09
-6.8792546e-08
-1.0203632e-08
-8.3778535e-08
-1.3849683e-08
-9.8578361e-08
-1.8030428e-08
-1.1315804e-07
-2.2734472e-08
-1.2748423e-07
-2.794895e-08
-1.4152463e-07
-3.3659544e-08
-1.5524761e-07
-3.9850635e-08
-1.6862229e-07
-4.6505174e-08
-1.8161884e-07
-5.3604765e-08
-1.942084e-07
-6.1129876e-08
-2.0636301e-07
-6.9059664e-08
-2.1805606e-07
-7.7372333e-08
-2.2926214e-07
-8.6044793e-08
-2.3995675e-07
-9.5053074e-08
-2.5011726e-07
-1.0437226e-07
-2.5972204e-07
-1.1397651e-07
-2.6875113e-07
-1.238392e-07
-2.7718596e-07
-1.3393313e-07
-2.8500941e-07
-1.4423025e-07
-2.9220619e-07
-1.5470211e-07
-2.9876265e-07
-1.6531962e-07
-3.0466686e-07
-1.7605395e-07
-3.0990817e-07
-1.868747e-07
-3.1447807e-07
-1.9775271e-07
-3.1836981e-07
-2.0865793e-07
-3.2157839e-07
-2.1956049e-07
-3.2410073e-07
-2.3043056e-07
-3.2593466e-07
-2.4123878e-07
-3.2708124e-07
-2.5195578e-07
-3.2754209e-07
-2.6255273e-07
-3.2732207e-07
-2.7300122e-07
-3.2642474e-07
-2.8327271e-07
-3.24859e-07
-2.9334056e-07
-3.2263307e-07
-3.0317906e-07
-3.1975789e-07
-3.1276093e-07
-3.1624521e-07
-3.2206195e-07
-3.1210954e-07
-3.3105872e-07
-3.0736455e-07
-3.3972833e-07
-3.0202794e-07
-3.4804909e-07
-2.9611744e-07
-3.559997e-07
-2.8965192e-07
-3.6356137e-07
-2.8265186e-07
-3.7071656e-07
-2.7513849e-07
-3.7744752e-07
-2.6713484e-07
-3.8373889e-07
-2.5866406e-07
-3.8957705e-07
-2.4975016e-07
-3.9494878e-07
-2.4041861e-07
-3.9984337e-07
-2.3069515e-07
-4.042503e-07
-2.2060647e-07
-4.0816185e-07
-2.1017862e-07
-4.115705e-07
-1.9944019e-07
-4.1447109e-07
-1.8841732e-07
-4.168595e-07
-1.7713894e-07
-4.1873288e-07
-1.6563259e-07
-4.2008933e-07
-1.5392729e-07
-4.2093056e-07
-1.4204947e-07
-4.2125765e-07
-1.3002836e-07
-4.2107262e-07
-1.1789216e-07
-4.2037964e-07
-1.0566673e-07
-4.1918548e-07
-9.3380252e-08
-4.1749485e-07
-8.1061181e-08
-4.1531699e-07
-6.8731869e-08
-4.1265985e-07
-5.642201e-08
-4.0953536e-07
-4.4154079e-08
-4.0594904e-07
-3.1953124e-08
-4.019206e-07
-1.9844067e-08
-3.974597e-07
-7.8487871e-09
-3.9257819e-07
4.0066079e-09
-3.8729249e-07
1.5706944e-08
-3.8161678e-07
2.7228094e-08
-3.7556673e-07
3.8551341e-08
-3.6916181e-07
4.9659252e-08
-3.624177e-07
6.0532551e-08
-3.5535085e-07
7.1153647e-08
-3.4797942e-07
8.1510302e-08
9.1585031e-08
-2.7370939e-10
-7.4190883e-09
-1.0944887e-09
-2.2249099e-08
-2.4604602e-09
-3.7035646e-08
-4.3683053e-09
-5.1747159e-08
-6.8131294e-09
-6.6347716e-08
-9.7884403e-09
-8.0803224e-08
-1.3286248e-08
-9.5080549e-08
-1.7297159e-08
-1.0914713e-07
-2.1810249e-08
-1.2297113e-07
-2.6813242e-08
-1.3652163e-07
-3.2292523e-08
-1.4976834e-07
-3.823307e-08
-1.6268173e-07
-4.4618698e-08
-1.7523323e-07
-5.1431804e-08
-1.8739533e-07
-5.8653742e-08
-1.9914107e-07
-6.626482e-08
-2.1044501e-07
-7.4244001e-08
-2.2128292e-07
-8.2569365e-08
-2.3163139e-07
-9.1218044e-08
-2.4146862e-07
-1.0016622e-07
-2.5077385e-07
-1.0938933e-07
-2.5952802e-07
-1.1886195e-07
-2.6771341e-07
-1.2855804e-07
-2.7531327e-07
-1.3845093e-07
-2.8231328e-07
-1.4851362e-07
-2.8870006e-07
-1.5871847e-07
-2.9446196e-07
-1.690372e-07
-2.9958943e-07
-1.7944208e-07
-3.040732e-07
-1.8990439e-07
-3.0790746e-07
-2.0039554e-07
-3.1108724e-07
-2.1088763e-07
-3.1360868e-07
-2.2135152e-07
-3.1547074e-07
-2.3175951e-07
-3.1667329e-07
-2.4208337e-07
-3.1721827e-07
-2.5229606e-07
-3.1710941e-07
-2.6236978e-07
-3.163511e-07
-2.7227766e-07
-3.1495103e-07
-2.8199443e-07
-3.1291627e-07
-2.9149449e-07
-3.1025787e-07
-3.0075307e-07
-3.0698668e-07
-3.097466e-07
-3.0311591e-07
-3.1845236e-07
-2.9865885e-07
-3.2684805e-07
-2.9363223e-07
-3.3491316e-07
-2.8805218e-07
-3.4262831e-07
-2.8193689e-07
-3.4997394e-07
-2.7530599e-07
-3.5693312e-07
-2.6817925e-07
-3.6349008e-07
-2.6057791e-07
-3.6962805e-07
-2.5252601e-07
-3.7533609e-07
-2.4404217e-07
-3.806001e-07
-2.351546e-07
-3.854095e-07
-2.2588581e-07
-3.897544e-07
-2.1626154e-07
-3.9362659e-07
-2.0630636e-07
-3.9701903e-07
-1.9604777e-07
-3.9992696e-07
-1.8550941e-07
-4.0234578e-07
-1.7472043e-07
-4.0427182e-07
-1.6370651e-07
-4.0570536e-07
-1.524936e-07
-4.0664501e-07
-1.4110984e-07
-4.0709184e-07
-1.2958175e-07
-4.0704822e-07
-1.1793557e-07
-4.0651859e-07
-1.0619678e-07
-4.0550652e-07
-9.439203e-08
-4.0401988e-07
-8.2547878e-08
-4.0206502e-07
-7.0686926e-08
-3.9964968e-07
-5.8837199e-08
-3.9678291e-07
-4.702083e-08
-3.9347512e-07
-3.5261068e-08
-3.8973805e-07
-2.3581061e-08
-3.8558291e-07
-1.2003839e-08
-3.8102544e-07
-5.5086593e-10
-3.7607524e-07
1.0756479e-08
-3.7074878e-07
2.1901833e-08
-3.6506083e-07
3.2863521e-08
-3.5902677e-07
4.3625385e-08
-3.5266278e-07
5.4168351e-08
-3.4598631e-07
6.4477241e-08
-3.3901253e-07
7.4536536e-08
8.4331738e-08
-2.6259284e-10
-7.1564959e-09
-1.05004e-09
-2.146165e-08
-2.3605449e-09
-3.5725148e-08
-4.190929e-09
-4.9916768e-08
-6.5365212e-09
-6.4002144e-08
-9.3911136e-09
-7.7948629e-08
-1.2747106e-08
-9.1724549e-08
-1.659545e-08
-1.0529879e-07
-2.0925845e-08
-1.1864076e-07
-2.5726456e-08
-1.3172098e-07
-3.098436e-08
-1.4451046e-07
-3.6685213e-08
-1.5698087e-07
-4.2813391e-08
-1.6910504e-07
-4.9352439e-08
-1.8085632e-07
-5.6284313e-08
-1.9220912e-07
-6.3590272e-08
-2.0313904e-07
-7.1250308e-08
-2.1362291e-07
-7.9243417e-08
-2.2363825e-07
-8.7547818e-08
-2.3316423e-07
-9.6140837e-08
-2.4218087e-07
-1.0499897e-07
-2.5066983e-07
-1.1409816e-07
-2.5861419e-07
-1.2341339e-07
-2.6599806e-07
-1.329193e-07
-2.7280737e-07
-1.4258993e-07
-2.7902944e-07
-1.523989e-07
-2.8465292e-07
-1.623202e-07
-2.896682e-07
-1.7232595e-07
-2.9406737e-07
-1.8238967e-07
-2.978438e-07
-1.9248409e-07
-3.009928e-07
-2.025818e-07
-3.0351093e-07
-2.1265602e-07
-3.0539657e-07
-2.2267962e-07
-3.0664971e-07
-2.3262592e-07
-3.0727197e-07
-2.4246895e-07
-3.0726642e-07
-2.5218205e-07
-3.0663796e-07
-2.6174048e-07
-3.0539263e-07
-2.7111868e-07
-3.0353806e-07
-2.8029287e-07
-3.0108371e-07
-2.8923961e-07
-2.9804001e-07
-2.9793601e-07
-2.9441944e-07
-3.063599e-07
-2.9023501e-07
-3.1449075e-07
-2.8550137e-07
-3.2230834e-07
-2.8023468e-07
-3.2979366e-07
-2.7445154e-07
-3.3692885e-07
-2.6817095e-07
-3.4369665e-07
-2.6141149e-07
-3.5008196e-07
-2.541927e-07
-3.5607133e-07
-2.4653674e-07
-3.6164932e-07
-2.3846419e-07
-3.6680501e-07
-2.2999904e-07
-3.7152804e-07
-2.2116258e-07
-3.7580885e-07
-2.1198093e-07
-3.7963743e-07
-2.0247759e-07
-3.8301054e-07
-1.9267462e-07
-3.859203e-07
-1.8259966e-07
-3.8836209e-07
-1.7227844e-07
-3.9033431e-07
-1.6173424e-07
-3.9183471e-07
-1.5099331e-07
-3.9286189e-07
-1.4008275e-07
-3.9341811e-07
-1.2902551e-07
-3.9350536e-07
-1.1784813e-07
-3.9312616e-07
-1.0657604e-07
-3.9228426e-07
-9.5234173e-08
-3.9098757e-07
-8.3844518e-08
-3.8923914e-07
-7.2435302e-08
-3.8704923e-07
-6.1027081e-08
-3.8442581e-07
-4.9644338e-08
-3.8137752e-07
-3.8309353e-08
-3.779158e-07
-2.7042669e-08
-3.7405065e-07
-1.5869002e-08
-3.6979606e-07
-4.8054482e-09
-3.6516461e-07
6.1250941e-09
-3.6016743e-07
1.6904646e-08
-3.5482084e-07
2.7516676e-08
-3.4913849e-07
3.7943061e-08
-3.4313662e-07
4.8166452e-08
-3.3683004e-07
5.8170839e-08
-3.3023512e-07
6.7941673e-08
7.7465335e-08
-2.5195261e-10
-6.9045419e-09
-1.0074995e-09
-2.0706106e-08
-2.2649057e-09
-3.446774e-08
-4.0211564e-09
-4.8160519e-08
-6.2717731e-09
-6.1751524e-08
-9.0108423e-09
-7.520956e-08
-1.223112e-08
-8.8504259e-08
-1.5924043e-08
-1.0160585e-07
-2.0079519e-08
-1.144853e-07
-2.4686437e-08
-1.2711408e-07
-2.973244e-08
-1.3946443e-07
-3.5203736e-08
-1.5150956e-07
-4.1085775e-08
-1.6322304e-07
-4.7362478e-08
-1.7457959e-07
-5.4016738e-08
-1.8555488e-07
-6.1030604e-08
-1.9612523e-07
-6.8385068e-08
-2.0626846e-07
-7.6060155e-08
-2.159632e-07
-8.4034905e-08
-2.2518944e-07
-9.2287879e-08
-2.3392786e-07
-1.0079656e-07
-2.421612e-07
-1.0953795e-07
-2.4987278e-07
-1.1848834e-07
-2.5704771e-07
-1.2762333e-07
-2.636723e-07
-1.3691857e-07
-2.6973417e-07
-1.4634875e-07
-2.7522275e-07
-1.5588836e-07
-2.8012864e-07
-1.655117e-07
-2.8444407e-07
-1.7519308e-07
-2.8816242e-07
-1.8490661e-07
-2.9127928e-07
-1.9462632e-07
-2.937912e-07
-2.0432631e-07
-2.9569663e-07
-2.1398075e-07
-2.969953e-07
-2.2356422e-07
-2.9768837e-07
-2.3305184e-07
-2.9777891e-07
-2.4241865e-07
-2.9727103e-07
-2.516398e-07
-2.9617153e-07
-2.6069203e-07
-2.9448579e-07
-2.6955255e-07
-2.9222315e-07
-2.781981e-07
-2.8939449e-07
-2.8660739e-07
-2.8601019e-07
-2.9475886e-07
-2.8208339e-07
-3.0263291e-07
-2.7762745e-07
-3.1021024e-07
-2.7265736e-07
-3.174724e-07
-2.671893e-07
-3.2440218e-07
-2.6124109e-07
-3.3098408e-07
-2.5482968e-07
-3.3720182e-07
-2.4797488e-07
-3.4304239e-07
-2.406961e-07
-3.4849222e-07
-2.3301438e-07
-3.5354063e-07
-2.2495055e-07
-3.5817559e-07
-2.1652761e-07
-3.6238968e-07
-2.0776681e-07
-3.661747e-07
-1.986925e-07
-3.6952265e-07
-1.8932695e-07
-3.7242833e-07
-1.7969405e-07
-3.7488766e-07
-1.6981905e-07
-3.7689839e-07
-1.5972356e-07
-3.7845727e-07
-1.4943437e-07
-3.7956542e-07
-1.389746e-07
-3.8022161e-07
-1.2836943e-07
-3.8042687e-07
-1.1764278e-07
-3.8018652e-07
-1.0681638e-07
-3.7950279e-07
-9.5917715e-08
-3.7838031e-07
-8.4967031e-08
-3.7682727e-07
-7.398823e-08
-3.7484836e-07
-6.3005835e-08
-3.7245206e-07
-5.2040562e-08
-3.696475e-07
-4.1113775e-08
-3.6644303e-07
-3.0247257e-08
-3.6285124e-07
-1.9460772e-08
-3.5888539e-07
-8.7712074e-09
-3.5455196e-07
1.791796e-09
-3.4986626e-07
1.2218935e-08
-3.4484204e-07
2.2492573e-08
-3.3949288e-07
3.2593892e-08
-3.3383244e-07
4.2506118e-08
-3.2787703e-07
5.2215185e-08
-3.2164208e-07
6.1706956e-08
7.0966212e-08
-2.4176825e-10
-6.6627751e-09
-9.6677183e-10
-1.9981107e-08
-2.1733686e-09
-3.3261136e-08
-3.8586752e-09
-4.64752e-08
-6.0183968e-09
-5.9591815e-08
-8.6469113e-09
-7.2581047e-08
-1.1737284e-08
-8.5413897e-08
-1.5281288e-08
-9.8061861e-08
-1.9269468e-08
-1.1049712e-07
-2.369099e-08
-1.2269256e-07
-2.8534212e-08
-1.3462122e-07
-3.3785853e-08
-1.4625793e-07
-3.9432106e-08
-1.5757677e-07
-4.5457622e-08
-1.6855409e-07
-5.1846233e-08
-1.7916623e-07
-5.8580355e-08
-1.8939113e-07
-6.5642271e-08
-1.9920651e-07
-7.301274e-08
-2.0859273e-07
-8.067214e-08
-2.1753007e-07
-8.8599468e-08
-2.2600046e-07
-9.6773304e-08
-2.3398741e-07
-1.0517211e-07
-2.4147402e-07
-1.1377313e-07
-2.4844673e-07
-1.225527e-07
-2.5489272e-07
-1.3148809e-07
-2.6079883e-07
-1.4055488e-07
-2.66156e-07
-1.4972887e-07
-2.709546e-07
-1.5898547e-07
-2.7518748e-07
-1.6830033e-07
-2.7884751e-07
-1.7764839e-07
-2.8193119e-07
-1.8700496e-07
-2.8443463e-07
-1.9634556e-07
-2.8635602e-07
-2.0564512e-07
-2.8769576e-07
-2.1488013e-07
-2.8845344e-07
-2.2402599e-07
-2.8863308e-07
-2.3305891e-07
-2.8823816e-07
-2.4195658e-07
-2.872739e-07
-2.5069517e-07
-2.8574718e-07
-2.5925258e-07
-2.8366577e-07
-2.6760759e-07
-2.8103953e-07
-2.7573916e-07
-2.7787855e-07
-2.8362727e-07
-2.7419533e-07
-2.9125273e-07
-2.7000191e-07
-2.9859677e-07
-2.6531331e-07
-3.0564204e-07
-2.6014394e-07
-3.1237229e-07
-2.5451084e-07
-3.1877166e-07
-2.484304e-07
-3.248251e-07
-2.4192128e-07
-3.3051977e-07
-2.3500139e-07
-3.35843e-07
-2.276911e-07
-3.4078337e-07
-2.2001031e-07
-3.4533148e-07
-2.1197945e-07
-3.494775e-07
-2.036207e-07
-3.5321363e-07
-1.9495634e-07
-3.5653356e-07
-1.8600702e-07
-3.5943023e-07
-1.7679727e-07
-3.6190256e-07
-1.6734682e-07
-3.639451e-07
-1.5768115e-07
-3.6555584e-07
-1.4782356e-07
-3.6673333e-07
-1.3779713e-07
-3.6748002e-07
-1.2762264e-07
-3.6779606e-07
-1.1732678e-07
-3.6768289e-07
-1.069295e-07
-3.6714475e-07
-9.6455868e-08
-3.661864e-07
-8.5925423e-08
-3.6481305e-07
-7.5361724e-08
-3.6303071e-07
-6.478822e-08
-3.6084775e-07
-5.4223797e-08
-3.5827153e-07
-4.3689838e-08
-3.5531109e-07
-3.3207815e-08
-3.5197578e-07
-2.2795931e-08
-3.4827782e-07
-1.2469255e-08
-3.4422713e-07
-2.2591274e-09
-3.3983752e-07
7.8294094e-09
-3.3511893e-07
1.7773769e-08
-3.3008519e-07
2.7560245e-08
-3.2475127e-07
3.7171972e-08
-3.1912926e-07
4.6593271e-08
-3.1323452e-07
5.5812031e-08
6.4814708e-08
-2.32021e-10
-6.4307521e-09
-9.2779194e-10
-1.9285333e-08
-2.0857486e-09
-3.2103182e-08
-3.7031507e-09
-4.485781e-08
-5.7758399e-09
-5.7519115e-08
-8.2985369e-09
-7.005836e-08
-1.1264546e-08
-8.2447873e-08
-1.4666007e-08
-9.4660413e-08
-1.8493909e-08
-1.0666922e-07
-2.2738127e-08
-1.1844835e-07
-2.7387081e-08
-1.2997225e-07
-3.2428749e-08
-1.4121625e-07
-3.78492e-08
-1.5215631e-07
-4.3634158e-08
-1.627691e-07
-4.9768107e-08
-1.7303234e-07
-5.6234782e-08
-1.8292441e-07
-6.3016491e-08
-1.924248e-07
-7.0095374e-08
-2.0151385e-07
-7.7452321e-08
-2.1017315e-07
-8.5067632e-08
-2.183852e-07
-9.2921291e-08
-2.2613374e-07
-1.0099178e-07
-2.3340358e-07
-1.0925756e-07
-2.4018083e-07
-1.1769722e-07
-2.4645304e-07
-1.2628739e-07
-2.5220862e-07
-1.3500578e-07
-2.5743756e-07
-1.4382922e-07
-2.6213119e-07
-1.5273407e-07
-2.6628251e-07
-1.6169707e-07
-2.6988462e-07
-1.7069438e-07
-2.7293387e-07
-1.7970227e-07
-2.7542673e-07
-1.8869756e-07
-2.7736066e-07
-1.9765716e-07
-2.7873621e-07
-2.0655682e-07
-2.7955374e-07
-2.1537403e-07
-2.798159e-07
-2.2408617e-07
-2.7952599e-07
-2.3267109e-07
-2.7868901e-07
-2.4110701e-07
-2.773112e-07
-2.4937247e-07
-2.7540026e-07
-2.5744707e-07
-2.7296489e-07
-2.6531096e-07
-2.7001475e-07
-2.7294369e-07
-2.6656253e-07
-2.8032836e-07
-2.6261729e-07
-2.8744603e-07
-2.5819569e-07
-2.94281e-07
-2.5330889e-07
-3.0081652e-07
-2.4797537e-07
-3.0703753e-07
-2.4220927e-07
-3.1293018e-07
-2.3602861e-07
-3.1848171e-07
-2.2944995e-07
-3.2367981e-07
-2.2249294e-07
-3.2851318e-07
-2.1517682e-07
-3.3297262e-07
-2.0752014e-07
-3.370488e-07
-1.9954452e-07
-3.4073487e-07
-1.9127031e-07
-3.4402206e-07
-1.8271988e-07
-3.4690866e-07
-1.739107e-07
-3.4938716e-07
-1.6486848e-07
-3.5145474e-07
-1.5561337e-07
-3.5310916e-07
-1.4616928e-07
-3.543512e-07
-1.3655498e-07
-3.5517815e-07
-1.2679582e-07
-3.5559367e-07
-1.1691128e-07
-3.555976e-07
-1.0692554e-07
-3.5519552e-07
-9.6857944e-08
-3.5438896e-07
-8.6732019e-08
-3.5318334e-07
-7.6567451e-08
-3.5158547e-07
-6.6385803e-08
-3.4960161e-07
-5.6207699e-08
-3.4723994e-07
-4.6051625e-08
-3.4450797e-07
-3.593986e-08
-3.4141532e-07
-2.5888629e-08
-3.3796939e-07
-1.591511e-08
-3.341881e-07
-6.0403692e-09
-3.3007485e-07
3.7161672e-09
-3.2564521e-07
1.3344125e-08
-3.2091068e-07
2.2825722e-08
-3.1588351e-07
3.2144887e-08
-3.1057869e-07
4.1288633e-08
-3.0500819e-07
5.0241647e-08
5.8993196e-08
-2.2269255e-10
-6.2080605e-09
-8.9049118e-10
-1.8617532e-08
-2.0018787e-09
-3.0991792e-08
-3.5542441e-09
-4.3305445e-08
-5.5437133e-09
-5.5529637e-08
-7.9650514e-09
-6.7637017e-08
-1.0812014e-08
-7.9600922e-08
-1.4077049e-08
-9.1395346e-08
-1.7751565e-08
-1.0299472e-07
-2.182583e-08
-1.143741e-07
-2.6288983e-08
-1.2550909e-07
-3.1129234e-08
-1.3637605e-07
-3.6333672e-08
-1.4695186e-07
-4.1888344e-08
-1.5721445e-07
-4.7778651e-08
-1.67142e-07
-5.3988768e-08
-1.7671432e-07
-6.0502351e-08
-1.8591126e-07
-6.7301978e-08
-1.9471422e-07
-7.4369261e-08
-2.0310586e-07
-8.1685864e-08
-2.1106855e-07
-8.9232193e-08
-2.185874e-07
-9.698814e-08
-2.2564763e-07
-1.0493311e-07
-2.3223594e-07
-1.1304618e-07
-2.3833998e-07
-1.2130581e-07
-2.43949e-07
-1.2969013e-07
-2.4905319e-07
-1.3817718e-07
-2.5364423e-07
-1.4674467e-07
-2.5771504e-07
-1.5536976e-07
-2.6125951e-07
-1.6403053e-07
-2.6427303e-07
-1.7270436e-07
-2.6675292e-07
-1.8136811e-07
-2.6869694e-07
-1.8999987e-07
-2.7010438e-07
-1.9857707e-07
-2.7097653e-07
-2.0707838e-07
-2.7131463e-07
-2.1548173e-07
-2.7112257e-07
-2.2376587e-07
-2.7040492e-07
-2.3190986e-07
-2.6916718e-07
-2.3989364e-07
-2.6741655e-07
-2.4769735e-07
-2.6516108e-07
-2.5530169e-07
-2.624105e-07
-2.6268917e-07
-2.5917504e-07
-2.6983945e-07
-2.5546682e-07
-2.767386e-07
-2.512965e-07
-2.8336835e-07
-2.4667928e-07
-2.8971434e-07
-2.4162935e-07
-2.9576145e-07
-2.3616217e-07
-3.0149703e-07
-2.3029303e-07
-3.0690762e-07
-2.2403928e-07
-3.1198145e-07
-2.1741922e-07
-3.1670928e-07
-2.1044904e-07
-3.2107985e-07
-2.0314938e-07
-3.2508521e-07
-1.9553931e-07
-3.2871763e-07
-1.8763767e-07
-3.3197222e-07
-1.7946549e-07
-3.3484146e-07
-1.7104138e-07
-3.3732168e-07
-1.6238805e-07
-3.3940938e-07
-1.5352579e-07
-3.4110295e-07
-1.4447562e-07
-3.4239973e-07
-1.3525823e-07
-3.4330102e-07
-1.2589432e-07
-3.4380675e-07
-1.1640592e-07
-3.4391903e-07
-1.0681318e-07
-3.4364032e-07
-9.7136748e-08
-3.4297417e-07
-8.7398112e-08
-3.4192521e-07
-7.7616271e-08
-3.4049872e-07
-6.7812594e-08
-3.3870184e-07
-5.8004634e-08
-3.3654032e-07
-4.8213067e-08
-3.3402334e-07
-3.8456787e-08
-3.3115838e-07
-2.8753467e-08
-3.2795419e-07
-1.911928e-08
-3.2442146e-07
-9.5731121e-09
-3.2057176e-07
-1.3336202e-10
-3.1641553e-07
9.1878879e-09
-3.1196354e-07
1.8373684e-08
-3.0722863e-07
2.7409937e-08
-3.0222265e-07
3.6282599e-08
-2.9695976e-07
4.4978765e-08
5.3485608e-08
-2.1375617e-10
-5.9943044e-09
-8.5476606e-10
-1.7976521e-08
-1.9215844e-09
-2.9924976e-08
-3.4117039e-09
-4.181532e-08
-5.3213972e-09
-5.3619947e-08
-7.6457089e-09
-6.5312712e-08
-1.0378675e-08
-7.6867947e-08
-1.3513136e-08
-8.8260914e-08
-1.7040761e-08
-9.946706e-08
-2.0952308e-08
-1.1046257e-07
-2.5237517e-08
-1.2122387e-07
-2.9884815e-08
-1.3172875e-07
-3.4882292e-08
-1.4195438e-07
-4.0216602e-08
-1.5188015e-07
-4.5873521e-08
-1.6148508e-07
-5.1838203e-08
-1.7074963e-07
-5.8094727e-08
-1.7965466e-07
-6.4626584e-08
-1.8818234e-07
-7.1416826e-08
-1.9631563e-07
-7.8446996e-08
-2.0403837e-07
-8.5698908e-08
-2.113356e-07
-9.3153317e-08
-2.1819315e-07
-1.0079064e-07
-2.245986e-07
-1.0859074e-07
-2.3053982e-07
-1.1653336e-07
-2.3600651e-07
-1.2459733e-07
-2.4098909e-07
-1.3276178e-07
-2.4547977e-07
-1.4100549e-07
-2.4947124e-07
-1.4930651e-07
-2.529585e-07
-1.5764419e-07
-2.5593547e-07
-1.6599621e-07
-2.5840082e-07
-1.7434146e-07
-2.6035164e-07
-1.8265847e-07
-2.6178746e-07
-1.9092583e-07
-2.6270909e-07
-1.991229e-07
-2.6311762e-07
-2.0722899e-07
-2.6301655e-07
-2.1522339e-07
-2.624105e-07
-2.2308635e-07
-2.6130421e-07
-2.3079831e-07
-2.5970465e-07
-2.3834045e-07
-2.5761906e-07
-2.4569445e-07
-2.5505644e-07
-2.5284253e-07
-2.5202695e-07
-2.5976824e-07
-2.4854119e-07
-2.6645406e-07
-2.4461085e-07
-2.728848e-07
-2.4024844e-07
-2.7904621e-07
-2.3546782e-07
-2.8492385e-07
-2.3028452e-07
-2.905048e-07
-2.2471209e-07
-2.9577707e-07
-2.1876719e-07
-3.0072928e-07
-2.124668e-07
-3.053507e-07
-2.0582767e-07
-3.0963253e-07
-1.9886755e-07
-3.1356644e-07
-1.9160513e-07
-3.1714494e-07
-1.8405913e-07
-3.2036142e-07
-1.7624903e-07
-3.2321084e-07
-1.6819208e-07
-3.2568817e-07
-1.5991066e-07
-3.2779016e-07
-1.5142377e-07
-3.2951566e-07
-1.4275024e-07
-3.3086252e-07
-1.3391136e-07
-3.318298e-07
-1.2492705e-07
-3.3241795e-07
-1.1581749e-07
-3.3262894e-07
-1.0660218e-07
-3.3246478e-07
-9.7300828e-08
-3.3192904e-07
-8.7933779e-08
-3.3102596e-07
-7.8519594e-08
-3.2976011e-07
-6.907825e-08
-3.2813661e-07
-5.9627891e-08
-3.2616321e-07
-5.0186386e-08
-3.2384711e-07
-4.077298e-08
-3.2119619e-07
-3.1404401e-08
-3.1821831e-07
-2.2097244e-08
-3.1492306e-07
-1.2868399e-08
-3.1132175e-07
-3.7345454e-09
-3.0742297e-07
5.2890971e-09
-3.0323858e-07
1.4189222e-08
-2.9878004e-07
2.2951517e-08
-2.9405888e-07
3.1561659e-08
-2.8908734e-07
4.0007002e-08
4.8276454e-08
-2.0520092e-10
-5.7891029e-09
-8.2055144e-10
-1.7361172e-08
-1.8446784e-09
-2.8900851e-08
-3.2751731e-09
-4.0384826e-08
-5.1085028e-09
-5.1786626e-08
-7.3399604e-09
-6.3081235e-08
-9.9637664e-09
-7.4244171e-08
-1.2973088e-08
-8.5251598e-08
-1.6360064e-08
-9.6080089e-08
-2.0115846e-08
-1.0670679e-07
-2.4230478e-08
-1.1710926e-07
-2.8693415e-08
-1.2726578e-07
-3.3492591e-08
-1.3715523e-07
-3.86156e-08
-1.4675709e-07
-4.4048973e-08
-1.5605174e-07
-4.9778342e-08
-1.6502025e-07
-5.5788697e-08
-1.7364432e-07
-6.2064232e-08
-1.8190685e-07
-6.8588523e-08
-1.8979132e-07
-7.5344286e-08
-1.972826e-07
-8.2314105e-08
-2.0436574e-07
-8.947958e-08
-2.1102771e-07
-9.6821979e-08
-2.1725615e-07
-1.043221e-07
-2.2303979e-07
-1.1196038e-07
-2.2836819e-07
-1.1971706e-07
-2.3323243e-07
-1.2757192e-07
-2.3762493e-07
-1.3550463e-07
-2.4153861e-07
-1.4349521e-07
-2.4496784e-07
-1.5152222e-07
-2.4790845e-07
-1.595656e-07
-2.5035749e-07
-1.6760431e-07
-2.5231296e-07
-1.7561899e-07
-2.5377283e-07
-1.8358817e-07
-2.5473991e-07
-1.9149267e-07
-2.5521301e-07
-1.9931231e-07
-2.5519694e-07
-2.0702767e-07
-2.5469512e-07
-2.1461931e-07
-2.5371247e-07
-2.2206936e-07
-2.5225473e-07
-2.2935922e-07
-2.5032914e-07
-2.3647138e-07
-2.4794438e-07
-2.4338795e-07
-2.4511024e-07
-2.5009453e-07
-2.4183458e-07
-2.5657387e-07
-2.3813152e-07
-2.6281151e-07
-2.3401074e-07
-2.687929e-07
-2.2948659e-07
-2.7450526e-07
-2.2457214e-07
-2.7993501e-07
-2.1928229e-07
-2.8507149e-07
-2.1363061e-07
-2.8990339e-07
-2.0763517e-07
-2.9442044e-07
-2.0131045e-07
-2.9861286e-07
-1.9467516e-07
-3.0247489e-07
-1.8774324e-07
-3.0599697e-07
-1.8053719e-07
-3.0917417e-07
-1.7307158e-07
-3.1200005e-07
-1.6536608e-07
-3.1447111e-07
-1.574398e-07
-3.1658389e-07
-1.4931093e-07
-3.1833549e-07
-1.4099853e-07
-3.1972422e-07
-1.3252274e-07
-3.2074977e-07
-1.2390139e-07
-3.2141294e-07
-1.151542e-07
-3.2171399e-07
-1.0630142e-07
-3.2165538e-07
-9.7359279e-08
-3.2123991e-07
-8.8349262e-08
-3.2047093e-07
-7.9288454e-08
-3.1935439e-07
-7.0194915e-08
-3.1789499e-07
-6.1087413e-08
-3.1609775e-07
-5.1983677e-08
-3.1397078e-07
-4.2900009e-08
-3.1152088e-07
-3.3854096e-08
-3.0875545e-07
-2.4862562e-08
-3.0568524e-07
-1.5938561e-08
-3.0231711e-07
-7.1025287e-09
-2.9866245e-07
1.634275e-09
-2.94731e-07
1.0257686e-08
-2.9053351e-07
1.875404e-08
-2.8608112e-07
2.7109398e-08
-2.813869e-07
3.5312456e-08
4.3350699e-08
-1.9700839e-10
-5.5920941e-09
-7.8779757e-10
-1.6770383e-08
-1.7710565e-09
-2.7917592e-08
-3.1444657e-09
-3.9011406e-08
-4.9046666e-09
-5.0026425e-08
-7.0471259e-09
-6.0938775e-08
-9.5663942e-09
-7.1724887e-08
-1.2455894e-08
-8.2362102e-08
-1.5708143e-08
-9.2827836e-08
-1.9314699e-08
-1.0310023e-07
-2.326608e-08
-1.1315788e-07
-2.7552074e-08
-1.2297979e-07
-3.2161436e-08
-1.3254591e-07
-3.7082096e-08
-1.4183643e-07
-4.2301199e-08
-1.5083262e-07
-4.7805208e-08
-1.5951628e-07
-5.3579649e-08
-1.6786989e-07
-5.9609487e-08
-1.7587703e-07
-6.5878999e-08
-1.8352182e-07
-7.2371896e-08
-1.9078971e-07
-7.9071248e-08
-1.976664e-07
-8.5959594e-08
-2.041393e-07
-9.3019189e-08
-2.101966e-07
-1.0023146e-07
-2.1582746e-07
-1.0757809e-07
-2.2102152e-07
-1.1503991e-07
-2.2577062e-07
-1.2259765e-07
-2.3006723e-07
-1.302318e-07
-2.3390444e-07
-1.379234e-07
-2.3727626e-07
-1.4565233e-07
-2.4017944e-07
-1.53399e-07
-2.4261089e-07
-1.6114411e-07
-2.445678e-07
-1.6886731e-07
-2.4604966e-07
-1.7655042e-07
-2.4705683e-07
-1.8417282e-07
-2.4759063e-07
-1.9171643e-07
-2.476533e-07
-1.9916289e-07
-2.4724867e-07
-2.064929e-07
-2.4638243e-07
-2.1368993e-07
-2.4505758e-07
-2.2073582e-07
-2.4328331e-07
-2.2761362e-07
-2.4106657e-07
-2.3430804e-07
-2.3841589e-07
-2.4080178e-07
-2.3534082e-07
-2.470807e-07
-2.3185249e-07
-2.5313031e-07
-2.2796128e-07
-2.5893672e-07
-2.2368012e-07
-2.6448744e-07
-2.1902141e-07
-2.6976985e-07
-2.1399986e-07
-2.7477264e-07
-2.0862793e-07
-2.7948573e-07
-2.02922e-07
-2.8389886e-07
-1.9689738e-07
-2.8800397e-07
-1.9056985e-07
-2.9179199e-07
-1.8395529e-07
-2.9525698e-07
-1.7707221e-07
-2.9839188e-07
-1.6993673e-07
-3.0119171e-07
-1.6256632e-07
-3.0365264e-07
-1.5497872e-07
-3.0577052e-07
-1.4719324e-07
-3.0754276e-07
-1.39226e-07
-3.08969e-07
-1.3109654e-07
-3.1004722e-07
-1.2282326e-07
-3.1077701e-07
-1.144246e-07
-3.1116087e-07
-1.0591742e-07
-3.111995e-07
-9.7320627e-08
-3.1089555e-07
-8.8653277e-08
-3.1025317e-07
-7.9930818e-08
-3.0927542e-07
-7.1172532e-08
-3.0796763e-07
-6.2395221e-08
-3.0633519e-07
-5.3616087e-08
-3.0438491e-07
-4.4850178e-08
-3.0212383e-07
-3.6115289e-08
-2.9955961e-07
-2.7426851e-08
-2.9669855e-07
-1.8799728e-08
-2.9355155e-07
-1.0249565e-08
-2.901282e-07
-1.7890897e-09
-2.8643629e-07
6.5658412e-09
-2.8248699e-07
1.4804748e-08
-2.7829072e-07
2.2913145e-08
-2.7385768e-07
3.0879681e-08
3.8693338e-08
-1.8916187e-10
-5.4029314e-09
-7.5641716e-10
-1.6203128e-08
-1.7005087e-09
-2.69735e-08
-3.019245e-09
-3.7692662e-08
-4.7093838e-09
-4.8336302e-08
-6.7666689e-09
-5.8881502e-08
-9.1857571e-09
-6.9305798e-08
-1.196052e-08
-7.9587355e-08
-1.5083699e-08
-8.9704659e-08
-1.8547289e-08
-9.9636646e-08
-2.2342261e-08
-1.0936292e-07
-2.6458777e-08
-1.1886325e-07
-3.0886186e-08
-1.2811847e-07
-3.5612961e-08
-1.3710964e-07
-4.062681e-08
-1.4581877e-07
-4.5914785e-08
-1.5422827e-07
-5.1463143e-08
-1.623215e-07
-5.7257522e-08
-1.700826e-07
-6.3282839e-08
-1.7749651e-07
-6.952365e-08
-1.8454888e-07
-7.5963602e-08
-1.912264e-07
-8.2586245e-08
-1.9751666e-07
-8.9374454e-08
-2.0340837e-07
-9.6310882e-08
-2.0889107e-07
-1.0337743e-07
-2.1395497e-07
-1.1055608e-07
-2.1859188e-07
-1.178289e-07
-2.2279447e-07
-1.251771e-07
-2.2655628e-07
-1.3258151e-07
-2.298718e-07
-1.4002388e-07
-2.3273719e-07
-1.4748545e-07
-2.3514926e-07
-1.5494751e-07
-2.3710577e-07
-1.6239086e-07
-2.3860632e-07
-1.6979771e-07
-2.3964994e-07
-1.7714911e-07
-2.4023929e-07
-1.8442724e-07
-2.4037516e-07
-1.9161398e-07
-2.4006183e-07
-1.9869303e-07
-2.393034e-07
-2.0564517e-07
-2.3810546e-07
-2.1245547e-07
-2.3647303e-07
-2.1910725e-07
-2.3441469e-07
-2.2558487e-07
-2.319383e-07
-2.3187304e-07
-2.2905265e-07
-2.3795785e-07
-2.2576776e-07
-2.4382466e-07
-2.2209435e-07
-2.4946087e-07
-2.1804403e-07
-2.5485348e-07
-2.1362875e-07
-2.5999164e-07
-2.0886167e-07
-2.6486387e-07
-2.0375566e-07
-2.6945976e-07
-1.9832608e-07
-2.7377003e-07
-1.9258706e-07
-2.7778666e-07
-1.8655335e-07
-2.8150133e-07
-1.8024044e-07
-2.8490726e-07
-1.7366633e-07
-2.8799857e-07
-1.6684541e-07
-2.9077007e-07
-1.5979483e-07
-2.9321667e-07
-1.5253206e-07
-2.9533665e-07
-1.4507327e-07
-2.9712608e-07
-1.3743668e-07
-2.9858313e-07
-1.2963956e-07
-2.997059e-07
-1.2170037e-07
-3.0049778e-07
-1.1363257e-07
-3.009556e-07
-1.0545951e-07
-3.0108292e-07
-9.7193567e-08
-3.0088273e-07
-8.885343e-08
-3.0035615e-07
-8.0457618e-08
-2.9950783e-07
-7.2020765e-08
-2.9834221e-07
-6.3560931e-08
-2.9686391e-07
-5.5094429e-08
-2.9508019e-07
-4.6633789e-08
-2.9299673e-07
-3.819882e-08
-2.9061986e-07
-2.9803652e-08
-2.879575e-07
-2.146219e-08
-2.8501912e-07
-1.3188067e-08
-2.8181312e-07
-4.994899e-09
-2.7834795e-07
3.1005369e-09
-2.7463338e-07
1.1090225e-08
-2.7067799e-07
1.8957908e-08
-2.6649534e-07
2.669672e-08
3.4291398e-08
-1.8164485e-10
-5.2212858e-09
-7.2636502e-10
-1.5658411e-08
-1.632953e-09
-2.6066915e-08
-2.8993093e-09
-3.6426316e-08
-4.522323e-09
-4.6713279e-08
-6.4979345e-09
-5.6905894e-08
-8.8210786e-09
-6.6982629e-08
-1.1485881e-08
-7.6922577e-08
-1.4485448e-08
-8.6705084e-08
-1.7812049e-08
-9.6310039e-08
-2.1457169e-08
-1.0571781e-07
-2.5411326e-08
-1.1490907e-07
-2.9664392e-08
-1.2386543e-07
-3.4205336e-08
-1.3256868e-07
-3.902254e-08
-1.410016e-07
-4.4103467e-08
-1.4914733e-07
-4.9435112e-08
-1.5698987e-07
-5.5003778e-08
-1.64514e-07
-6.0794929e-08
-1.7170535e-07
-6.6793935e-08
-1.7854986e-07
-7.298524e-08
-1.8503513e-07
-7.9352992e-08
-1.9114894e-07
-8.5880949e-08
-1.9688042e-07
-9.2552417e-08
-2.0221959e-07
-9.9350491e-08
-2.0715698e-07
-1.0625762e-07
-2.1168477e-07
-1.1325652e-07
-2.157955e-07
-1.2032929e-07
-2.1948355e-07
-1.2745831e-07
-2.2274276e-07
-1.3462555e-07
-2.2556995e-07
-1.4181307e-07
-2.2796176e-07
-1.4900271e-07
-2.2991608e-07
-1.5617732e-07
-2.3143179e-07
-1.6331813e-07
-2.3250903e-07
-1.7040866e-07
-2.3314876e-07
-1.7743086e-07
-2.3335309e-07
-1.8436775e-07
-2.3312487e-07
-1.9120298e-07
-2.3246831e-07
-1.9792024e-07
-2.3138816e-07
-2.045026e-07
-2.2989077e-07
-2.1093562e-07
-2.2798169e-07
-2.1720379e-07
-2.2567003e-07
-2.2329271e-07
-2.2296375e-07
-2.2918856e-07
-2.1987177e-07
-2.34878e-07
-2.1640493e-07
-2.4034842e-07
-2.1257351e-07
-2.4558685e-07
-2.0839043e-07
-2.5058392e-07
-2.0386451e-07
-2.553277e-07
-1.9901198e-07
-2.5980839e-07
-1.9384536e-07
-2.6401751e-07
-1.8837802e-07
-2.6794597e-07
-1.8262496e-07
-2.7158646e-07
-1.7660009e-07
-2.7493249e-07
-1.703202e-07
-2.7797868e-07
-1.6379926e-07
-2.807194e-07
-1.5705417e-07
-2.8314965e-07
-1.5010167e-07
-2.8526674e-07
-1.429563e-07
-2.8706728e-07
-1.3563615e-07
-2.8855075e-07
-1.281561e-07
-2.8971583e-07
-1.205355e-07
-2.9056044e-07
-1.1278802e-07
-2.9108781e-07
-1.0493225e-07
-2.9129604e-07
-9.6985026e-08
-2.9119002e-07
-8.8959536e-08
-2.9077078e-07
-8.0876746e-08
-2.900427e-07
-7.2748926e-08
-2.8900955e-07
-6.4593985e-08
-2.8767608e-07
-5.6427745e-08
-2.8604755e-07
-4.826243e-08
-2.8413044e-07
-4.0115794e-08
-2.8193073e-07
-3.2003235e-08
-2.7945665e-07
-2.3936208e-08
-2.7671375e-07
-1.593074e-08
-2.7371337e-07
-7.9956291e-09
-2.7046135e-07
-1.5141331e-10
-2.6696695e-07
7.5957302e-09
-2.6324382e-07
1.5234822e-08
-2.5929548e-07
2.2748254e-08
3.0132577e-08
-1.7444434e-10
-5.0468429e-09
-6.9756471e-10
-1.5135288e-08
-1.5682097e-09
-2.5196269e-08
-2.7843634e-09
-3.5210151e-08
-4.3430961e-09
-4.5154532e-08
-6.2404531e-09
-5.5008532e-08
-8.4717013e-09
-6.4751387e-08
-1.103112e-08
-7.4363148e-08
-1.3912187e-08
-8.3824018e-08
-1.7107556e-08
-9.311467e-08
-2.0609047e-08
-1.0221633e-07
-2.4407605e-08
-1.1111052e-07
-2.8493598e-08
-1.1977945e-07
-3.2856466e-08
-1.2820579e-07
-3.748504e-08
-1.3637302e-07
-4.2367499e-08
-1.4426488e-07
-4.7491358e-08
-1.5186601e-07
-5.284349e-08
-1.5916184e-07
-5.8410369e-08
-1.6613847e-07
-6.4177439e-08
-1.7278274e-07
-7.013011e-08
-1.7908247e-07
-7.6253454e-08
-1.8502556e-07
-8.2531764e-08
-1.9060206e-07
-8.8948869e-08
-1.9580247e-07
-9.5489035e-08