/*--------------------------------*- C++ -*----------------------------------*\
| =========                 |                                                 |
| \\      /  F ield         | OpenFOAM: The Open Source CFD Toolbox           |
|  \\    /   O peration     | Version:  2306                                  |
|   \\  /    A nd           | Website:  www.openfoam.com                      |
|    \\/     M anipulation  |                                                 |
\*---------------------------------------------------------------------------*/
FoamFile
{
    version     2.0;
    format      ascii;
    arch        "LSB;label=32;scalar=64";
    class       surfaceScalarField;
    location    "0.6";
    object      phi;
}
// * * * * * * * * * * * * * * * * * * * * * * * * * * * * * * * * * * * * * //

dimensions      [0 3 -1 0 0 0 0];

oriented        oriented;

internalField   nonuniform List<scalar> 
12640
(
-8.9607223e-06
1.4630649e-05
-8.3878323e-06
1.4491142e-05
-7.8456656e-06
1.4339553e-05
-7.3332273e-06
1.4177859e-05
-6.8494288e-06
1.4007896e-05
-6.3931105e-06
1.3831355e-05
-5.9630573e-06
1.3649776e-05
-5.5580161e-06
1.3464554e-05
-5.1767133e-06
1.3276938e-05
-4.8178682e-06
1.3088035e-05
-4.4802081e-06
1.2898817e-05
-4.1624797e-06
1.2710124e-05
-3.8634597e-06
1.2522673e-05
-3.5819676e-06
1.2337066e-05
-3.3168654e-06
1.2153804e-05
-3.0670715e-06
1.1973283e-05
-2.8315644e-06
1.179582e-05
-2.6093849e-06
1.1621649e-05
-2.3996275e-06
1.1450931e-05
-2.2014705e-06
1.1283786e-05
-2.0141465e-06
1.1120266e-05
-1.8369553e-06
1.096039e-05
-1.6692454e-06
1.0804135e-05
-1.5104482e-06
1.0651469e-05
-1.3600359e-06
1.0502323e-05
-1.2175395e-06
1.0356625e-05
-1.0825328e-06
1.0214282e-05
-9.5464387e-07
1.0075219e-05
-8.3353177e-07
9.9393321e-06
-7.1889653e-07
9.8065404e-06
-6.1047058e-07
9.6767643e-06
-5.0801591e-07
9.5499299e-06
-4.1131509e-07
9.4259687e-06
-3.2017687e-07
9.3048293e-06
-2.3443009e-07
9.1864679e-06
-1.5390393e-07
9.0708395e-06
-7.8443049e-08
8.9579238e-06
-7.9276673e-09
8.8477187e-06
5.7780368e-08
8.740205e-06
1.1880412e-07
8.6353919e-06
1.7526316e-07
8.5332914e-06
2.2727558e-07
8.4339207e-06
2.7495128e-07
8.3373136e-06
3.184052e-07
8.2434927e-06
3.5774792e-07
8.1524991e-06
3.9309039e-07
8.0643743e-06
4.2454197e-07
7.9791642e-06
4.5221294e-07
7.8969147e-06
4.7621408e-07
7.8176773e-06
4.9665636e-07
7.7415027e-06
5.1365022e-07
7.6684439e-06
5.2730717e-07
7.5985555e-06
5.3773894e-07
7.5318907e-06
5.4505686e-07
7.4685041e-06
5.4937231e-07
7.4084508e-06
5.5079713e-07
7.351784e-06
5.4944262e-07
7.2985585e-06
5.4541977e-07
7.248827e-06
5.388388e-07
7.2026435e-06
5.2981042e-07
7.1600596e-06
5.1844408e-07
7.1211269e-06
5.0484851e-07
7.0858974e-06
4.8913223e-07
7.0544219e-06
4.7140336e-07
7.0267507e-06
4.517688e-07
7.0029337e-06
4.303353e-07
6.9830219e-06
4.0720842e-07
6.9670639e-06
3.8249357e-07
6.9551095e-06
3.5629639e-07
6.9472091e-06
3.2872072e-07
6.9434128e-06
2.9987059e-07
6.9437689e-06
2.6985006e-07
6.9483275e-06
2.3876302e-07
6.9571354e-06
2.06713e-07
6.970238e-06
1.738042e-07
6.9876693e-06
1.4014182e-07
7.0094486e-06
1.0582882e-07
7.0355639e-06
7.0969111e-08
7.065953e-06
3.5661096e-08
7.1004803e-06
7.1391098e-06
-9.2806177e-06
1.4036515e-05
-8.7159063e-06
1.3926431e-05
-8.1798968e-06
1.3803543e-05
-7.67176e-06
1.3669722e-05
-7.1905763e-06
1.3526712e-05
-6.7353509e-06
1.337613e-05
-6.3050325e-06
1.3219458e-05
-5.8985276e-06
1.3058049e-05
-5.5147135e-06
1.2893124e-05
-5.1524578e-06
1.272578e-05
-4.8106248e-06
1.2556984e-05
-4.4880897e-06
1.2387589e-05
-4.1837493e-06
1.2218332e-05
-3.8965295e-06
1.2049847e-05
-3.6253936e-06
1.1882668e-05
-3.3693472e-06
1.1717237e-05
-3.1274468e-06
1.1553919e-05
-2.8987972e-06
1.1392999e-05
-2.6825628e-06
1.1234697e-05
-2.4779562e-06
1.1079179e-05
-2.2842543e-06
1.0926563e-05
-2.1007837e-06
1.0776919e-05
-1.9269327e-06
1.0630284e-05
-1.7621345e-06
1.0486671e-05
-1.6058789e-06
1.0346068e-05
-1.4576935e-06
1.020844e-05
-1.3171695e-06
1.0073758e-05
-1.1839106e-06
9.9419599e-06
-1.0575885e-06
9.8130098e-06
-9.3789228e-07
9.6868442e-06
-8.245433e-07
9.5634154e-06
-7.1729004e-07
9.4426766e-06
-6.1590841e-07
9.3245873e-06
-5.2019228e-07
9.2091132e-06
-4.2994762e-07
9.096223e-06
-3.4500852e-07
8.9859006e-06
-2.6521644e-07
8.8781317e-06
-1.904184e-07
8.7729207e-06
-1.2047273e-07
8.6702592e-06
-5.5246282e-08
8.5701654e-06
5.3906253e-09
8.4726546e-06
6.1563383e-08
8.3777479e-06
1.1337633e-07
8.2855007e-06
1.6096337e-07
8.1959057e-06
2.0443707e-07
8.1090255e-06
2.4391097e-07
8.0249005e-06
2.7949923e-07
7.9435759e-06
3.1131443e-07
7.8650996e-06
3.3947058e-07
7.7895213e-06
3.6407951e-07
7.716894e-06
3.8525328e-07
7.6472701e-06
4.0310478e-07
7.5807036e-06
4.1774646e-07
7.517249e-06
4.2928958e-07
7.4569612e-06
4.378461e-07
7.3998941e-06
4.4352775e-07
7.3461022e-06
4.464461e-07
7.2956402e-06
4.4671206e-07
7.2485611e-06
4.444366e-07
7.204919e-06
4.3972877e-07
7.1647672e-06
4.3269869e-07
7.1281571e-06
4.2345527e-07
7.0951409e-06
4.121067e-07
7.0657701e-06
3.9876137e-07
7.0400962e-06
3.8352568e-07
7.0181693e-06
3.6650732e-07
7.0000402e-06
3.4781211e-07
6.9857592e-06
3.2754589e-07
6.9753759e-06
3.058134e-07
6.9689415e-06
2.8272112e-07
6.9665052e-06
2.5837269e-07
6.9681173e-06
2.3287347e-07
6.9738268e-06
2.0632707e-07
6.9836816e-06
1.7883945e-07
6.9977257e-06
1.5051569e-07
7.0159933e-06
1.2146049e-07
7.0385035e-06
9.1779033e-08
7.0652452e-06
6.1575841e-08
7.0961561e-06
3.0951052e-08
7.1311051e-06
7.1700608e-06
-9.5638567e-06
1.3453797e-05
-9.008484e-06
1.3371058e-05
-8.4798803e-06
1.327494e-05
-7.9773655e-06
1.3167207e-05
-7.5001696e-06
1.3049516e-05
-7.0474481e-06
1.2923408e-05
-6.6182971e-06
1.2790307e-05
-6.2117673e-06
1.2651519e-05
-5.8268775e-06
1.2508234e-05
-5.4626268e-06
1.2361529e-05
-5.1180072e-06
1.2212365e-05
-4.7920143e-06
1.2061596e-05
-4.4836552e-06
1.1909973e-05
-4.1919582e-06
1.175815e-05
-3.9159802e-06
1.160669e-05
-3.6548124e-06
1.1456069e-05
-3.4075815e-06
1.1306688e-05
-3.1734643e-06
1.1158882e-05
-2.9516772e-06
1.1012909e-05
-2.7414865e-06
1.0868989e-05
-2.5422047e-06
1.0727282e-05
-2.3531978e-06
1.0587912e-05
-2.1738724e-06
1.0450959e-05
-2.0036874e-06
1.0316486e-05
-1.8421428e-06
1.0184523e-05
-1.6887867e-06
1.0055084e-05
-1.5431971e-06
9.9281685e-06
-1.4050045e-06
9.8037672e-06
-1.2738608e-06
9.681866e-06
-1.1494526e-06
9.5624363e-06
-1.0314984e-06
9.4454613e-06
-9.1974031e-07
9.3309185e-06
-8.1394267e-07
9.2187896e-06
-7.1389191e-07
9.1090623e-06
-6.1939253e-07
9.0017235e-06
-5.3026077e-07
8.8967687e-06
-4.4632886e-07
8.7941998e-06
-3.6742824e-07
8.6940203e-06
-2.9342354e-07
8.5962546e-06
-2.2416894e-07
8.5009106e-06
-1.5952937e-07
8.408015e-06
-9.9384509e-08
8.3176029e-06
-4.3565532e-08
8.2296817e-06
8.0076783e-09
8.1443326e-06
5.5463583e-08
8.0615694e-06
9.8922084e-08
7.981442e-06
1.3850005e-07
7.9039981e-06
1.7431585e-07
7.8292837e-06
2.0648379e-07
7.7573535e-06
2.3511792e-07
7.6882597e-06
2.6033202e-07
7.6220561e-06
2.8224006e-07
7.5587955e-06
3.0095498e-07
7.4985342e-06
3.165879e-07
7.4413283e-06
3.2925073e-07
7.3872313e-06
3.390568e-07
7.336296e-06
3.4611718e-07
7.2885798e-06
3.5054291e-07
7.2441354e-06
3.5244386e-07
7.2030179e-06
3.5193041e-07
7.1652806e-06
3.4911171e-07
7.1309758e-06
3.4409703e-07
7.1001557e-06
3.3699429e-07
7.0728729e-06
3.2791177e-07
7.0491787e-06
3.1695637e-07
7.0291246e-06
3.0423572e-07
7.012761e-06
2.8985601e-07
7.0001391e-06
2.7392274e-07
6.991309e-06
2.5654249e-07
6.9863217e-06
2.3782046e-07
6.9852272e-06
2.17862e-07
6.9880757e-06
1.9677285e-07
6.9949163e-06
1.7465777e-07
7.0057965e-06
1.5162283e-07
7.0207607e-06
1.2777389e-07
7.0398422e-06
1.0321675e-07
7.0630607e-06
7.8057929e-08
7.0904043e-06
5.2401983e-08
7.121812e-06
2.635077e-08
7.1571563e-06
7.1964117e-06
-9.8126517e-06
1.2883383e-05
-9.2676067e-06
1.2826013e-05
-8.7474857e-06
1.2754818e-05
-8.2517415e-06
1.2671463e-05
-7.7797386e-06
1.2577514e-05
-7.3307672e-06
1.2474436e-05
-6.9040568e-06
1.2363596e-05
-6.4987896e-06
1.2246252e-05
-6.1141119e-06
1.2123557e-05
-5.7491456e-06
1.1996563e-05
-5.4029998e-06
1.1866219e-05
-5.0747792e-06
1.1733375e-05
-4.7635956e-06
1.159879e-05
-4.4685738e-06
1.1463128e-05
-4.1888575e-06
1.1326973e-05
-3.923618e-06
1.119083e-05
-3.6720584e-06
1.1055129e-05
-3.4334109e-06
1.0920234e-05
-3.2069541e-06
1.0786453e-05
-2.992002e-06
1.0654036e-05
-2.7879098e-06
1.0523189e-05
-2.5940697e-06
1.0394072e-05
-2.4099276e-06
1.0266817e-05
-2.23496e-06
1.0141518e-05
-2.0686854e-06
1.0018249e-05
-1.9106619e-06
9.89706e-06
-1.760483e-06
9.7779896e-06
-1.6177768e-06
9.6610611e-06
-1.4821933e-06
9.5462825e-06
-1.3534298e-06
9.4336726e-06
-1.2311975e-06
9.3232291e-06
-1.1152346e-06
9.2149556e-06
-1.0053017e-06
9.1088567e-06
-9.0117525e-07
9.0049358e-06
-8.0265296e-07
8.9032013e-06
-7.0954642e-07
8.8036623e-06
-6.2167734e-07
8.7063306e-06
-5.3888311e-07
8.6112261e-06
-4.6100899e-07
8.5183805e-06
-3.8790127e-07
8.4278029e-06
-3.1942355e-07
8.3395373e-06
-2.5543408e-07
8.2536132e-06
-1.9581902e-07
8.1700666e-06
-1.4043094e-07
8.0889445e-06
-8.9153413e-08
8.010292e-06
-4.1861219e-08
7.9341499e-06
1.5631207e-09
7.8605737e-06
4.1235222e-08
7.7896117e-06
7.727161e-08
7.7213172e-06
1.0978888e-07
7.6557424e-06
1.3890157e-07
7.5929434e-06
1.6472703e-07
7.5329702e-06
1.8737873e-07
7.4758824e-06
2.0696532e-07
7.4217417e-06
2.235997e-07
7.3705969e-06
2.3739716e-07
7.3224987e-06
2.4846887e-07
7.2775082e-06
2.5692404e-07
7.2356801e-06
2.6287377e-07
7.1970684e-06
2.6642806e-07
7.1617262e-06
2.676958e-07
7.1297078e-06
2.6678617e-07
7.1010654e-06
2.6380731e-07
7.0758518e-06
2.5886723e-07
7.0541185e-06
2.5207325e-07
7.0359187e-06
2.4353238e-07
7.0213018e-06
2.3335113e-07
7.0103202e-06
2.2163593e-07
7.003024e-06
2.0849326e-07
6.9994645e-06
1.9402836e-07
6.999692e-06
1.7834748e-07
7.0037566e-06
1.615563e-07
7.0117076e-06
1.4376112e-07
7.0235919e-06
1.2506839e-07
7.0394534e-06
1.0558403e-07
7.0593265e-06
8.5415174e-08
7.0832295e-06
6.4668901e-08
7.1111504e-06
4.3450342e-08
7.1430305e-06
2.1861531e-08
7.1787451e-06
7.2182731e-06
-1.0029123e-05
1.2326005e-05
-9.4952403e-06
1.2292131e-05
-8.9845235e-06
1.2244102e-05
-8.4965429e-06
1.2183482e-05
-8.0307838e-06
1.2111755e-05
-7.5866583e-06
1.2030311e-05
-7.1635165e-06
1.1940455e-05
-6.7606591e-06
1.1843394e-05
-6.3773485e-06
1.1740246e-05
-6.0128186e-06
1.1632033e-05
-5.6662864e-06
1.1519687e-05
-5.3369594e-06
1.1404048e-05
-5.0240449e-06
1.1285875e-05
-4.7267569e-06
1.116584e-05
-4.4443227e-06
1.1044539e-05
-4.175989e-06
1.0922496e-05
-3.9210261e-06
1.0800166e-05
-3.6787335e-06
1.0677941e-05
-3.4484394e-06
1.0556159e-05
-3.229506e-06
1.0435103e-05
-3.0213299e-06
1.0315013e-05
-2.8233461e-06
1.0196088e-05
-2.6350196e-06
1.007849e-05
-2.455856e-06
9.9623545e-06
-2.2853925e-06
9.8477854e-06
-2.1232026e-06
9.7348703e-06
-1.9688898e-06
9.6236766e-06
-1.8220891e-06
9.5142603e-06
-1.682466e-06
9.4066594e-06
-1.5497072e-06
9.3009136e-06
-1.4235285e-06
9.1970504e-06
-1.3036676e-06
9.0950945e-06
-1.1898816e-06
8.9950708e-06
-1.0819449e-06
8.8969989e-06
-9.7964785e-07
8.8009043e-06
-8.8279919e-07
8.7068135e-06
-7.9121901e-07
8.6147504e-06
-7.0473735e-07
8.5247443e-06
-6.2317783e-07
8.436821e-06
-5.464073e-07
8.3510324e-06
-4.7427138e-07
8.2674014e-06
-4.066314e-07
8.1859733e-06
-3.4335484e-07
8.10679e-06
-2.8430983e-07
8.0298994e-06
-2.2936556e-07
7.9553478e-06
-1.7840164e-07
7.8831858e-06
-1.312927e-07
7.8134648e-06
-8.7918065e-08
7.7462371e-06
-4.816183e-08
7.6815608e-06
-1.1905859e-08
7.6194864e-06
2.0970705e-08
7.5600668e-06
5.057551e-08
7.5033653e-06
7.7030374e-08
7.4494276e-06
1.0043335e-07
7.3983386e-06
1.2090167e-07
7.3501287e-06
1.3855965e-07
7.3048407e-06
1.5351049e-07
7.2625571e-06
1.6586612e-07
7.2233246e-06
1.7573652e-07
7.1871979e-06
1.832323e-07
7.1542304e-06
1.8846146e-07
7.1244785e-06
1.9153375e-07
7.0979932e-06
1.9255664e-07
7.0748287e-06
1.9163821e-07
7.055037e-06
1.8888633e-07
7.0386706e-06
1.8440695e-07
7.0257812e-06
1.783079e-07
7.0164194e-06
1.7069494e-07
7.010637e-06
1.6167456e-07
7.0084847e-06
1.5135301e-07
7.0100136e-06
1.3983703e-07
7.0152727e-06
1.2723198e-07
7.0243126e-06
1.1364477e-07
7.0371791e-06
9.9182085e-08
7.0539161e-06
8.3951297e-08
7.0745573e-06
6.8059756e-08
7.0991211e-06
5.1614841e-08
7.1275953e-06
3.4722118e-08
7.159923e-06
1.7484728e-08
7.1959824e-06
7.2357578e-06
-1.0215298e-05
1.178226e-05
-9.6932741e-06
1.1770107e-05
-9.192742e-06
1.174357e-05
-8.7133782e-06
1.1704119e-05
-8.2547754e-06
1.1653152e-05
-7.8164549e-06
1.159199e-05
-7.397875e-06
1.1521875e-05
-6.9984448e-06
1.1443964e-05
-6.6175324e-06
1.1359334e-05
-6.2544745e-06
1.1268975e-05
-5.9085861e-06
1.1173798e-05
-5.5791695e-06
1.1074632e-05
-5.2655208e-06
1.0972226e-05
-4.9669378e-06
1.0867257e-05
-4.6827253e-06
1.0760327e-05
-4.4122022e-06
1.0651973e-05
-4.1547047e-06
1.0542668e-05
-3.90959e-06
1.0432827e-05
-3.6762408e-06
1.032281e-05
-3.4540661e-06
1.0212928e-05
-3.242505e-06
1.0103452e-05
-3.0410228e-06
9.9946061e-06
-2.8491218e-06
9.886589e-06
-2.6663281e-06
9.779561e-06
-2.4922032e-06
9.6736605e-06
-2.3263367e-06
9.5690036e-06
-2.1683467e-06
9.4656867e-06
-2.0178735e-06
9.3637872e-06
-1.8745936e-06
9.2633794e-06
-1.7382002e-06
9.1645201e-06
-1.6084095e-06
9.0672598e-06
-1.4849601e-06
8.9716452e-06
-1.3676078e-06
8.8777186e-06
-1.2561281e-06
8.7855193e-06
-1.1503107e-06
8.695087e-06
-1.0499559e-06
8.6064586e-06
-9.5488037e-07
8.5196748e-06
-8.6490973e-07
8.4347737e-06
-7.7988392e-07
8.3517952e-06
-6.9964172e-07
8.2707901e-06
-6.2403379e-07
8.1917934e-06
-5.5291782e-07
8.1148576e-06
-4.8615677e-07
8.040029e-06
-4.2361692e-07
7.9673595e-06
-3.6516774e-07
7.8968985e-06
-3.1068159e-07
7.8286998e-06
-2.6003615e-07
7.7628192e-06
-2.1310742e-07
7.6993084e-06
-1.697825e-07
7.638236e-06
-1.2993417e-07
7.5796381e-06
-9.3451839e-08
7.5235846e-06
-6.0219109e-08
7.4701325e-06
-3.013269e-08
7.4193411e-06
-3.0409916e-09
7.371247e-06
2.1157969e-08
7.3259297e-06
4.2550396e-08
7.2834484e-06
6.1250125e-08
7.2438574e-06
7.7377442e-08
7.2071971e-06
9.1039736e-08
7.1735354e-06
1.0235128e-07
7.142919e-06
1.114166e-07
7.115413e-06
1.1834708e-07
7.0910624e-06
1.2325003e-07
7.069926e-06
1.2623235e-07
7.0520546e-06
1.2740261e-07
7.0375006e-06
1.2686751e-07
7.026316e-06
1.2473323e-07
7.0185538e-06
1.2110691e-07
7.0142636e-06
1.1609402e-07
7.0134974e-06
1.0980192e-07
7.0163056e-06
1.0233636e-07
7.0227384e-06
9.3804683e-08
7.0328442e-06
8.4312868e-08
7.0466708e-06
7.3968546e-08
7.0642603e-06
6.2879437e-08
7.0856466e-06
5.115331e-08
7.1108472e-06
3.8897437e-08
7.1398511e-06
2.6219348e-08
7.1726013e-06
1.3220856e-08
7.208981e-06
7.2489786e-06
-1.0373116e-05
1.1252626e-05
-9.8635217e-06
1.1260513e-05
-9.3738285e-06
1.1253876e-05
-8.9038068e-06
1.1234097e-05
-8.4531458e-06
1.1202491e-05
-8.0214637e-06
1.1160308e-05
-7.6083184e-06
1.1108729e-05
-7.2132153e-06
1.1048861e-05
-6.8356183e-06
1.0981737e-05
-6.4749581e-06
1.0908315e-05
-6.1306403e-06
1.0829481e-05
-5.8020539e-06
1.0746045e-05
-5.4885776e-06
1.065875e-05
-5.1895869e-06
1.0568266e-05
-4.9044602e-06
1.04752e-05
-4.6325832e-06
1.0380096e-05
-4.3733539e-06
1.0283439e-05
-4.1261872e-06
1.018566e-05
-3.8905158e-06
1.0087138e-05
-3.6657954e-06
9.9882081e-06
-3.4515043e-06
9.8891608e-06
-3.247147e-06
9.7902489e-06
-3.0522523e-06
9.6916942e-06
-2.8663761e-06
9.5936846e-06
-2.6891003e-06
9.4963848e-06
-2.5200329e-06
9.3999362e-06
-2.3588043e-06
9.3044581e-06
-2.2050772e-06
9.2100601e-06
-2.0585264e-06
9.1168286e-06
-1.9188538e-06
9.0248477e-06
-1.7857839e-06
8.9341897e-06
-1.6590562e-06
8.8449178e-06
-1.5384304e-06
8.7570928e-06
-1.4236805e-06
8.6707695e-06
-1.3145939e-06
8.5860004e-06
-1.210974e-06
8.5028388e-06
-1.1126344e-06
8.4213352e-06
-1.0193995e-06
8.3415387e-06
-9.31104e-07
8.2634996e-06
-8.4758084e-07
8.1872669e-06
-7.6868806e-07
8.1129008e-06
-6.9427577e-07
8.0404454e-06
-6.2420516e-07
7.9699585e-06
-5.583384e-07
7.9014926e-06
-4.9654648e-07
7.8351066e-06
-4.3869856e-07
7.7708519e-06
-3.846778e-07
7.7087983e-06
-3.3435497e-07
7.6489856e-06
-2.8758921e-07
7.5914702e-06
-2.442944e-07
7.5363432e-06
-2.043398e-07
7.4836299e-06
-1.6760809e-07
7.4334009e-06
-1.3398192e-07
7.3857148e-06
-1.0335276e-07
7.340618e-06
-7.5614608e-08
7.2981916e-06
-5.0646454e-08
7.2584801e-06
-2.8320467e-08
7.2215315e-06
-8.5491278e-09
7.1874258e-06
8.7846087e-09
7.1562019e-06
2.3790637e-08
7.1279131e-06
3.6565276e-08
7.1026386e-06
4.723261e-08
7.0803952e-06
5.5892659e-08
7.0612659e-06
6.2655661e-08
7.0452916e-06
6.7629133e-08
7.0325269e-06
7.0919343e-08
7.023026e-06
7.2633087e-08
7.0168401e-06
7.287635e-08
7.0140201e-06
7.1756344e-08
7.0146174e-06
6.9379071e-08
7.0186828e-06
6.5851097e-08
7.0262662e-06
6.1279068e-08
7.0374163e-06
5.577007e-08
7.0521799e-06
4.9431601e-08
7.0705986e-06
4.2371437e-08
7.0927066e-06
3.4698221e-08
7.1185206e-06
2.6519554e-08
7.1480298e-06
1.7942594e-08
7.1811782e-06
9.0700661e-09
7.2178533e-06
7.2580488e-06
-1.0504425e-05
1.0737469e-05
-1.000772e-05
1.0763807e-05
-9.5294057e-06
1.0775563e-05
-9.0693372e-06
1.0774028e-05
-8.6272888e-06
1.0760442e-05
-8.202966e-06
1.0735986e-05
-7.7960151e-06
1.0701778e-05
-7.4060294e-06
1.0658875e-05
-7.0325599e-06
1.0608267e-05
-6.675123e-06
1.0550878e-05
-6.3332071e-06
1.0487565e-05
-6.0062803e-06
1.0419119e-05
-5.6937984e-06
1.0346268e-05
-5.395209e-06
1.0269677e-05
-5.1099584e-06
1.0189949e-05
-4.8374958e-06
1.0107634e-05
-4.5772785e-06
1.0023222e-05
-4.3287745e-06
9.9371557e-06
-4.0914667e-06
9.8498303e-06
-3.864854e-06
9.7615955e-06
-3.6484551e-06
9.6727618e-06
-3.4418099e-06
9.5836036e-06
-3.2444768e-06
9.4943612e-06
-3.0560398e-06
9.4052475e-06
-2.8761035e-06
9.3164486e-06
-2.704296e-06
9.2281285e-06
-2.5402665e-06
9.1404287e-06
-2.3836815e-06
9.0534751e-06
-2.2342362e-06
8.9673834e-06
-2.0916404e-06
8.8822518e-06
-1.9556214e-06
8.7981706e-06
-1.8259262e-06
8.7152227e-06
-1.7023155e-06
8.633482e-06
-1.5845657e-06
8.5530196e-06
-1.4724688e-06
8.4739033e-06
-1.3658262e-06
8.396196e-06
-1.2644507e-06
8.3199597e-06
-1.1681648e-06
8.2452529e-06
-1.0768021e-06
8.172137e-06
-9.9020495e-07
8.1006696e-06
-9.0821504e-07
8.0309108e-06
-8.3068898e-07
7.9629193e-06
-7.5748407e-07
7.8967536e-06
-6.8846434e-07
7.8324729e-06
-6.2349614e-07
7.7701383e-06
-5.6245449e-07
7.7098103e-06
-5.0519605e-07
7.6515399e-06
-4.5161539e-07
7.5954049e-06
-4.0159673e-07
7.5414517e-06
-3.549898e-07
7.4897363e-06
-3.1170667e-07
7.4403468e-06
-2.7161964e-07
7.3933138e-06
-2.34614e-07
7.348709e-06
-2.0058589e-07
7.3065898e-06
-1.694027e-07
7.2670082e-06
-1.4096751e-07
7.2300451e-06
-1.1517087e-07
7.1957348e-06
-9.1890602e-08
7.1641453e-06
-7.1028092e-08
7.1353393e-06
-5.2477916e-08
7.1093627e-06
-3.6099816e-08
7.0862604e-06
-2.1823012e-08
7.0661184e-06
-9.5210211e-09
7.0489642e-06
9.0780378e-10
7.0348626e-06
9.5683173e-09
7.0238664e-06
1.6566067e-08
7.0160283e-06
2.2011187e-08
7.0113953e-06
2.6008625e-08
7.0100226e-06
2.8665336e-08
7.0119606e-06
3.0088477e-08
7.0172596e-06
3.0383391e-08
7.0259712e-06
2.9658182e-08
7.0381413e-06
2.8018181e-08
7.0538201e-06
2.5572886e-08
7.0730441e-06
2.2429687e-08
7.0958499e-06
1.8696805e-08
7.1222535e-06
1.4482213e-08
7.1522444e-06
9.8934575e-09
7.1857669e-06
5.0331106e-09
7.2227137e-06
7.2630819e-06
-1.0610988e-05
1.023706e-05
-1.012753e-05
1.0280349e-05
-9.6610333e-06
1.0309066e-05
-9.2114247e-06
1.032442e-05
-8.7785553e-06
1.0327573e-05
-8.3622092e-06
1.0319639e-05
-7.9621108e-06
1.030168e-05
-7.5779337e-06
1.0274698e-05
-7.2093078e-06
1.0239641e-05
-6.8558265e-06
1.0197397e-05
-6.5170543e-06
1.0148793e-05
-6.1925328e-06
1.0094597e-05
-5.8817878e-06
1.0035523e-05
-5.5843343e-06
9.9722231e-06
-5.2996817e-06
9.905297e-06
-5.0273391e-06
9.8352912e-06
-4.7668188e-06
9.7627015e-06
-4.5176404e-06
9.6879772e-06
-4.2793332e-06
9.611523e-06
-4.0514396e-06
9.533702e-06
-3.8335168e-06
9.4548391e-06
-3.6251379e-06
9.3752246e-06
-3.4258942e-06
9.2951175e-06
-3.2353958e-06
9.2147491e-06
-3.0532715e-06
9.1343242e-06
-2.8791659e-06
9.0540231e-06
-2.7127481e-06
8.9740107e-06
-2.5537025e-06
8.8944295e-06
-2.4017325e-06
8.8154133e-06
-2.2565574e-06
8.7370767e-06
-2.1179143e-06
8.6595275e-06
-1.9855561e-06
8.5828644e-06
-1.859249e-06
8.507175e-06
-1.7387729e-06
8.4325437e-06
-1.6239212e-06
8.3590517e-06
-1.5144972e-06
8.2867721e-06
-1.4103147e-06
8.2157772e-06
-1.3111989e-06
8.1461371e-06
-1.2169817e-06
8.0779198e-06
-1.127503e-06
8.0111908e-06
-1.042609e-06
7.946017e-06
-9.6215212e-07
7.8824623e-06
-8.8599002e-07
7.8205916e-06
-8.139845e-07
7.7604674e-06
-7.4600568e-07
7.7021596e-06
-6.8191789e-07
7.6457226e-06
-6.2160064e-07
7.5912227e-06
-5.6492425e-07
7.5387285e-06
-5.1177022e-07
7.4882975e-06
-4.6202762e-07
7.4399938e-06
-4.155537e-07
7.3938729e-06
-3.7225315e-07
7.3500137e-06
-3.3200685e-07
7.3084623e-06
-2.946995e-07
7.2692827e-06
-2.6022737e-07
7.2325362e-06
-2.2846234e-07
7.1982801e-06
-1.9930608e-07
7.1665786e-06
-1.726531e-07
7.1374924e-06
-1.4837092e-07
7.1110571e-06
-1.2636845e-07
7.0873604e-06
-1.0654393e-07
7.0664358e-06
-8.8778123e-08
7.0483523e-06
-7.2967676e-08
7.0331536e-06
-5.900436e-08
7.0208995e-06
-4.678096e-08
7.0116431e-06
-3.6196951e-08
7.0054441e-06
-2.7139861e-08
7.0023379e-06
-1.9503974e-08
7.002387e-06
-1.3185168e-08
7.0056419e-06
-8.078147e-09
7.0121527e-06
-4.0722607e-09
7.0219653e-06
-1.0620745e-09
7.0351311e-06
1.0570274e-09
7.0517009e-06
2.3930783e-09
7.071708e-06
3.0540259e-09
7.095189e-06
3.1487701e-09
7.1221589e-06
2.7853584e-09
7.152608e-06
2.0710487e-09
7.1864813e-06
1.1088285e-09
7.2236759e-06
7.2641909e-06
-1.069448e-05
9.751583e-06
-1.022454e-05
9.8104088e-06
-9.7702066e-06
9.8547329e-06
-9.3314717e-06
9.8856847e-06
-8.9082541e-06
9.9043554e-06
-8.5004074e-06
9.9117927e-06
-8.1077274e-06
9.9089999e-06
-7.729959e-06
9.8969298e-06
-7.3668031e-06
9.8764854e-06
-7.0179241e-06
9.8485175e-06
-6.6829552e-06
9.8138236e-06
-6.3615062e-06
9.7731478e-06
-6.0531662e-06
9.7271831e-06
-5.7575132e-06
9.6765701e-06
-5.4741158e-06
9.6218994e-06
-5.2025379e-06
9.5637134e-06
-4.9423446e-06
9.5025083e-06
-4.6931041e-06
9.4387367e-06
-4.4543892e-06
9.3728082e-06
-4.2257843e-06
9.3050971e-06
-4.006884e-06
9.2359387e-06
-3.7972947e-06
9.1656353e-06
-3.5966387e-06
9.0944613e-06
-3.4045525e-06
9.0226628e-06
-3.2206861e-06
8.9504579e-06
-3.0447105e-06
8.8780475e-06
-2.8763084e-06
8.8056086e-06
-2.7151809e-06
8.7333021e-06
-2.5610433e-06
8.6612758e-06
-2.4136286e-06
8.5896621e-06
-2.2726823e-06
8.5185812e-06
-2.1379605e-06
8.4481426e-06
-2.00924e-06
8.3784545e-06
-1.8863056e-06
8.3096094e-06
-1.7689525e-06
8.2416983e-06
-1.6569887e-06
8.1748083e-06
-1.5502301e-06
8.1090185e-06
-1.4485021e-06
8.0444092e-06
-1.3516381e-06
7.9810558e-06
-1.2594791e-06
7.9190319e-06
-1.1718719e-06
7.8584097e-06
-1.0886685e-06
7.7992591e-06
-1.0097283e-06
7.7416513e-06
-9.3491543e-07
7.6856545e-06
-8.6408678e-07
7.6313309e-06
-7.9712213e-07
7.578758e-06
-7.3389373e-07
7.5279943e-06
-6.7427645e-07
7.4791112e-06
-6.1814711e-07
7.4321683e-06
-5.6538704e-07
7.3872335e-06
-5.1588503e-07
7.3443711e-06
-4.6951294e-07
7.3036415e-06
-4.2616311e-07
7.2651127e-06
-3.857235e-07
7.2288429e-06
-3.480798e-07
7.1948925e-06
-3.1312474e-07
7.163325e-06
-2.8074687e-07
7.1342009e-06
-2.5082382e-07
7.1075693e-06
-2.2326851e-07
7.0835018e-06
-1.9795873e-07
7.0620508e-06
-1.747918e-07
7.0432692e-06
-1.5365909e-07
7.0272196e-06
-1.3445612e-07
7.0139506e-06
-1.1707658e-07
7.0035199e-06
-1.0141417e-07
6.9959806e-06
-8.7349311e-08
6.9913793e-06
-7.4795073e-08
6.9897838e-06
-6.3639068e-08
6.9912308e-06
-5.3775175e-08
6.9957779e-06
-4.5095529e-08
7.0034734e-06
-3.7496509e-08
7.0143661e-06
-3.0873424e-08
7.0285081e-06
-2.5110102e-08
7.0459376e-06
-2.0107959e-08
7.0667059e-06
-1.5756372e-08
7.0908375e-06
-1.1947275e-08
7.1183497e-06
-8.5724788e-09
7.1492332e-06
-5.5256215e-09
7.1834344e-06
-2.7034e-09
7.220854e-06
7.2614872e-06
-1.0756498e-05
9.2811469e-06
-1.0300265e-05
9.3541753e-06
-9.8583578e-06
9.4128263e-06
-9.430826e-06
9.458153e-06
-9.0176478e-06
9.491177e-06
-8.6187386e-06
9.5128836e-06
-8.2339576e-06
9.5242189e-06
-7.8631144e-06
9.5260866e-06
-7.5059742e-06
9.5193452e-06
-7.162265e-06
9.5048085e-06
-6.8316832e-06
9.4832419e-06
-6.5138999e-06
9.4553644e-06
-6.2085642e-06
9.4218474e-06
-5.9153109e-06
9.3833169e-06
-5.6337636e-06
9.340352e-06
-5.3635386e-06
9.2934882e-06
-5.104249e-06
9.2432189e-06
-4.8555087e-06
9.1899961e-06
-4.6169345e-06
9.1342341e-06
-4.3881486e-06
9.0763111e-06
-4.1687812e-06
9.0165713e-06
-3.9584725e-06
8.9553266e-06
-3.7568735e-06
8.8928625e-06
-3.5636467e-06
8.8294359e-06
-3.3784687e-06
8.76528e-06
-3.2010271e-06
8.7006057e-06
-3.031026e-06
8.6356075e-06
-2.868182e-06
8.5704583e-06
-2.7122244e-06
8.5053182e-06
-2.5628967e-06
8.4403342e-06
-2.4199544e-06
8.3756388e-06
-2.2831669e-06
8.3113551e-06
-2.1523127e-06
8.2476004e-06
-2.0271842e-06
8.1844807e-06
-1.9075819e-06
8.1220962e-06
-1.7933166e-06
8.0605428e-06
-1.6842082e-06
7.9999101e-06
-1.5800854e-06
7.9402863e-06
-1.4807825e-06
7.881753e-06
-1.3861423e-06
7.8243917e-06
-1.2960121e-06
7.7682794e-06
-1.2102474e-06
7.713494e-06
-1.1287049e-06
7.6601088e-06
-1.0512474e-06
7.6081972e-06
-9.7774657e-07
7.5578299e-06
-9.0806872e-07
7.5090801e-06
-8.4208934e-07
7.462015e-06
-7.796807e-07
7.4167024e-06
-7.207276e-07
7.373215e-06
-6.6510888e-07
7.331615e-06
-6.1270467e-07
7.2919665e-06
-5.6340466e-07
7.2543414e-06
-5.1709172e-07
7.2187998e-06
-4.7365304e-07
7.1854042e-06
-4.3297914e-07
7.1542186e-06
-3.949584e-07
7.1253041e-06
-3.5947927e-07
7.0987217e-06
-3.2643841e-07
7.0745284e-06
-2.9572443e-07
7.0527878e-06
-2.6722881e-07
7.033555e-06
-2.4084671e-07
7.0168871e-06
-2.1646939e-07
7.0028422e-06
-1.9399279e-07
6.9914737e-06
-1.7330931e-07
6.9828364e-06
-1.543136e-07
6.9769848e-06
-1.3690424e-07
6.9739699e-06
-1.2096953e-07
6.9738493e-06
-1.064085e-07
6.9766697e-06
-9.3111755e-08
6.9824811e-06
-8.097696e-08
6.9913384e-06
-6.989754e-08
7.0032868e-06
-5.9765809e-08
7.0183763e-06
-5.0475404e-08
7.0366474e-06
-4.1921237e-08
7.0581517e-06
-3.3992274e-08
7.0829084e-06
-2.6582334e-08
7.1109395e-06
-1.9583374e-08
7.1422343e-06
-1.2889428e-08
7.1767405e-06
-6.3939606e-09
7.2143585e-06
7.2550933e-06
-1.0798555e-05
8.8257912e-06
-1.0356147e-05
8.9117669e-06
-9.9268564e-06
8.9835358e-06
-9.5107814e-06
9.0420779e-06
-9.1079531e-06
9.0883488e-06
-8.7183424e-06
9.1232728e-06
-8.3418647e-06
9.1477414e-06
-7.9783872e-06
9.162609e-06
-7.6277332e-06
9.1686912e-06
-7.2896883e-06
9.1667636e-06
-6.9640069e-06
9.1575604e-06
-6.650415e-06
9.1417726e-06
-6.3486182e-06
9.1200505e-06
-6.058303e-06
9.0930016e-06
-5.7791436e-06
9.0611926e-06
-5.5108049e-06
9.0251495e-06
-5.2529456e-06
8.9853596e-06
-5.0052229e-06
8.9422734e-06
-4.7672931e-06
8.8963044e-06
-4.5388169e-06
8.8478347e-06
-4.3194574e-06
8.7972122e-06
-4.1088876e-06
8.7447568e-06
-3.9067863e-06
8.6907614e-06
-3.7128427e-06
8.6354923e-06
-3.5267561e-06
8.5791931e-06
-3.3482366e-06
8.5220863e-06
-3.1770051e-06
8.464376e-06
-3.0127952e-06
8.4062484e-06
-2.855351e-06
8.347874e-06
-2.7044275e-06
8.289411e-06
-2.559793e-06
8.2310042e-06
-2.4212244e-06
8.1727866e-06
-2.2885085e-06
8.1148847e-06
-2.1614446e-06
8.0574167e-06
-2.0398395e-06
8.000491e-06
-1.923508e-06
7.9442113e-06
-1.8122756e-06
7.8886777e-06
-1.7059722e-06
7.8339829e-06
-1.6044358e-06
7.7802165e-06
-1.5075123e-06
7.7274682e-06
-1.4150509e-06
7.675818e-06
-1.3269063e-06
7.6253497e-06
-1.2429395e-06
7.576142e-06
-1.1630148e-06
7.5282726e-06
-1.0870008e-06
7.4818158e-06
-1.0147681e-06
7.4368476e-06
-9.4619141e-07
7.3934384e-06
-8.8115019e-07
7.3516612e-06
-8.1952038e-07
7.3115853e-06
-7.6118604e-07
7.2732806e-06
-7.060324e-07
7.236813e-06
-6.539406e-07
7.2022496e-06
-6.0480117e-07
7.1696603e-06
-5.5850057e-07
7.1391037e-06
-5.1492864e-07
7.1106466e-06
-4.7397565e-07
7.0843509e-06
-4.3553189e-07
7.0602783e-06
-3.9949125e-07
7.0384876e-06
-3.6574539e-07
7.0190422e-06
-3.3418824e-07
7.0019978e-06
-3.0471499e-07
6.9874138e-06
-2.77213e-07
6.9753403e-06
-2.5158247e-07
6.965843e-06
-2.2771802e-07
6.9589721e-06
-2.0551477e-07
6.9547815e-06
-1.848678e-07
6.9533231e-06
-1.6566887e-07
6.9546502e-06
-1.4781492e-07
6.9588158e-06
-1.3120346e-07
6.9658696e-06
-1.1572579e-07
6.9758606e-06
-1.0127847e-07
6.9888394e-06
-8.7754547e-08
7.0048525e-06
-7.5050958e-08
7.023944e-06
-6.3053146e-08
7.0461538e-06
-5.1659706e-08
7.071515e-06
-4.0761395e-08
7.1000414e-06
-3.0250581e-08
7.1317235e-06
-2.0020303e-08
7.1665101e-06
-9.9697343e-09
7.204308e-06
7.2451236e-06
-1.0822089e-05
8.3854962e-06
-1.0393561e-05
8.4832392e-06
-9.9770103e-06
8.5669849e-06
-9.572578e-06
8.6376456e-06
-9.1803412e-06
8.696112e-06
-8.8003199e-06
8.7432514e-06
-8.4324796e-06
8.7799011e-06
-8.0767387e-06
8.8068682e-06
-7.732973e-06
8.8249255e-06
-7.4010207e-06
8.8348114e-06
-7.0806875e-06
8.8372273e-06
-6.7717514e-06
8.8328366e-06
-6.4739671e-06
8.8222662e-06
-6.1870705e-06
8.8061051e-06
-5.9107824e-06
8.7849044e-06
-5.6448125e-06
8.7591795e-06
-5.3888623e-06
8.7294093e-06
-5.1426289e-06
8.69604e-06
-4.9058075e-06
8.659483e-06
-4.6780929e-06
8.6201202e-06
-4.4591826e-06
8.5783016e-06
-4.2487785e-06
8.5343528e-06
-4.0465881e-06
8.4885707e-06
-3.8523251e-06
8.4412292e-06
-3.6657122e-06
8.3925805e-06
-3.4864804e-06
8.3428545e-06
-3.3143696e-06
8.2922651e-06
-3.1491292e-06
8.2410079e-06
-2.9905184e-06
8.1892631e-06
-2.8383059e-06
8.1371985e-06
-2.6922685e-06
8.0849668e-06
-2.5521959e-06
8.032714e-06
-2.4178842e-06
7.980573e-06
-2.2891382e-06
7.9286709e-06
-2.1657715e-06
7.8771244e-06
-2.0476061e-06
7.8260459e-06
-1.9344698e-06
7.7755413e-06
-1.8261973e-06
7.7257104e-06
-1.7226326e-06
7.676652e-06
-1.6236195e-06
7.6284547e-06
-1.5290137e-06
7.5812123e-06
-1.4386718e-06
7.5350078e-06
-1.3524567e-06
7.4899271e-06
-1.2702331e-06
7.4460489e-06
-1.1918723e-06
7.4034551e-06
-1.1172462e-06
7.3622213e-06
-1.0462312e-06
7.3224234e-06
-9.787045e-07
7.2841347e-06
-9.1454828e-07
7.2474289e-06
-8.536453e-07
7.2123775e-06
-7.9587984e-07
7.1790477e-06
-7.4113996e-07
7.1475098e-06
-6.8930886e-07
7.1178292e-06
-6.4028013e-07
7.0900749e-06
-5.9394152e-07
7.0643083e-06
-5.5018664e-07
7.040596e-06
-5.0890614e-07
7.0189976e-06
-4.6999439e-07
6.999576e-06
-4.333419e-07
6.9823895e-06
-3.9884376e-07
6.9674995e-06
-3.6639595e-07
6.954966e-06
-3.3589407e-07
6.9448383e-06
-3.0723235e-07
6.9371812e-06
-2.8030525e-07
6.932045e-06
-2.5500765e-07
6.929484e-06