/*--------------------------------*- C++ -*----------------------------------*\
| =========                 |                                                 |
| \\      /  F ield         | OpenFOAM: The Open Source CFD Toolbox           |
|  \\    /   O peration     | Version:  2306                                  |
|   \\  /    A nd           | Website:  www.openfoam.com                      |
|    \\/     M anipulation  |                                                 |
\*---------------------------------------------------------------------------*/
FoamFile
{
    version     2.0;
    format      ascii;
    arch        "LSB;label=32;scalar=64";
    class       volVectorField;
    location    "0.6";
    object      U;
}
// * * * * * * * * * * * * * * * * * * * * * * * * * * * * * * * * * * * * * //

dimensions      [0 1 -1 0 0 0 0];

internalField   nonuniform List<vector> 
6400
(
(-0.0036780858 0.0059353619 2.7981155e-20)
(-0.0034019775 0.0058017417 6.1780507e-20)
(-0.0031446551 0.0056668296 -4.7843669e-19)
(-0.0029050823 0.0055314512 -3.5049221e-19)
(-0.0026822329 0.0053963364 -5.7247381e-20)
(-0.0024750979 0.0052621219 2.4328223e-19)
(-0.0022826917 0.0051293577 1.2014553e-19)
(-0.0021040567 0.0049985115 4.2146339e-19)
(-0.001938269 0.0048699745 2.2356777e-19)
(-0.0017844402 0.004744067 2.2147862e-19)
(-0.0016417214 0.0046210449 3.3005499e-19)
(-0.0015093061 0.004501105 3.0019469e-19)
(-0.0013864313 0.0043843909 -1.4815267e-20)
(-0.0012723797 0.0042709994 -3.9042978e-20)
(-0.001166478 0.0041609871 -8.0634961e-21)
(-0.0010680982 0.0040543733 1.9709099e-20)
(-0.00097665788 0.003951147 9.8751138e-22)
(-0.00089161707 0.0038512721 -3.1261187e-20)
(-0.00081248091 0.0037546908 -7.8587192e-20)
(-0.00073879397 0.0036613291 8.064487e-22)
(-0.0006701377 0.0035710998 1.3832414e-19)
(-0.00060613229 0.0034839061 3.4107528e-20)
(-0.00054643445 0.0033996448 -4.0423905e-20)
(-0.00049073063 0.0033182086 -7.2966278e-20)
(-0.00043873549 0.0032394894 1.7364606e-20)
(-0.0003901945 0.0031633791 9.5529751e-20)
(-0.00034487609 0.0030897708 2.1249515e-21)
(-0.00030257196 0.0030185637 -3.3558705e-20)
(-0.00026309413 0.002949657 2.5158336e-20)
(-0.0002262713 0.0028829577 3.581948e-20)
(-0.00019194975 0.0028183783 4.9090315e-21)
(-0.00015998977 0.0027558364 8.5359476e-20)
(-0.00013026416 0.0026952553 6.8839893e-20)
(-0.00010265624 0.002636565 3.0123622e-20)
(-7.7058369e-05 0.0025797007 4.8901812e-20)
(-5.3371885e-05 0.0025246026 3.9809254e-20)
(-3.1507954e-05 0.0024712175 5.3620977e-21)
(-1.1379533e-05 0.0024194961 3.7039153e-20)
(7.0951012e-06 0.0023693935 1.5222336e-20)
(2.3990075e-05 0.0023208696 -2.3353072e-20)
(3.9377401e-05 0.0022738878 -2.2446509e-20)
(5.3325188e-05 0.0022284141 3.9951822e-20)
(6.5898394e-05 0.0021844194 1.0535047e-20)
(7.7159467e-05 0.0021418743 -1.7591113e-20)
(8.7169036e-05 0.0021007537 -2.7155843e-20)
(9.5985219e-05 0.0020610342 -2.1869992e-20)
(0.00010366415 0.0020226939 3.5123986e-20)
(0.00011026014 0.0019857121 1.111357e-20)
(0.000115826 0.0019500698 -3.9799898e-20)
(0.00012041298 0.0019157486 -1.0932794e-20)
(0.00012407072 0.0018827311 2.6522626e-20)
(0.00012684743 0.0018510008 1.7932534e-20)
(0.00012879 0.0018205415 1.1273999e-20)
(0.00012994392 0.0017913376 1.163845e-20)
(0.00013035327 0.0017633743 4.7145709e-22)
(0.00013006089 0.0017366368 3.7555808e-21)
(0.00012910836 0.0017111107 1.3344128e-20)
(0.00012753594 0.0016867821 4.4309215e-20)
(0.00012538262 0.0016636373 2.3545131e-20)
(0.00012268623 0.0016416627 -9.799652e-21)
(0.00011948342 0.001620845 5.4869135e-21)
(0.0001158096 0.0016011714 -1.6109548e-21)
(0.00011169909 0.001582629 4.3604497e-21)
(0.00010718515 0.0015652055 1.3829757e-20)
(0.00010229997 0.0015488886 -1.4789851e-20)
(9.7074685e-05 0.0015336666 -3.6604835e-21)
(9.1539441e-05 0.0015195277 2.228255e-21)
(8.5723428e-05 0.0015064605 6.348277e-21)
(7.9655046e-05 0.0014944543 -5.8497482e-21)
(7.336177e-05 0.0014834984 -3.2611301e-21)
(6.6870169e-05 0.0014735821 6.7626683e-22)
(6.0206148e-05 0.0014646954 1.6411747e-21)
(5.3394893e-05 0.0014568279 8.0996527e-21)
(4.6460873e-05 0.0014499692 1.8809897e-21)
(3.9427982e-05 0.0014441066 -9.2807842e-21)
(3.2319987e-05 0.001439225 -1.0805269e-20)
(2.5160017e-05 0.0014353032 -1.968588e-21)
(1.7966535e-05 0.00143231 -2.6441442e-21)
(1.0754044e-05 0.0014302001 -1.4462883e-20)
(3.562108e-06 0.0014289483 -2.3047014e-20)
(-0.0038033906 0.0056970038 -2.4647991e-19)
(-0.0035293662 0.0055782825 2.107202e-19)
(-0.0032732618 0.0054575983 -3.2897264e-19)
(-0.0030341355 0.005335759 -6.5389217e-19)
(-0.0028110519 0.0052134842 -4.8787539e-19)
(-0.0026030884 0.0050914077 -1.7968693e-19)
(-0.0024093409 0.0049700827 -1.7674828e-19)
(-0.0022289285 0.0048499861 1.4801162e-19)
(-0.0020609986 0.0047315238 -8.9467696e-20)
(-0.0019047284 0.0046150351 -7.028103e-20)
(-0.0017593292 0.0045007986 1.4317428e-19)
(-0.001624049 0.0043890371 1.7982414e-19)
(-0.0014981739 0.0042799227 -1.2871593e-19)
(-0.0013810292 0.0041735824 -2.7432676e-19)
(-0.00127198 0.0040701047 -2.0355233e-19)
(-0.0011704317 0.0039695407 -8.8040418e-20)
(-0.0010758298 0.003871913 -8.6024814e-20)
(-0.00098765845 0.0037772175 -6.8857132e-20)
(-0.00090544105 0.0036854278 -1.3767758e-19)
(-0.00082873761 0.0035965023 -1.3147708e-19)
(-0.00075714255 0.0035103833 2.2600988e-20)
(-0.00069028492 0.0034270024 2.5121144e-20)
(-0.00062782646 0.0033462821 -7.6409067e-20)
(-0.0005694573 0.0032681425 -8.395867e-20)
(-0.00051489425 0.0031924977 -2.3667063e-20)
(-0.0004638825 0.0031192607 1.7163184e-20)
(-0.00041618817 0.0030483454 2.8295865e-20)
(-0.0003716007 0.0029796671 -2.2461615e-20)
(-0.00032992884 0.0029131435 -7.2456006e-20)
(-0.00029099577 0.0028486942 1.4151654e-23)
(-0.00025464333 0.0027862449 4.0526028e-20)
(-0.00022072707 0.0027257243 6.5404127e-20)
(-0.00018911414 0.0026670656 2.0622914e-21)
(-0.00015968254 0.0026102076 -1.7497189e-20)
(-0.00013232091 0.0025550924 4.2850013e-21)
(-0.00010692532 0.0025016665 1.4447811e-20)
(-8.3399553e-05 0.0024498815 -8.9745564e-21)
(-6.1654449e-05 0.0023996957 -3.1384131e-20)
(-4.1605395e-05 0.0023510651 -3.6000413e-20)
(-2.3172677e-05 0.002303954 -4.5706408e-20)
(-6.2820347e-06 0.0022583284 -8.752065e-22)
(9.1384955e-06 0.0022141566 1.916234e-20)
(2.3155679e-05 0.0021714144 -2.3353297e-20)
(3.5833937e-05 0.0021300693 -3.3229745e-20)
(4.7237238e-05 0.0020901007 -3.0520793e-20)
(5.7424755e-05 0.0020514862 -2.4696085e-20)
(6.6454094e-05 0.0020142052 8.4404838e-22)
(7.4380949e-05 0.001978238 -3.400679e-20)
(8.1259262e-05 0.0019435666 -3.3866186e-20)
(8.7141208e-05 0.0019101738 -8.6307552e-21)
(9.207715e-05 0.001878043 2.2949522e-20)
(9.6116015e-05 0.0018471587 9.3944368e-21)
(9.9305334e-05 0.0018175056 -6.3385845e-21)
(0.00010169101 0.0017890693 -1.9303491e-21)
(0.0001033175 0.0017618354 1.6718965e-21)
(0.00010422803 0.0017357901 2.2336431e-20)
(0.00010446452 0.0017109202 1.876906e-20)
(0.00010406755 0.0016872122 5.7690683e-21)
(0.00010307647 0.0016646535 -6.2088085e-21)
(0.00010152929 0.0016432314 -1.1288665e-20)
(9.946284e-05 0.0016229334 1.0631019e-22)
(9.6912891e-05 0.0016037475 -5.4193201e-21)
(9.3913995e-05 0.0015856616 -7.8650588e-21)
(9.0499678e-05 0.0015686642 -1.4097577e-21)
(8.6702346e-05 0.0015527437 -5.5668139e-21)
(8.2553429e-05 0.0015378892 7.8053877e-21)
(7.8083434e-05 0.0015240896 -3.3210909e-21)
(7.332185e-05 0.0015113343 -1.0362932e-20)
(6.829725e-05 0.001499613 -4.728975e-21)
(6.3037513e-05 0.0014889158 -5.4619937e-21)
(5.756965e-05 0.0014792325 1.1647109e-20)
(5.1919844e-05 0.0014705538 1.1813701e-20)
(4.6113589e-05 0.0014628697 4.146361e-21)
(4.0175755e-05 0.0014561701 6.3456042e-21)
(3.4130755e-05 0.001450443 -2.7109891e-21)
(2.8002531e-05 0.0014456735 -4.8121113e-21)
(2.1814505e-05 0.0014418409 -5.4024153e-21)
(1.5585959e-05 0.0014389148 -1.2516285e-20)
(9.3325254e-06 0.0014368511 -2.2048439e-20)
(3.0916797e-06 0.0014356258 -2.8929998e-20)
(-0.0039139082 0.0054629918 2.8074172e-20)
(-0.0036425857 0.005358279 2.231217e-19)
(-0.00338834 0.0052510138 -1.7146802e-19)
(-0.003150316 0.0051419843 -3.9335992e-19)
(-0.0029276617 0.0050318974 -3.4533288e-19)
(-0.0027195346 0.0049213809 -2.1726424e-19)
(-0.0025251064 0.004810988 -2.0636086e-19)
(-0.0023435674 0.0047012011 1.0975911e-19)
(-0.0021741312 0.0045924361 -1.5089346e-22)
(-0.002016037 0.0044850475 -1.4519755e-19)
(-0.0018685525 0.0043793317 2.0566514e-21)
(-0.0017309778 0.0042755327 -1.9018408e-21)
(-0.0016026455 0.0041738466 -1.2875034e-19)
(-0.0014829226 0.0040744262 -1.0786825e-19)
(-0.0013712112 0.0039773866 -7.7418338e-20)
(-0.0012669489 0.0038828074 -1.4414419e-19)
(-0.0011696092 0.0037907394 -2.6187068e-19)
(-0.0010787006 0.0037012076 -1.6894008e-19)
(-0.00099376594 0.0036142134 -3.0012139e-20)
(-0.00091438126 0.0035297427 -4.8679702e-20)
(-0.00084015441 0.003447765 -1.9123119e-20)
(-0.00077072506 0.0033682375 -6.4260628e-20)
(-0.00070576207 0.003291107 -1.361533e-19)
(-0.0006449604 0.0032163166 -3.7567977e-21)
(-0.00058804081 0.0031438018 -7.1396004e-21)
(-0.00053474941 0.0030734952 -1.2428546e-20)
(-0.00048485269 0.00300533 -7.5366683e-21)
(-0.00043813831 0.0029392368 -5.9343718e-20)
(-0.0003944132 0.00287515 -5.1133144e-20)
(-0.00035349856 0.0028130023 -2.5003429e-20)
(-0.00031523197 0.0027527312 -2.2444847e-20)
(-0.00027946561 0.0026942766 -1.2844087e-20)
(-0.00024606253 0.0026375816 1.4500157e-20)
(-0.00021489679 0.0025825932 3.4145166e-20)
(-0.00018585311 0.0025292606 1.0128772e-20)
(-0.00015882349 0.0024775377 -4.1188926e-20)
(-0.00013370709 0.0024273815 -2.4739568e-20)
(-0.00011041236 0.0023787531 -9.3996053e-21)
(-8.8851451e-05 0.0023316161 8.0089654e-21)
(-6.8940559e-05 0.0022859361 -1.7100469e-20)
(-5.0603525e-05 0.0022416826 -1.791997e-21)
(-3.3762542e-05 0.0021988278 -3.4714102e-20)
(-1.8353296e-05 0.0021573456 -1.0121878e-20)
(-4.3094879e-06 0.0021172121 -9.4970027e-21)
(8.4394013e-06 0.0020784048 -2.2250452e-20)
(1.9951361e-05 0.0020409033 -1.4829653e-20)
(3.0285303e-05 0.0020046885 -1.3016803e-20)
(3.9498366e-05 0.0019697418 -2.2655823e-20)
(4.7645655e-05 0.0019360465 7.0992423e-21)
(5.4780038e-05 0.0019035868 -7.92775e-21)
(6.0952732e-05 0.0018723471 -4.3911127e-21)
(6.6213377e-05 0.0018423127 -4.2526787e-21)
(7.0610026e-05 0.0018134696 -5.6581057e-21)
(7.4188928e-05 0.0017858043 1.1837295e-20)
(7.6994836e-05 0.0017593034 5.7450012e-22)
(7.9071475e-05 0.0017339538 4.203326e-21)
(8.0461174e-05 0.0017097432 -2.3182367e-21)
(8.1204752e-05 0.0016866591 -8.7641742e-21)
(8.1341722e-05 0.0016646898 -1.4848438e-21)
(8.0910395e-05 0.0016438235 -1.0214883e-20)
(7.9947889e-05 0.0016240484 -1.5368943e-20)
(7.8490161e-05 0.0016053533 -7.2116186e-21)
(7.657202e-05 0.001587727 -7.4445633e-21)
(7.4227197e-05 0.0015711588 -1.0645862e-20)
(7.1488362e-05 0.0015556378 -3.8358548e-21)
(6.8387225e-05 0.0015411537 4.8589366e-21)
(6.4954555e-05 0.0015276962 -1.2750712e-20)
(6.122004e-05 0.0015152554 -1.1622785e-20)
(5.7212639e-05 0.0015038217 -1.0375605e-20)
(5.2960475e-05 0.0014933855 -5.0359086e-21)
(4.8490799e-05 0.0014839377 1.2087805e-20)
(4.3830215e-05 0.0014754689 4.5724224e-21)
(3.9004539e-05 0.00146797 -6.2632656e-21)
(3.4038952e-05 0.0014614313 5.3317854e-21)
(2.8958112e-05 0.001455841 5.8336931e-21)
(2.3786295e-05 0.0014511849 7.7176527e-22)
(1.8547297e-05 0.0014474427 -1.451448e-20)
(1.3261024e-05 0.0014445845 -1.6885629e-20)
(7.9441721e-06 0.0014425675 -2.7081294e-20)
(2.6322137e-06 0.0014413692 -3.8320242e-20)
(-0.0040105516 0.00523371 3.7170372e-19)
(-0.0037424707 0.0051421518 8.1659481e-20)
(-0.0034906474 0.0050475256 -3.2329322e-19)
(-0.0032543063 0.0049505987 -3.9071912e-19)
(-0.0030326726 0.0048520628 -2.9425788e-19)
(-0.0028249774 0.0047525375 -2.5020611e-19)
(-0.0026304628 0.0046525731 -3.3810242e-19)
(-0.0024483852 0.0045526542 -1.6234428e-21)
(-0.0022780202 0.0044532031 4.1168899e-20)
(-0.0021186649 0.0043545853 -1.2550912e-19)
(-0.0019696406 0.0042571113 -1.3498438e-19)
(-0.0018302962 0.0041610424 -1.7371671e-19)
(-0.0017000089 0.0040665942 -1.2354746e-20)
(-0.0015781855 0.0039739414 1.4224597e-19)
(-0.0014642642 0.0038832216 -5.6812395e-21)
(-0.0013577139 0.003794539 -2.3530784e-19)
(-0.0012580357 0.0037079686 -3.1759188e-19)
(-0.0011647624 0.0036235605 -8.5854843e-20)
(-0.0010774568 0.0035413417 4.9825852e-21)
(-0.00099571162 0.003461322 -2.4068713e-20)
(-0.00091914876 0.0033834944 -6.5079844e-20)
(-0.00084741964 0.0033078395 -1.1940128e-19)
(-0.00078020148 0.0032343268 -8.3168115e-20)
(-0.00071719546 0.0031629194 1.2821374e-20)
(-0.00065812754 0.0030935725 5.8616848e-21)
(-0.00060274628 0.0030262377 -5.3333518e-20)
(-0.00055081989 0.0029608645 -5.5088179e-20)
(-0.00050213583 0.0028973999 -3.4226343e-20)
(-0.00045650099 0.0028357909 -1.87644e-20)
(-0.00041373563 0.0027759851 -1.591183e-20)
(-0.00037367426 0.0027179309 -4.2313598e-20)
(-0.0003361667 0.0026615786 -3.5441637e-20)
(-0.00030107325 0.0026068809 9.7136299e-21)
(-0.00026826547 0.0025537928 4.5705486e-20)
(-0.00023762497 0.0025022715 6.2749909e-21)
(-0.00020904036 0.0024522771 -1.1034795e-20)
(-0.00018240803 0.002403772 -1.4866353e-20)
(-0.00015763227 0.0023567215 -2.9922365e-21)
(-0.00013462378 0.002311096 2.2550525e-20)
(-0.00011329683 0.0022668625 2.1801251e-20)
(-9.357081e-05 0.0022239954 1.5992901e-20)
(-7.5369438e-05 0.0021824694 -2.8714263e-20)
(-5.8621729e-05 0.0021422575 8.8034091e-21)
(-4.3259709e-05 0.0021033442 1.1758567e-20)
(-2.921595e-05 0.0020657059 8.2853981e-21)
(-1.6427944e-05 0.0020293236 2.9749967e-21)
(-4.8363004e-06 0.0019941806 -1.7177674e-20)
(5.6175374e-06 0.0019602595 2.5798565e-21)
(1.4989818e-05 0.0019275451 1.6051374e-20)
(2.3333886e-05 0.0018960226 1.0888323e-20)
(3.0701502e-05 0.0018656778 1.1327575e-21)
(3.7143093e-05 0.0018364965 -4.9432124e-22)
(4.2707504e-05 0.0018084662 -4.7503547e-21)
(4.7441026e-05 0.0017815754 9.3629915e-21)
(5.1388514e-05 0.0017558106 6.030656e-21)
(5.4594355e-05 0.0017311591 6.5522071e-21)
(5.7101378e-05 0.0017076105 2.1889762e-21)
(5.8950452e-05 0.0016851531 4.0545371e-21)
(6.0181281e-05 0.001663776 2.3004649e-21)
(6.083252e-05 0.0016434679 2.3414672e-21)
(6.0941463e-05 0.0016242184 -1.3937323e-22)
(6.0544252e-05 0.0016060167 -1.2044727e-20)
(5.9675949e-05 0.0015888527 -1.8308127e-21)
(5.8370493e-05 0.0015727161 -3.8363653e-21)
(5.6660797e-05 0.0015575972 4.8532388e-21)
(5.4578756e-05 0.0015434859 -2.5595713e-21)
(5.2155306e-05 0.0015303729 -1.1809053e-20)
(4.9420485e-05 0.0015182489 -4.5841857e-21)
(4.6403516e-05 0.0015071049 7.4312811e-22)
(4.3132713e-05 0.0014969319 6.359042e-21)
(3.9635607e-05 0.0014877212 5.5646619e-21)
(3.5939061e-05 0.0014794643 1.555888e-21)
(3.2069226e-05 0.0014721522 3.1386659e-21)
(2.8051634e-05 0.0014657756 3.4217132e-22)
(2.3911142e-05 0.0014603235 8.1910151e-21)
(1.967229e-05 0.0014557819 -4.3126036e-22)
(1.5359195e-05 0.001452131 -9.8716579e-21)
(1.0992363e-05 0.0014493414 -1.4761013e-20)
(6.5894208e-06 0.0014473717 -2.0205536e-20)
(2.1838516e-06 0.0014462007 -3.4451548e-20)
(-0.0040941937 0.0050094784 6.2642841e-19)
(-0.0038298231 0.0049302574 3.530391e-19)
(-0.003580916 0.0048475199 -4.4950497e-19)
(-0.0033467702 0.0047620111 -1.3954293e-19)
(-0.0031266817 0.0046744065 -5.4469983e-20)
(-0.0029199501 0.0045853148 1.4626367e-19)
(-0.0027258822 0.0044952812 6.6302729e-20)
(-0.0025437962 0.0044047895 2.3366114e-19)
(-0.0023730256 0.0043142657 3.56971e-19)
(-0.0022129217 0.0042240825 1.0250255e-19)
(-0.002062856 0.0041345613 1.9364713e-19)
(-0.0019222238 0.0040459768 1.1110041e-19)
(-0.0017904445 0.003958561 4.3145305e-20)
(-0.0016669633 0.003872506 2.034075e-19)
(-0.0015512528 0.0037879691 8.9355741e-20)
(-0.0014428129 0.003705075 7.4170113e-20)
(-0.0013411715 0.00362392 2.8493159e-20)
(-0.0012458849 0.0035445755 -4.4747065e-20)
(-0.0011565366 0.0034670913 2.5019089e-20)
(-0.0010727367 0.003391498 7.1518832e-20)
(-0.00099412175 0.0033178099 9.4384011e-20)
(-0.000920355 0.0032460281 7.7282688e-20)
(-0.000851123 0.0031761428 -6.5070082e-22)
(-0.00078613502 0.0031081351 1.1210245e-20)
(-0.00072512288 0.0030419783 7.6653218e-20)
(-0.00066783881 0.0029776412 4.6149884e-20)
(-0.00061405394 0.0029150885 4.2208766e-20)
(-0.00056355793 0.0028542822 -2.4664614e-20)
(-0.00051615728 0.0027951814 -1.8045509e-20)
(-0.00047167196 0.0027377476 -1.7001358e-20)
(-0.00042993652 0.0026819396 -3.4790352e-20)
(-0.00039079894 0.0026277177 2.9517829e-20)
(-0.00035411775 0.0025750438 6.0889345e-20)
(-0.00031976243 0.0025238804 5.4440865e-20)
(-0.00028761238 0.0024741927 2.0084327e-21)
(-0.00025755424 0.0024259472 9.1275953e-21)
(-0.00022948185 0.0023791118 1.5799441e-20)
(-0.00020329623 0.002333657 1.676709e-20)
(-0.00017890768 0.0022895558 4.8358898e-20)
(-0.00015622832 0.0022467825 3.7171097e-20)
(-0.00013517409 0.0022053125 -2.7030736e-20)
(-0.00011566838 0.0021651239 -1.0785309e-21)
(-9.7637483e-05 0.0021261951 3.7561836e-20)
(-8.101153e-05 0.0020885082 3.1271303e-20)
(-6.5723368e-05 0.0020520446 2.2517105e-20)
(-5.1708381e-05 0.002016787 6.8588622e-21)
(-3.89058e-05 0.00198272 1.5785208e-20)
(-2.7256819e-05 0.0019498285 3.7844437e-20)
(-1.6704171e-05 0.0019180989 1.2196909e-20)
(-7.1935391e-06 0.0018875166 2.3197407e-20)
(1.3265643e-06 0.0018580689 8.1251893e-21)
(8.9076766e-06 0.0018297437 9.4522011e-21)
(1.5600623e-05 0.0018025283 1.8763779e-20)
(2.1450288e-05 0.0017764151 7.0010842e-21)
(2.6500981e-05 0.0017513892 5.0518597e-21)
(3.0799004e-05 0.0017274373 1.0331115e-20)
(3.4387518e-05 0.0017045529 1.8774151e-20)
(3.7306999e-05 0.0016827244 2.3874038e-20)
(3.9597564e-05 0.0016619414 5.2703558e-21)
(4.1298069e-05 0.0016421938 6.8277841e-21)
(4.2445979e-05 0.0016234719 -3.2287849e-21)
(4.3077615e-05 0.0016057658 -1.6931081e-21)
(4.3228257e-05 0.001589066 4.2102736e-21)
(4.2931966e-05 0.0015733631 -1.9340956e-21)
(4.2221929e-05 0.0015586481 4.4894258e-21)
(4.113019e-05 0.0015449117 -5.6730571e-21)
(3.9687899e-05 0.0015321452 -3.3456549e-21)
(3.7925343e-05 0.0015203399 1.2529811e-20)
(3.5871868e-05 0.0015094873 1.4625674e-20)
(3.3556062e-05 0.0014995791 1.4505485e-20)
(3.1005789e-05 0.0014906073 5.3030293e-21)
(2.8248093e-05 0.0014825636 9.774928e-21)
(2.5309312e-05 0.0014754396 1.4288768e-20)
(2.2215223e-05 0.0014692264 2.8957763e-21)
(1.8990999e-05 0.0014639135 4.0705366e-21)
(1.5661467e-05 0.0014594873 -3.1569989e-21)
(1.2250914e-05 0.0014559282 8.7756911e-22)
(8.7803952e-06 0.0014532081 -5.919022e-21)
(5.2685351e-06 0.0014512861 -1.83121e-20)
(1.7467361e-06 0.0014501428 -2.2637886e-20)
(-0.0041656675 0.0047905603 2.0428666e-19)
(-0.0039054119 0.0047228948 6.3206353e-19)
(-0.0036598511 0.0046513256 -3.5266176e-19)
(-0.0034283505 0.0045765743 -4.258083e-19)
(-0.0032102714 0.0044992991 -1.1406183e-19)
(-0.0030049762 0.0044200965 1.2167345e-19)
(-0.0028118321 0.0043395038 2.8455673e-19)
(-0.0026302146 0.0042580021 2.3777395e-19)
(-0.0024595112 0.0041760184 1.2608208e-19)
(-0.0022991238 0.0040939295 1.2720454e-19)
(-0.0021484715 0.0040120649 2.7087672e-19)
(-0.0020069929 0.0039307095 3.1224034e-19)
(-0.0018741476 0.003850108 -4.5254363e-20)
(-0.0017494177 0.0037704673 -7.0557811e-20)
(-0.0016323086 0.0036919607 1.5102492e-20)
(-0.0015223503 0.0036147306 1.1212813e-19)
(-0.001419097 0.0035388913 1.1145308e-19)
(-0.0013221282 0.0034645329 -7.5353174e-20)
(-0.0012310478 0.0033917245 -7.6862823e-21)
(-0.0011454836 0.0033205153 3.3656812e-20)
(-0.0010650872 0.0032509388 1.3566461e-19)
(-0.00098953423 0.0031830139 1.6823786e-19)
(-0.00091852185 0.0031167492 -2.2948577e-20)
(-0.00085176762 0.0030521423 -6.3220921e-20)
(-0.00078901008 0.0029891831 5.0610655e-20)
(-0.00073000664 0.0029278559 5.4321196e-20)
(-0.00067453229 0.0028681394 5.6476688e-20)
(-0.00062237955 0.002810009 -3.6711845e-20)
(-0.00057335604 0.0027534369 -3.6517551e-20)
(-0.00052728273 0.0026983954 -4.1598327e-20)
(-0.0004839947 0.0026448539 -5.9897671e-20)
(-0.00044333911 0.0025927824 6.380868e-20)
(-0.00040517382 0.0025421515 5.9085332e-20)
(-0.00036936706 0.0024929314 -9.2151613e-21)
(-0.00033579637 0.0024450942 -2.0574959e-20)
(-0.00030434739 0.002398613 -2.3329965e-20)
(-0.00027491272 0.0023534616 5.5740617e-20)
(-0.00024739178 0.0023096151 4.4770338e-20)
(-0.00022169164 0.0022670499 -1.1250543e-20)
(-0.00019772369 0.0022257468 -1.6273603e-20)
(-0.00017540339 0.0021856829 -4.6605111e-20)
(-0.00015465165 0.0021468398 3.0997877e-20)
(-0.0001353937 0.0021091994 1.9301823e-20)
(-0.00011755821 0.0020727454 -5.4313004e-21)
(-0.00010107705 0.0020374615 4.2209295e-21)
(-8.5884845e-05 0.0020033329 -8.7991234e-22)
(-7.1919708e-05 0.0019703461 2.8164248e-20)
(-5.9121517e-05 0.0019384869 4.7036552e-20)
(-4.7433333e-05 0.0019077448 2.2537172e-20)
(-3.6800701e-05 0.001878105 -6.5647701e-23)
(-2.7170023e-05 0.0018495566 -2.1028205e-20)
(-1.8490363e-05 0.0018220897 -2.9429655e-21)
(-1.0708167e-05 0.0017956925 2.2113384e-20)
(-3.7801255e-06 0.0017703553 4.4302019e-21)
(2.3339241e-06 0.0017460679 1.4801968e-20)
(7.6865436e-06 0.0017228187 -4.7989827e-22)
(1.2321412e-05 0.0017006012 1.1423997e-20)
(1.6276378e-05 0.0016794029 1.6509679e-20)
(1.9592481e-05 0.0016592159 8.1553326e-21)
(2.2308897e-05 0.0016400298 -1.0012544e-21)
(2.4463309e-05 0.0016218374 -3.0026336e-21)
(2.6092007e-05 0.0016046282 5.3938365e-22)
(2.7230656e-05 0.0015883943 1.2068947e-20)
(2.7913342e-05 0.0015731268 9.5795321e-21)
(2.8173403e-05 0.0015588172 -1.1192424e-21)
(2.80432e-05 0.0015454572 -2.8195596e-21)
(2.7553972e-05 0.0015330386 5.5163234e-21)
(2.6736159e-05 0.0015215534 8.8816248e-21)
(2.5619295e-05 0.0015109936 6.9783487e-22)
(2.4232147e-05 0.0015013517 4.9340671e-21)
(2.260276e-05 0.0014926198 4.6291819e-21)
(2.0758426e-05 0.0014847905 8.2546488e-21)
(1.8725743e-05 0.0014778557 7.6662734e-21)
(1.6530642e-05 0.001471807 6.0275279e-21)
(1.4198554e-05 0.0014666341 -6.1304348e-21)
(1.1754504e-05 0.0014623239 -4.5233532e-21)
(9.2229232e-06 0.0014588574 -1.025518e-21)
(6.6255066e-06 0.0014562071 -6.1130165e-21)
(3.9817865e-06 0.0014543333 -2.206988e-20)
(1.320924e-06 0.001453218 -2.6793962e-20)
(-0.0042257677 0.0045771677 1.1375372e-20)
(-0.0039699734 0.0045203118 4.3079602e-19)
(-0.0037281314 0.0044592198 -7.5101216e-20)
(-0.0034996689 0.0043945897 -7.7153492e-19)
(-0.0032840077 0.0043270611 -4.894612e-19)
(-0.0030805682 0.0042572169 -2.241302e-19)
(-0.0028887734 0.0041855852 2.2485407e-21)
(-0.002708052 0.0041126419 1.7520539e-19)
(-0.0025378418 0.0040388128 -2.7842672e-19)
(-0.0023775923 0.0039644765 -1.2074302e-19)
(-0.0022267667 0.0038899675 1.4983972e-19)
(-0.002084845 0.0038155786 2.8419483e-19)
(-0.001951325 0.0037415642 6.0070864e-20)
(-0.0018257233 0.0036681431 -3.4866766e-19)
(-0.0017075776 0.0035955017 -2.2716919e-19)
(-0.0015964461 0.0035237971 -9.5555286e-21)
(-0.0014919091 0.0034531591 2.3298552e-21)
(-0.0013935689 0.0033836942 -3.2381104e-20)
(-0.0013010492 0.0033154873 -1.8401521e-19)
(-0.0012139959 0.0032486047 -1.846789e-19)
(-0.0011320758 0.0031830962 5.6380323e-20)
(-0.001054977 0.0031189972 9.7452538e-20)
(-0.00098240804 0.0030563319 -1.7460062e-20)
(-0.00091409586 0.0029951131 -1.1127165e-19)
(-0.00084978611 0.002935346 -3.7213639e-20)
(-0.00078924229 0.0028770284 2.3690024e-20)
(-0.00073224403 0.0028201522 5.8287574e-20)
(-0.00067858745 0.0027647051 1.1462059e-20)
(-0.00062808254 0.0027106714 -1.181218e-19)
(-0.00058055212 0.0026580332 -7.8259711e-20)
(-0.00053583254 0.0026067704 -4.7443503e-20)
(-0.00049377104 0.0025568619 -1.0109965e-20)
(-0.00045422561 0.0025082864 -1.1587484e-21)
(-0.00041706412 0.0024610219 -6.1997892e-20)
(-0.00038216321 0.0024150469 -2.2707718e-20)
(-0.00034940778 0.0023703407 -1.9303583e-20)
(-0.00031868963 0.002326883 -4.8985393e-21)
(-0.00028990717 0.0022846538 -2.9228568e-20)
(-0.0002629653 0.0022436341 -6.7536768e-20)
(-0.00023777513 0.0022038072 -3.8923468e-20)
(-0.00021425154 0.0021651558 -1.4172828e-20)
(-0.00019231341 0.0021276638 -1.0075142e-20)
(-0.00017188518 0.0020913162 -2.0446682e-20)
(-0.00015289471 0.0020560988 -2.6256007e-20)
(-0.00013527309 0.0020219983 -1.1350695e-20)
(-0.00011895375 0.0019890015 -1.1080637e-22)
(-0.00010387459 0.0019570978 -1.8113008e-21)
(-8.9973914e-05 0.0019262733 -1.4100779e-20)
(-7.7195549e-05 0.0018965183 -1.9164422e-20)
(-6.548487e-05 0.0018678234 -2.5907663e-20)
(-5.478587e-05 0.0018401765 -1.5484484e-20)
(-4.5047818e-05 0.0018135686 1.3818607e-21)
(-3.6219576e-05 0.0017879907 1.0744294e-20)
(-2.825521e-05 0.0017634297 3.3152904e-21)
(-2.1111481e-05 0.0017398817 1.2945337e-20)
(-1.4738567e-05 0.0017173369 -3.7024825e-21)
(-9.094689e-06 0.001695785 3.0951794e-21)
(-4.1401304e-06 0.0016752184 -1.8913091e-21)
(1.6706259e-07 0.0016556281 -5.5487643e-21)
(3.8661441e-06 0.0016370046 -6.8985379e-21)
(6.9947646e-06 0.0016193436 -1.020818e-21)
(9.5887194e-06 0.0016026319 -1.1034184e-21)
(1.168454e-05 0.0015868651 2.014002e-21)
(1.3315938e-05 0.001572034 2.9266544e-21)
(1.4516709e-05 0.0015581309 -2.6858644e-21)
(1.5319188e-05 0.0015451483 -4.2570055e-21)
(1.5754793e-05 0.0015330787 -3.3861939e-21)
(1.5854091e-05 0.0015219146 -7.2448966e-21)
(1.564681e-05 0.0015116488 -9.3766277e-21)
(1.5161923e-05 0.0015022739 -9.5435469e-22)
(1.4427551e-05 0.0014937831 3.5376091e-21)
(1.3471161e-05 0.001486169 3.5248293e-21)
(1.2319521e-05 0.0014794242 9.0142069e-21)
(1.0998782e-05 0.0014735406 3.8112452e-21)
(9.5345318e-06 0.0014685084 -4.0607836e-21)
(7.9519726e-06 0.0014643148 -4.2179003e-21)
(6.2757509e-06 0.0014609414 -9.5975004e-21)
(4.5280379e-06 0.0014583612 -1.6984526e-20)
(2.7292581e-06 0.0014565359 -2.2054238e-20)
(9.0644324e-07 0.001455449 -2.6887563e-20)
(-0.0042752508 0.0043694673 4.2378234e-20)
(-0.0040242113 0.0043227095 -8.7199828e-21)
(-0.003786408 0.004271433 -1.6792985e-19)
(-0.0035613251 0.0042163122 -2.9738758e-19)
(-0.0033484398 0.0041579672 -1.4041133e-19)
(-0.0031472261 0.0040969662 -4.9471868e-20)
(-0.0029571585 0.0040338266 -1.8927982e-19)
(-0.0027777152 0.0039690173 2.0646759e-19)
(-0.0026083811 0.0039029609 2.0880385e-20)
(-0.0024486496 0.0038360359 -7.7185988e-21)
(-0.0022980261 0.0037685796 2.2514991e-19)
(-0.0021560291 0.0037008897 5.612512e-20)
(-0.0020221923 0.0036332283 1.1002284e-19)
(-0.0018960659 0.0035658232 3.2479828e-20)
(-0.0017772175 0.0034988719 5.1398494e-20)
(-0.0016652333 0.0034325432 5.4356879e-21)
(-0.0015597184 0.0033669801 -2.4663413e-19)
(-0.0014602973 0.0033023027 -7.333131e-20)
(-0.0013666137 0.0032386102 4.7916223e-20)
(-0.001278331 0.0031759832 2.187586e-20)
(-0.0011951314 0.0031144859 6.5179162e-20)
(-0.0011167163 0.0030541684 -7.8736058e-20)
(-0.0010428054 0.0029950684 -5.0470806e-20)
(-0.00097313541 0.002937213 5.2465151e-20)
(-0.00090745988 0.0028806203 4.6652152e-20)
(-0.00084554924 0.0028253009 3.4321447e-20)
(-0.00078718857 0.0027712584 -4.6708222e-20)
(-0.00073217808 0.0027184921 3.5811934e-21)
(-0.00068033112 0.0026669971 -1.5485396e-20)
(-0.00063147288 0.002616765 -4.0675499e-21)
(-0.00058544156 0.0025677853 -4.5423372e-21)
(-0.00054208577 0.0025200454 -1.0025989e-19)
(-0.00050126413 0.0024735313 1.1614853e-20)
(-0.00046284476 0.0024282285 6.1726845e-20)
(-0.00042670429 0.0023841222 1.0865694e-20)
(-0.00039272726 0.0023411973 6.1842933e-21)
(-0.00036080495 0.0022994391 -7.9101714e-20)
(-0.00033083555 0.0022588323 -2.998658e-20)
(-0.00030272329 0.0022193628 3.0476583e-20)
(-0.00027637787 0.0021810166 8.1633136e-21)
(-0.00025171383 0.0021437814 1.5226054e-20)
(-0.00022864972 0.0021076436 -4.2574359e-20)
(-0.00020710899 0.0020725913 9.8300322e-21)
(-0.00018701854 0.0020386127 3.8821243e-20)
(-0.00016830904 0.0020056974 7.3101703e-21)
(-0.00015091281 0.0019738341 4.7695238e-22)
(-0.0001347685 0.0019430132 -4.6987355e-20)
(-0.00011981493 0.0019132249 -3.5960072e-20)
(-0.00010599086 0.0018844581 1.1957264e-20)
(-9.3243985e-05 0.001856707 3.7074262e-21)
(-8.1520485e-05 0.0018299623 7.3603637e-21)
(-7.0766257e-05 0.0018042135 -2.2172523e-20)
(-6.0931726e-05 0.0017794534 -5.8204783e-21)
(-5.1968671e-05 0.0017556725 2.4009297e-20)
(-4.3833469e-05 0.0017328648 4.8447007e-22)
(-3.6480109e-05 0.0017110234 5.1507226e-21)
(-2.9862617e-05 0.0016901369 -9.282862e-21)
(-2.3941618e-05 0.0016702016 -8.0082364e-21)
(-1.8678194e-05 0.0016512085 8.643602e-21)
(-1.4028499e-05 0.0016331491 -2.0562297e-21)
(-9.9584809e-06 0.0016160171 -1.0058955e-20)
(-6.4316739e-06 0.0015998048 -9.6317412e-21)
(-3.4089882e-06 0.0015845052 -1.5965557e-21)
(-8.5936826e-07 0.0015701109 3.375663e-21)
(1.2526555e-06 0.0015566151 -3.670038e-21)
(2.9590766e-06 0.001544011 -5.134177e-21)
(4.2913245e-06 0.0015322911 -2.7277645e-20)
(5.2802431e-06 0.0015214488 -1.2875081e-20)
(5.9554948e-06 0.0015114775 1.8309172e-21)
(6.3462926e-06 0.0015023705 6.0208682e-21)
(6.4808856e-06 0.0014941213 7.4850074e-21)
(6.3868914e-06 0.001486723 -1.3032329e-21)
(6.0911767e-06 0.001480169 6.7134641e-21)
(5.620046e-06 0.0014744509 9.4327856e-21)
(4.9993742e-06 0.0014695598 5.7305718e-22)
(4.2543735e-06 0.0014654832 -7.7446529e-21)
(3.4097731e-06 0.0014622033 -1.8244612e-20)
(2.4882894e-06 0.0014596935 -1.928154e-20)
(1.5112318e-06 0.0014579171 -3.255597e-20)
(5.0340516e-07 0.0014568587 -3.705473e-20)
(-0.0043148364 0.0041675848 3.9642975e-19)
(-0.0040687978 0.0041302473 -2.1367743e-19)
(-0.0038353058 0.0040881541 -9.5211025e-19)
(-0.0036138967 0.0040419552 -4.5939536e-19)
(-0.0034040988 0.003992251 -2.5142721e-19)
(-0.0032054357 0.0039395939 -1.2421139e-19)
(-0.0030174298 0.0038844896 -5.3621761e-19)
(-0.0028396048 0.0038273985 -2.7805338e-19)
(-0.0026714894 0.0037687384 5.3003523e-20)
(-0.0025126186 0.0037088859 -1.0567694e-19)
(-0.0023625365 0.0036481787 5.0175444e-20)
(-0.0022207983 0.0035869177 -2.0658047e-19)
(-0.002086972 0.0035253705 -1.7979336e-19)
(-0.001960639 0.0034637716 1.4933712e-19)
(-0.0018413959 0.0034023271 -4.2209228e-20)
(-0.0017288554 0.0033412156 -1.3827762e-19)
(-0.0016226468 0.0032805909 -3.5681643e-19)
(-0.0015224161 0.0032205847 -2.1247342e-19)
(-0.0014278268 0.0031613081 2.701414e-20)
(-0.0013385594 0.0031028542 -5.9075534e-20)
(-0.0012543115 0.0030452999 1.1498004e-20)
(-0.0011747976 0.0029887077 -1.2855093e-19)
(-0.0010997492 0.0029331279 -1.3278228e-19)
(-0.0010289132 0.0028785998 1.9617824e-22)
(-0.00096205157 0.0028251535 -2.3987042e-20)
(-0.00089894196 0.0027728105 -1.7494152e-20)
(-0.00083937549 0.0027215857 -6.1411805e-20)