/*--------------------------------*- C++ -*----------------------------------*\
| =========                 |                                                 |
| \\      /  F ield         | OpenFOAM: The Open Source CFD Toolbox           |
|  \\    /   O peration     | Version:  2106                                  |
|   \\  /    A nd           | Website:  www.openfoam.com                      |
|    \\/     M anipulation  |                                                 |
\*---------------------------------------------------------------------------*/
FoamFile
{
    version     2.0;
    format      ascii;
    arch        "LSB;label=32;scalar=64";
    class       volVectorField;
    location    "0.047";
    object      U;
}
// * * * * * * * * * * * * * * * * * * * * * * * * * * * * * * * * * * * * * //

dimensions      [0 1 -1 0 0 0 0];

internalField   nonuniform List<vector> 
4096
(
(-0.00092079051 0.00091739899 0)
(-0.0027533121 0.00090850879 0)
(-0.0045591532 0.00089081639 0)
(-0.0063208199 0.00086449633 0)
(-0.0080212539 0.00082980813 0)
(-0.0096440007 0.00078709355 0)
(-0.011173371 0.000736773 0)
(-0.012594594 0.00067934112 0)
(-0.01389396 0.00061536165 0)
(-0.015058958 0.00054546157 0)
(-0.016078389 0.00047032466 0)
(-0.01694248 0.00039068447 0)
(-0.01764297 0.00030731692 0)
(-0.018173191 0.00022103224 0)
(-0.018528134 0.00013266619 0)
(-0.018704471 4.3078775e-05 0)
(-0.01870063 -4.6871633e-05 0)
(-0.018516747 -0.00013631571 0)
(-0.018154703 -0.00022439469 0)
(-0.017618087 -0.00031026453 0)
(-0.016912159 -0.0003931043 0)
(-0.016043794 -0.00047212387 0)
(-0.015021415 -0.00054657119 0)
(-0.01385491 -0.0006157392 0)
(-0.012555535 -0.00067897226 0)
(-0.011135801 -0.00073567206 0)
(-0.0096093606 -0.000785303 0)
(-0.007990871 -0.00082739691 0)
(-0.0062958579 -0.00086155722 0)
(-0.0045405673 -0.00088746244 0)
(-0.0027418123 -0.00090486897 0)
(-0.0009168143 -0.00091361322 0)
(0.00091695855 -0.00091361302 0)
(0.0027419557 -0.00090486836 0)
(0.0045407091 -0.0008874614 0)
(0.0062959972 -0.00086155571 0)
(0.0079910068 -0.00082739488 0)
(0.0096094918 -0.0007853004 0)
(0.011135927 -0.00073566885 0)
(0.012555653 -0.00067896839 0)
(0.01385502 -0.00061573466 0)
(0.015021515 -0.00054656598 0)
(0.016043883 -0.00047211802 0)
(0.016912236 -0.00039309785 0)
(0.017618151 -0.00031025755 0)
(0.018154752 -0.00022438728 0)
(0.01851678 -0.00013630799 0)
(0.018700648 -4.6863717e-05 0)
(0.018704473 4.3086743e-05 0)
(0.01852812 0.00013267407 0)
(0.018173161 0.00022103991 0)
(0.017642925 0.00030732425 0)
(0.016942421 0.00039069135 0)
(0.016078317 0.000470331 0)
(0.015058873 0.00054546732 0)
(0.013893865 0.00061536675 0)
(0.012594488 0.00067934555 0)
(0.011173258 0.00073677676 0)
(0.0096438806 0.00078709666 0)
(0.0080211282 0.00082981061 0)
(0.0063206899 0.00086449821 0)
(0.00455902 0.0008908177 0)
(0.0027531768 0.00090850957 0)
(0.00092065424 0.00091739925 0)
(-0.00092932436 0.0027590242 0)
(-0.0027788289 0.0027322867 0)
(-0.0046014031 0.0026790764 0)
(-0.0063793893 0.0025999183 0)
(-0.0080955699 0.0024955929 0)
(-0.0097333367 0.0023671283 0)
(-0.011276854 0.0022157889 0)
(-0.012711214 0.0020430624 0)
(-0.01402258 0.0018506446 0)
(-0.015198325 0.0016404212 0)
(-0.016227148 0.0014144487 0)
(-0.017099185 0.0011749335 0)
(-0.017806102 0.00092420918 0)
(-0.01834117 0.00066471305 0)
(-0.018699334 0.00039896126 0)
(-0.018877246 0.00012952732 0)
(-0.018873307 -0.00014098841 0)
(-0.018687667 -0.00040998242 0)
(-0.018322225 -0.0006748703 0)
(-0.017780604 -0.00093311358 0)
(-0.017068114 -0.0011822435 0)
(-0.016191697 -0.0014198839 0)
(-0.015159853 -0.0016437732 0)
(-0.013982564 -0.0018517851 0)
(-0.012671189 -0.0020419481 0)
(-0.011238355 -0.002212463 0)
(-0.0096978405 -0.0023617192 0)
(-0.0080644366 -0.0024883089 0)
(-0.0063538114 -0.0025910396 0)
(-0.0045823593 -0.0026689446 0)
(-0.0027670467 -0.0027212914 0)
(-0.00092525209 -0.002747588 0)
(0.0009253973 -0.0027475874 0)
(0.0027671911 -0.0027212896 0)
(0.0045825022 -0.0026689415 0)
(0.0063539519 -0.0025910351 0)
(0.0080645738 -0.0024883029 0)
(0.0096979732 -0.0023617115 0)
(0.011238483 -0.0022124534 0)
(0.012671309 -0.0020419365 0)
(0.013982676 -0.0018517715 0)
(0.015159955 -0.0016437575 0)
(0.016191787 -0.0014198663 0)
(0.017068193 -0.0011822241 0)
(0.017780669 -0.00093309255 0)
(0.018322275 -0.00067484796 0)
(0.018687701 -0.00040995912 0)
(0.018873325 -0.00014096454 0)
(0.018877248 0.00012955135 0)
(0.018699319 0.00039898503 0)
(0.018341139 0.00066473617 0)
(0.017806056 0.00092423126 0)
(0.017099125 0.0011749542 0)
(0.016227074 0.0014144678 0)
(0.015198239 0.0016404385 0)
(0.014022483 0.0018506599 0)
(0.012711107 0.0020430757 0)
(0.011276739 0.0022158001 0)
(0.009733215 0.0023671376 0)
(0.0080954427 0.0024956003 0)
(0.0063792579 0.0025999239 0)
(0.0046012686 0.0026790803 0)
(0.0027786923 0.002732289 0)
(0.00092918687 0.002759025 0)
(-0.00094255191 0.0046241246 0)
(-0.0028183803 0.0045793102 0)
(-0.0046668923 0.0044901251 0)
(-0.006470177 0.0043574495 0)
(-0.0082107703 0.0041825919 0)
(-0.0098718263 0.0039672755 0)
(-0.011437283 0.0037136202 0)
(-0.01289202 0.00342412 0)
(-0.014222004 0.0031016174 0)
(-0.015414429 0.0027492733 0)
(-0.016457832 0.0023705353 0)
(-0.017342213 0.0019691015 0)
(-0.018059118 0.0015488836 0)
(-0.018601728 0.001113967 0)
(-0.018964915 0.00066857003 0)
(-0.019145289 0.0002170037 0)
(-0.019141228 -0.00023637337 0)
(-0.018952887 -0.00068719615 0)
(-0.018582196 -0.0011311341 0)
(-0.018032831 -0.0015639332 0)
(-0.01731018 -0.0019814562 0)
(-0.016421283 -0.0023797212 0)
(-0.015374766 -0.0027549383 0)
(-0.01418075 -0.0031035447 0)
(-0.012850757 -0.0034222365 0)
(-0.011397594 -0.003707999 0)
(-0.0098352324 -0.0039581334 0)
(-0.0081786747 -0.004170281 0)
(-0.0064438091 -0.0043424436 0)
(-0.004647261 -0.0044730014 0)
(-0.0028062357 -0.004560727 0)
(-0.00093835607 -0.0046047963 0)
(0.00093850292 -0.0046047954 0)
(0.0028063819 -0.0045607241 0)
(0.0046474058 -0.0044729964 0)
(0.0064439517 -0.0043424363 0)
(0.0081788141 -0.0041702711 0)
(0.0098353676 -0.0039581207 0)
(0.011397723 -0.0037079831 0)
(0.012850879 -0.0034222173 0)
(0.014180865 -0.003103522 0)
(0.015374871 -0.0027549122 0)
(0.016421377 -0.0023796916 0)
(0.017310261 -0.0019814235 0)
(0.018032898 -0.0015638977 0)
(0.018582248 -0.0011310964 0)
(0.018952923 -0.00068715683 0)
(0.019141246 -0.00023633306 0)
(0.019145291 0.00021704429 0)
(0.0189649 0.00066861017 0)
(0.018601696 0.001114006 0)
(0.018059071 0.0015489209 0)
(0.01734215 0.0019691364 0)
(0.016457756 0.0023705674 0)
(0.01541434 0.0027493023 0)
(0.014221905 0.003101643 0)
(0.01289191 0.0034241422 0)
(0.011437165 0.0037136389 0)
(0.009871702 0.0039672909 0)
(0.0082106406 0.0041826041 0)
(0.0064700433 0.0043574587 0)
(0.0046667555 0.0044901316 0)
(0.0028182417 0.004579314 0)
(0.00094241235 0.0046241258 0)
(-0.00096088018 0.0065206368 0)
(-0.0028731833 0.0064574391 0)
(-0.0047576356 0.0063316694 0)
(-0.0065959761 0.0061445691 0)
(-0.0083703992 0.0058979841 0)
(-0.01006373 0.005594345 0)
(-0.011659594 0.0052366416 0)
(-0.013142574 0.0048283917 0)
(-0.014498367 0.0043736043 0)
(-0.015713916 0.0038767378 0)
(-0.016777538 0.0033426544 0)
(-0.017679039 0.0027765698 0)
(-0.018409803 0.0021840005 0)
(-0.01896288 0.0015707082 0)
(-0.019333046 0.0009426421 0)
(-0.019516848 0.00030588031 0)
(-0.019512635 -0.00033343053 0)
(-0.019320568 -0.00096913467 0)
(-0.018942616 -0.001595126 0)
(-0.018382531 -0.0022054063 0)
(-0.017645805 -0.0027941424 0)
(-0.01673962 -0.0033557198 0)
(-0.015672767 -0.0038847951 0)
(-0.014455568 -0.0043763452 0)
(-0.013099766 -0.0048257121 0)
(-0.011618418 -0.0052286457 0)
(-0.010025767 -0.0055813412 0)
(-0.0083371029 -0.0058804732 0)
(-0.0065686224 -0.006123225 0)
(-0.0047372713 -0.006307313 0)
(-0.0028605863 -0.006431007 0)
(-0.00095652974 -0.0064931452 0)
(0.00095667909 -0.0064931439 0)
(0.0028607351 -0.0064310032 0)
(0.0047374189 -0.0063073063 0)
(0.0065687682 -0.0061232151 0)
(0.0083372458 -0.0058804598 0)
(0.010025906 -0.0055813237 0)
(0.011618552 -0.0052286238 0)
(0.013099893 -0.0048256854 0)
(0.014455687 -0.0043763135 0)
(0.015672876 -0.0038847584 0)
(0.016739717 -0.0033556781 0)
(0.01764589 -0.0027940961 0)
(0.018382601 -0.0022053561 0)
(0.01894267 -0.0015950724 0)
(0.019320605 -0.00096907865 0)
(0.019512654 -0.00033337307 0)
(0.01951685 0.00030593817 0)
(0.01933303 0.00094269931 0)
(0.018962847 0.0015707638 0)
(0.018409753 0.0021840534 0)
(0.017678973 0.0027766192 0)
(0.016777458 0.0033426998 0)
(0.015713823 0.0038767786 0)
(0.014498263 0.0043736403 0)
(0.013142461 0.0048284227 0)
(0.011659472 0.0052366677 0)
(0.010063602 0.0055943663 0)
(0.0083702657 0.005898001 0)
(0.0065958388 0.0061445818 0)
(0.0047574955 0.0063316782 0)
(0.0028730415 0.0064574442 0)
(0.00096073749 0.0065206385 0)
(-0.00098453954 0.0084588778 0)
(-0.0029439266 0.0083768901 0)
(-0.0048747735 0.0082137264 0)
(-0.0067583672 0.0079709977 0)
(-0.0085764618 0.007651099 0)
(-0.010311458 0.0072571845 0)
(-0.011946577 0.0067931335 0)
(-0.013466022 0.0062635108 0)
(-0.014855136 0.005673518 0)
(-0.016100543 0.0050289401 0)
(-0.017190274 0.0043360856 0)
(-0.018113884 0.0036017216 0)
(-0.018862549 0.0028330054 0)
(-0.01942915 0.002037412 0)
(-0.019808336 0.0012226594 0)
(-0.019996574 0.00039663249 0)
(-0.019992175 -0.00043269495 0)
(-0.019795308 -0.0012573374 0)
(-0.019407993 -0.0020693742 0)
(-0.018834075 -0.0028610251 0)
(-0.018079187 -0.0036247236 0)
(-0.017150686 -0.0043531875 0)
(-0.016057583 -0.0050394865 0)
(-0.014810452 -0.0056771052 0)
(-0.013421329 -0.0062600026 0)
(-0.011903589 -0.0067826663 0)
(-0.010271825 -0.007240162 0)
(-0.0085417016 -0.007628177 0)
(-0.0067298116 -0.0079430582 0)
(-0.0048535152 -0.0081818441 0)
(-0.0029307777 -0.0083422911 0)
(-0.00098000028 -0.0084228922 0)
(0.00098015303 -0.0084228907 0)
(0.0029309301 -0.0083422864 0)
(0.0048536667 -0.008181836 0)
(0.0067299616 -0.0079430461 0)
(0.0085418493 -0.0076281604 0)
(0.010271969 -0.0072401402 0)
(0.011903729 -0.0067826386 0)
(0.013421462 -0.0062599685 0)
(0.014810578 -0.0056770644 0)
(0.016057698 -0.0050394389 0)
(0.017150789 -0.0043531333 0)
(0.018079277 -0.0036246632 0)
(0.01883415 -0.0028609592 0)
(0.01940805 -0.0020693038 0)
(0.019795348 -0.0012572637 0)
(0.019992196 -0.00043261929 0)
(0.019996576 0.00039670869 0)
(0.019808319 0.0012227347 0)
(0.019429114 0.002037485 0)
(0.018862495 0.0028330748 0)
(0.018113813 0.0036017864 0)
(0.017190189 0.0043361448 0)
(0.016100445 0.0050289932 0)
(0.014855026 0.0056735645 0)
(0.013465902 0.0062635507 0)
(0.011946449 0.0067931669 0)
(0.010311324 0.0072572115 0)
(0.0085763231 0.0076511203 0)
(0.0067582249 0.0079710135 0)
(0.0048746287 0.0082137373 0)
(0.0029437804 0.0083768965 0)
(0.00098439259 0.0084588799 0)
(-0.0010136173 0.010449709 0)
(-0.0030308713 0.010348418 0)
(-0.005018738 0.010146841 0)
(-0.006957949 0.009846967 0)
(-0.0088297172 0.0094517563 0)
(-0.010615922 0.0089651061 0)
(-0.012299286 0.0083918105 0)
(-0.013863548 0.0077375099 0)
(-0.015293618 0.0070086318 0)
(-0.016575723 0.0062123243 0)
(-0.017697545 0.0053563821 0)
(-0.01864833 0.0044491665 0)
(-0.019419 0.0034995204 0)
(-0.020002226 0.0025166791 0)
(-0.020392505 0.0015101776 0)
(-0.0205862 0.00048975661 0)
(-0.020581579 -0.00053473332 0)
(-0.020378818 -0.0015534275 0)
(-0.01998 -0.002556542 0)
(-0.019389087 -0.0035344662 0)
(-0.01861188 -0.0044778541 0)
(-0.017655956 -0.005377711 0)
(-0.016530592 -0.0062254769 0)
(-0.015246677 -0.0070131047 0)
(-0.013816598 -0.0077331334 0)
(-0.012254129 -0.0083787548 0)
(-0.010574288 -0.0089438748 0)
(-0.0087932034 -0.0094231672 0)
(-0.0069279537 -0.0098121205 0)
(-0.0049964089 -0.010107077 0)
(-0.0030170614 -0.010305267 0)
(-0.0010088518 -0.010404828 0)
(0.0010090087 -0.010404827 0)
(0.0030172182 -0.010305262 0)
(0.0049965654 -0.010107068 0)
(0.0069281093 -0.0098121069 0)
(0.0087933573 -0.0094231481 0)
(0.010574439 -0.0089438492 0)
(0.012254276 -0.0083787218 0)
(0.01381674 -0.0077330923 0)
(0.01524681 -0.007013055 0)
(0.016530716 -0.0062254183 0)
(0.017656067 -0.0053776437 0)
(0.018611977 -0.0044777787 0)
(0.019389168 -0.0035343837 0)
(0.019980062 -0.0025564536 0)
(0.020378861 -0.0015533348 0)
(0.020581602 -0.00053463802 0)
(0.020586202 0.00048985261 0)
(0.020392485 0.0015102724 0)
(0.020002187 0.0025167708 0)
(0.019418941 0.0034996075 0)
(0.018648254 0.0044492475 0)
(0.017697452 0.0053564558 0)
(0.016575617 0.00621239 0)
(0.0152935 0.007008689 0)
(0.013863421 0.0077375586 0)
(0.012299151 0.0083918508 0)
(0.01061578 0.0089651385 0)
(0.0088295715 0.0094517815 0)
(0.0069578003 0.0098469857 0)
(0.0050185874 0.010146854 0)
(0.0030307196 0.010348426 0)
(0.001013465 0.010449711 0)
(-0.0010481187 0.012503989 0)
(-0.0031340331 0.012382778 0)
(-0.0051895546 0.012141557 0)
(-0.0071947561 0.011782708 0)
(-0.009130208 0.011309773 0)
(-0.010977171 0.010727419 0)
(-0.012717778 0.010041383 0)
(-0.014335213 0.0092584174 0)
(-0.015813873 0.0083862142 0)
(-0.017139519 0.0074333293 0)
(-0.018299413 0.0064090919 0)
(-0.019282441 0.0053235087 0)
(-0.020079216 0.0041871626 0)
(-0.020682166 0.0030111056 0)
(-0.021085604 0.0018067479 0)
(-0.021285776 0.00058574543 0)
(-0.021280892 -0.00064011505 0)
(-0.021071139 -0.0018590301 0)
(-0.020658675 -0.0030592933 0)
(-0.020047601 -0.0042294061 0)
(-0.019243917 -0.0053581868 0)
(-0.018255458 -0.0064348743 0)
(-0.017091821 -0.0074492277 0)
(-0.015764262 -0.00839162 0)
(-0.014285594 -0.0092531254 0)
(-0.012670053 -0.0100256 0)
(-0.010933171 -0.010701753 0)
(-0.0090916203 -0.011275213 0)
(-0.0071630582 -0.011740583 0)
(-0.0051659594 -0.012093489 0)
(-0.0031194415 -0.012330616 0)
(-0.0010430857 -0.012449737 0)
(0.0010432474 -0.012449735 0)
(0.0031196034 -0.01233061 0)
(0.0051661216 -0.01209348 0)
(0.0071632204 -0.011740569 0)
(0.0090917819 -0.011275192 0)
(0.010933331 -0.010701724 0)
(0.01267021 -0.010025562 0)
(0.014285745 -0.0092530777 0)
(0.015764407 -0.0083915613 0)
(0.017091955 -0.0074491578 0)
(0.018255579 -0.0064347934 0)
(0.019244023 -0.0053580955 0)
(0.02004769 -0.0042293057 0)
(0.020658744 -0.0030591853 0)
(0.021071186 -0.0018589166 0)
(0.021280916 -0.00063999819 0)
(0.021285777 0.00058586317 0)
(0.021085583 0.0018068641 0)
(0.020682122 0.0030112178 0)
(0.020079151 0.0041872688 0)
(0.019282357 0.0053236071 0)
(0.018299312 0.006409181 0)
(0.017139403 0.0074334082 0)
(0.015813745 0.0083862823 0)
(0.014335075 0.0092584747 0)
(0.012717633 0.01004143 0)
(0.01097702 0.010727456 0)
(0.0091300539 0.011309802 0)
(0.0071945998 0.011782728 0)
(0.005189397 0.012141571 0)
(0.0031338748 0.012382786 0)
(0.0010479602 0.012503992 0)
(-0.0010880631 0.014632524 0)
(-0.0032534699 0.014490668 0)
(-0.0053873194 0.014208362 0)
(-0.0074689206 0.013788395 0)
(-0.0094781003 0.013234915 0)
(-0.011395402 0.012553382 0)
(-0.013202277 0.011750514 0)
(-0.014881266 0.010834215 0)
(-0.016416174 0.0098134903 0)
(-0.017792219 0.0086983544 0)
(-0.018996181 0.0074997271 0)
(-0.020016526 0.0062293213 0)
(-0.020843515 0.0048995232 0)
(-0.021469291 0.0035232676 0)
(-0.021887956 0.0021139079 0)
(-0.022095618 0.0006850843 0)
(-0.022090425 -0.00074941027 0)
(-0.021872576 -0.0021757641 0)
(-0.021444315 -0.0035802793 0)
(-0.020809902 -0.004949502 0)
(-0.019975567 -0.006270349 0)
(-0.018949448 -0.0075302298 0)
(-0.017741506 -0.0087171626 0)
(-0.016363429 -0.0098198842 0)
(-0.014828513 -0.010827952 0)
(-0.013151539 -0.011731838 0)
(-0.011348625 -0.012523013 0)
(-0.0094370785 -0.013194024 0)
(-0.0074352246 -0.013738556 0)
(-0.0053622384 -0.014151492 0)
(-0.0032379615 -0.014428954 0)
(-0.0010827167 -0.014568339 0)
(0.0010828834 -0.014568337 0)
(0.0032381289 -0.01442895 0)
(0.0053624069 -0.014151483 0)
(0.0074353945 -0.013738542 0)
(0.0094372492 -0.013194002 0)
(0.011348796 -0.012522983 0)
(0.013151707 -0.011731797 0)
(0.014828678 -0.010827898 0)
(0.016363586 -0.0098198169 0)
(0.017741654 -0.0087170812 0)
(0.018949582 -0.0075301344 0)
(0.019975685 -0.0062702405 0)
(0.02081 -0.0049493819 0)
(0.021444391 -0.0035801496 0)
(0.021872629 -0.0021756274 0)
(0.022090452 -0.0007492694 0)
(0.022095619 0.00068522626 0)
(0.021887931 0.0021140478 0)
(0.021469241 0.0035234025 0)
(0.020843441 0.0048996505 0)
(0.020016432 0.0062294386 0)
(0.018996068 0.0074998327 0)
(0.01779209 0.008698447 0)
(0.016416033 0.0098135695 0)
(0.014881116 0.010834281 0)
(0.013202119 0.011750567 0)
(0.01139524 0.012553423 0)
(0.0094779361 0.013234946 0)
(0.0074687553 0.013788417 0)
(0.0053871537 0.014208377 0)
(0.0032533044 0.014490677 0)
(0.0010878977 0.014632527 0)
(-0.0011336242 0.016846229 0)
(-0.0033897014 0.016682898 0)
(-0.0056128918 0.016357855 0)
(-0.007781633 0.015874311 0)
(-0.0098749026 0.015237044 0)
(-0.011872426 0.014452344 0)
(-0.013754876 0.013527949 0)
(-0.015504062 0.012472962 0)
(-0.017103109 0.011297753 0)
(-0.018536622 0.010013857 0)
(-0.019790829 0.0086338483 0)
(-0.020853719 0.0071712158 0)
(-0.021715149 0.0056402217 0)
(-0.022366943 0.0040557594 0)
(-0.02280296 0.0024332034 0)
(-0.023019153 0.00078825748 0)
(-0.023013598 -0.0008631996 0)
(-0.022786509 -0.0025052681 0)
(-0.022340228 -0.0041221799 0)
(-0.021679196 -0.0056984482 0)
(-0.020809908 -0.0072190135 0)
(-0.019740844 -0.0086693834 0)
(-0.01848238 -0.010035767 0)
(-0.017046695 -0.011305199 0)
(-0.015447639 -0.012465662 0)
(-0.01370061 -0.013506188 0)
(-0.011822398 -0.014416961 0)
(-0.0098310313 -0.015189402 0)
(-0.0077455982 -0.015816245 0)
(-0.005586072 -0.016291599 0)
(-0.0033731205 -0.016611001 0)
(-0.0011279118 -0.016771454 0)
(0.0011280833 -0.016771453 0)
(0.0033732933 -0.016610997 0)
(0.0055862474 -0.016291592 0)
(0.0077457766 -0.015816232 0)
(0.0098312126 -0.015189382 0)
(0.011822582 -0.014416931 0)
(0.013700793 -0.013506145 0)
(0.015447819 -0.012465603 0)
(0.017046869 -0.011305124 0)
(0.018482545 -0.010035673 0)
(0.019740994 -0.0086692726 0)
(0.020810041 -0.0072188862 0)
(0.021679307 -0.0056983062 0)
(0.022340314 -0.0041220258 0)
(0.022786568 -0.0025051052 0)
(0.023013628 -0.00086303156 0)
(0.023019153 0.00078842683 0)
(0.022802931 0.0024333701 0)
(0.022366885 0.0040559198 0)
(0.021715066 0.0056403724 0)
(0.020853612 0.0071713538 0)
(0.019790702 0.0086339716 0)
(0.018536478 0.010013964 0)
(0.017102952 0.011297843 0)
(0.015503896 0.012473035 0)
(0.013754703 0.013528008 0)
(0.011872251 0.014452389 0)
(0.0098747265 0.015237076 0)
(0.0077814573 0.015874333 0)
(0.0056127172 0.016357869 0)
(0.003389528 0.016682906 0)
(0.0011334515 0.016846232 0)
(-0.0011853225 0.019156606 0)
(-0.0035442843 0.018970856 0)
(-0.005868849 0.018601196 0)
(-0.0081364645 0.018051282 0)
(-0.010325144 0.017326549 0)
(-0.012413684 0.016434153 0)
(-0.014381873 0.015382897 0)
(-0.016210691 0.014183138 0)
(-0.017882494 0.012846675 0)
(-0.019381188 0.011386628 0)
(-0.020692379 0.0098173023 0)
(-0.021803513 0.0081540392 0)
(-0.022703995 0.0064130606 0)
(-0.023385282 0.0046113044 0)
(-0.023840964 0.0027662547 0)
(-0.024066817 0.00089576848 0)
(-0.024060838 -0.00098209928 0)
(-0.023823256 -0.0028492707 0)
(-0.023356525 -0.0046878181 0)
(-0.022665294 -0.0064801346 0)
(-0.021756355 -0.008209099 0)
(-0.020638574 -0.0098582354 0)
(-0.019322803 -0.011411865 0)
(-0.017821771 -0.01285525 0)
(-0.01614996 -0.014174726 0)
(-0.014323465 -0.015357825 0)
(-0.01235984 -0.016393389 0)
(-0.010277928 -0.017271664 0)
(-0.0080976851 -0.01798439 0)
(-0.0058399894 -0.018524872 0)
(-0.0035264457 -0.018888034 0)
(-0.0011791821 -0.019070471 0)
(0.0011793575 -0.019070471 0)
(0.0035266235 -0.018888033 0)
(0.0058401715 -0.018524868 0)
(0.0080978727 -0.017984382 0)
(0.010278121 -0.017271648 0)
(0.012360038 -0.01639336 0)
(0.014323666 -0.015357781 0)
(0.01615016 -0.014174663 0)
(0.017821966 -0.012855167 0)
(0.019322988 -0.01141176 0)
(0.020638745 -0.0098581081 0)
(0.021756506 -0.0082089509 0)
(0.022665421 -0.0064799681 0)
(0.023356624 -0.0046876365 0)
(0.023823323 -0.002849078 0)
(0.024060872 -0.00098190013 0)
(0.024066817 0.00089596921 0)
(0.02384093 0.0027664521 0)
(0.023385215 0.0046114938 0)
(0.022703898 0.0064132377 0)
(0.02180339 0.0081542003 0)
(0.020692233 0.0098174449 0)
(0.019381024 0.01138675 0)
(0.017882318 0.012846776 0)
(0.016210505 0.014183219 0)
(0.014381683 0.015382959 0)
(0.012413493 0.016434198 0)
(0.010324954 0.01732658 0)
(0.0081362775 0.018051303 0)
(0.0058686651 0.018601209 0)
(0.003544103 0.018970863 0)
(0.0011851426 0.019156608 0)
(-0.0012442783 0.021576651 0)
(-0.0037205691 0.021367411 0)
(-0.0061607384 0.020951002 0)
(-0.0085411036 0.020331544 0)
(-0.010838577 0.019515164 0)
(-0.013030896 0.018509928 0)
(-0.015096839 0.017325757 0)
(-0.017016441 0.015974322 0)
(-0.018771181 0.014468919 0)
(-0.020344169 0.012824334 0)
(-0.021720303 0.011056686 0)
(-0.022886413 0.009183258 0)
(-0.023831388 0.0072223264 0)
(-0.024546271 0.0051929709 0)
(-0.025024347 0.0031148851 0)
(-0.02526119 0.0010081806 0)
(-0.025254709 -0.0011068092 0)
(-0.025005151 -0.0032097264 0)
(-0.0245151 -0.0052803834 0)
(-0.023789437 -0.0072989539 0)
(-0.022835295 -0.0092461591 0)
(-0.02166198 -0.011103447 0)
(-0.020280882 -0.012853163 0)
(-0.018705361 -0.014478711 0)
(-0.016950614 -0.015964706 0)
(-0.015033533 -0.017297108 0)
(-0.012972539 -0.018463352 0)
(-0.010787407 -0.019452457 0)
(-0.0084990793 -0.020255121 0)
(-0.0061294677 -0.020863804 0)
(-0.003701245 -0.021272793 0)
(-0.0012376339 -0.021478251 0)
(0.0012378117 -0.021478253 0)
(0.0037014265 -0.021272796 0)
(0.0061296559 -0.020863807 0)
(0.0084992764 -0.02025512 0)
(0.010787613 -0.019452447 0)
(0.012972754 -0.018463329 0)
(0.015033755 -0.017297066 0)
(0.016950838 -0.015964641 0)
(0.018705582 -0.014478621 0)
(0.020281094 -0.012853045 0)
(0.021662176 -0.011103302 0)
(0.022835468 -0.0092459878 0)
(0.023789583 -0.0072987594 0)
(0.024515213 -0.00528017 0)
(0.025005228 -0.0032094992 0)
(0.025254747 -0.0011065739 0)
(0.025261189 0.0010084177 0)
(0.025024306 0.0031151179 0)
(0.024546193 0.0051931936 0)
(0.023831275 0.0072225335 0)
(0.02288627 0.0091834451 0)
(0.021720134 0.011056849 0)
(0.020343981 0.012824473 0)
(0.01877098 0.014469031 0)
(0.017016232 0.015974409 0)
(0.015096628 0.017325821 0)
(0.013030686 0.018509972 0)
(0.010838372 0.019515192 0)
(0.0085409043 0.02033156 0)
(0.006160545 0.02095101 0)
(0.0037203804 0.021367415 0)
(0.0012440922 0.021576652 0)
(-0.0013125277 0.024122339 0)
(-0.0039246447 0.023888377 0)
(-0.006498641 0.023422771 0)
(-0.0090095241 0.022730131 0)
(-0.011432931 0.02181731 0)
(-0.013745368 0.020693334 0)
(-0.01592445 0.019369304 0)
(-0.017949112 0.017858275 0)
(-0.019799823 0.016175124 0)
(-0.021458771 0.014336388 0)
(-0.022910036 0.012360098 0)
(-0.024139738 0.010265583 0)
(-0.02513617 0.0080732805 0)
(-0.025889902 0.0058045241 0)
(-0.026393861 0.003481331 0)
(-0.026643398 0.0011261837 0)
(-0.026636316 -0.00123819 0)
(-0.026372886 -0.0035890362 0)
(-0.02585584 -0.0059037923 0)
(-0.025090331 -0.0081603002 0)
(-0.024083881 -0.010337013 0)
(-0.022846308 -0.012413198 0)
(-0.02138962 -0.014369122 0)
(-0.019727906 -0.016186237 0)
(-0.01787719 -0.017847347 0)
(-0.015855284 -0.019336761 0)
(-0.013681613 -0.020640434 0)
(-0.01137703 -0.021746092 0)
(-0.0089636198 -0.022643338 0)
(-0.0064644886 -0.023323745 0)
(-0.0039035465 -0.023780927 0)
(-0.0013052835 -0.024010597 0)
(0.0013054608 -0.024010601 0)
(0.0039037293 -0.023780937 0)
(0.0064646816 -0.023323757 0)
(0.0089638263 -0.022643348 0)
(0.011377251 -0.021746093 0)
(0.013681848 -0.02064042 0)
(0.01585553 -0.019336725 0)
(0.017877443 -0.017847284 0)
(0.019728158 -0.016186142 0)
(0.021389864 -0.014368992 0)
(0.022846535 -0.012413033 0)
(0.024084084 -0.010336816 0)
(0.025090501 -0.0081600734 0)
(0.025855973 -0.0059035419 0)
(0.026372976 -0.0035887686 0)
(0.02663636 -0.0012379125 0)
(0.026643395 0.0011264634 0)
(0.026393812 0.0034816053 0)
(0.025889808 0.0058047855 0)
(0.025136037 0.0080735223 0)
(0.02413957 0.0102658 0)
(0.022909839 0.012360285 0)
(0.021458553 0.014336544 0)
(0.019799592 0.016175246 0)
(0.017948875 0.017858366 0)
(0.015924213 0.019369367 0)
(0.013745137 0.020693374 0)
(0.011432708 0.021817331 0)
(0.0090093119 0.02273014 0)
(0.0064984387 0.023422773 0)
(0.00392445 0.023888377 0)
(0.0013123372 0.024122338 0)
(-0.0013933937 0.026814791 0)
(-0.0041664496 0.02655467 0)
(-0.0068990131 0.026037005 0)
(-0.0095645372 0.025266924 0)
(-0.012137145 0.024252056 0)
(-0.014591889 0.023002441 0)
(-0.016904996 0.021530432 0)
(-0.019054105 0.019850553 0)
(-0.021018484 0.017979356 0)
(-0.022779233 0.015935237 0)
(-0.024319463 0.013738248 0)
(-0.025624458 0.011409888 0)
(-0.026681808 0.0089728806 0)
(-0.02748152 0.0064509439 0)
(-0.02801611 0.0038685521 0)
(-0.028280658 0.0012506928 0)
(-0.028272847 -0.0013773762 0)
(-0.027992978 -0.0039903705 0)
(-0.027443956 -0.0065632193 0)
(-0.026631254 -0.0090713017 0)
(-0.025562857 -0.011490676 0)
(-0.024249182 -0.013798302 0)
(-0.022702972 -0.015972254 0)
(-0.020939173 -0.017991918 0)
(-0.018974791 -0.019838184 0)
(-0.016828726 -0.021493614 0)
(-0.014521589 -0.022942598 0)
(-0.012075512 -0.024171496 0)
(-0.0095139321 -0.025168751 0)
(-0.0068613708 -0.025924999 0)
(-0.0041432051 -0.026433142 0)
(-0.0013854272 -0.026688414 0)
(0.001385599 -0.026688421 0)
(0.0041433849 -0.026433161 0)
(0.0068615655 -0.025925026 0)
(0.0095141467 -0.025168779 0)
(0.012075749 -0.024171515 0)
(0.014521848 -0.0229426 0)
(0.016829003 -0.021493589 0)
(0.01897508 -0.019838125 0)
(0.020939465 -0.017991819 0)
(0.022703256 -0.015972111 0)
(0.024249448 -0.013798115 0)
(0.025563095 -0.011490448 0)
(0.026631455 -0.0090710372 0)
(0.027444112 -0.0065629253 0)
(0.027993084 -0.0039900551 0)
(0.028272898 -0.0013770487 0)
(0.028280653 0.0012510229 0)
(0.02801605 0.0038688752 0)
(0.027481408 0.0064512508 0)
(0.026681648 0.0089731629 0)
(0.025624258 0.011410139 0)
(0.024319231 0.013738462 0)
(0.022778977 0.01593541 0)
(0.021018215 0.017979488 0)
(0.019053832 0.019850646 0)
(0.016904728 0.02153049 0)
(0.014591632 0.023002471 0)
(0.012136904 0.024252065 0)
(0.0095643125 0.025266921 0)
(0.0068988038 0.026036996 0)
(0.0041662521 0.026554662 0)
(0.0013932026 0.026814787 0)
(-0.0014918925 0.029683245 0)
(-0.0044609851 0.029395239 0)
(-0.0073866936 0.028822077 0)
(-0.010240575 0.027969446 0)
(-0.012994909 0.026845797 0)
(-0.015622972 0.025462262 0)
(-0.018099303 0.023832529 0)
(-0.020399961 0.021972694 0)
(-0.022502753 0.019901095 0)
(-0.024387454 0.017638116 0)
(-0.026035999 0.015205969 0)
(-0.027432653 0.012628465 0)
(-0.028564154 0.0099307665 0)
(-0.029419833 0.0071391328 0)
(-0.029991699 0.0042806539 0)
(-0.03027451 0.0013829838 0)
(-0.030265805 -0.0015259292 0)
(-0.029965918 -0.0044181096 0)
(-0.029377967 -0.0072658199 0)
(-0.028507811 -0.01004182 0)
(-0.027363997 -0.01271962 0)
(-0.025957669 -0.015273727 0)
(-0.024302461 -0.017679877 0)
(-0.022414363 -0.019915259 0)
(-0.020311572 -0.021958723 0)
(-0.01801431 -0.02379097 0)
(-0.015544638 -0.025394722 0)
(-0.01292624 -0.026754882 0)
(-0.010184202 -0.027858659 0)
(-0.0073447707 -0.028695687 0)
(-0.0044351107 -0.029258111 0)
(-0.0014830452 -0.029540653 0)
(0.0014832038 -0.029540665 0)
(0.0044352807 -0.029258143 0)
(0.0073449622 -0.028695735 0)
(0.010184422 -0.027858712 0)
(0.012926493 -0.026754927 0)
(0.015544923 -0.025394748 0)
(0.018014623 -0.023790963 0)
(0.020311904 -0.021958674 0)
(0.022414703 -0.019915159 0)
(0.024302795 -0.017679721 0)
(0.025957985 -0.015273516 0)
(0.02736428 -0.012719357 0)
(0.02850805 -0.010041511 0)
(0.029378152 -0.0072654741 0)
(0.029966043 -0.0044177373 0)
(0.030265864 -0.001525542 0)
(0.030274503 0.0013833739 0)
(0.029991626 0.0042810351 0)
(0.029419697 0.0071394936 0)
(0.028563963 0.0099310963 0)
(0.027432413 0.012628755 0)
(0.026035722 0.015206212 0)
(0.024387151 0.017638308 0)
(0.022502437 0.019901235 0)
(0.020399645 0.021972784 0)
(0.018098998 0.023832576 0)
(0.015622686 0.025462275 0)
(0.012994648 0.026845787 0)
(0.01024034 0.027969422 0)
(0.007386481 0.028822052 0)
(0.0044607902 0.02939522 0)
(0.0014917069 0.029683238 0)
(-0.0016151276 0.032768847 0)
(-0.004829497 0.032450822 0)
(-0.0079968617 0.03181792 0)
(-0.011086407 0.030876426 0)
(-0.014068102 0.029635687 0)
(-0.016913 0.028108007 0)
(-0.019593532 0.026308518 0)
(-0.022083776 0.024255015 0)
(-0.024359713 0.021967767 0)
(-0.026399463 0.019469298 0)
(-0.02818349 0.016784151 0)
(-0.029694787 0.013938629 0)
(-0.030919032 0.010960522 0)
(-0.031844706 0.0078788222 0)
(-0.032463196 0.0047234318 0)
(-0.032768854 0.0015248683 0)
(-0.03275904 -0.0016860319 0)
(-0.032434131 -0.004878406 0)
(-0.031797507 -0.008021655 0)
(-0.030855511 -0.011085728 0)
(-0.029617386 -0.014041398 0)
(-0.028095182 -0.016860538 0)
(-0.026303644 -0.01951637 0)
(-0.024260067 -0.021983721 0)
(-0.021984135 -0.024239246 0)
(-0.019497725 -0.026261641 0)
(-0.016824708 -0.028031836 0)
(-0.013990712 -0.029533163 0)
(-0.011022886 -0.030751503 0)
(-0.0079496384 -0.031675411 0)
(-0.0048003699 -0.032296214 0)
(-0.0016051973 -0.032608088 0)
(0.0016053305 -0.032608107 0)
(0.0048005194 -0.032296266 0)
(0.0079498185 -0.031675488 0)
(0.011023108 -0.030751592 0)
(0.013990981 -0.029533247 0)
(0.016825023 -0.028031898 0)
(0.019498082 -0.026261663 0)
(0.021984521 -0.024239213 0)
(0.024260468 -0.021983624 0)
(0.026304041 -0.019516202 0)
(0.028095558 -0.016860299 0)
(0.029617724 -0.014041094 0)
(0.030855796 -0.011085365 0)
(0.031797728 -0.0080212469 0)
(0.032434279 -0.0048779655 0)
(0.032759109 -0.0016855733 0)
(0.032768843 0.0015253302 0)
(0.032463106 0.0047238824 0)
(0.031844542 0.0078792472 0)
(0.0309188 0.010960908 0)
(0.029694498 0.013938965 0)
(0.028183157 0.016784427 0)
(0.026399102 0.019469509 0)
(0.02435934 0.021967912 0)
(0.022083408 0.024255098 0)
(0.019593183 0.026308546 0)
(0.016912682 0.028107993 0)
(0.01406782 0.029635646 0)
(0.011086163 0.030876373 0)
(0.0079966524 0.03181787 0)
(0.0048293134 0.032450787 0)
(0.0016149579 0.032768834 0)
(-0.0017726035 0.036129187 0)
(-0.0053004107 0.035778446 0)
(-0.0087765865 0.035080432 0)
(-0.012167283 0.034042087 0)
(-0.015439519 0.032673737 0)
(-0.018561507 0.030988971 0)
(-0.021502979 0.0290045 0)
(-0.024235485 0.026739978 0)
(-0.026732673 0.024217783 0)
(-0.028970546 0.021462781 0)
(-0.030927692 0.018502061 0)
(-0.032585483 0.015364646 0)
(-0.033928239 0.012081189 0)
(-0.034943364 0.0086836612 0)
(-0.035621446 0.0052050233 0)
(-0.035956325 0.0016789052 0)