/*--------------------------------*- C++ -*----------------------------------*\
| =========                 |                                                 |
| \\      /  F ield         | OpenFOAM: The Open Source CFD Toolbox           |
|  \\    /   O peration     | Version:  2106                                  |
|   \\  /    A nd           | Website:  www.openfoam.com                      |
|    \\/     M anipulation  |                                                 |
\*---------------------------------------------------------------------------*/
FoamFile
{
    version     2.0;
    format      ascii;
    arch        "LSB;label=32;scalar=64";
    class       volVectorField;
    location    "0.008";
    object      U;
}
// * * * * * * * * * * * * * * * * * * * * * * * * * * * * * * * * * * * * * //

dimensions      [0 1 -1 0 0 0 0];

internalField   nonuniform List<vector> 
16384
(
(0.0060359381 -0.0060289428 0)
(0.018092608 -0.0060137558 0)
(0.0301037 -0.0059834245 0)
(0.042038974 -0.0059380344 0)
(0.0538684 -0.0058777133 0)
(0.065562247 -0.0058026306 0)
(0.077091167 -0.0057129968 0)
(0.088426271 -0.0056090631 0)
(0.099539213 -0.0054911195 0)
(0.11040227 -0.0053594946 0)
(0.12098841 -0.0052145539 0)
(0.13127137 -0.0050566985 0)
(0.14122572 -0.0048863636 0)
(0.15082695 -0.0047040172 0)
(0.1600515 -0.0045101581 0)
(0.16887685 -0.0043053143 0)
(0.17728156 -0.0040900413 0)
(0.18524533 -0.0038649201 0)
(0.19274906 -0.0036305554 0)
(0.19977484 -0.0033875734 0)
(0.2063061 -0.0031366203 0)
(0.21232752 -0.0028783596 0)
(0.21782516 -0.0026134708 0)
(0.22278644 -0.0023426465 0)
(0.22720019 -0.0020665912 0)
(0.23105666 -0.0017860186 0)
(0.23434751 -0.0015016496 0)
(0.23706589 -0.0012142104 0)
(0.23920638 -0.00092442999 0)
(0.24076502 -0.00063303835 0)
(0.24173933 -0.00034076271 0)
(0.24212825 -4.8310525e-05 0)
(0.24193226 0.00024348806 0)
(0.24115322 0.0005340821 0)
(0.23979425 0.00082270553 0)
(0.23786015 0.0011086321 0)
(0.23535694 0.0013911987 0)
(0.23229201 0.0016697425 0)
(0.22867407 0.0019436142 0)
(0.22451312 0.002212182 0)
(0.21982039 0.0024748335 0)
(0.21460833 0.0027309772 0)
(0.20889054 0.002980043 0)
(0.20268175 0.0032214842 0)
(0.19599775 0.0034547775 0)
(0.18885536 0.0036794247 0)
(0.18127237 0.0038949525 0)
(0.17326748 0.0041009134 0)
(0.16486029 0.0042968862 0)
(0.15607117 0.0044824759 0)
(0.1469213 0.004657314 0)
(0.13743254 0.0048210584 0)
(0.12762742 0.0049733934 0)
(0.11752907 0.0051140294 0)
(0.10716118 0.0052427028 0)
(0.096547931 0.0053591754 0)
(0.085713963 0.0054632344 0)
(0.074684316 0.0055546918 0)
(0.063484377 0.0056333842 0)
(0.052139839 0.0056991723 0)
(0.040676648 0.0057519405 0)
(0.029120957 0.0057915968 0)
(0.01749908 0.0058180725 0)
(0.0058374467 0.0058313217 0)
(-0.0058374467 0.0058313217 0)
(-0.01749908 0.0058180725 0)
(-0.029120957 0.0057915968 0)
(-0.040676648 0.0057519405 0)
(-0.052139839 0.0056991723 0)
(-0.063484377 0.0056333842 0)
(-0.074684316 0.0055546918 0)
(-0.085713963 0.0054632344 0)
(-0.096547931 0.0053591754 0)
(-0.10716118 0.0052427028 0)
(-0.11752907 0.0051140294 0)
(-0.12762742 0.0049733934 0)
(-0.13743254 0.0048210584 0)
(-0.1469213 0.004657314 0)
(-0.15607117 0.0044824759 0)
(-0.16486029 0.0042968862 0)
(-0.17326748 0.0041009134 0)
(-0.18127237 0.0038949525 0)
(-0.18885536 0.0036794247 0)
(-0.19599775 0.0034547775 0)
(-0.20268175 0.0032214842 0)
(-0.20889054 0.002980043 0)
(-0.21460833 0.0027309772 0)
(-0.21982039 0.0024748335 0)
(-0.22451312 0.002212182 0)
(-0.22867407 0.0019436142 0)
(-0.23229201 0.0016697425 0)
(-0.23535694 0.0013911987 0)
(-0.23786015 0.0011086321 0)
(-0.23979425 0.00082270553 0)
(-0.24115322 0.0005340821 0)
(-0.24193226 0.00024348806 0)
(-0.24212825 -4.8310525e-05 0)
(-0.24173933 -0.00034076271 0)
(-0.24076502 -0.00063303835 0)
(-0.23920638 -0.00092442999 0)
(-0.23706589 -0.0012142104 0)
(-0.23434751 -0.0015016496 0)
(-0.23105666 -0.0017860186 0)
(-0.22720019 -0.0020665912 0)
(-0.22278644 -0.0023426465 0)
(-0.21782516 -0.0026134708 0)
(-0.21232752 -0.0028783596 0)
(-0.2063061 -0.0031366203 0)
(-0.19977484 -0.0033875734 0)
(-0.19274906 -0.0036305554 0)
(-0.18524533 -0.0038649201 0)
(-0.17728156 -0.0040900413 0)
(-0.16887685 -0.0043053143 0)
(-0.1600515 -0.0045101581 0)
(-0.15082695 -0.0047040172 0)
(-0.14122572 -0.0048863636 0)
(-0.13127137 -0.0050566985 0)
(-0.12098841 -0.0052145539 0)
(-0.11040227 -0.0053594946 0)
(-0.099539213 -0.0054911195 0)
(-0.088426271 -0.0056090631 0)
(-0.077091167 -0.0057129968 0)
(-0.065562247 -0.0058026306 0)
(-0.0538684 -0.0058777133 0)
(-0.042038974 -0.0059380344 0)
(-0.0301037 -0.0059834245 0)
(-0.018092608 -0.0060137558 0)
(-0.0060359381 -0.0060289428 0)
(0.0060574943 -0.018103433 0)
(0.018157216 -0.018057826 0)
(0.030211181 -0.017966739 0)
(0.042189026 -0.017830431 0)
(0.054060606 -0.017649284 0)
(0.065796073 -0.017423807 0)
(0.077365962 -0.017154634 0)
(0.088741274 -0.016842518 0)
(0.099893554 -0.016488331 0)
(0.11079497 -0.01609306 0)
(0.12141839 -0.015657803 0)
(0.13173745 -0.015183764 0)
(0.14172663 -0.014672251 0)
(0.15136132 -0.01412467 0)
(0.16061789 -0.013542519 0)
(0.16947373 -0.012927383 0)
(0.17790733 -0.012280932 0)
(0.18589831 -0.011604911 0)
(0.1934275 -0.010901135 0)
(0.20047696 -0.010171485 0)
(0.20703003 -0.0094179022 0)
(0.21307136 -0.0086423795 0)
(0.21858698 -0.0078469569 0)
(0.22356426 -0.0070337153 0)
(0.22799199 -0.00620477 0)
(0.2318604 -0.0053622643 0)
(0.23516116 -0.0045083635 0)
(0.23788736 -0.0036452484 0)
(0.2400336 -0.0027751089 0)
(0.24159593 -0.0019001384 0)
(0.24257185 -0.0010225289 0)
(0.24296035 -0.00014446539 0)
(0.24276186 0.00073188646 0)
(0.24197824 0.0016044229 0)
(0.2406128 0.0024710034 0)
(0.23867025 0.0033295253 0)
(0.23615666 0.0041779579 0)
(0.23307947 0.0050143046 0)
(0.22944744 0.0058366154 0)
(0.22527062 0.0066429937 0)
(0.22056029 0.0074316009 0)
(0.21532898 0.0082006607 0)
(0.20959033 0.0089484623 0)
(0.20335915 0.0096733641 0)
(0.19665129 0.010373796 0)
(0.18948365 0.011048262 0)
(0.18187408 0.011695341 0)
(0.17384136 0.012313692 0)
(0.16540516 0.012902049 0)
(0.15658594 0.013459228 0)
(0.14740494 0.013984124 0)
(0.13788409 0.014475709 0)
(0.12804601 0.014933038 0)
(0.1179139 0.015355241 0)
(0.10751152 0.015741527 0)
(0.096863123 0.016091183 0)
(0.085993429 0.016403571 0)
(0.074927543 0.016678127 0)
(0.063690924 0.016914361 0)
(0.052309335 0.017111855 0)
(0.040808791 0.017270263 0)
(0.029215511 0.01738931 0)
(0.01755588 0.017468788 0)
(0.005856391 0.017508562 0)
(-0.005856391 0.017508562 0)
(-0.01755588 0.017468788 0)
(-0.029215511 0.01738931 0)
(-0.040808791 0.017270263 0)
(-0.052309335 0.017111855 0)
(-0.063690924 0.016914361 0)
(-0.074927543 0.016678127 0)
(-0.085993429 0.016403571 0)
(-0.096863123 0.016091183 0)
(-0.10751152 0.015741527 0)
(-0.1179139 0.015355241 0)
(-0.12804601 0.014933038 0)
(-0.13788409 0.014475709 0)
(-0.14740494 0.013984124 0)
(-0.15658594 0.013459228 0)
(-0.16540516 0.012902049 0)
(-0.17384136 0.012313692 0)
(-0.18187408 0.011695341 0)
(-0.18948365 0.011048262 0)
(-0.19665129 0.010373796 0)
(-0.20335915 0.0096733641 0)
(-0.20959033 0.0089484624 0)
(-0.21532898 0.0082006607 0)
(-0.22056029 0.0074316009 0)
(-0.22527062 0.0066429937 0)
(-0.22944744 0.0058366154 0)
(-0.23307947 0.0050143046 0)
(-0.23615666 0.0041779579 0)
(-0.23867025 0.0033295253 0)
(-0.2406128 0.0024710034 0)
(-0.24197824 0.0016044229 0)
(-0.24276186 0.00073188646 0)
(-0.24296035 -0.00014446539 0)
(-0.24257185 -0.0010225289 0)
(-0.24159593 -0.0019001384 0)
(-0.2400336 -0.0027751089 0)
(-0.23788736 -0.0036452484 0)
(-0.23516116 -0.0045083635 0)
(-0.2318604 -0.0053622643 0)
(-0.22799199 -0.00620477 0)
(-0.22356426 -0.0070337153 0)
(-0.21858698 -0.0078469569 0)
(-0.21307136 -0.0086423795 0)
(-0.20703003 -0.0094179022 0)
(-0.20047696 -0.010171485 0)
(-0.1934275 -0.010901135 0)
(-0.18589831 -0.011604911 0)
(-0.17790733 -0.012280932 0)
(-0.16947373 -0.012927383 0)
(-0.16061789 -0.013542519 0)
(-0.15136132 -0.01412467 0)
(-0.14172663 -0.014672251 0)
(-0.13173745 -0.015183764 0)
(-0.12141839 -0.015657803 0)
(-0.11079497 -0.01609306 0)
(-0.099893554 -0.016488331 0)
(-0.088741274 -0.016842518 0)
(-0.077365962 -0.017154634 0)
(-0.065796073 -0.017423807 0)
(-0.054060606 -0.017649284 0)
(-0.042189026 -0.017830431 0)
(-0.030211181 -0.017966739 0)
(-0.018157216 -0.018057826 0)
(-0.0060574943 -0.018103433 0)
(0.0060932837 -0.030239512 0)
(0.018264484 -0.030163313 0)
(0.030389629 -0.030011128 0)
(0.042438158 -0.029783389 0)
(0.054379729 -0.029480735 0)
(0.0661843 -0.029104019 0)
(0.077822217 -0.028654299 0)
(0.089264295 -0.028132835 0)
(0.1004819 -0.027541084 0)
(0.11144702 -0.026880698 0)
(0.12213235 -0.026153511 0)
(0.13251137 -0.025361537 0)
(0.1425584 -0.024506964 0)
(0.15224868 -0.023592139 0)
(0.16155844 -0.022619569 0)
(0.17046493 -0.021591903 0)
(0.17894652 -0.020511931 0)
(0.18698271 -0.01938257 0)
(0.19455423 -0.018206854 0)
(0.20164304 -0.016987927 0)
(0.20823238 -0.015729033 0)
(0.21430683 -0.014433501 0)
(0.21985234 -0.013104741 0)
(0.22485622 -0.011746231 0)
(0.22930723 -0.010361505 0)
(0.23319554 -0.0089541436 0)
(0.23651277 -0.0075277662 0)
(0.23925203 -0.0060860162 0)
(0.24140787 -0.0046325531 0)
(0.24297636 -0.0031710416 0)
(0.24395501 -0.0017051418 0)
(0.24434281 -0.00023849905 0)
(0.24414022 0.0012252708 0)
(0.24334915 0.002682611 0)
(0.24197295 0.0041299751 0)
(0.24001637 0.0055638707 0)
(0.23748557 0.006980889 0)
(0.23438804 0.0083776928 0)
(0.23073264 0.0097510252 0)
(0.22652947 0.011097719 0)
(0.22178995 0.012414705 0)
(0.21652665 0.013699016 0)
(0.21075337 0.014947796 0)
(0.204485 0.016158306 0)
(0.19773752 0.017327925 0)
(0.19052792 0.018454156 0)
(0.18287419 0.019534629 0)
(0.17479524 0.020567107 0)
(0.16631084 0.021549479 0)
(0.15744159 0.022479771 0)
(0.14820885 0.023356139 0)
(0.13863468 0.024176874 0)
(0.12874182 0.024940396 0)
(0.1185536 0.025645261 0)
(0.10809389 0.026290151 0)
(0.097387078 0.026873877 0)
(0.086457996 0.027395377 0)
(0.075331872 0.027853713 0)
(0.064034282 0.02824807 0)
(0.052591102 0.028577753 0)
(0.041028463 0.028842186 0)
(0.029372698 0.02904091 0)
(0.017650303 0.029173582 0)
(0.0058878839 0.029239976 0)
(-0.0058878839 0.029239976 0)
(-0.017650303 0.029173582 0)
(-0.029372698 0.02904091 0)
(-0.041028463 0.028842186 0)
(-0.052591102 0.028577753 0)
(-0.064034282 0.02824807 0)
(-0.075331872 0.027853713 0)
(-0.086457996 0.027395377 0)
(-0.097387078 0.026873877 0)
(-0.10809389 0.026290151 0)
(-0.1185536 0.025645261 0)
(-0.12874182 0.024940397 0)
(-0.13863468 0.024176874 0)
(-0.14820885 0.023356139 0)
(-0.15744159 0.022479771 0)
(-0.16631084 0.021549479 0)
(-0.17479524 0.020567107 0)
(-0.18287419 0.019534629 0)
(-0.19052792 0.018454156 0)
(-0.19773752 0.017327925 0)
(-0.204485 0.016158306 0)
(-0.21075337 0.014947796 0)
(-0.21652665 0.013699016 0)
(-0.22178995 0.012414705 0)
(-0.22652947 0.011097719 0)
(-0.23073264 0.0097510252 0)
(-0.23438804 0.0083776928 0)
(-0.23748557 0.006980889 0)
(-0.24001637 0.0055638707 0)
(-0.24197295 0.0041299751 0)
(-0.24334915 0.002682611 0)
(-0.24414022 0.0012252708 0)
(-0.24434281 -0.00023849905 0)
(-0.24395501 -0.0017051418 0)
(-0.24297636 -0.0031710416 0)
(-0.24140787 -0.0046325531 0)
(-0.23925203 -0.0060860162 0)
(-0.23651277 -0.0075277662 0)
(-0.23319554 -0.0089541436 0)
(-0.22930723 -0.010361505 0)
(-0.22485622 -0.011746231 0)
(-0.21985234 -0.013104741 0)
(-0.21430683 -0.014433501 0)
(-0.20823238 -0.015729033 0)
(-0.20164304 -0.016987927 0)
(-0.19455423 -0.018206854 0)
(-0.18698271 -0.01938257 0)
(-0.17894652 -0.020511931 0)
(-0.17046493 -0.021591903 0)
(-0.16155844 -0.022619569 0)
(-0.15224868 -0.023592139 0)
(-0.1425584 -0.024506964 0)
(-0.13251137 -0.025361537 0)
(-0.12213235 -0.026153511 0)
(-0.11144702 -0.026880698 0)
(-0.1004819 -0.027541084 0)
(-0.089264295 -0.028132835 0)
(-0.077822217 -0.028654299 0)
(-0.0661843 -0.029104019 0)
(-0.054379729 -0.029480735 0)
(-0.042438158 -0.029783389 0)
(-0.030389629 -0.030011128 0)
(-0.018264485 -0.030163313 0)
(-0.0060932837 -0.030239512 0)
(0.0061436434 -0.042461651 0)
(0.018415424 -0.042354619 0)
(0.030640727 -0.042140859 0)
(0.042788717 -0.041820973 0)
(0.054828775 -0.041395863 0)
(0.066730588 -0.040866728 0)
(0.078464234 -0.040235054 0)
(0.090000267 -0.039502614 0)
(0.10130979 -0.038671459 0)
(0.11236456 -0.037743907 0)
(0.12313703 -0.036722539 0)
(0.13360043 -0.035610188 0)
(0.14372888 -0.034409926 0)
(0.15349741 -0.033125055 0)
(0.16288203 -0.031759096 0)
(0.17185983 -0.030315775 0)
(0.18040898 -0.028799012 0)
(0.18850883 -0.027212905 0)
(0.19613994 -0.025561719 0)
(0.20328415 -0.023849872 0)
(0.20992457 -0.02208192 0)
(0.21604567 -0.020262542 0)
(0.22163328 -0.01839653 0)
(0.22667465 -0.016488767 0)
(0.23115844 -0.01454422 0)
(0.23507478 -0.01256792 0)
(0.23841525 -0.01056495 0)
(0.24117291 -0.0085404289 0)
(0.24334232 -0.0064994971 0)
(0.24491952 -0.0044473024 0)
(0.24590203 -0.0023889847 0)
(0.24628888 -0.00032966168 0)
(0.24608056 0.0017255889 0)
(0.24527903 0.003771749 0)
(0.24388771 0.0058038499 0)
(0.24191143 0.0078169995 0)
(0.23935641 0.0098064049 0)
(0.23623028 0.011767378 0)
(0.23254197 0.013695345 0)
(0.22830174 0.01558586 0)
(0.22352111 0.017434614 0)
(0.21821282 0.019237445 0)
(0.21239078 0.020990344 0)
(0.20607006 0.022689467 0)
(0.19926679 0.02433114 0)
(0.19199813 0.02591186 0)
(0.18428224 0.027428307 0)
(0.17613819 0.028877343 0)
(0.16758594 0.030256012 0)
(0.15864625 0.031561548 0)
(0.14934066 0.03279137 0)
(0.13969143 0.033943084 0)
(0.12972144 0.035014482 0)
(0.11945421 0.036003541 0)
(0.10891379 0.036908419 0)
(0.098124733 0.037727454 0)
(0.087112042 0.038459162 0)
(0.075901109 0.039102232 0)
(0.064517678 0.039655526 0)
(0.052987787 0.040118072 0)
(0.041337727 0.040489068 0)
(0.029593993 0.040767873 0)
(0.017783236 0.040954007 0)
(0.0059322211 0.041047154 0)
(-0.005932221 0.041047154 0)
(-0.017783236 0.040954007 0)
(-0.029593993 0.040767873 0)
(-0.041337727 0.040489068 0)
(-0.052987787 0.040118072 0)
(-0.064517678 0.039655526 0)
(-0.075901109 0.039102232 0)
(-0.087112042 0.038459162 0)
(-0.098124733 0.037727454 0)
(-0.10891379 0.036908419 0)
(-0.11945421 0.036003541 0)
(-0.12972144 0.035014482 0)
(-0.13969143 0.033943084 0)
(-0.14934066 0.03279137 0)
(-0.15864625 0.031561548 0)
(-0.16758594 0.030256012 0)
(-0.17613819 0.028877343 0)
(-0.18428224 0.027428307 0)
(-0.19199813 0.02591186 0)
(-0.19926679 0.02433114 0)
(-0.20607006 0.022689467 0)
(-0.21239078 0.020990344 0)
(-0.21821282 0.019237445 0)
(-0.22352111 0.017434614 0)
(-0.22830174 0.01558586 0)
(-0.23254197 0.013695345 0)
(-0.23623028 0.011767378 0)
(-0.23935641 0.0098064049 0)
(-0.24191143 0.0078169995 0)
(-0.24388771 0.0058038499 0)
(-0.24527903 0.003771749 0)
(-0.24608056 0.0017255889 0)
(-0.24628888 -0.00032966168 0)
(-0.24590203 -0.0023889847 0)
(-0.24491952 -0.0044473024 0)
(-0.24334232 -0.0064994971 0)
(-0.24117291 -0.0085404289 0)
(-0.23841525 -0.01056495 0)
(-0.23507478 -0.01256792 0)
(-0.23115844 -0.01454422 0)
(-0.22667465 -0.016488767 0)
(-0.22163328 -0.01839653 0)
(-0.21604567 -0.020262542 0)
(-0.20992457 -0.02208192 0)
(-0.20328415 -0.023849872 0)
(-0.19613994 -0.025561719 0)
(-0.18850883 -0.027212905 0)
(-0.18040898 -0.028799012 0)
(-0.17185983 -0.030315775 0)
(-0.16288203 -0.031759096 0)
(-0.15349741 -0.033125055 0)
(-0.14372888 -0.034409926 0)
(-0.13360043 -0.035610188 0)
(-0.12313703 -0.036722539 0)
(-0.11236456 -0.037743907 0)
(-0.10130979 -0.038671459 0)
(-0.090000267 -0.039502614 0)
(-0.078464234 -0.040235054 0)
(-0.066730588 -0.040866728 0)
(-0.054828775 -0.041395863 0)
(-0.042788717 -0.041820973 0)
(-0.030640727 -0.042140859 0)
(-0.018415424 -0.042354619 0)
(-0.0061436435 -0.042461651 0)
(0.0062089872 -0.05479897 0)
(0.018611273 -0.054660787 0)
(0.030966538 -0.05438481 0)
(0.043243584 -0.053971821 0)
(0.055411435 -0.053422986 0)
(0.067439426 -0.052739854 0)
(0.079297289 -0.051924346 0)
(0.090955238 -0.050978756 0)
(0.10238405 -0.049905732 0)
(0.11355515 -0.048708274 0)
(0.12444069 -0.047389716 0)
(0.13501361 -0.045953719 0)
(0.14524773 -0.044404254 0)
(0.1551178 -0.042745588 0)
(0.16459959 -0.040982271 0)
(0.17366994 -0.039119116 0)
(0.18230678 -0.037161188 0)
(0.19048926 -0.03511378 0)
(0.19819775 -0.032982402 0)
(0.20541388 -0.030772761 0)
(0.21212062 -0.02849074 0)
(0.21830229 -0.026142384 0)
(0.22394458 -0.023733879 0)
(0.22903464 -0.021271533 0)
(0.23356103 -0.018761759 0)
(0.2375138 -0.016211054 0)
(0.24088447 -0.013625981 0)
(0.24366606 -0.011013151 0)
(0.24585311 -0.0083791996 0)
(0.24744165 -0.0057307747 0)
(0.24842922 -0.0030745115 0)
(0.24881487 -0.00041701627 0)
(0.24859915 0.0022351544 0)
(0.24778408 0.0048755127 0)
(0.24637316 0.0074976492 0)
(0.24437131 0.010095254 0)
(0.24178489 0.012662141 0)
(0.23862164 0.015192257 0)
(0.23489064 0.0176797 0)
(0.2306023 0.020118734 0)
(0.22576832 0.0225038 0)
(0.22040161 0.024829528 0)
(0.21451629 0.027090753 0)
(0.20812761 0.029282517 0)
(0.20125191 0.031400085 0)
(0.19390658 0.033438945 0)
(0.18610998 0.03539482 0)
(0.17788142 0.03726367 0)
(0.16924108 0.039041692 0)
(0.16020995 0.040725326 0)
(0.1508098 0.042311254 0)
(0.1410631 0.043796399 0)
(0.130993 0.045177922 0)
(0.12062321 0.046453226 0)
(0.10997802 0.047619947 0)
(0.099082202 0.04867595 0)
(0.08796098 0.049619332 0)
(0.076639964 0.050448413 0)
(0.06514511 0.051161732 0)
(0.053502669 0.051758046 0)
(0.041739139 0.052236325 0)
(0.029881223 0.052595748 0)
(0.017955777 0.052835703 0)
(0.0059897683 0.052955782 0)
(-0.0059897683 0.052955782 0)
(-0.017955777 0.052835703 0)
(-0.029881223 0.052595748 0)
(-0.041739139 0.052236325 0)
(-0.053502669 0.051758046 0)
(-0.06514511 0.051161732 0)
(-0.076639964 0.050448413 0)
(-0.08796098 0.049619332 0)
(-0.099082202 0.04867595 0)
(-0.10997802 0.047619947 0)
(-0.12062321 0.046453226 0)
(-0.130993 0.045177922 0)
(-0.1410631 0.043796399 0)
(-0.1508098 0.042311254 0)
(-0.16020995 0.040725326 0)
(-0.16924108 0.039041692 0)
(-0.17788142 0.03726367 0)
(-0.18610998 0.03539482 0)
(-0.19390658 0.033438945 0)
(-0.20125191 0.031400085 0)
(-0.20812761 0.029282517 0)
(-0.21451629 0.027090753 0)
(-0.22040161 0.024829528 0)
(-0.22576832 0.0225038 0)
(-0.2306023 0.020118734 0)
(-0.23489064 0.0176797 0)
(-0.23862164 0.015192257 0)
(-0.24178489 0.012662141 0)
(-0.24437131 0.010095254 0)
(-0.24637316 0.0074976492 0)
(-0.24778408 0.0048755127 0)
(-0.24859915 0.0022351544 0)
(-0.24881487 -0.00041701626 0)
(-0.24842922 -0.0030745115 0)
(-0.24744165 -0.0057307746 0)
(-0.24585311 -0.0083791996 0)
(-0.24366606 -0.011013151 0)
(-0.24088447 -0.013625981 0)
(-0.2375138 -0.016211054 0)
(-0.23356103 -0.018761759 0)
(-0.22903464 -0.021271533 0)
(-0.22394458 -0.023733879 0)
(-0.21830229 -0.026142384 0)
(-0.21212062 -0.02849074 0)
(-0.20541388 -0.030772761 0)
(-0.19819775 -0.032982402 0)
(-0.19048926 -0.03511378 0)
(-0.18230678 -0.037161188 0)
(-0.17366994 -0.039119116 0)
(-0.16459959 -0.040982271 0)
(-0.1551178 -0.042745588 0)
(-0.14524773 -0.044404254 0)
(-0.13501361 -0.045953719 0)
(-0.12444069 -0.047389716 0)
(-0.11355515 -0.048708274 0)
(-0.10238405 -0.049905732 0)
(-0.090955238 -0.050978756 0)
(-0.079297289 -0.051924346 0)
(-0.067439426 -0.052739854 0)
(-0.055411435 -0.053422986 0)
(-0.043243584 -0.053971821 0)
(-0.030966538 -0.05438481 0)
(-0.018611273 -0.054660787 0)
(-0.0062089872 -0.05479897 0)
(0.0062898058 -0.067282051 0)
(0.018853504 -0.067112309 0)
(0.031369509 -0.066773308 0)
(0.043806175 -0.066266007 0)
(0.056132087 -0.065591841 0)
(0.068316143 -0.064752716 0)
(0.080327646 -0.063750998 0)
(0.092136393 -0.062589506 0)
(0.10371275 -0.061271501 0)
(0.11502775 -0.05980067 0)
(0.12605316 -0.058181116 0)
(0.13676155 -0.056417342 0)
(0.14712638 -0.05451423 0)
(0.15712208 -0.05247703 0)
(0.16672409 -0.050311333 0)
(0.17590893 -0.04802306 0)
(0.18465428 -0.045618434 0)
(0.19293901 -0.043103964 0)
(0.20074324 -0.040486423 0)
(0.20804839 -0.037772822 0)
(0.21483722 -0.034970394 0)
(0.22109385 -0.032086566 0)
(0.22680385 -0.029128939 0)
(0.23195419 -0.026105265 0)
(0.23653333 -0.023023423 0)
(0.24053121 -0.019891395 0)
(0.2439393 -0.016717246 0)
(0.24675056 -0.013509095 0)
(0.24895948 -0.010275098 0)
(0.2505621 -0.0070234194 0)
(0.25155598 -0.0037622113 0)
(0.2519402 -0.00049958883 0)
(0.25171536 0.0027563927 0)
(0.25088358 0.0059977606 0)
(0.24944843 0.0092166437 0)
(0.24741499 0.012405295 0)
(0.24478973 0.015556117 0)
(0.24158056 0.018661678 0)
(0.23779675 0.021714731 0)
(0.2334489 0.024708235 0)
(0.2285489 0.027635368 0)
(0.22310991 0.030489543 0)
(0.21714627 0.033264422 0)
(0.21067349 0.035953928 0)
(0.20370816 0.038552255 0)
(0.19626794 0.041053878 0)
(0.18837147 0.043453556 0)
(0.18003833 0.045746343 0)
(0.17128897 0.047927586 0)
(0.16214468 0.049992932 0)
(0.1526275 0.051938322 0)
(0.14276021 0.053759997 0)
(0.13256621 0.055454493 0)
(0.12206952 0.057018636 0)
(0.11129469 0.058449543 0)
(0.10026678 0.059744612 0)
(0.089011273 0.060901522 0)
(0.077554056 0.061918226 0)
(0.065921346 0.062792947 0)
(0.054139657 0.06352417 0)
(0.042235746 0.064110641 0)
(0.030236568 0.064551363 0)
(0.018169234 0.064845591 0)
(0.0060609623 0.064992828 0)
(-0.0060609623 0.064992828 0)
(-0.018169234 0.064845591 0)
(-0.030236568 0.064551363 0)
(-0.042235746 0.064110641 0)
(-0.054139657 0.06352417 0)
(-0.065921346 0.062792947 0)
(-0.077554056 0.061918226 0)
(-0.089011273 0.060901522 0)
(-0.10026678 0.059744612 0)
(-0.11129469 0.058449543 0)
(-0.12206952 0.057018636 0)
(-0.13256621 0.055454493 0)
(-0.14276021 0.053759997 0)
(-0.1526275 0.051938322 0)
(-0.16214468 0.049992932 0)
(-0.17128897 0.047927586 0)
(-0.18003833 0.045746343 0)
(-0.18837147 0.043453556 0)
(-0.19626794 0.041053878 0)
(-0.20370816 0.038552255 0)
(-0.21067349 0.035953928 0)
(-0.21714627 0.033264422 0)
(-0.22310991 0.030489543 0)
(-0.2285489 0.027635368 0)
(-0.2334489 0.024708235 0)
(-0.23779675 0.021714731 0)
(-0.24158056 0.018661678 0)
(-0.24478973 0.015556117 0)
(-0.24741499 0.012405295 0)
(-0.24944843 0.0092166437 0)
(-0.25088358 0.0059977606 0)
(-0.25171536 0.0027563927 0)
(-0.2519402 -0.00049958882 0)
(-0.25155598 -0.0037622112 0)
(-0.2505621 -0.0070234194 0)
(-0.24895948 -0.010275098 0)
(-0.24675056 -0.013509095 0)
(-0.2439393 -0.016717246 0)
(-0.24053121 -0.019891395 0)
(-0.23653333 -0.023023423 0)
(-0.23195419 -0.026105265 0)
(-0.22680385 -0.029128939 0)
(-0.22109385 -0.032086566 0)
(-0.21483722 -0.034970394 0)
(-0.20804839 -0.037772822 0)
(-0.20074324 -0.040486423 0)
(-0.19293901 -0.043103964 0)
(-0.18465428 -0.045618434 0)
(-0.17590893 -0.04802306 0)
(-0.16672409 -0.050311333 0)
(-0.15712208 -0.05247703 0)
(-0.14712638 -0.05451423 0)
(-0.13676155 -0.056417342 0)
(-0.12605316 -0.058181116 0)
(-0.11502775 -0.05980067 0)
(-0.10371275 -0.061271501 0)
(-0.092136393 -0.062589506 0)
(-0.080327646 -0.063750998 0)
(-0.068316143 -0.064752716 0)
(-0.056132087 -0.065591841 0)
(-0.043806175 -0.066266007 0)
(-0.031369509 -0.066773308 0)
(-0.018853504 -0.067112309 0)
(-0.0062898058 -0.067282051 0)
(0.0063866694 -0.079942397 0)
(0.019143826 -0.079740606 0)
(0.031852483 -0.079337597 0)
(0.044480462 -0.078734514 0)
(0.056995818 -0.077933067 0)
(0.069366927 -0.076935525 0)
(0.081562582 -0.075744708 0)
(0.093552075 -0.074363971 0)
(0.10530529 -0.072797199 0)
(0.11679277 -0.071048784 0)
(0.12798584 -0.06912361 0)
(0.13885662 -0.067027038 0)
(0.14937815 -0.064764881 0)
(0.15952445 -0.062343385 0)
(0.16927058 -0.059769208 0)
(0.17859271 -0.057049394 0)
(0.18746816 -0.054191349 0)
(0.1958755 -0.051202817 0)
(0.20379455 -0.048091853 0)
(0.21120646 -0.044866801 0)
(0.21809375 -0.04153626 0)
(0.22444032 -0.038109066 0)
(0.23023153 -0.034594258 0)
(0.23545421 -0.031001055 0)
(0.24009666 -0.027338825 0)
(0.24414871 -0.023617061 0)
(0.24760173 -0.019845351 0)
(0.25044862 -0.016033352 0)
(0.25268385 -0.012190759 0)
(0.25430343 -0.0083272807 0)
(0.25530493 -0.0044526094 0)
(0.25568749 -0.00057639395 0)
(0.25545178 0.0032917882 0)
(0.2546 0.0071424574 0)
(0.25313586 0.010966257 0)
(0.25106457 0.014753981 0)
(0.24839277 0.018496598 0)
(0.24512857 0.022185277 0)
(0.24128144 0.02581141 0)
(0.23686223 0.029366632 0)
(0.23188307 0.03284284 0)
(0.2263574 0.036232216 0)
(0.22029984 0.039527237 0)
(0.2137262 0.042720694 0)
(0.20665338 0.045805703 0)
(0.19909935 0.048775713 0)
(0.1910831 0.051624517 0)
(0.18262452 0.054346257 0)
(0.17374442 0.056935427 0)
(0.16446441 0.059386877 0)
(0.1548069 0.06169581 0)
(0.14479499 0.063857786 0)
(0.13445242 0.065868712 0)
(0.12380355 0.067724846 0)
(0.11287328 0.069422787 0)
(0.10168697 0.070959469 0)
(0.090270461 0.072332158 0)
(0.078649942 0.073538445 0)
(0.066851952 0.074576237 0)
(0.054903317 0.075443754 0)
(0.042831103 0.076139522 0)
(0.030662572 0.076662368 0)
(0.018425135 0.077011417 0)
(0.0061463125 0.077186087 0)
(-0.0061463125 0.077186087 0)
(-0.018425135 0.077011417 0)
(-0.030662572 0.076662368 0)
(-0.042831103 0.076139522 0)
(-0.054903317 0.075443754 0)
(-0.066851952 0.074576237 0)
(-0.078649942 0.073538445 0)
(-0.090270461 0.072332158 0)
(-0.10168697 0.070959469 0)
(-0.11287328 0.069422787 0)
(-0.12380355 0.067724846 0)
(-0.13445242 0.065868712 0)
(-0.14479499 0.063857786 0)
(-0.1548069 0.06169581 0)
(-0.16446441 0.059386877 0)
(-0.17374442 0.056935427 0)
(-0.18262452 0.054346257 0)
(-0.1910831 0.051624517 0)
(-0.19909935 0.048775713 0)
(-0.20665338 0.045805703 0)
(-0.2137262 0.042720694 0)
(-0.22029984 0.039527237 0)
(-0.2263574 0.036232216 0)
(-0.23188307 0.03284284 0)
(-0.23686223 0.029366632 0)
(-0.24128144 0.02581141 0)
(-0.24512857 0.022185277 0)
(-0.24839277 0.018496598 0)
(-0.25106457 0.014753981 0)
(-0.25313586 0.010966257 0)
(-0.2546 0.0071424574 0)
(-0.25545178 0.0032917882 0)
(-0.25568749 -0.00057639395 0)
(-0.25530493 -0.0044526094 0)
(-0.25430343 -0.0083272807 0)
(-0.25268385 -0.012190759 0)
(-0.25044862 -0.016033352 0)
(-0.24760173 -0.019845351 0)
(-0.24414871 -0.023617061 0)
(-0.24009666 -0.027338825 0)
(-0.23545421 -0.031001055 0)
(-0.23023153 -0.034594258 0)
(-0.22444032 -0.038109066 0)
(-0.21809375 -0.04153626 0)
(-0.21120646 -0.044866801 0)
(-0.20379455 -0.048091853 0)
(-0.1958755 -0.051202817 0)
(-0.18746816 -0.054191349 0)
(-0.17859271 -0.057049394 0)
(-0.16927058 -0.059769208 0)
(-0.15952445 -0.062343385 0)
(-0.14937815 -0.064764881 0)
(-0.13885662 -0.067027038 0)
(-0.12798584 -0.06912361 0)
(-0.11679277 -0.071048784 0)
(-0.10530529 -0.072797199 0)
(-0.093552075 -0.074363971 0)
(-0.081562582 -0.075744708 0)
(-0.069366927 -0.076935525 0)
(-0.056995818 -0.077933067 0)
(-0.044480462 -0.078734514 0)
(-0.031852483 -0.079337597 0)
(-0.019143826 -0.079740606 0)
(-0.0063866695 -0.079942397 0)
(0.0065002324 -0.092812679 0)
(0.0194842 -0.092578256 0)
(0.032418724 -0.092110076 0)
(0.045271 -0.091409472 0)
(0.058008463 -0.090478436 0)
(0.070598882 -0.089319609 0)
(0.083010445 -0.087936273 0)
(0.09521186 -0.086332337 0)
(0.10717243 -0.084512321 0)
(0.11886217 -0.082481338 0)
(0.13025182 -0.080245072 0)
(0.14131302 -0.077809762 0)
(0.1520183 -0.07518217 0)
(0.16234122 -0.072369565 0)
(0.17225638 -0.06937969 0)
(0.18173952 -0.066220736 0)
(0.19076758 -0.062901317 0)
(0.19931875 -0.059430438 0)
(0.2073725 -0.055817463 0)
(0.21490967 -0.05207209 0)
(0.22191249 -0.048204318 0)
(0.22836461 -0.044224414 0)
(0.23425116 -0.040142883 0)
(0.23955876 -0.03597044 0)
(0.24427556 -0.03171797 0)
(0.24839124 -0.027396505 0)
(0.25189705 -0.023017187 0)
(0.25478584 -0.018591235 0)
(0.25705201 -0.014129916 0)
(0.25869157 -0.0096445098 0)
(0.25970211 -0.005146279 0)
(0.26008281 -0.00064643425 0)
(0.25983442 0.0038438961 0)
(0.25895926 0.0083136983 0)
(0.25746117 0.012752103 0)
(0.25534552 0.017148417 0)
(0.25261918 0.021492152 0)
(0.24929045 0.025773052 0)
(0.24536907 0.029981124 0)
(0.24086616 0.034106658 0)
(0.23579415 0.038140254 0)
(0.23016679 0.042072841 0)
(0.22399904 0.045895698 0)
(0.21730706 0.049600469 0)
(0.21010812 0.053179179 0)
(0.20242057 0.056624244 0)
(0.19426377 0.059928482 0)
(0.18565802 0.063085117 0)
(0.17662452 0.066087788 0)
(0.1671853 0.068930544 0)
(0.15736314 0.071607852 0)
(0.14718156 0.074114588 0)
(0.1366647 0.076446039 0)
(0.12583732 0.078597893 0)
(0.1147247 0.080566235 0)
(0.10335261 0.082347542 0)
(0.091747244 0.083938671 0)
(0.079935188 0.085336855 0)
(0.067943347 0.086539692 0)
(0.055798914 0.08754514 0)
(0.043529315 0.088351509 0)
(0.03116217 0.088957454 0)
(0.018725243 0.089361973 0)
(0.0062464068 0.089564399 0)
(-0.0062464068 0.089564399 0)
(-0.018725243 0.089361973 0)
(-0.03116217 0.088957454 0)
(-0.043529315 0.088351509 0)
(-0.055798914 0.08754514 0)
(-0.067943347 0.086539692 0)
(-0.079935188 0.085336855 0)
(-0.091747244 0.083938671 0)
(-0.10335261 0.082347542 0)
(-0.1147247 0.080566235 0)
(-0.12583732 0.078597893 0)
(-0.1366647 0.076446039 0)
(-0.14718156 0.074114588 0)
(-0.15736314 0.071607852 0)
(-0.1671853 0.068930544 0)
(-0.17662452 0.066087788 0)
(-0.18565802 0.063085117 0)
(-0.19426377 0.059928482 0)
(-0.20242057 0.056624244 0)
(-0.21010812 0.053179179 0)
(-0.21730706 0.049600469 0)
(-0.22399904 0.045895698 0)
(-0.23016679 0.042072841 0)
(-0.23579415 0.038140254 0)
(-0.24086616 0.034106658 0)
(-0.24536907 0.029981124 0)
(-0.24929045 0.025773052 0)
(-0.25261918 0.021492152 0)
(-0.25534552 0.017148417 0)
(-0.25746117 0.012752103 0)
(-0.25895926 0.0083136983 0)
(-0.25983442 0.0038438962 0)
(-0.26008281 -0.00064643424 0)
(-0.25970211 -0.005146279 0)
(-0.25869157 -0.0096445098 0)
(-0.25705201 -0.014129916 0)
(-0.25478584 -0.018591235 0)
(-0.25189705 -0.023017187 0)
(-0.24839124 -0.027396505 0)
(-0.24427556 -0.03171797 0)
(-0.23955876 -0.03597044 0)
(-0.23425116 -0.040142883 0)
(-0.22836461 -0.044224414 0)
(-0.22191249 -0.048204318 0)
(-0.21490967 -0.05207209 0)
(-0.2073725 -0.055817463 0)
(-0.19931875 -0.059430438 0)
(-0.19076758 -0.062901317 0)
(-0.18173952 -0.066220736 0)
(-0.17225638 -0.06937969 0)
(-0.16234122 -0.072369565 0)
(-0.1520183 -0.07518217 0)
(-0.14131302 -0.077809762 0)
(-0.13025182 -0.080245072 0)
(-0.11886217 -0.082481338 0)
(-0.10717243 -0.084512321 0)
(-0.09521186 -0.086332337 0)
(-0.083010445 -0.087936273 0)
(-0.070598882 -0.089319609 0)
(-0.058008463 -0.090478436 0)
(-0.045271 -0.091409472 0)
(-0.032418724 -0.092110076 0)
(-0.0194842 -0.092578256 0)
(-0.0065002324 -0.092812679 0)
(0.0066312405 -0.10592697 0)