/*--------------------------------*- C++ -*----------------------------------*\
| =========                 |                                                 |
| \\      /  F ield         | OpenFOAM: The Open Source CFD Toolbox           |
|  \\    /   O peration     | Version:  2306                                  |
|   \\  /    A nd           | Website:  www.openfoam.com                      |
|    \\/     M anipulation  |                                                 |
\*---------------------------------------------------------------------------*/
FoamFile
{
    version     2.0;
    format      ascii;
    arch        "LSB;label=32;scalar=64";
    class       surfaceScalarField;
    location    "0.54";
    object      phi_0;
}
// * * * * * * * * * * * * * * * * * * * * * * * * * * * * * * * * * * * * * //

dimensions      [0 3 -1 0 0 0 0];

oriented        oriented;

internalField   nonuniform List<scalar> 
12640
(
-1.2900347e-09
-3.8726929e-08
-5.15912e-09
-1.1615747e-07
-1.1599811e-08
-1.9342258e-07
-2.0598623e-08
-2.7038806e-07
-3.2134857e-08
-3.4689531e-07
-4.6180988e-08
-4.2279374e-07
-6.2703131e-08
-4.9794099e-07
-8.1661161e-08
-5.7219831e-07
-1.0300891e-07
-6.4543045e-07
-1.2669444e-07
-7.175058e-07
-1.5266017e-07
-7.8829626e-07
-1.8084322e-07
-8.5767755e-07
-2.1117551e-07
-9.2552946e-07
-2.4358404e-07
-9.9173601e-07
-2.7799133e-07
-1.0561857e-06
-3.1431548e-07
-1.118772e-06
-3.5247039e-07
-1.1793931e-06
-3.9236647e-07
-1.2379525e-06
-4.3391063e-07
-1.2943592e-06
-4.7700639e-07
-1.3485276e-06
-5.2155482e-07
-1.4003782e-06
-5.6745435e-07
-1.4498369e-06
-6.1460133e-07
-1.496836e-06
-6.6289018e-07
-1.5413136e-06
-7.1221406e-07
-1.5832141e-06
-7.6246492e-07
-1.622488e-06
-8.1353374e-07
-1.6590921e-06
-8.6531117e-07
-1.6929896e-06
-9.1768781e-07
-1.7241494e-06
-9.7055423e-07
-1.7525471e-06
-1.0238015e-06
-1.7781643e-06
-1.0773216e-06
-1.8009885e-06
-1.1310074e-06
-1.8210131e-06
-1.1847531e-06
-1.8382374e-06
-1.2384548e-06
-1.8526667e-06
-1.2920099e-06
-1.8643114e-06
-1.3453186e-06
-1.8731876e-06
-1.3982828e-06
-1.8793163e-06
-1.4508072e-06
-1.8827241e-06
-1.5027992e-06
-1.8834419e-06
-1.5541693e-06
-1.8815054e-06
-1.6048308e-06
-1.8769548e-06
-1.6547005e-06
-1.8698343e-06
-1.7036983e-06
-1.8601923e-06
-1.7517479e-06
-1.848081e-06
-1.7987762e-06
-1.8335558e-06
-1.8447144e-06
-1.8166752e-06
-1.8894968e-06
-1.7975015e-06
-1.933062e-06
-1.7760986e-06
-1.9753521e-06
-1.7525338e-06
-2.0163138e-06
-1.7268761e-06
-2.0558968e-06
-1.6991972e-06
-2.0940555e-06
-1.6695699e-06
-2.1307478e-06
-1.6380684e-06
-2.1659355e-06
-1.6047689e-06
-2.1995846e-06
-1.5697481e-06
-2.2316645e-06
-1.5330839e-06
-2.2621489e-06
-1.4948544e-06
-2.2910145e-06
-1.4551388e-06
-2.3182422e-06
-1.4140155e-06
-2.3438165e-06
-1.3715637e-06
-2.3677248e-06
-1.327862e-06
-2.3899583e-06
-1.2829891e-06
-2.4105114e-06
-1.2370225e-06
-2.4293818e-06
-1.1900395e-06
-2.44657e-06
-1.142116e-06
-2.4620794e-06
-1.0933281e-06
-2.4759166e-06
-1.043749e-06
-2.4880905e-06
-9.9345213e-07
-2.4986125e-06
-9.4250881e-07
-2.5074968e-06
-8.9098901e-07
-2.5147594e-06
-8.3896103e-07
-2.520419e-06
-7.8649135e-07
-2.5244957e-06
-7.3364524e-07
-2.5270123e-06
-6.8048555e-07
-2.5279925e-06
-6.2707331e-07
-2.5274622e-06
-5.7346797e-07
-2.5254485e-06
-5.1972673e-07
-2.5219802e-06
-4.6590425e-07
-4.1205406e-07
-1.2426849e-09
-3.7484245e-08
-4.9697629e-09
-1.1243039e-07
-1.1174174e-08
-1.8721817e-07
-1.9843074e-08
-2.6171915e-07
-3.0956819e-08
-3.3578157e-07
-4.4489267e-08
-4.0926128e-07
-6.040817e-08
-4.8202209e-07
-7.8675414e-08
-5.5393107e-07
-9.92471e-08
-6.2485878e-07
-1.2207387e-07
-6.9467903e-07
-1.4710097e-07
-7.6326916e-07
-1.7426857e-07
-8.3050997e-07
-2.0351194e-07
-8.9628608e-07
-2.3476165e-07
-9.6048632e-07
-2.6794388e-07
-1.0230035e-06
-3.0298061e-07
-1.0837352e-06
-3.3979008e-07
-1.1425836e-06
-3.7828673e-07
-1.1994558e-06
-4.1838193e-07
-1.254264e-06
-4.5998383e-07
-1.3069257e-06
-5.0299801e-07
-1.357364e-06
-5.4732759e-07
-1.4055074e-06
-5.9287365e-07
-1.4512899e-06
-6.3953545e-07
-1.4946518e-06
-6.8721085e-07
-1.5355387e-06
-7.3579667e-07
-1.5739021e-06
-7.8518874e-07
-1.6097001e-06
-8.3528243e-07
-1.6428959e-06
-8.8597301e-07
-1.6734588e-06
-9.3715561e-07
-1.7013646e-06
-9.8872591e-07
-1.7265939e-06
-1.0405805e-06
-1.749134e-06
-1.0926164e-06
-1.7689771e-06
-1.1447322e-06
-1.7861217e-06
-1.1968278e-06
-1.8005711e-06
-1.2488049e-06
-1.8123343e-06
-1.300567e-06
-1.8214254e-06
-1.35202e-06
-1.8278634e-06
-1.403072e-06
-1.8316722e-06
-1.4536335e-06
-1.8328803e-06
-1.5036179e-06
-1.8315209e-06
-1.5529418e-06
-1.8276308e-06
-1.6015242e-06
-1.8212519e-06
-1.6492876e-06
-1.8124289e-06
-1.6961579e-06
-1.8012108e-06
-1.7420642e-06
-1.7876495e-06
-1.7869392e-06
-1.7718003e-06
-1.8307191e-06
-1.7537216e-06
-1.8733438e-06
-1.7334739e-06
-1.9147567e-06
-1.7111209e-06
-1.9549049e-06
-1.6867279e-06
-1.9937396e-06
-1.6603625e-06
-2.0312155e-06
-1.6320939e-06
-2.0672906e-06
-1.6019931e-06
-2.1019276e-06
-1.570132e-06
-2.1350919e-06
-1.5365838e-06
-2.1667532e-06
-1.5014226e-06
-2.1968843e-06
-1.4647234e-06
-2.225462e-06
-1.426561e-06
-2.2524664e-06
-1.3870112e-06
-2.2778807e-06
-1.3461492e-06
-2.3016922e-06
-1.3040506e-06
-2.3238907e-06
-1.2607906e-06
-2.3444695e-06
-1.2164436e-06
-2.363425e-06
-1.171084e-06
-2.380756e-06
-1.124785e-06
-2.3964649e-06
-1.0776192e-06
-2.4105561e-06
-1.0296578e-06
-2.4230374e-06
-9.8097097e-07
-2.4339182e-06
-9.3162791e-07
-2.443211e-06
-8.8169621e-07
-2.4509302e-06
-8.3124191e-07
-2.457092e-06
-7.8032956e-07
-2.4617152e-06
-7.29022e-07
-2.4648201e-06
-6.7738074e-07
-2.4664287e-06
-6.2546454e-07
-2.4665647e-06
-5.7333192e-07
-2.4652534e-06
-5.2103788e-07
-2.4625211e-06
-4.6863661e-07
-4.1617939e-07
-1.1973743e-09
-3.628687e-08
-4.7885709e-09
-1.0883919e-07
-1.0766878e-08
-1.8123986e-07
-1.9120087e-08
-2.5336595e-07
-2.9829525e-08
-3.2507214e-07
-4.2870321e-08
-3.9622048e-07
-5.8211851e-08
-4.6668055e-07
-7.5817839e-08
-5.3632509e-07
-9.5646581e-08
-6.0503001e-07
-1.176511e-07
-6.7267453e-07
-1.4177931e-07
-7.3914094e-07
-1.6797428e-07
-8.0431497e-07
-1.9617442e-07
-8.6808595e-07
-2.2631365e-07
-9.3034705e-07
-2.5832173e-07
-9.9099546e-07
-2.9212437e-07
-1.0499326e-06
-3.2764356e-07
-1.1070644e-06
-3.6479798e-07
-1.1623014e-06
-4.0350293e-07
-1.215559e-06
-4.4367105e-07
-1.2667576e-06
-4.8521211e-07
-1.315823e-06
-5.2803373e-07
-1.3626857e-06
-5.7204155e-07
-1.4072821e-06
-6.171394e-07
-1.449554e-06
-6.6322968e-07
-1.4894484e-06
-7.1021352e-07
-1.5269183e-06
-7.5799154e-07
-1.5619221e-06
-8.0646369e-07
-1.5944237e-06
-8.5552947e-07
-1.6243931e-06
-9.0508876e-07
-1.6518052e-06
-9.5504152e-07
-1.6766412e-06
-1.0052884e-06
-1.6988871e-06
-1.0557307e-06
-1.7185349e-06
-1.106271e-06
-1.7355814e-06
-1.1568131e-06
-1.7500289e-06
-1.2072625e-06
-1.7618849e-06
-1.2575265e-06
-1.7711615e-06
-1.307514e-06
-1.7778758e-06
-1.3571367e-06
-1.7820494e-06
-1.4063083e-06
-1.7837088e-06
-1.4549452e-06
-1.782884e-06
-1.5029662e-06
-1.7796098e-06
-1.5502935e-06
-1.7739246e-06
-1.5968517e-06
-1.7658707e-06
-1.642569e-06
-1.7554935e-06
-1.6873764e-06
-1.7428422e-06
-1.7312082e-06
-1.7279684e-06
-1.7740025e-06
-1.7109272e-06
-1.8157003e-06
-1.691776e-06
-1.8562465e-06
-1.6705746e-06
-1.8955893e-06
-1.6473851e-06
-1.9336801e-06
-1.6222716e-06
-1.9704747e-06
-1.5952994e-06
-2.0059315e-06
-1.5665363e-06
-2.0400133e-06
-1.5360502e-06
-2.0726856e-06
-1.5039116e-06
-2.103918e-06
-1.4701903e-06
-2.1336833e-06
-1.4349581e-06
-2.1619577e-06
-1.3982867e-06
-2.1887206e-06
-1.3602482e-06
-2.2139552e-06
-1.3209147e-06
-2.2376472e-06
-1.2803586e-06
-2.2597857e-06
-1.2386519e-06
-2.2803631e-06
-1.1958662e-06
-2.2993745e-06
-1.1520727e-06
-2.3168174e-06
-1.1073422e-06
-2.3326927e-06
-1.0617437e-06
-2.3470038e-06
-1.0153467e-06
-2.3597564e-06
-9.6821858e-07
-2.3709587e-06
-9.2042563e-07
-2.3806211e-06
-8.7203382e-07
-2.3887566e-06
-8.2310634e-07
-2.3953797e-06
-7.7370643e-07
-2.4005072e-06
-7.2389454e-07
-2.4041573e-06
-6.7373059e-07
-2.4063505e-06
-6.2327137e-07
-2.4071084e-06
-5.7257396e-07
-2.4064544e-06
-5.2169188e-07
-2.4044131e-06
-4.706779e-07
-4.1958245e-07
-1.1540071e-09
-3.5132863e-08
-4.6151463e-09
-1.0537805e-07
-1.0377028e-08
-1.7547798e-07
-1.8428069e-08
-2.4531491e-07
-2.8750464e-08
-3.1474974e-07
-4.1320611e-08
-3.8365034e-07
-5.6109346e-08
-4.518918e-07
-7.3082196e-08
-5.1935224e-07
-9.2199427e-08
-5.8591277e-07
-1.1341638e-07
-6.5145756e-07
-1.3668354e-07
-7.1587379e-07
-1.6194664e-07
-7.7905185e-07
-1.8914713e-07
-8.4088547e-07
-2.18222e-07
-9.0127219e-07
-2.4910439e-07
-9.6011307e-07
-2.8172357e-07
-1.0173134e-06
-3.1600528e-07
-1.0727827e-06
-3.5187187e-07
-1.1264348e-06
-3.8924263e-07
-1.1781882e-06
-4.2803415e-07
-1.2279661e-06
-4.6816055e-07
-1.2756966e-06
-5.0953359e-07
-1.3213127e-06
-5.5206306e-07
-1.3647526e-06
-5.9565719e-07
-1.4059598e-06
-6.4022272e-07
-1.4448829e-06
-6.8566519e-07
-1.4814758e-06
-7.3188944e-07
-1.5156978e-06
-7.7879971e-07
-1.5475134e-06
-8.2629993e-07
-1.5768928e-06
-8.7429403e-07
-1.6038112e-06
-9.2268614e-07
-1.6282491e-06
-9.7138094e-07
-1.6501924e-06
-1.0202839e-06
-1.669632e-06
-1.0693012e-06
-1.686564e-06
-1.1183406e-06
-1.7009895e-06
-1.1673112e-06
-1.7129143e-06
-1.2161234e-06
-1.7223492e-06
-1.26469e-06
-1.7293093e-06
-1.3129256e-06
-1.7338139e-06
-1.3607469e-06
-1.7358875e-06
-1.4080731e-06
-1.7355579e-06
-1.4548259e-06
-1.732857e-06
-1.5009296e-06
-1.7278209e-06
-1.5463115e-06
-1.7204888e-06
-1.5909016e-06
-1.7109033e-06
-1.6346331e-06
-1.6991107e-06
-1.677442e-06
-1.6851595e-06
-1.7192679e-06
-1.6691014e-06
-1.7600533e-06
-1.6509907e-06
-1.7997439e-06
-1.6308839e-06
-1.8382894e-06
-1.6088397e-06
-1.8756421e-06
-1.5849189e-06
-1.9117579e-06
-1.5591837e-06
-1.946596e-06
-1.531698e-06
-1.9801197e-06
-1.5025267e-06
-2.0122943e-06
-1.4717369e-06
-2.0430893e-06
-1.4393954e-06
-2.0724777e-06
-1.4055697e-06
-2.1004351e-06
-1.3703292e-06
-2.1269409e-06
-1.3337424e-06
-2.151977e-06
-1.2958786e-06
-2.1755288e-06
-1.2568068e-06
-2.1975846e-06
-1.2165962e-06
-2.2181356e-06
-1.1753154e-06
-2.2371757e-06
-1.1330327e-06
-2.2547016e-06
-1.089816e-06
-2.270713e-06
-1.0457324e-06
-2.2852116e-06
-1.000848e-06
-2.2982018e-06
-9.5522836e-07
-2.3096903e-06
-9.0893707e-07
-2.3196862e-06
-8.6203798e-07
-2.3282001e-06
-8.1459238e-07
-2.3352457e-06
-7.6666094e-07
-2.3408373e-06
-7.1830283e-07
-2.3449925e-06
-6.6957548e-07
-2.3477286e-06
-6.2053516e-07
-2.3490665e-06
-5.7123612e-07
-2.3490271e-06
-5.2173136e-07
-2.3476333e-06
-4.7207164e-07
-4.2230642e-07
-1.1124855e-09
-3.4020378e-08
-4.449102e-09
-1.0204143e-07
-1.0003774e-08
-1.6992331e-07
-1.7765471e-08
-2.3755321e-07
-2.7717274e-08
-3.0479794e-07
-3.9836704e-08
-3.7153091e-07
-5.4096038e-08
-4.3763248e-07
-7.0462421e-08
-5.0298585e-07
-8.8898123e-08
-5.6747708e-07
-1.0936058e-07
-6.309951e-07
-1.3180266e-07
-6.9343172e-07
-1.5617275e-07
-7.5468176e-07
-1.8241499e-07
-8.1464324e-07
-2.1046951e-07
-8.7321768e-07
-2.4027248e-07
-9.3031009e-07
-2.7175656e-07
-9.8582936e-07
-3.048509e-07
-1.0396884e-06
-3.3948155e-07
-1.0918042e-06
-3.7557158e-07
-1.1420982e-06
-4.1304139e-07
-1.1904963e-06
-4.5180893e-07
-1.236929e-06
-4.9178994e-07
-1.2813316e-06
-5.3289841e-07
-1.3236442e-06
-5.7504661e-07
-1.3638117e-06
-6.1814518e-07
-1.4017843e-06
-6.621042e-07
-1.4375169e-06
-7.068324e-07
-1.4709696e-06
-7.5223808e-07
-1.5021078e-06
-7.9822936e-07
-1.5309015e-06
-8.4471412e-07
-1.5573265e-06
-8.9160046e-07
-1.5813627e-06
-9.3879688e-07
-1.6029959e-06
-9.8621269e-07
-1.6222161e-06
-1.0337578e-06
-1.6390188e-06
-1.0813435e-06
-1.6534038e-06
-1.1288824e-06
-1.6653755e-06
-1.1762883e-06
-1.6749432e-06
-1.2234771e-06
-1.6821205e-06
-1.2703664e-06
-1.6869246e-06
-1.3168761e-06
-1.6893778e-06
-1.3629278e-06
-1.6895061e-06
-1.4084459e-06
-1.6873389e-06
-1.4533572e-06
-1.6829096e-06
-1.4975911e-06
-1.6762549e-06
-1.5410799e-06
-1.6674146e-06
-1.5837584e-06
-1.6564321e-06
-1.6255647e-06
-1.6433532e-06
-1.6664396e-06
-1.6282266e-06
-1.706327e-06
-1.6111034e-06
-1.7451742e-06
-1.5920367e-06
-1.7829314e-06
-1.5710825e-06
-1.8195518e-06
-1.5482985e-06
-1.8549925e-06
-1.5237432e-06
-1.889213e-06
-1.4974776e-06
-1.9221761e-06
-1.4695636e-06
-1.9538485e-06
-1.4400645e-06
-1.9841993e-06
-1.4090445e-06
-2.0132011e-06
-1.3765678e-06
-2.0408298e-06
-1.3427006e-06
-2.0670637e-06
-1.3075085e-06
-2.0918846e-06
-1.2710576e-06
-2.1152775e-06
-1.2334141e-06
-2.1372295e-06
-1.1946441e-06
-2.157731e-06
-1.1548138e-06
-2.1767751e-06
-1.1139887e-06
-2.1943576e-06
-1.0722334e-06
-2.2104766e-06
-1.0296136e-06
-2.2251324e-06
-9.8619201e-07
-2.2383287e-06
-9.4203215e-07
-2.2500704e-06
-8.9719527e-07
-2.2603653e-06
-8.5174316e-07
-2.2692226e-06
-8.0573521e-07
-2.2766539e-06
-7.592297e-07
-2.2826725e-06
-7.1228417e-07
-2.2872936e-06
-6.6495443e-07
-2.2905338e-06
-6.1729495e-07
-2.2924114e-06
-5.6935854e-07
-2.2929465e-06
-5.211965e-07
-2.2921593e-06
-4.7285864e-07
-4.2439309e-07
-1.0727192e-09
-3.2947658e-08
-4.2900783e-09
-9.8824074e-08
-9.6463002e-09
-1.6456709e-07
-1.7130874e-08
-2.3006863e-07
-2.6727713e-08
-2.952011e-07
-3.8415416e-08
-3.5984319e-07
-5.2167576e-08
-4.2388031e-07
-6.7952966e-08
-4.8720047e-07
-8.5735621e-08
-5.4969443e-07
-1.0547506e-07
-6.1125566e-07
-1.2712634e-07
-6.7178042e-07
-1.5064035e-07
-7.3116776e-07
-1.7596386e-07
-7.8931972e-07
-2.0303981e-07
-8.4614172e-07
-2.3180748e-07
-9.0154246e-07
-2.6220253e-07
-9.5543432e-07
-2.9415749e-07
-1.0077334e-06
-3.2760185e-07
-1.0583598e-06
-3.6246213e-07
-1.1072379e-06
-3.9866239e-07
-1.154296e-06
-4.3612439e-07
-1.199467e-06
-4.7476765e-07
-1.2426884e-06
-5.1450992e-07
-1.2839019e-06
-5.5526732e-07
-1.3230543e-06
-5.9695467e-07
-1.3600969e-06
-6.3948566e-07
-1.394986e-06
-6.8277311e-07
-1.4276821e-06
-7.2672919e-07
-1.4581517e-06
-7.7126586e-07
-1.4863648e-06
-8.1629504e-07
-1.5122973e-06
-8.6172824e-07
-1.5359295e-06
-9.0747804e-07
-1.5572461e-06
-9.5345709e-07
-1.5762371e-06
-9.9957901e-07
-1.5928969e-06
-1.0457585e-06
-1.6072243e-06
-1.0919114e-06
-1.6192227e-06
-1.1379547e-06
-1.6288999e-06
-1.1838077e-06
-1.6362674e-06
-1.2293907e-06
-1.6413416e-06
-1.2746261e-06
-1.6441425e-06
-1.3194386e-06
-1.6446936e-06
-1.3637549e-06
-1.6430225e-06
-1.4075044e-06
-1.6391601e-06
-1.4506184e-06
-1.6331409e-06
-1.4930312e-06
-1.6250018e-06
-1.5346798e-06
-1.6147835e-06
-1.5755035e-06
-1.6025294e-06
-1.6154451e-06
-1.5882851e-06
-1.6544496e-06
-1.5720986e-06
-1.6924655e-06
-1.5540208e-06
-1.7294439e-06
-1.5341042e-06
-1.7653392e-06
-1.512403e-06
-1.8001088e-06
-1.4889736e-06
-1.8337132e-06
-1.4638731e-06
-1.8661154e-06
-1.4371613e-06
-1.897282e-06
-1.4088979e-06
-1.9271829e-06
-1.3791437e-06
-1.95579e-06
-1.3479608e-06
-1.983079e-06
-1.3154115e-06
-2.0090284e-06
-1.281559e-06
-2.0336193e-06
-1.2464666e-06
-2.0568359e-06
-1.2101974e-06
-2.0786649e-06
-1.1728151e-06
-2.099096e-06
-1.1343827e-06
-2.1181212e-06
-1.0949634e-06
-2.1357351e-06
-1.0546196e-06
-2.1519352e-06
-1.0134135e-06
-2.1667205e-06
-9.7140657e-07
-2.1800934e-06
-9.2865908e-07
-2.1920575e-06
-8.8523126e-07
-2.2026191e-06
-8.411816e-07
-2.2117862e-06
-7.9656812e-07
-2.2195688e-06
-7.5144706e-07
-2.2259789e-06
-7.0587408e-07
-2.2310298e-06
-6.5990348e-07
-2.2347369e-06
-6.1358791e-07
-2.2371168e-06
-5.6697853e-07
-2.2381873e-06
-5.2012585e-07
-2.237968e-06
-4.7307776e-07
-4.2588134e-07
-1.0346257e-09
-3.1913033e-08
-4.1377391e-09
-9.572096e-08
-9.3038394e-09
-1.5940099e-07
-1.6522922e-08
-2.2284956e-07
-2.5779676e-08
-2.8594434e-07
-3.7053714e-08
-3.4856916e-07
-5.0319916e-08
-4.1061411e-07
-6.5548534e-08
-4.7197185e-07
-8.2705282e-08
-5.3253767e-07
-1.0175165e-07
-5.9220931e-07
-1.2264479e-07
-6.5088727e-07
-1.4533795e-07
-7.0847459e-07
-1.6978035e-07
-7.6487733e-07
-1.9591772e-07
-8.2000434e-07
-2.2369202e-07
-8.7376811e-07
-2.5304205e-07
-9.2608429e-07
-2.8390339e-07
-9.7687205e-07
-3.1620871e-07
-1.0260545e-06
-3.49888e-07
-1.0735586e-06
-3.8486873e-07
-1.1193153e-06
-4.2107616e-07
-1.1632597e-06
-4.5843339e-07
-1.2053311e-06
-4.9686189e-07
-1.2454734e-06
-5.3628146e-07
-1.2836347e-06
-5.7661064e-07
-1.3197677e-06
-6.1776689e-07
-1.3538297e-06
-6.5966667e-07
-1.3857823e-06
-7.0222603e-07
-1.4155923e-06
-7.4536037e-07
-1.4432305e-06
-7.8898535e-07
-1.4686724e-06
-8.3301636e-07
-1.4918985e-06
-8.7736908e-07
-1.5128934e-06
-9.2195995e-07
-1.5316463e-06
-9.6670595e-07
-1.5481509e-06
-1.0115249e-06
-1.5624053e-06
-1.056336e-06
-1.5744116e-06
-1.1010595e-06
-1.5841763e-06
-1.1456172e-06
-1.5917099e-06
-1.1899323e-06
-1.5970265e-06
-1.2339302e-06
-1.6001446e-06
-1.277538e-06
-1.6010858e-06
-1.3206849e-06
-1.5998756e-06
-1.3633023e-06
-1.5965427e-06
-1.405324e-06
-1.5911191e-06
-1.4466862e-06
-1.5836396e-06
-1.4873273e-06
-1.5741424e-06
-1.5271888e-06
-1.5626679e-06
-1.5662146e-06
-1.5492593e-06
-1.6043514e-06
-1.5339619e-06
-1.6415486e-06
-1.5168236e-06
-1.6777587e-06
-1.4978942e-06
-1.7129363e-06
-1.4772254e-06
-1.7470401e-06
-1.4548697e-06
-1.7800306e-06
-1.4308825e-06
-1.811872e-06
-1.4053201e-06
-1.8425308e-06
-1.3782389e-06
-1.8719766e-06
-1.3496979e-06
-1.9001821e-06
-1.3197552e-06
-1.9271227e-06
-1.2884711e-06
-1.952776e-06
-1.2559057e-06
-1.9771234e-06
-1.2221193e-06
-2.0001483e-06
-1.1871725e-06
-2.0218367e-06
-1.1511266e-06
-2.0421779e-06
-1.1140415e-06
-2.0611629e-06
-1.0759785e-06
-2.0787855e-06
-1.0369969e-06
-2.0950419e-06
-9.9715714e-07
-2.1099307e-06
-9.5651782e-07
-2.1234526e-06
-9.1513713e-07
-2.1356101e-06
-8.7307376e-07
-2.1464081e-06
-8.303835e-07
-2.1558538e-06
-7.871225e-07
-2.1639554e-06
-7.4334547e-07
-2.1707233e-06
-6.9910613e-07
-2.17617e-06
-6.5445694e-07
-2.1803088e-06
-6.09449e-07
-2.1831549e-06
-5.6413246e-07
-2.1847249e-06
-5.1855582e-07
-2.1850367e-06
-4.7276606e-07
-4.2680888e-07
-9.9812179e-10
-3.0914911e-08
-3.9917633e-09
-9.2727321e-08
-8.9756796e-09
-1.5441708e-07
-1.5940348e-08
-2.1588488e-07
-2.487118e-08
-2.7701352e-07
-3.574875e-08
-3.3769158e-07
-4.854915e-08
-3.9781372e-07
-6.3244029e-08
-4.5727698e-07
-7.9800753e-08
-5.1598094e-07
-9.8182563e-08
-5.7382751e-07
-1.1834872e-07
-6.3072111e-07
-1.4025457e-07
-6.8656874e-07
-1.6385188e-07
-7.4128003e-07
-1.8908865e-07
-7.9476758e-07
-2.1590975e-07
-8.4694705e-07
-2.442567e-07
-8.9773734e-07
-2.7406804e-07
-9.4706072e-07
-3.0527949e-07
-9.9484302e-07
-3.3782431e-07
-1.0410138e-06
-3.7163318e-07
-1.0855064e-06
-4.0663474e-07
-1.1282581e-06
-4.4275558e-07
-1.1692103e-06
-4.799205e-07
-1.2083085e-06
-5.1805285e-07
-1.2455023e-06
-5.5707485e-07
-1.2807458e-06
-5.9690722e-07
-1.3139973e-06
-6.3747022e-07
-1.3452193e-06
-6.7868335e-07
-1.3743792e-06
-7.2046577e-07
-1.4014481e-06
-7.6273621e-07
-1.4264019e-06
-8.0541373e-07
-1.449221e-06
-8.4841746e-07
-1.4698896e-06
-8.9166703e-07
-1.4883967e-06
-9.3508264e-07
-1.5047353e-06
-9.7858545e-07
-1.5189025e-06
-1.0220974e-06
-1.5308997e-06
-1.065542e-06
-1.5407318e-06
-1.1088437e-06
-1.5484081e-06
-1.1519287e-06
-1.5539415e-06
-1.1947247e-06
-1.5573484e-06
-1.2371614e-06
-1.5586491e-06
-1.2791705e-06
-1.5578667e-06
-1.3206853e-06
-1.5550279e-06
-1.3616418e-06
-1.5501627e-06
-1.4019779e-06
-1.5433034e-06
-1.4416343e-06
-1.534486e-06
-1.4805537e-06
-1.5237485e-06
-1.5186817e-06
-1.5111314e-06
-1.5559662e-06
-1.4966775e-06
-1.5923576e-06
-1.4804322e-06
-1.6278094e-06
-1.4624424e-06
-1.6622779e-06
-1.442757e-06
-1.6957215e-06
-1.4214262e-06
-1.7281018e-06
-1.3985022e-06
-1.7593832e-06
-1.3740387e-06
-1.7895327e-06
-1.3480894e-06
-1.8185202e-06
-1.3207103e-06
-1.8463183e-06
-1.2919572e-06
-1.872902e-06
-1.2618872e-06
-1.8982495e-06
-1.2305581e-06
-1.9223411e-06
-1.1980276e-06
-1.9451601e-06
-1.1643536e-06
-1.9666923e-06
-1.1295944e-06
-1.9869256e-06
-1.0938083e-06
-2.0058507e-06
-1.0570533e-06
-2.0234609e-06
-1.0193868e-06
-2.0397512e-06
-9.8086696e-07
-2.0547191e-06
-9.4154997e-07
-2.068364e-06
-9.0149226e-07
-2.0806879e-06
-8.6074973e-07
-2.0916943e-06
-8.1937715e-07
-2.101389e-06
-7.7742773e-07
-2.1097791e-06
-7.3495532e-07
-2.1168737e-06
-6.9201163e-07
-2.1226834e-06
-6.4864709e-07
-2.1272208e-06
-6.0491167e-07
-2.1304995e-06
-5.6085392e-07
-2.1325342e-06
-5.1652096e-07
-2.1333417e-06
-4.7195844e-07
-4.2721117e-07
-9.6313407e-10
-2.9951777e-08
-3.8518419e-09
-8.9838612e-08
-8.6611302e-09
-1.4960779e-07
-1.5381921e-08
-2.0916409e-07
-2.4000309e-08
-2.6839513e-07
-3.449783e-08
-3.2719407e-07
-4.6851644e-08
-3.8545989e-07
-6.1034744e-08
-4.4309387e-07
-7.7016087e-08
-4.9999963e-07
-9.4760563e-08
-5.5608301e-07
-1.142294e-07
-6.1125229e-07
-1.3538001e-07
-6.6541811e-07
-1.5816629e-07
-7.1849371e-07
-1.8253884e-07
-7.7039503e-07
-2.0844495e-07
-8.2104095e-07
-2.3582882e-07
-8.7035348e-07
-2.6463182e-07
-9.1825771e-07
-2.9479268e-07
-9.6468218e-07
-3.2624748e-07
-1.009559e-06
-3.5893022e-07
-1.0528237e-06
-3.9277251e-07
-1.0944158e-06
-4.2770422e-07
-1.1342786e-06
-4.6365362e-07
-1.1723591e-06
-5.0054732e-07
-1.2086086e-06
-5.3831074e-07
-1.2429824e-06
-5.7686829e-07
-1.2754398e-06
-6.161434e-07
-1.3059443e-06
-6.56059e-07
-1.3344636e-06
-6.9653752e-07
-1.3609695e-06
-7.3750116e-07
-1.3854383e-06
-7.7887226e-07
-1.4078499e-06
-8.205731e-07
-1.4281888e-06
-8.6252646e-07
-1.4464433e-06
-9.0465579e-07
-1.4626059e-06
-9.4688509e-07
-1.4766732e-06
-9.8913951e-07
-1.4886453e-06
-1.031345e-06
-1.4985263e-06
-1.073429e-06
-1.5063241e-06
-1.1153203e-06
-1.5120502e-06
-1.1569491e-06
-1.5157196e-06
-1.1982476e-06
-1.5173506e-06
-1.2391494e-06
-1.5169649e-06
-1.2795904e-06
-1.5145869e-06
-1.3195084e-06
-1.5102447e-06
-1.3588432e-06
-1.5039686e-06
-1.397537e-06
-1.4957922e-06
-1.4355345e-06
-1.4857511e-06
-1.4727822e-06
-1.4738836e-06
-1.5092296e-06
-1.46023e-06
-1.5448286e-06
-1.4448332e-06
-1.5795333e-06
-1.4277376e-06
-1.6133009e-06
-1.4089895e-06
-1.6460906e-06
-1.3886364e-06
-1.6778648e-06
-1.366728e-06
-1.7085883e-06
-1.3433152e-06
-1.7382282e-06
-1.3184495e-06
-1.7667548e-06
-1.2921837e-06
-1.7941408e-06
-1.2645712e-06
-1.8203611e-06
-1.2356669e-06
-1.8453939e-06
-1.2055255e-06
-1.8692189e-06
-1.1742025e-06
-1.8918195e-06
-1.141753e-06
-1.9131807e-06
-1.1082333e-06
-1.9332901e-06
-1.0736987e-06
-1.9521377e-06
-1.0382056e-06
-1.9697156e-06
-1.0018089e-06
-1.9860184e-06
-9.6456403e-07
-2.0010427e-06
-9.265256e-07
-2.014787e-06
-8.8774809e-07
-2.0272519e-06
-8.4828491e-07
-2.0384402e-06
-8.0818879e-07
-2.048356e-06
-7.6751202e-07
-2.0570058e-06
-7.2630555e-07
-2.0643973e-06
-6.8462003e-07
-2.0705397e-06
-6.4250463e-07
-2.0754441e-06
-6.0000721e-07
-2.0791231e-06
-5.5717482e-07
-2.0815902e-06
-5.1405386e-07
-2.0828604e-06
-4.7068828e-07
-4.271218e-07
-9.2958909e-10
-2.9022189e-08
-3.7176965e-09
-8.7050505e-08
-8.359559e-09
-1.4496593e-07
-1.4846523e-08
-2.0267713e-07
-2.3165343e-08
-2.6007631e-07
-3.3298387e-08
-3.1706101e-07
-4.5223939e-08
-3.7353435e-07
-5.8916228e-08
-4.2940158e-07
-7.4345617e-08
-4.8457022e-07
-9.1478729e-08
-5.389499e-07
-1.1027849e-07
-5.9245251e-07
-1.3070438e-07
-6.4499225e-07
-1.5271238e-07
-6.9648573e-07
-1.762553e-07
-7.4685209e-07
-2.0128289e-07
-7.9601336e-07
-2.2774189e-07
-8.4389446e-07
-2.5557642e-07
-8.9042319e-07
-2.8472785e-07
-9.3553075e-07
-3.1513522e-07
-9.7915164e-07
-3.4673534e-07
-1.0212236e-06
-3.7946301e-07
-1.0616882e-06
-4.1325107e-07
-1.1004904e-06
-4.4803095e-07
-1.1375792e-06
-4.8373239e-07
-1.1729071e-06
-5.2028406e-07
-1.2064307e-06
-5.5761368e-07
-1.2381102e-06
-5.9564783e-07
-1.2679101e-06
-6.3431253e-07
-1.2957989e-06
-6.7353354e-07
-1.3217485e-06
-7.1323629e-07
-1.3457355e-06
-7.5334616e-07
-1.3677401e-06
-7.9378843e-07
-1.3877464e-06
-8.3448925e-07
-1.4057426e-06
-8.7537472e-07
-1.4217205e-06
-9.1637193e-07
-1.435676e-06
-9.5740866e-07
-1.4476086e-06
-9.9841362e-07
-1.4575213e-06
-1.039317e-06
-1.4654207e-06
-1.0800501e-06
-1.4713171e-06
-1.1205455e-06
-1.4752242e-06
-1.1607377e-06
-1.4771585e-06
-1.2005625e-06
-1.47714e-06
-1.2399578e-06
-1.4751916e-06
-1.2788634e-06
-1.4713391e-06
-1.3172208e-06
-1.4656111e-06
-1.3549744e-06
-1.4580388e-06
-1.3920695e-06
-1.4486558e-06
-1.428455e-06
-1.4374982e-06
-1.4640812e-06
-1.424604e-06
-1.4989009e-06
-1.4100133e-06
-1.5328697e-06
-1.3937687e-06
-1.5659456e-06
-1.3759136e-06
-1.5980884e-06
-1.3564935e-06
-1.6292612e-06
-1.3355554e-06
-1.659429e-06
-1.3131473e-06
-1.6885598e-06
-1.2893187e-06
-1.716624e-06
-1.2641195e-06
-1.7435941e-06
-1.2376011e-06
-1.7694455e-06
-1.2098156e-06
-1.7941557e-06
-1.1808154e-06
-1.8177049e-06
-1.1506533e-06
-1.8400756e-06
-1.1193821e-06
-1.8612528e-06
-1.0870561e-06
-1.8812233e-06
-1.0537283e-06
-1.8999767e-06
-1.0194522e-06
-1.9175044e-06
-9.8428113e-07
-1.9338003e-06
-9.4826815e-07
-1.9488599e-06
-9.114661e-07
-1.9626809e-06
-8.7392697e-07
-1.9752634e-06
-8.357024e-07
-1.9866086e-06
-7.9684349e-07
-1.99672e-06
-7.5740055e-07
-2.0056025e-06
-7.1742297e-07
-2.0132628e-06
-6.7695974e-07
-2.0197093e-06
-6.3605814e-07
-2.0249515e-06
-5.9476515e-07
-2.0290004e-06
-5.5312597e-07
-2.0318686e-06
-5.1118561e-07
-2.0335698e-06
-4.6898712e-07
-4.265728e-07
-8.9741835e-10
-2.8124769e-08
-3.5890493e-09
-8.4358876e-08
-8.0703405e-09
-1.4048463e-07
-1.4333051e-08
-1.9641442e-07
-2.236454e-08
-2.5204481e-07
-3.2148018e-08
-3.0727754e-07
-4.3662752e-08
-3.6201962e-07
-5.6884188e-08
-4.1618016e-07
-7.178404e-08
-4.6967036e-07
-8.83305e-08
-5.2240344e-07
-1.064882e-07
-5.7429482e-07
-1.2621846e-07
-6.2526198e-07
-1.474793e-07
-6.7522486e-07
-1.7022571e-07
-7.241057e-07
-1.9440967e-07
-7.7182942e-07
-2.1998042e-07
-8.1832372e-07
-2.4688446e-07
-8.6351916e-07
-2.7506585e-07
-9.0734937e-07
-3.0446637e-07
-9.4975111e-07
-3.3502561e-07
-9.9066439e-07
-3.6668122e-07
-1.0300326e-06
-3.9936908e-07
-1.0678026e-06
-4.3302345e-07
-1.1039249e-06
-4.6757724e-07
-1.1383534e-06
-5.0296211e-07
-1.1710458e-06
-5.3910863e-07
-1.2019636e-06
-5.759467e-07
-1.2310721e-06
-6.1340545e-07
-1.2583401e-06
-6.5141348e-07
-1.2837405e-06
-6.8989945e-07
-1.3072496e-06
-7.2879154e-07
-1.3288479e-06
-7.6801834e-07
-1.3485196e-06
-8.075085e-07
-1.3662524e-06
-8.4719108e-07
-1.3820378e-06
-8.8699599e-07
-1.3958711e-06
-9.2685371e-07
-1.4077509e-06
-9.6669568e-07
-1.4176793e-06
-1.0064544e-06
-1.425662e-06
-1.0460636e-06
-1.4317079e-06
-1.0854585e-06
-1.4358294e-06
-1.1245754e-06
-1.4380416e-06
-1.1633526e-06
-1.4383629e-06
-1.2017298e-06
-1.4368144e-06
-1.2396487e-06
-1.4334202e-06
-1.2770528e-06
-1.4282071e-06
-1.3138874e-06
-1.4212041e-06
-1.3501004e-06
-1.4124429e-06
-1.3856412e-06
-1.4019572e-06
-1.4204618e-06
-1.3897834e-06
-1.454516e-06
-1.375959e-06
-1.4877606e-06
-1.3605242e-06
-1.5201539e-06
-1.3435203e-06
-1.5516572e-06
-1.3249902e-06
-1.5822339e-06
-1.3049788e-06
-1.6118495e-06
-1.2835316e-06
-1.6404725e-06
-1.2606957e-06
-1.6680734e-06
-1.2365186e-06
-1.6946248e-06
-1.2110498e-06
-1.7201023e-06
-1.184338e-06
-1.7444837e-06
-1.156434e-06
-1.7677486e-06
-1.1273883e-06
-1.7898794e-06
-1.0972513e-06
-1.8108607e-06
-1.0660749e-06
-1.8306788e-06
-1.0339101e-06
-1.8493228e-06
-1.0008081e-06
-1.8667837e-06
-9.6682016e-07
-1.8830544e-06
-9.3199763e-07
-1.8981298e-06
-8.9639053e-07
-1.9120071e-06
-8.600498e-07
-1.9246849e-06
-8.2302466e-07
-1.9361641e-06
-7.8536436e-07
-1.9464465e-06
-7.4711807e-07
-1.9555364e-06
-7.0833314e-07
-1.9634392e-06
-6.6905684e-07
-1.9701623e-06
-6.2933514e-07
-1.9757142e-06
-5.8921321e-07
-1.9801045e-06
-5.4873561e-07
-1.9833447e-06
-5.0794536e-07
-1.9854469e-06
-4.6688509e-07
-4.2559514e-07
-8.6656031e-10
-2.7258209e-08
-3.4656358e-09
-8.1759799e-08
-7.7929032e-09
-1.3615737e-07
-1.3840485e-08
-1.9036684e-07
-2.1596338e-08
-2.4428897e-07
-3.1044423e-08
-2.9782945e-07
-4.2164994e-08
-3.5089907e-07
-5.4934588e-08
-4.0341055e-07
-6.9326292e-08
-4.5527865e-07
-8.5309685e-08
-5.0642004e-07
-1.0285109e-07
-5.5675345e-07
-1.219135e-07
-6.0619956e-07
-1.4245694e-07
-6.5468141e-07
-1.6443839e-07
-7.0212421e-07
-1.8781206e-07
-7.4845576e-07
-2.125294e-07
-7.9360639e-07
-2.3853928e-07
-8.3750928e-07
-2.6578828e-07
-8.8010032e-07
-2.9422085e-07
-9.2131853e-07
-3.2377917e-07
-9.6110609e-07
-3.5440358e-07
-9.994082e-07
-3.8603276e-07
-1.0361734e-06
-4.1860381e-07
-1.0713538e-06
-4.5205254e-07
-1.1049046e-06
-4.8631344e-07
-1.1367849e-06
-5.2132012e-07
-1.1669569e-06
-5.5700534e-07
-1.1953869e-06
-5.9330111e-07
-1.2220443e-06
-6.3013913e-07
-1.2469024e-06
-6.6745075e-07
-1.269938e-06
-7.0516707e-07
-1.2911316e-06
-7.4321947e-07
-1.3104673e-06
-7.8153933e-07
-1.3279325e-06
-8.2005872e-07
-1.3435184e-06
-8.5870995e-07
-1.3572199e-06
-8.9742608e-07
-1.3690347e-06
-9.3614121e-07
-1.3789642e-06
-9.7479018e-07
-1.3870129e-06
-1.0133091e-06
-1.393189e-06
-1.0516352e-06
-1.3975032e-06
-1.0897073e-06
-1.3999695e-06
-1.1274655e-06
-1.4006046e-06
-1.1648517e-06
-1.3994282e-06
-1.2018091e-06
-1.3964628e-06
-1.238283e-06
-1.3917331e-06
-1.2742205e-06
-1.3852667e-06
-1.3095706e-06
-1.3770927e-06
-1.3442845e-06
-1.3672435e-06
-1.3783151e-06
-1.3557528e-06
-1.4116176e-06
-1.3426565e-06
-1.4441494e-06
-1.3279924e-06
-1.4758702e-06
-1.3117995e-06
-1.5067417e-06
-1.2941188e-06
-1.5367278e-06
-1.2749925e-06
-1.5657951e-06
-1.2544643e-06
-1.5939121e-06
-1.2325787e-06
-1.6210497e-06
-1.2093811e-06
-1.6471809e-06
-1.1849185e-06
-1.6722808e-06
-1.1592379e-06
-1.6963277e-06
-1.1323872e-06
-1.7193011e-06
-1.1044149e-06
-1.7411829e-06
-1.0753696e-06
-1.7619574e-06
-1.0453004e-06
-1.781611e-06
-1.0142566e-06
-1.8001322e-06
-9.8228715e-07
-1.8175108e-06
-9.4944141e-07
-1.8337397e-06
-9.1576859e-07
-1.8488131e-06
-8.8131711e-07
-1.8627271e-06
-8.4613579e-07
-1.8754798e-06
-8.1027195e-07
-1.8870707e-06
-7.737734e-07
-1.8975015e-06
-7.3668738e-07
-1.906775e-06
-6.9905961e-07
-1.9148958e-06
-6.6093596e-07
-1.9218701e-06
-6.2236092e-07
-1.9277049e-06
-5.8337827e-07
-1.9324095e-06
-5.4403098e-07
-1.9359937e-06
-5.0436137e-07
-1.9384687e-06
-4.6440996e-07
-4.2421706e-07
-8.3695108e-10
-2.6421258e-08
-3.3472332e-09
-7.9249519e-08
-7.5267036e-09
-1.319779e-07
-1.3367865e-08
-1.8452568e-07
-2.0859206e-08
-2.3679762e-07
-2.998544e-08
-2.8870321e-07
-4.0727697e-08
-3.401568e-07
-5.306366e-08
-3.9107459e-07
-6.6967573e-08
-4.4137474e-07
-8.241047e-08
-4.9097716e-07
-9.9360095e-08
-5.3980379e-07
-1.1778122e-07
-5.8777843e-07
-1.376357e-07
-6.3482696e-07
-1.5888235e-07
-6.8087756e-07
-1.8147745e-07
-7.2586063e-07
-2.0537466e-07
-7.6970921e-07
-2.3052517e-07
-8.1235873e-07
-2.5687793e-07
-8.5374756e-07
-2.8437966e-07
-8.9381681e-07
-3.1297519e-07
-9.3251054e-07
-3.4260751e-07