/*--------------------------------*- C++ -*----------------------------------*\
| =========                 |                                                 |
| \\      /  F ield         | OpenFOAM: The Open Source CFD Toolbox           |
|  \\    /   O peration     | Version:  2306                                  |
|   \\  /    A nd           | Website:  www.openfoam.com                      |
|    \\/     M anipulation  |                                                 |
\*---------------------------------------------------------------------------*/
FoamFile
{
    version     2.0;
    format      ascii;
    arch        "LSB;label=32;scalar=64";
    class       volVectorField;
    location    "0.51";
    object      U;
}
// * * * * * * * * * * * * * * * * * * * * * * * * * * * * * * * * * * * * * //

dimensions      [0 1 -1 0 0 0 0];

internalField   nonuniform List<vector> 
51200
(
(3.2731649e-05 -2.7870348e-05 -9.9071384e-20)
(7.5420219e-05 -3.1308372e-05 -8.4326832e-22)
(0.00012269813 -3.0582678e-05 1.9061704e-20)
(0.00016775158 -3.0211598e-05 -4.7797443e-21)
(0.00021290756 -2.9888232e-05 -1.6276486e-20)
(0.00025718815 -2.9550857e-05 6.748099e-21)
(0.00030071485 -2.9240034e-05 5.3422801e-21)
(0.00034353612 -2.8921712e-05 -1.3796254e-20)
(0.00038562105 -2.8581446e-05 -3.1259986e-21)
(0.0004269044 -2.8212742e-05 3.6019995e-20)
(0.0004673078 -2.7812742e-05 4.2430708e-20)
(0.00050674689 -2.7380612e-05 4.5477098e-21)
(0.000545136 -2.6916903e-05 2.8173816e-20)
(0.00058239233 -2.6422524e-05 2.8190493e-20)
(0.00061843746 -2.5898691e-05 1.3639014e-20)
(0.00065319824 -2.5346902e-05 1.3423903e-20)
(0.00068660653 -2.4768579e-05 9.6111148e-21)
(0.0007185992 -2.4165417e-05 1.8083652e-20)
(0.00074911865 -2.3539051e-05 4.5672156e-21)
(0.00077811274 -2.2891261e-05 -8.8173905e-21)
(0.0008055356 -2.222399e-05 1.2467798e-20)
(0.00083134625 -2.1538543e-05 2.4606233e-20)
(0.00085550959 -2.0837172e-05 2.0504011e-20)
(0.00087799606 -2.0121277e-05 -5.0538832e-21)
(0.00089878194 -1.9393309e-05 -7.2374218e-20)
(0.00091784909 -1.8654963e-05 -5.4826625e-20)
(0.00093518423 -1.7907982e-05 2.2255418e-20)
(0.0009507786 -1.7153923e-05 -2.9986196e-20)
(0.00096463099 -1.6395507e-05 -4.8219305e-20)
(0.00097674521 -1.5632456e-05 4.0208277e-20)
(0.00098712874 -1.4865862e-05 3.3870283e-20)
(0.0009957958 -1.4094464e-05 -5.5929546e-20)
(0.0010027687 -1.3318134e-05 -1.0613333e-19)
(0.0010080848 -1.2541989e-05 1.6841252e-20)
(0.0010117715 -1.1784019e-05 1.2952867e-19)
(0.0010138494 -1.1056618e-05 -1.0839122e-20)
(0.0010143488 -1.0357326e-05 -1.1240704e-19)
(0.0010133069 -9.6846015e-06 -4.4006009e-20)
(0.0010107731 -9.0381884e-06 -8.1248716e-21)
(0.0010067996 -8.4161658e-06 -2.3001278e-20)
(0.0010014383 -7.8195276e-06 -6.9721386e-21)
(0.00099474795 -7.2511151e-06 8.0325047e-20)
(0.00098678381 -6.7096901e-06 2.5377845e-19)
(0.00097760157 -6.2003517e-06 2.4788469e-19)
(0.00096725473 -5.7131446e-06 -7.9456101e-20)
(0.00095579792 -5.2501881e-06 -3.738522e-19)
(0.00094330218 -4.807098e-06 -2.142385e-19)
(0.00092983839 -4.3521862e-06 9.6809138e-20)
(0.00091546567 -3.9048039e-06 1.212292e-19)
(0.00090024485 -3.4812493e-06 -4.4656687e-20)
(0.0008842307 -3.0725381e-06 -3.9693248e-20)
(0.00086746854 -2.6567677e-06 1.5140345e-19)
(0.00085006978 -2.1957691e-06 1.5276535e-19)
(0.00083212707 -1.7478528e-06 -5.6879832e-20)
(0.00081367648 -1.3261093e-06 -1.6341467e-19)
(0.00079477656 -9.3109218e-07 -1.2186736e-19)
(0.00077548617 -5.6118096e-07 -3.1044721e-20)
(0.00075586413 -2.1642245e-07 3.4915442e-20)
(0.00073597207 1.0506842e-07 4.3922471e-20)
(0.00071586553 4.0724646e-07 9.1855056e-22)
(0.00069559841 6.8560143e-07 -1.3003851e-20)
(0.00067522638 9.43899e-07 9.1052746e-20)
(0.00065480002 1.182915e-06 -2.1675368e-20)
(0.00063436788 1.4042955e-06 -2.8848867e-19)
(0.00061397409 1.6098739e-06 -2.6001568e-19)
(0.00059366659 1.7921233e-06 1.4470795e-19)
(0.00057348993 1.9592404e-06 3.6674308e-19)
(0.00055347932 2.1117023e-06 4.8815455e-22)
(0.00053367178 2.2464795e-06 -1.8057339e-19)
(0.00051410229 2.3673852e-06 -5.3475474e-20)
(0.00049480215 2.4743542e-06 2.0997298e-20)
(0.00047579964 2.5682355e-06 1.1106667e-19)
(0.00045712121 2.6486777e-06 6.8289919e-20)
(0.00043879226 2.7167802e-06 2.1232458e-20)
(0.00042083254 2.7773731e-06 4.8527586e-20)
(0.00040326125 2.823132e-06 -2.1807535e-21)
(0.00038609721 2.8585089e-06 -5.837872e-20)
(0.00036935586 2.8839279e-06 -4.745738e-20)
(0.00035304463 2.9122367e-06 -4.1413218e-21)
(0.00033717444 2.9203819e-06 -7.2844308e-20)
(0.00032175807 2.9238921e-06 -2.0034048e-19)
(0.00030679899 2.9215488e-06 1.247962e-19)
(0.00029230237 2.9109323e-06 1.9541658e-19)
(0.00027827198 2.8952594e-06 -2.5017198e-20)
(0.00026470889 2.8751506e-06 3.2257187e-20)
(0.00025161279 2.8505586e-06 -5.8889372e-20)
(0.00023898194 2.8217311e-06 7.4768268e-20)
(0.000226813 2.7889391e-06 4.8491031e-20)
(0.00021510198 2.7530915e-06 -2.1586741e-19)
(0.00020384401 2.7143131e-06 -8.2348772e-20)
(0.00019303271 2.6729857e-06 -1.371854e-19)
(0.00018266105 2.6294416e-06 -5.8214653e-20)
(0.00017272103 2.5839967e-06 1.8840377e-19)
(0.00016320402 2.5370531e-06 1.2059243e-19)
(0.00015410082 2.4888882e-06 -2.4779086e-20)
(0.00014540159 2.4397655e-06 -1.7659378e-19)
(0.00013709601 2.3899419e-06 9.5756271e-20)
(0.00012917339 2.339681e-06 2.1817677e-19)
(0.00012162271 2.2892316e-06 -1.7165987e-21)
(0.00011443274 2.2388225e-06 -1.3461405e-19)
(0.00010759209 2.1886734e-06 -1.9743784e-19)
(0.00010108925 2.1389972e-06 9.7586675e-20)
(9.4912807e-05 2.0900064e-06 1.5498061e-19)
(8.9051404e-05 2.0418851e-06 2.5103685e-20)
(8.3493765e-05 1.9947732e-06 -6.3756444e-20)
(7.8228624e-05 1.9489189e-06 -2.2932905e-19)
(7.3244685e-05 1.9044665e-06 7.7834088e-20)
(6.8530736e-05 1.8614004e-06 2.083832e-19)
(6.4075669e-05 1.8195512e-06 4.3715897e-20)
(5.9868548e-05 1.7787274e-06 3.4510041e-20)
(5.5898676e-05 1.7388032e-06 -1.863335e-19)
(5.2155592e-05 1.7000126e-06 -1.4261165e-19)
(4.8628157e-05 1.6637952e-06 1.3286597e-19)
(4.5305571e-05 1.6293352e-06 7.2108228e-20)
(4.2178379e-05 1.5965504e-06 3.1301671e-21)
(3.9237507e-05 1.5656018e-06 -4.2450294e-20)
(3.64742e-05 1.5367011e-06 -4.0009934e-21)
(3.3880193e-05 1.5100237e-06 8.5907604e-20)
(3.1448097e-05 1.4855116e-06 -1.762383e-20)
(2.9171227e-05 1.4628436e-06 -4.6857216e-20)
(2.7039787e-05 1.4443414e-06 -3.499913e-20)
(2.5042892e-05 1.4274028e-06 3.1480002e-20)
(2.3173205e-05 1.4103929e-06 6.6428753e-20)
(2.1424697e-05 1.3934871e-06 -2.4858016e-20)
(1.9791196e-05 1.3769255e-06 -5.1943956e-20)
(1.8266487e-05 1.3608412e-06 -5.9445171e-20)
(1.6844475e-05 1.3453005e-06 3.4835707e-20)
(1.5519274e-05 1.3303279e-06 8.8094642e-20)
(1.4285238e-05 1.3159324e-06 1.2327353e-20)
(1.3136974e-05 1.3021068e-06 -2.5691751e-20)
(1.2069337e-05 1.2888431e-06 -4.6951925e-20)
(1.1077409e-05 1.2761274e-06 2.4858324e-20)
(1.0156537e-05 1.2639605e-06 7.6861638e-20)
(9.3022765e-06 1.2522988e-06 2.4533337e-21)
(8.510398e-06 1.2411321e-06 -5.4116738e-20)
(7.7768761e-06 1.2304217e-06 -3.645973e-20)
(7.0974961e-06 1.2201468e-06 2.020022e-20)
(6.4693564e-06 1.2106543e-06 2.2497979e-20)
(5.8886142e-06 1.2012355e-06 8.2419552e-21)
(5.3520167e-06 1.1926154e-06 2.2299302e-21)
(4.8567976e-06 1.1840715e-06 -2.1032772e-20)
(4.3992672e-06 1.1759537e-06 1.1445186e-20)
(3.9765485e-06 1.1682178e-06 1.8607827e-20)
(3.5867387e-06 1.1612352e-06 -1.3520222e-20)
(3.2270445e-06 1.1542348e-06 -1.2458979e-20)
(2.8944447e-06 1.147774e-06 -2.8312225e-20)
(2.5869556e-06 1.141558e-06 4.5991464e-21)
(2.3018697e-06 1.1357168e-06 4.2191951e-20)
(2.0368541e-06 1.1302452e-06 2.9007611e-21)
(1.7889795e-06 1.1251989e-06 -1.6811621e-20)
(1.5558785e-06 1.1210058e-06 -1.4892169e-20)
(1.3337443e-06 1.1174446e-06 3.9449535e-21)
(1.1167588e-06 1.1155654e-06 1.7367706e-20)
(8.976518e-07 1.1168937e-06 4.1795957e-21)
(6.6576256e-07 1.1241702e-06 -1.503069e-22)
(4.0648089e-07 1.1405991e-06 -4.3606832e-21)
(1.0018805e-07 1.1660033e-06 -2.8738022e-21)
(-2.4024306e-07 1.1836856e-06 4.0688503e-21)
(-5.7133985e-07 1.0782776e-06 3.2896816e-21)
(-4.0576806e-07 6.852987e-07 1.7717376e-21)
(5.4448798e-05 -0.00016722836 1.0111935e-20)
(0.00012057601 -0.00016611864 -8.4394091e-21)
(0.00019411064 -0.00016302702 -2.5099058e-20)
(0.00026409241 -0.00016013255 -4.8279143e-20)
(0.00033389019 -0.00015749411 -4.0427814e-20)
(0.00040208526 -0.00015515805 -3.2234032e-21)
(0.00046885487 -0.00015301594 -2.995881e-20)
(0.00053427337 -0.00015092357 -2.3824557e-21)
(0.00059828966 -0.00014878058 3.2345232e-20)
(0.00066079373 -0.00014652545 6.3938705e-20)
(0.00072165099 -0.00014412426 6.4187867e-20)
(0.00078071446 -0.00014155992 7.8121285e-20)
(0.00083783376 -0.00013882664 7.2445702e-20)
(0.00089286275 -0.00013592439 -1.0620555e-20)
(0.00094566275 -0.00013285787 3.6311441e-20)
(0.0009961055 -0.00012963401 5.1924454e-20)
(0.0010440724 -0.00012626055 1.1725354e-20)
(0.0010894541 -0.0001227466 3.5835367e-20)
(0.0011321524 -0.00011910254 8.6400038e-21)
(0.0011720797 -0.00011533903 7.3599784e-21)
(0.0012091614 -0.00011146825 3.2650386e-20)
(0.0012433319 -0.00010749962 5.0189027e-20)
(0.0012745377 -0.00010344664 7.6505635e-20)
(0.0013027361 -9.9319518e-05 5.5128002e-20)
(0.0013278954 -9.5131824e-05 -1.2841413e-19)
(0.001349996 -9.0892644e-05 -2.3673633e-19)
(0.0013690277 -8.6614322e-05 -9.2286012e-20)
(0.0013849887 -8.2304799e-05 -4.5874739e-20)
(0.0013978946 -7.7981533e-05 -1.9239471e-20)
(0.0014077688 -7.3647127e-05 1.6995669e-19)
(0.0014146419 -6.9316475e-05 7.4153626e-20)
(0.0014185582 -6.4993684e-05 -2.0321723e-19)
(0.0014195654 -6.0694709e-05 -2.6290941e-19)
(0.0014177189 -5.643228e-05 2.1353572e-20)
(0.0014130789 -5.2225226e-05 3.1535733e-19)
(0.0014057308 -4.8101072e-05 1.0427595e-19)
(0.001395765 -4.4057526e-05 -1.7912628e-19)
(0.0013832636 -4.0104281e-05 -2.3567806e-19)
(0.0013683295 -3.6248396e-05 -1.5644864e-19)
(0.0013510699 -3.2490772e-05 -7.4965114e-20)
(0.0013315881 -2.8837727e-05 7.7554221e-20)
(0.0013100033 -2.5297033e-05 2.0805616e-19)
(0.0012864275 -2.1853691e-05 4.865247e-19)
(0.001260985 -1.8518668e-05 7.4199958e-19)
(0.0012337933 -1.5262088e-05 -1.5456471e-19)
(0.001204967 -1.213602e-05 -1.0353535e-18)
(0.0011746751 -9.1700063e-06 -4.7562678e-19)
(0.0011430216 -6.3772766e-06 2.4278499e-19)
(0.001110078 -3.740173e-06 3.8249162e-19)
(0.001076001 -1.2501598e-06 -1.1819897e-19)
(0.0010409468 1.1053451e-06 -3.0829355e-19)
(0.0010050495 3.3398853e-06 5.3091953e-19)
(0.00096839958 5.4749787e-06 5.3011008e-19)
(0.00093109547 7.4824246e-06 -2.0737893e-19)
(0.00089328484 9.3393836e-06 -3.9069168e-19)
(0.00085509621 1.1064973e-05 -3.5931412e-19)
(0.00081664127 1.2650566e-05 -1.2881268e-19)
(0.00077802915 1.4108804e-05 1.6116991e-19)
(0.00073937386 1.5428335e-05 9.6336437e-20)
(0.00070076363 1.6621476e-05 -1.8237108e-19)
(0.00066229501 1.7697479e-05 -7.8712101e-20)
(0.00062407311 1.8645879e-05 3.1872548e-19)
(0.00058618414 1.9481064e-05 -1.9507593e-20)
(0.00054871211 2.021273e-05 -6.1134075e-19)
(0.00051171692 2.082096e-05 -4.1830069e-19)
(0.00047528376 2.1329805e-05 3.9942664e-19)
(0.00043949705 2.1742659e-05 6.8611226e-19)
(0.00040440071 2.20623e-05 3.2050742e-20)
(0.00037005438 2.2293854e-05 -4.6901142e-19)
(0.00033651569 2.2442956e-05 -6.9612958e-19)
(0.00030382884 2.2513662e-05 1.1815608e-20)
(0.00027203309 2.2510425e-05 6.2728645e-19)
(0.00024116583 2.2439515e-05 2.05316e-19)
(0.00021126733 2.2305516e-05 1.304581e-19)
(0.00018235283 2.2112598e-05 4.5919062e-20)
(0.00015444469 2.1866287e-05 1.1708222e-19)
(0.00012757293 2.1571138e-05 -5.4413353e-20)
(0.00010176139 2.123118e-05 -5.3156384e-19)
(7.6987777e-05 2.0850025e-05 -1.5588255e-19)
(5.3262522e-05 2.0434435e-05 2.1553451e-19)
(3.0617303e-05 1.9987305e-05 4.2515046e-20)
(9.0294569e-06 1.9512242e-05 5.8119693e-20)
(-1.1500585e-05 1.901308e-05 -1.6112313e-20)
(-3.0976274e-05 1.8493569e-05 -4.2430798e-19)
(-4.9410578e-05 1.7957524e-05 -5.3826557e-20)
(-6.6815991e-05 1.7407717e-05 3.3792914e-19)
(-8.3207087e-05 1.6847015e-05 3.0088298e-20)
(-9.8600811e-05 1.627799e-05 3.2348498e-19)
(-0.00011301584 1.570402e-05 7.6449406e-20)
(-0.00012647246 1.5127093e-05 -6.2865955e-19)
(-0.00013899273 1.4549499e-05 -4.2475313e-19)
(-0.00015059991 1.3973289e-05 9.7219971e-20)
(-0.00016131846 1.3400318e-05 2.9186568e-19)
(-0.00017117377 1.2832416e-05 -6.3834904e-20)
(-0.00018019201 1.2271086e-05 -6.5465936e-20)
(-0.00018840003 1.1717688e-05 1.0293609e-19)
(-0.00019582517 1.1173434e-05 2.1421406e-19)
(-0.0002024951 1.0639441e-05 2.3770394e-19)
(-0.0002084377 1.0116673e-05 -3.0027335e-19)
(-0.00021368093 9.6059519e-06 -3.9412065e-19)
(-0.00021825269 9.1079809e-06 2.029718e-20)
(-0.0002221807 8.6233029e-06 3.1583156e-19)
(-0.0002254924 8.1524032e-06 2.3357668e-19)
(-0.00022821487 7.6956734e-06 -1.4627242e-19)
(-0.00023037467 7.2533426e-06 -2.2249665e-19)
(-0.00023199808 6.8259783e-06 -9.2930715e-20)
(-0.00023311133 6.4139868e-06 1.8898432e-19)
(-0.00023374013 6.017478e-06 3.9734241e-19)
(-0.00023390952 5.6364141e-06 3.6479081e-20)
(-0.00023364372 5.2708138e-06 -2.3054387e-19)
(-0.00023296585 4.921088e-06 -1.433629e-19)
(-0.00023189722 4.5890797e-06 -1.4448383e-19)
(-0.00023046192 4.2781743e-06 2.0472323e-19)
(-0.00022868369 3.9792976e-06 3.336369e-19)
(-0.00022658185 3.6925354e-06 -1.0843699e-19)
(-0.0002241756 3.4183624e-06 -3.2113057e-19)
(-0.00022148362 3.15703e-06 -8.7903192e-20)
(-0.00021852396 2.9084709e-06 2.8287405e-19)
(-0.00021531363 2.6720713e-06 6.7867779e-20)
(-0.00021186573 2.4458208e-06 -3.54312e-19)
(-0.00020820085 2.2233643e-06 -1.0244281e-19)
(-0.00020434145 2.0085273e-06 3.5215254e-19)
(-0.00020029909 1.8048764e-06 2.7807587e-19)
(-0.00019608476 1.6127974e-06 -2.1236946e-19)
(-0.0001917112 1.4319376e-06 -4.273305e-19)
(-0.000187191 1.2617445e-06 -2.349048e-20)
(-0.00018253613 1.1016595e-06 3.2928109e-19)
(-0.00017775799 9.5115035e-07 1.7521527e-19)
(-0.00017286734 8.0972975e-07 -6.5724961e-20)
(-0.00016787435 6.7693774e-07 -1.625938e-19)
(-0.00016278862 5.5234571e-07 -7.7238487e-20)
(-0.00015761923 4.3555236e-07 1.8261169e-19)
(-0.00015237468 3.261857e-07 2.2281969e-19)
(-0.000147063 2.2385392e-07 -8.0844285e-21)
(-0.00014169176 1.2822579e-07 -1.8815162e-19)
(-0.00013626805 3.8942747e-08 -6.4395223e-20)
(-0.00013079858 -4.430429e-08 8.7124287e-20)
(-0.00012528947 -1.2141156e-07 4.1534865e-20)
(-0.00011974663 -1.9343165e-07 7.3990191e-21)
(-0.00011417554 -2.5980191e-07 -1.6857422e-20)
(-0.00010858133 -3.2156179e-07 -3.3651567e-20)
(-0.00010296894 -3.7852309e-07 -1.2579316e-20)
(-9.7342934e-05 -4.3093105e-07 3.2784488e-20)
(-9.1707435e-05 -4.7854117e-07 -1.3913233e-20)
(-8.6066515e-05 -5.2234142e-07 -7.2905958e-20)
(-8.0424124e-05 -5.6180998e-07 -2.1818167e-20)
(-7.4783938e-05 -5.9731983e-07 6.6302726e-20)
(-6.9149676e-05 -6.2865484e-07 7.3883836e-20)
(-6.3525071e-05 -6.5561969e-07 -2.4333622e-20)
(-5.7914139e-05 -6.7769424e-07 -6.9615664e-20)
(-5.2321278e-05 -6.9354889e-07 -3.2299442e-21)
(-4.6751956e-05 -7.0199158e-07 4.9916149e-20)
(-4.1213173e-05 -6.9956505e-07 2.8754475e-20)
(-3.5713538e-05 -6.8159092e-07 -7.7574101e-21)
(-3.0263017e-05 -6.425385e-07 -1.4614776e-20)
(-2.487001e-05 -5.8130241e-07 -1.6101406e-21)
(-1.9531491e-05 -5.1669301e-07 1.1176743e-20)
(-1.420361e-05 -5.2623581e-07 1.3784909e-20)
(-8.7980885e-06 -8.4273181e-07 9.7496506e-21)
(-3.0326828e-06 -1.743733e-06 9.6334849e-21)
(5.1953276e-05 -0.00033442139 5.3930301e-20)
(0.00011442861 -0.00032877256 -8.6267286e-21)
(0.00018476134 -0.00032267152 -6.9950957e-20)
(0.00025168417 -0.00031620345 -8.1443388e-20)
(0.00031847558 -0.00031035954 -2.4857e-20)
(0.00038356891 -0.00030519491 -1.5171465e-20)
(0.00044706275 -0.00030039962 -5.6519097e-20)
(0.0005089665 -0.00029569694 1.4389536e-20)
(0.00056919696 -0.00029088783 3.3586724e-20)
(0.0006276287 -0.00028584529 2.9266354e-20)
(0.00068411818 -0.00028049707 9.5987093e-20)
(0.00073850984 -0.00027480465 9.0684413e-20)
(0.00079064431 -0.00026875376 1.0556179e-19)
(0.00084036593 -0.00026234344 5.1904178e-20)
(0.00088752599 -0.00025558599 5.5689876e-20)
(0.00093198844 -0.00024849375 7.9139443e-20)
(0.00097362853 -0.00024108588 3.6762178e-20)
(0.0010123308 -0.00023338298 4.0281619e-20)
(0.0010479914 -0.0002254108 1.5256908e-20)
(0.0010805205 -0.00021718865 -3.6148877e-21)
(0.0011098454 -0.00020874925 4.9301676e-20)
(0.0011359005 -0.00020011608 6.1288439e-20)
(0.0011586364 -0.00019131476 6.3992336e-20)
(0.0011780177 -0.00018237183 6.2292844e-22)
(0.0011940217 -0.00017331899 -1.6129292e-19)
(0.0012066387 -0.00016417568 -1.3759211e-19)
(0.0012158708 -0.00015497484 -4.4828733e-20)
(0.0012217269 -0.00014573116 -5.84614e-20)
(0.0012242423 -0.00013649253 -8.8979497e-20)
(0.0012234563 -0.00012726455 8.3354451e-20)
(0.0012194161 -0.000118086 1.2493189e-19)
(0.0012121851 -0.0001089612 -2.0905537e-19)
(0.0012018302 -9.9948069e-05 -2.4363303e-19)
(0.0011884425 -9.1047544e-05 -2.748341e-20)
(0.0011721029 -8.2275882e-05 1.8501213e-19)
(0.0011529231 -7.3667519e-05 2.4065242e-19)
(0.001131023 -6.5220944e-05 -4.968783e-20)
(0.0011065083 -5.6964873e-05 -1.671645e-19)
(0.0010795103 -4.8936783e-05 -1.9142934e-19)
(0.0010501624 -4.1128904e-05 -3.4561484e-19)
(0.0010185971 -3.3554454e-05 -1.3992811e-19)
(0.00098497781 -2.6244872e-05 4.3003057e-19)
(0.00094944431 -1.9186466e-05 6.3129365e-19)
(0.0009121525 -1.246956e-05 4.612185e-19)
(0.00087319838 -6.0676887e-06 -1.3055021e-19)
(0.00083267522 2.0272726e-08 -1.0497798e-18)
(0.00079078485 5.8073575e-06 -4.3941319e-19)
(0.00074773489 1.1273949e-05 2.7719791e-19)
(0.00070369133 1.6403394e-05 4.9346816e-19)
(0.00065879353 2.1211996e-05 6.0682261e-19)
(0.00061318611 2.571623e-05 -4.9239074e-19)
(0.00056701196 2.9901897e-05 -2.3960043e-19)
(0.00052042378 3.3746569e-05 4.7464954e-19)
(0.00047354197 3.726243e-05 -5.805257e-20)
(0.00042652008 4.0478345e-05 -1.4516963e-19)
(0.00037950319 4.3400584e-05 -1.9247441e-19)
(0.00033261202 4.6027774e-05 -2.0799509e-19)
(0.00028596479 4.8370089e-05 1.624288e-19)
(0.00023968525 5.0430044e-05 9.6710567e-21)
(0.00019390183 5.2210836e-05 -4.0667402e-19)
(0.00014869869 5.3733369e-05 -8.3086991e-20)
(0.00010418696 5.4999172e-05 2.7171613e-19)
(6.0480712e-05 5.6020164e-05 -1.6034084e-19)
(1.7636228e-05 5.6804985e-05 -1.9146445e-19)
(-2.4256422e-05 5.7356508e-05 3.6630501e-19)
(-6.5094294e-05 5.7705167e-05 2.9146011e-19)
(-0.00010482175 5.7849868e-05 -2.4191975e-19)
(-0.00014338065 5.7800991e-05 -3.2142344e-19)
(-0.0001807132 5.7576184e-05 -9.5225982e-20)
(-0.00021676834 5.7183882e-05 -3.4961176e-19)
(-0.00025150263 5.6635662e-05 -1.4172292e-19)
(-0.00028487913 5.5942349e-05 2.0662522e-19)
(-0.00031686652 5.511838e-05 5.2701707e-20)
(-0.00034743805 5.4174094e-05 2.6617146e-19)
(-0.0003765755 5.3114728e-05 1.7862903e-19)
(-0.00040426434 5.1961771e-05 3.3529147e-19)
(-0.00043049365 5.0720922e-05 6.2694086e-20)
(-0.00045525843 4.9401619e-05 -7.4148637e-19)
(-0.00047856397 4.7999002e-05 -2.1811179e-19)
(-0.00050041461 4.6552918e-05 5.3278422e-19)
(-0.0005208151 4.5054014e-05 1.7078997e-19)
(-0.00053978115 4.3512293e-05 -5.1284239e-19)
(-0.00055732865 4.1939593e-05 -3.7466874e-19)
(-0.00057347659 4.0340753e-05 -1.8809472e-19)
(-0.00058824827 3.8723269e-05 -1.2752017e-19)
(-0.00060166946 3.7094053e-05 1.6586749e-19)
(-0.00061376836 3.5459509e-05 -1.7866661e-21)
(-0.00062457541 3.3825491e-05 2.5702622e-19)
(-0.00063412283 3.2197733e-05 5.1099046e-19)
(-0.00064244446 3.0581083e-05 -2.5101103e-19)
(-0.00064957575 2.8980123e-05 -5.0037882e-19)
(-0.00065555331 2.7399007e-05 -1.2280912e-20)
(-0.0006604148 2.5841477e-05 1.3293026e-19)
(-0.00066419863 2.4310914e-05 -1.7980839e-19)
(-0.00066694378 2.2810286e-05 2.7484293e-20)
(-0.00066868967 2.1342187e-05 4.240206e-19)
(-0.00066947596 1.9908864e-05 2.4982531e-20)
(-0.00066934237 1.8512213e-05 -2.3728673e-19)
(-0.00066832856 1.7153735e-05 -3.2732326e-19)
(-0.00066647395 1.5834632e-05 -1.1322478e-19)
(-0.00066381756 1.4555851e-05 3.5300913e-19)
(-0.00066039793 1.3317976e-05 2.4861487e-19)
(-0.0006562528 1.2121325e-05 1.153446e-20)
(-0.00065141936 1.0966061e-05 -2.7432851e-19)
(-0.00064593362 9.8518098e-06 -6.2029168e-20)
(-0.00063983082 8.7794905e-06 3.2742681e-19)
(-0.00063314603 7.7496277e-06 9.0139682e-20)
(-0.00062591351 6.7621239e-06 9.8468148e-21)
(-0.00061816626 5.8165862e-06 -6.7684747e-20)
(-0.00060993574 4.9122804e-06 -2.3421252e-19)
(-0.00060125109 4.0480808e-06 1.1152065e-20)
(-0.00059213919 3.221122e-06 8.6693658e-20)
(-0.00058264058 2.424201e-06 8.6859426e-20)
(-0.00057278667 1.6661126e-06 2.2466261e-19)
(-0.00056259403 9.4619557e-07 -7.1014059e-20)
(-0.00055208753 2.6305969e-07 -3.5521997e-19)
(-0.0005412917 -3.8480779e-07 -1.7122349e-19)
(-0.00053023008 -9.9903924e-07 1.26916e-19)
(-0.00051892572 -1.5815453e-06 1.0447277e-19)
(-0.00050740401 -2.1350731e-06 -7.4617775e-20)
(-0.00049568117 -2.6662615e-06 3.023098e-20)
(-0.00048376968 -3.1721254e-06 1.5935108e-19)
(-0.000471691 -3.649905e-06 6.4049802e-20)
(-0.00045946517 -4.0999394e-06 -1.7480846e-19)
(-0.00044710875 -4.5232784e-06 -1.9991065e-19)
(-0.00043463694 -4.9211455e-06 8.3210693e-20)
(-0.00042206405 -5.294769e-06 1.917939e-19)
(-0.00040940355 -5.6453393e-06 1.0111889e-19)
(-0.00039666813 -5.9739872e-06 -7.2912619e-20)
(-0.00038386969 -6.2818028e-06 -8.039435e-20)
(-0.00037101939 -6.5698286e-06 2.869169e-20)
(-0.0003581277 -6.8390555e-06 5.5182557e-20)
(-0.00034520436 -7.090442e-06 1.1482272e-19)
(-0.00033225847 -7.3249056e-06 9.0389553e-20)
(-0.00031929851 -7.5433091e-06 -3.5740266e-20)
(-0.00030633235 -7.7464927e-06 -8.449013e-20)
(-0.00029336733 -7.9352286e-06 -1.7676386e-20)
(-0.00028041015 -8.1102321e-06 2.4299964e-20)
(-0.00026746708 -8.2723176e-06 -4.3762417e-21)
(-0.00025454392 -8.4220599e-06 -1.3155698e-20)
(-0.000241646 -8.5601947e-06 -1.2725041e-20)
(-0.00022877832 -8.6872466e-06 -4.8143004e-20)
(-0.00021594541 -8.803733e-06 7.9879626e-21)
(-0.00020315144 -8.9100826e-06 2.1032383e-20)
(-0.0001904003 -9.0067922e-06 -2.3695614e-20)
(-0.00017769571 -9.0941001e-06 1.4292943e-20)
(-0.00016504109 -9.1721986e-06 1.534164e-20)
(-0.0001524398 -9.2410133e-06 2.5686821e-21)
(-0.00013989514 -9.3001668e-06 4.2462108e-21)
(-0.00012741053 -9.348775e-06 6.7621357e-22)
(-0.00011498959 -9.385134e-06 3.1513167e-20)
(-0.00010263638 -9.4066033e-06 2.9648496e-20)
(-9.0355346e-05 -9.4091203e-06 5.5046344e-21)
(-7.8150708e-05 -9.3880469e-06 -1.3594254e-20)
(-6.6024853e-05 -9.341183e-06 -2.8889504e-21)
(-5.3974674e-05 -9.2778174e-06 1.768351e-20)
(-4.1984195e-05 -9.2406997e-06 1.0608232e-20)
(-3.0011609e-05 -9.3519846e-06 1.4177429e-20)
(-1.8003349e-05 -9.8736194e-06 2.3013636e-20)
(-5.9733563e-06 -1.1075036e-05 2.8788951e-20)
(4.1330325e-05 -0.00046757438 1.3791546e-19)
(9.2334923e-05 -0.00045970117 -4.8385954e-20)
(0.00015058571 -0.0004516499 -1.1969925e-19)
(0.00020633799 -0.00044286993 -8.7875226e-20)
(0.00026226146 -0.00043468408 -1.6843442e-19)
(0.00031672924 -0.00042716002 -1.2711771e-19)
(0.00036967876 -0.00041994516 -7.6693657e-20)
(0.00042100729 -0.00041272798 -1.1251269e-21)
(0.00047058277 -0.00040527244 4.2277224e-20)
(0.00051826483 -0.00039742448 6.8189419e-20)
(0.00056391249 -0.00038909415 1.1347475e-19)
(0.00060737864 -0.00038023162 8.1045468e-20)
(0.00064851354 -0.00037082129 1.0136319e-19)
(0.00068716947 -0.00036086396 1.1640921e-19)
(0.00072320976 -0.00035038062 7.249395e-20)
(0.0007565087 -0.00033939054 6.8282624e-20)
(0.00078694871 -0.0003279251 5.7185626e-20)
(0.00081442254 -0.00031601698 6.9858287e-20)
(0.00083883939 -0.0003037076 7.5265409e-20)
(0.00086011292 -0.00029103157 2.0463671e-20)
(0.00087817712 -0.00027803466 6.1096543e-20)
(0.00089298433 -0.00026475563 7.0202071e-20)
(0.00090449328 -0.00025123864 -5.9264701e-20)
(0.00091267395 -0.00023752264 -7.5734539e-20)
(0.00091751981 -0.00022366044 9.3207011e-20)
(0.00091902953 -0.00020969334 4.9616608e-20)
(0.00091722034 -0.00019565823 -2.0242829e-19)
(0.00091210397 -0.0001815911 -9.9449944e-20)
(0.00090373374 -0.00016756392 9.4728702e-20)
(0.00089216884 -0.00015357994 5.430987e-20)
(0.00087747379 -0.00013972047 -1.6947489e-19)
(0.00085970529 -0.00012598257 -2.2617004e-19)
(0.00083895199 -0.00011244459 9.7170593e-20)
(0.00081534181 -9.910656e-05 2.0331212e-19)
(0.00078894442 -8.602636e-05 -1.1322645e-19)
(0.00075989968 -7.3216151e-05 -3.3400487e-19)
(0.00072834073 -6.0708735e-05 -3.7101468e-21)
(0.00069435387 -4.8566021e-05 1.9384792e-19)
(0.00065811101 -3.6799702e-05 -2.3531565e-19)
(0.00061978276 -2.5419804e-05 -2.5731049e-19)
(0.00057947648 -1.4453927e-05 -9.0181328e-21)
(0.00053737263 -3.9533962e-06 1.2424825e-19)
(0.00049356519 6.0912251e-06 2.3541816e-19)
(0.00044823126 1.56095e-05 1.8327449e-19)
(0.0004016128 2.4623962e-05 5.9076662e-20)
(0.00035385221 3.3095025e-05 -2.6283124e-19)
(0.0003051288 4.1104221e-05 -1.9278949e-19)
(0.00025555249 4.865805e-05 1.2975619e-19)
(0.0002052615 5.5720949e-05 2.8565252e-19)
(0.00015447488 6.2287775e-05 4.588963e-19)
(0.00010334868 6.8353046e-05 -1.9995948e-20)
(5.2005895e-05 7.391965e-05 -5.1267869e-19)
(5.8992363e-07 7.8985468e-05 -2.5126374e-20)
(-5.0727998e-05 8.3546757e-05 2.7271994e-19)
(-0.00010178804 8.7634291e-05 -5.6570886e-20)
(-0.00015247188 9.1239745e-05 -2.7218795e-19)
(-0.00020264789 9.4381336e-05 -2.0510354e-19)
(-0.00025218995 9.7063198e-05 2.0600112e-20)
(-0.00030097611 9.931212e-05 4.5680975e-21)
(-0.00034889187 0.00010113055 -1.9522294e-19)
(-0.00039583442 0.00010253411 5.5107452e-21)
(-0.00044170111 0.00010355094 2.1513308e-19)
(-0.00048639714 0.00010418874 -3.6321535e-21)
(-0.00052984331 0.00010445869 -1.1424951e-19)
(-0.00057196107 0.00010440109 3.7529996e-20)
(-0.00061267224 0.00010402307 1.5764329e-19)
(-0.00065191375 0.00010334011 -1.5136391e-19)
(-0.00068963212 0.00010237226 -3.1582269e-19)
(-0.00072577811 0.00010114074 -1.3427043e-19)
(-0.00076030891 9.9664448e-05 -1.0964493e-19)
(-0.00079318916 9.7962584e-05 4.7404969e-20)
(-0.00082439042 9.6053998e-05 6.5556042e-20)
(-0.00085389036 9.3958092e-05 -1.0674733e-19)
(-0.00088167221 9.1692994e-05 -9.4367398e-20)
(-0.00090772665 8.9275708e-05 1.9205708e-19)
(-0.00093204926 8.6725181e-05 4.0982179e-19)
(-0.00095464021 8.4057499e-05 -2.2124888e-19)
(-0.00097550558 8.1288346e-05 -5.740082e-19)
(-0.00099465841 7.8431673e-05 3.0617998e-20)
(-0.0010121141 7.5506759e-05 1.3661282e-19)
(-0.0010278908 7.2525563e-05 -2.4613698e-19)
(-0.0010420129 6.9501464e-05 -2.8265043e-19)
(-0.0010545076 6.6447938e-05 -2.0538182e-20)
(-0.0010654053 6.3376443e-05 1.6494539e-19)
(-0.0010747395 6.0298068e-05 5.5917174e-20)
(-0.0010825466 5.7223146e-05 -1.1271961e-19)
(-0.0010888651 5.4161315e-05 -2.8164018e-19)
(-0.0010937357 5.1121468e-05 -1.2494528e-19)
(-0.0010972009 4.8111883e-05 3.5763651e-19)
(-0.0010993045 4.5139946e-05 3.5192578e-19)
(-0.0011000916 4.2212387e-05 -1.1633316e-19)
(-0.0010996084 3.933525e-05 -3.8250546e-19)
(-0.0010979017 3.6513921e-05 -1.654496e-19)
(-0.0010950191 3.375315e-05 1.7983998e-19)
(-0.0010910082 3.1057058e-05 2.273652e-19)
(-0.001085917 2.8429186e-05 6.3160119e-20)
(-0.0010797934 2.5872573e-05 -2.0683e-19)
(-0.0010726852 2.3389707e-05 -1.711499e-19)
(-0.0010646397 2.0982585e-05 -1.5593615e-20)
(-0.0010557035 1.8652861e-05 -4.2392454e-22)
(-0.0010459227 1.6401377e-05 1.9031483e-19)
(-0.0010353426 1.4228503e-05 1.0280094e-19)
(-0.0010240074 1.213404e-05 -1.2616239e-19)
(-0.0010119607 1.011828e-05 2.4221509e-20)
(-0.00099924313 8.1775081e-06 2.4060319e-19)
(-0.00098589462 6.3149476e-06 1.3298166e-19)
(-0.00097195611 4.5322485e-06 -8.0258713e-20)
(-0.00095746745 2.827255e-06 -1.0980453e-19)
(-0.00094246681 1.1978778e-06 -7.1218851e-20)
(-0.000926991 -3.5797193e-07 -1.212639e-19)
(-0.00091107646 -1.8431688e-06 -3.046439e-20)
(-0.00089476122 -3.2626199e-06 9.1679445e-20)
(-0.00087806771 -4.6229217e-06 6.3649024e-20)
(-0.00086102267 -5.9143399e-06 1.0595429e-19)
(-0.00084366457 -7.1381137e-06 1.8868493e-20)
(-0.00082602179 -8.2967162e-06 -1.4707853e-19)
(-0.00080812107 -9.3928306e-06 -1.8043153e-19)
(-0.00078998812 -1.0429149e-05 -6.4035239e-20)
(-0.00077164781 -1.1408328e-05 5.8839153e-20)
(-0.00075312424 -1.2332515e-05 1.1554885e-19)
(-0.00073443804 -1.320025e-05 5.6018527e-20)
(-0.00071560771 -1.4016947e-05 -6.1182892e-20)
(-0.00069665307 -1.4786979e-05 -2.5699213e-20)
(-0.00067759345 -1.5512304e-05 6.8381604e-20)
(-0.00065844662 -1.6194605e-05 8.833782e-20)
(-0.000639229 -1.6835623e-05 2.7460779e-20)
(-0.0006199559 -1.7437142e-05 -3.751165e-20)
(-0.00060064159 -1.800097e-05 -8.4576573e-21)
(-0.00058129942 -1.8528894e-05 1.3419089e-21)
(-0.0005619418 -1.9022673e-05 4.5318847e-20)
(-0.00054258028 -1.9484032e-05 5.9144355e-20)
(-0.00052322559 -1.9914619e-05 2.4822761e-21)
(-0.00050388766 -2.0316048e-05 3.2794992e-20)
(-0.00048457568 -2.0689871e-05 5.4584863e-20)
(-0.00046529812 -2.1037569e-05 3.9482493e-21)
(-0.00044606276 -2.1360564e-05 -5.4324782e-20)
(-0.00042687674 -2.1660207e-05 -3.4622724e-20)
(-0.00040774658 -2.1937771e-05 -1.5783094e-20)
(-0.00038867824 -2.2194537e-05 -1.496988e-20)
(-0.00036967715 -2.2431614e-05 -3.6689661e-21)
(-0.00035074824 -2.2650143e-05 1.1584509e-20)
(-0.00033189598 -2.2851101e-05 -3.7953195e-21)
(-0.0003131244 -2.303541e-05 1.882437e-21)
(-0.00029443714 -2.3203886e-05 6.9450837e-21)
(-0.00027583747 -2.3357292e-05 1.2086885e-20)
(-0.00025732839 -2.3496192e-05 2.669382e-20)
(-0.0002389126 -2.3620979e-05 -1.3108174e-20)
(-0.00022059261 -2.3731776e-05 -7.7677913e-21)
(-0.00020237072 -2.3828307e-05 3.0632478e-20)
(-0.00018424907 -2.3909749e-05 4.1602624e-20)
(-0.00016622961 -2.3974478e-05 2.6982223e-20)
(-0.00014831394 -2.4019999e-05 7.8682044e-21)
(-0.00013050291 -2.4043053e-05 8.8406137e-21)
(-0.00011279561 -2.4041035e-05 -1.3037595e-20)
(-9.5187869e-05 -2.4016099e-05 4.9600806e-21)
(-7.7670532e-05 -2.3984902e-05 2.4617007e-20)
(-6.0228017e-05 -2.3998722e-05 1.1926142e-20)
(-4.2837877e-05 -2.4176703e-05 2.016035e-20)
(-2.5494507e-05 -2.4734411e-05 2.8479226e-20)
(-8.3882128e-06 -2.5838534e-05 3.8332814e-20)
(3.1893149e-05 -0.00057068125 1.5252149e-19)
(7.1927543e-05 -0.00056311208 -2.1539406e-19)
(0.0001186205 -0.00055458763 -3.2504878e-19)
(0.00016381275 -0.00054487606 -3.0221676e-19)
(0.00020948499 -0.00053530975 -2.6420326e-19)
(0.00025403037 -0.00052601696 -1.5858492e-19)
(0.0002972305 -0.00051673955 -5.9226249e-20)