/*--------------------------------*- C++ -*----------------------------------*\
| =========                 |                                                 |
| \\      /  F ield         | OpenFOAM: The Open Source CFD Toolbox           |
|  \\    /   O peration     | Version:  2306                                  |
|   \\  /    A nd           | Website:  www.openfoam.com                      |
|    \\/     M anipulation  |                                                 |
\*---------------------------------------------------------------------------*/
FoamFile
{
    version     2.0;
    format      ascii;
    arch        "LSB;label=32;scalar=64";
    class       volVectorField;
    location    "0.28";
    object      U;
}
// * * * * * * * * * * * * * * * * * * * * * * * * * * * * * * * * * * * * * //

dimensions      [0 1 -1 0 0 0 0];

internalField   nonuniform List<vector> 
51200
(
(-1.1768103e-05 -3.6795617e-06 5.2903566e-20)
(-3.3006082e-05 1.9366165e-06 -3.8882836e-21)
(-5.8750589e-05 2.6809112e-06 -1.737487e-20)
(-8.4585087e-05 3.8077892e-06 1.3596167e-20)
(-0.00011222101 4.4391094e-06 2.2290357e-20)
(-0.00014005987 4.6793383e-06 -7.4382666e-21)
(-0.00016782995 4.8040027e-06 1.0057333e-21)
(-0.0001954545 4.8715457e-06 1.8473155e-20)
(-0.00022290151 4.9092688e-06 1.3107699e-20)
(-0.00025015487 4.9318162e-06 -2.6955816e-20)
(-0.00027720623 4.9459517e-06 -2.343796e-20)
(-0.00030404872 4.9542734e-06 4.3570019e-20)
(-0.00033067414 4.9575814e-06 1.5397196e-20)
(-0.0003570722 4.9557861e-06 -3.1569831e-20)
(-0.00038323057 4.9482222e-06 -1.7690067e-20)
(-0.00040913503 4.9336618e-06 1.7673301e-20)
(-0.00043476968 4.9102209e-06 4.8639262e-20)
(-0.00046011715 4.8751632e-06 -6.1015298e-21)
(-0.00048515928 4.8248248e-06 -4.3730551e-20)
(-0.00050988146 4.7552891e-06 -4.794407e-22)
(-0.00053427907 4.6693607e-06 5.0851818e-21)
(-0.00055833399 4.5907214e-06 1.4003247e-20)
(-0.00058200993 4.5295233e-06 7.1434489e-20)
(-0.00060527802 4.4821814e-06 1.2120825e-19)
(-0.00062811759 4.4437827e-06 1.4478302e-19)
(-0.00065050952 4.4106844e-06 -1.1626657e-19)
(-0.00067243431 4.3803426e-06 -3.6515569e-19)
(-0.00069387203 4.3509817e-06 -9.8225243e-20)
(-0.0007148025 4.3213587e-06 1.4232474e-19)
(-0.00073520554 4.2905611e-06 1.9941144e-19)
(-0.00075506119 4.2579125e-06 1.5318596e-19)
(-0.00077434985 4.2228932e-06 -5.6059078e-20)
(-0.00079305246 4.1850989e-06 -3.6847124e-20)
(-0.00081115058 4.144217e-06 -1.8245223e-19)
(-0.00082862652 4.1000004e-06 -1.7470037e-19)
(-0.00084546342 4.0522704e-06 2.529164e-19)
(-0.00086164535 4.0008919e-06 -8.8301488e-21)
(-0.00087715739 3.9457842e-06 -5.1427776e-19)
(-0.00089198569 3.8869015e-06 1.6371415e-19)
(-0.00090611758 3.8242377e-06 7.1114557e-19)
(-0.00091954157 3.7578293e-06 1.2711962e-19)
(-0.00093224744 3.6877349e-06 -3.295255e-19)
(-0.00094422629 3.6140502e-06 -3.2835314e-19)
(-0.00095547054 3.5368945e-06 -2.023567e-19)
(-0.00096597403 3.4564109e-06 2.4584949e-19)
(-0.00097573193 3.3727715e-06 7.6812517e-19)
(-0.00098474085 3.2861557e-06 -1.0816382e-19)
(-0.00099299884 3.1967755e-06 -3.1571994e-19)
(-0.0010005053 3.1048453e-06 -2.5560551e-19)
(-0.0010072611 3.0106025e-06 -9.1091007e-19)
(-0.0010132685 2.9142916e-06 4.4884561e-19)
(-0.001018531 2.8161534e-06 6.6480395e-19)
(-0.0010230536 2.716463e-06 1.9903289e-20)
(-0.0010268426 2.6154717e-06 2.9101257e-19)
(-0.0010299053 2.5134484e-06 -7.7237289e-19)
(-0.0010322507 2.4106629e-06 -6.0065157e-19)
(-0.0010338884 2.3073774e-06 6.315153e-19)
(-0.0010348296 2.2038527e-06 2.2475488e-19)
(-0.0010350863 2.100355e-06 -8.9847955e-20)
(-0.0010346714 1.9971361e-06 9.8062719e-20)
(-0.001033599 1.8944411e-06 -5.1117218e-20)
(-0.0010318839 1.7925112e-06 4.7401698e-20)
(-0.0010295417 1.6915875e-06 -3.6054721e-20)
(-0.0010265886 1.5918929e-06 -3.5229111e-19)
(-0.0010230416 1.4936403e-06 -5.0376015e-19)
(-0.0010189184 1.3970416e-06 3.502635e-20)
(-0.0010142369 1.3022959e-06 8.8674456e-19)
(-0.0010090156 1.2096013e-06 -4.6185874e-21)
(-0.0010032734 1.1191336e-06 -3.6157468e-19)
(-0.00099702937 1.03108e-06 5.9148903e-19)
(-0.00099030299 9.4562101e-07 -9.0785712e-20)
(-0.00098311385 8.6294031e-07 -4.1311892e-19)
(-0.0009754817 7.8322636e-07 1.2568935e-19)
(-0.00096742643 7.0668991e-07 1.895126e-19)
(-0.00095896799 6.3358529e-07 2.233227e-19)
(-0.00095012642 5.6427497e-07 -4.1751351e-19)
(-0.00094092197 4.9940382e-07 -4.1628634e-19)
(-0.00093137529 4.4004484e-07 3.4654714e-19)
(-0.00092150682 3.876813e-07 4.5601092e-19)
(-0.00091133418 3.4324197e-07 -2.1009281e-19)
(-0.00090086768 3.0512383e-07 -7.4492126e-19)
(-0.00089008942 2.7961201e-07 3.0731248e-19)
(-0.00087905189 1.8723094e-07 5.8287013e-19)
(-0.0008678145 8.3598235e-08 3.6111015e-21)
(-0.00085636705 -1.6760696e-08 1.6532989e-19)
(-0.00084471895 -1.1146928e-07 -2.392823e-19)
(-0.00083288525 -2.0018552e-07 1.8731172e-20)
(-0.00082088165 -2.8332181e-07 2.0752859e-21)
(-0.00080872356 -3.6140638e-07 -4.2128315e-19)
(-0.00079642596 -4.3489868e-07 1.2247373e-19)
(-0.00078400325 -5.0417459e-07 -2.7650444e-19)
(-0.00077146928 -5.6952765e-07 -1.8288232e-19)
(-0.00075883736 -6.3119405e-07 4.3269571e-19)
(-0.00074612026 -6.8937962e-07 2.2972722e-19)
(-0.00073333022 -7.4425442e-07 -6.5544373e-20)
(-0.00072047894 -7.9597667e-07 -4.3021286e-19)
(-0.0007075776 -8.4468172e-07 4.2084185e-20)
(-0.00069463685 -8.9050564e-07 3.455805e-19)
(-0.00068166684 -9.3357311e-07 2.0380848e-19)
(-0.00066867722 -9.7399644e-07 -1.1107782e-19)
(-0.00065567713 -1.0118899e-06 -4.9158273e-19)
(-0.00064267523 -1.0473665e-06 1.2422858e-19)
(-0.0006296797 -1.0805241e-06 2.3106898e-19)
(-0.00061669826 -1.1114726e-06 1.3080873e-19)
(-0.00060373815 -1.1403068e-06 -3.146328e-20)
(-0.0005908062 -1.1671142e-06 -4.8901219e-19)
(-0.00057790879 -1.1919934e-06 1.1619538e-19)
(-0.00056505187 -1.2150304e-06 3.2289534e-19)
(-0.000552241 -1.2363202e-06 5.7428754e-20)
(-0.00053948133 -1.2559335e-06 3.1898472e-20)
(-0.00052677766 -1.2739595e-06 -3.5277071e-19)
(-0.00051413439 -1.2904701e-06 -1.4428572e-19)
(-0.00050155557 -1.3055447e-06 2.253593e-19)
(-0.00048904493 -1.319244e-06 6.8640389e-20)
(-0.00047660586 -1.3316449e-06 3.6642393e-20)
(-0.00046424145 -1.3428118e-06 -6.8313216e-20)
(-0.00045195446 -1.3528103e-06 1.0498026e-20)
(-0.0004397474 -1.3617121e-06 1.0138459e-19)
(-0.00042762247 -1.3695937e-06 -1.0466316e-20)
(-0.00041558165 -1.3765046e-06 1.9845312e-20)
(-0.00040362662 -1.3825215e-06 -8.5070924e-20)
(-0.00039175887 -1.3876878e-06 -1.773755e-20)
(-0.00037997963 -1.3920712e-06 9.198386e-20)
(-0.00036828993 -1.3957269e-06 5.3681978e-20)
(-0.0003566906 -1.3986926e-06 -1.4817655e-20)
(-0.00034518226 -1.4010241e-06 -1.7835859e-19)
(-0.00033376538 -1.4027705e-06 -3.6533684e-20)
(-0.00032244024 -1.4039763e-06 1.3247545e-19)
(-0.00031120695 -1.4046748e-06 5.6973104e-20)
(-0.00030006548 -1.404911e-06 -4.0488053e-20)
(-0.00028901567 -1.4047271e-06 -8.5269515e-20)
(-0.00027805721 -1.4041497e-06 1.4307177e-20)
(-0.00026718967 -1.4032168e-06 4.8703629e-20)
(-0.0002564125 -1.4019576e-06 -2.8464448e-20)
(-0.00024572506 -1.4004011e-06 -7.6026726e-20)
(-0.0002351266 -1.3985781e-06 -1.1787385e-20)
(-0.00022461627 -1.3965166e-06 7.8496534e-20)
(-0.00021419315 -1.3942387e-06 3.251004e-20)
(-0.00020385623 -1.3917645e-06 3.6479917e-21)
(-0.00019360445 -1.3891229e-06 -5.0678856e-21)
(-0.00018343667 -1.386322e-06 -3.2989353e-20)
(-0.00017335168 -1.3833895e-06 2.7412322e-20)
(-0.00016334827 -1.3803415e-06 1.6795167e-20)
(-0.00015342513 -1.3771863e-06 -8.3277357e-21)
(-0.00014358097 -1.3739437e-06 1.3884881e-20)
(-0.00013381445 -1.3706166e-06 -5.382374e-20)
(-0.00012412421 -1.3672158e-06 -1.9880658e-20)
(-0.00011450893 -1.3637341e-06 5.7126087e-20)
(-0.00010496731 -1.360159e-06 2.5184594e-20)
(-9.5498162e-05 -1.3564417e-06 -1.7630361e-20)
(-8.6100511e-05 -1.3524643e-06 -3.8113979e-20)
(-7.6773842e-05 -1.3479408e-06 -8.3013714e-21)
(-6.7518602e-05 -1.3421896e-06 2.7389385e-20)
(-5.8337336e-05 -1.33362e-06 9.003642e-21)
(-4.9236913e-05 -1.3187212e-06 -6.5643359e-21)
(-4.023232e-05 -1.2907844e-06 -1.0767164e-20)
(-3.1351132e-05 -1.2418544e-06 -3.8612094e-21)
(-2.2629308e-05 -1.186776e-06 4.7324645e-21)
(-1.4006341e-05 -1.3186357e-06 1.0453883e-21)
(-4.8466244e-06 -2.2856623e-06 -4.3398335e-21)
(-4.4349222e-05 8.3494164e-05 5.8986302e-20)
(-0.00010481677 9.32307e-05 -9.3771154e-21)
(-0.00017454106 9.6560857e-05 6.7521162e-22)
(-0.00024315274 0.00010013668 5.2982449e-20)
(-0.00031473505 0.00010219298 4.1303287e-20)
(-0.00038657339 0.00010310631 -1.1051512e-20)
(-0.00045827409 0.00010347254 5.7363336e-20)
(-0.00052969452 0.00010353384 3.1555079e-20)
(-0.00060072546 0.00010340685 -2.5608023e-20)
(-0.00067127368 0.00010315341 -6.2946377e-21)
(-0.00074126464 0.00010280604 1.8787371e-20)
(-0.00081063433 0.00010238135 4.7765934e-20)
(-0.00087932344 0.00010188795 9.7975039e-20)
(-0.00094727471 0.00010133021 1.3883847e-19)
(-0.0010144318 0.00010071024 5.2584558e-20)
(-0.0010807388 0.00010002862 4.8565655e-20)
(-0.0011461403 9.9284903e-05 1.6380528e-19)
(-0.0012105813 9.8477761e-05 2.7288579e-20)
(-0.0012740073 9.7605122e-05 -1.8957804e-19)
(-0.0013363601 9.6664704e-05 -1.2690079e-19)
(-0.0013975713 9.565872e-05 5.0859479e-21)
(-0.0014575818 9.4603524e-05 6.4318197e-20)
(-0.0015163495 9.350773e-05 1.4632615e-19)
(-0.0015738284 9.2369951e-05 2.7072072e-19)
(-0.0016299676 9.1187332e-05 1.68265e-19)
(-0.0016847162 8.9957831e-05 -3.9449052e-19)
(-0.001738025 8.8680312e-05 -5.0140613e-19)
(-0.0017898469 8.7354322e-05 -1.9011952e-19)
(-0.0018401366 8.5979977e-05 -1.1522933e-19)
(-0.0018888512 8.4557801e-05 5.166514e-19)
(-0.0019359496 8.3088656e-05 6.7203998e-19)
(-0.0019813934 8.1573674e-05 -3.0025828e-19)
(-0.0020251464 8.0014244e-05 -6.5096236e-19)
(-0.002067175 7.8411966e-05 -2.5629582e-19)
(-0.0021074483 7.6768627e-05 4.3397641e-19)
(-0.0021459383 7.5086219e-05 3.6215648e-19)
(-0.0021826197 7.3366887e-05 -5.7171754e-19)
(-0.0022174702 7.1612945e-05 -8.3377503e-19)
(-0.0022504709 6.9826831e-05 6.5718307e-19)
(-0.0022816057 6.801113e-05 9.1643237e-19)
(-0.0023108618 6.6168522e-05 -1.0510005e-18)
(-0.0023382297 6.4301798e-05 -4.0396311e-19)
(-0.002363703 6.2413818e-05 1.5074538e-18)
(-0.0023872789 6.050752e-05 1.9496117e-18)
(-0.0024089574 5.8585887e-05 -7.5885337e-21)
(-0.0024287422 5.6651933e-05 -3.0637304e-18)
(-0.0024466397 5.4708703e-05 -1.7880459e-18)
(-0.0024626599 5.2759248e-05 1.4408954e-18)
(-0.0024768156 5.0806605e-05 1.4180531e-18)
(-0.0024891227 4.8853799e-05 -8.0008016e-19)
(-0.0024996001 4.6903811e-05 -1.3117072e-18)
(-0.0025082692 4.495957e-05 1.4033876e-18)
(-0.0025151545 4.3023965e-05 1.8702328e-18)
(-0.0025202829 4.1099775e-05 -2.7683192e-19)
(-0.0025236836 3.9189728e-05 -1.1932374e-18)
(-0.0025253885 3.7296455e-05 -1.3192056e-18)
(-0.0025254313 3.5422461e-05 -1.4987831e-19)
(-0.002523848 3.3570156e-05 1.4566197e-18)
(-0.0025206763 3.1741839e-05 5.6884124e-19)
(-0.0025159557 2.9939671e-05 -1.4268125e-18)
(-0.0025097273 2.8165683e-05 -5.3841049e-19)
(-0.0025020336 2.6421785e-05 1.5246555e-18)
(-0.0024929183 2.4709746e-05 4.3218888e-19)
(-0.0024824261 2.3031189e-05 -1.7875201e-18)
(-0.0024706028 2.1387606e-05 -9.9501128e-19)
(-0.002457495 1.9780352e-05 1.0490746e-18)
(-0.0024431497 1.8210638e-05 1.2366758e-18)
(-0.0024276146 1.6679559e-05 3.3229827e-19)
(-0.0024109376 1.5188077e-05 -6.5115281e-19)
(-0.0023931669 1.3737041e-05 -1.379859e-18)
(-0.0023743507 1.232722e-05 1.5495329e-19)
(-0.0023545374 1.0959286e-05 1.0167495e-18)
(-0.0023337749 9.6338521e-06 -1.5537685e-20)
(-0.0023121112 8.3514718e-06 1.8152744e-19)
(-0.0022895937 7.1126655e-06 4.9677167e-19)
(-0.0022662695 5.9179686e-06 1.4423653e-19)
(-0.002242185 4.7680851e-06 -7.6212472e-19)
(-0.0022173858 3.6638878e-06 -8.5097811e-19)
(-0.0021919164 2.6058566e-06 1.7929299e-19)
(-0.00216582 1.5907648e-06 3.6602406e-19)
(-0.0021391253 6.0439003e-07 2.5680913e-20)
(-0.0021119202 -3.7906976e-07 2.2203572e-19)
(-0.0020842311 -1.3625824e-06 2.8470097e-19)
(-0.0020560437 -2.3072073e-06 -5.6110582e-19)
(-0.002027421 -3.2069299e-06 -6.7296602e-20)
(-0.0019984087 -4.0626484e-06 5.498287e-19)
(-0.0019690452 -4.8761626e-06 -4.0799526e-19)
(-0.0019393658 -5.6494069e-06 1.9059643e-19)
(-0.0019094045 -6.3841144e-06 2.5803263e-19)
(-0.0018791939 -7.0818271e-06 -5.0770049e-19)
(-0.0018487653 -7.7439462e-06 -3.8019554e-19)
(-0.0018181485 -8.3717639e-06 -1.907405e-19)
(-0.0017873724 -8.9665117e-06 4.3482742e-19)
(-0.0017564644 -9.5293838e-06 1.8169119e-19)
(-0.0017254509 -1.0061532e-05 -1.6097888e-19)
(-0.0016943568 -1.0564085e-05 -3.0609916e-20)
(-0.0016632061 -1.1038145e-05 8.4487879e-20)
(-0.0016320213 -1.1484814e-05 3.5920245e-19)
(-0.001600824 -1.1905152e-05 -1.5573913e-19)
(-0.0015696345 -1.2300221e-05 -5.2343401e-19)
(-0.001538472 -1.2671047e-05 -7.5695552e-20)
(-0.0015073545 -1.3018659e-05 3.7972936e-19)
(-0.0014762991 -1.3344039e-05 3.6156889e-19)
(-0.0014453218 -1.3648176e-05 -4.9450574e-20)
(-0.0014144375 -1.393203e-05 -3.7200761e-19)
(-0.0013836602 -1.4196512e-05 -2.9710931e-19)
(-0.0013530029 -1.4442553e-05 2.0279577e-19)
(-0.0013224776 -1.4671035e-05 5.613531e-19)
(-0.0012920957 -1.4882834e-05 6.1008624e-20)
(-0.0012618673 -1.5078779e-05 -4.118005e-19)
(-0.001231802 -1.5259693e-05 -1.7444476e-19)
(-0.0012019084 -1.5426363e-05 -8.2060131e-20)
(-0.0011721945 -1.5579579e-05 3.4626242e-19)
(-0.0011426675 -1.572006e-05 4.1905661e-19)
(-0.0011133337 -1.5848546e-05 -2.4886129e-19)
(-0.0010841992 -1.5965727e-05 -3.8803066e-19)
(-0.0010552689 -1.6072268e-05 -7.1731562e-20)
(-0.0010265474 -1.61688e-05 3.5980169e-19)
(-0.00099803875 -1.6255959e-05 1.2780617e-19)
(-0.00096974626 -1.6334315e-05 -4.2999998e-19)
(-0.00094167278 -1.6404446e-05 -1.3349292e-19)
(-0.00091382068 -1.646688e-05 3.7428891e-19)
(-0.00088619183 -1.6522149e-05 3.092354e-19)
(-0.00085878765 -1.6570752e-05 -1.7799235e-19)
(-0.00083160914 -1.6613156e-05 -4.6034985e-19)
(-0.00080465687 -1.6649823e-05 -5.0502399e-20)
(-0.00077793106 -1.6681194e-05 3.1909315e-19)
(-0.00075143156 -1.670768e-05 1.8217467e-19)
(-0.00072515788 -1.6729673e-05 -6.4953997e-20)
(-0.00069910922 -1.6747553e-05 -2.2366199e-19)
(-0.0006732845 -1.6761677e-05 -8.4336319e-20)
(-0.00064768234 -1.6772388e-05 2.4226003e-19)
(-0.00062230113 -1.6780008e-05 2.2649354e-19)
(-0.00059713899 -1.6784839e-05 -8.7639188e-20)
(-0.00057219385 -1.6787168e-05 -2.9874855e-19)
(-0.00054746342 -1.6787277e-05 -4.7416519e-20)
(-0.00052294525 -1.6785416e-05 2.0672017e-19)
(-0.00049863668 -1.6781831e-05 8.9773845e-20)
(-0.00047453493 -1.6776741e-05 -2.6791801e-20)
(-0.00045063705 -1.6770373e-05 -6.1979384e-20)
(-0.00042693999 -1.6762904e-05 -2.3722317e-20)
(-0.00040344057 -1.6754531e-05 2.2546662e-20)
(-0.00038013554 -1.674542e-05 4.5065788e-20)
(-0.00035702154 -1.6735708e-05 -2.762801e-20)
(-0.00033409517 -1.6725539e-05 -8.6652e-20)
(-0.00031135297 -1.6715014e-05 -1.9016038e-20)
(-0.00028879147 -1.6704218e-05 6.6109292e-20)
(-0.0002664072 -1.6693167e-05 7.9920765e-20)
(-0.00024419676 -1.6681828e-05 -2.4577016e-20)
(-0.00022215685 -1.6670001e-05 -8.7016587e-20)
(-0.00020028445 -1.665722e-05 -8.5638071e-21)
(-0.00017857692 -1.6642471e-05 5.0701981e-20)
(-0.00015703231 -1.6623623e-05 3.2505195e-20)
(-0.00013564971 -1.6596415e-05 -1.318664e-20)
(-0.00011442941 -1.6553027e-05 -2.7746499e-20)
(-9.3371554e-05 -1.6481957e-05 -3.4900563e-21)
(-7.2469236e-05 -1.6377573e-05 1.2676001e-20)
(-5.1690401e-05 -1.6281836e-05 8.2153689e-21)
(-3.0961847e-05 -1.6396852e-05 -9.4515355e-22)
(-1.0264281e-05 -1.7225803e-05 -2.5545638e-21)
(-6.7610211e-05 0.00026269177 -8.3142553e-20)
(-0.00015461048 0.00027239105 -3.4320504e-20)
(-0.00025350268 0.00027729158 -4.0293496e-20)
(-0.00034955355 0.00028178088 -5.4670772e-21)
(-0.00044880495 0.00028441743 3.0328657e-20)
(-0.0005480649 0.00028556264 -5.4029605e-20)
(-0.00064704822 0.00028582497 3.0911232e-20)
(-0.00074564477 0.0002855189 7.0915324e-21)
(-0.00084371912 0.00028481774 6.0850026e-20)
(-0.00094113144 0.00028382003 1.824406e-19)
(-0.0010377588 0.0002825818 1.193168e-19)
(-0.0011334916 0.00028113495 1.1542582e-19)
(-0.0012282284 0.0002794981 1.4408074e-20)
(-0.001321873 0.00027768259 1.4120419e-19)
(-0.0014143332 0.00027569581 2.1839196e-19)
(-0.0015055197 0.00027354287 4.0686175e-20)
(-0.0015953453 0.00027122783 6.9567459e-20)
(-0.0016837251 0.00026875432 -5.0573034e-20)
(-0.0017705757 0.00026612606 -1.3615583e-19)
(-0.0018558153 0.00026334699 4.7752791e-20)
(-0.0019393637 0.00026041855 6.1607791e-20)
(-0.0020211456 0.00025733299 7.0836302e-20)
(-0.0021010888 0.00025408863 1.8945632e-19)
(-0.0021791215 0.00025068998 2.0596665e-19)
(-0.0022551729 0.00024714226 -5.1514859e-20)
(-0.0023291752 0.00024345025 -1.542115e-19)
(-0.002401064 0.00023961854 -9.2992012e-20)
(-0.0024707781 0.0002356517 -2.1624398e-19)
(-0.0025382598 0.00023155442 -2.7807037e-19)
(-0.002603455 0.00022733168 9.63082e-20)
(-0.0026663132 0.00022298868 2.8828141e-19)
(-0.0027267875 0.00021853095 -6.5617154e-20)
(-0.0027848351 0.00021396433 -3.6490346e-19)
(-0.0028404169 0.00020929497 -2.9337799e-19)
(-0.002893498 0.0002045293 2.6070578e-19)
(-0.0029440478 0.00019967406 3.5023743e-19)
(-0.0029920398 0.00019473623 -1.2976363e-19)
(-0.0030374519 0.00018972307 -1.7518556e-19)
(-0.0030802662 0.000184642 6.4613427e-21)
(-0.0031204696 0.00017950068 -2.6973805e-19)
(-0.0031580531 0.00017430686 -4.8181822e-19)
(-0.0031930123 0.00016906845 3.7974409e-19)
(-0.0032253472 0.00016379343 9.779736e-19)
(-0.0032550622 0.00015848981 8.510472e-19)
(-0.003282166 0.00015316563 -1.2442318e-19)
(-0.0033066715 0.00014782889 -1.8378995e-18)
(-0.0033285961 0.00014248756 -8.177608e-19)
(-0.0033479608 0.0001371495 5.8947145e-19)
(-0.0033647909 0.00013182248 7.1502133e-19)
(-0.0033791154 0.00012651408 5.8279752e-19)
(-0.003390967 0.00012123174 -8.6154678e-19)
(-0.0034003819 0.00011598268 -2.672004e-20)
(-0.0034073995 0.0001107739 9.4534117e-19)
(-0.0034120627 0.00010561213 -9.0905103e-20)
(-0.003414417 0.00010050383 -1.5902873e-19)
(-0.003414511 9.5455199e-05 -3.6875016e-19)
(-0.0034123957 9.0472068e-05 -3.3953161e-19)
(-0.0034081245 8.555998e-05 5.6352934e-19)
(-0.003401753 8.072413e-05 1.7460729e-19)
(-0.0033933387 7.5969368e-05 -7.7824288e-19)
(-0.0033829409 7.1300189e-05 -2.3021454e-19)
(-0.0033706204 6.6720717e-05 5.8436203e-19)
(-0.0033564393 6.2234718e-05 8.2641495e-20)
(-0.0033404609 5.7845591e-05 -3.9737618e-19)
(-0.0033227492 5.355637e-05 1.9917325e-19)
(-0.0033033693 4.9369732e-05 3.4622577e-19)
(-0.0032823863 4.5287986e-05 -1.3624357e-19)
(-0.003259866 4.131311e-05 -2.1232722e-20)
(-0.0032358743 3.7446764e-05 -1.0137441e-19)
(-0.003210477 3.3690262e-05 -5.9439569e-19)
(-0.0031837396 3.0044669e-05 -2.8905205e-20)
(-0.0031557276 2.6510749e-05 3.5271592e-19)
(-0.0031265057 2.3089013e-05 -1.050529e-20)
(-0.0030961381 1.9779709e-05 2.3164827e-19)
(-0.0030646884 1.6582821e-05 2.3068631e-19)
(-0.0030322189 1.3498097e-05 1.970003e-19)
(-0.0029987917 1.0525149e-05 -1.7185008e-19)
(-0.0029644685 7.6633949e-06 -7.2062557e-19)
(-0.0029293126 4.9112547e-06 -1.9240505e-19)
(-0.002893391 2.2637823e-06 5.3511744e-19)
(-0.0028567698 -2.9150805e-07 3.7189044e-19)
(-0.0028194592 -2.7550187e-06 -4.1233764e-19)
(-0.0027814921 -5.0860691e-06 -3.1973232e-19)
(-0.0027429549 -7.3100578e-06 -2.0668069e-19)
(-0.0027039058 -9.4346354e-06 -1.3503172e-19)
(-0.0026643929 -1.1463007e-05 2.6840897e-19)
(-0.0026244628 -1.3397891e-05 -1.4068696e-19)
(-0.0025841604 -1.5241718e-05 1.4721262e-19)
(-0.002543529 -1.6996879e-05 4.6288618e-19)
(-0.0025026105 -1.8665804e-05 -1.9880937e-19)
(-0.0024614451 -2.0250967e-05 -2.8091457e-19)
(-0.0024200714 -2.1754883e-05 -4.3975802e-20)
(-0.0023785262 -2.3180105e-05 1.1240587e-19)
(-0.0023368447 -2.4529204e-05 -1.0628047e-19)
(-0.0022950606 -2.5804764e-05 -1.0487332e-20)
(-0.0022532058 -2.7009364e-05 3.6880329e-19)
(-0.0022113105 -2.8145582e-05 -3.0397969e-20)
(-0.0021694037 -2.921599e-05 -1.8757966e-19)
(-0.0021275125 -3.0223116e-05 -2.6448968e-19)
(-0.0020856627 -3.1169493e-05 -1.1326977e-19)
(-0.0020438784 -3.2057591e-05 3.2471806e-19)
(-0.0020021825 -3.2889867e-05 1.6203373e-19)
(-0.0019605963 -3.3668718e-05 4.7230599e-20)
(-0.0019191398 -3.4396504e-05 -2.1183105e-19)
(-0.0018778318 -3.5075558e-05 -1.2093137e-19)
(-0.0018366897 -3.5708116e-05 2.6322474e-19)
(-0.0017957295 -3.6296405e-05 4.8720317e-20)
(-0.0017549664 -3.6842571e-05 3.6991783e-20)
(-0.001714414 -3.7348717e-05 -7.8397995e-20)
(-0.0016740852 -3.7816883e-05 -2.678286e-19)
(-0.0016339914 -3.8249044e-05 7.5129105e-20)
(-0.0015941433 -3.8647114e-05 1.2409715e-19)
(-0.0015545505 -3.9012979e-05 9.2087926e-20)
(-0.0015152216 -3.9348427e-05 1.6532986e-19)
(-0.0014761645 -3.9655203e-05 -1.2000129e-19)
(-0.0014373859 -3.9934985e-05 -2.4066591e-19)
(-0.0013988919 -4.0189388e-05 -9.9850708e-20)
(-0.0013606879 -4.0419949e-05 1.3071834e-19)
(-0.0013227782 -4.0628167e-05 8.6951204e-20)
(-0.0012851668 -4.0815463e-05 -1.1888241e-19)
(-0.0012478567 -4.0983209e-05 1.9425369e-20)
(-0.0012108505 -4.1132714e-05 1.3733081e-19)
(-0.0011741501 -4.1265242e-05 5.7806578e-20)
(-0.0011377567 -4.1381991e-05 -1.3257907e-19)
(-0.0011016711 -4.1484122e-05 -1.7292302e-19)
(-0.0010658936 -4.1572739e-05 8.1142671e-20)
(-0.001030424 -4.1648888e-05 1.5266825e-19)
(-0.00099526161 -4.1713574e-05 5.6579656e-20)
(-0.00096040533 -4.1767753e-05 -7.7099882e-20)
(-0.00092585369 -4.1812335e-05 -8.2892324e-20)
(-0.00089160482 -4.184818e-05 4.0359443e-20)
(-0.00085765654 -4.1876117e-05 7.1747201e-20)
(-0.00082400632 -4.1896921e-05 6.943523e-20)
(-0.00079065135 -4.1911328e-05 2.4952476e-21)
(-0.00075758854 -4.1920036e-05 -7.2142319e-20)
(-0.00072481455 -4.1923708e-05 -4.0239241e-20)
(-0.00069232581 -4.1922958e-05 3.7073365e-20)
(-0.00066011854 -4.1918373e-05 4.0921041e-20)
(-0.00062818876 -4.1910507e-05 -2.2340712e-20)
(-0.00059653232 -4.1899865e-05 -2.6876083e-20)
(-0.00056514493 -4.1886929e-05 8.1977282e-21)
(-0.00053402215 -4.1872145e-05 -2.6359609e-20)
(-0.00050315943 -4.1855915e-05 9.5546447e-21)
(-0.0004725521 -4.1838603e-05 2.7439134e-21)
(-0.00044219544 -4.1820539e-05 -3.0496087e-20)
(-0.00041208466 -4.1802003e-05 2.5962089e-20)
(-0.00038221492 -4.1783211e-05 1.5995562e-20)
(-0.00035258138 -4.1764286e-05 2.6920477e-22)
(-0.00032317921 -4.1745233e-05 -7.135367e-21)
(-0.00029400366 -4.1725835e-05 -1.1468932e-20)
(-0.00026505007 -4.1705508e-05 3.0263993e-20)
(-0.00023631389 -4.1683065e-05 2.2922239e-20)
(-0.00020779062 -4.1656242e-05 1.9650153e-21)
(-0.0001794754 -4.1621327e-05 -2.4181596e-20)
(-0.00015136209 -4.157324e-05 -1.1691698e-20)
(-0.00012344106 -4.1508789e-05 2.2385726e-20)
(-9.5693961e-05 -4.1441015e-05 9.5456083e-21)
(-6.8083986e-05 -4.1439918e-05 3.9578016e-21)
(-4.0568815e-05 -4.1710375e-05 7.8549976e-21)
(-1.337611e-05 -4.2569446e-05 1.753818e-20)
(-7.9671913e-05 0.00048618049 -4.9997855e-19)
(-0.00018186234 0.0004929231 -1.3915778e-19)
(-0.00029718329 0.00049718987 -3.2190061e-20)
(-0.00040834587 0.00050097722 -1.5701756e-19)
(-0.00052274316 0.00050312608 9.4423449e-21)
(-0.00063685281 0.00050382979 -1.4259455e-19)
(-0.00075051268 0.00050352933 -1.1130632e-19)
(-0.00086367358 0.00050249483 -1.0655746e-20)
(-0.00097621131 0.00050089383 1.2928136e-19)
(-0.0010879742 0.0004988292 2.0338302e-19)
(-0.0011988193 0.00049636381 1.383452e-19)
(-0.0013086142 0.00049353631 1.4828939e-19)
(-0.0014172348 0.00049037114 -3.6380349e-20)
(-0.0015245631 0.00048688438 9.2134901e-20)
(-0.0016304862 0.00048308721 1.3505604e-19)
(-0.0017348954 0.00047898795 -6.583117e-20)
(-0.0018376857 0.00047459324 1.042061e-19)
(-0.0019387553 0.00046990879 2.7674182e-20)
(-0.0020380053 0.00046493981 -7.1295005e-20)
(-0.0021353399 0.00045969134 5.1692459e-20)
(-0.0022306664 0.00045416818 5.4963549e-20)
(-0.002323896 0.00044837469 6.4017027e-20)
(-0.0024149436 0.00044231718 1.1989213e-19)
(-0.0025037268 0.00043600329 1.0777926e-21)
(-0.0025901659 0.0004294408 -7.9460232e-20)
(-0.0026741847 0.00042263751 -7.4997798e-20)
(-0.0027557111 0.00041560138 -2.0682911e-19)
(-0.0028346768 0.00040834081 -5.7366176e-20)
(-0.0029110179 0.00040086467 3.6918671e-20)
(-0.0029846749 0.00039318234 -4.5778748e-20)
(-0.0030555927 0.0003853038 -1.2951192e-19)
(-0.0031237208 0.0003772395 -5.1251844e-20)
(-0.0031890136 0.00036900041 1.6357986e-19)
(-0.0032514301 0.00036059799 2.0992138e-20)
(-0.0033109344 0.00035204413 -2.0005195e-19)
(-0.0033674955 0.00034335113 -9.0208836e-20)
(-0.0034210874 0.00033453167 1.4717976e-19)
(-0.0034716893 0.00032559874 1.7960527e-19)
(-0.0035192856 0.00031656563 -5.4190987e-20)
(-0.0035638656 0.00030744583 -1.8505901e-19)
(-0.0036054239 0.00029825301 -7.3777282e-20)
(-0.0036439601 0.00028900093 1.465622e-19)
(-0.0036794791 0.00027970343 2.2168251e-19)
(-0.0037119904 0.00027037434 -3.4351061e-20)
(-0.0037415088 0.00026102742 2.655976e-21)
(-0.0037680535 0.00025167631 -2.7556237e-19)
(-0.0037916487 0.00024233452 -3.0368956e-19)
(-0.003812323 0.00023301531 6.9546029e-20)
(-0.0038301094 0.00022373168 8.6795191e-20)
(-0.0038450451 0.00021449633 3.4334492e-19)
(-0.0038571713 0.00020532156 4.6866797e-20)
(-0.0038665332 0.00019621933 -3.2313989e-19)
(-0.0038731794 0.00018720113 1.0205425e-19)
(-0.0038771622 0.00017827795 1.4355175e-19)
(-0.0038785367 0.0001694603 -3.6776537e-20)
(-0.0038773614 0.00016075819 -1.3639366e-19)
(-0.0038736973 0.00015218101 -1.3810104e-19)
(-0.0038676078 0.0001437376 1.578571e-19)
(-0.0038591588 0.00013543621 3.4346089e-20)
(-0.0038484181 0.00012728448 -3.2862668e-19)
(-0.0038354552 0.00011928943 -5.2871969e-20)
(-0.0038203413 0.00011145744 2.4793566e-19)
(-0.0038031486 0.0001037943 6.0302166e-20)
(-0.0037839508 9.6305159e-05 -7.1687912e-20)
(-0.0037628219 8.8994533e-05 8.6071322e-20)
(-0.0037398371 8.186635e-05 6.4493798e-20)
(-0.0037150714 7.4923916e-05 -2.2169386e-19)
(-0.0036886005 6.8169977e-05 -9.3937901e-20)
(-0.0036604998 6.1606711e-05 6.9908488e-21)
(-0.0036308446 5.5235734e-05 -3.1323297e-20)
(-0.0035997098 4.9058166e-05 1.9534822e-20)
(-0.0035671696 4.3074606e-05 2.179034e-20)
(-0.0035332977 3.7285151e-05 -8.3447993e-20)
(-0.0034981669 3.1689406e-05 -6.4428927e-20)
(-0.0034618488 2.6286479e-05 1.7684093e-19)
(-0.0034244137 2.1074996e-05 1.4476454e-19)
(-0.0033859312 1.6053221e-05 -2.2153211e-19)
(-0.0033464699 1.1219329e-05 -3.819336e-19)
(-0.0033060999 6.5717013e-06 -7.3296843e-20)
(-0.003264895 2.1134301e-06 1.5004093e-19)
(-0.003222899 -2.1510275e-06 -7.0499554e-21)
(-0.0031801693 -6.1987575e-06 -1.9881878e-19)
(-0.0031367804 -1.0071386e-05 -1.7729538e-20)
(-0.0030927836 -1.3779259e-05 8.4322898e-20)
(-0.0030482352 -1.7325127e-05 -9.1582406e-23)
(-0.0030031906 -2.0711863e-05 -3.2129858e-20)
(-0.0029577032 -2.3942645e-05 -1.9438042e-19)
(-0.0029118236 -2.7021006e-05 -6.3233953e-20)
(-0.0028656005 -2.9950745e-05 1.6369592e-19)
(-0.0028190807 -3.2735872e-05 1.563331e-19)
(-0.0027723088 -3.5380521e-05 -3.9732937e-20)
(-0.0027253275 -3.7888928e-05 -2.1785207e-19)
(-0.0026781776 -4.0265391e-05 2.4695455e-21)
(-0.0026308981 -4.251425e-05 1.0793888e-19)
(-0.0025835261 -4.4639864e-05 9.4872474e-20)
(-0.0025360967 -4.6646595e-05 8.8076304e-20)
(-0.0024886433 -4.85388e-05 -1.5528921e-19)
(-0.0024411976 -5.0320801e-05 -1.1360451e-19)
(-0.0023937894 -5.1996891e-05 -8.0522927e-21)
(-0.002346447 -5.3571316e-05 2.8635594e-21)
(-0.0022991968 -5.5048267e-05 1.3864045e-19)
(-0.0022520637 -5.6431859e-05 3.6532453e-20)
(-0.0022050711 -5.7726149e-05 -2.8617889e-20)
(-0.0021582408 -5.8935106e-05 -1.3354694e-20)
(-0.0021115931 -6.0062632e-05 8.0457201e-20)
(-0.002065147 -6.1112512e-05 1.0265338e-19)
(-0.0020189198 -6.2088461e-05 -6.3904199e-20)
(-0.0019729279 -6.2994098e-05 -5.7639694e-20)
(-0.0019271861 -6.3832929e-05 -8.051627e-20)
(-0.001881708 -6.4608383e-05 -1.2271634e-19)
(-0.0018365062 -6.5323762e-05 1.1707085e-20)
(-0.001791592 -6.5982281e-05 1.046717e-19)
(-0.0017469756 -6.6587055e-05 7.4829972e-20)
(-0.0017026662 -6.7141085e-05 2.6908914e-20)
(-0.0016586719 -6.7647268e-05 -4.641127e-20)
(-0.0016150002 -6.8108408e-05 -7.2350102e-20)
(-0.0015716571 -6.8527203e-05 -9.0418913e-20)
(-0.0015286483 -6.8906254e-05 9.0198653e-22)
(-0.0014859784 -6.9248067e-05 5.3216245e-20)
(-0.0014436511 -6.9555034e-05 6.0508496e-20)
(-0.0014016697 -6.9829473e-05 3.58878e-20)
(-0.0013600365 -7.007358e-05 -4.7241117e-20)
(-0.0013187533 -7.0289479e-05 -2.3558545e-20)
(-0.0012778211 -7.0479184e-05 3.2896077e-20)
(-0.0012372406 -7.0644645e-05 6.2708723e-20)
(-0.0011970116 -7.0787712e-05 3.4776856e-20)
(-0.0011571337 -7.0910138e-05 -1.8974553e-20)
(-0.0011176057 -7.101361e-05 4.7228333e-21)
(-0.0010784261 -7.1099729e-05 -2.7869242e-20)
(-0.0010395931 -7.117002e-05 1.1121357e-20)
(-0.0010011042 -7.1225931e-05 6.4187582e-20)
(-0.00096295676 -7.126884e-05 1.8836222e-20)
(-0.00092514769 -7.1300042e-05 1.866725e-20)
(-0.0008876736 -7.1320781e-05 -6.2650568e-21)
(-0.00085053082 -7.1332217e-05 -3.2483047e-20)
(-0.00081371536 -7.1335457e-05 -3.8808936e-20)
(-0.00077722304 -7.1331542e-05 7.1013274e-21)
(-0.00074104942 -7.1321438e-05 8.3532621e-21)
(-0.00070518983 -7.1306082e-05 -2.1312967e-20)
(-0.00066963947 -7.1286312e-05 -1.1048231e-20)
(-0.00063439333 -7.1262942e-05 1.5045013e-20)
(-0.00059944627 -7.1236716e-05 2.7383296e-21)
(-0.00056479301 -7.1208313e-05 1.5533988e-20)
(-0.00053042818 -7.1178355e-05 2.9966509e-21)
(-0.0004963463 -7.1147404e-05 -7.7381623e-21)
(-0.00046254184 -7.1115947e-05 1.5803118e-20)
(-0.00042900917 -7.1084386e-05 -1.80409e-20)
(-0.00039574268 -7.1053009e-05 -2.601733e-21)
(-0.00036273666 -7.1021959e-05 2.7527933e-20)
(-0.00032998542 -7.0991152e-05 2.9061348e-20)
(-0.00029748316 -7.0960168e-05 2.1533016e-20)
(-0.00026522391 -7.0928095e-05 4.9682321e-21)
(-0.00023320128 -7.089329e-05 7.0495726e-21)
(-0.00020140788 -7.0853427e-05 -2.4658514e-20)
(-0.00016983427 -7.0806281e-05 -5.2179109e-21)
(-0.00013846791 -7.0753371e-05 2.1935168e-20)
(-0.00010729156 -7.0711307e-05 6.5133058e-21)
(-7.6279203e-05 -7.0736585e-05 1.3874988e-20)
(-4.5415311e-05 -7.0962406e-05 1.6735056e-20)
(-1.4962668e-05 -7.1530759e-05 2.6752056e-20)
(-8.4957687e-05 0.00073306359 -6.4098357e-19)
(-0.00019437202 0.00073703941 -4.4616767e-19)
(-0.00031786884 0.00073998213 -1.4068912e-19)
(-0.00043656563 0.00074248061 5.1213576e-20)
(-0.00055857347 0.00074365824 -2.9234281e-19)