/*--------------------------------*- C++ -*----------------------------------*\
| =========                 |                                                 |
| \\      /  F ield         | OpenFOAM: The Open Source CFD Toolbox           |
|  \\    /   O peration     | Version:  2306                                  |
|   \\  /    A nd           | Website:  www.openfoam.com                      |
|    \\/     M anipulation  |                                                 |
\*---------------------------------------------------------------------------*/
FoamFile
{
    version     2.0;
    format      ascii;
    arch        "LSB;label=32;scalar=64";
    class       volVectorField;
    location    "0.28";
    object      U_0;
}
// * * * * * * * * * * * * * * * * * * * * * * * * * * * * * * * * * * * * * //

dimensions      [0 1 -1 0 0 0 0];

internalField   nonuniform List<vector> 
51200
(
(-1.1782533e-05 -3.6650998e-06 5.2833402e-20)
(-3.304023e-05 1.9519934e-06 -3.8414356e-21)
(-5.880597e-05 2.6959874e-06 -1.7346756e-20)
(-8.4660706e-05 3.8226064e-06 1.3636333e-20)
(-0.00011231683 4.4537605e-06 2.2290357e-20)
(-0.00014017552 4.6938332e-06 -7.4638279e-21)
(-0.00016796511 4.8183529e-06 9.9491895e-22)
(-0.0001956089 4.8857501e-06 1.8501273e-20)
(-0.00022307483 4.9233172e-06 1.3157318e-20)
(-0.0002503468 4.9456975e-06 -2.701501e-20)
(-0.00027741639 4.9596528e-06 -2.3444655e-20)
(-0.0003042767 4.9677809e-06 4.3588357e-20)
(-0.00033091948 4.9708855e-06 1.5352208e-20)
(-0.00035733443 4.9688767e-06 -3.1517762e-20)
(-0.00038350918 4.9610902e-06 -1.768523e-20)
(-0.00040942946 4.9463033e-06 1.7587134e-20)
(-0.00043507937 4.9226368e-06 4.8596659e-20)
(-0.00046044148 4.8873627e-06 -6.0573449e-21)
(-0.00048549764 4.8368148e-06 -4.373815e-20)
(-0.00051023311 4.7670676e-06 -4.650212e-22)
(-0.00053464325 4.6807885e-06 5.0920401e-21)
(-0.00055871013 4.6016286e-06 1.398363e-20)
(-0.00058239745 4.5399244e-06 7.1372006e-20)
(-0.00060567622 4.4921185e-06 1.2114845e-19)
(-0.00062852575 4.4532912e-06 1.4481171e-19)
(-0.0006509269 4.4197875e-06 -1.1615079e-19)
(-0.00067286018 4.3890573e-06 -3.6511325e-19)
(-0.00069430566 4.3593223e-06 -9.8232911e-20)
(-0.00071524317 4.3293327e-06 1.4232227e-19)
(-0.00073565252 4.2981779e-06 1.9946148e-19)
(-0.00075551376 4.2651787e-06 1.5316291e-19)
(-0.00077480731 4.2298127e-06 -5.6099246e-20)
(-0.00079351412 4.1916804e-06 -3.6730327e-20)
(-0.00081161575 4.1504659e-06 -1.8242286e-19)
(-0.00082909453 4.1059255e-06 -1.7482466e-19)
(-0.00084593362 4.0578768e-06 2.5285304e-19)
(-0.00086211709 4.006187e-06 -8.7280776e-21)
(-0.00087763006 3.9507734e-06 -5.1415217e-19)
(-0.00089245869 3.8915936e-06 1.6367216e-19)
(-0.00090659033 3.8286417e-06 7.1107973e-19)
(-0.00092001351 3.7619517e-06 1.2716475e-19)
(-0.00093271803 3.6915847e-06 -3.2945605e-19)
(-0.00094469502 3.6176344e-06 -3.2850531e-19)
(-0.00095593693 3.5402244e-06 -2.0252153e-19)
(-0.0009664376 3.4594935e-06 2.4591268e-19)
(-0.00097619225 3.3756137e-06 7.6827503e-19)
(-0.00098519752 3.2887698e-06 -1.080837e-19)
(-0.00099345144 3.1991678e-06 -3.1586348e-19)
(-0.0010009535 3.1070258e-06 -2.5560696e-19)
(-0.0010077045 3.0125802e-06 -9.1083481e-19)
(-0.0010137068 2.916075e-06 4.488832e-19)
(-0.001018964 2.8177514e-06 6.646033e-19)
(-0.001023481 2.7178858e-06 1.9719855e-20)
(-0.0010272641 2.616726e-06 2.9114921e-19)
(-0.0010303208 2.5145432e-06 -7.7212911e-19)
(-0.0010326599 2.4116081e-06 -6.0065157e-19)
(-0.0010342912 2.308178e-06 6.3145556e-19)
(-0.0010352258 2.2045188e-06 2.2489853e-19)
(-0.0010354757 2.100896e-06 -8.9922455e-20)
(-0.001035054 1.9975568e-06 9.8050905e-20)
(-0.0010339747 1.894751e-06 -5.108759e-20)
(-0.0010322526 1.7927172e-06 4.7291399e-20)
(-0.0010299033 1.6916977e-06 -3.5938314e-20)
(-0.0010269431 1.5919124e-06 -3.5209573e-19)
(-0.0010233891 1.4935756e-06 -5.0371983e-19)
(-0.0010192587 1.3969018e-06 3.489381e-20)
(-0.0010145701 1.3020853e-06 8.8650303e-19)
(-0.0010093417 1.2093243e-06 -4.6982541e-21)
(-0.0010035924 1.1187981e-06 -3.6146949e-19)
(-0.00099734138 1.0306911e-06 5.9172418e-19)
(-0.00099060801 9.4518328e-07 -9.0763776e-20)
(-0.00098341194 8.6245977e-07 -4.1321182e-19)
(-0.00097577294 7.8270901e-07 1.2558948e-19)
(-0.00096771089 7.0614335e-07 1.8942413e-19)
(-0.00095924575 6.3301299e-07 2.2336421e-19)
(-0.00095039756 5.6368499e-07 -4.1759032e-19)
(-0.0009411866 4.9879948e-07 -4.1636123e-19)
(-0.00093163351 4.3943976e-07 3.4669997e-19)
(-0.00092175872 3.8707362e-07 4.5619718e-19)
(-0.00091157983 3.4260848e-07 -2.1012859e-19)
(-0.0009011071 3.0432763e-07 -7.4489073e-19)
(-0.0008903227 2.7870114e-07 3.0733143e-19)
(-0.00087927933 1.8608257e-07 5.8273721e-19)
(-0.00086803629 8.2416251e-08 3.5471212e-21)
(-0.00085658319 -1.7950779e-08 1.6533446e-19)
(-0.00084492953 -1.1265783e-07 -2.3923009e-19)
(-0.00083309037 -2.0137738e-07 1.8705573e-20)
(-0.00082108143 -2.8451887e-07 2.0369254e-21)
(-0.00080891812 -3.6260663e-07 -4.2122656e-19)
(-0.00079661541 -4.3610334e-07 1.2256582e-19)
(-0.00078418769 -5.0538297e-07 -2.7646464e-19)
(-0.00077164883 -5.707391e-07 -1.8292899e-19)
(-0.00075901213 -6.3240817e-07 4.3262846e-19)
(-0.00074629036 -6.9059379e-07 2.2972779e-19)
(-0.00073349575 -7.454694e-07 -6.544916e-20)
(-0.00072064001 -7.9718978e-07 -4.3021121e-19)
(-0.0007077343 -8.4589568e-07 4.2005878e-20)
(-0.00069478928 -8.9171829e-07 3.4547091e-19)
(-0.00068181511 -9.3478164e-07 2.0377833e-19)
(-0.00066882141 -9.7520315e-07 -1.1093617e-19)
(-0.00065581734 -1.0130926e-06 -4.9149967e-19)
(-0.00064281156 -1.0485632e-06 1.2420867e-19)
(-0.00062981223 -1.0817166e-06 2.3100468e-19)
(-0.00061682707 -1.1126596e-06 1.3080227e-19)
(-0.00060386333 -1.1414851e-06 -3.1417202e-20)
(-0.00059092783 -1.1682877e-06 -4.8896272e-19)
(-0.00057802694 -1.1931592e-06 1.1615016e-19)
(-0.00056516663 -1.2161905e-06 3.2283256e-19)
(-0.00055235244 -1.2374706e-06 5.7414177e-20)
(-0.00053958953 -1.2570774e-06 3.1888522e-20)
(-0.00052688268 -1.2750942e-06 -3.5276506e-19)
(-0.00051423629 -1.2915961e-06 -1.4423592e-19)
(-0.00050165443 -1.3066619e-06 2.2536711e-19)
(-0.00048914082 -1.320351e-06 6.8573579e-20)
(-0.00047669883 -1.3327434e-06 3.6623131e-20)
(-0.00046433155 -1.3438991e-06 -6.8260039e-20)
(-0.00045204176 -1.353888e-06 1.0530232e-20)
(-0.00043983195 -1.3627805e-06 1.0129478e-19)
(-0.00042770434 -1.3706548e-06 -1.0450967e-20)
(-0.00041566087 -1.3775573e-06 1.9922813e-20)
(-0.00040370326 -1.3835631e-06 -8.5065383e-20)
(-0.00039183296 -1.3887223e-06 -1.7752303e-20)
(-0.00038005123 -1.3930995e-06 9.1981349e-20)
(-0.00036835908 -1.3967457e-06 5.3709014e-20)
(-0.00035675734 -1.3997037e-06 -1.4816244e-20)
(-0.00034524664 -1.4020301e-06 -1.783658e-19)
(-0.00033382744 -1.4037697e-06 -3.6578903e-20)
(-0.00032250001 -1.4049673e-06 1.3241922e-19)
(-0.00031126447 -1.4056601e-06 5.6982266e-20)
(-0.0003001208 -1.4058896e-06 -4.0462847e-20)
(-0.00028906882 -1.4056975e-06 -8.5256823e-20)
(-0.00027810821 -1.4051144e-06 1.4309682e-20)
(-0.00026723856 -1.4041742e-06 4.8680949e-20)
(-0.00025645932 -1.4029106e-06 -2.8478434e-20)
(-0.00024576983 -1.4013471e-06 -7.6021597e-20)
(-0.00023516936 -1.3995212e-06 -1.1776491e-20)
(-0.00022465704 -1.3974541e-06 7.8511404e-20)
(-0.00021423195 -1.3951702e-06 3.2521766e-20)
(-0.0002038931 -1.3926907e-06 3.6304815e-21)
(-0.00019363941 -1.390043e-06 -5.0808296e-21)
(-0.00018346974 -1.3872396e-06 -3.2972906e-20)
(-0.00017338289 -1.3843035e-06 2.7406795e-20)
(-0.00016337764 -1.3812506e-06 1.6788399e-20)
(-0.00015345269 -1.3780928e-06 -8.3122441e-21)
(-0.00014360673 -1.3748455e-06 1.3883771e-20)
(-0.00013383842 -1.3715136e-06 -5.3819014e-20)
(-0.00012414643 -1.3681113e-06 -1.9878693e-20)
(-0.0001145294 -1.3646256e-06 5.7107337e-20)
(-0.00010498606 -1.3610472e-06 2.5185778e-20)
(-9.5515207e-05 -1.357328e-06 -1.7617592e-20)
(-8.6115865e-05 -1.3533475e-06 -3.8112906e-20)
(-7.6787516e-05 -1.3488212e-06 -8.3099915e-21)
(-6.7530612e-05 -1.3430685e-06 2.7383206e-20)
(-5.8347692e-05 -1.3344971e-06 9.0051803e-21)
(-4.9245618e-05 -1.3195998e-06 -6.5636037e-21)
(-4.0239377e-05 -1.2916685e-06 -1.076649e-20)
(-3.1356535e-05 -1.2427437e-06 -3.8593391e-21)
(-2.2633057e-05 -1.1876695e-06 4.7296681e-21)
(-1.4008456e-05 -1.319499e-06 1.0435986e-21)
(-4.8472485e-06 -2.2864792e-06 -4.3418074e-21)
(-4.4372462e-05 8.3569994e-05 6.010985e-20)
(-0.00010486712 9.3304753e-05 -9.2833417e-21)
(-0.00017462136 9.6633487e-05 7.3148594e-22)
(-0.00024326202 0.00010020782 5.294225e-20)
(-0.00031487313 0.00010226294 4.1053154e-20)
(-0.00038673965 0.00010317528 -1.1051513e-20)
(-0.00045846797 0.00010354061 5.7384982e-20)
(-0.0005299155 0.00010360105 3.1630122e-20)
(-0.000600973 0.00010347316 -2.5707343e-20)
(-0.0006715472 0.00010321879 -6.3835031e-21)
(-0.00074156349 0.0001028704 1.870697e-20)
(-0.00081095779 0.00010244464 4.7643583e-20)
(-0.00087967076 0.0001019501 9.7884988e-20)
(-0.00094764505 0.00010139115 1.3893228e-19)
(-0.0010148243 0.00010076991 5.2506929e-20)
(-0.0010811525 0.00010008695 4.8574734e-20)
(-0.0011465743 9.934185e-05 1.6383086e-19)
(-0.0012110345 9.8533278e-05 2.729662e-20)
(-0.0012744786 9.7659166e-05 -1.8955522e-19)
(-0.0013368486 9.6717231e-05 -1.2705953e-19)
(-0.0013980759 9.5709596e-05 5.0379037e-21)
(-0.0014581015 9.4652595e-05 6.4468719e-20)
(-0.0015168829 9.3554973e-05 1.4628238e-19)
(-0.0015743743 9.2415369e-05 2.7067879e-19)
(-0.0016305249 9.1230934e-05 1.6832818e-19)
(-0.0016852837 8.9999625e-05 -3.9435809e-19)
(-0.0017386017 8.8720301e-05 -5.0142736e-19)
(-0.0017904315 8.7392514e-05 -1.9018092e-19)
(-0.001840728 8.6016378e-05 -1.1517502e-19)
(-0.0018894482 8.4592422e-05 5.1668479e-19)
(-0.0019365512 8.3121508e-05 6.7195694e-19)
(-0.0019819984 8.1604774e-05 -3.0023595e-19)
(-0.0020257537 8.0043613e-05 -6.5068961e-19)
(-0.0020677836 7.8439628e-05 -2.5631682e-19)
(-0.0021080572 7.679461e-05 4.3378881e-19)
(-0.0021465465 7.5110551e-05 3.6222386e-19)
(-0.0021832262 7.3389603e-05 -5.7163273e-19)
(-0.0022180742 7.1634079e-05 -8.3358367e-19)
(-0.0022510714 6.9846426e-05 6.5721596e-19)
(-0.0022822019 6.8029225e-05 9.1633619e-19)
(-0.0023114529 6.6185163e-05 -1.0509831e-18)
(-0.002338815 6.4317029e-05 -4.0408177e-19)
(-0.0023642818 6.2427688e-05 1.5070664e-18)
(-0.0023878505 6.0520077e-05 1.9492268e-18)
(-0.0024095212 5.859718e-05 -7.3197732e-21)
(-0.0024292976 5.6662014e-05 -3.0631768e-18)
(-0.0024471862 5.4717625e-05 -1.7878825e-18)
(-0.002463197 5.2767062e-05 1.440694e-18)
(-0.0024773429 5.0813364e-05 1.4178849e-18)
(-0.0024896398 4.8859556e-05 -7.9995793e-19)
(-0.0025001066 4.6908618e-05 -1.3116793e-18)
(-0.0025087649 4.4963476e-05 1.403016e-18)
(-0.0025156391 4.3027026e-05 1.8699835e-18)
(-0.0025207561 4.1102039e-05 -2.7680562e-19)
(-0.0025241453 3.9191247e-05 -1.1930541e-18)
(-0.0025258385 3.7297275e-05 -1.3188203e-18)
(-0.0025258695 3.542263e-05 -1.4985341e-19)
(-0.0025242744 3.3569722e-05 1.4565316e-18)
(-0.0025210908 3.1740847e-05 5.6884605e-19)
(-0.0025163583 2.9938162e-05 -1.4268408e-18)
(-0.002510118 2.8163704e-05 -5.3835002e-19)
(-0.0025024124 2.6419371e-05 1.5245572e-18)
(-0.0024932853 2.4706939e-05 4.3231269e-19)
(-0.0024827814 2.3028025e-05 -1.7871944e-18)
(-0.0024709466 2.138412e-05 -9.9491093e-19)
(-0.0024578273 1.9776577e-05 1.048935e-18)
(-0.0024434708 1.8206608e-05 1.2363944e-18)
(-0.0024279246 1.6675301e-05 3.3225554e-19)
(-0.0024112367 1.518362e-05 -6.5090427e-19)
(-0.0023934553 1.3732415e-05 -1.3796019e-18)
(-0.0023746287 1.2322448e-05 1.5486949e-19)
(-0.002354805 1.0954392e-05 1.0165074e-18)
(-0.0023340325 9.6288586e-06 -1.5676448e-20)
(-0.002312359 8.3464016e-06 1.8144033e-19)
(-0.002289832 7.1075396e-06 4.9677358e-19)
(-0.0022664985 5.9128064e-06 1.4420017e-19)
(-0.002242405 4.7629065e-06 -7.6214771e-19)
(-0.002217597 3.6587155e-06 -8.5056507e-19)
(-0.0021921191 2.6006936e-06 1.7950541e-19)
(-0.0021660146 1.5855939e-06 3.6569736e-19)
(-0.0021393119 5.9915476e-07 2.5516344e-20)
(-0.0021120991 -3.8450244e-07 2.2227742e-19)
(-0.0020844025 -1.3681286e-06 2.8484764e-19)
(-0.0020562077 -2.3127097e-06 -5.6120608e-19)
(-0.002027578 -3.2123572e-06 -6.7394845e-20)
(-0.0019985591 -4.0679879e-06 5.4978674e-19)
(-0.001969189 -4.8814185e-06 -4.0790336e-19)
(-0.0019395034 -5.6545793e-06 1.9036648e-19)
(-0.0019095362 -6.3892027e-06 2.5783707e-19)
(-0.0018793198 -7.0868321e-06 -5.074631e-19)
(-0.0018488856 -7.748865e-06 -3.8000975e-19)
(-0.0018182635 -8.3766006e-06 -1.9080893e-19)
(-0.0017874823 -8.9712638e-06 4.3478026e-19)
(-0.0017565695 -9.5340497e-06 1.8176681e-19)
(-0.0017255512 -1.0066114e-05 -1.6093757e-19)
(-0.0016944527 -1.0568582e-05 -3.0595905e-20)
(-0.0016632976 -1.1042561e-05 8.4362106e-20)
(-0.0016321088 -1.1489148e-05 3.5913859e-19)
(-0.0016009075 -1.1909404e-05 -1.5559342e-19)
(-0.0015697142 -1.2304395e-05 -5.233898e-19)
(-0.001538548 -1.2675143e-05 -7.5692065e-20)
(-0.0015074271 -1.3022677e-05 3.7966387e-19)
(-0.0014763684 -1.3347982e-05 3.6148653e-19)
(-0.001445388 -1.3652048e-05 -4.9391426e-20)
(-0.0014145006 -1.3935828e-05 -3.7200324e-19)
(-0.0013837205 -1.4200243e-05 -2.971233e-19)
(-0.0013530604 -1.4446216e-05 2.0281525e-19)
(-0.0013225326 -1.4674636e-05 5.6128308e-19)
(-0.0012921481 -1.488637e-05 6.1006992e-20)
(-0.0012619173 -1.5082255e-05 -4.1175166e-19)
(-0.0012318497 -1.5263111e-05 -1.7445335e-19)
(-0.0012019539 -1.5429725e-05 -8.2024787e-20)
(-0.001172238 -1.5582887e-05 3.4615329e-19)
(-0.0011427089 -1.5723318e-05 4.1896393e-19)
(-0.0011133733 -1.5851754e-05 -2.487344e-19)
(-0.0010842369 -1.5968888e-05 -3.8793548e-19)
(-0.0010553049 -1.6075381e-05 -7.171404e-20)
(-0.0010265818 -1.6171872e-05 3.5975932e-19)
(-0.00099807152 -1.625899e-05 1.2774592e-19)
(-0.0009697775 -1.6337305e-05 -4.2993036e-19)
(-0.00094170258 -1.6407397e-05 -1.3340635e-19)
(-0.0009138491 -1.6469794e-05 3.7417918e-19)
(-0.00088621892 -1.6525029e-05 3.0911954e-19)
(-0.00085881347 -1.6573598e-05 -1.7794464e-19)
(-0.00083163373 -1.6615968e-05 -4.6022552e-19)
(-0.0008046803 -1.6652607e-05 -5.0469332e-20)
(-0.00077795337 -1.6683948e-05 3.1899249e-19)
(-0.00075145279 -1.6710404e-05 1.8212418e-19)
(-0.00072517808 -1.6732372e-05 -6.4933049e-20)
(-0.00069912844 -1.6750224e-05 -2.2361854e-19)
(-0.00067330276 -1.6764325e-05 -8.4263939e-20)
(-0.00064769969 -1.6775011e-05 2.4222191e-19)
(-0.00062231759 -1.6782609e-05 2.2637986e-19)
(-0.0005971546 -1.6787421e-05 -8.7639456e-20)
(-0.00057220864 -1.6789729e-05 -2.9865649e-19)
(-0.00054747743 -1.6789821e-05 -4.7390104e-20)
(-0.00052295848 -1.6787942e-05 2.0666219e-19)
(-0.00049864918 -1.6784339e-05 8.9745512e-20)
(-0.00047454671 -1.6779234e-05 -2.6798346e-20)
(-0.00045064814 -1.677285e-05 -6.1932923e-20)
(-0.00042695041 -1.6765369e-05 -2.3719063e-20)
(-0.00040345034 -1.6756984e-05 2.2510309e-20)
(-0.00038014467 -1.6747859e-05 4.5069611e-20)
(-0.00035703005 -1.6738138e-05 -2.7613789e-20)
(-0.00033410308 -1.6727959e-05 -8.6625648e-20)
(-0.0003113603 -1.6717424e-05 -1.9010205e-20)
(-0.00028879822 -1.6706619e-05 6.6083447e-20)
(-0.0002664134 -1.6695562e-05 7.9892147e-20)
(-0.0002442024 -1.6684215e-05 -2.4569821e-20)
(-0.00022216196 -1.6672384e-05 -8.699435e-20)
(-0.00020028903 -1.6659599e-05 -8.5642179e-21)
(-0.00017858098 -1.6644848e-05 5.0685062e-20)
(-0.00015703585 -1.6626002e-05 3.248974e-20)
(-0.00013565274 -1.6598798e-05 -1.3182386e-20)
(-0.00011443193 -1.6555423e-05 -2.7746927e-20)
(-9.3373546e-05 -1.6484376e-05 -3.4910744e-21)
(-7.2470701e-05 -1.6380017e-05 1.267362e-20)
(-5.1691341e-05 -1.6284276e-05 8.2129334e-21)
(-3.0962298e-05 -1.6399176e-05 -9.4693634e-22)
(-1.0264386e-05 -1.7227811e-05 -2.5565647e-21)
(-6.7630016e-05 0.00026283293 -8.3142552e-20)
(-0.00015465308 0.00027252905 -3.4320502e-20)
(-0.00025357099 0.00027742682 -4.0293498e-20)
(-0.00034964686 0.00028191321 -5.386679e-21)
(-0.0004489231 0.00028454731 3.0078524e-20)
(-0.00054820733 0.00028569045 -5.413194e-20)
(-0.00064721432 0.00028595088 3.0954525e-20)
(-0.00074583395 0.00028564297 7.0540137e-21)
(-0.00084393078 0.0002849399 6.0684492e-20)
(-0.00094136494 0.00028394018 1.824406e-19)
(-0.0010380135 0.00028269982 1.192632e-19)
(-0.0011337666 0.00028125069 1.1527899e-19)
(-0.0012285229 0.00027961142 1.454315e-20)
(-0.0013221862 0.00027779336 1.4128757e-19)
(-0.0014146641 0.00027580387 2.1835315e-19)
(-0.0015058674 0.0002736481 4.0468311e-20)
(-0.0015957087 0.0002713301 6.9413964e-20)
(-0.0016841032 0.00026885352 -5.0637355e-20)
(-0.0017709674 0.00026622207 -1.3612541e-19)
(-0.0018562195 0.00026343972 4.7925966e-20)
(-0.0019397793 0.00026050797 6.1511702e-20)
(-0.0020215714 0.00025741909 7.0705416e-20)
(-0.0021015237 0.00025417134 1.895939e-19)
(-0.0021795642 0.00025076924 2.060385e-19)
(-0.0022556223 0.00024721802 -5.1445941e-20)
(-0.0023296302 0.00024352248 -1.5423357e-19)
(-0.0024015233 0.00023968723 -9.3013248e-20)
(-0.0024712406 0.00023571683 -2.1613142e-19)
(-0.0025387244 0.00023161601 -2.7804074e-19)
(-0.0026039206 0.00022738973 9.6088799e-20)
(-0.0026667786 0.00022304323 2.8826296e-19)
(-0.0027272518 0.00021858204 -6.5581418e-20)
(-0.0027852971 0.00021401201 -3.6475626e-19)
(-0.0028408757 0.00020933929 -2.9319318e-19)
(-0.0028939527 0.00020457032 2.6078735e-19)
(-0.0029444974 0.00019971185 3.501106e-19)
(-0.0029924834 0.00019477087 -1.2994866e-19)
(-0.0030378886 0.00018975464 -1.7510302e-19)
(-0.0030806954 0.0001846706 6.366323e-21)
(-0.0031208905 0.00017952639 -2.6957419e-19)
(-0.0031584649 0.00017432979 -4.8171399e-19)
(-0.0031934145 0.00016908871 3.7949998e-19)
(-0.0032257392 0.00016381111 9.7775509e-19)
(-0.0032554434 0.00015850503 8.507949e-19)
(-0.0032825359 0.0001531785 -1.2437575e-19)
(-0.0033070298 0.00014783952 -1.8372718e-18)
(-0.0033289423 0.00014249606 -8.1730994e-19)
(-0.0033482946 0.000137156 5.894596e-19)
(-0.0033651121 0.00013182707 7.1470221e-19)
(-0.0033794237 0.00012651689 5.8247347e-19)
(-0.0033912622 0.00012123287 -8.6133503e-19)
(-0.0034006638 0.00011598225 -2.6665398e-20)
(-0.0034076682 0.00011077202 9.4510533e-19)
(-0.003412318 0.00010560891 -9.0760454e-20)
(-0.003414659 0.00010049937 -1.589771e-19)
(-0.0034147396 9.5449593e-05 -3.6887945e-19)
(-0.003412611 9.0465423e-05 -3.3954157e-19)
(-0.0034083267 8.555239e-05 5.6359541e-19)
(-0.0034019421 8.0715688e-05 1.7462412e-19)
(-0.0033935149 7.5960162e-05 -7.7802769e-19)
(-0.0033831044 7.1290301e-05 -2.3002616e-19)
(-0.0033707714 6.6710229e-05 5.8406689e-19)
(-0.0033565781 6.2223707e-05 8.2736048e-20)
(-0.0033405877 5.783413e-05 -3.970571e-19)
(-0.0033228644 5.3544528e-05 1.9898347e-19)
(-0.003303473 4.935757e-05 3.4598518e-19)
(-0.003282479 4.5275567e-05 -1.3614836e-19)
(-0.003259948 4.1300491e-05 -2.1191032e-20)
(-0.0032359458 3.7433995e-05 -1.0136003e-19)
(-0.0032105384 3.3677394e-05 -5.9423575e-19)
(-0.0031837914 3.0031746e-05 -2.887926e-20)
(-0.00315577 2.6497812e-05 3.5265098e-19)
(-0.0031265391 2.30761e-05 -1.0396608e-20)
(-0.003096163 1.9766852e-05 2.3160424e-19)
(-0.0030647049 1.6570055e-05 2.3046911e-19)
(-0.0030322277 1.3485449e-05 1.9688103e-19)
(-0.002998793 1.051265e-05 -1.7182434e-19)
(-0.0029644626 7.6510784e-06 -7.203487e-19)
(-0.0029293001 4.8991657e-06 -1.923441e-19)
(-0.0028933721 2.2519723e-06 5.348757e-19)
(-0.0028567449 -3.0302034e-07 3.7170322e-19)
(-0.0028194286 -2.7663558e-06 -4.1205019e-19)
(-0.0027814561 -5.0971089e-06 -3.1938269e-19)
(-0.0027429138 -7.3208436e-06 -2.0678179e-19)
(-0.00270386 -9.4451514e-06 -1.350975e-19)
(-0.0026643429 -1.1473244e-05 2.6845916e-19)
(-0.0026244087 -1.3407841e-05 -1.4082441e-19)
(-0.0025841025 -1.5251379e-05 1.469883e-19)
(-0.0025434677 -1.7006251e-05 4.6279079e-19)
(-0.0025025461 -1.8674887e-05 -1.9846665e-19)
(-0.0024613778 -2.025976e-05 -2.8062538e-19)
(-0.0024200015 -2.1763392e-05 -4.421646e-20)
(-0.002378454 -2.3188333e-05 1.1230775e-19)
(-0.0023367704 -2.4537155e-05 -1.0618115e-19)
(-0.0022949845 -2.5812443e-05 -1.051041e-20)
(-0.002253128 -2.7016777e-05 3.6866259e-19)
(-0.0022112314 -2.8152732e-05 -3.0417653e-20)
(-0.0021693233 -2.9222887e-05 -1.8759987e-19)
(-0.0021274312 -3.0229763e-05 -2.6440469e-19)
(-0.0020855805 -3.1175898e-05 -1.1307321e-19)
(-0.0020437956 -3.2063762e-05 3.2469706e-19)
(-0.0020020992 -3.2895813e-05 1.6195957e-19)
(-0.0019605127 -3.3674444e-05 4.7230256e-20)
(-0.0019190561 -3.4402021e-05 -2.1182324e-19)
(-0.0018777481 -3.5080874e-05 -1.2098826e-19)
(-0.0018366061 -3.5713235e-05 2.6314605e-19)
(-0.0017956462 -3.6301335e-05 4.8673746e-20)
(-0.0017548835 -3.6847321e-05 3.6944336e-20)
(-0.0017143316 -3.7353294e-05 -7.8309812e-20)
(-0.0016740034 -3.7821294e-05 -2.6765256e-19)
(-0.0016339103 -3.8253296e-05 7.5088358e-20)
(-0.0015940631 -3.8651214e-05 1.240085e-19)
(-0.0015544712 -3.9016936e-05 9.2058222e-20)
(-0.0015151433 -3.9352249e-05 1.6516219e-19)
(-0.0014760872 -3.9658893e-05 -1.200231e-19)
(-0.0014373098 -3.9938554e-05 -2.4036958e-19)
(-0.0013988171 -4.0192838e-05 -9.9734763e-20)
(-0.0013606143 -4.0423289e-05 1.3055189e-19)
(-0.001322706 -4.0631398e-05 8.6895694e-20)
(-0.0012850959 -4.0818594e-05 -1.1881824e-19)
(-0.0012477873 -4.0986244e-05 1.9426828e-20)
(-0.0012107826 -4.1135658e-05 1.3730186e-19)
(-0.0011740837 -4.1268098e-05 5.7768387e-20)
(-0.0011376918 -4.1384763e-05 -1.3250331e-19)
(-0.0011016079 -4.1486817e-05 -1.7284575e-19)
(-0.001065832 -4.1575361e-05 8.1079186e-20)
(-0.0010303641 -4.1651439e-05 1.5263141e-19)
(-0.00099520337 -4.1716059e-05 5.6547791e-20)
(-0.00096034881 -4.1770177e-05 -7.7090438e-20)
(-0.0009257989 -4.18147e-05 -8.2881188e-20)
(-0.00089155178 -4.185049e-05 4.0317663e-20)
(-0.00085760527 -4.1878373e-05 7.1744659e-20)
(-0.00082395683 -4.189913e-05 6.9418371e-20)
(-0.00079060366 -4.1913491e-05 2.4480823e-21)
(-0.00075754265 -4.1922156e-05 -7.2154089e-20)
(-0.00072477048 -4.1925787e-05 -4.0176807e-20)
(-0.00069228355 -4.1925e-05 3.7081869e-20)
(-0.00066007811 -4.192038e-05 4.0884457e-20)
(-0.00062815016 -4.191248e-05 -2.2335188e-20)
(-0.00059649555 -4.1901809e-05 -2.6866627e-20)
(-0.00056511 -4.1888845e-05 8.2213248e-21)
(-0.00053398905 -4.1874033e-05 -2.6332761e-20)
(-0.00050312816 -4.1857779e-05 9.5358222e-21)
(-0.00047252267 -4.1840443e-05 2.7295118e-21)
(-0.00044216784 -4.1822361e-05 -3.0474787e-20)
(-0.00041205888 -4.1803808e-05 2.5949033e-20)
(-0.00038219097 -4.1784997e-05 1.5990219e-20)
(-0.00035255924 -4.1766059e-05 2.8816394e-22)
(-0.00032315889 -4.1746994e-05 -7.1379433e-21)
(-0.00029398515 -4.1727586e-05 -1.147105e-20)
(-0.00026503335 -4.1707253e-05 3.0253942e-20)
(-0.00023629896 -4.1684806e-05 2.2914461e-20)
(-0.00020777746 -4.1657988e-05 1.9714736e-21)
(-0.00017946401 -4.1623083e-05 -2.418025e-20)
(-0.00015135245 -4.1575015e-05 -1.1695213e-20)
(-0.00012343317 -4.1510591e-05 2.2375503e-20)
(-9.5687807e-05 -4.1442841e-05 9.5438661e-21)
(-6.807957e-05 -4.1441717e-05 3.955903e-21)
(-4.0566157e-05 -4.1712006e-05 7.8466021e-21)
(-1.3375227e-05 -4.2570663e-05 1.7529176e-20)
(-7.9685807e-05 0.0004863671 -5.011021e-19)
(-0.00018189278 0.00049310622 -1.3953286e-19)
(-0.00029723279 0.00049736966 -3.1964964e-20)
(-0.00040841414 0.00050115345 -1.5685676e-19)
(-0.00052283018 0.00050329914 9.7550073e-21)
(-0.00063695814 0.000504 -1.4259455e-19)
(-0.00075063577 0.00050369683 -1.1156608e-19)
(-0.00086381387 0.00050265961 -1.0693264e-20)
(-0.00097636819 0.00050105579 1.2914893e-19)
(-0.001088147 0.00049898818 2.0332377e-19)
(-0.0011990073 0.00049651961 1.384792e-19)
(-0.0013088167 0.00049368874 1.4831386e-19)
(-0.001417451 0.00049051999 -3.6110198e-20)
(-0.0015247922 0.00048702944 9.2009831e-20)
(-0.0016307272 0.00048322828 1.3490077e-19)
(-0.0017351475 0.00047912486 -6.590379e-20)
(-0.0018379479 0.00047472582 1.0417199e-19)
(-0.0019390266 0.00047003687 2.7706329e-20)
(-0.0020382846 0.00046506327 -7.1310216e-20)
(-0.0021356263 0.00045981005 5.1721323e-20)
(-0.0022309588 0.00045428203 5.4771354e-20)
(-0.0023241933 0.00044848361 6.3781432e-20)
(-0.0024152448 0.00044242108 1.200297e-19)
(-0.0025040307 0.00043610212 1.4250637e-21)
(-0.0025904715 0.00042953451 -7.9379828e-20)
(-0.002674491 0.00042272607 -7.4898476e-20)
(-0.0027560169 0.0004156848 -2.0676539e-19)
(-0.0028349812 0.0004084191 -5.7366176e-20)
(-0.0029113199 0.00040093784 3.6819931e-20)
(-0.0029849734 0.00039325045 -4.5759667e-20)
(-0.0030558868 0.00038536691 -1.297149e-19)
(-0.0031240096 0.00037729767 -5.1385845e-20)
(-0.0031892962 0.00036905374 1.6392621e-19)
(-0.0032517057 0.00036064656 2.0882937e-20)
(-0.0033112021 0.00035208806 -2.0014983e-19)
(-0.0033677545 0.00034339054 -8.9844194e-20)
(-0.0034213371 0.00033456668 1.4719519e-19)
(-0.003471929 0.0003256295 1.7926007e-19)
(-0.0035195146 0.00031659228 -5.4337171e-20)
(-0.0035640833 0.00030746853 -1.8479541e-19)
(-0.0036056299 0.00029827191 -7.3631368e-20)
(-0.0036441539 0.0002890162 1.4668426e-19)
(-0.0036796602 0.00027971523 2.2177521e-19)
(-0.0037121586 0.00027038285 -3.4519258e-20)
(-0.0037416636 0.0002610328 2.630681e-21)
(-0.0037681947 0.00025167876 -2.7541394e-19)
(-0.0037917762 0.00024233419 -3.0362904e-19)
(-0.0038124365 0.00023301239 6.9362374e-20)
(-0.0038302088 0.00022372634 8.637163e-20)
(-0.0038451304 0.00021448874 3.433506e-19)
(-0.0038572425 0.0002053119 4.6955956e-20)
(-0.0038665903 0.00019620777 -3.2310984e-19)
(-0.0038732225 0.00018718782 1.0233029e-19)
(-0.0038771913 0.00017826306 1.4368062e-19)
(-0.003878552 0.00016944399 -3.6859152e-20)
(-0.0038773631 0.0001607406 -1.3628211e-19)
(-0.0038736856 0.00015216228 -1.3796158e-19)
(-0.003867583 0.00014371788 1.5771273e-19)
(-0.0038591212 0.00013541564 3.385062e-20)
(-0.0038483679 0.00012726318 -3.2850844e-19)
(-0.0038353928 0.00011926752 -5.2330086e-20)
(-0.003820267 0.00011143505 2.4796311e-19)
(-0.0038030629 0.00010377152 6.025489e-20)
(-0.003783854 9.6282099e-05 -7.1696775e-20)
(-0.0037627145 8.8971289e-05 8.5853177e-20)
(-0.0037397193 8.184301e-05 6.4431502e-20)
(-0.0037149439 7.4900564e-05 -2.2153517e-19)
(-0.0036884636 6.8146691e-05 -9.3846183e-20)
(-0.0036603539 6.1583559e-05 7.1181794e-21)
(-0.0036306902 5.5212782e-05 -3.1438694e-20)
(-0.0035995473 4.903547e-05 1.9421062e-20)
(-0.0035669996 4.3052221e-05 2.186512e-20)
(-0.0035331206 3.7263123e-05 -8.3331548e-20)
(-0.0034979831 3.1667777e-05 -6.4471043e-20)
(-0.0034616587 2.6265285e-05 1.7675594e-19)
(-0.0034242179 2.1054272e-05 1.4443095e-19)
(-0.00338573 1.603299e-05 -2.2146038e-19)
(-0.0033462638 1.1199613e-05 -3.8157231e-19)
(-0.0033058893 6.5525275e-06 -7.3323729e-20)
(-0.0032646804 2.0948969e-06 1.4992236e-19)
(-0.0032226809 -2.1689248e-06 -7.0343221e-21)
(-0.0031799481 -6.215951e-06 -1.9854773e-19)
(-0.0031365563 -1.0087967e-05 -1.7732096e-20)
(-0.003092557 -1.3795248e-05 8.4076035e-20)
(-0.0030480064 -1.7340532e-05 -1.9981616e-23)
(-0.0030029602 -2.0726682e-05 -3.1980926e-20)
(-0.0029574713 -2.3956877e-05 -1.9420718e-19)
(-0.0029115907 -2.7034654e-05 -6.3009631e-20)
(-0.0028653669 -2.9963814e-05 1.6363471e-19)
(-0.0028188467 -3.2748366e-05 1.5604619e-19)
(-0.0027720746 -3.5392451e-05 -3.9976254e-20)
(-0.0027250935 -3.7900301e-05 -2.1762833e-19)
(-0.0026779441 -4.0276222e-05 2.7494324e-21)
(-0.0026306653 -4.2524548e-05 1.0770035e-19)
(-0.0025832942 -4.4649641e-05 9.469008e-20)
(-0.002535866 -4.6655865e-05 8.8236161e-20)
(-0.002488414 -4.8547576e-05 -1.5530306e-19)
(-0.0024409699 -5.0329097e-05 -1.1355833e-19)
(-0.0023935636 -5.2004723e-05 -7.9273018e-21)
(-0.0023462231 -5.3578699e-05 2.8812357e-21)
(-0.0022989751 -5.5055215e-05 1.3852355e-19)
(-0.0022518444 -5.6438391e-05 3.6450664e-20)
(-0.0022048543 -5.7732277e-05 -2.8615144e-20)
(-0.0021580267 -5.8940847e-05 -1.3404315e-20)
(-0.0021113818 -6.0068e-05 8.0414114e-20)
(-0.0020649386 -6.1117522e-05 1.0264671e-19)
(-0.0020187145 -6.2093127e-05 -6.3898254e-20)
(-0.0019727257 -6.2998434e-05 -5.7641003e-20)
(-0.0019269872 -6.3836949e-05 -8.0408635e-20)
(-0.0018815125 -6.4612104e-05 -1.2263218e-19)
(-0.0018363141 -6.5327195e-05 1.1684801e-20)
(-0.0017914034 -6.5985437e-05 1.0456254e-19)
(-0.0017467906 -6.658995e-05 7.4853726e-20)
(-0.0017024848 -6.714373e-05 2.6910464e-20)
(-0.0016584943 -6.7649677e-05 -4.6547367e-20)
(-0.0016148263 -6.8110591e-05 -7.2357411e-20)
(-0.0015714871 -6.8529173e-05 -9.0242278e-20)
(-0.0015284822 -6.8908021e-05 1.0283209e-21)
(-0.0014858162 -6.924964e-05 5.3177062e-20)
(-0.0014434929 -6.9556427e-05 6.0444619e-20)
(-0.0014015154 -6.9830694e-05 3.5853061e-20)
(-0.0013598862 -7.0074636e-05 -4.7174239e-20)
(-0.001318607 -7.0290381e-05 -2.3511166e-20)
(-0.0012776789 -7.0479942e-05 3.2826579e-20)
(-0.0012371024 -7.0645267e-05 6.2656736e-20)
(-0.0011968775 -7.0788204e-05 3.4731168e-20)
(-0.0011570036 -7.0910507e-05 -1.900973e-20)
(-0.0011174797 -7.1013867e-05 4.7229709e-21)
(-0.0010783043 -7.1099877e-05 -2.7833518e-20)
(-0.0010394753 -7.1170069e-05 1.1122987e-20)
(-0.0010009905 -7.1225884e-05 6.4149575e-20)
(-0.00096284714 -7.1268705e-05 1.884117e-20)
(-0.00092504215 -7.1299824e-05 1.8616012e-20)
(-0.00088757212 -7.1320484e-05 -6.2877174e-21)
(-0.00085043339 -7.1331849e-05 -3.2448656e-20)
(-0.00081362198 -7.1335021e-05 -3.8768698e-20)
(-0.00077713369 -7.1331041e-05 7.1161449e-21)
(-0.00074096408 -7.132088e-05 8.3440482e-21)
(-0.0007051085 -7.1305469e-05 -2.1284394e-20)
(-0.00066956212 -7.1285647e-05 -1.1060335e-20)
(-0.00063431995 -7.1262229e-05 1.5026548e-20)
(-0.00059937684 -7.1235961e-05 2.7439848e-21)
(-0.00056472751 -7.1207517e-05 1.5533864e-20)
(-0.0005303666 -7.1177521e-05 2.9790625e-21)
(-0.00049628862 -7.1146535e-05 -7.7309205e-21)
(-0.00046248802 -7.1115049e-05 1.5815326e-20)
(-0.00042895922 -7.108346e-05 -1.8043661e-20)
(-0.00039569655 -7.105206e-05 -2.6076358e-21)
(-0.00036269435 -7.1020987e-05 2.7507798e-20)
(-0.0003299469 -7.0990162e-05 2.9056995e-20)
(-0.00029744841 -7.0959163e-05 2.1532081e-20)
(-0.00026519291 -7.0927083e-05 4.9570578e-21)
(-0.000233174 -7.0892275e-05 7.0483902e-21)
(-0.0002013843 -7.0852418e-05 -2.4653616e-20)
(-0.00016981438 -7.0805285e-05 -5.2140122e-21)
(-0.00013845168 -7.0752393e-05 2.193193e-20)
(-0.00010727899 -7.0710337e-05 6.509077e-21)
(-7.6270278e-05 -7.0735571e-05 1.3861245e-20)
(-4.5410024e-05 -7.0961223e-05 1.6726508e-20)
(-1.4960941e-05 -7.1529211e-05 2.6743018e-20)
(-8.4967485e-05 0.00073328152 -6.4098357e-19)
(-0.00019439372 0.00073725445 -4.4635521e-19)
(-0.00031790458 0.00074019396 -1.4035147e-19)
(-0.0004366155 0.00074268882 5.1535168e-20)
(-0.00055863753 0.00074386294 -2.9228027e-19)