/*--------------------------------*- C++ -*----------------------------------*\
| =========                 |                                                 |
| \\      /  F ield         | OpenFOAM: The Open Source CFD Toolbox           |
|  \\    /   O peration     | Version:  2106                                  |
|   \\  /    A nd           | Website:  www.openfoam.com                      |
|    \\/     M anipulation  |                                                 |
\*---------------------------------------------------------------------------*/
FoamFile
{
    version     2.0;
    format      ascii;
    arch        "LSB;label=32;scalar=64";
    class       surfaceScalarField;
    location    "0.037";
    object      phi_0;
}
// * * * * * * * * * * * * * * * * * * * * * * * * * * * * * * * * * * * * * //

dimensions      [0 3 -1 0 0 0 0];

oriented        oriented;

internalField   nonuniform List<scalar> 
8064
(
-7.3209172e-05
7.3209172e-05
-0.0001457239
7.2514724e-05
-0.00021685595
7.1132056e-05
-0.00028592954
6.9073588e-05
-0.0003522874
6.6357862e-05
-0.00041529683
6.3009427e-05
-0.00047435552
5.9058685e-05
-0.0005288972
5.4541689e-05
-0.00057839709
4.9499886e-05
-0.0006223769
4.3979809e-05
-0.00066040961
3.803271e-05
-0.00069212375
3.1714139e-05
-0.00071720721
2.5083461e-05
-0.00073541052
1.8203311e-05
-0.00074654944
1.1138916e-05
-0.00075050754
3.9581001e-06
-0.00074723705
-3.2704841e-06
-0.00073675989
-1.0477166e-05
-0.00071916777
-1.7592115e-05
-0.00069462168
-2.4546092e-05
-0.00066335054
-3.1271137e-05
-0.00062564932
-3.7701227e-05
-0.00058187637
-4.3772944e-05
-0.00053245025
-4.9426123e-05
-0.00047784576
-5.4604489e-05
-0.00041858951
-5.9256253e-05
-0.00035525482
-6.333469e-05
-0.00028845615
-6.6798663e-05
-0.00021884305
-6.9613102e-05
-0.00014709363
-7.174942e-05
-7.390777e-05
-7.3185862e-05
1.5341264e-14
-7.390777e-05
7.390777e-05
-7.390777e-05
0.00014709363
-7.3185862e-05
0.00021884305
-7.174942e-05
0.00028845615
-6.9613102e-05
0.00035525482
-6.6798663e-05
0.00041858951
-6.333469e-05
0.00047784576
-5.9256253e-05
0.00053245025
-5.4604489e-05
0.00058187637
-4.9426123e-05
0.00062564932
-4.3772944e-05
0.00066335054
-3.7701227e-05
0.00069462168
-3.1271137e-05
0.00071916777
-2.4546092e-05
0.00073675989
-1.7592115e-05
0.00074723705
-1.0477166e-05
0.00075050754
-3.2704841e-06
0.00074654944
3.9581001e-06
0.00073541052
1.1138916e-05
0.00071720721
1.8203311e-05
0.00069212375
2.5083461e-05
0.00066040961
3.1714139e-05
0.0006223769
3.803271e-05
0.00057839709
4.3979809e-05
0.0005288972
4.9499886e-05
0.00047435552
5.4541689e-05
0.00041529683
5.9058685e-05
0.0003522874
6.3009427e-05
0.00028592954
6.6357862e-05
0.00021685595
6.9073588e-05
0.0001457239
7.1132056e-05
7.3209172e-05
7.2514724e-05
7.3209172e-05
-7.3872394e-05
0.00014708157
-0.00014704422
0.00014568655
-0.00021882117
0.00014290901
-0.00028852146
0.00013877388
-0.00035548197
0.00013331837
-0.00041906431
0.00012659177
-0.00047866072
0.00011865509
-0.00053369978
0.00010958074
-0.00058365184
9.9451949e-05
-0.00062803419
8.8362165e-05
-0.00066641582
7.641434e-05
-0.00069842175
6.3720062e-05
-0.00072373688
5.0398596e-05
-0.00074210937
3.6575797e-05
-0.0007533534
2.2382949e-05
-0.00075735106
7.955756e-06
-0.00075405412
-6.5674223e-06
-0.00074348466
-2.1046623e-05
-0.00072573519
-3.5341589e-05
-0.00070096804
-4.9313238e-05
-0.00066941415
-6.2825029e-05
-0.00063137106
-7.5744317e-05
-0.00058720032
-8.7943682e-05
-0.0005373242
-9.9302241e-05
-0.00048222178
-0.00010970691
-0.00042242442
-0.00011905361
-0.00035851068
-0.00012724844
-0.00029110064
-0.0001342087
-0.00022084986
-0.00013986389
-0.00014844274
-0.00014415653
-7.4585714e-05
-0.00014704289
1.4739795e-14
-0.00014849348
7.4585714e-05
-0.00014849348
0.00014844274
-0.00014704289
0.00022084986
-0.00014415653
0.00029110064
-0.00013986389
0.00035851068
-0.0001342087
0.00042242442
-0.00012724844
0.00048222178
-0.00011905361
0.0005373242
-0.00010970691
0.00058720032
-9.9302241e-05
0.00063137106
-8.7943682e-05
0.00066941415
-7.5744317e-05
0.00070096804
-6.2825029e-05
0.00072573519
-4.9313238e-05
0.00074348466
-3.5341589e-05
0.00075405412
-2.1046623e-05
0.00075735106
-6.5674223e-06
0.0007533534
7.955756e-06
0.00074210937
2.2382949e-05
0.00072373688
3.6575797e-05
0.00069842175
5.0398596e-05
0.00066641582
6.3720062e-05
0.00062803419
7.641434e-05
0.00058365184
8.8362165e-05
0.00053369978
9.9451949e-05
0.00047866072
0.00010958074
0.00041906431
0.00011865509
0.00035548197
0.00012659177
0.00028852146
0.00013331837
0.00021882117
0.00013877388
0.00014704422
0.00014290901
7.3872394e-05
0.00014568655
0.00014708157
-7.4889173e-05
0.00022197074
-0.00014906831
0.00021986569
-0.00022183372
0.00021567442
-0.00029249434
0.0002094345
-0.00036037802
0.00020120205
-0.0004248376
0.00019105134
-0.00048525693
0.00017907443
-0.00054105666
0.00016538047
-0.00059169973
0.00015009502
-0.00063669664
0.00013335908
-0.00067561029
0.00011532799
-0.00070806039
9.6170164e-05
-0.0007337274
7.6065605e-05
-0.00075235591
5.5204305e-05
-0.00076375745
3.3784484e-05
-0.00076781248
1.2010793e-05
-0.00076447208
-9.9078223e-06
-0.00075375864
-3.1760069e-05
-0.00073576592
-5.3334303e-05
-0.00071065851
-7.4420648e-05
-0.00067867048
-9.4813062e-05
-0.00064010341
-0.00011431138
-0.00059532376
-0.00013272333
-0.00054475953
-0.00014986648
-0.0004888963
-0.00016557013
-0.00042827271
-0.00017967721
-0.00036347523
-0.00019204591
-0.00029513253
-0.00020255139
-0.00022390925
-0.00021108717
-0.00015049935
-0.00021756643
-7.5619147e-05
-0.0002219231
1.4044352e-14
-0.00022411263
7.5619147e-05
-0.00022411263
0.00015049935
-0.0002219231
0.00022390925
-0.00021756643
0.00029513253
-0.00021108717
0.00036347523
-0.00020255139
0.00042827271
-0.00019204591
0.0004888963
-0.00017967721
0.00054475953
-0.00016557013
0.00059532376
-0.00014986648
0.00064010341
-0.00013272333
0.00067867048
-0.00011431138
0.00071065851
-9.4813062e-05
0.00073576592
-7.4420648e-05
0.00075375864
-5.3334303e-05
0.00076447208
-3.1760069e-05
0.00076781248
-9.9078223e-06
0.00076375745
1.2010793e-05
0.00075235591
3.3784484e-05
0.0007337274
5.5204305e-05
0.00070806039
7.6065605e-05
0.00067561029
9.6170164e-05
0.00063669664
0.00011532799
0.00059169973
0.00013335908
0.00054105666
0.00015009502
0.00048525693
0.00016538047
0.0004248376
0.00017907443
0.00036037802
0.00019105134
0.00029249434
0.00020120205
0.00022183372
0.0002094345
0.00014906831
0.00021567442
7.4889173e-05
0.00021986569
0.00022197074
-7.6287384e-05
0.00029825812
-0.00015185167
0.00029542998
-0.00022597621
0.00028979895
-0.00029795717
0.00028141546
-0.00036710991
0.00027035479
-0.0004327752
0.00025671664
-0.00049432534
0.00024062456
-0.00055117001
0.00022222514
-0.00060276198
0.00020168698
-0.0006486024
0.0001791995
-0.00068824583
0.00015497142
-0.00072130469
0.00012922903
-0.00074745337
0.00010221428
-0.0007664316
7.4182537e-05
-0.00077804736
4.5400247e-05
-0.00078217898
1.6142411e-05
-0.00077877667
-1.3310128e-05
-0.00076786335
-4.2673397e-05
-0.00074953462
-7.1663027e-05
-0.00072395822
-9.9997053e-05
-0.0006913726
-0.00012739868
-0.00065208496
-0.00015359902
-0.00060646853
-0.00017833977
-0.00055495917
-0.00020137583
-0.00049805145
-0.00022247786
-0.0004362939
-0.00024143475
-0.00037028389
-0.00025805592
-0.0003006618
-0.00027217349
-0.00022810467
-0.00028364429
-0.00015331955
-0.00029235156
-7.7036251e-05
-0.00029820639
1.3348454e-14
-0.00030114888
7.7036251e-05
-0.00030114888
0.00015331955
-0.00029820639
0.00022810467
-0.00029235156
0.0003006618
-0.00028364429
0.00037028389
-0.00027217349
0.0004362939
-0.00025805592
0.00049805145
-0.00024143475
0.00055495917
-0.00022247786
0.00060646853
-0.00020137583
0.00065208496
-0.00017833977
0.0006913726
-0.00015359902
0.00072395822
-0.00012739868
0.00074953462
-9.9997053e-05
0.00076786335
-7.1663027e-05
0.00077877667
-4.2673397e-05
0.00078217898
-1.3310128e-05
0.00077804736
1.6142411e-05
0.0007664316
4.5400247e-05
0.00074745337
7.4182537e-05
0.00072130469
0.00010221428
0.00068824583
0.00012922903
0.0006486024
0.00015497142
0.00060276198
0.0001791995
0.00055117001
0.00020168698
0.00049432534
0.00022222514
0.0004327752
0.00024062456
0.00036710991
0.00025671664
0.00029795717
0.00027035479
0.00022597621
0.00028141546
0.00015185167
0.00028979895
7.6287384e-05
0.00029542998
0.00029825812
-7.8089421e-05
0.00037634755
-0.0001554389
0.00037277945
-0.00023131505
0.0003656751
-0.00030499757
0.00035509798
-0.00037578571
0.00034114293
-0.00044300466
0.00032393559
-0.00050601176
0.00030363167
-0.00056420259
0.00028041596
-0.00061701672
0.00025450112
-0.00066394329
0.00022612607
-0.00070452604
0.00019555417
-0.00073836805
0.00016307104
-0.00076513586
0.00012898208
-0.000784563
9.3609679e-05
-0.00079645295
5.7290202e-05
-0.00080068132
2.0370778e-05
-0.00079719735
-1.6794104e-05
-0.00078602469
-5.3846051e-05
-0.00076726146
-9.0426258e-05
-0.0007410795
-0.00012617901
-0.00070772303
-0.00016075516
-0.0006675065
-0.00019381555
-0.00062081189
-0.00022503438
-0.00056808524
-0.00025410247
-0.00050983261
-0.0002807305
-0.00044661533
-0.00030465204
-0.00037904471
-0.00032562654
-0.00030777614
-0.00034344206
-0.00023350267
-0.00035791777
-0.00015694806
-0.00036890617
-7.8859504e-05
-0.00037629495
1.2714832e-14
-0.00038000838
7.8859504e-05
-0.00038000838
0.00015694806
-0.00037629495
0.00023350267
-0.00036890617
0.00030777614
-0.00035791777
0.00037904471
-0.00034344206
0.00044661533
-0.00032562654
0.00050983261
-0.00030465204
0.00056808524
-0.0002807305
0.00062081189
-0.00025410247
0.0006675065
-0.00022503438
0.00070772303
-0.00019381555
0.0007410795
-0.00016075516
0.00076726146
-0.00012617901
0.00078602469
-9.0426258e-05
0.00079719735
-5.3846051e-05
0.00080068132
-1.6794104e-05
0.00079645295
2.0370778e-05
0.000784563
5.7290202e-05
0.00076513586
9.3609679e-05
0.00073836805
0.00012898208
0.00070452604
0.00016307104
0.00066394329
0.00019555417
0.00061701672
0.00022612607
0.00056420259
0.00025450112
0.00050601176
0.00028041596
0.00044300466
0.00030363167
0.00037578571
0.00032393559
0.00030499757
0.00034114293
0.00023131505
0.00035509798
0.0001554389
0.0003656751
7.8089421e-05
0.00037277945
0.00037634755
-8.0314244e-05
0.00045666179
-0.00015986775
0.00045233296
-0.00023790649
0.00044371384
-0.00031368981
0.0004308813
-0.00038649707
0.00041395019
-0.00045563419
0.0003930727
-0.00052044003
0.00036843751
-0.00058029268
0.00034026862
-0.00063461542
0.00030882387
-0.00068288245
0.0002743931
-0.00072462416
0.00023729588
-0.00075943204
0.00019787892
-0.00078696292
0.00015651296
-0.00080694272
0.00011358948
-0.00081916943
6.9516905e-05
-0.00082351533
2.4716681e-05
-0.00081992858
-2.0380857e-05
-0.00080843389
-6.5340735e-05
-0.00078913256
-0.00010972759
-0.00076220164
-0.00015310993
-0.00072789252
-0.00019506428
-0.0006865287
-0.00023517937
-0.00063850299
-0.00027306009
-0.00058427398
-0.00030833147
-0.00052436192
-0.00034064256
-0.00045934387
-0.00036967009
-0.00038984833
-0.00039512208
-0.00031654916
-0.00041674122
-0.00024015906
-0.00043430787
-0.0001614224
-0.00044764283
-8.1107751e-05
-0.00045660959
1.2182529e-14
-0.00046111614
8.1107751e-05
-0.00046111614
0.0001614224
-0.00045660959
0.00024015906
-0.00044764283
0.00031654916
-0.00043430787
0.00038984833
-0.00041674122
0.00045934387
-0.00039512208
0.00052436192
-0.00036967009
0.00058427398
-0.00034064256
0.00063850299
-0.00030833147
0.0006865287
-0.00027306009
0.00072789252
-0.00023517937
0.00076220164
-0.00019506428
0.00078913256
-0.00015310993
0.00080843389
-0.00010972759
0.00081992858
-6.5340735e-05
0.00082351533
-2.0380857e-05
0.00081916943
2.4716681e-05
0.00080694272
6.9516905e-05
0.00078696292
0.00011358948
0.00075943204
0.00015651296
0.00072462416
0.00019787892
0.00068288245
0.00023729588
0.00063461542
0.0002743931
0.00058029268
0.00030882387
0.00052044003
0.00034026862
0.00045563419
0.00036843751
0.00038649707
0.0003930727
0.00031368981
0.00041395019
0.00023790649
0.0004308813
0.00015986775
0.00044371384
8.0314244e-05
0.00045233296
0.00045666179
-8.2981888e-05
0.00053964368
-0.00016517814
0.00053452922
-0.00024581
0.0005243457
-0.00032411244
0.00050918374
-0.00039934097
0.00048917872
-0.00047077836
0.0004645101
-0.00053774132
0.00043540046
-0.00059958687
0.00040211417
-0.00065571869
0.00036495569
-0.00070559297
0.00032426738
-0.00074872402
0.00028042693
-0.00078468933
0.00023384422
-0.00081313409
0.00018495773
-0.00083377507
0.00013423046
-0.00084640368
8.2145517e-05
-0.00085088836
2.9201366e-05
-0.00084717607
-2.4093148e-05
-0.00083529296
-7.7223845e-05
-0.00081534429
-0.00012967627
-0.00078751351
-0.0001809407
-0.00075206074
-0.00023051705
-0.00070932042
-0.00027791969
-0.00065969839
-0.00032268212
-0.0006036683
-0.00036436156
-0.00054176737
-0.00040254349
-0.00047459148
-0.00043684597
-0.00040278965
-0.00046692392
-0.00032705784
-0.00049247303
-0.00024813221
-0.0005132335
-0.00016678179
-0.00052899325
-8.3800696e-05
-0.00053959069
1.16194e-14
-0.00054491683
8.3800696e-05
-0.00054491683
0.00016678179
-0.00053959069
0.00024813221
-0.00052899325
0.00032705784
-0.0005132335
0.00040278965
-0.00049247303
0.00047459148
-0.00046692392
0.00054176737
-0.00043684597
0.0006036683
-0.00040254349
0.00065969839
-0.00036436156
0.00070932042
-0.00032268212
0.00075206074
-0.00027791969
0.00078751351
-0.00023051705
0.00081534429
-0.0001809407
0.00083529296
-0.00012967627
0.00084717607
-7.7223845e-05
0.00085088836
-2.4093148e-05
0.00084640368
2.9201366e-05
0.00083377507
8.2145517e-05
0.00081313409
0.00013423046
0.00078468933
0.00018495773
0.00074872402
0.00023384422
0.00070559297
0.00028042693
0.00065571869
0.00032426738
0.00059958687
0.00036495569
0.00053774132
0.00040211417
0.00047077836
0.00043540046
0.00039934097
0.0004645101
0.00032411244
0.00048917872
0.00024581
0.00050918374
0.00016517814
0.0005243457
8.2981888e-05
0.00053452922
0.00053964368
-8.6120448e-05
0.00062576413
-0.00017142604
0.00061983481
-0.00025510899
0.00060802865
-0.00033637562
0.00059045037
-0.00041445339
0.00056725649
-0.00048859787
0.00053865458
-0.00055809958
0.00050490217
-0.00062229074
0.00046630533
-0.00068055179
0.00042321674
-0.00073231763
0.00037603321
-0.00077708346
0.00032519276
-0.0008144102
0.00027117097
-0.00084392925
0.00021447678
-0.00086534655
0.00015564775
-0.00087844586
9.5244826e-05
-0.00088309117
3.3846677e-05
-0.0008792282
-2.7956119e-05
-0.00086688501
-8.9567039e-05
-0.00084617175
-0.00015038953
-0.00081727964
-0.0002098328
-0.00078047925
-0.00026731745
-0.00073611798
-0.00032228096
-0.00068461711
-0.00037418299
-0.00062646801
-0.00042251067
-0.00056222784
-0.00046678366
-0.00049251455
-0.00050655926
-0.00041800121
-0.00054143726
-0.00033940967
-0.00057106456
-0.00025750362
-0.00059513955
-0.00017308098
-0.0006134159
-8.6965842e-05
-0.00062570582
1.0894204e-14
-0.00063188267
8.6965842e-05
-0.00063188267
0.00017308098
-0.00062570582
0.00025750362
-0.0006134159
0.00033940967
-0.00059513955
0.00041800121
-0.00057106456
0.00049251455
-0.00054143726
0.00056222784
-0.00050655926
0.00062646801
-0.00046678366
0.00068461711
-0.00042251067
0.00073611798
-0.00037418299
0.00078047925
-0.00032228096
0.00081727964
-0.00026731745
0.00084617175
-0.0002098328
0.00086688501
-0.00015038953
0.0008792282
-8.9567039e-05
0.00088309117
-2.7956119e-05
0.00087844586
3.3846677e-05
0.00086534655
9.5244826e-05
0.00084392925
0.00015564775
0.0008144102
0.00021447678
0.00077708346
0.00027117097
0.00073231763
0.00032519276
0.00068055179
0.00037603321
0.00062229074
0.00042321674
0.00055809958
0.00046630533
0.00048859787
0.00050490217
0.00041445339
0.00053865458
0.00033637562
0.00056725649
0.00025510899
0.00059045037
0.00017142604
0.00060802865
8.6120448e-05
0.00061983481
0.00062576413
-8.9775838e-05
0.00071553996
-0.0001787029
0.00070876187
-0.00026593968
0.00069526543
-0.00035065922
0.00067516991
-0.00043205636
0.00064865363
-0.00050935493
0.00061595316
-0.00058181494
0.00057736218
-0.00064873957
0.00053322996
-0.00070948202
0.00048395919
-0.00076345218
0.00043000337
-0.00081012279
0.00037186337
-0.00084903524
0.00031008342
-0.00087980469
0.00024524623
-0.0009021244
0.00017796747
-0.00091576924
0.00010888967
-0.00092059816
3.8675593e-05
-0.00091655567
-3.1998612e-05
-0.00090367234
-0.00010245036
-0.00088206438
-0.00017199749
-0.00085193238
-0.00023996481
-0.00081355929
-0.00030569054
-0.00076730788
-0.00036853237
-0.00071361746
-0.00042787341
-0.00065300008
-0.00048312805
-0.00058603609
-0.00053374765
-0.00051336906
-0.0005792263
-0.00043569994
-0.00061910638
-0.00035378061
-0.00065298389
-0.00026840667
-0.00068051349
-0.00018040957
-0.000701413
-9.0648195e-05
-0.0007154672
9.9033679e-15
-0.00072253087
9.0648195e-05
-0.00072253087
0.00018040957
-0.0007154672
0.00026840667
-0.000701413
0.00035378061
-0.00068051349
0.00043569994
-0.00065298389
0.00051336906
-0.00061910638
0.00058603609
-0.0005792263
0.00065300008
-0.00053374765
0.00071361746
-0.00048312805
0.00076730788
-0.00042787341
0.00081355929
-0.00036853237
0.00085193238
-0.00030569054
0.00088206438
-0.00023996481
0.00090367234
-0.00017199749
0.00091655567
-0.00010245036
0.00092059816
-3.1998612e-05
0.00091576924
3.8675593e-05
0.0009021244
0.00010888967
0.00087980469
0.00017796747
0.00084903524
0.00024524623
0.00081012279
0.00031008342
0.00076345218
0.00037186337
0.00070948202
0.00043000337
0.00064873957
0.00048395919
0.00058181494
0.00053322996
0.00050935493
0.00057736218
0.00043205636
0.00061595316
0.00035065922
0.00064865363
0.00026593968
0.00067516991
0.0001787029
0.00069526543
8.9775838e-05
0.00070876187
0.00071553996
-9.4024547e-05
0.00080956451
-0.00018716105
0.00080189837
-0.00027852896
0.00078663334
-0.00036726274
0.0007639037
-0.00045251938
0.00073391027
-0.00053348584
0.00069691962
-0.00060938657
0.0006532629
-0.00067949081
0.0006033342
-0.00074311992
0.0005475883
-0.00079965438
0.00048653782
-0.00084854049
0.00042074948
-0.00088929662
0.00035083955
-0.00092151878
0.00027746838
-0.00094488535
0.00020133404
-0.00095916087
0.00012316518
-0.00096419858
4.3713303e-05
-0.00095994193
-3.6255262e-05
-0.00094642485
-0.00011596744
-0.00092377105
-0.00019465128
-0.00089219244
-0.00027154342
-0.00085198682
-0.00034589615
-0.00080353504
-0.00041698415
-0.00074729755
-0.0004841109
-0.00068381049
-0.00054661511
-0.00061368112
-0.00060387702
-0.00053758263
-0.00065532479
-0.00045624828
-0.00070044073
-0.00037046464
-0.00073876752
-0.00028106423
-0.0007699139
-0.00018891729
-0.00079355995
-9.4922959e-05
-0.00080946153
8.6520386e-15
-0.00081745383
9.4922959e-05
-0.00081745383
0.00018891729
-0.00080946153
0.00028106423
-0.00079355995
0.00037046464
-0.0007699139
0.00045624828
-0.00073876752
0.00053758263
-0.00070044073
0.00061368112
-0.00065532479
0.00068381049
-0.00060387702
0.00074729755
-0.00054661511
0.00080353504
-0.0004841109
0.00085198682
-0.00041698415
0.00089219244
-0.00034589615
0.00092377105
-0.00027154342
0.00094642485
-0.00019465128
0.00095994193
-0.00011596744
0.00096419858
-3.6255262e-05
0.00095916087
4.3713303e-05
0.00094488535
0.00012316518
0.00092151878
0.00020133404
0.00088929662
0.00027746838
0.00084854049
0.00035083955
0.00079965438
0.00042074948
0.00074311992
0.00048653782
0.00067949081
0.0005475883
0.00060938657
0.0006033342
0.00053348584
0.0006532629
0.00045251938
0.00069691962
0.00036726274
0.00073391027
0.00027852895
0.0007639037
0.00018716105
0.00078663334
9.4024547e-05
0.00080189837
0.00080956451
-9.8989443e-05
0.00090855395
-0.00019704516
0.00089995409
-0.00029324119
0.00088282936
-0.00038666707
0.00085732957
-0.00047643563
0.00082367883
-0.0005616908
0.00078217479
-0.00064161536
0.00073318746
-0.00071543874
0.00067715758
-0.00078244474
0.00061459431
-0.00084197908
0.00054607216
-0.00089345667
0.00047222707
-0.0009363685
0.00039375139
-0.00097028781
0.0003113877
-0.00099487536
0.00022592159
-0.0010098835
0.00013817336
-0.0010151592
4.898894e-05
-0.0010106449
-4.0769548e-05
-0.00099637914
-0.0001302332
-0.00097249506
-0.00021853536
-0.00093921844
-0.00030482004
-0.00089686497
-0.00038824962
-0.00084583702
-0.0004680121
-0.00078661998
-0.00054332794
-0.00071977818
-0.00061345691
-0.00064595028
-0.00067770493
-0.00056584398
-0.00073543109
-0.00048023002
-0.00078605468
-0.00038993535
-0.00082906219
-0.00029583534
-0.0008640139
-0.00019884534
-0.00089054996
-9.99113e-05
-0.00090839556
7.1843793e-15
-0.00091736513
9.99113e-05
-0.00091736513
0.00019884534
-0.00090839556
0.00029583534
-0.00089054996
0.00038993535
-0.0008640139
0.00048023002
-0.00082906219
0.00056584398
-0.00078605468
0.00064595028
-0.00073543109
0.00071977818
-0.00067770493
0.00078661998
-0.00061345691
0.00084583702
-0.00054332794
0.00089686497
-0.0004680121
0.00093921844
-0.00038824962
0.00097249506
-0.00030482004
0.00099637914
-0.00021853536
0.0010106449
-0.0001302332
0.0010151592
-4.0769548e-05
0.0010098835
4.898894e-05
0.00099487536
0.00013817336
0.00097028781
0.00022592159
0.0009363685
0.0003113877
0.00089345667
0.00039375139
0.00084197908
0.00047222707
0.00078244474
0.00054607216
0.00071543874
0.00061459431
0.00064161536
0.00067715758
0.0005616908
0.00073318746
0.00047643563
0.00078217479
0.00038666707
0.00082367883
0.00029324119
0.00085732957
0.00019704516
0.00088282936
9.8989443e-05
0.00089995409
0.00090855395
-0.00010485826
0.0010134122
-0.00020872906
0.0010038249
-0.00031063299
0.00098473329
-0.0004096067
0.00095630328
-0.000504711
0.00091878313
-0.00059503894
0.00087250273
-0.00067972404
0.00081787256
-0.00075794842
0.00075538197
-0.00082895111
0.00068559699
-0.00089203618
0.00060915723
-0.00094658083
0.00052677172
-0.00099204299
0.00043921355
-0.0010279684
0.00034731311
-0.0010539966
0.00025194978
-0.0010698655
0.00015404229
-0.0010754147
5.4538077e-05
-0.0010705862
-4.5597973e-05
-0.0010554249
-0.00014539458
-0.0010300757
-0.00024388449
-0.00099478192
-0.00034011385
-0.00094988097
-0.00043315057
-0.00089580121
-0.00052209186
-0.0008330578
-0.00060607135
-0.0007622485
-0.0006842662
-0.000684049
-0.00075590443
-0.00059920762
-0.00082027247
-0.00050853919
-0.00087672312
-0.00041291802
-0.00092468336
-0.00031326992
-0.00096366201
-0.00021056318
-0.00099325669
-0.00010579881
-0.0010131599
5.5567764e-15
-0.0010231639
0.00010579881
-0.0010231639
0.00021056318
-0.0010131599
0.00031326992
-0.00099325669
0.00041291802
-0.00096366201
0.00050853919
-0.00092468336
0.00059920762
-0.00087672312
0.000684049
-0.00082027247
0.0007622485
-0.00075590443
0.0008330578
-0.0006842662
0.00089580121
-0.00060607135
0.00094988097
-0.00052209186
0.00099478192
-0.00043315057
0.0010300757
-0.00034011385
0.0010554249
-0.00024388449
0.0010705862
-0.00014539458
0.0010754147
-4.5597973e-05
0.0010698655
5.4538077e-05
0.0010539966
0.00015404229
0.0010279684
0.00025194978
0.00099204299
0.00034731311
0.00094658083
0.00043921355
0.00089203618
0.00052677172
0.00082895111
0.00060915723
0.00075794842
0.00068559699
0.00067972404
0.00075538197
0.00059503894
0.00081787256
0.000504711
0.00087250273
0.0004096067
0.00091878313
0.00031063299
0.00095630328
0.00020872906
0.00098473329
0.00010485826
0.0010038249
0.0010134122
-0.00011190366
0.0011253159
-0.00022275567
0.0011146769
-0.00033151273
0.0010934904
-0.00043714827
0.0010619388
-0.00053866082
0.0010202957
-0.00063508253
0.00096892444
-0.00072548769
0.00090827772
-0.00080900143
0.00083889572
-0.0008848086
0.00076140415
-0.00095216263
0.00067651126
-0.0010103946
0.00058500366
-0.0010589218
0.00048774079
-0.0010972562
0.00038564751
-0.0011250112
0.00027970476
-0.0011419072
0.00017093832
-0.0011477752
6.0406078e-05
-0.0011425577
-5.0815499e-05
-0.0011263077
-0.00016164457
-0.0010991861
-0.00027100605
-0.0010614579
-0.00037784204
-0.0010134878
-0.00048112067
-0.00095573597
-0.00057984373
-0.00088875357
-0.00067305375
-0.00081317862
-0.00075984115
-0.00072973119
-0.00083935186
-0.00063920811
-0.00091079555
-0.00054247686
-0.00097345437
-0.00044046831
-0.0010266919
-0.00033416838
-0.0010699619
-0.0002246086
-0.0011028165
-0.00011285562
-0.0011249129
3.929432e-15
-0.0011360196
0.00011285562
-0.0011360196
0.0002246086
-0.0011249129
0.00033416838
-0.0011028165
0.00044046831
-0.0010699619
0.00054247686
-0.0010266919
0.00063920811
-0.00097345437
0.00072973119
-0.00091079555
0.00081317862
-0.00083935186
0.00088875357
-0.00075984115
0.00095573597
-0.00067305375
0.0010134878
-0.00057984373
0.0010614579
-0.00048112067
0.0010991861
-0.00037784204
0.0011263077
-0.00027100605
0.0011425577
-0.00016164457
0.0011477752
-5.0815499e-05
0.0011419072
6.0406078e-05
0.0011250112
0.00017093832
0.0010972562
0.00027970476
0.0010589218
0.00038564751
0.0010103946
0.00048774079
0.00095216263
0.00058500366
0.0008848086
0.00067651126
0.00080900143
0.00076140415
0.00072548769
0.00083889572
0.00063508253
0.00090827772
0.00053866082
0.00096892444
0.00043714827
0.0010202957
0.00033151273
0.0010619388
0.00022275567
0.0010934904
0.00011190366
0.0011146769
0.0011253159
-0.00012050286
0.0012458187
-0.00023987604
0.0012340501
-0.00035699861
0.0012106129
-0.00047076711
0.0011757073
-0.00058010438
0.001129633
-0.00068396839
0.0010727884
-0.00078136121
0.0010056705
-0.00087133825
0.00092887276
-0.00095301774
0.00084308364
-0.0010255906
0.0007490841
-0.0010883304
0.00064774353
-0.001140604
0.00054001435
-0.0011818806
0.00042692411
-0.001211741
0.00030956512
-0.0012298838
0.0001890812
-0.00123613
6.665226e-05
-0.0012304233
-5.6522236e-05
-0.0012128284
-0.00017923946
-0.001183527
-0.0003003075
-0.001142812
-0.00041855695
-0.0010910827
-0.00053285003
-0.0010288386
-0.00064208785
-0.00095667535
-0.00074521696
-0.0008752802
-0.00084123631
-0.00078542717
-0.00092920489
-0.00068797208
-0.0010082506
-0.0005838463
-0.0010775801
-0.00047404937
-0.0011364888
-0.0003596402
-0.0011843711
-0.00024172704
-0.0012207296
-0.00012145622
-0.0012451837
2.3694913e-15
-0.0012574758
0.00012145622
-0.0012574758
0.00024172704
-0.0012451837
0.0003596402
-0.0012207296
0.00047404937
-0.0011843711
0.0005838463
-0.0011364888
0.00068797208
-0.0010775801
0.00078542717
-0.0010082506
0.0008752802
-0.00092920489
0.00095667535
-0.00084123631
0.0010288386
-0.00074521696
0.0010910827
-0.00064208785
0.001142812
-0.00053285003
0.001183527
-0.00041855695
0.0012128284
-0.0003003075
0.0012304233
-0.00017923946
0.00123613
-5.6522236e-05
0.0012298838
6.665226e-05
0.001211741
0.0001890812
0.0011818806
0.00030956512
0.001140604
0.00042692411
0.0010883304
0.00054001435
0.0010255906
0.00064774353
0.00095301774
0.0007490841
0.00087133825
0.00084308364
0.00078136121
0.00092887276
0.00068396839
0.0010056705
0.00058010438
0.0010727884
0.00047076711
0.001129633
0.00035699861
0.0011757073
0.00023987604
0.0012106129
0.00012050286
0.0012340501
0.0012458187
-0.00013115335
0.0013769721
-0.00026108069
0.0013639774
-0.00038856527
0.0013380975
-0.00051240881
0.0012995509
-0.00063144073
0.0012486649
-0.00074452743
0.0011858752
-0.00085058175
0.0011117249
-0.00094857266
0.0010268637
-0.0010375355
0.00093204649
-0.0011165829
0.00082813147
-0.0011849162
0.00071607682
-0.0012418376
0.00059693581
-0.0012867624
0.00047184889
-0.0013192294
0.0003420321
-0.0013389098
0.00020876163
-0.0013456123
7.3354714e-05
-0.0013392833
-6.2851227e-05
-0.0013200039
-0.00019851884
-0.0012879834
-0.00033232804
-0.0012435514
-0.00046298894
-0.0011871508
-0.00058925065
-0.001119331
-0.00070990761
-0.0010407431
-0.0008238049
-0.00095213497
-0.0009298444
-0.00085434748
-0.0010269924
-0.00074830911
-0.001114289
-0.00063503006
-0.0011908592
-0.00051559451
-0.0012559244
-0.0003911514
-0.0013088142
-0.00026290353
-0.0013489775
-0.00013209542
-0.0013759918
6.0894218e-16
-0.0013895712
0.00013209542
-0.0013895712
0.00026290353
-0.0013759918
0.0003911514
-0.0013489775
0.00051559451
-0.0013088142
0.00063503006
-0.0012559244
0.00074830911
-0.0011908592
0.00085434748
-0.001114289
0.00095213497
-0.0010269924
0.0010407431
-0.0009298444
0.001119331
-0.0008238049
0.0011871508
-0.00070990761
0.0012435514
-0.00058925065
0.0012879834
-0.00046298894
0.0013200039
-0.00033232804
0.0013392833
-0.00019851884
0.0013456123
-6.2851227e-05
0.0013389098
7.3354714e-05
0.0013192294
0.00020876163
0.0012867624
0.0003420321
0.0012418376
0.00047184889
0.0011849162
0.00059693581
0.0011165829
0.00071607682
0.0010375355
0.00082813147
0.00094857266
0.00093204649
0.00085058175
0.0010268637
0.00074452743
0.0011117249
0.00063144073
0.0011858752
0.00051240881
0.0012486649
0.00038856527
0.0012995509
0.00026108069
0.0013380975
0.00013115335
0.0013639774
0.0013769721
-0.00014447972
0.0015214518
-0.00028761321
0.0015071109
-0.00042806414
0.0014785484
-0.00056451596
0.0014360027
-0.00069568168
0.0013798306
-0.00082031364
0.0013105071
-0.00093721339
0.0012286246
-0.0010452419
0.0011348922
-0.0011433306
0.0010301352
-0.0012304932
0.00091529406
-0.0013058392
0.00079142275
-0.0013685881
0.00065968478
-0.0014180852
0.00052134595
-0.0014538151
0.00037776197
-0.0014754136
0.00023036014
-0.0014826743
8.0615395e-05
-0.0014755486
-6.9976868e-05
-0.0014541404
-0.00021992701
-0.0014186961
-0.00036777244
-0.0013695932
-0.00051209182
-0.0013073309
-0.00065151296
-0.0012325216
-0.00078471684
-0.0011458858
-0.00091044073
-0.0010482474
-0.0010274828
-0.00094053013
-0.0011347096
-0.00082375328
-0.0012310659
-0.00069902524
-0.0013155872
-0.00056753584
-0.0013874138
-0.00043054626
-0.0014458038
-0.00028937728
-0.0014901465
-0.00014539576
-0.0015199734
-1.5406482e-15
-0.001534967
0.00014539576
-0.001534967
0.00028937728
-0.0015199734
0.00043054626
-0.0014901465
0.00056753584
-0.0014458038
0.00069902524
-0.0013874138
0.00082375328
-0.0013155872
0.00094053013
-0.0012310659
0.0010482474
-0.0011347096
0.0011458858
-0.0010274828
0.0012325216
-0.00091044073
0.0013073309
-0.00078471684
0.0013695932
-0.00065151296
0.0014186961
-0.00051209182
0.0014541404
-0.00036777244
0.0014755486
-0.00021992701
0.0014826743
-6.9976868e-05
0.0014754136
8.0615396e-05
0.0014538151
0.00023036014
0.0014180852
0.00037776197
0.0013685881
0.00052134595
0.0013058392
0.00065968478
0.0012304932
0.00079142275
0.0011433306
0.00091529406
0.0010452419
0.0010301352
0.00093721339
0.0011348922
0.00082031364
0.0012286246
0.00069568168
0.0013105071
0.00056451596
0.0013798306
0.00042806414
0.0014360027
0.00028761321
0.0014785484
0.00014447972
0.0015071109
0.0015214518
-0.00016122491
0.0016826767
-0.00032095272
0.0016668387
-0.00047769718