/*--------------------------------*- C++ -*----------------------------------*\
| =========                 |                                                 |
| \\      /  F ield         | OpenFOAM: The Open Source CFD Toolbox           |
|  \\    /   O peration     | Version:  2106                                  |
|   \\  /    A nd           | Website:  www.openfoam.com                      |
|    \\/     M anipulation  |                                                 |
\*---------------------------------------------------------------------------*/
FoamFile
{
    version     2.0;
    format      ascii;
    arch        "LSB;label=32;scalar=64";
    class       surfaceScalarField;
    location    "0.021";
    object      phi;
}
// * * * * * * * * * * * * * * * * * * * * * * * * * * * * * * * * * * * * * //

dimensions      [0 3 -1 0 0 0 0];

oriented        oriented;

internalField   nonuniform List<scalar> 
1984
(
0.00069888776
-0.00069891091
0.001371183
-0.00067229525
0.0019912355
-0.00062005244
0.0025353627
-0.00054412728
0.002982716
-0.00044735325
0.0033160702
-0.00033335425
0.0035224881
-0.0002064179
0.0035938335
-7.1345328e-05
0.0035271134
6.6720052e-05
0.003324624
0.00020248937
0.0029938814
0.00033074268
0.0025474428
0.00044643856
0.0020023976
0.00054504519
0.001379736
0.00062266162
0.0007035381
0.0006761979
2.4232301e-08
0.00070351386
-0.00070349062
0.00070351485
-0.0013796914
0.00067620081
-0.0020023577
0.00062266632
-0.0025474092
0.00054505148
-0.0029938554
0.00044644616
-0.0033246066
0.00033075124
-0.0035271052
0.00020249852
-0.0035938346
6.672941e-05
-0.0035224984
-7.1336145e-05
-0.0033160892
-0.00020640924
-0.0029827428
-0.00033334641
-0.0025353963
-0.00044734649
-0.0019912745
-0.00054412182
-0.001371226
-0.00062004843
-0.00069893324
-0.0006722928
-0.00069891009
0.00074495702
-0.0014438921
0.0014615755
-0.0013889137
0.0021225219
-0.0012809989
0.0027025595
-0.0011241649
0.0031794702
-0.00092426395
0.0035348959
-0.00068878003
0.003755044
-0.000426566
0.0038312298
-0.00014753113
0.0037602419
0.00013770803
0.003544494
0.00041823724
0.0031920115
0.00068322518
0.0027161333
0.0009223168
0.0021350649
0.0011261135
0.0014711856
0.001286541
0.00075018032
0.0013972032
2.5411743e-08
0.0014536688
-0.00075013053
0.0014536708
-0.0014711388
0.0013972091
-0.0021350231
0.0012865506
-0.0027160981
0.0011261264
-0.0031919843
0.00092233239
-0.0035444758
0.00068324276
-0.0037602333
0.00041825602
-0.0038312311
0.0001377272
-0.0037550549
-0.00014751234
-0.0035349159
-0.0004265483
-0.0031794983
-0.00068876402
-0.0027025946
-0.00092425017
-0.0021225627
-0.0011241537
-0.0014616204
-0.0012809907
-0.00074500452
-0.0013889087
-0.0014438904
0.00082667806
-0.0022705961
0.0016219052
-0.0021841409
0.0023553512
-0.0020144448
0.0029990164
-0.0017678301
0.0035282567
-0.0014535042
0.0039227139
-0.0010832373
0.0041670933
-0.00067094534
0.0042517582
-0.00023219604
0.0041731288
0.00021633741
0.0039338603
0.00065750568
0.0035428176
0.0010742679
0.0030147739
0.0014503605
0.0023699098
0.0017709776
0.0016330573
0.0020233935
0.00083273695
0.0021975235
2.748795e-08
0.0022863782
-0.0008326831
0.0022863814
-0.0016330067
0.0021975328
-0.0023698646
0.0020234085
-0.003014736
0.0017709978
-0.0035427884
0.0014503848
-0.0039338409
0.0010742953
-0.0041731198
0.00065753489
-0.0042517598
0.00021636718
-0.0041671052
-0.00023216692
-0.0039227356
-0.00067091794
-0.003528287
-0.0010832126
-0.0029990542
-0.001453483
-0.002355395
-0.0017678129
-0.0016219535
-0.0020144322
-0.00082672901
-0.0021841332
-0.0022705935
0.00094901737
-0.003219642
0.001861905
-0.0030970285
0.0027038316
-0.0028563714
0.0034426567
-0.0025066552
0.0040501101
-0.0020609576
0.0045028561
-0.0015359832
0.0047833745
-0.00095146376
0.0048806279
-0.00032944944
0.0047905079
0.00030645736
0.0045160305
0.00093198307
0.0040673144
0.001522984
0.0034612686
0.0020564064
0.002721022
0.0025112242
0.001875069
0.0028693465
0.00095616641
0.003116426
3.0639855e-08
0.003242514
-0.00095610639
0.0032425184
-0.0018750127
0.003116439
-0.0027209718
0.0028693676
-0.0034612265
0.0025112525
-0.0040672822
0.0020564405
-0.0045160093
0.0015230224
-0.0047904984
0.00093202396
-0.0048806301
0.00030649892
-0.0047833881
-0.0003294089
-0.0045028803
-0.00095142574
-0.0040501439
-0.001535949
-0.0034426987
-0.0020609282
-0.0027038801
-0.0025066316
-0.0018619582
-0.0028563541
-0.00094907346
-0.0030970179
-0.0032196385
0.001120027
-0.0043397012
0.0021973525
-0.004174354
0.0031908311
-0.0038498499
0.0040625264
-0.0033783506
0.0047791106
-0.0027775418
0.005313115
-0.0020699876
0.0056439487
-0.0012822975
0.0057586546
-0.00044415533
0.0056524123
0.00041269965
0.005328743
0.0012556524
0.00479951
0.002052217
0.0040845841
0.0027713322
0.003211195
0.0033846134
0.0022129404
0.0038676011
0.001128489
0.0042008774
3.5055504e-08
0.004370968
-0.0011284203
0.0043709738
-0.002212876
0.0042008947
-0.0032111376
0.0038676292
-0.0040845363
0.0033846511
-0.0047994735
0.0027713778
-0.0053287193
0.0020522682
-0.0056524021
0.0012557067
-0.0057586578
0.00041275466
-0.0056439648
-0.00044410193
-0.005313143
-0.0012822476
-0.0047791492
-0.0020699428
-0.004062574
-0.0027775034
-0.0031908858
-0.0033783197
-0.0021974125
-0.0038498274
-0.0011200902
-0.0041743403
-0.0043396966
0.0013526599
-0.0056923979
0.0026536281
-0.0054753221
0.0038531337
-0.0050493556
0.0049053435
-0.0044305604
0.0057700652
-0.0036422635
0.0064142523
-0.0027141748
0.0068132014
-0.0016812465
0.0069514065
-0.00058236046
0.0068231224
0.00054098376
0.0064325649
0.00164621
0.0057939536
0.0026908283
0.004931156
0.0036341299
0.0038769486
0.0044388207
0.0026718475
0.0050727022
0.0013625463
0.0055101786
4.0966121e-08
0.0057334733
-0.0013624661
0.0057334809
-0.0026717724
0.005510201
-0.0038768817
0.0050727386
-0.0049311003
0.0044388697
-0.0057939116
0.003634189
-0.006432538
0.0026908947
-0.0068231115
0.0016462802
-0.0069514112
0.00054105441
-0.0068132209
-0.00058229229
-0.0064142853
-0.0016811831
-0.0057701101
-0.0027141179
-0.0049053986
-0.003642215
-0.0038531968
-0.0044305215
-0.002653697
-0.0050493272
-0.0013527324
-0.0054753049
-0.0056923921
0.001666585
-0.0073590257
0.0032692736
-0.0070780107
0.0047466029
-0.0065266849
0.0060420603
-0.0057260177
0.0071062058
-0.004706409
0.0078985246
-0.0035064935
0.008388855
-0.002171577
0.008558348
-0.00075185349
0.0084000828
0.00069924898
0.0079192376
0.0021270552
0.0071331988
0.0034768671
0.0060711957
0.004696133
0.0047734574
0.0057365591
0.0032898021
0.0065563575
0.0016777192
0.0071222614
4.865111e-08
0.0074111438
-0.0016776239
0.0074111534
-0.0032897127
0.0071222898
-0.004773378
0.0065564039
-0.0060711299
0.0057366217
-0.0071331496
0.0046962088
-0.0079192069
0.0034769519
-0.0084000712
0.0021271444
-0.0085583549
0.00069933812
-0.0083888789
-0.00075176825
-0.007898564
-0.002171498
-0.007106259
-0.0035064229
-0.006042125
-0.0047063489
-0.0047466769
-0.0057259696
-0.003269354
-0.0065266501
-0.0016666693
-0.0070779896
-0.0073590186
0.0020874545
-0.0094465304
0.004094561
-0.0090851172
0.0059441161
-0.00837624
0.0075652528
-0.0073471544
0.008896134
-0.0060372903
0.0098862856
-0.0044966451
0.010498337
-0.0027836279
0.010709084
-0.00096260133
0.010510142
0.00089819173
0.0099080443
0.0027291525
0.0089244416
0.0044604697
0.0075957518
0.0060248228
0.0059721831
0.0073601278
0.0041159895
0.0084125511
0.0020990698
0.0091391811
5.8402711e-08
0.0095101553
-0.0020989553
0.0095101671
-0.004115882
0.0091392165
-0.0059720875
0.0084126094
-0.0075956729
0.007360207
-0.0089243833
0.0060249192
-0.009908009
0.0044605776
-0.01051013
0.002729265
-0.010709094
0.00089830287
-0.010498366
-0.00096249641
-0.0098863332
-0.0027835311
-0.0088961976
-0.0044965585
-0.0075653298
-0.0060372167
-0.0059442036
-0.0073470959
-0.0040946558
-0.0083761978
-0.0020875536
-0.0090850919
-0.009446522
0.0026395419
-0.012086132
0.0051770768
-0.011622652
0.0075146964
-0.01071386
0.0095626544
-0.0093951124
0.011242809
-0.0077174447
0.012491627
-0.0057454631
0.013262358
-0.0035543589
0.01352622
-0.0012264636
0.013273057
0.0011513548
0.012511318
0.0034908917
0.011268346
0.005703441
0.0095900766
0.0077030927
0.0075398617
0.0094103426
0.0051962466
0.010756166
0.0026499231
0.011685505
7.0443562e-08
0.012160008
-0.0026497847
0.012160022
-0.0051961162
0.011685548
-0.0075397455
0.010756239
-0.0095899809
0.0094104424
-0.011268277
0.0077032151
-0.012511277
0.005703578
-0.013273045
0.003491033
-0.013526234
0.0011514922
-0.013262394
-0.0012263365
-0.012491684
-0.0035542415
-0.011242885
-0.0057453575
-0.0095627464
-0.0077173552
-0.0075148006
-0.0093950417
-0.0051771893
-0.010713809
-0.0026396591
-0.011622622
-0.012086122
0.0033266903
-0.015412892
0.0065244106
-0.014820372
0.0094694886
-0.013658938
0.012048631
-0.011974255
0.014163269
-0.0098320829
0.01573349
-0.0073156838
0.016700812
-0.0045216803
0.017029554
-0.0015552058
0.016707563
0.0014733455
0.015745891
0.0044525635
0.014179244
0.0072700885
0.012065645
0.0098166916
0.0094850047
0.011990983
0.0065361644
0.013705006
0.0033330396
0.014888629
8.4823185e-08
0.015492963
-0.0033328724
0.01549298
-0.0065360056
0.014888681
-0.0094848623
0.013705095
-0.012065528
0.011991108
-0.01417916
0.0098168475
-0.015745846
0.0072702635
-0.016707554
0.0044527409
-0.017029576
0.001473514
-0.016700856
-0.0015550557
-0.015733558
-0.0045215396
-0.01416336
-0.0073155553
-0.012048741
-0.0098319744
-0.0094696131
-0.01197417
-0.0065245443
-0.013658878
-0.0033268287
-0.014820338
-0.015412881
0.0040980967
-0.01951107
0.0080371302
-0.018759406
0.011664677
-0.017286484
0.014841017
-0.015150595
0.017444363
-0.012435429
0.019375944
-0.0092472648
0.020563697
-0.005709433
0.020964086
-0.0019555948
0.020562948
0.0018744838
0.019374597
0.0056409142
0.017442546
0.0092021395
0.014838916
0.012420322
0.011662653
0.015167246
0.0080354855
0.017332174
0.0040971718
0.018826943
1.0135207e-07
0.019590033
-0.0040969709
0.019590052
-0.0080352921
0.018827002
-0.011662477
0.017332281
-0.014838772
0.015167402
-0.017442447
0.012420522
-0.019374549
0.0092023663
-0.020562946
0.0056411372
-0.02096412
0.0018746886
-0.02056375
-0.0019554257
-0.019376024
-0.0057092663
-0.017444472
-0.0092471072
-0.014841148
-0.012435298
-0.011664825
-0.015150493
-0.0080372878
-0.017286415
-0.0040982579
-0.018759368
-0.019511057
0.004803034
-0.024314194
0.0094200041
-0.023376376
0.01367274
-0.021539221
0.017397552
-0.018875407
0.020451133
-0.01548901
0.022715908
-0.01151204
0.024105978
-0.0070995024
0.024570968
-0.0024205857
0.024095095
0.0023503576
0.022695982
0.0070400271
0.020426006
0.011472116
0.017371188
0.01547514
0.013648809
0.018889625
0.0094017428
0.02157924
0.0047930714
0.023435614
1.195694e-07
0.024382985
-0.0047928317
0.024383003
-0.0094015063
0.023435677
-0.01364859
0.021579365
-0.01737101
0.018889822
-0.02042589
0.015475402
-0.022695942
0.011472418
-0.024095114
0.0070403088
-0.024571028
0.0023506029
-0.024106036
-0.0024204175
-0.022715996
-0.0070993061
-0.02045126
-0.011511843
-0.017397707
-0.015488852
-0.013672914
-0.018875286
-0.0094201857
-0.021539143
-0.0048032151
-0.023376338
-0.024314183
0.005156095
-0.029470381
0.010113682
-0.028333963
0.014682908
-0.026108446
0.018688172
-0.022880671
0.021974004
-0.018774841
0.024411377
-0.013949414
0.025907151
-0.0085952765
0.026406152
-0.0029195864
0.025889811
0.0028666979
0.024379412
0.0085504265
0.021932728
0.0139188
0.018644507
0.018763361
0.014643523
0.022890608
0.010083781
0.026138982
0.0051396732
0.028379722
1.3841468e-07
0.02952252
-0.0051393902
0.029522532
-0.010083489
0.028379776
-0.014643246
0.026139122
-0.018644285
0.022890861
-0.021932601
0.018763718
-0.024379409
0.013919227
-0.025889884
0.0085507836
-0.026406268
0.0028669866
-0.025907199
-0.0029194868
-0.024411464
-0.0085950404
-0.02197415
-0.013949157
-0.018688348
-0.018774654
-0.014683107
-0.022880528
-0.010113884
-0.026108365
-0.0051562853
-0.028333937
-0.029470376
0.0047639035
-0.034234369
0.0093473827
-0.032917442
0.013577176
-0.030338239
0.01729144
-0.026594936
0.020345185
-0.021828585
0.022614159
-0.016218388
0.02400706
-0.0099881774
0.024470988
-0.003383514
0.02398818
0.0033495057
0.02258081
0.0099577964
0.020304616
0.016194994
0.017250866
0.021817111
0.013541713
0.026599761
0.0093208249
0.030359871
0.0047491843
0.032951363
1.5546272e-07
0.034271549
-0.0047488553
0.034271542
-0.0093204586
0.032951379
-0.013541353
0.030360016
-0.017250594
0.026600102
-0.020304505
0.021817629
-0.022580919
0.016195642
-0.023988376
0.00995824
-0.024471208
0.0033498185
-0.024007044
-0.003383651
-0.022614211
-0.0099878728
-0.020345328
-0.01621804
-0.017291617
-0.021828365
-0.013577397
-0.026594748
-0.0093476025
-0.03033816
-0.0047640877
-0.032917452
-0.034234378
0.0033003322
-0.037534775
0.0064847948
-0.036101905
0.0094287825
-0.033282227
0.012021012
-0.029187165
0.014160815
-0.023968388
0.015753283
-0.017810857
0.016729803
-0.010964698
0.017058534
-0.0037122444
0.016722983
0.0036850564
0.015741139
0.010939641
0.014144196
0.017791937
0.012001627
0.02395968
0.0094102535
0.029191134
0.0064713002
0.033298824
0.0032948384
0.036127825
1.6694738e-07
0.03756622
-0.0032944709
0.03756618
-0.0064708522
0.03612776
-0.0094098105
0.033298974
-0.012001356
0.029191648
-0.014144203
0.023960476
-0.015741502
0.01779294
-0.016723385
0.010940123
-0.017058846
0.0036852794
-0.016729611
-0.0037128861
-0.01575324
-0.010964244
-0.014160865
-0.017810415
-0.012021095
-0.023968135
-0.0094290104
-0.029186832
-0.0064850385
-0.033282132
-0.0033005037
-0.036101987
-0.037534808
0.00096389538
-0.038498734
0.001894314
-0.037032323
0.0027534529
-0.034141366
0.0035065399
-0.029940252
0.004128335
-0.024590183
0.0045797245
-0.018262246
0.0048343553
-0.011219328
0.0049128234
-0.0037907125
0.004805036
0.0037928438
0.0045252017
0.011219475
0.0040554633
0.018261675
0.0034257354
0.024589408
0.0026775921
0.029939277
0.0018355721
0.034140844
0.00093142841
0.037031968
1.5373672e-07
0.038497495
-0.00093109791
0.038497432
-0.0018351655
0.037031828
-0.002677243
0.034141052
-0.003425703
0.029940108
-0.0040557293
0.024590502
-0.0045258488
0.01826306
-0.004805558
0.011219832
-0.0049128621
0.0037925834
-0.0048339961
-0.003791752
-0.0045797655
-0.011218474
-0.0041281619
-0.018262019
-0.0035063432
-0.024589954
-0.002753628
-0.029939547
-0.0018945458
-0.034141214
-0.00096403746
-0.037032495
-0.038498782
-0.00090929067
-0.037589381
-0.0017919083
-0.036149706
-0.0026142661
-0.033319008
-0.003345483
-0.029209035
-0.003961174
-0.023974492
-0.0044203535
-0.017803067
-0.0046935257
-0.010946156
-0.0047981418
-0.0036860964
-0.0047208941
0.0037155961
-0.0044726674
0.010971248
-0.0040319445
0.017820952
-0.0034246507
0.023982114
-0.0026893867
0.029204013
-0.0018502372
0.033301694
-0.0009413242
0.036123055
-1.4472346e-07
0.037556315
0.00094101315
0.037556274
0.0018498514
0.03612299
0.0026890551
0.033301848
0.0034246258
0.029204537
0.0040322026
0.023982925
0.0044733108
0.017821951
0.0047214012
0.010971742
0.0047981624
0.0037158222
0.0046931689
-0.0036867585
0.0044203805
-0.010945686
0.0039609815
-0.01780262
0.0033452757
-0.023974248
0.002614437
-0.029208709
0.0017921387
-0.033318916
0.00090943091
-0.036149787
-0.037589413
-0.003271769
-0.034317543
-0.0064260252
-0.032995449
-0.0093445404
-0.030400493
-0.011918128
-0.026635448
-0.014046106
-0.021846515
-0.015632217
-0.016216955
-0.016607157
-0.0099712159
-0.016939635
-0.003353619
-0.016612423
0.0033883843
-0.015642557
0.010001383
-0.014061238
0.016239633
-0.011936409
0.021857285
-0.0093624144
0.026630018
-0.0064390822
0.030378362
-0.0032769926
0.032960966
-1.6780955e-07
0.034279491
0.0032766233
0.034279483
0.0064386327
0.03296098
0.0093619716
0.030378509
0.011936142
0.026630366
0.014061254
0.021857814
0.015642921
0.016240284
0.016612823
0.01000184
0.016939947
0.0033886975
0.016606954
-0.0033537655
0.01563217
-0.0099709016
0.014046156
-0.016216605
0.011918208
-0.0218463
0.0093447617
-0.026635263
0.0064262609
-0.030400415
0.0032719323
-0.032995459
-0.034317551
-0.0047241259
-0.029593334
-0.0092718048
-0.02844777
-0.013470614
-0.026201683
-0.017160468
-0.022945594
-0.020198453
-0.01880853
-0.022463043
-0.013952366
-0.023863253
-0.0085710059
-0.024343422
-0.0028734494
-0.023881754
0.0029267159
-0.022496191
0.0086158202
-0.020239173
0.013982615
-0.017201419
0.018819531
-0.013506546
0.022935145
-0.0092987869
0.026170603
-0.004739201
0.02840138
-1.5660232e-07
0.029540446
0.0047388691
0.029540457
0.0092984166
0.028401433
0.013506182
0.026170744
0.017201145
0.022935403
0.020239064
0.018819895
0.0224963
0.013983049
0.023881954
0.0086161862
0.024343643
0.0029270084
0.023863227
-0.0028733501
0.022463092
-0.0085707663
0.020198595
-0.013952108
0.017160641
-0.018808345
0.013470831
-0.022945453
0.0092720194
-0.026201603
0.0047243054
-0.028447745
-0.029593328
-0.0051115492
-0.024481693
-0.010028831
-0.023530489
-0.014563909
-0.021666605
-0.018543387
-0.018966117
-0.021814108
-0.015537808
-0.024247946
-0.011518528
-0.025750568
-0.0070683834
-0.026264401
-0.0023596168
-0.025768331
0.0024306463
-0.024280894
0.0071283826
-0.021856884
0.011558605
-0.018588818
0.015551465
-0.014605015
0.018951343
-0.010060143
0.021625731
-0.0051289153
0.023470152
-1.3936747e-07
0.02441167
0.00512863
0.024411688
0.010059848
0.023470215
0.014604735
0.021625858
0.018588594
0.018951543
0.021856757
0.015551732
0.024280892
0.011558914
0.025768407
0.0071286708
0.026264519
0.0024308971
0.025750615
-0.0023594464
0.024248033
-0.0070681842
0.021814255
-0.01151833
0.018543561
-0.015537651
0.014564105
-0.018965998
0.010029031
-0.021666529
0.0051117374
-0.023530451
-0.024481682
-0.0047604323
-0.019721171
-0.0093379676
-0.018952953
-0.01355645
-0.017448123
-0.017253944
-0.015268622
-0.020288551
-0.012503202
-0.02254374
-0.0092633392
-0.023933995
-0.0056781284
-0.024407225
-0.0018863866
-0.023945892
0.0019693135
-0.022565607
0.0057480977
-0.020316302
0.0093093003
-0.017283213
0.012518376
-0.013583136
0.015251266
-0.009358439
0.017401034
-0.0047717761
0.018883489
-1.2035071e-07
0.019640014
0.0047715346
0.019640033
0.0093582004
0.018883549
0.013582916
0.017401142
0.017283034
0.015251425
0.020316186
0.01251858
0.022565569
0.0093095319
0.023945913
0.0057483261
0.024407288
0.0019695229
0.023934055
-0.0018862133
0.022543829
-0.0056779589
0.020288679
-0.0092631804
0.017254099
-0.01250307
0.013556622
-0.015268521
0.0093381482
-0.017448055
0.0047606123
-0.018952916
-0.01972116
-0.0040578509
-0.01566324
-0.0079586071
-0.015052197
-0.011551312
-0.013855418
-0.014697583
-0.012122351
-0.01727686
-0.0099239246
-0.019191107
-0.0073490919
-0.020368832
-0.0045004038
-0.020766865
-0.0014883529
-0.020370951
0.0015733993
-0.019195016
0.0045721629
-0.017282067
0.0073963507
-0.014703413
0.0099397222
-0.011556851
0.012104704
-0.0079630405
0.013807223
-0.0040604543
0.014980903
-1.0191975e-07
0.015579662
0.0040602521
0.015579679
0.0079628456
0.014980955
0.011556674
0.013807313
0.014703268
0.012104831
0.017281967
0.0099398811
0.019194969
0.0073965297
0.020370951
0.0045723447
0.020766901
0.001573572
0.020368887
-0.0014881988
0.019191188
-0.0045002603
0.01727697
-0.0073489617
0.014697715
-0.0099238156
0.01155146
-0.012122266
0.0079587644
-0.013855359
0.0040580117
-0.015052163
-0.015663229
-0.0032839891
-0.012379181
-0.0064401928
-0.011895993
-0.0093459708
-0.01094964
-0.011889117
-0.0095792054
-0.013972246
-0.0078407952
-0.015516594
-0.0058047437
-0.016464935
-0.0035520626
-0.016783001
-0.0011702872
-0.016459802
0.0012502
-0.015507198
0.0036195592
-0.013960228
0.0058493806
-0.011876433
0.0078559269
-0.0093345166
0.0095627877
-0.0064316365
0.010904343
-0.0032795171
0.011828784
-8.5146675e-08
0.01230023
0.0032793492
0.012300245
0.0064314769
0.011828828
0.0093343734
0.010904417
0.011876315
0.0095628894
0.013960144
0.007856052
0.015507153
0.005849521
0.016459793
0.0036197043
0.016783024
0.0012503411
0.016464982
-0.0011701566
0.015516664
-0.0035519424
0.013972339
-0.0058046363
0.011889228
-0.0078407047
0.0093460956
-0.0095791343
0.0064403265
-0.01094959
0.0032841272
-0.011895964
-0.012379171
-0.0025875827
-0.0097915393
-0.0050741948
-0.0094093813
-0.0073629813
-0.0086608539
-0.0093654148
-0.007576772
-0.011004802
-0.0062014077
-0.012219256
-0.0045902902
-0.012963873
-0.002807445
-0.013211884
-0.00092227672
-0.012954938
0.00099325359
-0.012202835
0.0028674563
-0.010983562
0.004630108
-0.0093426837
0.0062150486
-0.0073422042
0.0075623081
-0.005058461
0.0086205999
-0.002579186
0.0093495085
-7.0517409e-08
0.0097211145
0.0025790475
0.0097211266
0.0050583304
0.0093495447
0.0073420876
0.0086206595
0.0093425877
0.0075623893
0.010983492
0.0062151475
0.012202794
0.0046302189
0.012954926
0.0028675722
0.013211899
0.00099336818
0.012963911
-0.00092216846
0.012219314
-0.0028073453
0.011004879
-0.0045902015
0.0093655074
-0.0062013327
0.0073630857
-0.0075767126
0.0050743071
-0.0086608113
0.0025876994
-0.0094093558
-0.0097915309
-0.0020208365
-0.007770653
-0.0039627474
-0.0074674705
-0.0057500226
-0.0068735787
-0.0073134688
-0.0060133258
-0.0085931555
-0.004921721
-0.0095407258
-0.0036427198
-0.010121077
-0.0022270932
-0.010313295
-0.0007300587
-0.01011103
0.00079098817
-0.0095222312
0.0022786575
-0.0085691374
0.0036770142
-0.0072876487
0.00493356
-0.0057263269
0.0060009863
-0.0039447321
0.0068390051
-0.002011174
0.0074159505
-5.8242889e-08
0.0077099987
0.0020110598
0.0077100086
0.0039446248
0.0074159797
0.0057262314
0.0068390529
0.0072875699
0.0060010508
0.0085690792
0.0049336382
0.0095221961
0.003677102
0.010111018
0.0022787499
0.010313306
0.00079108056
0.010121108
-0.00072997027
0.009540774
-0.0022270115
0.0085932195
-0.003642647
0.0073135459
-0.0049216591
0.0057501098
-0.0060132765
0.0039628416
-0.006873543
0.0020209348
-0.007467449
-0.0077706458
-0.0015850837
-0.0061855271
-0.0031082825
-0.0059442717
-0.0045102129
-0.0054716483
-0.0057365766
-0.004786962
-0.0067403082
-0.0039179895
-0.0074833859
-0.0028996421
-0.0079381643
-0.0017723148
-0.0080881741
-0.00058004889
-0.0079284666
0.00063128066
-0.0074655094
0.0018157002
-0.00671704
0.0029285448
-0.0057115014
0.0039280213
-0.0044871494
0.0047766343
-0.003090712
0.0054425678
-0.0015756392
0.0059008777
-4.8307918e-08
0.0061344078
0.0015755446
0.0061344157
0.0030906233
0.005900901
0.0044870704
0.0054426058
0.0057114359
0.0047766854
0.0067169911
0.0039280831
0.0074654789
0.0029286141
0.0079284553
0.0018157736
0.0080881813
0.00063135453
0.0079381886
-0.00057997755
0.0074834256
-0.0017722485
0.0067403614
-0.0028995828
0.0057366412
-0.0039179389
0.0045102862
-0.0047869216
0.0031083621
-0.0054716189
0.001585167
-0.0059442539
-0.0061855211
-0.0012661768
-0.004919314
-0.0024829558
-0.0047274927
-0.0036029161
-0.004351688
-0.0045826702
-0.0038072079
-0.0053845698
-0.0031160899
-0.005978155
-0.0023060569
-0.0063412406
-0.0014092292
-0.006460598
-0.00046069155
-0.006332291
0.0005029737
-0.005961639
0.0014450483
-0.0053630327
0.0023299384
-0.0045594149
0.0031244035
-0.0035814881
0.0037987075
-0.0024666059
0.0043276855
-0.0012573758
0.0046916476
-4.0581048e-08
0.0048770726
0.0012572963
0.0048770788
0.0024665313
0.004691666
0.0035814217
0.0043277153
0.0045593596
0.0037987475
0.0053629909
0.0031244517
0.0059616124
0.0023299926
0.0063322802
0.0014451057
0.0064606029
0.00050303191
0.0063412602
-0.00046063493
0.0059781881
-0.0014091763
0.0053846146
-0.0023060094
0.004582725
-0.0031160493
0.0036029787
-0.0038071752
0.002483024
-0.0043516642
0.0012662483
-0.0047274782
-0.0049193091
-0.0010537139
-0.0038655681
-0.0020663368
-0.0037148697
-0.0029984088
-0.0034196161
-0.0038138084
-0.0029918083
-0.0044811657
-0.0024487326
-0.0049750709
-0.0018121517
-0.0052769948
-0.0011073053
-0.0053758897
-0.00036179662
-0.0052685174
0.00039560133
-0.0049594058
0.0011359366
-0.0044607076
0.0018312403
-0.0037916854
0.0024553813
-0.0029779966
0.0029850187
-0.0020507439
0.0034004328
-0.0010453114
0.0036862151
-3.5089575e-08
0.0038317963
0.0010452427
0.0038318011
0.0020506794
0.0036862292
0.0029779391
0.0034004556
0.0037916373
0.0029850493
0.004460671
0.0024554181
0.004959382
0.0018312816
0.0052685072
0.0011359805
0.0053758931
0.00039564606
0.0052770112
-0.00036175304
0.0049750992
-0.0011072643
0.0044812046
-0.0018121148
0.0038138562
-0.0024487008
0.0029984636
-0.0029917827
0.0020663968
-0.0034195974
0.0010537769
-0.0037148583
-0.0038655642
-0.00095368108
-0.0029118591
-0.0018701848
-0.002798366
-0.0027138025
-0.0025759984
-0.0034518289
-0.0022537819
-0.0040558375
-0.001844724
-0.0045027795
-0.0013652097
-0.0047758447
-0.00083424007
-0.0048650571
-0.00027258419
-0.0047675556
0.00029809979
-0.0044874664
0.00085584747
-0.0040358393
0.0013796132
-0.0034301991
0.0018497411
-0.0026938391
0.0022486587
-0.0018549283
0.002561522
-0.0009454544
0.0027767412
-2.9758338e-08
0.0028863716
0.00094539606
0.0028863752
0.0018548735
0.0027767518
0.0026937899
0.0025615392
0.0034301577
0.0022486815
0.0040358073
0.0018497685
0.0044874452
0.0013796437
0.004767546
0.0008558797
0.0048650594
0.00029813269
0.0047758581
-0.00027255175
0.0045028033
-0.00083420951
0.0040558706
-0.0013651821
0.0034518701
-0.0018447002
0.00271385
-0.0022537626
0.0018702369
-0.0025759843
0.00095373597
-0.0027983574
-0.0029118562
-0.00092034603
-0.0019914842
-0.0018048144
-0.0019138976
-0.0026189388
-0.001761874
-0.0033311493
-0.0015415714
-0.0039140021
-0.0012618712
-0.0043452427
-0.00093396905
-0.0046086303
-0.00057085245
-0.0046944496
-0.00018676489
-0.0045999617
0.00020361182
-0.004329239
0.00058512477
-0.0038931032
0.00094347735
-0.003308546
0.0012651839
-0.0025980772
0.0015381899
-0.0017888714
0.0017523162
-0.00091174865
0.0018996184
-3.0607764e-08
0.0019746536
0.00091168868
0.0019746559
0.0017888151
0.0018996254
0.0025980269
0.0017523274
0.0033085037
0.0015382047
0.0038930706
0.0012652016
0.0043292173
0.00094349694
0.0045999518
0.00058514523
0.0046944514
0.00020363308
0.0046086438
-0.00018674414
0.0043452669
-0.00057083265
0.003914036
-0.00093395115
0.0033311914
-0.0012618557
0.0026189876
-0.0015415588
0.0018048681
-0.0017618648
0.00092040262
-0.0019138919
-0.0019914823
-0.0010462077
-0.00094525253
-0.0020516471
-0.00090845813
-0.0029771601
-0.00083636103
-0.0037868516
-0.00073187991
-0.0044494932
-0.00059922963
-0.0049397282
-0.00044373404
-0.0052390126
-0.00027156805
-0.0053364962
-8.9281221e-05
-0.0052300279
9.7143515e-05
-0.0049231166
0.00027821349
-0.0044278049
0.00044816563
-0.0037633929
0.00060077186
-0.0029555039
0.00073030092
-0.0020350908
0.00083190314
-0.0010372723
0.00090179998
-2.4351333e-08
0.00093740563
0.0010372245
0.00093740705
0.0020350457
0.00090180421
0.0029554631
0.00083190997
0.003763358
0.00073030985
0.0044277773
0.00060078228
0.0049230977
0.00044817657
0.0052300187
0.00027822417
0.005336497
9.7154786e-05
0.0052390227
-8.926985e-05
0.0049397474
-0.00027155728
0.0044495207
-0.00044372446
0.0037868862
-0.00059922126
0.0029772005
-0.00073187307
0.0020516917
-0.00083635601
0.0010462549
-0.00090845507
-0.00094525151
-0.00096852666
-0.0018993984
-0.0027564104
-0.0035063835
-0.0041204525
-0.0045752024
-0.0048535412
-0.0049450935
-0.0048456576
-0.0045606554
-0.0041014629
-0.0034858494
-0.0027374625
-0.0018849241
-0.00096073277
-4.0386625e-08
0.00096065375
0.0018848503
0.0027373971
0.0034857951
0.0041014217
0.0045606282
0.0048456444
0.0049450952
0.0048535578
0.0045752332
0.0041204961
0.0035064383
0.0027564743
0.0018994689
0.00096860131
)
;

boundaryField
{
    leftWall
    {
        type            cyclic;
        value           nonuniform List<scalar> 
32
(
2.3153893e-08
2.417414e-08
2.5924486e-08
2.8527141e-08
3.2102776e-08
3.6792136e-08
4.2770374e-08
5.0236532e-08
5.9338564e-08
6.9934705e-08
8.1044072e-08
9.0009048e-08
9.2306996e-08
8.484451e-08
7.3620044e-08
6.3647271e-08
-6.1961752e-08
-6.9802457e-08
-8.2902491e-08
-9.139801e-08
-8.9542597e-08
-8.0765414e-08
-6.9692801e-08
-5.9031779e-08
-4.9815326e-08
-4.2252136e-08
-3.6301853e-08
-3.2028894e-08
-2.7914548e-08
-2.8794825e-08
-2.4055235e-08
-3.8011225e-08
)
;
    }
    rightWall
    {
        type            cyclic;
        value           nonuniform List<scalar> 
32
(
-2.3153893e-08
-2.417414e-08
-2.5924486e-08
-2.8527141e-08
-3.2102776e-08
-3.6792136e-08
-4.2770374e-08
-5.0236532e-08
-5.9338564e-08
-6.9934705e-08
-8.1044072e-08
-9.0009048e-08
-9.2306996e-08
-8.484451e-08
-7.3620044e-08
-6.3647271e-08
6.1961752e-08
6.9802457e-08
8.2902491e-08
9.139801e-08
8.9542597e-08
8.0765414e-08
6.9692801e-08
5.9031779e-08
4.9815326e-08
4.2252136e-08
3.6301853e-08
3.2028894e-08
2.7914548e-08
2.8794825e-08
2.4055235e-08
3.8011225e-08
)
;
    }
    lowerWall
    {
        type            calculated;
        value           uniform 0;
    }
    atmosphere
    {
        type            calculated;
        value           nonuniform List<scalar> 
32
(
2.331214e-05
2.2413569e-05
2.0651058e-05
1.8093184e-05
1.4839366e-05
1.101584e-05
6.7707711e-06
2.271066e-06
-2.2924571e-06
-6.7886957e-06
-1.1026837e-05
-1.484162e-05
-1.8086013e-05
-2.063526e-05
-2.2391344e-05
-2.3286757e-05
-2.3287084e-05
-2.2392316e-05
-2.0636849e-05
-1.8088174e-05
-1.4844283e-05
-1.1029914e-05
-6.7920739e-06
-2.2960012e-06
2.2675032e-06
6.7673321e-06
1.1012666e-05
1.4836586e-05
1.8090906e-05
2.064937e-05
2.2412531e-05
2.331179e-05
)
;
    }
    defaultFaces
    {
        type            empty;
        value           nonuniform List<scalar> 0();
    }
}


// ************************************************************************* //
