/*--------------------------------*- C++ -*----------------------------------*\
| =========                 |                                                 |
| \\      /  F ield         | OpenFOAM: The Open Source CFD Toolbox           |
|  \\    /   O peration     | Version:  2106                                  |
|   \\  /    A nd           | Website:  www.openfoam.com                      |
|    \\/     M anipulation  |                                                 |
\*---------------------------------------------------------------------------*/
FoamFile
{
    version     2.0;
    format      ascii;
    arch        "LSB;label=32;scalar=64";
    class       volScalarField;
    location    "0.008";
    object      p_rgh;
}
// * * * * * * * * * * * * * * * * * * * * * * * * * * * * * * * * * * * * * //

dimensions      [1 -1 -2 0 0 0 0];

internalField   nonuniform List<scalar> 
4096
(
11.794278
11.679545
11.451187
11.111476
10.663796
10.112597
9.463351
8.7224955
7.8973599
6.9960905
6.0275634
5.001292
3.9273282
2.8161598
1.6786045
0.52568814
-0.63150087
-1.7816656
-2.9138173
-4.0172297
-5.0813135
-6.0959608
-7.0515724
-7.9391332
-8.7502951
-9.4774506
-10.113798
-10.653398
-11.091227
-11.423214
-11.646276
-11.758344
-11.758381
-11.646384
-11.423394
-11.091478
-10.653718
-10.114184
-9.4779003
-8.7508048
-7.9396985
-7.0521886
-6.0966224
-5.0820142
-4.0179629
-2.9145757
-1.7824415
-0.63228636
0.52490127
1.6778245
2.8153948
3.9265862
5.0005806
6.0268897
6.9954611
7.896781
8.7219723
9.4628884
10.112198
10.663466
11.111217
11.451
11.679433
11.79424
11.896671
11.780921
11.550538
11.207818
10.756174
10.200099
9.5451168
8.797723
7.9653158
7.0561164
6.0790824
5.0438141
3.9604543
2.8395846
1.6921179
0.52918432
-0.63798883
-1.7981283
-2.9400754
-4.0529666
-5.1261747
-6.1495055
-7.1132767
-8.0083992
-8.8264574
-9.5597829
-10.20152
-10.745685
-11.187212
-11.522
-11.746942
-11.859955
-11.859992
-11.747052
-11.522181
-11.187464
-10.746007
-10.201909
-9.5602359
-8.8269707
-8.0089688
-7.1138977
-6.1501724
-5.1268812
-4.0537061
-2.9408404
-1.7989111
-0.6387814
0.52839033
1.6913309
2.8388128
3.9597057
5.0430965
6.078403
7.0554818
7.9647321
8.7971957
9.5446505
10.199698
10.755842
11.207557
11.55035
11.780808
11.896633
12.115986
11.998066
11.763364
11.414221
10.954117
10.387634
9.7204024
8.9590452
8.1111037
7.1849583
6.1897392
5.1352305
4.0317687
2.8901358
1.7214497
0.5370512
-0.65161112
-1.8330773
-2.995998
-4.1292715
-5.2220971
-6.2641003
-7.245426
-8.156825
-8.9897349
-9.7363546
-10.389711
-10.943716
-11.39322
-11.734052
-11.963054
-12.078105
-12.078142
-11.963164
-11.734236
-11.393476
-10.944042
-10.390105
-9.736814
-8.9902558
-8.1574033
-7.2460569
-6.2647781
-5.2228156
-4.1300238
-2.9967766
-1.8338743
-0.65241817
0.53624262
1.7206482
2.8893499
4.0310066
5.1345001
6.1890479
7.1843129
8.1105104
8.9585094
9.7199289
10.387227
10.95378
11.413956
11.763173
11.997951
12.115948
12.452225
12.330977
12.089655
11.730668
11.257598
10.675161
9.9891536
9.2063925
8.334639
7.3825167
6.3594201
5.2754156
4.1411359
2.9676705
1.7664525
0.54914295
-0.67248564
-1.8866595
-3.0817235
-4.2462588
-5.3691749
-6.4398187
-7.4480715
-8.3844385
-9.2401318
-10.007146
-10.678328
-11.247431
-11.709175
-12.05928
-12.294509
-12.412688
-12.412726
-12.294622
-12.059468
-11.709436
-11.247764
-10.67873
-10.007615
-9.2406641
-8.3850299
-7.4487172
-6.440513
-5.3699115
-4.2470306
-3.0825227
-1.887478
-0.67331473
0.54831218
1.765629
2.9668631
4.1403533
5.2746659
6.358711
7.381855
8.3340311
9.205844
9.9886691
10.674744
11.257253
11.730397
12.08946
12.33086
12.452185
12.907748
12.781991
12.531695
12.159363
11.668718
11.064658
10.353203
9.541432
8.6374057
7.6500781
6.589202
5.4652263
4.2891856
3.0725867
1.8272902
0.56539041
-0.70090464
-1.9593917
-3.1979935
-4.404875
-5.5685491
-6.6779847
-7.7227064
-8.6928873
-9.5794344
-10.374067
-11.069385
-11.658933
-12.137249
-12.49991
-12.743571
-12.865985
-12.866023
-12.743687
-12.500102
-12.137516
-11.659274
-11.069798
-10.374549
-9.5799819
-8.6934963
-7.723372
-6.6787013
-5.5693101
-4.4056731
-3.1988207
-1.9602394
-0.70176361
0.56452952
1.8264368
3.0717504
4.2883753
5.4644505
6.5884688
7.6493945
8.6367783
9.5408663
10.352703
11.064229
11.668363
12.159085
12.531494
12.78187
12.907708
13.486985
13.355487
13.09377
12.704456
12.191444
11.559865
10.816026
9.967341
9.0222502
7.9901292
6.8811879
5.7063622
4.4771992
3.2057367
1.9043795
0.58577367
-0.73731984
-2.05215
-3.3461011
-4.6068124
-5.8222925
-6.98103
-8.0720967
-9.0852445
-10.010994
-10.840714
-11.566696
-12.182214
-12.68158
-13.06019
-13.31456
-13.442352
-13.442392
-13.314679
-13.060388
-12.681855
-12.182565
-11.567122
-10.841212
-10.01156
-9.0858754
-8.0727873
-6.9817746
-5.8230844
-4.6076439
-3.3469638
-2.0530349
-0.73821698
0.58487431
1.9034881
3.2048633
4.4763535
5.7055533
6.8804241
7.989418
9.0215982
9.9667538
10.815509
11.559421
12.191077
12.704168
13.093563
13.355363
13.486943
14.195574
14.057046
13.781341
13.371227
12.830822
12.165542
11.382046
10.488159
9.4927889
8.4058271
7.2380447
6.0009755
4.7067945
3.3681908
1.9982361
0.61025209
-0.78232353
-2.1660687
-3.5277086
-4.8542415
-6.1330597
-7.3520651
-8.4997775
-9.5654351
-10.539087
-11.411678
-12.175121
-12.822363
-13.347442
-13.745532
-14.012982
-14.147342
-14.147383
-14.013105
-13.745736
-13.347726
-12.822727
-12.175563
-11.412195
-10.539677
-9.5660925
-8.5004984
-7.3528438
-6.1338893
-4.8551139
-3.528615
-2.1669992
-0.78326767
0.60930534
1.9972978
3.3672719
4.7059055
6.000126
7.2372436
8.4050822
9.4921071
10.487546
11.381507
12.16508
12.83044
13.370928
13.781126
14.056917
14.195531
15.040339
14.893417
14.601009
14.166062
13.592952
12.88744
12.056604
11.108762
10.05338
8.9009715
7.6629763
6.3516441
4.9799009
3.561214
2.1094522
0.63874378
-0.83666578
-2.3025538
-3.74486
-5.1498197
-6.5040918
-7.7948806
-9.0100501
-10.138229
-11.168909
-12.092528
-12.900554
-13.585548
-14.141222
-14.562489
-14.845501
-14.987675
-14.987718
-14.845628
-14.5627
-14.141517
-13.585926
-12.901014
-12.093067
-11.169524
-10.138917
-9.0108065
-7.7956995
-6.504966
-5.150741
-3.7458187
-2.3035393
-0.83766648
0.63773996
2.1084575
3.5602405
4.9789599
6.3507462
7.662131
8.9001869
10.052664
11.108118
12.056038
12.886956
13.592553
14.16575
14.600786
14.893282
15.040294
16.029399
15.872631
15.560632
15.096556
14.485088
13.732391
12.84604
11.834931
10.709192
9.48006
8.1597674
6.7614039
5.2987785
3.7862729
2.2386912
0.67110828
-0.90128353
-2.4633235
-4.0000322
-5.4967526
-6.9392871
-8.3140262
-9.6080692
-10.809336
-11.906666
-12.889916
-13.750032
-14.479127
-15.070538
-15.518874
-15.82006
-15.97136
-15.971404
-15.820192
-15.519094
-15.070846
-14.479522
-13.750512
-12.89048
-11.907312
-10.810059
-9.6088664
-8.3148915
-6.9402134
-5.497731
-4.0010524
-2.4643739
-0.90235124
0.67003679
2.2376297
3.7852347
5.2977763
6.7604492
8.1588704
9.4792293
10.708434
11.834253
12.845445
13.731884
14.48467
15.09623
15.560398
15.87249
16.029353
17.172256
17.004084
16.669398
16.171591
15.515707
14.708378
13.757755
12.673411
11.466237
10.148318
8.7328034
7.2337593
5.6660196
4.0450267
2.3866693
0.70711842
-0.97733753
-2.6504531
-4.2961872
-5.8988536
-7.4432674
-8.9148824
-10.299919
-11.585483
-12.75967
-13.811664
-14.731821
-15.51174
-16.144329
-16.623852
-16.945974
-17.107788
-17.107834
-16.946112
-16.624081
-16.144649
-15.512152
-14.732323
-13.812255
-12.760348
-11.586246
-10.300762
-8.9158006
-7.4442534
-5.8998982
-4.2972792
-2.6515795
-0.97848386
0.70596748
2.3855294
4.0439129
5.6649462
7.2327389
8.731847
10.147435
11.465434
12.672694
13.757128
14.707844
15.515268
16.171249
16.669153
17.003937
17.172207
18.479868
18.298614
17.937902
17.401403
16.694573
15.824587
14.80026
13.631944
12.331411
10.911723
9.3870834
7.7726847
6.0845388
4.3393073
2.5541249
0.74642016
-1.0662617
-2.8664331
-4.6368386
-6.3606164
-8.0214555
-9.6037431
-11.092701
-12.474509
-13.73642
-14.866859
-15.855512
-16.693401
-17.37295
-17.888035
-18.234028
-18.407826
-18.407874
-18.234171
-17.888274
-17.373284
-16.693832
-15.856038
-14.86748
-13.737134
-12.475315
-11.093595
-9.6047208
-8.0225094
-6.3617368
-4.6380134
-2.8676477
-1.0674997
0.74517649
2.5528936
4.3381058
6.0833831
7.771589
9.3860595
10.91078
12.330557
13.631183
14.799597
15.824024
16.694111
17.401043
17.937645
18.29846
18.479817
19.964743
19.768587
19.37823
18.797661
18.03281
17.091474
15.983228
14.719316
13.31252
11.77702
10.128227
8.3826184
6.5575542
4.6710878
2.7417746
0.78847709
-1.1698294
-3.114245
-5.0261359
-6.8873077
-8.6801751
-10.387921
-11.994639
-13.485472
-14.846722
-16.065966
-17.13214
-18.035621
-18.768293
-19.323599
-19.696588
-19.883939
-19.883989
-19.696737
-19.323848
-18.768642
-18.03607
-17.132691
-16.066618
-14.847475
-13.486324
-11.99559
-10.388964
-8.6813052
-6.8885142
-5.0274058
-3.1155618
-1.171174
0.7871255
2.7404372
4.6697847
6.5563041
8.381437
10.127127
11.776011
13.311609
14.718508
15.982526
17.090879
18.032324
18.797283
19.37796
19.768426
19.964689
21.641033
21.427994
21.004049
20.373555
19.542981
18.520831
17.31755
15.945399
14.418312
12.75174
10.962471
9.0684458
7.088555
5.0424342
2.9502515
0.83249431
-1.2902425
-3.3974623
-5.4689756
-7.4850865
-9.4267772
-11.275878
-13.015223
-14.628792
-16.101833
-17.420975
-18.574326
-19.551547
-20.343927
-20.944433
-21.347754
-21.550332
-21.550384
-21.347909
-20.944692
-20.344291
-19.552017
-18.574902
-17.421659
-16.102626
-14.629694
-13.016234
-11.276994
-9.4279921
-7.4863904
-5.4703542
-3.3988969
-1.2917108
0.83101718
2.9487909
5.0410141
7.0871969
9.0671674
10.961286
12.750658
14.41734
15.94454
17.316806
18.520203
19.542468
20.373158
21.003766
21.427824
21.640976
23.524636
23.292545
22.830702
22.143878
21.239156
20.125848
18.815386
17.321187
15.658493
13.844199
11.896656
9.835464
7.6812485
5.4554356
3.1800171
0.87731516
-1.430249
-3.7203809
-5.9711435
-8.1611569
-10.269801
-12.277396
-14.165375
-15.916426
-17.514631
-18.945576
-20.196454
-21.256144
-22.11528
-22.766309
-23.203529
-23.423123
-23.423177
-23.203691
-22.766579
-22.115659
-21.256633
-20.197056
-18.946293
-17.515465
-15.917379
-14.166449
-12.27859
-10.271109
-8.1625703
-5.9726464
-3.7219518
-1.4318612
0.87569168
3.1784133
5.4538805
7.6797672
9.8340766
11.895377
13.843038
15.657454
17.320274
18.814599
20.125186
21.238617
22.143461
22.830405
23.292367
23.524577
25.633292
25.379767
24.875291
24.125104
23.136988
21.921171
20.490204
18.858814
17.043729
15.06348
12.938186
10.689324
8.3394802
5.9121037
3.4312419
0.92128328
-1.593298
-4.0881899
-6.5394983
-8.9239622
-11.219175
-13.403783
-15.457663
-17.362083
-19.09984
-20.655378
-22.014891
-23.166406
-24.099847
-24.807098
-25.282033
-25.520555
-25.520611
-25.282201
-24.807378
-24.100241
-23.166915
-22.015519
-20.656127
-19.100715
-17.363088
-15.458803
-13.405059
-11.220585
-8.9254979
-6.5411429
-4.0899186
-1.5950785
0.91948848
3.4294712
5.9103928
8.3378589
10.687814
12.936804
15.062233
17.042621
18.857845
20.489372
21.920473
23.136423
24.124667
24.874981
25.379582
25.633231
27.986673
27.709089
27.15676
26.335462
25.253765
23.922937
22.356798
20.571561
18.585632
16.419393
14.094963
11.635938
9.0671207
6.4142362
3.7036468
0.96206272
-1.7837391
-4.5071876
-7.1822032
-9.7834293
-12.286476
-14.668135
-16.906572
-18.981495
-20.874297
-22.568179
-24.048254
-25.301626
-26.31746
-27.087031
-27.603764
-27.863261
-27.86332
-27.603939
-27.087323
-26.31787
-25.302155
-24.048906
-22.568959
-20.87521
-18.98255
-16.907777
-14.669496
-12.287995
-9.7851004
-7.1840093
-4.5090997
-1.7857173
0.96006596
3.7016806
6.4123451
9.0653406
11.634294
14.093469
16.418056
18.584452
20.570535
22.355922
23.922205
25.253173
26.335005
27.156436
27.708895
27.986609
30.606451
30.301904
29.695953
28.794976
27.608444
26.148796
24.431294
22.473827
20.296703
17.922397
15.375286
12.681359
9.8679124
6.963238
3.9962987
0.99641013
-2.0070719
-4.9850518
-7.9090137
-10.751271
-13.485238
-16.085661
-18.52883
-20.792748
-22.857284
-24.704299
-26.31774
-27.683727
-28.790613
-29.62903
-30.191924
-30.474582
-30.474643
-30.192106
-29.629333
-28.791038
-27.684276
-26.318415
-24.705106
-22.858233
-20.793849
-18.530098
-16.087108
-13.486872
-10.753091
-7.9110036
-4.9871783
-2.0092848
0.99417303
3.9941016
6.9611379
9.8659526
12.679566
15.373674
17.920967
20.295451
22.472745
24.430373
26.14803
27.607825
28.7945
29.695615
30.301702
30.606384
33.51634
33.181611
32.515641
31.525494
30.221655
28.617896
26.731105
24.581075
22.190259
19.583498
16.787719
13.831608
10.745276
7.5598992
4.3073614
1.0198992
-2.2702472
-5.5311642
-8.731623
-11.841351
-14.831334
-17.674073
-20.343804
-22.816683
-25.070936
-27.086982
-28.847532
-30.33766
-31.544863
-32.459098
-33.072813
-33.380965
-33.381028
-33.073004
-32.459414
-31.545305
-30.338229
-28.84823
-27.087815
-25.071914
-22.817823
-20.345126
-17.675599
-14.833083
-11.843331
-8.733822
-5.5335434
-2.272742
1.0173724
4.3048891
7.5575558
10.743114
13.829656
16.785983
19.581975
22.188936
24.579939
26.730143
28.617097
30.221011
31.524999
32.51529
33.181402
33.51627
36.742103
36.373618
35.640524
34.550663
33.115673
31.350834
29.274876
26.909743
24.280315
21.414105
18.340918
15.092487
11.702087
8.2041421
4.6338138
1.0266096
-2.5820062
-6.156978
-9.6640561
-13.070098
-16.343411
-19.454032
-22.373966
-25.077371
-27.540713
-29.742883
-31.665281
-33.291888
-34.609311
-35.606808
-36.276313
-36.612446
-36.612513
-36.276514
-35.60714
-34.609773
-33.292479
-31.666
-29.743736
-27.541712
-25.078535
-22.375326
-19.455624
-16.34527
-13.072248
-9.6664921
-6.1596578
-2.5848451
1.0237276
4.6310094
8.2015147
11.6997
15.090365
18.33906
21.412494
24.278927
26.908556
29.273874
31.350004
33.115004
34.550149
35.640159
36.3734
36.742031
40.311521
39.905302
39.097182
37.895887
36.314359
34.369588
32.082389
29.477137
26.581459
23.425885
20.043468
16.469374
12.740452
8.8947703
4.9711696
1.0088169
-2.9532226
-6.8763935
-10.723078
-14.456949
-18.043355
-21.449641
-24.645391
-27.602625
-30.295935
-32.702599
-34.802652
-36.578944
-38.017164
-39.105862
-39.836453
-40.203216
-40.203287
-39.836668
-39.106216
-38.017652
-36.579561
-34.803395
-32.703469
-30.296944
-27.603796
-24.646766
-21.451273
-18.045307
-14.459269
-10.725781
-6.8794353
-2.95649
1.0054906
4.9679585
8.8918105
12.737817
16.467082
20.041496
23.424196
26.580015
29.475907
32.081351
34.368727
36.313665
37.895353
39.096804
39.905076
40.311446
44.25434
43.805962
42.914028
41.588266
39.843099
37.697449
35.174494
32.301358
29.108769
25.630663
21.903758
17.967096
13.861549
9.6292884
5.313273
0.9567596
-3.3971695
-7.7060668
-11.928547
-16.024736
-19.956721
-23.688901
-27.188257
-30.424522
-33.370318
-36.001238
-38.295908
-40.236021
-41.806343
-42.994714
-43.792033
-44.192245
-44.192323
-43.792267
-42.995097
-41.806867
-40.236675
-38.296681
-36.002125
-33.371325
-30.425676
-27.189608
-23.690531
-19.958726
-16.027213
-11.931546
-7.7095502
-3.4009843
0.95286248
5.3095552
9.6259404
13.858653
17.964644
21.901694
25.628917
29.107283
32.300092
35.173422
37.696557
39.842379
41.587712
42.913635
43.805727
44.254262
48.602257
48.106804
47.121297
45.656599
43.728811
41.359044
38.573143
35.401339
31.877859
28.040478
23.930047
19.589975
15.065678
10.403935
5.6523119
0.85862439
-3.9295703
-8.6655097
-13.303571
-17.799909
-22.112998
-26.204033
-30.037195
-33.579807
-36.802425
-39.678903
-42.18643
-44.305534
-46.020064
-47.317165
-48.187239
-48.623911
-48.623998
-48.187499
-47.317589
-46.020638
-44.30624
-42.187247
-39.679812
-36.803421
-33.580912
-30.03847
-26.205587
-22.114986
-17.802499
-13.306885
-8.6695391
-3.9341059
0.85397033
5.6479504
10.400138
15.062523
19.587399
23.927931
28.038706
31.876348
35.400042
38.572036
41.358118
43.728061
45.656023
47.120889
48.106562
48.602177
53.389052
52.841082
51.7512
50.131561
48.000158
45.380577
42.301671
38.797172
34.905242
30.667979
26.130883
21.342286
16.35275
11.214202
5.979324
0.70101105
-4.5681847
-9.7767473
-14.874243
-19.812336
-24.545494
-29.031422
-33.231322
-37.109986
-40.635829
-43.780928
-46.52102
-48.835474
-50.707247
-52.122816
-53.072119
-53.548484
-53.548582
-53.072414
-52.123297
-50.707894
-48.836259
-46.521906
-43.781877
-40.636812
-37.111008
-33.232445
-29.032792
-24.547341
-19.814946
-14.87787
-9.7814598
-4.5737042
0.69531441
5.9741276
11.209897
16.349374
21.339663
26.128786
30.666227
34.903725
38.795843
42.30052
45.379607
47.999374
50.130961
51.750778
52.840832
53.388971
58.651061
58.044579
56.838441
55.046262
52.688169
49.790529
46.385575
42.510968
38.209281
33.527448
28.516178
23.229349
17.723458
12.056103
6.2855509
0.47027936
-5.3315472
-11.063206
-16.668646
-22.094408
-27.290518
-32.210904
-36.813614
-41.060818
-44.918724
-48.357599
-51.351724
-53.879333
-55.922518
-57.467133
-58.502691
-59.022255
-59.022368
-58.503033
-57.467691
-55.923269
-53.880237
-51.352726
-48.358627
-44.919709
-41.061726
-36.814492
-32.211926
-27.292019
-22.096852
-16.672525
-11.068777
-5.3384653
0.46308219
6.2792504
12.051258
17.719971
23.226824
28.514212
33.525771
38.207765
42.50959
46.384357
49.789498
52.687342
55.045638
56.838008
58.044326
58.650979
64.428243
63.756705
62.421367
60.437489
57.827582
54.621122
50.854121
46.568615
41.812088
36.636834
31.099307
25.259482
19.18089
12.927753
6.564419
0.1549628
-6.2364725
-12.547463
-18.714807
-24.679094
-30.385544
-35.783997
-40.829254
-45.480807
-49.702576
-53.462978
-56.73483
-59.495243
-61.72548
-63.410813
-64.540376
-65.107011
-65.107142
-64.540777
-63.411471
-61.726373
-59.496326
-56.736022
-53.46416
-49.703612
-45.481589
-40.829775
-35.784443
-30.386372
-24.68103
-18.718752
-12.554097
-6.2454677
0.14549733
6.5566384
12.922413
19.177543
25.257311
31.097636
36.635289
41.810557
46.567139
50.852788
54.620001
57.826703
60.436846
62.420934
63.756457
64.428166
70.766224
70.02257
68.544133
66.347997
63.459303
59.910978
55.743218
51.002891
45.74289
40.021378
33.901051
27.448038
20.732872
13.83028
6.8127662
-0.25151134
-7.2941937
-14.247045
-21.036826
-27.596418
-33.865911
-39.790699
-45.322515
-50.418272
-55.039437
-59.152476
-62.728679
-65.74402
-68.178943
-70.018165
-71.250492
-71.868572
-71.868723
-71.250957
-70.018944
-68.180025
-65.74536
-62.730173
-59.153944
-55.040634
-50.418958
-45.322562
-39.790257
-33.865572
-27.597252
-21.040394
-14.254928
-7.3064181
-0.26458691
6.8030066
13.824688
20.730157
27.446643
33.899901
40.020003
45.741267
51.001209
55.741688
59.909728
63.458371
66.347356
68.543727
70.02235
70.766159
77.719818
76.896541
75.260372
72.830361
69.634484
65.709456
61.100062
55.858441
50.043405
43.719569
36.957077
29.830358
22.416144
14.794445
7.0475481
-0.74426385
-8.5041435
-16.165688
-23.64589
-30.866149
-37.758379
-44.263861
-50.331696
-55.916713
-60.977692
-65.47897
-69.390137
-72.685949
-75.34598
-77.35437
-78.699638
-79.374266
-79.374435
-78.700165
-77.355279
-75.347292
-72.687646
-69.392102
-65.480944
-60.979263
-55.917418
-50.331169
-44.262124
-37.756164
-30.864921
-23.648146
-16.174778
-8.5214778
-0.76333092
7.0352215
14.789241
22.414936
29.830393
36.956741
43.71834
50.041499
55.856345
61.098198
65.708033
69.633522
72.829775
75.260049
76.896386
77.719778
85.358334
84.447245
82.638199
79.952175
76.419997
72.082463
66.989301
61.198254
54.774426
47.788973
40.319743
32.449145
24.264682
15.854383
7.3097919
-1.2826003
-9.837629
-18.290608
-26.535504
-34.485723
-42.0683
-49.219378
-55.881442
-62.008267
-67.556079
-72.487235
-76.769371
-80.375862
-83.285248
-85.480995
-86.951362
-87.688674
-87.688847
-86.951922
-85.48201
-83.286811
-80.378025
-76.772045
-72.490072
-67.558413
-62.009266
-55.880296
-49.215795
-42.063225
-34.481068
-26.5348
-18.300203
-9.8633594
-1.3121796
7.2944179
15.850908
24.266374
32.451606
40.320604
47.787735
54.771827
61.195363
66.986898
72.080834
76.419082
79.95176
82.638062
84.447224
85.358342
93.768984
92.76021
90.762895
87.799071
83.901873
79.116395
73.497616
67.109037
60.022294
52.314623
44.072129
35.384926
26.352087
17.073072
7.6539642
-1.8183029
-11.256102
-20.59989
-29.693912
-38.446013
-46.785529
-54.650211
-61.974437
-68.705148
-74.795116
-80.205489
-84.901583
-88.855073
-92.043111
-94.448243
-96.058485
-96.865986
-96.866135
-96.059002
-94.449274
-92.044881
-88.857804
-84.905298
-80.20977
-74.798898
-68.706991
-61.972705
-54.643882
-46.776039
-38.436228
-29.688238
-20.608248
-11.294886
-1.8656854
7.6353487
17.07315
26.358614
35.391529
44.074876
52.312996
60.018168
67.104655
73.494369
79.114586
83.901204
87.799055
90.763126
92.760431
93.769075
103.0491
101.93315
99.734627
96.473423
92.184656
86.91814
80.734454
73.702842
65.901293
57.411791
48.328705
38.749968
28.789122
18.559689
8.1914718
-2.2318947
-12.649612
-22.990631
-33.038778
-42.693424
-51.87987
-60.5336
-68.588477
-75.991564
-82.688784
-88.638236
-93.801286
-98.147004
-101.65037
-104.29248
-106.06107
-106.94814
-106.94822
-106.06138
-104.2933
-101.65215
-98.150333
-93.806494
-88.644914
-82.69524
-75.995358
-68.58639
-60.522698
-51.862446
-42.676141
-33.028653
-22.998929
-12.70465
-2.303344
8.1649786
18.56209
28.803223
38.764885
48.335225
57.409005
65.893876
73.695625
80.729898
86.916336
92.184684
96.47424
99.735528
101.93377
103.04932
113.30947
112.10186
109.69988
106.12641
101.4231
95.646191
88.862581
81.147115
72.583825
63.255408
53.263638
42.712491
31.73538
20.465031
9.0852078
-2.3384356
-13.896818
-25.334293
-36.448895
-47.111479
-57.243768
-66.787886
-75.667871
-83.837934
-91.228455
-97.797932
-103.49964
-108.29946
-112.16852
-115.08498
-117.03689
-118.01702
-118.01693
-117.03672
-115.0851
-112.16976
-108.30312
-103.50682
-97.808628
-91.239847
-83.84628
-75.667125
-66.768731
-57.208933
-47.08003
-36.439563
-25.351115
-13.950789
-2.4232507
9.0283605
20.462319
31.764412
42.747368
53.278215
63.248886
72.568961
81.134517
88.856258
95.645114
101.42483
106.12883
109.70189
112.10308
113.30987
124.91804
123.60434
120.97854
117.07563
111.93379
105.61755
98.201971
89.761349
80.401449
70.171115
59.209438
47.577168
35.481709
22.97683
10.562213
-1.8392671
-14.715084
-26.708677
-37.49464
-47.114689
-55.556303
-62.889297
-69.145079
-74.418612
-78.777711
-82.300048
-85.105959
-87.254154
-88.865068
-89.983591
-90.700519
-91.049514
-91.049295
-90.699841
-89.98274
-88.86487
-87.256361
-85.11251
-82.312402
-78.792238
-74.432383
-69.15101
-62.862906
-55.494721
-47.054996
-37.484501
-26.710092
-14.703274
-1.8886827
10.480272
22.991561
35.556033
47.665549
59.234872
70.147939
80.368234
89.739282
98.195159
105.61988
111.93955
117.08088
120.98209
123.60619
124.9186
-91.043153
-90.692523
-89.972864
-88.852171
-87.239976
-85.094678
-82.296462
-78.784716
-74.432604
-69.147736
-62.832294
-55.408076
-46.877173
-37.175502
-26.666811
-15.238927
-2.3790938
10.585351
23.300255
35.727553
47.725381
59.250501
70.136783
80.346173
89.708326
98.156853
105.57812
111.89459
117.03193
120.9297
123.5503
124.86122
124.86101
123.54968
120.92907
117.03242
111.8984
105.5876
98.173376
89.727137
80.363105
70.143413
59.219719
47.656414
35.66416
23.294188
10.597926
-2.3819702
-15.192734
-26.598409
-37.194461
-46.945465
-55.485702
-62.852508
-69.126545
-74.404385
-78.766647
-82.291101
-85.096431
-87.244243
-88.855912
-89.975305
-90.693738
-91.043515
-118.01803
-117.03628
-115.08169
-112.16275
-108.29227
-103.49369
-97.795749
-91.22973
-83.836615
-75.648666
-66.727092
-57.130515
-46.960384
-36.312764
-25.362233
-14.156648
-2.6070614
9.0366471
20.574314
31.861098
42.799604
53.297974
63.2467
72.552774
81.108269
88.822454
95.605986
101.38143
106.08162
109.65146
112.05016
113.25571
113.25574
112.05035
109.65216
106.08358
101.38569
95.613401
88.832784
81.119086
72.560444
63.245552
53.280801
42.769326
31.834888
20.570093
9.062049
-2.5464421
-14.075911
-25.311983
-36.314944
-46.993973
-57.169479
-66.741678
-75.639203
-83.818571
-91.21522
-97.78895
-103.49288
-108.29446
-112.1655
-115.08384
-117.03753
-118.01843
-106.94605
-106.05805
-104.28792
-101.64423
-98.139766
-93.79391
-88.63125
-82.680954
-75.978589
-68.562446
-60.485542
-51.808213
-42.6094
-32.974152
-23.012666
-12.794937
-2.3790494
8.1573615
18.605141
28.849935
38.795545
48.348265
57.406477
65.879182
73.671442
80.698237
86.878881
92.142554
96.428248
99.686522
101.88266
102.99731
102.99748
101.88324
99.687748
96.430511
92.146312
86.884358
80.705
73.677944
65.883191
57.405132
48.339221
38.781176
28.836136
18.598311
8.1687733
-2.3229372
-12.720659
-22.986835
-32.978263
-42.625606
-51.82486
-60.49225
-68.558442
-75.969511
-82.672424
-88.625993
-93.791878
-98.139801
-101.64511
-104.28886
-106.05868
-106.94627
-96.861353
-96.053337
-94.442101
-92.035812
-88.846675
-84.892283
-80.195131
-74.78259
-68.687936
-61.948821
-54.613125
-46.738357
-38.3967
-29.6607
-20.615238
-11.333316
-1.8985005
7.6279947
17.089099
26.379359
35.406036
44.079509
52.306935
60.002395
67.080569
73.463307
79.07779
83.859699
87.75374
90.714924
92.710305
93.718127
93.71835
92.711031
90.716277
87.755902
83.862832
79.081874
73.467931
67.084761
60.004858
52.306237
44.074853
35.398835
26.372212
17.086121
7.6387844
-1.8581724
-11.28456
-20.596605
-29.661526
-38.404143
-46.745578
-54.615767
-61.946412
-68.682745
-74.777246
-80.191209
-84.890077
-88.845796
-92.035681
-94.442262
-96.053514
-96.861427
-87.681701
-86.944105
-85.473047
-83.276368
-80.365916
-76.758253
-72.474633
-67.541229
-61.989861
-55.857964
-49.190163
-42.035352
-34.454823
-26.51756
-18.300465
-9.8776413
-1.3258433
7.2898462
15.855936
24.273876
32.455676
40.318202
47.777559
54.753866
61.170221
66.955398
72.04388
76.377561
79.906546
82.590067
84.397399
85.307711
85.307948
84.398142
82.591371
79.908479
76.380147
72.047013
66.958745
61.173175
54.755681
47.777536
40.316135
32.452475
24.271342
15.857439
7.3014582
-1.2985958
-9.8469475
-18.284679
-26.514162
-34.45668
-42.037799
-49.19066
-55.856037
-61.986422
-67.537538
-72.471583
-76.756151
-80.364673
-83.27573
-85.472762
-86.943997
-87.681679
-79.364996
-78.690217
-77.344442
-75.335281
-72.674278
-69.377307
-65.464707
-60.961557
-55.898136
-50.310259
-44.239908
-37.733821
-30.845032
-23.634536
-16.170621
-8.524706
-0.76810651
7.0326964
14.789575
22.415319
29.82777
36.94902
43.704399
50.021026
55.829557
61.065605
65.670308
69.591424
72.784118
75.211704
76.846272
77.668863
77.669091
76.846975
75.212895
72.785806
69.593576
65.672806
61.0682
55.831876
50.022654
43.705025
36.948697
29.827198
22.415893
14.793675
7.0434972
-0.74935078
-8.5045024
-16.157559
-23.628903
-30.843488
-37.733452
-44.239008
-50.308317
-55.895448
-60.95871
-65.462194
-69.375359
-72.672914
-75.3344
-77.343916
-78.689942
-79.364915
-71.856938
-71.23879
-70.006085
-68.166234
-65.73048
-62.714136
-59.136751
-55.022336
-50.399655
-45.302486
-39.769941
-33.846048
-27.58019
-21.027799
-14.248137
-7.3044496
-0.26512027
6.8016084
13.82275
20.726458
27.439597
33.888214
40.002838
45.718294
50.972498
55.707585
59.87077
63.415219
66.300764
68.494526
69.971423
70.714434
70.714645
69.972067
68.495595
66.302242
63.417055
59.87286
55.709757
50.974529
45.719969
40.004053
33.889127
27.440771
20.728909
13.827957
6.8110476
-0.25151202
-7.2901664
-14.237415
-21.021439
-27.576797
-33.843973
-39.768056
-45.300322
-50.39723
-55.019894
-59.134545
-62.712317
-65.729092
-68.165245
-70.005436
-71.238424
-71.856824
-65.092864
-64.526218
-63.396382
-61.710559
-59.479663
-56.718466
-53.445747
-49.684455
-45.461893
-40.809882
-35.764912
-30.368046
-24.665026
-18.70623
-12.545754
-6.2409866
0.14695462
6.5556923
12.919138
19.171319
25.24724
31.082919
36.615369
41.785187
46.536364
50.816889
54.579441
57.782084
60.388879
62.370415
63.704243
64.375154
64.375348
63.70483
62.371381
60.390197
57.783705
54.581285
50.818843
46.538302
41.787012
36.61708
31.0847
25.249523
19.174789
12.924638
6.5638351
0.15735744
-6.2302435
-12.536847
-18.699895
-24.660763
-30.364988
-35.762356
-40.807454
-45.459503
-49.682177
-53.443697
-56.71673
-59.478279
-61.709524
-63.395671
-64.525804
-65.092731
-59.005381
-58.485851
-57.450117
-55.905152
-53.861494
-51.333343
-48.338675
-44.899344
-41.041204
-36.79419
-32.192373
-27.273904
-22.080983
-16.659676
-11.05945
-5.3327105
0.46544334
6.2783382
12.046973
17.711915
23.21445
28.497018
33.5034
38.180072
42.476644
46.346425
49.747016
52.640882
54.995887
56.785739
57.990377
58.596231
58.596411
57.990919
56.786627
54.997095
52.642371
49.748726
46.348288
42.478593
38.182077
33.505505
28.499388
23.217398
17.715873
12.052389
6.2854237
0.47381582
-5.3241427
-11.051879
-16.653656
-22.076393
-27.270322
-32.189385
-36.791527
-41.038754
-44.897103
-48.336684
-51.331646
-53.860114
-55.904096
-57.449375
-58.485411
-59.005238
-53.528614
-53.052326
-52.102941
-50.687166
-48.815112
-46.500363
-43.76004
-40.614869
-37.089239
-33.211234
-29.01263
-24.528816
-19.798703
-14.864514
-9.7714478
-4.5672816
0.69801615
5.972978
11.204691
16.339794
21.32534
26.109395
30.641551
34.873707
38.760596
42.260325
45.334898
47.950716
50.07903
51.69634
52.784718
53.332052
53.332223
52.785228
51.697177
50.080172
47.952132
45.33655
42.262173
38.762609
34.875887
30.643954
26.112153
21.328665
16.343943
11.209886
5.9792537
0.70506409
-4.5601107
-9.764848
-14.858879
-19.794063
-24.524987
-29.009381
-33.208389
-37.086699
-40.612603
-43.758052
-46.49867
-48.813727
-50.686093
-52.102179
-53.051871
-53.528464
-48.60073
-48.164179
-47.294119
-45.996959
-44.282345
-42.163195
-39.655735
-36.779532
-33.557508
-30.015934
-26.184384
-22.095645
-17.785581
-13.292928
-8.6589984
-3.9273329
0.85669297
5.646365
10.39398
15.051508
19.571253
23.906433
28.011738
31.843923
35.362321
38.529326
41.310868
43.676844
45.601518
47.063864
48.04785
48.542654
48.542819
48.048342
47.064674
45.602629
43.678233
41.312511
38.531202
35.364419
31.846258
28.014361
23.909441
19.57478
15.0557
10.398931
5.6520375
0.86285389
-3.9210894
-8.6531004
-13.287655
-17.781014
-22.091721
-26.180987
-30.012957
-33.554878
-36.777214
-39.653718
-42.161481
-44.280941
-45.995867
-47.29334
-48.163712
-48.600575
-44.16539
-43.765348
-42.968145
-41.779868
-40.209664
-38.269755
-35.975446
-33.345132
-30.40028
-27.165396
-23.667952
-19.938282
-16.009426
-11.916927
-7.6985674
-3.3940452
0.95539932
5.3073683
9.6187359
13.846164
17.946649
21.878042
25.599559
29.072291
32.25967
35.127912
37.646431
39.788225
41.530226
42.853595
43.743978
44.191691
44.191853
43.744464
42.854397
41.531331