/*--------------------------------*- C++ -*----------------------------------*\
| =========                 |                                                 |
| \\      /  F ield         | OpenFOAM: The Open Source CFD Toolbox           |
|  \\    /   O peration     | Version:  2106                                  |
|   \\  /    A nd           | Website:  www.openfoam.com                      |
|    \\/     M anipulation  |                                                 |
\*---------------------------------------------------------------------------*/
FoamFile
{
    version     2.0;
    format      ascii;
    arch        "LSB;label=32;scalar=64";
    class       volVectorField;
    location    "0.025";
    object      U_0;
}
// * * * * * * * * * * * * * * * * * * * * * * * * * * * * * * * * * * * * * //

dimensions      [0 1 -1 0 0 0 0];

internalField   nonuniform List<vector> 
256
(
(-0.014731041 0.010515383 0)
(-0.041897285 0.0088908731 0)
(-0.062672368 0.0059077563 0)
(-0.073822613 0.0020334877 0)
(-0.073732874 -0.0021132443 0)
(-0.062453663 -0.0059310035 0)
(-0.041689822 -0.0088345688 0)
(-0.014654051 -0.01040737 0)
(0.014644004 -0.01040767 0)
(0.041682256 -0.0088349378 0)
(0.062447111 -0.0059312778 0)
(0.073730027 -0.002114199 0)
(0.073823744 0.0020327744 0)
(0.062677544 0.0059066695 0)
(0.041906952 0.0088902522 0)
(0.014742069 0.010515249 0)
(-0.014620122 0.046913646 0)
(-0.041560565 0.039715142 0)
(-0.062127653 0.026459146 0)
(-0.073115096 0.0091781194 0)
(-0.072969625 -0.0094110795 0)
(-0.061781251 -0.026556649 0)
(-0.041227245 -0.039632299 0)
(-0.014492857 -0.046717849 0)
(0.014482915 -0.046719765 0)
(0.04122036 -0.039635769 0)
(0.06177455 -0.026560873 0)
(0.072966544 -0.0094183095 0)
(0.073116002 0.0091710384 0)
(0.062132475 0.026451163 0)
(0.041570497 0.039710013 0)
(0.014631084 0.046912244 0)
(-0.017070595 0.065470782 0)
(-0.048510421 0.055344623 0)
(-0.072485394 0.036753133 0)
(-0.085257706 0.012624075 0)
(-0.085057877 -0.013191246 0)
(-0.072013308 -0.03695684 0)
(-0.048060145 -0.055055408 0)
(-0.016900964 -0.064862534 0)
(0.016886935 -0.064865579 0)
(0.048051496 -0.055059126 0)
(0.072003772 -0.036960494 0)
(0.085052521 -0.013199911 0)
(0.085257928 0.012616103 0)
(0.072491747 0.036742982 0)
(0.048525452 0.055338255 0)
(0.017086661 0.065469595 0)
(-0.017710835 0.1158218 0)
(-0.050198146 0.097928384 0)
(-0.074708223 0.065058069 0)
(-0.087463721 0.022392421 0)
(-0.087003033 -0.023314504 0)
(-0.073602703 -0.065422956 0)
(-0.049117157 -0.097561856 0)
(-0.01728584 -0.11499934 0)
(0.017270088 -0.11500664 0)
(0.049110487 -0.097570275 0)
(0.073591573 -0.0654307 0)
(0.086995917 -0.023332343 0)
(0.087463154 0.022373353 0)
(0.074714227 0.065034101 0)
(0.050216239 0.097912941 0)
(0.01772828 0.11581925 0)
(-0.0305283 0.12878671 0)
(-0.086451686 0.10842224 0)
(-0.12844962 0.071379094 0)
(-0.15027028 0.023994388 0)
(-0.1495231 -0.026109742 0)
(-0.12665951 -0.072182035 0)
(-0.084683049 -0.10741681 0)
(-0.029828092 -0.12658933 0)
(0.029795334 -0.12660116 0)
(0.084671568 -0.10742475 0)
(0.12663909 -0.072184621 0)
(0.14950582 -0.026128396 0)
(0.15026489 0.023974764 0)
(0.12846147 0.071351203 0)
(0.08649092 0.10840522 0)
(0.030565277 0.12878664 0)
(-0.050190163 0.24196959 0)
(-0.14178535 0.2035365 0)
(-0.20965598 0.13389327 0)
(-0.24410797 0.045185728 0)
(-0.24241246 -0.048704037 0)
(-0.20551358 -0.13532547 0)
(-0.13760204 -0.20210166 0)
(-0.048498096 -0.23862699 0)
(0.048443154 -0.23865608 0)
(0.137588 -0.2021231 0)
(0.20548247 -0.13532867 0)
(0.24238309 -0.048738714 0)
(0.24409855 0.045136872 0)
(0.20967572 0.13382107 0)
(0.14184994 0.20349323 0)
(0.05024614 0.24196994 0)
(-0.11087979 0.30747763 0)
(-0.31404723 0.2565851 0)
(-0.46646555 0.16607875 0)
(-0.5466176 0.054084049 0)
(-0.54553717 -0.061956832 0)
(-0.46380184 -0.16929468 0)
(-0.31150231 -0.25305247 0)
(-0.10993585 -0.29921111 0)
(0.10980311 -0.29926286 0)
(0.31146327 -0.25308241 0)
(0.4637452 -0.16928115 0)
(0.54546164 -0.061995476 0)
(0.54657095 0.054020214 0)
(0.46651109 0.16598005 0)
(0.31420846 0.25653414 0)
(0.11102609 0.30748859 0)
(-0.10692489 0.69452609 0)
(-0.3043951 0.58202213 0)
(-0.45580178 0.3809221 0)
(-0.53974647 0.12905817 0)
(-0.54402709 -0.13657555 0)
(-0.4662372 -0.38404164 0)
(-0.31510016 -0.57897836 0)
(-0.111547 -0.68748868 0)
(0.11141303 -0.68761214 0)
(0.3150448 -0.57907665 0)
(0.4661813 -0.38401544 0)
(0.5439594 -0.13662449 0)
(0.53970301 0.12889198 0)
(0.45584782 0.38062624 0)
(0.3045529 0.58186551 0)
(0.1070807 0.69454641 0)
(0.11051843 0.6778377 0)
(0.31262391 0.57110689 0)
(0.4626772 0.37866287 0)
(0.53972553 0.13447259 0)
(0.53528512 -0.12727384 0)
(0.45193384 -0.37525584 0)
(0.30190089 -0.57340637 0)
(0.10619976 -0.68478942 0)
(-0.10606952 -0.68491534 0)
(-0.30184289 -0.57350745 0)
(-0.45187124 -0.37522933 0)
(-0.53520992 -0.12732086 0)
(-0.539674 0.13431055 0)
(-0.46271909 0.37837437 0)
(-0.31278368 0.57095631 0)
(-0.11067768 0.67785946 0)
(0.1104364 0.31292462 0)
(0.31337585 0.26485401 0)
(0.46675715 0.17722637 0)
(0.54892648 0.064778699 0)
(0.54985702 -0.056772876 0)
(0.46911932 -0.17381362 0)
(0.3159293 -0.26817649 0)
(0.11170639 -0.32132308 0)
(-0.11157003 -0.32137903 0)
(-0.31588815 -0.26821417 0)
(-0.46906191 -0.17380527 0)
(-0.54978183 -0.056815072 0)
(-0.54888093 0.064713711 0)
(-0.46680315 0.17712998 0)
(-0.31353555 0.2648051 0)
(-0.11058042 0.31293532 0)
(0.045564316 0.22401636 0)
(0.12940742 0.18978869 0)
(0.19332182 0.12712409 0)
(0.22799567 0.045855107 0)
(0.22964462 -0.042222448 0)
(0.19735945 -0.12557821 0)
(0.13361003 -0.19117415 0)
(0.047376262 -0.22750213 0)
(-0.047322132 -0.22753192 0)
(-0.13359945 -0.19119516 0)
(-0.19733211 -0.12557824 0)
(-0.22961787 -0.042252922 0)
(-0.22798728 0.045811323 0)
(-0.19333955 0.12705713 0)
(-0.12946629 0.18974891 0)
(-0.045613328 0.22401746 0)
(0.032778155 0.15563444 0)
(0.093161726 0.1321315 0)
(0.13931608 0.088806306 0)
(0.16434845 0.032085936 0)
(0.16498061 -0.029624796 0)
(0.14083892 -0.087819073 0)
(0.094712482 -0.13317044 0)
(0.033456512 -0.15808076 0)
(-0.03341885 -0.15809473 0)
(-0.094697762 -0.13318382 0)
(-0.14081683 -0.087828114 0)
(-0.16496317 -0.029650994 0)
(-0.16434432 0.032059497 0)
(-0.13933007 0.088772974 0)
(-0.093203265 0.13211107 0)
(-0.032818158 0.15563276 0)
(0.0094082529 0.082107485 0)
(0.026712422 0.06977949 0)
(0.040043921 0.047004911 0)
(0.047363426 0.017025219 0)
(0.047765445 -0.015679291 0)
(0.041007427 -0.046457431 0)
(0.027667806 -0.070317203 0)
(0.0098063321 -0.083380575 0)
(-0.0098003743 -0.083386408 0)
(-0.027670214 -0.070321018 0)
(-0.041002514 -0.046457844 0)
(-0.047760915 -0.015688397 0)
(-0.047361105 0.017015136 0)
(-0.040044034 0.046988668 0)
(-0.026721086 0.069769238 0)
(-0.0094145306 0.082106588 0)
(0.022532778 0.13410652 0)
(0.064139719 0.11388853 0)
(0.096081909 0.076480911 0)
(0.11344156 0.027325141 0)
(0.11362594 -0.026125751 0)
(0.09652116 -0.075990249 0)
(0.064573998 -0.11437623 0)
(0.022724573 -0.13526913 0)
(-0.022702217 -0.13527591 0)
(-0.064558357 -0.11439004 0)
(-0.096506985 -0.076008646 0)
(-0.11361897 -0.026152258 0)
(-0.11344335 0.02729971 0)
(-0.096092912 0.07645544 0)
(-0.064161609 0.11387224 0)
(-0.022557173 0.13410157 0)
(-0.0071344723 -0.020146899 0)
(-0.020325891 -0.016966899 0)
(-0.030284409 -0.011133823 0)
(-0.035525668 -0.0036577195 0)
(-0.03530387 0.0042671887 0)
(-0.029753187 0.011378749 0)
(-0.019809339 0.016707671 0)
(-0.0069349571 0.019542585 0)
(0.0069174565 0.019544049 0)
(0.019792886 0.016714061 0)
(0.029743804 0.011389219 0)
(0.035300819 0.0042777467 0)
(0.035529702 -0.0036469379 0)
(0.030295062 -0.011126211 0)
(0.020340053 -0.016961683 0)
(0.0071520597 -0.020144582 0)
(0.038210016 0.17913763 0)
(0.10884501 0.15193523 0)
(0.16309864 0.10167043 0)
(0.192629 0.035870411 0)
(0.19295418 -0.035321538 0)
(0.16388538 -0.10142793 0)
(0.1096366 -0.1521251 0)
(0.038562151 -0.17963787 0)
(-0.0385232 -0.1796464 0)
(-0.10960477 -0.15214928 0)
(-0.16386205 -0.1014629 0)
(-0.19294518 -0.035365475 0)
(-0.19263535 0.035827125 0)
(-0.16312004 0.10163112 0)
(-0.1088796 0.15190965 0)
(-0.038250624 0.17912825 0)
)
;

boundaryField
{
    leftWall
    {
        type            cyclic;
    }
    rightWall
    {
        type            cyclic;
    }
    lowerWall
    {
        type            slip;
    }
    atmosphere
    {
        type            slip;
    }
    defaultFaces
    {
        type            empty;
    }
}


// ************************************************************************* //
