/*--------------------------------*- C++ -*----------------------------------*\
| =========                 |                                                 |
| \\      /  F ield         | OpenFOAM: The Open Source CFD Toolbox           |
|  \\    /   O peration     | Version:  2106                                  |
|   \\  /    A nd           | Website:  www.openfoam.com                      |
|    \\/     M anipulation  |                                                 |
\*---------------------------------------------------------------------------*/
FoamFile
{
    version     2.0;
    format      ascii;
    arch        "LSB;label=32;scalar=64";
    class       volScalarField;
    location    "0.24";
    object      p;
}
// * * * * * * * * * * * * * * * * * * * * * * * * * * * * * * * * * * * * * //

dimensions      [1 -1 -2 0 0 0 0];

internalField   nonuniform List<scalar> 
32768
(
196.51381
196.57917
196.6318
196.68889
196.72632
196.74234
196.73381
196.69921
196.63853
196.55266
196.44271
196.30947
196.15425
195.97808
195.7811
195.56857
195.32952
195.08997
194.80775
194.53548
194.23538
193.90452
193.59121
193.23482
192.85745
192.49219
192.09359
191.66587
191.23848
190.80033
190.32783
189.84276
189.34162
188.83244
188.3065
187.74906
187.17894
186.60931
186.02321
185.41106
184.78895
184.1511
183.51279
182.86272
182.19723
181.52096
180.82607
180.14884
179.453
178.72977
178.03832
177.33549
176.59495
175.86736
175.15631
174.43251
173.69952
172.97002
172.24164
171.51152
170.77066
170.02916
169.31756
168.60214
167.85753
167.12054
166.39475
165.6764
164.96063
164.22661
163.48964
162.78077
162.07645
161.35246
160.62732
159.9019
159.18053
158.47611
157.7643
157.0403
156.33453
155.62257
154.89574
154.19416
153.49121
152.75341
152.03747
151.35496
150.6348
149.90611
149.21307
148.50321
147.76709
147.0479
146.35844
145.65391
144.90754
144.17955
143.49185
142.76886
142.02453
141.33593
140.63526
139.88278
139.15734
138.46007
137.7356
137.00562
136.28693
135.56035
134.83618
134.11013
133.38246
132.67781
131.96741
131.22668
130.5025
129.7983
129.05744
128.30913
127.6152
126.9121
126.15303
125.42667
124.74324
124.00961
123.25054
122.53981
121.83554
121.10063
120.37193
119.65561
118.92739
118.19948
117.48649
116.76091
116.02685
115.32408
114.61951
113.88162
113.15135
112.46404
111.76972
111.03078
110.31424
109.63998
108.9407
108.20374
107.49499
106.8233
106.11496
105.39392
104.71622
104.03677
103.3399
102.65334
101.96269
101.2708
100.59058
99.910352
99.234903
98.561156
97.885136
97.226149
96.56227
95.877127
95.197417
94.539567
93.887582
93.214883
92.546208
91.922714
91.300758
90.636222
89.972595
89.340195
88.713224
88.061706
87.407229
86.790785
86.185279
85.556383
84.932878
84.328512
83.716157
83.094602
82.483514
81.894108
81.305223
80.695186
80.096092
79.536553
78.975303
78.390195
77.820692
77.265101
76.718501
76.173342
75.652162
75.122476
74.601445
74.1223
73.649124
73.176166
72.697709
72.275254
71.878866
71.47006
71.113247
70.823278
70.603534
70.410135
70.340423
70.349684
70.416012
70.606147
70.95643
71.504502
72.278575
73.294548
74.555804
76.221151
78.326167
81.008077
84.260562
88.238671
93.102328
99.109595
106.48442
115.03954
125.48173
137.64688
151.71301
168.27914
186.95283
207.90567
231.12549
255.587
281.01546
305.76212
327.49496
343.62895
351.64791
356.76467
361.11869
360.65005
357.72198
354.08767
344.66607
327.73911
310.42688
307.23114
326.05965
362.08061
410.81335
427.9739
187.76986
187.81165
187.8641
187.92133
187.95815
187.97435
187.96562
187.93099
187.87026
187.78392
187.67333
187.53923
187.38343
187.20643
187.00936
186.79565
186.55787
186.31451
186.0364
185.76143
185.45907
185.13494
184.81545
184.45669
184.09046
183.71819
183.31322
182.89818
182.46887
182.0202
181.55411
181.07324
180.56725
180.05681
179.52942
178.97215
178.40811
177.83317
177.2396
176.63131
176.01428
175.37304
174.72923
174.08051
173.41723
172.73614
172.04432
171.36916
170.66357
169.94825
169.25713
168.54057
167.81094
167.09166
166.36762
165.64201
164.9166
164.18515
163.45461
162.72583
161.98554
161.25038
160.53414
159.80517
159.07313
158.34875
157.61112
156.88739
156.17665
155.44503
154.71788
154.00493
153.28219
152.56714
151.85835
151.12793
150.40007
149.69648
148.9852
148.26838
147.56149
146.83982
146.122
145.42707
144.70816
143.97441
143.28001
142.58114
141.84495
141.141
140.45042
139.72115
138.99281
138.2882
137.58795
136.86427
136.13261
135.43124
134.72501
133.976
133.25619
132.57801
131.85025
131.10383
130.40012
129.689
128.95493
128.23593
127.51853
126.79411
126.06959
125.33297
124.61124
123.90985
123.18074
122.44797
121.74711
121.02621
120.26658
119.54638
118.86054
118.11899
117.36675
116.68155
115.97983
115.21685
114.48551
113.78465
113.05346
112.31911
111.60518
110.8804
110.15242
109.43986
108.71621
107.97642
107.26388
106.56825
105.83631
105.09649
104.39735
103.70676
102.9746
102.24443
101.56202
100.87297
100.1463
99.429357
98.746191
98.050785
97.325441
96.63407
95.960706
95.252749
94.556714
93.887427
93.19948
92.499411
91.815533
91.143206
90.467724
89.790154
89.123484
88.460355
87.785811
87.105355
86.426462
85.764526
85.117189
84.44773
83.774952
83.144126
82.524215
81.874058
81.212981
80.57235
79.942194
79.297033
78.646822
78.017831
77.400757
76.787735
76.171774
75.554125
74.94246
74.326885
73.708904
73.116123
72.535639
71.933994
71.334725
70.761986
70.200688
69.625683
69.062416
68.495615
67.943842
67.394596
66.869084
66.343549
65.817793
65.334791
64.853329
64.392408
63.916896
63.482148
63.076231
62.683264
62.314649
61.99662
61.752683
61.566103
61.453287
61.398306
61.438546
61.612255
61.919468
62.428524
63.188101
64.106152
65.315779
66.916299
68.880482
71.308129
74.326736
78.153619
82.836319
88.534913
95.562513
103.71921
113.5569
125.2662
138.6681
154.46027
172.30287
192.32598
214.33908
237.56196
261.97422
285.69938
308.05488
328.00648
342.8309
352.03344
355.33246
352.01087
348.49679
345.45182
334.27171
315.43413
292.79155
280.09596
293.23407
327.4372
368.5814
389.17972
178.94961
179.0059
179.05859
179.1157
179.15218
179.1678
179.15834
179.12277
179.0613
178.97448
178.86374
178.72941
178.57442
178.39686
178.20196
177.98599
177.75254
177.50502
177.23299
176.95532
176.65256
176.335
176.00928
175.65409
175.29399
174.91233
174.51302
174.10204
173.6657
173.21956
172.75757
172.269
171.76613
171.26077
170.72086
170.16587
169.61017
169.02605
168.42859
167.82603
167.20464
166.55893
165.91971
165.273
164.59907
163.91125
163.23851
162.55318
161.836
161.14021
160.43661
159.70883
158.99447
158.27535
157.54454
156.82203
156.09486
155.35891
154.63501
153.90307
153.16061
152.44156
151.71605
150.97386
150.25984
149.53061
148.78229
148.07819
147.36738
146.62672
145.90864
145.18986
144.4615
143.76136
143.04858
142.3118
141.59492
140.89042
140.17992
139.46875
138.74899
138.02424
137.3295
136.62907
135.88624
135.17769
134.50378
133.76652
133.03312
132.36366
131.65289
130.9056
130.1948
129.50582
128.79033
128.04844
127.34168
126.65954
125.91377
125.16027
124.49492
123.79758
123.0225
122.3089
121.62443
120.88244
120.1562
119.45339
118.72573
118.00509
117.27794
116.53192
115.82679
115.12639
114.38101
113.65873
112.96623
112.22016
111.46272
110.78168
110.08428
109.30443
108.57932
107.9246
107.18115
106.40368
105.70836
105.00756
104.25387
103.52702
102.8217
102.08661
101.36084
100.65805
99.923544
99.182484
98.489794
97.790137
97.03551
96.30158
95.632239
94.930434
94.167592
93.458281
92.805517
92.089087
91.32714
90.63987
89.989987
89.255648
88.519438
87.871529
87.201878
86.468499
85.763238
85.094552
84.418876
83.722709
83.023564
82.349698
81.683205
81.007549
80.347287
79.684704
79.002965
78.327127
77.662485
76.989528
76.311309
75.659513
75.027514
74.378246
73.718686
73.085384
72.454469
71.800039
71.140213
70.503255
69.886643
69.256931
68.611931
67.992398
67.392718
66.774965
66.15043
65.541278
64.939868
64.335448
63.730998
63.150047
62.578089
61.99156
61.402878
60.833235
60.272043
59.711474
59.166645
58.609315
58.06815
57.547825
57.054086
56.551696
56.042938
55.56824
55.103502
54.667986
54.218123
53.826883
53.458777
53.146291
52.851017
52.608757
52.470391
52.36929
52.388988
52.48581
52.721609
53.125446
53.717934
54.521997
55.600116
57.026539
58.821448
60.930521
63.617272
67.145505
71.250483
76.383393
82.573158
89.928985
98.950784
109.3717
121.67041
135.89486
151.9764
170.34577
190.22218
211.24441
233.29465
254.97215
275.87403
294.49096
309.2645
320.17441
328.10379
333.535
337.07787
332.1736
315.8632
291.37562
263.76287
247.17627
258.26855
293.8904
333.9126
356.12814
170.12127
170.16285
170.21633
170.27346
170.30954
170.32439
170.3139
170.27713
170.21429
170.12609
170.0139
169.87825
169.72179
169.54308
169.3474
169.12976
168.89812
168.64689
168.37889
168.09894
167.79526
167.4838
167.15248
166.79906
166.44507
166.05538
165.6616
165.24995
164.8147
164.36521
163.90368
163.41412
162.91504
162.40337
161.85918
161.30865
160.75264
160.16227
159.56184
158.95965
158.33548
157.6902
157.04941
156.39842
155.71739
155.03347
154.36743
153.66602
152.95356
152.26514
151.5442
150.81967
150.11649
149.39219
148.65696
147.93506
147.20642
146.47325
145.74995
145.01182
144.27924
143.56683
142.82577
142.08725
141.38282
140.64275
139.90478
139.21035
138.48153
137.7493
137.04861
136.31016
135.57971
134.89985
134.18319
133.44129
132.73606
132.03136
131.31049
130.60486
129.89127
129.16478
128.4767
127.77239
127.02444
126.33901
125.65918
124.89648
124.19009
123.53043
122.78983
122.05245
121.36724
120.66925
119.93338
119.19408
118.50998
117.82701
117.05975
116.31667
115.67118
114.95166
114.16803
113.48186
112.79811
112.04459
111.32277
110.61664
109.88711
109.16893
108.43603
107.70261
107.00704
106.28395
105.53942
104.84799
104.14459
103.37011
102.63793
101.98102
101.24126
100.44974
99.779668
99.112856
98.320863
97.574772
96.906354
96.167379
95.412018
94.716916
93.992951
93.248478
92.557681
91.842178
91.070605
90.358313
89.693661
88.952362
88.180699
87.497067
86.847998
86.09572
85.321996
84.664284
84.006676
83.242587
82.494151
81.850292
81.178964
80.411422
79.697421
79.070263
78.383468
77.645682
76.957201
76.288465
75.59372
74.904079
74.224262
73.538229
72.863402
72.201447
71.525015
70.847455
70.18964
69.521797
68.846274
68.191248
67.52846
66.847456
66.193047
65.571491
64.939666
64.271948
63.615602
62.995106
62.359143
61.691
61.046143
60.438537
59.834215
59.204014
58.557126
57.949378
57.361957
56.735212
56.112604
55.540403
54.952461
54.334786
53.746829
53.196638
52.619879
52.020173
51.438159
50.882189
50.338534
49.782496
49.258273
48.728692
48.214074
47.703717
47.247787
46.757867
46.256081
45.797273
45.356146
44.943977
44.499951
44.174953
43.87189
43.618984
43.39071
43.214423
43.187355
43.206512
43.345219
43.646546
44.09944
44.735988
45.586034
46.652782
48.049094
49.900295
52.200387
55.097726
58.613768
62.995584
68.295628
74.622313
82.310442
91.476487
102.11721
114.57988
128.92365
144.89162
162.73877
181.91957
201.6259
221.53129
241.01636
258.76568
274.28423
287.64753
298.46597
305.80242
307.342
303.02828
292.24097
273.47979
252.23889
239.83572
253.362
289.21728
329.91975
351.50676
161.23998
161.2832
161.33739
161.39446
161.42998
161.44373
161.43182
161.39336
161.32865
161.23857
161.12457
160.98733
160.82947
160.64967
160.45351
160.23525
160.00435
159.75276
159.48609
159.20696
158.9033
158.59531
158.26231
157.91124
157.56069
157.16561
156.7807
156.36286
155.93217
155.4789
155.01999
154.5264
154.03133
153.51126
152.97007
152.41738
151.85689
151.2662
150.66078
150.05795
149.43073
148.78511
148.1399
147.48514
146.79969
146.12252
145.45082
144.73848
144.03692
143.34253
142.61307
141.89784
141.19277
140.46449
139.73091
139.00518
138.27718
137.55264
136.82334
136.08159
135.36067
134.6431
133.89655
133.17177
132.46281
131.71708
130.99768
130.30124
129.55627
128.83618
128.14394
127.40025
126.67346
125.99106
125.2782
124.54823
123.84281
123.13235
122.40817
121.71245
121.0046
120.27254
119.59215
118.88877
118.13482
117.46189
116.78001
116.01161
115.31506
114.65062
113.91359
113.18357
112.49314
111.79953
111.06251
110.31385
109.64014
108.96118
108.1822
107.45497
106.81244
106.06696
105.29641
104.62401
103.92675
103.1843
102.46674
101.74209
101.02356
100.315
99.560476
98.833695
98.163732
97.427811
96.664321
95.982921
95.292372
94.514943
93.784907
93.133634
92.38061
91.578428
90.927807
90.263073
89.454456
88.720946
88.063411
87.310409
86.547787
85.855743
85.128623
84.387683
83.7078
82.999717
82.22369
81.500415
80.842563
80.107394
79.317495
78.635594
78.010999
77.254856
76.466681
75.822702
75.16835
74.376502
73.630231
73.018924
72.341438
71.550304
70.854229
70.238835
69.522022
68.774983
68.113946
67.463196
66.753969
66.039642
65.379143
64.72745
64.031643
63.34423
62.693181
62.0193
61.320947
60.654794
60.013029
59.351783
58.676601
58.021038
57.376312
56.718501
56.079905
55.458576
54.801754
54.140998
53.514992
52.88424
52.228162
51.575527
50.956994
50.361996
49.743972
49.099039
48.482639
47.902304
47.300546
46.687673
46.101533
45.531539
44.929806
44.334639
43.768976
43.209703
42.617708
42.02857
41.474836
40.914132
40.380788
39.856688
39.359118
38.82291
38.33052
37.85489
37.389091
36.917951
36.44845
36.030648
35.580823
35.183044
34.782684
34.49805
34.234179
33.996818
33.839715
33.754879
33.814005
33.952343
34.226384
34.715194
35.402837
36.323449
37.44412
38.797893
40.621676
42.553546
45.354907
48.718401
52.816156
58.077209
64.143188
71.61864
80.485191
90.81228
102.84719
116.73767
132.33541
149.4763
167.62512
185.90645
204.47249
222.19466
238.52135
253.33391
265.75491
274.95577
280.08814
280.9
277.65829
269.57774
262.40045
264.73421
281.1769
312.83085
343.39466
366.05775
152.32572
152.36782
152.42219
152.47893
152.51362
152.52594
152.51219
152.47159
152.40454
152.31211
152.19581
152.05665
151.89694
151.7161
151.51869
151.30025
151.06922
150.8176
150.55232
150.27331
149.97127
149.66484
149.33165
148.98409
148.63329
148.23829
147.8589
147.43386
147.01035
146.55123
146.09522
145.59699
145.10606
144.57432
144.04082
143.48128
142.91505
142.32404
141.71525
141.11068
140.47769
139.83202
139.18079
138.52272
137.83447
137.16281
136.47924
135.76041
135.06832
134.36388
133.63558
132.92456
132.20912
131.48283
130.75243
130.02088
129.29785
128.57663
127.83891
127.10334
126.38768
125.65895
124.92264
124.20784
123.48317
122.74636
122.04894
121.33209
120.57786
119.88529
119.18988
118.43847
117.73151
117.04044
116.3104
115.6027
114.91596
114.1808
113.45195
112.78777
112.07359
111.32895
110.667
109.96318
109.2061
108.53991
107.8473
107.09577
106.40906
105.71516
104.99523
104.28773
103.5733
102.88057
102.15602
101.39478
100.72578
100.06143
99.270399
98.545544
97.915036
97.155826
96.384935
95.726999
95.0259
94.279399
93.559229
92.828707
92.12105
91.423617
90.665078
89.935756
89.268273
88.536516
87.770387
87.079547
86.392879
85.626823
84.898118
84.240609
83.490866
82.704038
82.032804
81.341314
80.571036
79.85649
79.155642
78.414378
77.693618
76.961777
76.19897
75.499791
74.831259
74.089156
73.336886
72.639587
71.952968
71.219576
70.452729
69.755676
69.108332
68.363865
67.599695
66.94243
66.272537
65.505084
64.769675
64.126502
63.443915
62.68941
62.004419
61.362427
60.628455
59.892485
59.23879
58.565067
57.869193
57.196656
56.500219
55.820257
55.181166
54.503307
53.805499
53.145072
52.483029
51.798403
51.127691
50.468908
49.809167
49.150929
48.50066
47.853145
47.201057
46.561601
45.935078
45.30026
44.656101
44.016591
43.389978
42.761377
42.101621
41.441035
40.838245
40.25373
39.625723
38.99419
38.413252
37.850856
37.244185
36.634216
36.074054
35.510275
34.889092
34.299224
33.763734
33.210599
32.605581
32.030527
31.510675
30.970091
30.431278
29.906781
29.431385
28.921512
28.414077
27.929879
27.48282
27.033726
26.552849
26.183429
25.762796
25.352029
24.980651
24.732077
24.479958
24.20513
24.098329
24.030773
24.106945
24.298368
24.569782
24.987728
25.538187
26.318085
27.507661
28.988396
30.964989
33.322868
36.29416
39.957675
44.28386
49.956597
56.507454
64.360232
74.426798
85.381591
98.784007
114.15787
129.47981
146.98236
164.67655
182.31932
200.13824
216.80085
231.945
244.65913
255.0508
263.28248
269.47248
274.83853
281.72415
293.79487
314.11472
343.74001
377.40993
397.53112
143.37465
143.4164
143.47085
143.52704
143.5606
143.5711
143.55505
143.51177
143.44184
143.34653
143.22747
143.08593
142.92407
142.74191
142.54313
142.32464
142.09328
141.84221
141.57864
141.29942
141.00112
140.69442
140.36329
140.02036
139.66634
139.27694
138.89693
138.47119
138.04855
137.58989
137.13039
136.63428
136.13545
135.60649
135.07331
134.50366
133.93326
133.34143
132.72934
132.11953
131.48139
130.83519
130.17795
129.51532
128.82762
128.15233
127.45931
126.74361
126.05073
125.33613
124.61716
123.90185
123.17353
122.45722
121.7264
120.99127
120.27516
119.54506
118.80483
118.08346
117.36619
116.62616
115.90136
115.19629
114.46168
113.72825
113.04722
112.32457
111.56244
110.8852
110.19713
109.44543
108.74152
108.04927
107.31683
106.60909
105.93868
105.20746
104.46707
103.81283
103.102
102.35373
101.70078
100.99746
100.24887
99.585004
98.878143
98.146279
97.467463
96.754078
96.046539
95.344815
94.616817
93.932754
93.218658
92.452444
91.776057
91.114617
90.338245
89.606412
88.962233
88.226303
87.463042
86.77914
86.092935
85.360283
84.608556
83.884188
83.200787
82.486668
81.732366
81.023661
80.341025
79.604388
78.84664
78.150056
77.475147
76.716996
75.976854
75.314246
74.566104
73.801055
73.128721
72.401012
71.643282
70.953964
70.225718
69.480471
68.802812
68.065947
67.269207
66.576334
65.910699
65.157655
64.409392
63.728477
63.055354
62.314358
61.547001
60.873846
60.210495
59.428457
58.682231
58.034482
57.330107
56.588894
55.904227
55.226939
54.501774
53.781347
53.134928
52.476441
51.719696
50.996689
50.36233
49.666038
48.932353
48.28224
47.636217
46.926694
46.235105
45.601543
44.944945
44.247308
43.576933
42.939353
42.273993
41.578207
40.909238
40.271913
39.610133
38.944156
38.317041
37.673488
37.006733
36.387504
35.787925
35.140822
34.486924
33.887836
33.279141
32.60384
31.932611
31.320407
30.740675
30.136419
29.502407
28.914953
28.364735
27.767988
27.150675
26.593268
26.030492
25.402623
24.812593
24.29781
23.743786
23.142732
22.628541
22.092356
21.545381
21.004628
20.489514
20.010885
19.490885
18.973247
18.447666
17.980287
17.487642
16.992858
16.575447
16.182973
15.763479
15.341759
15.012271
14.713322
14.499829
14.285575
14.229192
14.380626
14.586543
14.810115
15.043685
15.373374
15.637277
15.968469
16.653916
17.610017
19.064242
20.927725
23.357386
26.608325
30.482818
36.1978
43.420869
53.49045
65.522493
77.790017
92.604072
107.45927
122.94327
140.63306
158.86543
177.48888
195.76765
213.48628
230.39492
246.6801
262.87271
279.63335
297.96314
320.60077
348.76488
381.09735
408.11552
423.74187
134.38736
134.42898
134.48345
134.53891
134.57104
134.5793
134.56044
134.51391
134.4405
134.34172
134.21935
134.07498
133.91063
133.72691
133.52672
133.30814
133.07666
132.82631
132.56484
132.2857
131.99184
131.68504
131.35737
131.01872
130.66087
130.28093
129.89377
129.4757
129.04551
128.59641
128.12204
127.63799
127.11944
126.60261
126.06288
125.48476
124.91061
124.32088
123.69789
123.08075
122.44357
121.78992
121.12943
120.46003
119.77472
119.09013
118.38789
117.68236
116.98103
116.25987
115.54823
114.82567
114.08988
113.38083
112.64884
111.91433
111.20173
110.4562
109.72329
109.01897
108.28982
107.54961
106.83309
106.1251
105.39396
104.67054
103.98834
103.26247
102.5159
101.8411
101.13862
100.40849
99.718791
99.004226
98.277276
97.585821
96.906856
96.181636
95.458887
94.792087
94.075035
93.349968
92.692627
91.986167
91.262634
90.586746
89.869819
89.171543
88.478815
87.746818
87.073014
86.362665
85.614066
84.948334
84.246526
83.485162
82.800414
82.118227
81.353416
80.641825
79.975869
79.243363
78.514587
77.807504
77.107902
76.398801
75.634015
74.910807
74.250071
73.519285
72.758171
72.070379
71.378054
70.635143
69.892585
69.18818
68.506329
67.769053
67.041809
66.359945
65.607141
64.862978
64.171312
63.435276
62.706158
61.996713
61.255703
60.541875
59.859122
59.106115
58.337186
57.654964
56.944711
56.187324
55.472314
54.769529
54.098827
53.393789
52.611404
51.926317
51.280888
50.49984
49.738369
49.089074
48.376841
47.630524
46.973991
46.30451
45.55088
44.8326
44.201826
43.526111
42.779287
42.109645
41.456948
40.721164
40.025479
39.361475
38.666167
38.002575
37.333969
36.626095
35.97859
35.354371
34.651144
33.964361
33.367421
32.714173
32.001628
31.348189
30.711837
30.041571
29.394437
28.769194
28.117496
27.451914
26.829393
26.223466
25.570851
24.919658
24.310893
23.691371
23.061628
22.439146
21.795833
21.186941
20.631483
20.042929
19.42965
18.841988
18.269
17.664919
17.060123
16.486535
15.921287
15.303745
14.69292
14.143137
13.700157
13.150909
12.554737
12.056775
11.589044
11.07594
10.516367
10.022187
9.5347654
9.0142967
8.4359795
7.8671554
7.3824832
6.7536838
6.3031059
5.9336102
5.1344766
4.456352
4.1696903
3.7707649
3.5855244
3.4721532
3.3591812
3.21639
3.0354103
2.8804738
2.7110254
2.5210103
2.4432855
2.3041678
2.1918041
2.1627652
2.0489518
2.0091706
2.0978061
1.789697
1.5164693
4.9437372
19.865213
32.504929
45.4142
61.124483
79.847498
98.611716
117.82356
137.71191
158.52957
181.04245
204.4173
228.12782
252.02715
277.7965
305.25311
335.19946
365.71708
395.03509
419.48918
433.79064
125.36414
125.40571
125.46019
125.5147
125.54509
125.55065
125.52839
125.47794
125.40035
125.29744
125.1712
125.02349
124.85634
124.6708
124.4692
124.25062
124.01916
123.77019
123.51076
123.23289
122.94354
122.63777
122.31398
121.97946
121.61871
121.24979
120.85467
120.44724
120.0059
119.56627
119.08041
118.60338
118.07557
117.55701
117.00652
116.43083
115.84281
115.25805
114.63014
113.99949
113.36059
112.69912
112.03974
111.35567
110.66933
109.98488
109.26933
108.57098
107.85867
107.13447
106.42456
105.69705
104.96691
104.24712
103.51963
102.79163
102.06716
101.32656
100.5977
99.894179
99.166497
98.425154
97.711795
97.012249
96.278865
95.560299
94.889952
94.15527
93.42158
92.75859
92.040256
91.315428
90.647794
89.933404
89.19467
88.515711
87.844121
87.10165
86.397539
85.750401
85.012187
84.294822
83.656228
82.943844
82.223778
81.548639
80.841604
80.160246
79.445848
78.710591
78.06469
77.336465
76.583109
75.941557
75.235918
74.468021
73.785378
73.110287
72.338964
71.621903
70.9683
70.239277
69.510485
68.809201
68.10876
67.387719
66.629325
65.913113
65.245991
64.524945
63.764229
63.068745
62.397068
61.65814
60.889194
60.203346
59.531039
58.754534
58.045922
57.390322
56.622782
55.894069
55.196417
54.43673
53.727788
53.01928
52.263621
51.565066
50.875264
50.112092
49.37847
48.703485
47.965
47.214409
46.507662
45.783518
45.112813
44.422145
43.649591
42.960497
42.28392
41.535486
40.814144
40.103182
39.388155
38.705607
38.005582
37.306397
36.608121
35.883408
35.225138
34.542044
33.785708
33.162743
32.540276
31.766682
31.071811
30.451295
29.731499
29.008585
28.388187
27.735753
27.000209
26.343713
25.721593
25.023937
24.362575
23.741184
23.092575
22.443337
21.7688
21.096248
20.490798
19.852986
19.196109
18.577736
17.943365
17.268006
16.627005
16.010414
15.325676
14.639748
14.066317
13.506321
12.851418
12.212028
11.652545
11.121498
10.574187
9.965496
9.3472256
8.7876308
8.2070267
7.5302578
6.9412343
6.5122968
5.7769678
4.9259855
4.6621839
4.1531585
3.7863169
3.5522409
3.344592
3.1185556
2.8415336
2.5575364
2.320769
2.0556504
1.7523291
1.4987163
1.2576519
0.98459127
0.73125476
0.49267142
0.23865439
0.014948013
-0.18264158
-0.22082121
-0.21717246
-0.20563301
-0.1966232
-0.18807807
-0.17974807
-0.17377033
-0.17012298
-0.16812012
-0.16638977
-0.1669511
-0.16747876
-0.16734007
-0.16732524
-0.16641611
-0.16296455
-0.15909357
-0.14513103
-0.0066633088
0.14510089
0.38155709
0.26190483
0.44738939
16.919636
42.973795
68.81987
94.528139
119.96795
146.19754
174.91816
205.55467
237.74123
270.48138
303.82691
336.59701
367.07302
395.59781
419.66079
432.56541
116.3052
116.34676
116.40125
116.45457
116.48289
116.48522
116.4589
116.40374
116.32119
116.2134
116.08264
115.93109
115.76083
115.57325
115.37034
115.15188
114.92077
114.67387
114.41643
114.1416
113.85602
113.55314
113.23359
112.90316
112.54219
112.18386
111.77879
111.38257
110.93593
110.49838
110.00691
109.52796
108.99723
108.47343
107.90904
107.34232
106.74123
106.14547
105.51314
104.87843
104.23126
103.56295
102.90513
102.20345
101.51491
100.83336
100.10181
99.405506
98.688925
97.958113
97.247052
96.517222
95.7951
95.060607
94.337876
93.617135
92.875506
92.154389
91.429107
90.703415
89.99226
89.259176
88.532647
87.848524
87.126362
86.395569
85.734828
85.009093
84.282645
83.623457
82.905005
82.190535
81.514637
80.812314
80.092184
79.393597
78.725358
77.997854
77.288182
76.648069
75.927879
75.20541
74.566312
73.866286
73.148344
72.477146
71.780791
71.099767
70.37756
69.655308
69.012365
68.270833
67.528671
66.891055
66.185254
65.424302
64.726848
64.055809
63.300713
62.579376
61.920205
61.202027
60.471715
59.754455
59.074467
58.354499
57.590406
56.893759
56.20533
55.479337
54.751246
54.03283
53.346914
52.655384
51.873425
51.167027
50.536249
49.750798
49.005346
48.355114
47.618195
46.883201
46.175352
45.445172
44.716475
43.987599
43.261401
42.546852
41.832185
41.088249
40.372033
39.696917
38.952905
38.237801
37.536971
36.759523
36.101452
35.422303
34.636304
33.96226
33.273576
32.523742
31.833936
31.115106
30.366951
29.726853
29.054133
28.281803
27.602101
26.948475
26.244495
25.50976
24.771035
24.15758
23.513666
22.780956
22.146614
21.462754
20.713338
20.063487
19.423412
18.736612
18.080111
17.414192
16.709553
16.054882
15.409764
14.66662
14.006992
13.497222
12.814873
12.080949
11.474294
10.918563
10.273587
9.5874434
9.0024218
8.4144868
7.6750289
7.0310223
6.4897613
5.6350928
4.9113334
4.4442103
3.9722818
3.6114862
3.3372777
3.104556
2.863998
2.5960826
2.3044751
2.0116789
1.7157242
1.4155419
1.1411219
0.8722165
0.57266626
0.27371583
0.057520304
-0.10861398
-0.16608372
-0.15760341
-0.15028471
-0.15188486
-0.1548016
-0.15884424
-0.16539307
-0.17437441
-0.18508786
-0.19671373
-0.20849932
-0.22076785
-0.2324296
-0.24119017
-0.24777454
-0.25281364
-0.24990618
-0.23708907
-0.2273001
-0.21509112
-0.20362767
-0.19501019
-0.18746847
-0.18243343
-0.18078444
-0.18105429
-0.18182815
-0.18430941
-0.18801184
-0.19116925
-0.19420222
-0.19623139
-0.19607299
-0.19532895
-0.19932871
-0.20714354
-0.17862811
-0.16204276
-0.13462353
-0.084892226
-0.19247028
-0.20308867
5.5996543
38.258346
73.143562
106.84193
141.95539
178.55026
216.77879
253.64628
289.73164
323.73041
355.83624
384.36577
406.94107
419.14863
107.21086
107.25229
107.30688
107.35868
107.38457
107.38308
107.35189
107.29112
107.20269
107.08916
106.95321
106.79729
106.62362
106.43388
106.22975
106.01168
105.78137
105.5373
105.28225
105.01202
104.72992
104.43231
104.1169
103.79063
103.4343
103.07806
102.67448
102.28101
101.83356
101.39018
100.90563
100.40994
99.887066
99.346267
98.78098
98.206052
97.595973
96.994597
96.353674
95.712667
95.05699
94.380605
93.716559
93.008722
92.312374
91.628378
90.890492
90.180585
89.473933
88.730015
88.01392
87.297044
86.559072
85.827971
85.113289
84.375504
83.647074
82.930261
82.197938
81.474233
80.761319
80.037571
79.318313
78.631911
77.916288
77.190362
76.532098
75.814113
75.100784
74.443154
73.724411
73.031109
72.342654
71.63508
70.948161
70.238943
69.551501
68.85752
68.158386
67.485603
66.789491
66.093457
65.435782
64.742435
64.045643
63.380985
62.68022
61.992684
61.279478
60.572748
59.908504
59.177941
58.46492
57.788588
57.083575
56.355503
55.646799
54.970866
54.216349
53.498127
52.842948
52.12216
51.398567
50.685284
49.992625
49.279929
48.540396
47.827562
47.137867
46.414956
45.682509
44.981557
44.271837
43.576051
42.838237
42.123415
41.458394
40.704839
40.000239
39.303624
38.567933
37.866314
37.109303
36.395716
35.694055
34.94198
34.224298
33.500529
32.769905
32.045683
31.315479
30.626989
29.922908
29.22019
28.519718
27.75296
27.08472
26.378172
25.604059
24.924541
24.192204
23.496013
22.816167
22.075783
21.384323
20.71571
20.00658
19.309084
18.607961
17.914852
17.283687
16.527065
15.740717
15.129773
14.430818
13.71859
13.123933
12.456718
11.69341
11.0156
10.453273
9.7824081
9.0479807
8.4834036
7.8391469
7.0359925
6.4525704
5.7242144
4.8532261
4.3964259
3.9478191
3.5705235
3.2574597
2.9909111
2.6987297
2.3795846
2.0796416
1.7815909
1.4570285
1.1471305
0.83780044
0.50574606
0.19134859
-0.10103483
-0.16706492
-0.17272499
-0.16584925
-0.16151476
-0.15835012
-0.15567764
-0.154178
-0.15430947
-0.1553624
-0.15659692
-0.15860355
-0.16039535
-0.15985547
-0.15828463
-0.15242788
-0.1490136
-0.15342608
-0.15504371
-0.15483697
-0.15770621
-0.16118517
-0.16652431
-0.17454725
-0.18417812
-0.19536943
-0.20765746
-0.22010694
-0.23278074
-0.24558563
-0.25675251
-0.2651897
-0.26913283
-0.26554369
-0.25379168
-0.24254405
-0.23063675
-0.21882344
-0.2091431
-0.20183515
-0.19721509
-0.19578143
-0.19698748
-0.19939474
-0.20270169
-0.20672239
-0.21099995
-0.21583706
-0.22050058
-0.22388899
-0.22666496
-0.22685445
-0.21910543
-0.21260975
-0.20623263
-0.19670514
-0.19060028
-0.20698792
-0.18548832
0.0031500287
-0.2282256
11.001917
51.789265
98.996108
143.84542
187.43485
229.77527
269.25273
305.45484
338.10064
365.26965
385.93724
397.16104
98.081501
98.122454
98.177316
98.227144
98.250251
98.244226
98.20721
98.139752
98.044352
97.92415
97.782255
97.621458
97.444137
97.252166
97.047075
96.829707
96.60091
96.360457
96.108555
95.844414
95.566343
95.275776
94.965336
94.643762
94.294612
93.935809
93.542974
93.140157
92.703784
92.24541
91.77267
91.254174
90.740532
90.18197
89.612626
89.028301
88.41173
87.795534
87.153567
86.495566
85.840868
85.150564
84.474063
83.774543
83.05647
82.363152
81.638675
80.898236
80.204359
79.456346
78.722398
78.023786
77.27059
76.541924
75.841621
75.079573
74.368667
73.656749
72.909366
72.196031
71.486132
70.763711
70.044644
69.369899
68.659674
67.931209
67.285536
66.578243
65.870833
65.214878
64.507896
63.825644
63.124998
62.427282
61.752451
61.03659
60.348498
59.670214
58.976992
58.29184
57.613455
56.933646
56.269708
55.585487
54.914793
54.243385
53.528056
52.865124
52.153946
51.437572
50.772078
50.054775
49.353672
48.656647
47.966175
47.244152
46.513148
45.858137
45.111576
44.379806