/*--------------------------------*- C++ -*----------------------------------*\
| =========                 |                                                 |
| \\      /  F ield         | OpenFOAM: The Open Source CFD Toolbox           |
|  \\    /   O peration     | Version:  2106                                  |
|   \\  /    A nd           | Website:  www.openfoam.com                      |
|    \\/     M anipulation  |                                                 |
\*---------------------------------------------------------------------------*/
FoamFile
{
    version     2.0;
    format      ascii;
    arch        "LSB;label=32;scalar=64";
    class       volScalarField;
    location    "0.24";
    object      p_rgh;
}
// * * * * * * * * * * * * * * * * * * * * * * * * * * * * * * * * * * * * * //

dimensions      [1 -1 -2 0 0 0 0];

internalField   nonuniform List<scalar> 
32768
(
200.88151
200.94687
200.9995
201.05659
201.09403
201.11004
201.10152
201.06691
201.00623
200.92037
200.81041
200.67717
200.52195
200.34579
200.1488
199.93627
199.69722
199.45767
199.17546
198.90318
198.60308
198.27222
197.95891
197.60252
197.22515
196.85989
196.46129
196.03357
195.60618
195.16803
194.69554
194.21047
193.70932
193.20014
192.6742
192.11676
191.54664
190.97701
190.39091
189.77877
189.15665
188.5188
187.88049
187.23042
186.56493
185.88866
185.19377
184.51654
183.8207
183.09747
182.40602
181.70319
180.96265
180.23506
179.52401
178.80021
178.06722
177.33772
176.60934
175.87922
175.13836
174.39686
173.68526
172.96984
172.22523
171.48824
170.76245
170.0441
169.32833
168.59431
167.85734
167.14847
166.44415
165.72016
164.99502
164.2696
163.54823
162.84381
162.13201
161.408
160.70223
159.99028
159.26344
158.56186
157.85892
157.12111
156.40517
155.72266
155.0025
154.27381
153.58077
152.87091
152.1348
151.4156
150.72614
150.02161
149.27524
148.54725
147.85955
147.13656
146.39223
145.70363
145.00296
144.25048
143.52504
142.82778
142.1033
141.37332
140.65463
139.92805
139.20388
138.47783
137.75016
137.04551
136.33511
135.59438
134.8702
134.166
133.42514
132.67683
131.9829
131.27981
130.52073
129.79437
129.11094
128.37731
127.61825
126.90751
126.20324
125.46833
124.73963
124.02331
123.29509
122.56718
121.85419
121.12861
120.39455
119.69178
118.98721
118.24932
117.51905
116.83174
116.13742
115.39848
114.68194
114.00768
113.3084
112.57144
111.86269
111.191
110.48266
109.76162
109.08392
108.40447
107.7076
107.02104
106.3304
105.6385
104.95829
104.27805
103.6026
102.92886
102.25284
101.59385
100.92997
100.24483
99.565118
98.907268
98.255284
97.582585
96.913909
96.290415
95.66846
95.003924
94.340297
93.707896
93.080925
92.429408
91.774931
91.158486
90.55298
89.924084
89.300579
88.696213
88.083858
87.462303
86.851215
86.261809
85.672925
85.062888
84.463793
83.904254
83.343005
82.757896
82.188393
81.632803
81.086202
80.541043
80.019864
79.490178
78.969147
78.490002
78.016826
77.543867
77.065411
76.642955
76.246567
75.837761
75.480949
75.19098
74.971235
74.777837
74.708124
74.717386
74.783714
74.973848
75.324132
75.872203
76.646277
77.662249
78.923506
80.588852
82.693868
85.375779
88.628263
92.606373
97.470029
103.4773
110.85212
119.40724
129.84943
142.01458
156.08071
172.64684
191.32053
212.27338
235.49319
259.9547
285.38316
310.12982
331.86266
347.99665
356.01561
361.13237
365.48639
365.01775
362.08968
358.45537
349.03377
332.10681
314.79458
311.59884
330.42735
366.44831
415.18105
432.34132
200.87296
200.91475
200.9672
201.02443
201.06125
201.07745
201.06872
201.03409
200.97337
200.88702
200.77643
200.64233
200.48653
200.30954
200.11246
199.89875
199.66098
199.41761
199.1395
198.86453
198.56217
198.23804
197.91856
197.55979
197.19356
196.8213
196.41633
196.00128
195.57198
195.1233
194.65722
194.17635
193.67036
193.15992
192.63253
192.07526
191.51121
190.93627
190.34271
189.73442
189.11738
188.47615
187.83233
187.18361
186.52033
185.83925
185.14742
184.47226
183.76668
183.05135
182.36024
181.64367
180.91405
180.19476
179.47073
178.74511
178.0197
177.28825
176.55772
175.82894
175.08865
174.35349
173.63725
172.90827
172.17623
171.45185
170.71423
169.99049
169.27975
168.54814
167.82099
167.10804
166.38529
165.67024
164.96145
164.23103
163.50317
162.79959
162.0883
161.37148
160.66459
159.94292
159.2251
158.53017
157.81126
157.07752
156.38311
155.68424
154.94806
154.24411
153.55353
152.82425
152.09592
151.3913
150.69105
149.96737
149.23571
148.53435
147.82811
147.07911
146.3593
145.68111
144.95335
144.20693
143.50322
142.7921
142.05803
141.33904
140.62164
139.89722
139.17269
138.43608
137.71435
137.01296
136.28384
135.55107
134.85022
134.12931
133.36969
132.64949
131.96364
131.22209
130.46985
129.78466
129.08293
128.31995
127.58861
126.88775
126.15657
125.42222
124.70829
123.9835
123.25552
122.54297
121.81932
121.07952
120.36698
119.67135
118.93942
118.19959
117.50045
116.80986
116.0777
115.34754
114.66513
113.97608
113.2494
112.53246
111.8493
111.15389
110.42855
109.73717
109.06381
108.35585
107.65982
106.99053
106.30258
105.60252
104.91864
104.24631
103.57083
102.89326
102.22659
101.56346
100.88892
100.20846
99.529567
98.86763
98.220293
97.550835
96.878057
96.247231
95.627319
94.977163
94.316086
93.675455
93.045299
92.400137
91.749927
91.120936
90.503862
89.890839
89.274878
88.65723
88.045565
87.429989
86.812009
86.219227
85.638744
85.037098
84.437829
83.86509
83.303793
82.728788
82.16552
81.59872
81.046947
80.4977
79.972188
79.446653
78.920898
78.437896
77.956433
77.495513
77.02
76.585253
76.179336
75.786369
75.417754
75.099725
74.855787
74.669208
74.556391
74.50141
74.54165
74.715359
75.022572
75.531629
76.291205
77.209256
78.418883
80.019403
81.983586
84.411233
87.42984
91.256724
95.939424
101.63802
108.66562
116.82231
126.66001
138.36931
151.7712
167.56338
185.40598
205.42909
227.44218
250.66506
275.07733
298.80249
321.15799
341.10958
355.93401
365.13654
368.43557
365.11397
361.59989
358.55492
347.37481
328.53724
305.89466
293.19907
306.33717
340.54031
381.68451
402.28283
200.78812
200.84441
200.8971
200.95421
200.99069
201.00631
200.99685
200.96128
200.89981
200.81299
200.70225
200.56792
200.41292
200.23537
200.04047
199.8245
199.59104
199.34353
199.07149
198.79383
198.49106
198.17351
197.84779
197.4926
197.1325
196.75083
196.35153
195.94055
195.50421
195.05807
194.59607
194.10751
193.60464
193.09927
192.55937
192.00438
191.44868
190.86456
190.26709
189.66454
189.04315
188.39744
187.75822
187.1115
186.43758
185.74976
185.07701
184.39169
183.67451
182.97872
182.27511
181.54734
180.83298
180.11386
179.38305
178.66053
177.93337
177.19742
176.47352
175.74157
174.99912
174.28007
173.55456
172.81237
172.09835
171.36912
170.6208
169.9167
169.20588
168.46523
167.74714
167.02837
166.30001
165.59986
164.88709
164.15031
163.43343
162.72893
162.01842
161.30726
160.5875
159.86275
159.16801
158.46757
157.72475
157.01619
156.34228
155.60503
154.87163
154.20217
153.4914
152.7441
152.03331
151.34433
150.62884
149.88695
149.18019
148.49805
147.75228
146.99877
146.33343
145.63609
144.861
144.1474
143.46294
142.72095
141.99471
141.2919
140.56424
139.8436
139.11645
138.37043
137.6653
136.9649
136.21951
135.49723
134.80474
134.05867
133.30123
132.62018
131.92279
131.14293
130.41783
129.76311
129.01966
128.24218
127.54687
126.84606
126.09237
125.36553
124.66021
123.92512
123.19935
122.49656
121.76205
121.02099
120.3283
119.62864
118.87402
118.14009
117.47075
116.76894
116.0061
115.29679
114.64403
113.92759
113.16565
112.47838
111.82849
111.09416
110.35795
109.71004
109.04039
108.30701
107.60175
106.93306
106.25738
105.56122
104.86207
104.18821
103.52171
102.84606
102.1858
101.52321
100.84147
100.16563
99.500993
98.828036
98.149817
97.498021
96.866022
96.216753
95.557193
94.923892
94.292976
93.638546
92.97872
92.341762
91.725151
91.095439
90.450438
89.830906
89.231225
88.613473
87.988938
87.379786
86.778376
86.173956
85.569506
84.988555
84.416596
83.830067
83.241386
82.671743
82.11055
81.549981
81.005153
80.447823
79.906657
79.386333
78.892594
78.390204
77.881446
77.406748
76.942009
76.506494
76.05663
75.665391
75.297285
74.984799
74.689524
74.447264
74.308898
74.207797
74.227496
74.324318
74.560117
74.963954
75.556441
76.360504
77.438623
78.865047
80.659956
82.769029
85.455779
88.984013
93.088991
98.221901
104.41167
111.76749
120.78929
131.2102
143.50892
157.73336
173.81491
192.18427
212.06069
233.08291
255.13316
276.81066
297.71253
316.32947
331.10301
342.01291
349.94229
355.37351
358.91638
354.0121
337.70171
313.21413
285.60138
269.01478
280.10706
315.72891
355.75111
377.96665
200.69518
200.73676
200.79024
200.84737
200.88345
200.8983
200.88781
200.85104
200.7882
200.7
200.58781
200.45216
200.2957
200.11699
199.92131
199.70367
199.47203
199.2208
198.9528
198.67286
198.36918
198.05771
197.7264
197.37297
197.01898
196.62929
196.23551
195.82386
195.38861
194.93912
194.47759
193.98803
193.48895
192.97728
192.43309
191.88256
191.32655
190.73618
190.13575
189.53356
188.90939
188.26411
187.62332
186.97233
186.2913
185.60738
184.94134
184.23993
183.52747
182.83905
182.11811
181.39358
180.6904
179.9661
179.23087
178.50897
177.78033
177.04716
176.32386
175.58573
174.85316
174.14074
173.39968
172.66116
171.95673
171.21666
170.47869
169.78426
169.05544
168.32321
167.62252
166.88407
166.15362
165.47376
164.7571
164.01521
163.30997
162.60527
161.8844
161.17878
160.46518
159.73869
159.05061
158.3463
157.59835
156.91292
156.23309
155.47039
154.764
154.10434
153.36374
152.62636
151.94115
151.24316
150.50729
149.76799
149.08389
148.40092
147.63366
146.89058
146.24509
145.52557
144.74194
144.05577
143.37202
142.6185
141.89669
141.19055
140.46102
139.74284
139.00994
138.27652
137.58095
136.85786
136.11333
135.4219
134.71851
133.94402
133.21184
132.55493
131.81517
131.02365
130.35358
129.68677
128.89477
128.14868
127.48027
126.74129
125.98593
125.29083
124.56686
123.82239
123.13159
122.41609
121.64452
120.93222
120.26757
119.52627
118.75461
118.07098
117.42191
116.66963
115.89591
115.23819
114.58059
113.8165
113.06806
112.4242
111.75287
110.98533
110.27133
109.64417
108.95738
108.21959
107.53111
106.86238
106.16763
105.47799
104.79817
104.11214
103.43731
102.77536
102.09893
101.42137
100.76355
100.09571
99.420185
98.765158
98.102371
97.421366
96.766958
96.145402
95.513577
94.845859
94.189513
93.569017
92.933054
92.26491
91.620053
91.012448
90.408126
89.777925
89.131036
88.523289
87.935867
87.309123
86.686514
86.114314
85.526371
84.908696
84.32074
83.770549
83.19379
82.594083
82.01207
81.4561
80.912445
80.356407
79.832184
79.302602
78.787985
78.277628
77.821697
77.331778
76.829992
76.371184
75.930057
75.517888
75.073862
74.748863
74.4458
74.192895
73.96462
73.788334
73.761265
73.780422
73.91913
74.220457
74.67335
75.309898
76.159945
77.226693
78.623005
80.474205
82.774297
85.671637
89.187678
93.569494
98.869539
105.19622
112.88435
122.0504
132.69112
145.15379
159.49757
175.46553
193.31268
212.49348
232.19982
252.1052
271.59027
289.33959
304.85814
318.22144
329.03988
336.37633
337.91591
333.60219
322.81488
304.0537
282.8128
270.40963
283.93591
319.79119
360.49366
382.08067
200.5493
200.59252
200.6467
200.70377
200.73929
200.75304
200.74113
200.70267
200.63797
200.54788
200.43389
200.29664
200.13879
199.95899
199.76282
199.54457
199.31366
199.06208
198.79541
198.51627
198.21261
197.90463
197.57162
197.22055
196.87
196.47493
196.09002
195.67218
195.24148
194.78822
194.32931
193.83571
193.34065
192.82058
192.27939
191.7267
191.1662
190.57551
189.97009
189.36727
188.74005
188.09442
187.44922
186.79446
186.10901
185.43184
184.76014
184.04779
183.34623
182.65184
181.92238
181.20715
180.50208
179.7738
179.04022
178.3145
177.58649
176.86196
176.13266
175.39091
174.66998
173.95241
173.20586
172.48108
171.77213
171.02639
170.30699
169.61056
168.86558
168.14549
167.45326
166.70956
165.98277
165.30037
164.58751
163.85754
163.15212
162.44166
161.71748
161.02176
160.31391
159.58185
158.90147
158.19808
157.44413
156.7712
156.08932
155.32093
154.62437
153.95993
153.2229
152.49289
151.80246
151.10884
150.37182
149.62316
148.94945
148.2705
147.49151
146.76429
146.12175
145.37628
144.60573
143.93333
143.23606
142.49362
141.77605
141.05141
140.33287
139.62432
138.86979
138.14301
137.47305
136.73712
135.97363
135.29223
134.60169
133.82426
133.09422
132.44295
131.68992
130.88774
130.23712
129.57239
128.76377
128.03026
127.37272
126.61972
125.8571
125.16506
124.43794
123.697
123.01711
122.30903
121.533
120.80973
120.15188
119.41671
118.62681
117.94491
117.32031
116.56417
115.77599
115.13202
114.47766
113.68582
112.93954
112.32824
111.65075
110.85962
110.16354
109.54815
108.83134
108.0843
107.42326
106.77251
106.06328
105.34896
104.68846
104.03676
103.34096
102.65354
102.00249
101.32861
100.63026
99.964107
99.322343
98.661096
97.985915
97.330352
96.685625
96.027814
95.389219
94.76789
94.111068
93.450311
92.824306
92.193553
91.537475
90.88484
90.266307
89.67131
89.053285
88.408353
87.791953
87.211617
86.60986
85.996986
85.410846
84.840852
84.23912
83.643953
83.07829
82.519016
81.927022
81.337884
80.78415
80.223445
79.690102
79.166002
78.668431
78.132224
77.639833
77.164204
76.698404
76.227264
75.757764
75.339962
74.890137
74.492357
74.091997
73.807363
73.543493
73.306132
73.149028
73.064192
73.123318
73.261657
73.535698
74.024508
74.71215
75.632762
76.753434
78.107207
79.93099
81.86286
84.664221
88.027715
92.12547
97.386523
103.4525
110.92795
119.7945
130.12159
142.15651
156.04699
171.64472
188.78561
206.93443
225.21577
243.7818
261.50397
277.83066
292.64323
305.06422
314.26508
319.39746
320.20931
316.96761
308.88705
301.70977
304.04352
320.48621
352.14016
382.70398
405.36706
200.37043
200.41254
200.46691
200.52365
200.55834
200.57066
200.55691
200.51631
200.44926
200.35682
200.24053
200.10137
199.94166
199.76082
199.5634
199.34497
199.11394
198.86232
198.59704
198.31802
198.01599
197.70956
197.37636
197.02881
196.678
196.28301
195.90362
195.47858
195.05507
194.59595
194.13994
193.64171
193.15078
192.61903
192.08554
191.526
190.95976
190.36875
189.75997
189.1554
188.52241
187.87674
187.2255
186.56743
185.87919
185.20753
184.52396
183.80513
183.11304
182.4086
181.68029
180.96928
180.25384
179.52754
178.79715
178.06559
177.34257
176.62135
175.88363
175.14806
174.4324
173.70367
172.96736
172.25256
171.52788
170.79108
170.09365
169.3768
168.62258
167.93001
167.2346
166.48319
165.77623
165.08515
164.35512
163.64742
162.96068
162.22552
161.49667
160.83249
160.11831
159.37367
158.71172
158.0079
157.25082
156.58463
155.89201
155.14048
154.45378
153.75988
153.03995
152.33245
151.61802
150.92529
150.20073
149.43949
148.77049
148.10615
147.31512
146.59026
145.95975
145.20054
144.42965
143.77172
143.07062
142.32412
141.60395
140.87342
140.16577
139.46833
138.70979
137.98047
137.31299
136.58123
135.8151
135.12426
134.4376
133.67154
132.94284
132.28533
131.53558
130.74875
130.07752
129.38603
128.61575
127.90121
127.20036
126.45909
125.73833
125.00649
124.24369
123.54451
122.87598
122.13387
121.3816
120.6843
119.99768
119.26429
118.49745
117.80039
117.15305
116.40858
115.64441
114.98715
114.31725
113.5498
112.81439
112.17122
111.48863
110.73413
110.04914
109.40714
108.67317
107.9372
107.28351
106.60978
105.91391
105.24137
104.54494
103.86497
103.22588
102.54802
101.85022
101.18979
100.52775
99.84312
99.172408
98.513625
97.853883
97.195645
96.545376
95.897862
95.245773
94.606318
93.979795
93.344977
92.700818
92.061308
91.434695
90.806094
90.146337
89.485752
88.882962
88.298447
87.67044
87.038907
86.457968
85.895573
85.288902
84.678933
84.11877
83.554992
82.933808
82.343941
81.808451
81.255316
80.650297
80.075244
79.555392
79.014808
78.475995
77.951498
77.476101
76.966229
76.458794
75.974596
75.527536
75.078442
74.597566
74.228146
73.807512
73.396746
73.025367
72.776794
72.524674
72.249847
72.143046
72.07549
72.151662
72.343084
72.614499
73.032445
73.582904
74.362802
75.552378
77.033112
79.009706
81.367584
84.338876
88.002391
92.328577
98.001314
104.55217
112.40495
122.47151
133.42631
146.82872
162.20258
177.52453
195.02708
212.72127
230.36403
248.18295
264.84556
279.98972
292.70385
303.09552
311.32719
317.51719
322.88325
329.76887
341.83958
362.15944
391.78473
425.45465
445.57584
200.15477
200.19652
200.25097
200.30716
200.34072
200.35122
200.33517
200.29189
200.22196
200.12665
200.00758
199.86605
199.70419
199.52203
199.32325
199.10476
198.8734
198.62233
198.35876
198.07954
197.78124
197.47454
197.14341
196.80048
196.44646
196.05706
195.67705
195.25131
194.82867
194.37001
193.91051
193.4144
192.91557
192.38661
191.85343
191.28378
190.71338
190.12155
189.50946
188.89965
188.26151
187.61531
186.95807
186.29544
185.60774
184.93245
184.23943
183.52373
182.83085
182.11625
181.39728
180.68197
179.95365
179.23734
178.50651
177.77139
177.05528
176.32518
175.58495
174.86358
174.14631
173.40628
172.68148
171.97641
171.2418
170.50837
169.82734
169.10469
168.34256
167.66532
166.97724
166.22555
165.52164
164.82939
164.09695
163.38921
162.7188
161.98758
161.24719
160.59295
159.88212
159.13385
158.4809
157.77758
157.02899
156.36512
155.65826
154.9264
154.24758
153.5342
152.82666
152.12493
151.39694
150.71287
149.99878
149.23256
148.55618
147.89474
147.11837
146.38653
145.74235
145.00642
144.24316
143.55926
142.87305
142.1404
141.38868
140.66431
139.98091
139.26679
138.51249
137.80378
137.12114
136.38451
135.62676
134.93018
134.25527
133.49712
132.75697
132.09437
131.34622
130.58117
129.90884
129.18113
128.4234
127.73408
127.00584
126.26059
125.58293
124.84607
124.04933
123.35645
122.69082
121.93777
121.18951
120.5086
119.83547
119.09448
118.32712
117.65397
116.99061
116.20858
115.46235
114.8146
114.11023
113.36901
112.68435
112.00706
111.28189
110.56147
109.91505
109.25656
108.49982
107.77681
107.14245
106.44616
105.71247
105.06236
104.41634
103.70681
103.01522
102.38166
101.72506
101.02743
100.35705
99.719473
99.054113
98.358326
97.689357
97.052033
96.390253
95.724276
95.097161
94.453608
93.786853
93.167623
92.568045
91.920942
91.267044
90.667956
90.05926
89.38396
88.712731
88.100526
87.520794
86.916539
86.282527
85.695073
85.144855
84.548108
83.930794
83.373388
82.810612
82.182743
81.592713
81.07793
80.523905
79.922852
79.40866
78.872476
78.3255
77.784748
77.269634
76.791005
76.271005
75.753367
75.227786
74.760407
74.267761
73.772978
73.355567
72.963093
72.543599
72.121879
71.792391
71.493442
71.279949
71.065695
71.009311
71.160746
71.366663
71.590235
71.823805
72.153494
72.417397
72.748589
73.434036
74.390137
75.844361
77.707845
80.137506
83.388445
87.262938
92.97792
100.20099
110.27057
122.30261
134.57014
149.38419
164.23939
179.72339
197.41318
215.64555
234.269
252.54777
270.2664
287.17504
303.46022
319.65283
336.41347
354.74326
377.38089
405.545
437.87747
464.89564
480.52199
199.90289
199.9445
199.99898
200.05443
200.08657
200.09483
200.07597
200.02943
199.95602
199.85724
199.73487
199.5905
199.42616
199.24243
199.04224
198.82366
198.59218
198.34184
198.08036
197.80123
197.50737
197.20056
196.87289
196.53424
196.1764
195.79645
195.40929
194.99122
194.56104
194.11193
193.63756
193.15351
192.63496
192.11813
191.5784
191.00029
190.42613
189.8364
189.21342
188.59627
187.95909
187.30544
186.64495
185.97555
185.29024
184.60565
183.90341
183.19788
182.49656
181.77539
181.06375
180.3412
179.60541
178.89636
178.16436
177.42986
176.71725
175.97172
175.23882
174.53449
173.80534
173.06513
172.34861
171.64062
170.90948
170.18607
169.50386
168.778
168.03142
167.35662
166.65414
165.92402
165.23431
164.51975
163.7928
163.10134
162.42238
161.69716
160.97441
160.30761
159.59056
158.86549
158.20815
157.50169
156.77816
156.10227
155.38534
154.68707
153.99434
153.26234
152.58854
151.87819
151.12959
150.46386
149.76205
149.00068
148.31594
147.63375
146.86894
146.15735
145.49139
144.75889
144.03011
143.32303
142.62342
141.91432
141.14954
140.42633
139.76559
139.03481
138.27369
137.5859
136.89358
136.15067
135.40811
134.7037
134.02185
133.28458
132.55733
131.87547
131.12266
130.3785
129.68684
128.9508
128.22168
127.51224
126.77123
126.0574
125.37464
124.62164
123.85271
123.17049
122.46023
121.70285
120.98784
120.28505
119.61435
118.90931
118.12693
117.44184
116.79641
116.01536
115.25389
114.6046
113.89236
113.14605
112.48951
111.82003
111.0664
110.34812
109.71735
109.04163
108.29481
107.62517
106.97247
106.23669
105.541
104.877
104.18169
103.5181
102.84949
102.14162
101.49411
100.86989
100.16667
99.479884
98.882944
98.229696
97.517151
96.863711
96.22736
95.557094
94.909959
94.284717
93.633019
92.967437
92.344916
91.738989
91.086374
90.43518
89.826416
89.206893
88.577151
87.954669
87.311356
86.702464
86.147006
85.558452
84.945173
84.357511
83.784523
83.180442
82.575646
82.002058
81.436809
80.819267
80.208443
79.65866
79.21568
78.666432
78.070259
77.572297
77.104567
76.591463
76.03189
75.53771
75.050288
74.529819
73.951502
73.382678
72.898006
72.269207
71.818629
71.449133
70.649999
69.971875
69.605427
67.002109
63.907056
61.134087
58.505723
55.962431
53.482369
51.203092
49.141854
47.198591
45.89356
44.77773
44.170008
44.329851
44.917915
46.407306
49.187519
52.43955
56.815185
67.803853
85.380735
98.020451
110.92972
126.64001
145.36302
164.12724
183.33908
203.22743
224.0451
246.55797
269.93282
293.64334
317.54267
343.31203
370.76863
400.71498
431.2326
460.55061
485.0047
499.30616
199.61506
199.65663
199.71112
199.76563
199.79602
199.80158
199.77932
199.72886
199.65128
199.54836
199.42212
199.27442
199.10727
198.92172
198.72013
198.50155
198.27009
198.02111
197.76169
197.48381
197.19446
196.88869
196.5649
196.23039
195.86963
195.50072
195.1056
194.69816
194.25682
193.81719
193.33133
192.85431
192.32649
191.80794
191.25744
190.68176
190.09374
189.50898
188.88106
188.25042
187.61152
186.95005
186.29066
185.6066
184.92026
184.2358
183.52025
182.8219
182.1096
181.38539
180.67549
179.94798
179.21784
178.49804
177.77055
177.04255
176.31808
175.57748
174.84863
174.1451
173.41742
172.67608
171.96272
171.26317
170.52979
169.81123
169.14088
168.4062
167.67251
167.00952
166.29118
165.56635
164.89872
164.18433
163.4456
162.76664
162.09505
161.35258
160.64846
160.00133
159.26311
158.54575
157.90715
157.19477
156.4747
155.79956
155.09253
154.41117
153.69677
152.96152
152.31562
151.58739
150.83403
150.19248
149.48684
148.71895
148.0363
147.36121
146.58989
145.87283
145.21923
144.4902
143.76141
143.06013
142.35969
141.63864
140.88025
140.16404
139.49692
138.77587
138.01516
137.31967
136.64799
135.90907
135.14012
134.45427
133.78197
133.00546
132.29685
131.64125
130.87371
130.145
129.44734
128.68766
127.97871
127.27021
126.51455
125.81599
125.12619
124.36302
123.6294
122.95441
122.21593
121.46534
120.75859
120.03444
119.36374
118.67307
117.90052
117.21142
116.53485
115.78641
115.06507
114.35411
113.63908
112.95653
112.25651
111.55732
110.85905
110.13433
109.47606
108.79297
108.03663
107.41367
106.7912
106.01761
105.32274
104.70222
103.98242
103.25951
102.63911
101.98668
101.25113
100.59464
99.972519
99.274863
98.613501
97.99211
97.343501
96.694263
96.019726
95.347174
94.741724
94.103912
93.447035
92.828662
92.194291
91.518932
90.877931
90.26134
89.576602
88.890674
88.317243
87.757247
87.102344
86.462954
85.903471
85.372424
84.825113
84.216422
83.598151
83.038557
82.457953
81.781184
81.19216
80.763223
80.027894
79.176911
78.91311
76.972339
72.128955
67.464189
62.902506
58.356356
53.689399
49.012705
44.469933
39.872623
35.192481
30.684806
26.2795
21.780429
17.414059
13.180913
8.8621551
4.7283591
0.9744572
-0.13126252
-0.12761377
-0.11607431
-0.10706451
-0.098519372
-0.090189374
-0.084211636
-0.080564285
-0.078561428
-0.076831072
-0.077392405
-0.077920071
-0.077781381
-0.077766542
-0.076857417
-0.07340586
-0.069534873
-0.055572339
0.28708002
7.8640518
20.477182
35.421601
53.791365
89.168819
117.22472
143.0708
168.77906
194.21887
220.44846
249.16909
279.8056
311.99215
344.73231
378.07784
410.84793
441.32395
469.84874
493.91171
506.81634
199.29153
199.33308
199.38758
199.4409
199.46922
199.47155
199.44522
199.39007
199.30752
199.19972
199.06897
198.91742
198.74716
198.55958
198.35667
198.1382
197.9071
197.6602
197.40276
197.12793
196.84235
196.53947
196.21992
195.88949
195.52852
195.17019
194.76512
194.3689
193.92226
193.48471
192.99324
192.51429
191.98356
191.45976
190.89537
190.32865
189.72756
189.1318
188.49946
187.86476
187.21759
186.54928
185.89146
185.18978
184.50124
183.81968
183.08814
182.39184
181.67525
180.94444
180.23338
179.50355
178.78143
178.04694
177.32421
176.60346
175.86184
175.14072
174.41544
173.68974
172.97859
172.24551
171.51898
170.83485
170.11269
169.3819
168.72116
167.99542
167.26897
166.60979
165.89133
165.17686
164.50097
163.79864
163.07851
162.37993
161.71169
160.98418
160.27451
159.6344
158.91421
158.19174
157.55264
156.85261
156.13467
155.46348
154.76712
154.0861
153.36389
152.64164
151.99869
151.25716
150.515
149.87738
149.17158
148.41063
147.71318
147.04214
146.28704
145.56571
144.90653
144.18836
143.45804
142.74078
142.0608
141.34083
140.57673
139.88009
139.19166
138.46567
137.73757
137.01916
136.33324
135.64171
134.85975
134.15336
133.52258
132.73713
131.99167
131.34144
130.60452
129.86953
129.16168
128.4315
127.7028
126.97393
126.24773
125.53318
124.81851
124.07458
123.35836
122.68325
121.93923
121.22413
120.5233
119.74585
119.08778
118.40863
117.62263
116.94859
116.25991
115.51007
114.82027
114.10143
113.35328
112.71318
112.04046
111.26813
110.58843
109.9348
109.23082
108.49609
107.75736
107.14391
106.5
105.76729
105.13294
104.44908
103.69967
103.04982
102.40974
101.72294
101.06644
100.40052
99.695882
99.041211
98.396092
97.652949
96.993321
96.483551
95.801201
95.067278
94.460623
93.904892
93.259916
92.573772
91.988751
91.400816
90.661358
90.017351
89.47609
88.621422
87.897662
87.384998
83.307352
77.213356
71.403328
65.73889
60.115418
54.453189
48.731767
43.005564
37.280974
31.548851
25.917518
20.379138
14.699552
9.0245812
3.7381556
0.099955749
-0.065988712
-0.057508401
-0.050189703
-0.051789851
-0.054706592
-0.058749233
-0.06529806
-0.0742794
-0.084992854
-0.096618716
-0.10840431
-0.12067284
-0.13233459
-0.14109516
-0.14767953
-0.15271863
-0.14981117
-0.13699406
-0.12720509
-0.11499611
-0.10353266
-0.094915176
-0.087373458
-0.082338417
-0.08068943
-0.080959275
-0.081733144
-0.084214402
-0.087916833
-0.091074237
-0.094107208
-0.096136374
-0.095977983
-0.095233936
-0.0992337
-0.10704853
-0.078533102
-0.061947748
-0.034528523
0.015202785
5.2143767
31.294012
74.084161
121.24467
156.12989
189.82826
224.94172
261.53659
299.76512
336.6326
372.71797
406.71674
438.82257
467.3521
489.9274
502.13496
198.9326
198.97403
199.02861
199.08041
199.1063
199.10481
199.07362
199.01286
198.92442
198.8109
198.67494
198.51902
198.34535
198.15561
197.95148
197.73341
197.5031
197.25904
197.00398
196.73375
196.45165
196.15405
195.83863
195.51236
195.15603
194.79979
194.39621
194.00275
193.55529
193.11191
192.62736
192.13167
191.6088
191.068
190.50271
189.92778
189.31771
188.71633
188.07541
187.4344
186.77872
186.10234
185.43829
184.73045
184.03411
183.35011
182.61222
181.90232
181.19566
180.45175
179.73565
179.01878
178.2808
177.5497
176.83502
176.09724
175.36881
174.65199
173.91967
173.19596
172.48305
171.7593
171.04005
170.35364
169.63802
168.91209
168.25383
167.53584
166.82252
166.16489
165.44614
164.75284
164.06439
163.35681
162.66989
161.96068
161.27323
160.57925
159.88012
159.20733
158.51122
157.81519
157.15751
156.46417
155.76738
155.10272
154.40195
153.71442
153.00121
152.29448
151.63024
150.89967
150.18665
149.51032
148.80531
148.07723
147.36853
146.6926
145.93808
145.21986
144.56468
143.84389
143.1203
142.40702
141.71436
141.00166
140.26213
139.54929
138.8596
138.13669
137.40424
136.70329
135.99357
135.29778
134.55997
133.84515
133.18013
132.42657
131.72197
131.02536
130.28967
129.58805
128.83103
128.11745
127.41579
126.66371
125.94603
125.22226
124.49164
123.76741
123.03721
122.34872
121.64464
120.94192
120.24145
119.47469
118.80645
118.0999
117.32579
116.64627
115.91394
115.21774
114.5379
113.79752
113.10606
112.43744
111.72831
111.03082
110.32969
109.63658
109.00542
108.2488
107.46245
106.85151
106.15255
105.44032
104.84567
104.17845
103.41514
102.73733
102.175
101.50414
100.76971
100.20514
99.560879
98.757724
98.174302
97.445946
96.574958
95.890528
90.587088
83.513116
76.66785
69.956901
63.207925
56.389845
49.628229
42.88141
36.032064
29.226603
22.475361
15.56606
8.7880366
2.3756715
-0.05643359
-0.062093666
-0.055217924
-0.050883428
-0.047718791
-0.045046317
-0.043546672
-0.043678145
-0.044731069
-0.04596559
-0.047972218
-0.049764026
-0.049224142
-0.047653302
-0.041796556
-0.038382271
-0.042794749
-0.044412388
-0.044205646
-0.047074886
-0.050553841
-0.05589298
-0.063915926
-0.073546795
-0.084738104
-0.097026129
-0.10947561
-0.12214942
-0.1349543
-0.14612118
-0.15455837
-0.15850151
-0.15491236
-0.14316035
-0.13191272
-0.12000542
-0.10819211
-0.098511773
-0.091203821
-0.086583762
-0.085150103
-0.08635615
-0.088763409
-0.092070361
-0.096091066
-0.10036862
-0.10520573
-0.10986925
-0.11325766
-0.11603363
-0.11622312
-0.1084741
-0.10197841
-0.0956013
-0.086073804
-0.079968952
-0.096356587
-0.074856993
0.556211
29.889693
91.070282
143.511
190.71784
235.56715
279.15659
321.497
360.97446
397.17657
429.82237
456.99138
477.65897
488.88277
198.53864
198.57959
198.63445
198.68428
198.70739
198.70136
198.66434
198.59689
198.50149
198.38129
198.23939
198.07859
197.90127
197.7093
197.50421
197.28684
197.05804
196.81759
196.56569
196.30155
196.02348
195.73291
195.42247
195.1009
194.75175
194.39294
194.00011
193.59729
193.16092
192.70254
192.2298
191.71131
191.19767
190.63911
190.06976
189.48544
188.86887
188.25267
187.6107
186.9527
186.298
185.6077
184.9312
184.23168
183.51361
182.82029
182.09581
181.35537
180.66149
179.91348
179.17953
178.48092
177.72772
176.99906
176.29876
175.53671
174.8258
174.11388
173.3665
172.65317
171.94327
171.22085
170.50178
169.82703
169.11681
168.38834
167.74267
167.03538
166.32797
165.67201
164.96503
164.28278
163.58213
162.88442
162.20959
161.49373
160.80563
160.12735
159.43413
158.74898
158.07059
157.39078
156.72684
156.04262
155.37193
154.70052
153.98519
153.32226
152.61108
151.89471
151.22921
150.51191
149.81081
149.11378
148.42331