/*--------------------------------*- C++ -*----------------------------------*\
| =========                 |                                                 |
| \\      /  F ield         | OpenFOAM: The Open Source CFD Toolbox           |
|  \\    /   O peration     | Version:  2306                                  |
|   \\  /    A nd           | Website:  www.openfoam.com                      |
|    \\/     M anipulation  |                                                 |
\*---------------------------------------------------------------------------*/
FoamFile
{
    version     2.0;
    format      ascii;
    arch        "LSB;label=32;scalar=64";
    class       volVectorField;
    location    "0.48";
    object      U_0;
}
// * * * * * * * * * * * * * * * * * * * * * * * * * * * * * * * * * * * * * //

dimensions      [0 1 -1 0 0 0 0];

internalField   nonuniform List<vector> 
6400
(
(0.010083412 -0.29788084 1.5885739e-16)
(0.02312321 -0.29784943 -1.1992069e-16)
(0.037706105 -0.29616921 1.1213556e-16)
(0.051411063 -0.29320925 3.2294153e-16)
(0.065150686 -0.28885588 9.1758865e-17)
(0.078491942 -0.28312125 -3.837848e-18)
(0.091431444 -0.27601284 -5.2331345e-17)
(0.10392019 -0.26749847 -5.5041025e-18)
(0.11583266 -0.25755485 -4.1002863e-17)
(0.12699721 -0.24619866 -4.820142e-17)
(0.13722744 -0.23350107 -3.2514905e-17)
(0.14634768 -0.21958871 -3.7986796e-17)
(0.15421151 -0.20463483 -2.7755217e-17)
(0.16071289 -0.1888456 2.4123149e-18)
(0.16579065 -0.17244505 8.4550853e-18)
(0.16942773 -0.15566104 -7.1805949e-17)
(0.1716468 -0.13871356 -4.0547451e-17)
(0.17250392 -0.12180588 -2.8457942e-17)
(0.17208123 -0.10511852 -1.3727047e-18)
(0.17047952 -0.088805733 3.8585104e-17)
(0.16781122 -0.07299418 1.5773765e-17)
(0.16419421 -0.05778324 1.3938599e-18)
(0.15974647 -0.043246658 2.4994919e-18)
(0.15458171 -0.029435079 -2.2259037e-17)
(0.14880617 -0.016379237 -3.434367e-17)
(0.14251899 -0.0040931867 -3.0322823e-18)
(0.1358077 0.0074233829 2.8952332e-17)
(0.1287422 0.018179471 5.3775114e-17)
(0.12138827 0.02819118 3.5216715e-17)
(0.11379756 0.037478045 6.2477419e-18)
(0.10601235 0.046061052 5.384811e-18)
(0.098066386 0.053960561 7.4102065e-18)
(0.089986302 0.061194694 1.8504778e-17)
(0.081793222 0.067778123 9.5093432e-18)
(0.073504414 0.073721272 1.5867093e-18)
(0.06513499 0.079029885 1.1719996e-17)
(0.056699421 0.083704943 2.9787205e-17)
(0.048213003 0.087742794 4.7532256e-17)
(0.039693574 0.091135768 3.9329076e-17)
(0.031162204 0.093872904 4.2946791e-17)
(0.022645344 0.095940768 3.7428433e-17)
(0.014174591 0.097324652 1.5533904e-17)
(0.0057839801 0.098010628 5.0841618e-18)
(-0.0025051095 0.097983842 -4.6283294e-18)
(-0.010623725 0.097231637 3.0142127e-17)
(-0.018509975 0.095749182 5.9372954e-17)
(-0.026111214 0.093536928 3.5458685e-17)
(-0.033362474 0.090602983 2.9294447e-18)
(-0.040195279 0.08696484 -8.1220497e-18)
(-0.046539166 0.082650866 1.3482952e-17)
(-0.0523237 0.077701427 2.0602108e-17)
(-0.057480803 0.072169645 1.8300844e-17)
(-0.061947359 0.066121647 6.2552036e-18)
(-0.065667966 0.059636221 -2.77377e-18)
(-0.068597693 0.052803778 -1.3688725e-17)
(-0.070704628 0.045724611 -7.5110692e-18)
(-0.071971883 0.038506481 -2.0491675e-18)
(-0.072399002 0.031261664 -1.787063e-17)
(-0.072002951 0.024103654 -1.0540251e-17)
(-0.070818277 0.017143619 -1.3596356e-17)
(-0.06889631 0.010486718 -1.1015133e-17)
(-0.066305626 0.0042290783 -5.6843051e-18)
(-0.063121974 -0.0015443814 -1.9473437e-17)
(-0.059432555 -0.0067639193 -9.2799891e-18)
(-0.055343017 -0.01137723 -1.2133946e-17)
(-0.050953206 -0.015348196 -1.13669e-17)
(-0.046365388 -0.018658367 3.5658012e-18)
(-0.04167964 -0.021305931 -3.0103096e-18)
(-0.036991004 -0.02330472 -7.1189878e-18)
(-0.032387137 -0.02468266 -7.5733975e-18)
(-0.027946415 -0.025479863 -1.0775998e-17)
(-0.023736535 -0.02574651 -5.629793e-18)
(-0.019813569 -0.025540656 1.4352912e-18)
(-0.01622135 -0.024925991 9.3598228e-19)
(-0.012991279 -0.023969515 2.3121207e-18)
(-0.010142777 -0.022739427 -2.3153033e-18)
(-0.0076839482 -0.021303432 -2.3511371e-18)
(-0.0056122335 -0.019726676 1.8685407e-18)
(-0.003916039 -0.018070134 1.6036753e-18)
(-0.0025740683 -0.016391259 1.7350462e-18)
(0.011510567 -0.32947493 2.3664396e-16)
(0.02627518 -0.3292119 -1.7876845e-16)
(0.042531253 -0.32689686 7.2005064e-17)
(0.057552443 -0.3232005 -6.137485e-17)
(0.072492491 -0.31816623 -1.2124265e-16)
(0.087003974 -0.31181257 9.9799383e-17)
(0.10116866 -0.30408747 -8.2983396e-17)
(0.11496379 -0.29485831 -7.4407605e-18)
(0.12823077 -0.28401559 5.8771225e-17)
(0.14073501 -0.27152389 -6.8022523e-18)
(0.15221879 -0.25743989 2.4244476e-17)
(0.16244225 -0.24190784 -7.8549318e-17)
(0.17121052 -0.22514096 -7.4287837e-17)
(0.17838763 -0.20739791 -5.7344292e-17)
(0.18390032 -0.18895941 -6.1146666e-17)
(0.18773452 -0.1701082 -3.5206038e-17)
(0.1899275 -0.15111335 -4.5019642e-17)
(0.19055801 -0.13221928 -5.9736494e-17)
(0.18973585 -0.11363878 -5.011368e-17)
(0.18759181 -0.09554947 -4.1180066e-17)
(0.18426857 -0.078093053 1.3786296e-17)
(0.1799129 -0.061376582 2.0611278e-18)
(0.17466909 -0.045475239 -3.2135472e-18)
(0.16867386 -0.030436141 -2.9900403e-17)
(0.16205282 -0.016282655 -2.7214114e-17)
(0.15492226 -0.0030184861 1.5057359e-17)
(0.14737891 0.0093687678 3.4542874e-17)
(0.13950242 0.02090082 4.7693676e-17)
(0.13136298 0.031606181 3.3298498e-17)
(0.12301424 0.041516462 2.6701911e-18)
(0.11449814 0.050663722 1.7816444e-17)
(0.10584612 0.059077984 1.8267271e-17)
(0.097081013 0.066785383 1.1980452e-17)
(0.088219142 0.07380682 4.9802721e-18)
(0.079272333 0.080157113 6.7389745e-18)
(0.070250029 0.085844564 2.786019e-18)
(0.061161134 0.090870915 1.3116412e-17)
(0.052015816 0.09523167 3.4163926e-17)
(0.042827521 0.098916789 3.9696103e-17)
(0.033613813 0.10191135 4.657166e-17)
(0.024398572 0.10419712 3.3087772e-17)
(0.015212693 0.10575346 1.5511749e-17)
(0.0060905747 0.1065589 9.3153203e-18)
(-0.0029468832 0.10659548 -9.0578935e-18)
(-0.01182481 0.10583744 1.2476921e-17)
(-0.020475244 0.10427613 4.2816581e-17)
(-0.028838635 0.10190516 4.5060032e-17)
(-0.036840876 0.098727008 8.9264948e-18)
(-0.04440259 0.09475512 -4.1165087e-18)
(-0.051440938 0.090015709 7.4013355e-18)
(-0.057871992 0.084549349 1.1689794e-17)
(-0.063613544 0.078412119 2.3493887e-17)
(-0.068588314 0.071676149 -3.3381124e-18)
(-0.072727412 0.064429433 -6.2390339e-18)
(-0.075973884 0.056774758 5.0792464e-18)
(-0.078286043 0.048827711 -4.879292e-18)
(-0.079640183 0.04071378 -5.5174352e-18)
(-0.080032476 0.032564684 -1.9591878e-17)
(-0.079480299 0.024514284 -2.1260772e-17)
(-0.078022758 0.016694066 -8.9565613e-18)
(-0.075719585 0.0092280934 -1.1834309e-17)
(-0.072649558 0.0022277265 -6.3188048e-18)
(-0.068901825 -0.0041975567 -2.2317446e-17)
(-0.064585509 -0.0099754719 -2.208082e-17)
(-0.059821543 -0.015043211 -1.2697796e-17)
(-0.054729071 -0.019360191 -1.2357675e-17)
(-0.049429023 -0.022907111 -5.6227161e-19)
(-0.044039076 -0.025684725 -7.7749778e-19)
(-0.038670362 -0.027712399 -8.3474568e-18)
(-0.033424677 -0.029026091 -8.7778551e-18)
(-0.0283923 -0.029675916 -7.3830572e-18)
(-0.023650441 -0.029723498 -3.9796328e-18)
(-0.019262243 -0.029239301 1.2660607e-18)
(-0.015276159 -0.028299961 -5.9726977e-18)
(-0.011725801 -0.026985487 -2.3242608e-18)
(-0.0086306625 -0.025376735 -9.2826317e-19)
(-0.0059970226 -0.023553529 -3.2022592e-18)
(-0.0038184611 -0.021592271 7.4954156e-19)
(-0.0020791603 -0.019563866 8.7169851e-19)
(-0.00074998505 -0.017535857 1.1315137e-19)
(0.013277292 -0.36564791 5.5211232e-16)
(0.030040434 -0.36472642 7.1008327e-16)
(0.048095239 -0.36123504 5.872627e-16)
(0.064415074 -0.35632259 3.2489234e-16)
(0.080501852 -0.35036422 1.0507158e-16)
(0.096189842 -0.34333351 9.3888225e-17)
(0.11167946 -0.33504742 6.2068773e-17)
(0.12697829 -0.325177 3.1037446e-18)
(0.14186125 -0.3134611 7.5127987e-18)
(0.15599024 -0.2997786 6.7571565e-17)
(0.16899823 -0.28416448 7.0823243e-17)
(0.18055289 -0.26679126 5.6925773e-17)
(0.19039408 -0.24793197 1.3997035e-17)
(0.19834956 -0.22792018 2.021253e-17)
(0.20433548 -0.20711436 -9.1293207e-18)
(0.20834741 -0.18586966 1.3234716e-17)
(0.21044659 -0.16451775 -9.2382176e-18)
(0.21074489 -0.14335367 -1.0059919e-17)
(0.20939015 -0.12262835 -1.9770436e-17)
(0.20655279 -0.10254571 -2.9028922e-17)
(0.20241428 -0.083263014 3.1851228e-17)
(0.19715746 -0.064893671 7.0165152e-17)
(0.19095879 -0.04751171 7.3027253e-18)
(0.18398253 -0.031157202 -3.7858039e-17)
(0.17637692 -0.01584205 -2.4508546e-17)
(0.16827934 -0.0015561846 1.7508703e-17)
(0.15979292 0.011731981 5.8351058e-17)
(0.15100991 0.024058181 2.725284e-17)
(0.14200375 0.035467609 -1.4536561e-17)
(0.13282915 0.046007364 -5.7971027e-18)
(0.12352617 0.055723368 7.4096425e-18)
(0.11412212 0.06465757 2.3781399e-17)
(0.10463405 0.072845875 -1.4503863e-18)
(0.095071388 0.080316684 -1.5333501e-17)
(0.085438462 0.087090006 -1.300108e-17)
(0.07573702 0.093177075 -2.2871955e-17)
(0.065968511 0.09858041 -8.8869733e-18)
(0.056136225 0.10329431 -6.0677175e-18)
(0.046247462 0.10730565 -1.4046673e-17)
(0.036314931 0.11059466 1.159398e-18)
(0.026359134 0.11313689 -1.5839295e-17)
(0.016408561 0.11490505 -1.8029326e-17)
(0.006499269 0.11586881 -1.9425403e-17)
(-0.003351643 0.11600086 -4.6351735e-17)
(-0.013062972 0.11526693 -4.5684195e-17)
(-0.022557743 0.1136489 -5.3382737e-18)
(-0.031770697 0.11113172 2.5785408e-17)
(-0.040617031 0.10771029 -8.1342432e-18)
(-0.049004618 0.10339199 -3.7743449e-17)
(-0.056835938 0.098199215 -3.5724959e-17)
(-0.064010789 0.092171455 -1.0176465e-17)
(-0.070429647 0.085367044 9.5740752e-18)
(-0.075997603 0.077864132 -3.096496e-18)
(-0.080628724 0.069760774 -1.6904109e-17)
(-0.084250603 0.061173896 4.5462443e-19)
(-0.086808743 0.052237043 1.4683477e-17)
(-0.088270233 0.04309688 1.0456557e-17)
(-0.088626355 0.033908624 2.5758807e-18)
(-0.087894436 0.024831006 -1.4883328e-17)
(-0.086118902 0.016020429 -3.9657964e-18)
(-0.083371148 0.0076251924 2.6307667e-17)
(-0.079736755 -0.0002213246 1.3191202e-17)
(-0.075323385 -0.0073938245 -9.2077632e-18)
(-0.07027276 -0.013803623 -1.2502408e-17)
(-0.064718964 -0.019378766 -1.0249232e-18)
(-0.058805704 -0.024074144 1.5419138e-17)
(-0.052676535 -0.027870096 2.1989849e-17)
(-0.046470223 -0.030771129 1.101323e-17)
(-0.040316937 -0.032803898 -6.0055938e-18)
(-0.034335004 -0.034014556 8.7348024e-19)
(-0.028628415 -0.034465657 4.5259563e-18)
(-0.023285139 -0.034232839 3.5723781e-18)
(-0.018376124 -0.033401575 5.8771619e-18)
(-0.013954712 -0.032063963 -4.2587547e-18)
(-0.010056539 -0.030315458 -2.2787632e-18)
(-0.0067005942 -0.028252009 -3.2999441e-18)
(-0.0038904373 -0.025967789 2.1722289e-18)
(-0.0016148705 -0.023550547 2.0444607e-18)
(0.00014720947 -0.021088097 4.399292e-19)
(0.0014316037 -0.018654128 1.4573264e-18)
(0.015226966 -0.40726514 6.1985034e-16)
(0.034012447 -0.40490988 5.9200637e-16)
(0.053789366 -0.39945824 2.9146751e-16)
(0.071288886 -0.39266337 3.1879089e-16)
(0.088452438 -0.38553536 2.070333e-16)
(0.10540608 -0.37785023 8.5289197e-18)
(0.12245991 -0.36918756 6.0235025e-17)
(0.13963962 -0.35886214 3.5938767e-17)
(0.15658625 -0.34636893 2.73006e-17)
(0.17279672 -0.33146016 3.356748e-17)
(0.18774223 -0.3141475 1.4115921e-18)
(0.2009623 -0.29465472 6.0310211e-18)
(0.21211351 -0.27334809 -1.9541017e-18)
(0.22098413 -0.2506704 -1.1618673e-17)
(0.22748725 -0.22708762 3.3542938e-17)
(0.23164183 -0.20305049 4.0626039e-19)
(0.23354938 -0.17896969 -4.3085584e-17)
(0.23337121 -0.15520144 -4.2807767e-17)
(0.23130813 -0.13204073 -3.9078529e-17)
(0.22758316 -0.10971991 2.2294618e-18)
(0.22242738 -0.088411182 1.7196624e-17)
(0.21606853 -0.068231663 4.3255621e-17)
(0.20872213 -0.049250128 1.9383338e-17)
(0.20058506 -0.031494721 2.2736276e-17)
(0.19183074 -0.014960336 3.4599669e-17)
(0.18262416 0.00038479075 4.8116858e-17)
(0.17306998 0.014590475 5.7291575e-17)
(0.1632742 0.027716543 5.4321397e-17)
(0.153314 0.039828696 5.0983218e-17)
(0.14324305 0.050993137 4.980406e-17)
(0.1330973 0.061272841 2.4710011e-17)
(0.12289751 0.070724285 2.5751711e-17)
(0.11265242 0.079395126 3.1077e-17)
(0.10236198 0.087322664 3.0117853e-17)
(0.092020426 0.094532951 2.9064805e-17)
(0.081619389 0.10104051 2.2185604e-17)
(0.071150549 0.10684857 2.7326017e-17)
(0.060608154 0.11194973 3.2752195e-17)
(0.049991483 0.11632687 2.95151e-17)
(0.039306686 0.11995465 2.6879909e-17)
(0.028569766 0.12280066 -1.203372e-17)
(0.017805831 0.12482863 -3.3499457e-17)
(0.0070487175 0.12599909 -3.623958e-17)
(-0.0036850592 0.12627061 -4.7266258e-17)
(-0.014307331 0.12560087 -4.2449647e-17)
(-0.024736258 0.12395833 -7.0334304e-18)
(-0.034897524 0.12131669 2.2485102e-17)
(-0.044694545 0.11766056 3.4340647e-18)
(-0.054020516 0.11298874 -1.9646804e-17)
(-0.062760592 0.10731746 -1.2757124e-17)
(-0.070794991 0.10068329 -1.3412229e-17)
(-0.078002981 0.093145632 -2.2812972e-17)
(-0.084267691 0.084788364 -8.1121151e-18)
(-0.089481595 0.075720368 -2.2377588e-18)
(-0.093552397 0.066074667 2.4905791e-17)
(-0.096408827 0.056005909 4.1888433e-17)
(-0.098005637 0.045686185 1.7146394e-17)
(-0.098327078 0.035299364 -9.2964914e-18)
(-0.097389419 0.025034602 -2.5745526e-18)
(-0.095242192 0.015079025 1.2703347e-17)
(-0.091968454 0.0056113602 4.4197105e-17)
(-0.087671185 -0.0032067576 2.2426996e-17)
(-0.082480276 -0.011235485 -3.5456207e-18)
(-0.076562131 -0.01836173 -9.8598178e-18)
(-0.070080074 -0.024504173 -4.9196755e-18)
(-0.063205546 -0.029612871 2.5614267e-17)
(-0.056109098 -0.033668589 2.8603577e-17)
(-0.048954691 -0.036681228 1.1049896e-17)
(-0.041895003 -0.038687043 -1.3563436e-17)
(-0.035067631 -0.039745165 -1.256045e-17)
(-0.028592286 -0.039933634 4.7247824e-18)
(-0.022569002 -0.039345257 5.2040732e-18)
(-0.017077202 -0.038083651 3.2815335e-18)
(-0.012175272 -0.036259337 -6.7763875e-18)
(-0.0079006643 -0.03398596 -6.5374976e-18)
(-0.0042713242 -0.031377213 -7.1923605e-18)
(-0.0012851978 -0.028543972 1.4144122e-18)
(0.0010690587 -0.025592487 3.33756e-18)
(0.0028231145 -0.022622556 1.2351252e-18)
(0.0040286749 -0.019716758 8.0906897e-19)
(0.016755712 -0.4542838 9.2240279e-16)
(0.036878763 -0.44944374 1.1691928e-15)
(0.057874158 -0.44127555 2.9097188e-16)
(0.076311129 -0.43193836 4.138164e-16)
(0.094575845 -0.42362879 3.3854569e-16)
(0.11316495 -0.41553937 1.4549775e-16)
(0.13235961 -0.40692822 8.9212184e-17)
(0.15216671 -0.39650776 8.4470826e-17)
(0.17196656 -0.38342373 2.8071125e-17)
(0.19101103 -0.36726478 7.123686e-17)
(0.20854561 -0.3480331 9.3849948e-17)
(0.22394216 -0.32604794 6.3356368e-17)
(0.23675719 -0.30182312 7.004711e-17)
(0.24674203 -0.27596229 3.5123073e-17)
(0.25382354 -0.24908087 8.0714453e-17)
(0.25806915 -0.22175536 8.646426e-17)
(0.25964838 -0.19449473 2.3308741e-18)
(0.25879816 -0.16772703 -2.9338845e-18)
(0.25579463 -0.1417957 -1.196562e-17)
(0.25093154 -0.11696166 6.5779296e-17)
(0.24450364 -0.093409226 6.3446316e-17)
(0.23679423 -0.071254413 2.7651213e-17)
(0.22806568 -0.050554609 6.6818947e-17)
(0.21855312 -0.031319137 3.3651352e-17)
(0.20846106 -0.013518763 5.4942259e-17)
(0.19797681 0.0029071628 1.2867974e-16)
(0.1872137 0.018032299 9.7507915e-17)
(0.17629078 0.031948362 8.6720033e-17)
(0.16528432 0.044746634 7.6300547e-17)
(0.15424516 0.056516953 8.5681958e-17)
(0.14320254 0.067343116 1.1130475e-16)
(0.1321676 0.077299097 6.8810842e-17)
(0.12113753 0.086446524 4.1364688e-17)
(0.11009956 0.094833091 4.8774212e-17)
(0.099034742 0.10249177 8.2661319e-17)
(0.087921618 0.10944067 1.1248773e-16)
(0.076739352 0.11568353 9.3657151e-17)
(0.065470642 0.12121061 8.3956866e-17)
(0.054104636 0.12599985 1.0071999e-16)
(0.042638699 0.13001889 7.8967144e-17)
(0.031082153 0.13322614 6.6752119e-18)
(0.019456324 0.13557372 -4.9600894e-17)
(0.0077917597 0.13701018 -5.0814147e-17)
(-0.0038985004 0.13747952 -3.6626219e-17)
(-0.01551753 0.13692712 -3.2228203e-17)
(-0.026979104 0.13530516 3.2775606e-18)
(-0.038199713 0.13257282 1.9011382e-17)
(-0.049069368 0.12870103 -3.1654611e-19)
(-0.059464378 0.12367665 -1.4311911e-17)
(-0.069249545 0.11750662 -1.471479e-17)
(-0.078281604 0.11022197 -1.3041261e-17)
(-0.086413879 0.10188131 -1.7023837e-17)
(-0.093502126 0.092573427 -4.4375885e-18)
(-0.099411437 0.082418612 -1.764152e-18)
(-0.10402382 0.071568088 1.5714709e-17)
(-0.10724588 0.060201333 3.2639855e-17)
(-0.10901563 0.048521106 3.4309301e-17)
(-0.10930748 0.036746326 4.4566712e-18)
(-0.10813554 0.025103646 -1.6297366e-18)
(-0.10555464 0.013817647 5.7650878e-18)
(-0.10166393 0.0030996847 3.9850679e-17)
(-0.096581975 -0.0068393738 3.9547669e-17)
(-0.090471432 -0.015846399 1.4422844e-18)
(-0.08352958 -0.023786131 -8.3026893e-18)
(-0.075954236 -0.030563403 -7.5407315e-18)
(-0.067951156 -0.036122628 1.38827e-17)
(-0.059723806 -0.040446122 3.1548534e-17)
(-0.051466382 -0.043551454 1.9172882e-17)
(-0.04335816 -0.04548757 -7.1848655e-18)
(-0.035559118 -0.046330158 -1.563861e-17)
(-0.028206865 -0.046176567 -4.1175858e-18)
(-0.021414823 -0.045140611 6.4039973e-18)
(-0.015271426 -0.043347794 7.2600984e-18)
(-0.0098400237 -0.040930642 -4.0145756e-18)
(-0.0051595024 -0.038024715 -2.9456604e-18)
(-0.0012457537 -0.034764166 -5.8457769e-18)
(0.0019041221 -0.031281273 -1.6593094e-18)
(0.0043147601 -0.027702101 1.3646662e-18)
(0.0060300282 -0.024133746 2.5379702e-18)
(0.0071075309 -0.020679205 2.272536e-19)
(0.016714449 -0.50419408 9.3865735e-16)
(0.036211274 -0.49598094 1.1794582e-15)
(0.057264476 -0.48516529 6.674739e-16)
(0.076231021 -0.47310284 3.9564483e-16)
(0.095839837 -0.46439675 4.1208527e-16)
(0.11696692 -0.45663651 1.6934773e-16)
(0.13943878 -0.44893125 6.2111663e-17)
(0.16320141 -0.43902045 -1.5732298e-16)
(0.18714474 -0.42563388 -6.4552841e-17)
(0.21019711 -0.40818949 -8.3853418e-17)
(0.23131426 -0.38672308 -2.015327e-16)
(0.24966351 -0.36172396 -1.1115001e-16)
(0.26468588 -0.33393558 -1.5128085e-16)
(0.27610072 -0.30419782 -2.5010243e-17)
(0.28387251 -0.27333532 -3.5275017e-17)
(0.28815479 -0.24209095 -6.4462347e-17)
(0.28922863 -0.21109477 -7.1060073e-17)
(0.28744837 -0.18085596 -9.6809536e-17)
(0.2832008 -0.15176693 -1.7826076e-17)
(0.2768773 -0.12411277 8.728162e-17)
(0.26885569 -0.098082924 1.190257e-16)
(0.25948819 -0.073783985 3.423277e-17)
(0.24909307 -0.051253025 5.0935537e-17)
(0.23794932 -0.030471355 4.6820728e-17)
(0.22629576 -0.011376406 4.2453896e-17)
(0.21434256 0.0061298766 1.0693225e-16)
(0.20221429 0.022157753 8.7747227e-17)
(0.19003869 0.03683377 7.1930722e-17)
(0.17788913 0.050281937 8.448434e-17)
(0.16581021 0.062621493 6.7631042e-17)
(0.15382066 0.073961525 1.0136402e-16)
(0.141918 0.084396893 6.5376448e-17)
(0.13008381 0.094005606 1.1718789e-17)
(0.1182886 0.10284731 3.3234923e-17)
(0.1064965 0.11096271 6.0718379e-17)
(0.094669396 0.1183737 1.0209931e-16)
(0.082770732 0.12508414 1.0055248e-16)
(0.070768736 0.13108114 7.3610595e-17)
(0.058639783 0.13633659 1.1253782e-16)
(0.046370332 0.14080921 8.0434226e-17)
(0.033960744 0.14444665 -6.0701273e-18)
(0.021426142 0.1471874 -4.0244568e-17)
(0.0087921426 0.14896498 -4.1954482e-17)
(-0.0039305443 0.14970609 -3.0974477e-17)
(-0.016636968 0.14934058 -2.8878312e-17)
(-0.029240412 0.14780064 -1.9372655e-18)
(-0.041645181 0.14502696 1.679361e-17)
(-0.053726855 0.14097257 6.7399681e-18)
(-0.065342647 0.13560802 -1.9006239e-17)
(-0.076333643 0.12892683 -3.7410952e-17)
(-0.086528536 0.12095075 -3.7708515e-17)
(-0.095748969 0.11173475 -2.7591164e-17)
(-0.10381658 0.10137099 -2.7406427e-17)
(-0.11056161 0.089991284 1.0104761e-18)
(-0.11583281 0.077767251 4.0020584e-17)
(-0.11950756 0.064907567 1.2466887e-17)
(-0.12150137 0.051652114 -1.4924247e-17)
(-0.12177474 0.03826302 -3.4398366e-17)
(-0.12033841 0.025013814 5.0247706e-18)
(-0.11725717 0.012177228 4.4288586e-17)
(-0.11263303 9.1245286e-06 2.9375548e-17)
(-0.10661281 -0.01123695 4.5440388e-18)
(-0.099416491 -0.021373491 -2.1602393e-17)
(-0.091263 -0.030240869 5.7999741e-18)
(-0.082396014 -0.037729342 2.235661e-17)
(-0.073064386 -0.043778064 1.3376791e-17)
(-0.063511873 -0.048372876 2.3490401e-17)
(-0.053968998 -0.05154228 2.0205208e-17)
(-0.044646402 -0.053352058 5.5594761e-19)
(-0.035729905 -0.053899075 7.7341329e-19)
(-0.027377267 -0.053304811 1.4579456e-18)
(-0.019716564 -0.051708871 6.3833751e-18)
(-0.012845738 -0.049263289 2.0471662e-17)
(-0.0068331381 -0.046126921 2.3341361e-18)
(-0.0017176999 -0.042460088 1.433212e-18)
(0.0024851633 -0.038423795 5.0505353e-20)
(0.005787703 -0.034172353 1.849653e-18)
(0.0082259958 -0.029847552 9.5882777e-18)
(0.0098535462 -0.025581088 3.0748682e-18)
(0.010742615 -0.021489871 -3.0315529e-18)
(0.013829683 -0.55052049 9.5564764e-16)
(0.029089483 -0.53900181 8.0415557e-16)
(0.048409797 -0.5276897 6.4506246e-16)
(0.067226762 -0.51390796 1.0580268e-16)
(0.088621402 -0.5073247 1.5012979e-16)
(0.11388753 -0.50144002 9.4936029e-17)
(0.14137556 -0.49618189 2.9951942e-16)
(0.17106266 -0.48769811 2.3459214e-16)
(0.20094169 -0.47439859 1.9562273e-16)
(0.22959735 -0.45559691 2.5001669e-16)
(0.25565338 -0.43144696 1.7080785e-16)
(0.2780485 -0.40271422 1.5201323e-17)
(0.29608778 -0.37048106 -1.9997618e-17)
(0.30944881 -0.33592693 -2.8372723e-17)
(0.318146 -0.30017187 2.5376325e-17)
(0.32245705 -0.26418532 -7.6197983e-17)
(0.32283132 -0.22875051 4.2701322e-17)
(0.31980312 -0.19446651 -7.1979613e-17)
(0.31392602 -0.1617686 -1.3805455e-16)
(0.3057324 -0.13095289 -9.9275437e-17)
(0.29571276 -0.10219896 -1.8029767e-17)
(0.28430673 -0.075589446 2.876884e-17)
(0.2718992 -0.051127732 -4.8897866e-18)
(0.2588191 -0.028754604 2.8190827e-17)
(0.24534638 -0.0083620294 1.3167328e-17)
(0.23170632 0.01019838 2.7014262e-17)
(0.21803868 0.027082853 8.643494e-17)
(0.20447504 0.042461128 8.5146221e-17)
(0.19108264 0.056497533 9.4659481e-17)
(0.17789512 0.069347176 4.87812e-17)
(0.16491561 0.081149452 6.3991937e-17)
(0.1521228 0.092023823 8.5079191e-17)
(0.13947751 0.10206722 3.461616e-17)
(0.12692876 0.11135276 4.9581994e-17)
(0.11441917 0.11992956 6.1453094e-17)
(0.10188987 0.12782327 5.6577496e-17)
(0.089284821 0.13503727 8.9287801e-17)
(0.076554438 0.14155449 8.511697e-17)
(0.063659214 0.14733931 1.1780919e-16)
(0.050572108 0.15233968 1.0813351e-16)
(0.037282131 0.15649011 3.9680452e-17)
(0.023796271 0.15971313 1.9945825e-17)
(0.010133577 0.16192445 -4.2332228e-18)
(-0.0037011758 0.16303333 -2.3125726e-17)
(-0.017593261 0.1629432 -2.5520022e-17)
(-0.031457286 0.16156701 2.0797221e-17)
(-0.045185624 0.15882134 4.9636903e-17)
(-0.058638176 0.15463597 8.8458738e-18)
(-0.071650806 0.14895956 -1.449781e-17)
(-0.084037204 0.14176664 -1.6395572e-17)
(-0.095592793 0.13306454 -1.3759929e-17)
(-0.10610066 0.12290031 4.7372201e-18)
(-0.11533992 0.11136676 -1.3827912e-17)
(-0.12309646 0.098606653 4.7040477e-18)
(-0.12917569 0.084814061 -3.5573159e-18)
(-0.13341619 0.070231904 -1.9120687e-17)
(-0.13570285 0.055145029 -1.3261439e-18)
(-0.13597659 0.039869103 -3.0750066e-17)
(-0.13424104 0.024736787 2.9226634e-18)
(-0.13056865 0.010083053 1.5202251e-17)
(-0.12508208 -0.0037781826 -1.4689319e-17)
(-0.11795725 -0.016553308 -1.2426136e-17)
(-0.10946043 -0.027997696 -3.901248e-17)
(-0.099864181 -0.037925377 -5.3726676e-18)
(-0.089465234 -0.046210635 2.5285965e-17)
(-0.078564936 -0.052788348 -8.0195863e-18)
(-0.067456085 -0.057650969 -9.6108775e-18)
(-0.056412723 -0.060842575 3.7480597e-18)
(-0.045682324 -0.062451367 6.913815e-18)
(-0.035480336 -0.06260142 2.2100265e-17)
(-0.02598696 -0.061444421 2.0117829e-18)
(-0.017346027 -0.05915168 -1.2371449e-17)
(-0.0096650969 -0.05590712 9.5896514e-18)
(-0.0030155736 -0.051899456 -3.7683356e-18)
(0.0025615195 -0.047319998 1.2722076e-17)
(0.0070561666 -0.042360187 8.3325989e-18)
(0.010492787 -0.03719605 -8.8953494e-18)
(0.012916061 -0.031996312 4.90469e-18)
(0.014395435 -0.026913781 4.7940663e-18)
(0.015020502 -0.022083572 7.3100339e-18)
(0.0075572367 -0.58297242 1.2675479e-15)
(0.013579635 -0.57007312 1.3372849e-15)
(0.029385834 -0.56340873 6.7399043e-16)
(0.047035872 -0.55093559 1.3967346e-16)
(0.0706485 -0.55159072 -5.88697e-17)
(0.10228595 -0.55023877 -7.1874891e-17)
(0.13673809 -0.54992109 1.1660141e-17)
(0.17464582 -0.54410704 2.8334255e-16)
(0.21238657 -0.53137291 8.1472779e-17)
(0.24835682 -0.5111092 3.8550805e-17)
(0.28086021 -0.48371308 2.7251321e-16)
(0.3086136 -0.45034355 8.1291804e-17)
(0.3307532 -0.41253638 1.4376831e-16)
(0.3468598 -0.37193361 7.246791e-17)
(0.35695582 -0.330072 3.8781426e-17)
(0.36144236 -0.28824607 9.4280522e-17)
(0.36098317 -0.2474518 -3.7052083e-19)
(0.35636976 -0.20839687 -2.9227131e-18)
(0.34840671 -0.17154796 3.1070985e-18)
(0.337839 -0.13718567 5.0162216e-17)
(0.3253203 -0.10545016 1.1381913e-16)
(0.31140799 -0.076373883 7.1427983e-17)
(0.29656934 -0.049905353 3.1008311e-17)
(0.28119019 -0.025926962 2.7950608e-17)
(0.26560237 -0.0042702124 -1.0137222e-17)
(0.25002404 0.015281767 -4.0106197e-17)
(0.23462547 0.032939204 -4.3549626e-17)
(0.21953026 0.048926303 -2.53979e-17)
(0.20479509 0.063457058 -3.2098503e-18)
(0.1904363 0.076729675 -2.0028506e-18)
(0.17643466 0.088919336 -2.9027314e-17)
(0.16274341 0.10017402 -2.9121864e-17)
(0.14929633 0.11061212 -2.8489129e-17)
(0.13601501 0.12032159 -2.4149033e-18)
(0.12281524 0.12936034 -4.9056751e-18)
(0.10961261 0.13775742 -5.8359136e-17)
(0.096327321 0.14551487 -3.589842e-17)
(0.082888223 0.15261006 7.6501618e-18)
(0.069236501 0.15899809 1.2712695e-17)
(0.055328543 0.16461423 3.8126724e-17)
(0.041139262 0.16937723 2.6447349e-17)
(0.026664733 0.17319107 2.3346219e-17)
(0.01191814 0.17595008 1.7293198e-17)
(-0.0031094531 0.17754168 -2.2715727e-17)
(-0.018292348 0.17784214 -5.286685e-17)
(-0.03354533 0.17673743 -3.5741684e-18)
(-0.048752227 0.17411473 5.9265428e-17)
(-0.063756105 0.16987434 2.3987896e-17)
(-0.078369427 0.1639361 -1.5742774e-17)
(-0.092374703 0.15624818 -4.426609e-17)
(-0.10552822 0.1467964 -4.0297089e-17)
(-0.11756636 0.13561366 -4.8518939e-18)
(-0.12821532 0.12278889 2.0659408e-18)
(-0.1372044 0.10847391 7.9731678e-19)
(-0.1442825 0.092886958 1.6896687e-17)
(-0.1492366 0.076310892 1.3090646e-17)
(-0.15190972 0.059085234 -1.8160918e-17)
(-0.15221476 0.041592142 -2.4693931e-17)
(-0.15014333 0.024238043 3.8884176e-18)
(-0.14578119 0.0074348445 3.3217705e-17)
(-0.13926724 -0.0084233675 1.2142771e-17)
(-0.13082072 -0.022980713 -3.8471123e-17)
(-0.1207682 -0.035941822 -5.4293359e-17)
(-0.1094484 -0.047083226 -4.577231e-18)
(-0.097225918 -0.056260093 3.8924316e-17)
(-0.084467878 -0.063404705 -4.6808862e-18)
(-0.071527138 -0.068520831 -1.2295048e-17)
(-0.058729825 -0.071674691 -7.8291629e-18)
(-0.046366378 -0.072984425 -5.4415601e-18)
(-0.034685833 -0.072609222 2.8418632e-17)
(-0.023892946 -0.070738572 -1.031733e-17)
(-0.014147861 -0.067582626 -2.0464478e-17)
(-0.0055658778 -0.06336289 8.0751903e-18)
(0.0017785604 -0.058300089 -5.3611002e-18)
(0.0078399112 -0.052631199 2.8387682e-18)
(0.012625628 -0.046570803 -9.6200961e-18)
(0.016165034 -0.040329292 7.3817529e-19)
(0.018518765 -0.034101909 8.6330393e-18)
(0.019774131 -0.028066129 6.1385213e-19)
(0.020041392 -0.022378438 -2.4159386e-18)
(-0.0015729031 -0.590356 1.5553128e-15)
(-0.009807268 -0.58006751 1.716103e-15)
(0.0019586992 -0.58647732 3.1039456e-16)
(0.017415419 -0.58072303 -4.9114741e-16)
(0.043548131 -0.59624021 -3.7288082e-16)
(0.084025131 -0.60337791 -7.758086e-16)
(0.12674438 -0.61137726 -3.002346e-16)
(0.17476391 -0.60964423 -2.7388971e-16)
(0.22163799 -0.59800275 -4.3523987e-16)
(0.26607714 -0.57619359 -1.9959691e-16)
(0.30615635 -0.54500385 -1.3773795e-16)
(0.34043851 -0.50606579 -9.7529882e-17)
(0.3678596 -0.461431 -1.1902529e-16)
(0.38778686 -0.41330712 -4.7376617e-17)
(0.40010563 -0.36379653 -8.5316834e-17)
(0.40523403 -0.31467818 -2.8274207e-17)
(0.40402508 -0.26728464 -6.4621157e-17)
(0.39758385 -0.22249299 -7.7244744e-17)
(0.38707029 -0.18080101 -2.0475479e-17)
(0.37355263 -0.14243484 4.1300488e-17)
(0.35793583 -0.10744332 1.5164389e-17)
(0.34095112 -0.075761128 1.5053361e-17)
(0.32317709 -0.047245525 9.4568792e-18)
(0.3050664 -0.021693162 -5.3388252e-17)
(0.28702536 0.0011558442 -4.1722105e-17)
(0.26922439 0.021578056 -8.5843015e-17)
(0.25188321 0.039873858 -1.476623e-16)
(0.23510655 0.056330885 -1.2191921e-16)
(0.21893202 0.071222152 -1.2036521e-16)
(0.2033497 0.084796563 -9.6999536e-17)
(0.18830929 0.09727088 -1.5804519e-16)
(0.17373026 0.10882559 -1.8165819e-16)
(0.15951156 0.11960292 -1.447381e-16)
(0.14554031 0.12970668 -1.4328426e-16)
(0.13169919 0.13920351 -1.3248108e-16)
(0.11787281 0.14812503 -1.8434187e-16)
(0.10395289 0.15647056 -1.7044533e-16)
(0.089842508 0.16421013 -9.945033e-17)
(0.075459831 0.1712875 -9.3737082e-17)
(0.060741281 0.17762307 -2.2343579e-17)
(0.045644556 0.18311713 1.7396981e-17)
(0.030151929 0.18765233 1.72384e-17)
(0.014267541 0.19109868 2.1124192e-17)
(-0.0020320623 0.19331419 -2.4158475e-17)
(-0.018612556 0.19415041 -3.1847822e-17)
(-0.035394003 0.19345619 1.933299e-17)
(-0.052251168 0.19108344 6.8818321e-17)
(-0.069010522 0.18689548 4.6232631e-17)
(-0.085459947 0.18077466 -3.2467836e-18)
(-0.10134725 0.17263324 -2.6057104e-17)
(-0.11638325 0.16242578 -3.1994115e-17)
(-0.13024816 0.150162 -4.172503e-17)
(-0.14260253 0.13591982 3.0438798e-18)
(-0.15310341 0.1198563 -8.2053767e-18)
(-0.16142565 0.10221457 1.786787e-17)
(-0.167287 0.083323806 4.4001095e-17)
(-0.17047347 0.063590383 -8.6315141e-19)
(-0.17085933 0.043479787 -2.2163198e-17)
(-0.16841836 0.023490898 3.1161907e-18)
(-0.16324233 0.0041269593 3.11692e-17)
(-0.15549241 -0.014091874 4.6915035e-17)
(-0.14545935 -0.030749412 -5.8373408e-18)
(-0.13353599 -0.045479266 -2.4897667e-17)
(-0.12014704 -0.058012999 -2.321085e-18)
(-0.10574499 -0.068185269 1.2277153e-17)
(-0.090779902 -0.075929643 1.4307313e-17)
(-0.07567833 -0.081268668 1.4099738e-17)
(-0.060828461 -0.084300099 2.5932374e-18)
(-0.046570389 -0.085182222 -1.6437697e-17)
(-0.033190549 -0.084119535 -5.9429848e-18)
(-0.02091987 -0.08134906 -4.791804e-18)
(-0.0099341284 -0.077128932 -1.0451431e-17)
(-0.00034924733 -0.071714155 -2.0966322e-18)
(0.0077406437 -0.065388069 -3.9777032e-18)
(0.014312202 -0.058414576 -1.3682118e-18)
(0.019376248 -0.051049668 -1.82932e-17)
(0.022976133 -0.043537318 -7.8050921e-19)
(0.025190221 -0.036104097 2.8209527e-18)
(0.02612684 -0.028955807 1.1042447e-18)
(0.025920587 -0.022273753 -3.0527164e-18)
(-0.01191236 -0.56498907 1.0350987e-15)