/*--------------------------------*- C++ -*----------------------------------*\
| =========                 |                                                 |
| \\      /  F ield         | OpenFOAM: The Open Source CFD Toolbox           |
|  \\    /   O peration     | Version:  2106                                  |
|   \\  /    A nd           | Website:  www.openfoam.com                      |
|    \\/     M anipulation  |                                                 |
\*---------------------------------------------------------------------------*/
FoamFile
{
    version     2.0;
    format      ascii;
    arch        "LSB;label=32;scalar=64";
    class       volScalarField;
    location    "0.005";
    object      p_rgh;
}
// * * * * * * * * * * * * * * * * * * * * * * * * * * * * * * * * * * * * * //

dimensions      [1 -1 -2 0 0 0 0];

internalField   nonuniform List<scalar> 
4096
(
35.114857
34.776552
34.103203
33.101303
31.780514
30.153568
28.236151
26.046742
23.606441
20.938762
18.069405
15.026011
11.837898
8.5357631
5.1512786
1.7172007
-1.7333246
-5.1673258
-8.551653
-11.853707
-15.041702
-18.084944
-20.954129
-23.621624
-26.061737
-28.250962
-30.168206
-31.794995
-33.115651
-34.117445
-34.790722
-35.128991
-35.128991
-34.790722
-34.117445
-33.11565
-31.794994
-30.168206
-28.250962
-26.061737
-23.621624
-20.954129
-18.084944
-15.041702
-11.853707
-8.551653
-5.1673258
-1.7333246
1.7172007
5.1512787
8.5357631
11.837898
15.026011
18.069405
20.938762
23.606441
26.046742
28.236151
30.153568
31.780514
33.101303
34.103203
34.776552
35.114857
35.464318
35.12266
34.442638
33.430807
32.096923
30.453842
28.517401
26.306259
23.841723
21.147533
18.249642
15.175958
11.956082
8.6210086
5.2028083
1.7344829
-1.7506132
-5.218984
-8.6372117
-11.972382
-15.192385
-18.266214
-21.164266
-23.858625
-26.323336
-28.534647
-30.471249
-32.114473
-33.44848
-34.460406
-35.140494
-35.482186
-35.482186
-35.140494
-34.460406
-33.44848
-32.114473
-30.471249
-28.534647
-26.323336
-23.858625
-21.164266
-18.266214
-15.192385
-11.972382
-8.6372116
-5.2189839
-1.7506132
1.734483
5.2028083
8.6210086
11.956082
15.175958
18.249642
21.147533
23.841723
26.306259
28.517401
30.453842
32.096923
33.430807
34.442638
35.12266
35.464318
36.14758
35.799369
35.106302
34.075059
32.715575
31.040951
29.067319
26.81369
24.30177
21.55575
18.602069
15.469165
12.187197
8.7877537
5.3035471
1.768145
-1.7844385
-5.3200221
-8.8045617
-12.204506
-15.487116
-18.620775
-21.575295
-24.322207
-26.835035
-29.089554
-31.064025
-32.739404
-34.09953
-35.131277
-35.824691
-36.17308
-36.17308
-35.824691
-35.131277
-34.09953
-32.739404
-31.064025
-29.089554
-26.835035
-24.322207
-21.575295
-18.620775
-15.487116
-12.204506
-8.8045617
-5.3200221
-1.7844385
1.768145
5.3035471
8.7877538
12.187197
15.469165
18.602069
21.55575
24.30177
26.81369
29.067319
31.040951
32.715575
34.075059
35.106302
35.799369
36.14758
37.1742
36.816143
36.103478
35.043068
33.645124
31.923108
29.893599
27.576134
24.993023
22.169126
19.13162
15.909736
12.534474
9.0383113
5.4548861
1.8186908
-1.8352851
-5.471879
-9.0560808
-12.553378
-15.930085
-19.153671
-22.193066
-25.01897
-27.604127
-29.923598
-31.954998
-33.678715
-35.078106
-36.139652
-36.8531
-37.211556
-37.211556
-36.8531
-36.139652
-35.078106
-33.678715
-31.954998
-29.923598
-27.604127
-25.01897
-22.193066
-19.153671
-15.930085
-12.553378
-9.0560808
-5.471879
-1.835285
1.8186908
5.4548861
9.0383113
12.534474
15.909736
19.13162
22.169126
24.993023
27.576134
29.893599
31.923108
33.645124
35.043068
36.103478
36.816143
37.1742
38.55519
38.183891
37.444864
36.345223
34.895547
33.109784
31.005115
28.601785
25.922911
22.994259
19.843995
16.502414
13.001651
9.3753742
5.6584601
1.8866669
-1.9037172
-5.6762181
-9.394519
-13.022812
-16.526142
-19.870743
-23.024363
-25.956578
-28.639084
-31.045976
-33.154002
-34.942784
-36.395029
-37.496688
-38.237105
-38.609113
-38.609113
-38.237105
-37.496688
-36.395029
-34.942784
-33.154002
-31.045976
-28.639084
-25.956578
-23.024363
-19.870743
-16.526142
-13.022812
-9.394519
-5.6762181
-1.9037172
1.8866669
5.6584601
9.3753742
13.001651
16.502414
19.843995
22.994259
25.922911
28.601785
31.005115
33.109784
34.895547
36.345223
37.444864
38.183891
38.55519
40.303485
39.915422
39.143027
37.993725
36.478563
34.612107
32.412295
29.900269
27.100169
24.038906
20.745894
17.252779
13.59313
9.8021194
5.9161906
1.9727087
-1.9903975
-5.9349965
-9.8231162
-13.617308
-17.281008
-20.778887
-24.077192
-27.144075
-29.949904
-32.46755
-34.672656
-36.543877
-38.06309
-39.215576
-39.990164
-40.379345
-40.379345
-39.990164
-39.215576
-38.06309
-36.543877
-34.672656
-32.46755
-29.949904
-27.144075
-24.077192
-20.778887
-17.281008
-13.617308
-9.8231162
-5.9349965
-1.9903975
1.9727087
5.9161906
9.8021194
13.59313
17.252779
20.745894
24.038906
27.10017
29.900269
32.412295
34.612107
36.478563
37.993725
39.143027
39.915422
40.303485
42.435442
42.02694
41.213858
40.004004
38.408995
36.444147
34.128324
31.48376
28.535842
25.312873
21.845792
18.167888
14.314477
10.322566
6.2305058
2.0776209
-2.0961601
-6.250687
-10.345969
-14.342556
-18.20192
-21.886824
-25.361683
-28.592911
-31.549249
-34.202072
-36.525674
-38.497524
-40.098487
-41.313019
-42.129324
-42.539469
-42.539469
-42.129324
-41.313019
-40.098487
-38.497524
-36.525674
-34.202072
-31.549249
-28.592911
-25.361683
-21.886824
-18.20192
-14.342556
-10.345969
-6.250687
-2.0961601
2.077621
6.2305058
10.322567
14.314477
18.167888
21.845792
25.312873
28.535842
31.48376
34.128324
36.444147
38.408995
40.004004
41.213858
42.02694
42.435442
44.971114
44.538305
43.676838
42.394976
40.705012
38.623155
36.169368
33.367182
30.243469
26.828184
23.154079
19.256394
15.172519
10.941644
6.6043828
2.2023914
-2.2220264
-6.6263206
-10.968099
-15.205533
-19.297755
-23.205256
-26.890269
-30.317135
-33.452655
-36.266422
-38.731118
-40.822795
-42.521108
-43.809531
-44.675517
-45.11063
-45.11063
-44.675517
-43.809531
-42.521108
-40.822795
-38.731118
-36.266422
-33.452655
-30.317135
-26.890269
-23.205256
-19.297755
-15.205533
-10.968099
-6.6263206
-2.2220263
2.2023914
6.6043828
10.941644
15.172519
19.256394
23.154079
26.828184
30.243469
33.367182
36.169368
38.623155
40.705012
42.394976
43.676838
44.538305
44.971114
47.934344
47.473134
46.555132
45.189132
43.388217
41.169638
38.554644
35.56828
32.239147
28.599133
24.683105
20.528581
16.175373
11.665214
7.0413627
2.3481955
-2.3692101
-7.0655022
-11.695484
-16.214542
-20.579077
-24.746922
-28.677751
-32.333479
-35.678634
-38.680714
-41.310513
-43.542416
-45.354661
-46.729565
-47.653699
-48.118036
-48.118036
-47.653699
-46.729565
-45.354661
-43.542416
-41.310513
-38.680714
-35.678634
-32.333479
-28.677751
-24.746922
-20.579077
-16.214542
-11.695484
-7.0655021
-2.3692101
2.3481955
7.0413627
11.665214
16.175373
20.528581
24.683105
28.599133
32.239147
35.56828
38.554644
41.169638
43.388217
45.189132
46.555132
47.473134
47.934343
51.352961
50.858991
49.875776
48.412722
46.483825
44.107536
41.306584
38.107761
34.541665
30.642407
26.44729
21.996459
17.332514
12.50012
7.5455807
2.5164073
-2.5391269
-7.5724402
-12.5351
-17.379284
-22.058235
-26.526714
-30.74144
-34.661517
-38.248841
-41.468485
-44.28905
-46.682992
-48.626902
-50.101752
-51.093092
-51.591205
-51.591205
-51.093092
-50.101752
-48.626902
-46.682992
-44.28905
-41.468485
-38.248841
-34.661517
-30.74144
-26.526714
-22.058235
-17.379284
-12.5351
-7.5724402
-2.5391269
2.5164073
7.5455807
12.50012
17.332514
21.996459
26.44729
30.642407
34.541665
38.107761
41.306584
44.107536
46.483825
48.412722
49.875776
50.858991
51.352961
55.259038
54.727642
53.669927
52.095998
50.020891
47.46443
44.451035
41.009491
37.172672
32.97723
28.463249
23.673865
18.654864
13.454253
8.1218074
2.7086155
-2.7334039
-8.1519827
-13.494995
-18.710948
-23.749475
-28.561821
-33.101319
-37.323852
-41.188295
-44.656933
-47.695852
-50.275285
-52.369928
-53.959207
-55.027496
-55.564282
-55.564282
-55.027496
-53.959207
-52.369928
-50.275285
-47.695852
-44.656933
-41.188295
-37.323852
-33.101319
-28.561821
-23.749475
-18.710948
-13.494995
-8.1519827
-2.7334039
2.7086155
8.1218075
13.454253
18.654864
23.673865
28.463249
32.97723
37.172672
41.009491
44.451035
47.46443
50.020891
52.095998
53.669927
54.727642
55.259038
59.689174
59.115337
57.97314
56.27348
54.032574
51.2718
48.017495
44.300702
40.156876
35.625546
30.749944
25.576598
20.154896
14.536626
8.7754986
2.9266454
-2.953886
-8.8096531
-14.584343
-20.222303
-25.669068
-30.871887
-35.780241
-40.346344
-44.525627
-48.277199
-51.564267
-54.354529
-56.620513
-58.339876
-59.495646
-60.076401
-60.076401
-59.495646
-58.339876
-56.620513
-54.354528
-51.564267
-48.277199
-44.525627
-40.346344
-35.780241
-30.871887
-25.669068
-20.222303
-14.584343
-8.8096531
-2.9538859
2.9266455
8.7754986
14.536626
20.154896
25.576598
30.749944
35.625546
40.156876
44.300702
48.017495
51.2718
54.032574
56.27348
57.97314
59.115337
59.689174
64.684825
64.063139
62.82569
60.984272
58.556431
55.565299
52.039373
48.012242
43.522265
38.612215
33.328867
27.722565
21.846752
15.757472
9.5128569
3.1725904
-3.2026371
-9.5516844
-15.813524
-21.92781
-27.835454
-33.479187
-38.804133
-43.758349
-48.293361
-52.364668
-55.932209
-58.960794
-61.420488
-63.286933
-64.54162
-65.172095
-65.172095
-64.54162
-63.286933
-61.420488
-58.960794
-55.932209
-52.364668
-48.293361
-43.758349
-38.804133
-33.479187
-27.835453
-21.92781
-15.813524
-9.5516844
-3.202637
3.1725904
9.5128569
15.757472
21.846752
27.722565
33.328867
38.612215
43.522265
48.012242
52.039373
55.565299
58.556431
60.984272
62.82569
64.063139
64.684825
70.292683
69.617291
68.272935
66.272412
63.634763
60.385087
56.554304
52.178858
47.300371
41.965247
36.224235
30.131955
23.74639
17.128349
10.340913
3.4488578
-3.481929
-10.385045
-17.194179
-23.84372
-30.269382
-36.408816
-42.202232
-47.592997
-52.528223
-56.959323
-60.842535
-64.139399
-66.817179
-68.849232
-70.215306
-70.90177
-70.90177
-70.215306
-68.849232
-66.817179
-64.139399
-60.842535
-56.959323
-52.528223
-47.592997
-42.202232
-36.408816
-30.269382
-23.84372
-17.194179
-10.385045
-3.481929
3.4488578
10.340913
17.128349
23.74639
30.131955
36.224235
41.965247
47.300371
52.178858
56.554304
60.385087
63.634763
66.272412
68.272935
69.617291
70.292683
76.565096
75.829643
74.365731
72.18728
69.315001
65.776195
61.604492
56.839529
51.526569
45.716078
39.463242
32.827454
25.871763
18.66229
11.267632
3.75824
-3.7942098
-11.31745
-18.73927
-25.988176
-32.994062
-39.688882
-46.007326
-51.887479
-57.271478
-62.106125
-66.343475
-69.941364
-72.86389
-75.081818
-76.572921
-77.322235
-77.322235
-76.57292
-75.081818
-72.86389
-69.941364
-66.343475
-62.106125
-57.271478
-51.887479
-46.007326
-39.688882
-32.994062
-25.988176
-18.73927
-11.31745
-3.7942098
3.75824
11.267632
18.66229
25.871763
32.827454
39.463242
45.716078
51.526569
56.839529
61.604492
65.776195
69.315001
72.18728
74.365731
75.829643
76.565096
83.56056
82.758136
81.160911
78.784061
75.650159
71.788963
67.237125
62.03784
56.240434
49.899894
43.076349
35.834503
28.243039
20.373985
12.302063
4.1040225
-4.142037
-12.357334
-20.463101
-28.381288
-36.035294
-43.350699
-50.256002
-56.683356
-62.569297
-67.85543
-72.489085
-76.423917
-79.620439
-82.046488
-83.677597
-84.497295
-84.497295
-83.677597
-82.046488
-79.620439
-76.423917
-72.489085
-67.85543
-62.569297
-56.683356
-50.256002
-43.350699
-36.035294
-28.381287
-20.463101
-12.357334
-4.1420369
4.1040225
12.302064
20.373985
28.243039
35.834503
43.076349
49.899894
56.240434
62.03784
67.237125
71.788963
75.650159
78.784061
81.160912
82.758136
83.56056
91.34428
90.467355
88.721831
86.12428
82.699352
78.479537
73.504851
67.822447
61.486167
54.556024
47.097639
39.181616
30.882888
22.280029
13.454546
4.4901508
-4.5279532
-13.513781
-22.381301
-31.045174
-39.421572
-47.428953
-54.988887
-62.026869
-68.473132
-74.263426
-79.339753
-83.651043
-87.153759
-89.81242
-91.600031
-92.49841
-92.49841
-91.600031
-89.81242
-87.153759
-83.651043
-79.339753
-74.263426
-68.473132
-62.026869
-54.988887
-47.428953
-39.421572
-31.045174
-22.381301
-13.513781
-4.5279531
4.4901509
13.454546
22.280029
30.882888
39.181616
47.097639
54.556024
61.486167
67.822447
73.504851
78.479537
82.699352
86.12428
88.721831
90.467355
91.34428
99.988814
99.029175
97.119006
94.27643
90.528408
85.910465
80.466352
74.247615
67.313108
59.728423
51.565271
42.900796
33.816851
24.399254
14.737
4.9214862
-4.9542731
-14.796359
-24.510726
-34.003933
-43.184127
-51.961831
-60.250856
-67.969225
-75.040086
-81.392588
-86.962718
-91.694069
-95.538523
-98.456849
-100.41918
-101.40541
-101.40541
-100.41918
-98.456849
-95.538523
-91.694069
-86.962718
-81.392588
-75.040086
-67.969225
-60.250856
-51.961831
-43.184127
-34.003933
-24.510726
-14.796359
-4.954273
4.9214862
14.737001
24.399254
33.816851
42.900796
51.565271
59.728423
67.313108
74.247615
80.466352
85.910466
90.528408
94.27643
97.119006
99.029175
99.988814
109.57483
108.52351
106.43085
103.3167
99.210585
94.151396
88.187023
81.373879
73.77637
65.466271
56.522039
47.028056
37.073829
26.753169
16.163336
5.4041749
-5.4227667
-16.214878
-26.869275
-37.28351
-47.356883
-56.991065
-66.091182
-74.566863
-82.333275
-89.312127
-95.432609
-100.63228
-104.85783
-108.06579
-110.22304
-111.30728
-111.30728
-110.22304
-108.06579
-104.85783
-100.63228
-95.432609
-89.312126
-82.333275
-74.566863
-66.091182
-56.991065
-47.356883
-37.28351
-26.869275
-16.214878
-5.4227666
5.404175
16.163336
26.753169
37.073829
47.028056
56.522039
65.466271
73.77637
81.373879
88.187023
94.151396
99.210585
103.3167
106.43085
108.52351
109.57483
120.192
119.0392
116.74456
113.32985
108.82742
103.27992
96.739796
89.268846
80.937616
71.824721
62.016083
51.60409
40.686693
29.366534
17.74998
5.946128
-5.9342915
-17.779179
-29.475546
-40.911417
-51.976281
-62.561884
-72.563605
-81.881635
-90.422143
-98.098425
-104.83199
-110.55355
-115.20392
-118.73482
-121.10943
-122.30297
-122.30297
-121.10943
-118.73482
-115.20392
-110.55355
-104.83199
-98.098425
-90.422143
-81.881635
-72.563605
-62.561884
-51.976281
-40.911417
-29.475546
-17.779179
-5.9342914
5.9461281
17.74998
29.366534
40.686693
51.60409
62.016084
71.824721
80.937616
89.268846
96.739796
103.27992
108.82742
113.32985
116.74456
119.0392
120.192
131.93999
130.67502
128.15711
124.41018
119.46975
113.38256
106.20613
98.00817
88.866006
78.865814
68.101773
56.675109
44.693097
32.268199
19.516836
6.5577729
-6.487875
-19.497378
-32.347656
-44.916116
-57.080913
-68.722808
-79.726294
-89.980934
-99.382729
-107.83545
-115.25189
-121.55499
-126.67892
-130.56988
-133.18689
-134.50234
-134.50234
-133.18689
-130.56988
-126.67892
-121.55499
-115.25189
-107.83545
-99.382729
-89.980933
-79.726294
-68.722808
-57.080913
-44.916116
-32.347656
-19.497378
-6.4878749
6.5577729
19.516836
32.268199
44.693097
56.675109
68.101773
78.865814
88.866006
98.00817
106.20613
113.38256
119.46975
124.41018
128.15711
130.67502
131.93999
144.9297
143.54087
140.77645
136.66275
131.23881
124.55594
116.67716
107.6767
97.639327
86.659582
74.840774
62.293926
49.136712
35.492437
21.488075
7.2533339
-7.0795186
-21.376761
-35.504129
-49.326875
-62.711144
-75.525361
-87.641716
-98.937742
-109.29791
-118.61516
-126.79238
-133.74369
-139.39563
-143.6882
-146.57563
-148.02707
-148.02707
-146.57563
-143.6882
-139.39563
-133.74369
-126.79238
-118.61516
-109.29791
-98.937742
-87.641716
-75.525361
-62.711144
-49.326875
-35.504129
-21.376761
-7.0795186
7.2533339
21.488075
35.492437
49.136713
62.293926
74.840774
86.659582
97.639328
107.6767
116.67716
124.55594
131.23881
136.66275
140.77645
143.54087
144.9297
159.28454
157.7591
154.72278
150.20459
144.24759
136.90806
128.25501
118.36976
107.34527
95.285271
82.303226
68.521124
54.068099
39.078672
23.691728
8.0499277
-7.7029293
-23.422082
-38.961139
-54.172358
-68.90835
-83.023628
-96.376452
-108.83068
-120.25765
-130.53797
-139.56322
-147.23745
-153.47853
-158.21934
-161.40864
-163.01185
-163.01185
-161.40864
-158.21934
-153.47853
-147.23745
-139.56322
-130.53797
-120.25765
-108.83068
-96.376452
-83.023628
-68.90835
-54.172358
-38.961139
-23.422082
-7.7029293
8.0499278
23.691728
39.078672
54.068099
68.521124
82.303226
95.285271
107.34527
118.36976
128.25501
136.90806
144.24759
150.20459
154.72278
157.7591
159.28454
175.14185
173.4659
170.12992
165.166
158.62205
150.55963
141.05415
130.19456
118.08273
104.83257
90.568728
75.425262
59.543949
43.072728
26.163876
8.9725885
-8.3452686
-25.63325
-42.732153
-59.480009
-75.714342
-91.273911
-106.00112
-119.7442
-132.35947
-143.71344
-153.68474
-162.1659
-169.0649
-174.30646
-177.83302
-179.60556
-179.60556
-177.83302
-174.30646
-169.0649
-162.1659
-153.68474
-143.71344
-132.35947
-119.7442
-106.00112
-91.273911
-75.714342
-59.480009
-42.732153
-25.63325
-8.3452686
8.9725886
26.163876
43.072728
59.543949
75.425262
90.568728
104.83257
118.08273
130.19456
141.05415
150.55963
158.62205
165.166
170.12992
173.4659
175.14185
192.65423
190.81271
187.14667
181.69159
174.50222
165.64535
155.20268
143.27133
129.96305
115.40281
99.727665
83.085292
65.631818
47.529858
28.9463
10.050584
-8.989228
-28.005876
-46.827209
-65.275408
-83.17099
-100.33468
-116.59065
-131.76916
-145.70928
-158.26136
-169.28912
-178.67195
-186.30649
-192.10815
-196.01207
-197.97366
-197.97366
-196.01207
-192.10815
-186.30649
-178.67195
-169.28912
-158.26136
-145.70928
-131.76916
-116.59065
-100.33468
-83.17099
-65.275408
-46.827209
-28.005876
-8.989228
10.050584
28.9463
47.529858
65.631818
83.085292
99.727665
115.40281
129.96305
143.27133
155.20268
165.64535
174.50222
181.69159
187.14667
190.81271
192.65423
211.99066
209.96759
205.93818
199.94042
192.04282
182.3149
170.84332
157.73423
143.11078
127.10949
109.88125
91.589302
72.406336
52.510833
32.086493
11.319127
-9.6114144
-30.529988
-51.25225
-71.582036
-91.320478
-110.26728
-128.22539
-145.00432
-160.42323
-174.31391
-186.52284
-196.91439
-205.37228
-211.80135
-216.12921
-218.30597
-218.30597
-216.12921
-211.80135
-205.37228
-196.91439
-186.52284
-174.31391
-160.42323
-145.00432
-128.22539
-110.26728
-91.320478
-71.582036
-51.25225
-30.529988
-9.6114143
11.319127
32.086493
52.510833
72.406336
91.589302
109.88125
127.10949
143.11078
157.73423
170.84332
182.3149
192.04282
199.94042
205.93818
209.96759
211.99066
233.33664
231.11709
226.68906
220.08399
211.41421
200.73397
188.13431
173.73221
157.66371
140.07816
121.14123
101.03446
79.948692
58.081697
35.63536
12.817295
-10.182049
-33.18937
-56.009673
-78.422571
-100.20754
-121.13854
-140.99416
-159.55968
-176.63127
-192.0194
-205.55056
-217.07189
-226.45208
-233.58389
-238.38535
-240.80302
-240.80302
-238.38535
-233.58389
-226.45208
-217.07189
-205.55056
-192.0194
-176.63127
-159.55968
-140.99416
-121.13854
-100.20754
-78.422571
-56.009673
-33.18937
-10.182049
12.817295
35.63536
58.081697
79.948692
101.03446
121.14123
140.07816
157.66371
173.73221
188.13431
200.73397
211.41421
220.08399
226.68906
231.11709
233.33664
256.88746
254.46711
249.61353
242.29417
232.80411
221.08691
207.25035
191.42817
173.77288
154.44568
133.62857
111.52405
88.344228
64.309119
39.641487
14.583342
-10.667551
-35.963674
-61.102119
-85.823959
-109.8848
-133.02619
-154.9989
-175.56035
-194.47989
-211.54421
-226.5561
-239.34341
-249.75786
-257.67843
-263.01211
-265.6942
-265.6942
-263.01211
-257.67843
-249.75786
-239.34341
-226.55609
-211.54421
-194.47989
-175.56035
-154.9989
-133.02619
-109.8848
-85.823958
-61.102119
-35.963674
-10.667551
14.583342
39.641487
64.309119
88.344228
111.52405
133.62857
154.44568
173.77289
191.42817
207.25035
221.08691
232.80411
242.29417
249.61353
254.46711
256.88746
282.84148
280.17131
274.84445
266.89689
256.45125
243.57456
228.37688
210.99619
191.59534
170.35228
147.46787
123.16358
97.672389
71.249884
44.13977
16.644328
-11.035892
-38.832552
-66.538152
-93.821845
-120.4157
-146.01789
-170.35131
-193.14058
-214.12425
-233.06246
-249.73125
-263.93876
-275.51682
-284.32718
-290.25939
-293.24374
-293.24374
-290.25939
-284.32718
-275.51682
-263.93876
-249.73125
-233.06246
-214.12425
-193.14058
-170.35131
-146.01789
-120.4157
-93.821845
-66.538152
-38.832552
-11.035892
16.644328
44.13977
71.249884
97.672389
123.16358
147.46787
170.35228
191.59534
210.99619
228.37688
243.57456
256.45125
266.89689
274.84445
280.17131
282.84148
311.4411
308.50987
302.67305
293.97958
282.51628
268.37725
251.68814
232.5964
211.2789
187.92852
162.76621
136.03565
107.99166
78.934697
49.128064
18.993626
-11.248721
-41.7534
-72.309261
-102.43294
-131.85136
-160.20567
-187.18307
-212.46969
-235.77001
-256.81555
-275.34976
-291.15474
-304.03247
-313.82877
-320.4243
-323.74541
-323.74541
-320.4243
-313.82877
-304.03247
-291.15474
-275.34976
-256.81555
-235.77001
-212.46969
-187.18307
-160.20567
-131.85136
-102.43294
-72.309261
-41.7534
-11.248721
18.993626
49.128064
78.934697
107.99166
136.03565
162.76621
187.92852
211.2789
232.5964
251.68814
268.37725
282.51628
293.97958
302.67305
308.50987
311.4411
342.93291
339.7214
333.32573
323.79515
311.21556
295.69475
277.37321
256.40519
232.98322
207.31368
179.63794
150.22614
119.35039
87.371763
54.549641
21.586909
-11.189634
-44.552885
-78.330945
-111.60099
-144.2084
-175.64587
-205.61004
-233.72839
-259.66
-283.11444
-303.77103
-321.39993
-335.75805
-346.68568
-354.04019
-357.74203
-357.74203
-354.04019
-346.68568
-335.75805
-321.39993
-303.77103
-283.11444
-259.66
-233.72839
-205.61004
-175.64587
-144.2084
-111.60099
-78.330945
-44.552885
-11.189634
21.586909
54.549641
87.371764
119.35039
150.22614
179.63794
207.31368
232.98322
256.40519
277.37321
295.69475
311.21556
323.79515
333.32573
339.7214
342.93291
377.86521
374.34703
367.33948
356.88834
343.09957
326.06905
305.96594
282.92568
257.18825
228.94843
198.47213
166.09381
131.98063
96.809665
60.31253
24.546588
-9.3901089
-39.308757
-63.844854
-81.63169
-93.418128
-99.480547
-100.56893
-97.530542
-91.275583
-82.870113
-73.297675
-63.583585
-54.597072
-47.13239
-41.789332
-38.999626
-38.999626
-41.789331
-47.13239
-54.597072
-63.583585
-73.297675
-82.870113
-91.275583
-97.530542
-100.56893
-99.480547
-93.418128
-81.63169
-63.844854
-39.308757
-9.3901088
24.546588
60.31253
96.809665
131.98063
166.09381
198.47213
228.94843
257.18825
282.92568
305.96594
326.06905
343.09957
356.88834
367.33948
374.34703
377.86521
-38.468778
-41.26451
-46.619659
-54.101381
-63.11012
-72.850285
-82.452871
-90.891232
-97.182105
-100.25831
-99.210186
-93.190073
-81.448013
-63.707128
-39.217986
-9.3475844
24.539492
60.25334
96.697656
131.81823
165.88108
198.21125
228.64086
256.83737
282.53561
305.5416
325.61527
342.61952
356.38492
366.81498
373.80665
377.31628
377.31628
373.80665
366.81498
356.38492
342.61952
325.61527
305.5416
282.53561
256.83737
228.64086
198.21125
165.88108
131.81823
96.697656
60.25334
24.539492
-9.3475844
-39.217986
-63.707128
-81.448013
-93.190073
-99.210186
-100.25831
-97.182105
-90.891232
-82.452871
-72.850285
-63.11012
-54.101381
-46.619659
-41.26451
-38.468778
-357.2263
-353.52841
-346.18252
-335.26884
-320.93055
-303.32607
-282.69798
-259.27481
-233.37695
-205.29508
-175.37014
-143.97528
-111.41295
-78.190456
-44.461494
-11.148957
21.57561
54.486176
87.255973
119.18344
150.00928
179.37306
207.00304
232.63022
256.01393
276.94808
295.23984
310.73381
323.28831
332.79556
339.17445
342.37757
342.37757
339.17445
332.79556
323.28831
310.73381
295.23984
276.94808
256.01393
232.63022
207.00304
179.37306
150.00928
119.18344
87.255973
54.486176
21.57561
-11.148957
-44.461494
-78.190456
-111.41295
-143.97528
-175.37014
-205.29508
-233.37695
-259.27481
-282.69798
-303.32607
-320.93055
-335.26884
-346.18252
-353.52841
-357.2263
-323.21808
-319.90155
-313.31549
-303.53381
-290.67584
-274.89511
-256.38934
-235.37589
-212.11085
-186.86248
-159.92625
-131.61601
-102.24402
-72.169006
-41.663322
-11.210431
18.979161
49.060418
78.813954
107.81865
135.81283
162.49513
187.61135
210.91959
232.19969
251.25804
267.91806
282.03099
293.46737
302.13073
307.94796
310.871
310.871
307.94796
302.13073
293.46737
282.03099
267.91806
251.25804
232.19969
210.91959
187.61135
162.49513
135.81283
107.81865
78.813954
49.060418
18.979161
-11.210431
-41.663322
-72.169006
-102.24402
-131.61601
-159.92625
-186.86248
-212.11085
-235.37589
-256.38934
-274.89511
-290.67584
-303.53381
-313.31549
-319.90155
-323.21808
-292.70025
-289.72092
-283.79884
-275.0037
-263.44569
-249.26278
-232.62307
-213.71811
-192.77133
-170.02218
-145.73188
-120.17552
-93.629932
-66.396377
-38.742406
-10.99897
16.62698
44.06773
71.122902
97.491845
122.93268
147.18811
170.02505
191.22556
210.58953
227.93754
243.10807
255.96242
266.38276
274.27937
279.58319
282.24845
282.24845
279.58319
274.27937
266.38276
255.96242
243.10807
227.93754
210.58953
191.22556
170.02505
147.18811
122.93268
97.491845
71.122902
44.06773
16.62698
-10.99897
-38.742406
-66.396377
-93.629932
-120.17552
-145.73188
-170.02218
-192.77133
-213.71811
-232.62307
-249.26278
-263.44569
-275.0037
-283.79884
-289.72092
-292.70025
-265.12954
-262.45276
-257.12982
-249.22517
-238.83162
-226.0697
-211.0879
-194.05829
-175.17744
-154.65813
-132.73075
-109.63746
-85.626875
-60.957299
-35.872188
-10.631376
14.563301
39.56459
64.175099
88.154034
111.28343
133.33783
154.10466
173.38806
191.00702
206.79601
220.60777
232.31334
241.8033
248.99809
253.83493
256.26702
256.26702
253.83493
248.99809
241.8033
232.31334
220.60777
206.79601
191.00702
173.38806
154.10466
133.33783
111.28343
88.154034
64.175099
39.56459
14.563301
-10.631376
-35.872188
-60.957299
-85.626875
-109.63746
-132.73075
-154.65813
-175.17744
-194.05829
-211.0879
-226.0697
-238.83162
-249.22517
-257.12982
-262.45276
-265.12954
-240.21199
-237.79992
-233.00968
-225.89458
-216.53626
-205.0417
-191.54218
-176.19044
-159.15948
-140.63831
-120.8304
-99.949972
-78.218002
-55.859977
-33.096079
-10.146638
12.793835
35.552785
57.940019
79.749468
100.78119
120.83569
139.72201
157.26207
173.2909
187.65774
200.22791
210.88385
219.52685
226.07997
230.48439
232.6988
232.6988
230.48439
226.07997
219.52685
210.88385
200.22791
187.65774
173.2909
157.26207
139.72201
120.83569
100.78119
79.749468
57.940019
35.552785
12.793835
-10.146638
-33.096079
-55.859977
-78.218002
-99.949972
-120.8304
-140.63831
-159.15948
-176.19044
-191.54218
-205.0417
-216.53626
-225.89458
-233.00968
-237.79992
-240.21199
-217.68291
-215.51208
-211.19604
-204.78456
-196.34981
-185.98666
-173.81126
-159.95903
-144.58302
-127.85099
-109.94334
-91.050073
-71.367729
-51.096192
-30.433703
-9.5763198
11.292304
31.997641
52.360521
72.195763
91.32152
109.55836
126.73424
142.68753
157.26805
170.33853
181.77625
191.47411
199.34178
205.30747
209.3162
211.33062
211.33062
209.3162
205.30747
199.34178
191.47411
181.77625
170.33853
157.26805
142.68753
126.73424
109.55836
91.32152
72.195763
52.360521
31.997641
11.292304
-9.5763198
-30.433703
-51.096192
-71.367729
-91.050073
-109.94334
-127.85099
-144.58302
-159.95903
-173.81126
-185.98666
-196.34981
-204.78456
-211.19604
-215.51208
-217.68291
-197.31255
-195.35729
-191.46592
-185.68294
-178.07301
-168.72047
-157.72845
-145.21724
-131.32271
-116.19407
-99.991779
-82.885057
-65.049229
-46.663038
-27.905443
-8.953753
10.020468
28.850632
47.369347
65.408003
82.800396
99.384427
115.00451
129.51373
142.77552
154.66505
165.07052
173.89429
181.05394
186.48292
190.13083
191.9635
191.9635
190.13083
186.48292
181.05394
173.89429
165.07052
154.66505
142.77552
129.51373
115.00451
99.384427
82.800396
65.408003
47.369347
28.850632
10.020468
-8.953753
-27.905443
-46.663038
-65.049229
-82.885057
-99.991779
-116.19407
-131.32271
-145.21724
-157.72845
-168.72047
-178.07301
-185.68294
-191.46592
-195.35729
-197.31255
-178.90008
-177.13429
-173.62115
-168.39955
-161.52687
-153.07814
-143.14508
-131.83481
-119.26829
-105.57853
-90.908722
-75.41009
-59.239684
-42.55815
-25.527403
-8.3087689
8.9391735
26.060685
42.900588
59.304481
75.120676
90.201967
104.40716
117.60277
129.6646
140.47912
149.94451
157.97181
164.48573
169.4253
172.74434
174.41171
174.41171
172.74434
169.4253
164.48573
157.97181
149.94451
140.47912
129.6646
117.60277
104.40716
90.201967
75.120676
59.304481
42.900588
26.060685
8.9391735
-8.3087689
-25.527403
-42.55815
-59.239684
-75.41009
-90.908722
-105.57853
-119.26829
-131.83481
-143.14508
-153.07814
-161.52687
-168.39955
-173.62115
-177.13429
-178.90008
-162.25518
-160.65921
-157.48433
-152.76497
-146.55218
-138.91281
-129.92865
-119.69529
-108.32069
-95.923752
-82.632598
-68.582795
-53.915478
-38.775499
-23.309604
-7.664841
8.0130941
23.580171
38.893327
53.810676
68.193988
81.909481
94.828661
106.83011
117.80089
127.63766
136.24776
143.55014
149.47612
153.97
156.98961
158.50655
158.50655
156.98961
153.97
149.47612
143.55014
136.24776
127.63766
117.80089
106.83011
94.828661
81.909481
68.193988
53.810676
38.893327
23.580171
8.0130941
-7.664841
-23.309604
-38.775499
-53.915478
-68.582795
-82.632598
-95.923752
-108.32069
-119.69529
-129.92865
-138.91281
-146.55218
-152.76497
-157.48433
-160.65921
-162.25518
-147.21185
-145.76823
-142.89636
-138.62694
-133.00553
-126.09183
-117.95897
-108.69238
-98.388719
-87.154503
-75.104679
-62.361091
-49.05089
-35.30496
-21.256445
-7.0393372
7.2128553
21.36718
35.292173
48.858902
61.941139
74.416333
86.167486
97.084205
107.06374
116.01206
123.84481
130.48816
135.87952
139.96809
142.71539
144.09554
144.09554
142.71539
139.96809
135.87952
130.48816
123.84481
116.01206
107.06374
97.084205
86.167486
74.416333
61.941139
48.858902
35.292173
21.36718
7.2128553
-7.0393372
-21.256445
-35.30496
-49.05089
-62.361091
-75.104679
-87.154503
-98.388719
-108.69238
-117.95897
-126.09183
-133.00553
-138.62694
-142.89636
-145.76823
-147.21185
-133.62066
-132.31368
-129.71352
-125.84763
-120.75678
-114.49441
-107.12601
-98.72816
-89.387551
-79.199837
-68.268381
-56.702943
-44.61831
-32.132973
-19.367984
-6.4451293
6.5133363
19.385522
32.05116
44.392308
56.293366
67.642655
78.333637
88.265776
97.345522
105.48727
112.61421
118.6591
123.5649
127.28532
129.78528
131.04118
131.04118
129.78528
127.28532
123.5649
118.6591
112.61421
105.48727
97.345522
88.265776
78.333637
67.642655
56.293366
44.392308
32.05116
19.385522
6.5133363
-6.4451293
-19.367984