/*--------------------------------*- C++ -*----------------------------------*\
| =========                 |                                                 |
| \\      /  F ield         | OpenFOAM: The Open Source CFD Toolbox           |
|  \\    /   O peration     | Version:  2106                                  |
|   \\  /    A nd           | Website:  www.openfoam.com                      |
|    \\/     M anipulation  |                                                 |
\*---------------------------------------------------------------------------*/
FoamFile
{
    version     2.0;
    format      ascii;
    arch        "LSB;label=32;scalar=64";
    class       surfaceScalarField;
    location    "0.005";
    object      phi_0;
}
// * * * * * * * * * * * * * * * * * * * * * * * * * * * * * * * * * * * * * //

dimensions      [0 3 -1 0 0 0 0];

oriented        oriented;

internalField   nonuniform List<scalar> 
8064
(
-0.00048097159
0.00048097159
-0.00095731237
0.00047634078
-0.0014244362
0.00046712379
-0.0018778456
0.00045340944
-0.0023131755
0.00043532989
-0.0027262348
0.0004130593
-0.003113047
0.00038681219
-0.0034698883
0.00035684133
-0.0037933236
0.00032343526
-0.0040802391
0.00028691549
-0.0043278725
0.00024763342
-0.0045338395
0.000205967
-0.0046961565
0.00016231703
-0.0048132589
0.00011710236
-0.0048840103
7.0751403e-05
-0.004907739
2.3728766e-05
-0.0048842134
-2.3525618e-05
-0.0048136542
-7.055925e-05
-0.0046967362
-0.00011691794
-0.0045345816
-0.00016215462
-0.004328748
-0.00020583359
-0.004081214
-0.00024753402
-0.0037943601
-0.00028685386
-0.0034709464
-0.00032341377
-0.0031140856
-0.00035686079
-0.0027272138
-0.00038687182
-0.002314057
-0.00041315678
-0.0018785955
-0.00043546144
-0.0014250256
-0.00045356999
-0.00095771843
-0.00046730712
-0.00048117862
-0.00047653981
7.927396e-13
-0.00048117862
0.00048117862
-0.00048117862
0.00095771843
-0.00047653981
0.0014250256
-0.00046730712
0.0018785955
-0.00045356999
0.002314057
-0.00043546144
0.0027272138
-0.00041315678
0.0031140856
-0.00038687182
0.0034709464
-0.00035686079
0.0037943601
-0.00032341377
0.004081214
-0.00028685386
0.004328748
-0.00024753402
0.0045345816
-0.00020583359
0.0046967362
-0.00016215462
0.0048136542
-0.00011691794
0.0048842134
-7.055925e-05
0.004907739
-2.3525618e-05
0.0048840103
2.3728766e-05
0.0048132589
7.0751404e-05
0.0046961565
0.00011710236
0.0045338395
0.00016231703
0.0043278725
0.000205967
0.0040802391
0.00024763342
0.0037933236
0.00028691549
0.0034698883
0.00032343526
0.003113047
0.00035684133
0.0027262348
0.00038681219
0.0023131755
0.0004130593
0.0018778456
0.00043532989
0.0014244362
0.00045340944
0.00095731237
0.00046712379
0.00048097159
0.00047634078
0.00048097159
-0.00048798218
0.00096895376
-0.0009712658
0.0009596244
-0.0014451976
0.00094105561
-0.0019052145
0.00091342637
-0.0023468876
0.00087700294
-0.0027659646
0.00083213628
-0.003158411
0.00077925863
-0.0035204489
0.00071887925
-0.0038485932
0.0006515795
-0.0041396848
0.00057800714
-0.0043909215
0.00049887012
-0.0045998843
0.00041492971
-0.0047645603
0.00032699303
-0.0048833627
0.00023590477
-0.0049551503
0.00014253906
-0.0049792248
4.7803286e-05
-0.0049553541
-4.73964e-05
-0.0048837652
-0.00014214813
-0.0047651437
-0.00023553944
-0.0046006275
-0.00032667075
-0.0043917968
-0.00041466429
-0.0041406587
-0.00049867218
-0.0038496281
-0.00057788443
-0.0035215051
-0.00065153682
-0.0031594476
-0.00071891828
-0.0027669415
-0.00077937785
-0.0023477672
-0.00083233109
-0.0019059629
-0.0008772658
-0.0014457857
-0.00091374713
-0.00097167097
-0.00094142188
-0.00048818875
-0.00096002203
8.027007e-13
-0.00096936737
0.00048818875
-0.00096936737
0.00097167097
-0.00096002203
0.0014457857
-0.00094142188
0.0019059629
-0.00091374713
0.0023477672
-0.0008772658
0.0027669415
-0.00083233109
0.0031594476
-0.00077937785
0.0035215051
-0.00071891828
0.0038496281
-0.00065153682
0.0041406587
-0.00057788443
0.0043917968
-0.00049867218
0.0046006275
-0.00041466429
0.0047651437
-0.00032667075
0.0048837652
-0.00023553944
0.0049553541
-0.00014214813
0.0049792248
-4.73964e-05
0.0049551503
4.7803286e-05
0.0048833627
0.00014253906
0.0047645603
0.00023590477
0.0045998843
0.00032699303
0.0043909215
0.00041492971
0.0041396848
0.00049887012
0.0038485932
0.00057800714
0.0035204489
0.0006515795
0.003158411
0.00071887925
0.0027659646
0.00077925863
0.0023468876
0.00083213628
0.0019052145
0.00087700294
0.0014451976
0.00091342637
0.0009712658
0.00094105561
0.00048798217
0.0009596244
0.00096895376
-0.00049953723
0.001468491
-0.00099426419
0.0014543514
-0.001479417
0.0014262084
-0.0019503242
0.0013843335
-0.0024024516
0.0013291303
-0.0028314461
0.0012611309
-0.0032331779
0.0011809904
-0.0036037794
0.0010894808
-0.0039396834
0.00098748345
-0.0042376564
0.00087598014
-0.0044948302
0.00075604392
-0.004708729
0.00062882858
-0.0048772935
0.0004955575
-0.0049989006
0.00035751185
-0.0050723804
0.00021601889
-0.0050970205
7.2443329e-05
-0.0050725811
-7.1835807e-05
-0.0049992954
-0.00021543382
-0.0048778655
-0.00035696928
-0.0047094566
-0.00049507969
-0.0044956859
-0.00062843504
-0.0042386076
-0.0007557504
-0.0039406938
-0.00087579826
-0.0036048102
-0.0009874204
-0.0032341894
-0.0010895391
-0.0028323994
-0.0011811678
-0.0024033098
-0.0012614207
-0.0019510543
-0.0013295213
-0.0014799908
-0.0013848106
-0.00099465947
-0.0014267532
-0.00049973877
-0.0014549427
8.2109192e-13
-0.0014691061
0.00049973877
-0.0014691061
0.00099465947
-0.0014549427
0.0014799908
-0.0014267532
0.0019510543
-0.0013848106
0.0024033098
-0.0013295213
0.0028323994
-0.0012614207
0.0032341894
-0.0011811678
0.0036048102
-0.0010895391
0.0039406938
-0.0009874204
0.0042386076
-0.00087579826
0.0044956859
-0.0007557504
0.0047094566
-0.00062843504
0.0048778655
-0.00049507969
0.0049992954
-0.00035696928
0.0050725811
-0.00021543382
0.0050970205
-7.1835807e-05
0.0050723804
7.2443329e-05
0.0049989006
0.00021601889
0.0048772935
0.00035751185
0.004708729
0.00049555751
0.0044948302
0.00062882858
0.0042376564
0.00075604392
0.0039396834
0.00087598014
0.0036037794
0.00098748345
0.0032331779
0.0010894808
0.0028314461
0.0011809904
0.0024024516
0.0012611309
0.0019503242
0.0013291303
0.001479417
0.0013843335
0.00099426419
0.0014262084
0.00049953723
0.0014543514
0.001468491
-0.00051561623
0.0019841072
-0.0010262667
0.0019650018
-0.0015270336
0.0019269753
-0.0020130945
0.0018703945
-0.002479769
0.0017958048
-0.0029225638
0.0017039256
-0.0033372157
0.0015956423
-0.0037197333
0.0014719984
-0.0040664346
0.0013341847
-0.0043739827
0.0011835283
-0.0046394179
0.0010214791
-0.0048601855
0.00084959618
-0.0050341608
0.0006695328
-0.0051596693
0.00048302034
-0.0052355028
0.00029185236
-0.0052609281
9.7868638e-05
-0.0052356975
-9.7066381e-05
-0.0051600514
-0.00029107989
-0.0050347147
-0.00048230604
-0.0048608897
-0.00066890467
-0.0046402456
-0.00084907913
-0.0043749024
-0.0010210936
-0.0040674112
-0.0011832896
-0.0037207293
-0.0013341022
-0.0033381929
-0.0014720755
-0.0029234846
-0.0015958762
-0.002480598
-0.0017043073
-0.0020137997
-0.0017963196
-0.0015275878
-0.0018710225
-0.0010266485
-0.0019276925
-0.00051581088
-0.0019657803
8.4814112e-13
-0.001984917
0.00051581088
-0.001984917
0.0010266485
-0.0019657803
0.0015275878
-0.0019276925
0.0020137997
-0.0018710225
0.002480598
-0.0017963196
0.0029234846
-0.0017043073
0.0033381929
-0.0015958762
0.0037207293
-0.0014720755
0.0040674112
-0.0013341022
0.0043749025
-0.0011832896
0.0046402456
-0.0010210936
0.0048608897
-0.00084907913
0.0050347147
-0.00066890467
0.0051600514
-0.00048230604
0.0052356975
-0.00029107989
0.0052609281
-9.706638e-05
0.0052355028
9.7868638e-05
0.0051596693
0.00029185236
0.0050341608
0.00048302035
0.0048601855
0.0006695328
0.0046394179
0.00084959619
0.0043739827
0.0010214791
0.0040664346
0.0011835283
0.0037197333
0.0013341847
0.0033372157
0.0014719984
0.0029225638
0.0015956423
0.002479769
0.0017039256
0.0020130945
0.0017958048
0.0015270336
0.0018703945
0.0010262667
0.0019269753
0.00051561623
0.0019650018
0.0019841072
-0.00053630785
0.0025204151
-0.0010674499
0.0024961438
-0.0015883101
0.0024478356
-0.0020938721
0.0023759564
-0.002579267
0.0022811998
-0.0030398211
0.0021644796
-0.0034711001
0.0020269214
-0.0038689526
0.0018698509
-0.0042295494
0.0016947815
-0.0045494204
0.0015033993
-0.004825488
0.0012975467
-0.0050550962
0.0010792043
-0.0052360358
0.00085047244
-0.005366566
0.00061355057
-0.0054454304
0.0003707167
-0.0054718677
0.00012430594
-0.0054456207
-0.0001233133
-0.0053669393
-0.00036976129
-0.0052365771
-0.00061266829
-0.0050557844
-0.00084969735
-0.0048262969
-0.0010785667
-0.004550319
-0.0012970715
-0.0042305033
-0.0015031053
-0.0038699253
-0.0016946802
-0.0034720544
-0.0018699465
-0.0030407202
-0.0020272104
-0.0025800765
-0.002164951
-0.0020945606
-0.0022818355
-0.0015888512
-0.0023767319
-0.0010678226
-0.002448721
-0.0005364979
-0.0024971051
8.8357671e-13
-0.0025214149
0.0005364979
-0.0025214149
0.0010678226
-0.0024971051
0.0015888512
-0.002448721
0.0020945606
-0.0023767319
0.0025800765
-0.0022818355
0.0030407202
-0.002164951
0.0034720544
-0.0020272104
0.0038699253
-0.0018699465
0.0042305033
-0.0016946802
0.004550319
-0.0015031053
0.0048262969
-0.0012970715
0.0050557844
-0.0010785667
0.0052365771
-0.00084969735
0.0053669393
-0.00061266829
0.0054456207
-0.00036976129
0.0054718677
-0.0001233133
0.0054454304
0.00012430594
0.005366566
0.0003707167
0.0052360358
0.00061355057
0.0050550962
0.00085047244
0.004825488
0.0010792043
0.0045494204
0.0012975467
0.0042295494
0.0015033993
0.0038689526
0.0016947815
0.0034711001
0.0018698509
0.0030398211
0.0020269214
0.002579267
0.0021644796
0.0020938721
0.0022811998
0.0015883101
0.0023759564
0.0010674498
0.0024478356
0.00053630784
0.0024961438
0.0025204151
-0.0005617902
0.0030822053
-0.0011181682
0.0030525218
-0.0016637742
0.0029934415
-0.0021933525
0.0029055348
-0.0027018027
0.00278965
-0.0031842284
0.0026469054
-0.0036359851
0.002478678
-0.0040527241
0.0022865899
-0.0044304351
0.0020724925
-0.004765484
0.0018384483
-0.005054648
0.0015867107
-0.005295146
0.0013197023
-0.0054846652
0.0010399916
-0.0056213829
0.00075026826
-0.0057039835
0.00045331736
-0.0057316709
0.00015199329
-0.005704176
-0.00015080818
-0.0056217602
-0.00045217704
-0.0054852126
-0.00074921596
-0.0052958422
-0.0010390678
-0.0050554662
-0.0013189426
-0.0047663929
-0.0015861447
-0.0044313999
-0.0018380982
-0.0040537079
-0.0020723722
-0.0036369502
-0.0022867042
-0.0031851378
-0.0024790228
-0.0027026213
-0.0026474675
-0.0021940489
-0.0027904079
-0.0016643214
-0.0029064594
-0.0011185452
-0.0029944972
-0.00056198242
-0.0030536678
9.2751705e-13
-0.0030833973
0.00056198242
-0.0030833973
0.0011185452
-0.0030536678
0.0016643214
-0.0029944972
0.0021940489
-0.0029064594
0.0027026213
-0.0027904079
0.0031851378
-0.0026474675
0.0036369502
-0.0024790228
0.0040537079
-0.0022867042
0.0044313999
-0.0020723722
0.0047663929
-0.0018380982
0.0050554662
-0.0015861447
0.0052958422
-0.0013189426
0.0054852126
-0.0010390678
0.0056217602
-0.00074921596
0.005704176
-0.00045217704
0.0057316709
-0.00015080818
0.0057039835
0.00015199329
0.0056213829
0.00045331736
0.0054846652
0.00075026826
0.005295146
0.0010399916
0.005054648
0.0013197023
0.004765484
0.0015867107
0.0044304351
0.0018384483
0.0040527241
0.0020724925
0.003635985
0.0022865899
0.0031842284
0.002478678
0.0027018027
0.0026469054
0.0021933525
0.00278965
0.0016637742
0.0029055348
0.0011181682
0.0029934415
0.0005617902
0.0030525218
0.0030822053
-0.0005923078
0.0036745131
-0.0011789084
0.0036391224
-0.0017541499
0.0035686831
-0.0023124905
0.0034638754
-0.002848552
0.0033257115
-0.0033571721
0.0031555254
-0.0038334537
0.0029549596
-0.0042728127
0.0027259489
-0.0046710215
0.0024707013
-0.0050242498
0.0021916765
-0.0053291008
0.0018915617
-0.0055826439
0.0015732454
-0.0057824419
0.0012397896
-0.0059265741
0.00089440046
-0.0060136544
0.00054039769
-0.0060428441
0.00018118299
-0.0060138599
-0.00017979234
-0.0059269771
-0.00053905985
-0.0057830267
-0.00089316637
-0.0055833879
-0.0012387066
-0.0053299754
-0.0015723552
-0.0050252214
-0.0018908988
-0.0046720529
-0.0021912667
-0.0042738644
-0.0024705607
-0.0038344853
-0.0027260832
-0.0033581441
-0.002955364
-0.002849427
-0.0031561846
-0.0023132348
-0.0033266001
-0.0017547348
-0.0034649594
-0.0011793113
-0.0035699207
-0.00059251324
-0.003640466
9.8099268e-13
-0.0036759106
0.00059251324
-0.0036759106
0.0011793114
-0.003640466
0.0017547348
-0.0035699207
0.0023132348
-0.0034649594
0.002849427
-0.0033266001
0.0033581441
-0.0031561846
0.0038344853
-0.002955364
0.0042738644
-0.0027260832
0.0046720529
-0.0024705607
0.0050252214
-0.0021912667
0.0053299754
-0.0018908988
0.0055833879
-0.0015723552
0.0057830267
-0.0012387066
0.0059269771
-0.00089316637
0.0060138599
-0.00053905985
0.0060428441
-0.00017979234
0.0060136544
0.00018118299
0.0059265741
0.00054039769
0.0057824419
0.00089440046
0.0055826439
0.0012397896
0.0053291008
0.0015732454
0.0050242498
0.0018915617
0.0046710215
0.0021916765
0.0042728127
0.0024707013
0.0038334537
0.0027259489
0.0033571721
0.0029549596
0.002848552
0.0031555254
0.0023124905
0.0033257115
0.0017541499
0.0034638754
0.0011789084
0.0035686831
0.00059230779
0.0036391224
0.0036745131
-0.00062815047
0.0043026635
-0.0012502473
0.0042612193
-0.0018602957
0.0041787315
-0.0024524177
0.0040559973
-0.0030209091
0.0038942029
-0.003560295
0.0036949113
-0.0040653822
0.0034600469
-0.0045313098
0.0031918764
-0.0049535953
0.0028929868
-0.0053281777
0.002566259
-0.0056514565
0.0022148405
-0.0059203249
0.0018421138
-0.0061321998
0.0014516645
-0.0062850456
0.0010472463
-0.0063773932
0.00063274533
-0.0064083538
0.00021214354
-0.0063776269
-0.00021051919
-0.0062855039
-0.00063118286
-0.006132865
-0.0010458053
-0.0059211713
-0.0014504003
-0.0056524515
-0.0018410749
-0.0053292832
-0.0022140671
-0.0049547687
-0.0025657812
-0.0045325063
-0.0028928231
-0.0040665559
-0.0031920337
-0.0035614007
-0.0034605192
-0.0030219044
-0.0036956808
-0.0024532643
-0.0038952403
-0.001860961
-0.0040572627
-0.0012507057
-0.0041801761
-0.00062838414
-0.0042627875
1.0442973e-12
-0.0043042947
0.00062838414
-0.0043042947
0.0012507057
-0.0042627875
0.001860961
-0.0041801761
0.0024532643
-0.0040572627
0.0030219044
-0.0038952403
0.0035614007
-0.0036956808
0.0040665559
-0.0034605192
0.0045325063
-0.0031920337
0.0049547687
-0.0028928231
0.0053292832
-0.0025657812
0.0056524515
-0.0022140671
0.0059211713
-0.0018410749
0.006132865
-0.0014504003
0.0062855039
-0.0010458053
0.0063776269
-0.00063118286
0.0064083538
-0.00021051919
0.0063773932
0.00021214354
0.0062850456
0.00063274533
0.0061321998
0.0010472463
0.0059203249
0.0014516645
0.0056514565
0.0018421138
0.0053281777
0.0022148405
0.0049535953
0.002566259
0.0045313098
0.0028929868
0.0040653822
0.0031918764
0.003560295
0.0034600469
0.0030209091
0.0036949113
0.0024524177
0.0038942029
0.0018602957
0.0040559973
0.0012502473
0.0041787315
0.00062815047
0.0042612193
0.0043026635
-0.00066963181
0.0049722953
-0.0013328092
0.0049243966
-0.0019831403
0.0048290626
-0.0026143584
0.0046872154
-0.003220382
0.0045002266
-0.0037953745
0.0042699038
-0.0043338002
0.0039984725
-0.0048304777
0.0036885539
-0.0052806297
0.0033431387
-0.0056799285
0.0029655579
-0.0060245374
0.0025594493
-0.0063111462
0.0021287227
-0.006537003
0.0016775213
-0.006699939
0.0012101823
-0.0067983891
0.00073119537
-0.006831406
0.00024516043
-0.0067986693
-0.00024325584
-0.0067004887
-0.0007293635
-0.0065378009
-0.0012084931
-0.0063121615
-0.0016760397
-0.0060257309
-0.0021275055
-0.0056812544
-0.0025585435
-0.0052820371
-0.0029649985
-0.0048319126
-0.0033429477
-0.0043352075
-0.0036887387
-0.0037967002
-0.0039990265
-0.0032215751
-0.0042708059
-0.0026153731
-0.0045014423
-0.0019839376
-0.0046886981
-0.0013333584
-0.0048307553
-0.00066991183
-0.004926234
1.1166883e-12
-0.0049742065
0.00066991183
-0.0049742065
0.0013333584
-0.004926234
0.0019839377
-0.0048307553
0.0026153731
-0.0046886981
0.0032215751
-0.0045014423
0.0037967002
-0.0042708059
0.0043352075
-0.0039990265
0.0048319126
-0.0036887387
0.0052820371
-0.0033429477
0.0056812544
-0.0029649985
0.0060257309
-0.0025585435
0.0063121615
-0.0021275055
0.0065378009
-0.0016760396
0.0067004887
-0.0012084931
0.0067986693
-0.00072936349
0.006831406
-0.00024325583
0.0067983891
0.00024516043
0.006699939
0.00073119537
0.006537003
0.0012101823
0.0063111462
0.0016775213
0.0060245374
0.0021287227
0.0056799285
0.0025594493
0.0052806297
0.0029655579
0.0048304777
0.0033431388
0.0043338002
0.0036885539
0.0037953745
0.0039984725
0.003220382
0.0042699038
0.0026143584
0.0045002266
0.0019831403
0.0046872154
0.0013328092
0.0048290626
0.0006696318
0.0049243966
0.0049722953
-0.00071706265
0.005689358
-0.0014272125
0.0056345465
-0.0021236042
0.0055254543
-0.002799526
0.0053631372
-0.0034484655
0.005149166
-0.0040641723
0.0048856107
-0.0046407192
0.0045750193
-0.0051725584
0.0042203931
-0.0056545757
0.003825156
-0.0060821385
0.0033931207
-0.0064511401
0.002928451
-0.0067580381
0.0024356206
-0.006999887
0.0019193702
-0.007174366
0.0013846613
-0.0072798
0.00083662932
-0.0073151748
0.00028053525
-0.0072801469
-0.00027828375
-0.0071750464
-0.00083446397
-0.0070008745
-0.001382665
-0.0067592946
-0.0019176196
-0.0064526171
-0.002434183
-0.006083779
-0.0029273816
-0.0056563166
-0.003392461
-0.0051743329
-0.0038249314
-0.004642459
-0.0042206126
-0.0040658109
-0.0045756746
-0.0034499399
-0.0048866769
-0.0028007798
-0.0051506024
-0.0021245892
-0.0053648887
-0.001427891
-0.0055274535
-0.00071740851
-0.0056367165
1.1975337e-12
-0.0056916151
0.00071740851
-0.0056916151
0.001427891
-0.0056367165
0.0021245892
-0.0055274535
0.0028007798
-0.0053648887
0.0034499399
-0.0051506024
0.0040658109
-0.0048866769
0.004642459
-0.0045756746
0.0051743329
-0.0042206126
0.0056563166
-0.0038249314
0.006083779
-0.003392461
0.0064526171
-0.0029273816
0.0067592946
-0.002434183
0.0070008745
-0.0019176196
0.0071750464
-0.001382665
0.0072801469
-0.00083446397
0.0073151748
-0.00027828375
0.0072798
0.00028053525
0.007174366
0.00083662933
0.006999887
0.0013846613
0.0067580381
0.0019193702
0.0064511401
0.0024356206
0.0060821385
0.002928451
0.0056545757
0.0033931207
0.0051725584
0.003825156
0.0046407192
0.0042203931
0.0040641723
0.0045750193
0.0034484655
0.0048856107
0.002799526
0.005149166
0.0021236042
0.0053631372
0.0014272125
0.0055254543
0.00071706265
0.0056345465
0.005689358
-0.00077071411
0.0064600721
-0.0015339971
0.0063978295
-0.0022824903
0.0062739475
-0.003008979
0.0060896259
-0.0037064631
0.0058466501
-0.0043682245
0.0055473721
-0.0049878929
0.0051946877
-0.0055595065
0.0047920067
-0.0060775697
0.0043432193
-0.0065371054
0.0038526564
-0.0069337016
0.0033250471
-0.0072635526
0.0027654717
-0.0075234948
0.0021793124
-0.0077110349
0.0015722014
-0.0078243732
0.00094996763
-0.0078624198
0.00031858183
-0.0078248046
-0.00031589895
-0.0077118809
-0.00094738764
-0.0075247226
-0.0015698233
-0.0072651145
-0.0021772277
-0.006935537
-0.0027637605
-0.0065391434
-0.0033237752
-0.0060797315
-0.0038518728
-0.005561709
-0.004342954
-0.0049900515
-0.00479227
-0.0043702567
-0.0051954695
-0.003708291
-0.0055486426
-0.0030105329
-0.0058483605
-0.0022837108
-0.0060917108
-0.0015348376
-0.0062763267
-0.00077114256
-0.0064004116
1.2878303e-12
-0.0064627576
0.00077114256
-0.0064627576
0.0015348376
-0.0064004116
0.0022837108
-0.0062763267
0.0030105329
-0.0060917108
0.003708291
-0.0058483605
0.0043702567
-0.0055486426
0.0049900515
-0.0051954695
0.005561709
-0.00479227
0.0060797315
-0.004342954
0.0065391434
-0.0038518728
0.006935537
-0.0033237752
0.0072651145
-0.0027637605
0.0075247226
-0.0021772277
0.0077118809
-0.0015698233
0.0078248046
-0.00094738764
0.0078624198
-0.00031589895
0.0078243732
0.00031858184
0.0077110349
0.00094996763
0.0075234948
0.0015722014
0.0072635526
0.0021793124
0.0069337016
0.0027654717
0.0065371054
0.0033250471
0.0060775697
0.0038526564
0.0055595065
0.0043432193
0.0049878929
0.0047920067
0.0043682245
0.0051946877
0.0037064631
0.0055473721
0.003008979
0.0058466501
0.0022824903
0.0060896259
0.0015339971
0.0062739475
0.00077071411
0.0063978295
0.0064600721
-0.00083076292
0.007290835
-0.0016535145
0.0072205811
-0.0024603216
0.0070807546
-0.0032434067
0.006872711
-0.0039952236
0.006598467
-0.0047085309
0.0062606794
-0.0053764623
0.0058626191
-0.0059925927
0.0054081371
-0.0065509999
0.0049016265
-0.0070463207
0.0043479773
-0.0074738017
0.0037525281
-0.0078293429
0.0031210129
-0.0081095358
0.0024595052
-0.0083116941
0.0017743597
-0.0084338786
0.0010721521
-0.0084749143
0.00035961756
-0.0084344015
-0.00035641175
-0.0083127195
-0.0010690697
-0.0081110235
-0.0017715194
-0.0078312348
-0.0024570164
-0.0074760238
-0.0031189715
-0.0070487866
-0.0037510125
-0.0065536139
-0.0043470454
-0.0059952542
-0.0049013137
-0.0053790692
-0.005408455
-0.0047109836
-0.0058635551
-0.0039974286
-0.0062621975
-0.0032452803
-0.0066005088
-0.0024617928
-0.0068751984
-0.0016545274
-0.007083592
-0.00083127913
-0.0072236598
1.3893532e-12
-0.0072940368
0.00083127913
-0.0072940368
0.0016545274
-0.0072236598
0.0024617928
-0.007083592
0.0032452803
-0.0068751984
0.0039974286
-0.0066005088
0.0047109836
-0.0062621975
0.0053790692
-0.0058635551
0.0059952542
-0.005408455
0.0065536139
-0.0049013137
0.0070487866
-0.0043470454
0.0074760238
-0.0037510125
0.0078312348
-0.0031189715
0.0081110235
-0.0024570164
0.0083127195
-0.0017715194
0.0084344015
-0.0010690697
0.0084749143
-0.00035641175
0.0084338786
0.00035961757
0.0083116941
0.0010721521
0.0081095358
0.0017743597
0.0078293429
0.0024595052
0.0074738017
0.0031210129
0.0070463207
0.0037525281
0.0065509999
0.0043479773
0.0059925927
0.0049016265
0.0053764623
0.0054081371
0.0047085309
0.0058626191
0.0039952236
0.0062606794
0.0032434067
0.006598467
0.0024603216
0.006872711
0.0016535145
0.0070807546
0.00083076292
0.0072205811
0.007290835
-0.00089721002
0.008188045
-0.0017857665
0.0081091376
-0.0026571005
0.0079520886
-0.0035028114
0.0077184219
-0.0043147488
0.0074104044
-0.005085092
0.0070310226
-0.0058064259
0.006583953
-0.0064718126
0.0060735238
-0.0070748578
0.0055046716
-0.0076097714
0.0048828908
-0.0080714215
0.0042141782
-0.0084553825
0.0035049738
-0.0087579746
0.0027620973
-0.008976298
0.0019926831
-0.0091082586
0.0012041127
-0.0091525874
0.00040394638
-0.0091088522
-0.00040014693
-0.0089774617
-0.0012004601
-0.0087596624
-0.0019893187
-0.0084575273
-0.0027591515
-0.0080739386
-0.0035025601
-0.0076125618
-0.0042123893
-0.0070778129
-0.0048817943
-0.0064748182
-0.0055043085
-0.0058093667
-0.0060739065
-0.0050878561
-0.0065850657
-0.0043172317
-0.0070328219
-0.0035049196
-0.0074128209
-0.0026587549
-0.0077213631
-0.0017869051
-0.0079554419
-0.00089779014
-0.0081127748
1.5025812e-12
-0.0081918269
0.00089779014
-0.0081918269
0.0017869051
-0.0081127748
0.0026587549
-0.0079554419
0.0035049196
-0.0077213631
0.0043172317
-0.0074128209
0.0050878561
-0.0070328219
0.0058093667
-0.0065850657
0.0064748182
-0.0060739065
0.0070778129
-0.0055043085
0.0076125618
-0.0048817943
0.0080739386
-0.0042123893
0.0084575273
-0.0035025601
0.0087596624
-0.0027591515
0.0089774617
-0.0019893187
0.0091088522
-0.0012004601
0.0091525874
-0.00040014693
0.0091082586
0.00040394639
0.008976298
0.0012041127
0.0087579746
0.0019926831
0.0084553825
0.0027620973
0.0080714215
0.0035049738
0.0076097714
0.0042141782
0.0070748578
0.0048828908
0.0064718126
0.0055046716
0.0058064259
0.0060735238
0.005085092
0.006583953
0.0043147488
0.0070310226
0.0035028114
0.0074104044
0.0026571005
0.0077184219
0.0017857665
0.0079520886
0.00089721002
0.0081091376
0.008188045
-0.00096976222
0.0091578073
-0.0019301692
0.0090695446
-0.0028719572
0.0088938767
-0.0037860449
0.0086325096
-0.0046636217
0.0082879812
-0.0054962341
0.0078636351
-0.0062758677
0.0073635865
-0.0069950242
0.0067926804
-0.0076467938
0.0061564412
-0.0082249198
0.0054610168
-0.0087238575
0.0047131159
-0.0091388245
0.0039199409
-0.0094658451
0.0030891179
-0.0097017854
0.0022286234
-0.0098443825
0.0013467098
-0.0098922651
0.000451829
-0.0098449667
-0.00044744529
-0.0097029302
-0.0013424966
-0.0094675039
-0.002224745
-0.0091409298
-0.0030857256
-0.0087263239
-0.003917166
-0.0082276487
-0.0047110645
-0.0076496773
-0.0054597657
-0.0069979504
-0.0061560354
-0.0062787246
-0.0067931323
-0.0054989141
-0.0073648762
-0.0046660248
-0.0078657112
-0.0037880824
-0.0082907634
-0.0028735543
-0.0086358912
-0.0019312674
-0.0088977287
-0.00097032151
-0.0090737206
1.6279569e-12
-0.0091621484
0.00097032151
-0.0091621484
0.0019312674
-0.0090737206
0.0028735543
-0.0088977287
0.0037880824
-0.0086358912
0.0046660248
-0.0082907634
0.0054989141
-0.0078657112
0.0062787246
-0.0073648762
0.0069979504
-0.0067931323
0.0076496773
-0.0061560354
0.0082276487
-0.0054597657
0.0087263239
-0.0047110645
0.0091409298
-0.003917166
0.0094675039
-0.0030857256
0.0097029302
-0.002224745
0.0098449667
-0.0013424966
0.0098922651
-0.00044744528
0.0098443825
0.000451829
0.0097017854
0.0013467098
0.0094658451
0.0022286234
0.0091388245
0.0030891179
0.0087238575
0.0039199409
0.0082249198
0.0047131159
0.0076467938
0.0054610168
0.0069950242
0.0061564412
0.0062758677
0.0067926804
0.0054962341
0.0073635865
0.0046636217
0.0078636351
0.0037860449
0.0082879812
0.0028719572
0.0086325096
0.0019301692
0.0088938767
0.00096976222
0.0090695446
0.0091578073
-0.001047666
0.010205473
-0.0020852219
0.010107101
-0.0031026569
0.0099113117
-0.0040901574
0.0096200101
-0.0050382033
0.0092360271
-0.0059376606
0.0087630924
-0.0067798707
0.0082057966
-0.0075567336
0.0075695432
-0.0082607851
0.0068604927
-0.0088852674
0.0060854992
-0.0094241917
0.0052520401
-0.0098723925
0.0043681417
-0.010225575
0.0034423006
-0.010480355
0.0024834029
-0.010634287
0.0015006418
-0.010685892
0.00050343377
-0.010634669
-0.00049866818
-0.010481102
-0.0014960634
-0.010226655
-0.0024791924
-0.0098737557
-0.0034386244
-0.0094257788
-0.004365143
-0.0088870105
-0.0052498328
-0.0082626122
-0.006084164
-0.0075585725
-0.0068600751
-0.0067816517
-0.007570053
-0.0059393188
-0.0082072091
-0.0050396804
-0.0087653497
-0.0040914028
-0.0092390409
-0.0031036288
-0.0096236652
-0.0020858881
-0.0099154694
-0.0010480046
-0.010111604
1.7680919e-12
-0.010210153
0.0010480046
-0.010210153
0.0020858881
-0.010111604
0.0031036288
-0.0099154694
0.0040914028
-0.0096236652
0.0050396804
-0.0092390409
0.0059393189
-0.0087653497
0.0067816517
-0.0082072091
0.0075585725
-0.007570053
0.0082626122
-0.0068600751
0.0088870105
-0.006084164
0.0094257788
-0.0052498328
0.0098737557
-0.004365143
0.010226655
-0.0034386244
0.010481102
-0.0024791924
0.010634669
-0.0014960634
0.010685892
-0.00049866817
0.010634287
0.00050343378
0.010480355
0.0015006418
0.010225575
0.0024834029
0.0098723925
0.0034423006
0.0094241917
0.0043681417
0.0088852674
0.0052520401
0.0082607851
0.0060854992
0.0075567336
0.0068604928
0.0067798707
0.0075695432
0.0059376606
0.0082057966
0.0050382033
0.0087630924
0.0040901574
0.0092360271
0.0031026569
0.0096200101
0.0020852219
0.0099113117
0.0010476659
0.010107101
0.010205473
-0.0011294838
0.011334957
-0.002248062
0.011225679
-0.0033449364
0.011008186
-0.0044095221
0.010684596
-0.0054315514
0.010258056
-0.0064011745
0.0097327155
-0.0073090548
0.009113677
-0.0081464593
0.0084069478
-0.0089053414
0.0076193748
-0.0095784162
0.006758574
-0.010159228
0.0058328517
-0.010642208
0.0048511218
-0.011022726
0.0038228191
-0.011297134
0.0027578103
-0.011462796
0.0016663044
-0.011518123
0.00055876078
-0.011462584
-0.00055420705
-0.011296715
-0.0016619328
-0.01102211
-0.0027537975
-0.010641406
-0.0038193281
-0.010158259
-0.0048482905
-0.0095773054
-0.0058307861
-0.0089041237
-0.0067573457
-0.0081451782
-0.0076190206
-0.0073077612
-0.00840747
-0.0063999241
-0.0091150462
-0.0054304011
-0.0097348727
-0.0044085262
-0.010260916
-0.0033441432
-0.010688048
-0.0022475104
-0.011012102
-0.001129201
-0.011229914
1.9256879e-12
-0.011339354
0.001129201
-0.011339354
0.0022475104
-0.011229914
0.0033441432
-0.011012102
0.0044085262
-0.010688048
0.0054304011
-0.010260916
0.0063999241
-0.0097348727
0.0073077612
-0.0091150462
0.0081451782
-0.00840747
0.0089041237
-0.0076190206
0.0095773054
-0.0067573457
0.010158259
-0.0058307861
0.010641406
-0.0048482904
0.01102211
-0.0038193281
0.011296715
-0.0027537975
0.011462584
-0.0016619328
0.011518123
-0.00055420705
0.011462796
0.00055876079
0.011297134
0.0016663044
0.011022726
0.0027578103
0.010642208
0.0038228191
0.010159228
0.0048511218
0.0095784162
0.0058328517
0.0089053414
0.006758574
0.0081464593
0.0076193749
0.0073090548
0.0084069478
0.0064011745
0.009113677
0.0054315514
0.0097327155
0.0044095221
0.010258056
0.0033449364
0.010684596
0.002248062
0.011008186
0.0011294838
0.011225679
0.011334957
-0.0012128093
0.012547766
-0.0024138972
0.012426767
-0.0035916582
0.012185947
-0.0047347169
0.011827655
-0.0058320407
0.01135538
-0.0068730471
0.010773722
-0.0078477073
0.010088337
-0.008746642
0.0093058825
-0.0095612104
0.0084339432
-0.01028359
0.0074809538
-0.010906849
0.0064561109
-0.011425009
0.0053692813
-0.011833097
0.0042309068
-0.012127195
0.0030519082
-0.012304478
0.0018435876
-0.012363248
0.00061753093
-0.012302955
-0.00061449977
-0.012124203
-0.0018406846
-0.011828741
-0.0030492599
-0.011419438
-0.0042286314
-0.010900256
-0.0053674722
-0.01027621
-0.0064548324
-0.009553314
-0.0074802412
-0.0087385288
-0.0084338058
-0.0078396921
-0.0093063068
-0.0068654473
-0.010089291
-0.0058251623
-0.010775158
-0.0047288401
-0.011357238
-0.0035870242
-0.011829864
-0.0024106973
-0.012188429
-0.0012111756
-0.012429435
2.101197e-12
-0.01255053
0.0012111756
-0.01255053
0.0024106973
-0.012429435
0.0035870242
-0.012188429
0.0047288401
-0.011829864
0.0058251623
-0.011357238
0.0068654473
-0.010775158
0.0078396921
-0.010089291
0.0087385288
-0.0093063068
0.009553314
-0.0084338058
0.01027621
-0.0074802412
0.010900256
-0.0064548324
0.011419438
-0.0053674722
0.011828741
-0.0042286314
0.012124203
-0.0030492599
0.012302955
-0.0018406846
0.012363248
-0.00061449976
0.012304478
0.00061753093
0.012127195
0.0018435876
0.011833097
0.0030519082
0.011425009
0.0042309068
0.010906849
0.0053692813
0.01028359
0.0064561109
0.0095612104
0.0074809538
0.008746642
0.0084339432
0.0078477073
0.0093058825
0.0068730471
0.010088337
0.0058320407
0.010773722
0.0047347169