/*--------------------------------*- C++ -*----------------------------------*\
| =========                 |                                                 |
| \\      /  F ield         | OpenFOAM: The Open Source CFD Toolbox           |
|  \\    /   O peration     | Version:  2306                                  |
|   \\  /    A nd           | Website:  www.openfoam.com                      |
|    \\/     M anipulation  |                                                 |
\*---------------------------------------------------------------------------*/
FoamFile
{
    version     2.0;
    format      ascii;
    arch        "LSB;label=32;scalar=64";
    class       surfaceScalarField;
    location    "0.19";
    object      phi;
}
// * * * * * * * * * * * * * * * * * * * * * * * * * * * * * * * * * * * * * //

dimensions      [0 3 -1 0 0 0 0];

oriented        oriented;

internalField   nonuniform List<scalar> 
12640
(
-2.4315646e-06
-3.814259e-09
-2.4264874e-06
-5.0772198e-09
-2.420175e-06
-6.312315e-09
-2.4126571e-06
-7.51794e-09
-2.4039633e-06
-8.6937597e-09
-2.3941236e-06
-9.8396946e-09
-2.3831679e-06
-1.0955784e-08
-2.3711258e-06
-1.2042033e-08
-2.3580273e-06
-1.3098555e-08
-2.3439018e-06
-1.4125464e-08
-2.3287789e-06
-1.5122909e-08
-2.3126877e-06
-1.6091154e-08
-2.2956573e-06
-1.7030443e-08
-2.2777162e-06
-1.7941132e-08
-2.2588926e-06
-1.8823579e-08
-2.2392144e-06
-1.967823e-08
-2.2187088e-06
-2.0505531e-08
-2.1974028e-06
-2.1305996e-08
-2.1753227e-06
-2.208014e-08
-2.1524941e-06
-2.2828572e-08
-2.1289423e-06
-2.3551852e-08
-2.1046917e-06
-2.4250607e-08
-2.0797662e-06
-2.4925493e-08
-2.0541891e-06
-2.5577157e-08
-2.0279828e-06
-2.6206248e-08
-2.0011693e-06
-2.6813505e-08
-1.9737697e-06
-2.7399574e-08
-1.9458045e-06
-2.7965194e-08
-1.9172935e-06
-2.851104e-08
-1.8882556e-06
-2.9037856e-08
-1.8587093e-06
-2.9546329e-08
-1.8286721e-06
-3.0037182e-08
-1.798161e-06
-3.0511121e-08
-1.7671921e-06
-3.0968862e-08
-1.735781e-06
-3.1411127e-08
-1.7039424e-06
-3.1838574e-08
-1.6716905e-06
-3.2251885e-08
-1.6390387e-06
-3.2651807e-08
-1.6059998e-06
-3.3038927e-08
-1.5725858e-06
-3.3413978e-08
-1.5388082e-06
-3.3777576e-08
-1.5046779e-06
-3.4130371e-08
-1.4702049e-06
-3.4472997e-08
-1.4353988e-06
-3.4806034e-08
-1.4002687e-06
-3.5130127e-08
-1.3648229e-06
-3.5445869e-08
-1.329069e-06
-3.575378e-08
-1.2930146e-06
-3.605449e-08
-1.2566661e-06
-3.6348501e-08
-1.2200297e-06
-3.6636339e-08
-1.1831112e-06
-3.691857e-08
-1.1459155e-06
-3.7195633e-08
-1.1084475e-06
-3.7468066e-08
-1.0707111e-06
-3.7736324e-08
-1.0327103e-06
-3.8000866e-08
-9.9444814e-07
-3.8262138e-08
-9.5592759e-07
-3.8520554e-08
-9.1715107e-07
-3.877651e-08
-8.7812064e-07
-3.9030433e-08
-8.3883792e-07
-3.9282699e-08
-7.9930426e-07
-3.9533658e-08
-7.5952061e-07
-3.9783641e-08
-7.1948762e-07
-4.003299e-08
-6.7920561e-07
-4.028202e-08
-6.3867466e-07
-4.0530975e-08
-5.9789454e-07
-4.0780115e-08
-5.5686487e-07
-4.1029654e-08
-5.1558514e-07
-4.1279746e-08
-4.7405473e-07
-4.153038e-08
-4.3227333e-07
-4.1781405e-08
-3.9024113e-07
-4.2032209e-08
-3.4795997e-07
-4.2281157e-08
-3.0543534e-07
-4.252462e-08
-2.6268111e-07
-4.2754252e-08
-2.19729e-07
-4.2952121e-08
-1.7664429e-07
-4.3084685e-08
-1.3353303e-07
-4.3111266e-08
-9.0458445e-08
-4.3074589e-08
-4.6875393e-08
-4.3583055e-08
-4.68754e-08
-4.9800417e-06
-1.3034322e-08
-4.9682829e-06
-1.6836e-08
-4.9540476e-06
-2.0547628e-08
-4.9373961e-06
-2.41694e-08
-4.9183887e-06
-2.7701173e-08
-4.8970857e-06
-3.1142688e-08
-4.8735477e-06
-3.4493796e-08
-4.8478353e-06
-3.7754442e-08
-4.8200091e-06
-4.0924802e-08
-4.7901293e-06
-4.4005231e-08
-4.7582559e-06
-4.6996297e-08
-4.7244483e-06
-4.9898706e-08
-4.6887654e-06
-5.2713397e-08
-4.6512651e-06
-5.5441419e-08
-4.6120047e-06
-5.8083997e-08
-4.5710404e-06
-6.0642496e-08
-4.5284276e-06
-6.3118382e-08
-4.4842203e-06
-6.5513228e-08
-4.4384718e-06
-6.7828704e-08
-4.3912337e-06
-7.006662e-08
-4.3425567e-06
-7.2228822e-08
-4.2924901e-06
-7.4317222e-08
-4.2410818e-06
-7.6333769e-08
-4.1883784e-06
-7.8280547e-08
-4.1344251e-06
-8.0159554e-08
-4.0792657e-06
-8.1972956e-08
-4.0229424e-06
-8.3722825e-08
-3.9654962e-06
-8.5411374e-08
-3.9069666e-06
-8.7040688e-08
-3.8473914e-06
-8.8613007e-08
-3.7868073e-06
-9.0130432e-08
-3.7252493e-06
-9.1595196e-08
-3.6627511e-06
-9.3009369e-08
-3.5993448e-06
-9.4375154e-08
-3.5350612e-06
-9.5694697e-08
-3.4699297e-06
-9.6970055e-08
-3.4039783e-06
-9.8203325e-08
-3.3372335e-06
-9.9396584e-08
-3.2697206e-06
-1.0055187e-07
-3.2014634e-06
-1.0167114e-07
-3.1324846e-06
-1.0275641e-07
-3.0628054e-06
-1.0380952e-07
-2.992446e-06
-1.0483248e-07
-2.921425e-06
-1.0582705e-07
-2.84976e-06
-1.0679508e-07
-2.7774675e-06
-1.0773836e-07
-2.7045627e-06
-1.0865856e-07
-2.6310597e-06
-1.0955746e-07
-2.5569716e-06
-1.104366e-07
-2.4823103e-06
-1.1129765e-07
-2.4070867e-06
-1.1214216e-07
-2.3313108e-06
-1.1297161e-07
-2.2549914e-06
-1.1378743e-07
-2.1781365e-06
-1.1459114e-07
-2.1007533e-06
-1.1538405e-07
-2.022848e-06
-1.161675e-07
-1.9444258e-06
-1.1694274e-07
-1.8654912e-06
-1.1771104e-07
-1.7860481e-06
-1.1847358e-07
-1.7060994e-06
-1.1923145e-07
-1.6256472e-06
-1.1998581e-07
-1.5446932e-06
-1.2073763e-07
-1.4632383e-06
-1.2148792e-07
-1.3812827e-06
-1.2223758e-07
-1.2988262e-06
-1.2298749e-07
-1.2158679e-06
-1.2373839e-07
-1.1324066e-06
-1.2449097e-07
-1.0484407e-06
-1.2524571e-07
-9.6396815e-07
-1.2600293e-07
-8.7898712e-07
-1.2676244e-07
-7.9349581e-07
-1.2752351e-07
-7.0749307e-07
-1.2828389e-07
-6.2097884e-07
-1.2903883e-07
-5.3395444e-07
-1.2977865e-07
-4.4642113e-07
-1.3048541e-07
-3.5837262e-07
-1.3113321e-07
-2.6976773e-07
-1.3171615e-07
-1.8047006e-07
-1.3237225e-07
-9.0331717e-08
-1.3372143e-07
-1.3720711e-07
-6.1259677e-06
-2.5134429e-08
-6.1107704e-06
-3.2033256e-08
-6.0925498e-06
-3.8768255e-08
-6.07138e-06
-4.5339176e-08
-6.0473358e-06
-5.1745352e-08
-6.0204923e-06
-5.7986219e-08
-5.9909246e-06
-6.4061501e-08
-5.9587078e-06
-6.9971258e-08
-5.9239167e-06
-7.5715899e-08
-5.8866257e-06
-8.1296226e-08
-5.8469087e-06
-8.6713361e-08
-5.8048386e-06
-9.1968757e-08
-5.7604878e-06
-9.7064194e-08
-5.7139275e-06
-1.0200169e-07
-5.6652279e-06
-1.0678359e-07
-5.614458e-06
-1.1141242e-07
-5.5616854e-06
-1.1589096e-07
-5.5069765e-06
-1.2022212e-07
-5.4503961e-06
-1.2440911e-07
-5.3920076e-06
-1.2845514e-07
-5.3318728e-06
-1.3236365e-07
-5.2700518e-06
-1.361382e-07
-5.2066032e-06
-1.3978241e-07
-5.1415837e-06
-1.4330006e-07
-5.0750484e-06
-1.4669487e-07
-5.0070506e-06
-1.4997072e-07
-4.9376419e-06
-1.5313155e-07
-4.866872e-06
-1.5618122e-07
-4.794789e-06
-1.5912375e-07
-4.7214389e-06
-1.6196305e-07
-4.6468663e-06
-1.6470308e-07
-4.5711137e-06
-1.6734781e-07
-4.4942219e-06
-1.6990115e-07
-4.41623e-06
-1.7236702e-07
-4.3371754e-06
-1.7474931e-07
-4.2570937e-06
-1.7705184e-07
-4.1760186e-06
-1.7927836e-07
-4.0939825e-06
-1.8143269e-07
-4.0110159e-06
-1.8351849e-07
-3.9271476e-06
-1.855394e-07
-3.8424051e-06
-1.8749894e-07
-3.756814e-06
-1.8940066e-07
-3.6703985e-06
-1.9124796e-07
-3.5831813e-06
-1.9304423e-07
-3.4951836e-06
-1.9479276e-07
-3.4064252e-06
-1.9649678e-07
-3.3169244e-06
-1.9815939e-07
-3.2266982e-06
-1.9978369e-07
-3.1357621e-06
-2.0137262e-07
-3.0441307e-06
-2.029291e-07
-2.9518169e-06
-2.0445595e-07
-2.8588326e-06
-2.059559e-07
-2.7651884e-06
-2.0743163e-07
-2.6708939e-06
-2.0888565e-07
-2.5759574e-06
-2.1032052e-07
-2.4803863e-06
-2.1173862e-07
-2.3841868e-06
-2.1314225e-07
-2.2873642e-06
-2.1453364e-07
-2.1899228e-06
-2.1591493e-07
-2.091866e-06
-2.1728826e-07
-1.9931963e-06
-2.1865551e-07
-1.8939154e-06
-2.2001858e-07
-1.794024e-06
-2.2137926e-07
-1.6935223e-06
-2.2273926e-07
-1.5924097e-06
-2.241001e-07
-1.4906849e-06
-2.2546323e-07
-1.3883459e-06
-2.2682992e-07
-1.2853904e-06
-2.2820121e-07
-1.1818155e-06
-2.295779e-07
-1.0776176e-06
-2.3096026e-07
-9.7279324e-07
-2.323479e-07
-8.6733792e-07
-2.3373922e-07
-7.6124611e-07
-2.3513067e-07
-6.5450913e-07
-2.3651563e-07
-5.471105e-07
-2.3788401e-07
-4.3901628e-07
-2.3922747e-07
-3.3016508e-07
-2.4056736e-07
-2.2049936e-07
-2.4203798e-07
-1.1015355e-07
-2.440672e-07
-2.4736067e-07
-6.5809647e-06
-3.8642095e-08
-6.5641431e-06
-4.8854878e-08
-6.5440876e-06
-5.8823813e-08
-6.5208786e-06
-6.8548102e-08
-6.4945972e-06
-7.8026793e-08
-6.4653243e-06
-8.7259114e-08
-6.433141e-06
-9.6244769e-08
-6.3981283e-06
-1.0498395e-07
-6.3603668e-06
-1.1347743e-07
-6.3199365e-06
-1.2172651e-07
-6.2769169e-06
-1.2973298e-07
-6.2313866e-06
-1.3749909e-07
-6.1834231e-06
-1.4502762e-07
-6.1331031e-06
-1.5232167e-07
-6.080502e-06
-1.5938478e-07
-6.0256936e-06
-1.6622081e-07
-5.9687505e-06
-1.7283397e-07
-5.909744e-06
-1.7922868e-07
-5.8487434e-06
-1.8540966e-07
-5.7858167e-06
-1.9138184e-07
-5.72103e-06
-1.9715035e-07
-5.6544477e-06
-2.0272054e-07
-5.5861323e-06
-2.080978e-07
-5.5161446e-06
-2.1328772e-07
-5.4445435e-06
-2.1829595e-07
-5.371386e-06
-2.2312829e-07
-5.2967271e-06
-2.2779046e-07
-5.2206199e-06
-2.3228841e-07
-5.1431157e-06
-2.3662793e-07
-5.0642638e-06
-2.4081497e-07
-4.9841114e-06
-2.4485538e-07
-4.9027042e-06
-2.4875508e-07
-4.8200855e-06
-2.5251982e-07
-4.7362971e-06
-2.5615547e-07
-4.6513786e-06
-2.5966773e-07
-4.5653681e-06
-2.6306238e-07
-4.4783015e-06
-2.6634494e-07
-4.3902132e-06
-2.6952104e-07
-4.3011355e-06
-2.725961e-07
-4.2110994e-06
-2.7557554e-07
-4.1201337e-06
-2.7846461e-07
-4.0282659e-06
-2.8126847e-07
-3.9355216e-06
-2.8399228e-07
-3.8419248e-06
-2.8664101e-07
-3.7474981e-06
-2.8921947e-07
-3.6522624e-06
-2.9173247e-07
-3.5562372e-06
-2.9418465e-07
-3.4594403e-06
-2.9658055e-07
-3.3618884e-06
-2.9892455e-07
-3.2635966e-06
-3.0122093e-07
-3.1645786e-06
-3.0347391e-07
-3.0648471e-06
-3.0568745e-07
-2.9644131e-06
-3.0786562e-07
-2.8632867e-06
-3.1001207e-07
-2.7614766e-06
-3.1213059e-07
-2.6589905e-06
-3.1422468e-07
-2.555835e-06
-3.162978e-07
-2.4520154e-06
-3.1835322e-07
-2.3475362e-06
-3.2039412e-07
-2.2424009e-06
-3.2242357e-07
-2.1366119e-06
-3.244445e-07
-2.0301708e-06
-3.2645966e-07
-1.9230784e-06
-3.284717e-07
-1.8153345e-06
-3.3048317e-07
-1.7069382e-06
-3.3249636e-07
-1.5978879e-06
-3.3451348e-07
-1.4881814e-06
-3.365365e-07
-1.3778154e-06
-3.3856714e-07
-1.2667866e-06
-3.4060679e-07
-1.1550903e-06
-3.4265651e-07
-1.0427215e-06
-3.4471671e-07
-9.296736e-07
-3.467871e-07
-8.1593789e-07
-3.4886636e-07
-7.0150141e-07
-3.5095211e-07
-5.8634327e-07
-3.5304217e-07
-4.7043037e-07
-3.5514032e-07
-3.5372195e-07
-3.5727582e-07
-2.3621316e-07
-3.5954674e-07
-1.1808997e-07
-3.6219042e-07
-3.6545064e-07
-6.7471239e-06
-5.2939361e-08
-6.7294418e-06
-6.6536988e-08
-6.7084559e-06
-7.9809655e-08
-6.6842488e-06
-9.2755158e-08
-6.6569038e-06
-1.0537182e-07
-6.6265044e-06
-1.1765857e-07
-6.593134e-06
-1.2961509e-07
-6.5568762e-06
-1.4124179e-07
-6.5178138e-06
-1.5253979e-07
-6.4760293e-06
-1.6351103e-07
-6.4316043e-06
-1.7415801e-07
-6.3846195e-06
-1.844839e-07
-6.3351546e-06
-1.9449246e-07
-6.2832883e-06
-2.0418802e-07
-6.2290977e-06
-2.1357536e-07
-6.1726588e-06
-2.2265973e-07
-6.1140459e-06
-2.3144682e-07
-6.053332e-06
-2.3994262e-07
-5.9905881e-06
-2.4815353e-07
-5.9258837e-06
-2.5608623e-07
-5.8592865e-06
-2.6374756e-07
-5.7908624e-06
-2.7114469e-07
-5.7206753e-06
-2.782849e-07
-5.6487873e-06
-2.8517571e-07
-5.5752585e-06
-2.9182472e-07
-5.5001473e-06
-2.9823956e-07
-5.4235097e-06
-3.0442807e-07
-5.3454e-06
-3.103981e-07
-5.2658704e-06
-3.1615746e-07
-5.1849714e-06
-3.2171404e-07
-5.102751e-06
-3.2707572e-07
-5.0192557e-06
-3.3225039e-07
-4.9345298e-06
-3.3724574e-07
-4.8486157e-06
-3.4206956e-07
-4.7615539e-06
-3.4672955e-07
-4.673383e-06
-3.5123329e-07
-4.5841397e-06
-3.555883e-07
-4.4938587e-06
-3.5980196e-07
-4.4025733e-06
-3.6388154e-07
-4.3103146e-06
-3.6783425e-07
-4.217112e-06
-3.7166713e-07
-4.1229934e-06
-3.7538708e-07
-4.0279848e-06
-3.7900087e-07
-3.9321107e-06
-3.8251515e-07
-3.8353938e-06
-3.8593642e-07
-3.7378552e-06
-3.8927098e-07
-3.6395148e-06
-3.9252506e-07
-3.5403907e-06
-3.9570468e-07
-3.4404996e-06
-3.9881566e-07
-3.3398567e-06
-4.0186378e-07
-3.2384761e-06
-4.0485452e-07
-3.1363703e-06
-4.0779333e-07
-3.0335504e-06
-4.106854e-07
-2.9300267e-06
-4.135358e-07
-2.8258079e-06
-4.1634943e-07
-2.7209016e-06
-4.1913101e-07
-2.6153142e-06
-4.2188512e-07
-2.5090513e-06
-4.2461615e-07
-2.4021171e-06
-4.273283e-07
-2.294515e-06
-4.3002567e-07
-2.1862473e-06
-4.3271217e-07
-2.0773155e-06
-4.3539145e-07
-1.9677201e-06
-4.3806712e-07
-1.8574608e-06
-4.4074245e-07
-1.7465365e-06
-4.4342074e-07
-1.6349452e-06
-4.4610479e-07
-1.5226843e-06
-4.4879741e-07
-1.4097503e-06
-4.5150107e-07
-1.2961392e-06
-4.5421794e-07
-1.1818457e-06
-4.5694993e-07
-1.0668639e-06
-4.5969854e-07
-9.5118618e-07
-4.6246484e-07
-8.3480278e-07
-4.6524977e-07
-7.1770052e-07
-4.6805437e-07
-5.9986125e-07
-4.7088146e-07
-4.812618e-07
-4.7373977e-07
-3.6188329e-07
-4.7665433e-07
-2.4174741e-07
-4.7968263e-07
-1.2100563e-07
-4.829322e-07
-4.8645628e-07
-6.809055e-06
-6.7860064e-08
-6.7907304e-06
-8.4861614e-08
-6.7690842e-06
-1.0145586e-07
-6.7442e-06
-1.1763931e-07
-6.7161623e-06
-1.3340956e-07
-6.6850557e-06
-1.4876518e-07
-6.6509649e-06
-1.6370584e-07
-6.6139745e-06
-1.7823218e-07
-6.5741686e-06
-1.9234579e-07
-6.5316304e-06
-2.0604918e-07
-6.4864428e-06
-2.1934564e-07
-6.4386874e-06
-2.3223934e-07
-6.3884447e-06
-2.4473509e-07
-6.3357943e-06
-2.5683842e-07
-6.2808142e-06
-2.685555e-07
-6.2235809e-06
-2.79893e-07
-6.1641696e-06
-2.908581e-07
-6.1026537e-06
-3.0145849e-07
-6.0391051e-06
-3.1170222e-07
-5.9735936e-06
-3.2159773e-07
-5.9061875e-06
-3.3115367e-07
-5.836953e-06
-3.4037909e-07
-5.7659547e-06
-3.4928323e-07
-5.693255e-06
-3.5787545e-07
-5.6189143e-06
-3.6616538e-07
-5.5429912e-06
-3.7416267e-07
-5.4655421e-06
-3.8187714e-07
-5.3866216e-06
-3.8931858e-07
-5.3062822e-06
-3.9649692e-07
-5.2245742e-06
-4.0342201e-07
-5.1415462e-06
-4.1010375e-07
-5.0572446e-06
-4.1655198e-07
-4.9717138e-06
-4.2277649e-07
-4.8849965e-06
-4.2878692e-07
-4.797133e-06
-4.3459296e-07
-4.7081622e-06
-4.4020413e-07
-4.6181207e-06
-4.456298e-07
-4.5270434e-06
-4.5087926e-07
-4.4349633e-06
-4.5596162e-07
-4.3419117e-06
-4.6088587e-07
-4.247918e-06
-4.6566084e-07
-4.1530099e-06
-4.7029518e-07
-4.0572134e-06
-4.7479733e-07
-3.960553e-06
-4.7917562e-07
-3.8630512e-06
-4.8343818e-07
-3.7647293e-06
-4.8759292e-07
-3.6656068e-06
-4.9164758e-07
-3.5657017e-06
-4.9560971e-07
-3.4650308e-06
-4.9948662e-07
-3.3636091e-06
-5.0328546e-07
-3.2614505e-06
-5.0701317e-07
-3.1585673e-06
-5.1067647e-07
-3.0549707e-06
-5.1428195e-07
-2.9506706e-06
-5.1783588e-07
-2.8456757e-06
-5.2134439e-07
-2.7399933e-06
-5.2481337e-07
-2.6336299e-06
-5.2824858e-07
-2.5265906e-06
-5.3165546e-07
-2.4188796e-06
-5.3503934e-07
-2.3105e-06
-5.3840526e-07
-2.201454e-06
-5.4175814e-07
-2.0917429e-06
-5.4510259e-07
-1.9813669e-06
-5.4844309e-07
-1.8703255e-06
-5.5178385e-07
-1.7586174e-06
-5.5512884e-07
-1.6462404e-06
-5.5848182e-07
-1.5331915e-06
-5.6184633e-07
-1.4194669e-06
-5.6522565e-07
-1.3050621e-06
-5.6862271e-07
-1.1899717e-06
-5.7204037e-07
-1.0741892e-06
-5.7548106e-07
-9.5770678e-07
-5.7894719e-07
-8.4051526e-07
-5.824413e-07
-7.2260318e-07
-5.8596645e-07
-6.0395711e-07
-5.8952752e-07
-4.845633e-07
-5.9313358e-07
-3.6441567e-07
-5.9680194e-07
-2.4353655e-07
-6.0056176e-07
-1.2201464e-07
-6.0445411e-07
-6.0847091e-07
-6.8390546e-06
-8.3425755e-08
-6.8200823e-06
-1.0383392e-07
-6.7977874e-06
-1.237508e-07
-6.7722547e-06
-1.4317193e-07
-6.7435699e-06
-1.6209437e-07
-6.7118186e-06
-1.8051651e-07
-6.6770864e-06
-1.9843806e-07
-6.6394586e-06
-2.1585993e-07
-6.5990202e-06
-2.3278423e-07
-6.5558552e-06
-2.4921412e-07
-6.5100471e-06
-2.651538e-07
-6.461678e-06
-2.8060837e-07
-6.4108293e-06
-2.9558386e-07
-6.3575807e-06
-3.1008702e-07
-6.3020107e-06
-3.2412541e-07
-6.2441965e-06
-3.3770723e-07
-6.1842134e-06
-3.5084121e-07
-6.1221352e-06
-3.6353676e-07
-6.0580338e-06
-3.7580358e-07
-5.9919795e-06
-3.8765199e-07
-5.9240407e-06
-3.9909247e-07
-5.8542838e-06
-4.1013599e-07
-5.7827733e-06
-4.2079372e-07
-5.7095718e-06
-4.3107704e-07
-5.6347397e-06
-4.4099749e-07
-5.5583355e-06
-4.5056683e-07
-5.4804158e-06
-4.5979684e-07
-5.401035e-06
-4.6869942e-07
-5.3202454e-06
-4.7728647e-07
-5.2380976e-06
-4.8556988e-07
-5.1546397e-06
-4.9356163e-07
-5.0699181e-06
-5.0127352e-07
-4.9839773e-06
-5.0871736e-07
-4.8968594e-06
-5.1590479e-07
-4.8086049e-06
-5.2284741e-07
-4.7192523e-06
-5.2955672e-07
-4.6288381e-06
-5.3604399e-07
-4.537397e-06
-5.4232039e-07
-4.4449618e-06
-5.4839683e-07
-4.3515635e-06
-5.5428416e-07
-4.2572314e-06
-5.5999297e-07
-4.1619929e-06
-5.6553365e-07
-4.0658739e-06
-5.7091639e-07
-3.9688983e-06
-5.7615118e-07
-3.8710888e-06
-5.8124772e-07
-3.7724662e-06
-5.8621554e-07
-3.6730498e-06
-5.9106397e-07
-3.5728575e-06
-5.9580204e-07
-3.4719056e-06
-6.0043849e-07
-3.370209e-06
-6.0498201e-07
-3.2677814e-06
-6.0944084e-07
-3.1646348e-06
-6.1382307e-07
-3.0607802e-06
-6.1813654e-07
-2.9562272e-06
-6.2238888e-07
-2.8509842e-06
-6.2658737e-07
-2.7450584e-06
-6.3073917e-07
-2.6384559e-06
-6.3485106e-07
-2.5311817e-06
-6.3892967e-07
-2.4232397e-06
-6.4298137e-07
-2.3146327e-06
-6.4701223e-07
-2.2053628e-06
-6.5102809e-07
-2.0954308e-06
-6.5503455e-07
-1.9848369e-06
-6.5903701e-07
-1.8735802e-06
-6.6304048e-07
-1.7616592e-06
-6.6704987e-07
-1.6490714e-06
-6.710697e-07
-1.5358134e-06
-6.7510428e-07
-1.4218814e-06
-6.7915769e-07
-1.3072704e-06
-6.8323371e-07
-1.1919748e-06
-6.8733594e-07
-1.0759881e-06
-6.9146776e-07
-9.5930274e-07
-6.956326e-07
-8.4191006e-07
-6.9983395e-07
-7.2380055e-07
-7.0407595e-07
-6.0496424e-07
-7.0836388e-07
-4.8539256e-07
-7.1270525e-07
-3.6508357e-07
-7.1711091e-07
-2.4405119e-07
-7.2159413e-07
-1.2233852e-07
-7.2616677e-07
-7.3080945e-07
-6.8619375e-06
-9.973256e-08
-6.8422282e-06
-1.2354318e-07
-6.8192018e-06
-1.467772e-07
-6.7929444e-06
-1.694294e-07
-6.7635424e-06
-1.9149636e-07
-6.7310825e-06
-2.1297635e-07
-6.6956514e-06
-2.338692e-07
-6.6573351e-06
-2.5417621e-07
-6.6162193e-06
-2.7390001e-07
-6.5723889e-06
-2.9304453e-07
-6.5259278e-06
-3.1161489e-07
-6.4769189e-06
-3.2961727e-07
-6.4254438e-06
-3.4705888e-07
-6.371583e-06
-3.6394786e-07
-6.3154153e-06
-3.8029317e-07
-6.2570179e-06
-3.9610456e-07
-6.1964667e-06
-4.1139244e-07
-6.1338355e-06
-4.261679e-07
-6.0691966e-06
-4.4044251e-07
-6.0026203e-06
-4.542283e-07
-5.934175e-06
-4.6753781e-07
-5.8639271e-06
-4.8038386e-07
-5.7919412e-06
-4.9277961e-07
-5.7182797e-06
-5.0473848e-07
-5.6430032e-06
-5.1627404e-07
-5.5661699e-06
-5.2740007e-07
-5.4878363e-06
-5.3813047e-07
-5.4080566e-06
-5.484791e-07
-5.3268831e-06
-5.5846e-07
-5.2443658e-06
-5.6808713e-07
-5.160553e-06
-5.7737443e-07
-5.0754907e-06
-5.8633581e-07
-4.989223e-06
-5.9498504e-07
-4.901792e-06
-6.0333581e-07
-4.8132378e-06
-6.1140166e-07
-4.7235985e-06
-6.1919599e-07
-4.6329105e-06
-6.2673203e-07
-4.541208e-06
-6.3402285e-07
-4.4485236e-06
-6.410812e-07
-4.354888e-06
-6.4791972e-07
-4.2603301e-06
-6.5455084e-07
-4.1648772e-06
-6.6098666e-07
-4.0685545e-06
-6.6723908e-07
-3.9713859e-06
-6.7331973e-07
-3.8733936e-06
-6.7924001e-07
-3.7745982e-06
-6.8501103e-07
-3.6750185e-06
-6.9064357e-07
-3.5746723e-06
-6.9614826e-07
-3.4735755e-06
-7.0153535e-07
-3.3717426e-06
-7.0681486e-07
-3.269187e-06
-7.1199648e-07
-3.1659204e-06
-7.1708961e-07
-3.0619536e-06
-7.2210342e-07
-2.9572957e-06
-7.2704675e-07
-2.8519549e-06
-7.3192818e-07
-2.7459381e-06
-7.3675596e-07
-2.6392511e-06
-7.415381e-07
-2.5318985e-06
-7.4628225e-07
-2.423884e-06
-7.5099588e-07
-2.3152102e-06
-7.5568603e-07
-2.2058786e-06
-7.6035961e-07
-2.0958901e-06
-7.6502308e-07
-1.9852443e-06
-7.6968279e-07
-1.8739402e-06
-7.7434459e-07
-1.7619759e-06
-7.790142e-07
-1.6493486e-06
-7.8369701e-07
-1.5360547e-06
-7.8839813e-07
-1.4220901e-06
-7.9312234e-07
-1.3074495e-06
-7.9787423e-07
-1.1921273e-06
-8.0265817e-07
-1.0761167e-06
-8.074783e-07
-9.594106e-07
-8.1233875e-07
-8.4200086e-07
-8.1724369e-07
-7.2387915e-07
-8.2219765e-07
-6.0503726e-07
-8.2720576e-07
-4.8546862e-07
-8.3227387e-07
-3.6517093e-07
-8.3740861e-07
-2.4414962e-07
-8.4261541e-07
-1.2242145e-07
-8.4789495e-07
-8.5323089e-07
-6.8852633e-06
-1.1689695e-07
-6.8647028e-06
-1.4410369e-07
-6.840833e-06
-1.7064694e-07
-6.8137416e-06
-1.9652088e-07
-6.7835161e-06
-2.2172178e-07
-6.7502446e-06
-2.4624793e-07
-6.7140145e-06
-2.7009933e-07
-6.6749129e-06
-2.9327777e-07
-6.6330264e-06
-3.1578651e-07
-6.5884406e-06
-3.3763033e-07
-6.5412402e-06
-3.5881532e-07
-6.4915086e-06
-3.7934886e-07
-6.4393281e-06
-3.992394e-07
-6.3847794e-06
-4.1849652e-07
-6.3279419e-06
-4.3713071e-07
-6.2688931e-06
-4.5515332e-07
-6.2077091e-06
-4.7257647e-07
-6.144464e-06
-4.8941303e-07
-6.0792301e-06
-5.0567638e-07
-6.0120779e-06
-5.2138057e-07
-5.9430757e-06
-5.3653997e-07
-5.8722901e-06
-5.5116944e-07
-5.7997855e-06
-5.6528419e-07
-5.7256244e-06
-5.7889964e-07
-5.6498669e-06
-5.9203149e-07
-5.5725715e-06
-6.0469554e-07
-5.4937941e-06
-6.1690781e-07
-5.413589e-06
-6.2868424e-07
-5.332008e-06
-6.4004099e-07
-5.249101e-06
-6.5099407e-07
-5.164916e-06
-6.615595e-07
-5.0794986e-06
-6.717532e-07
-4.9928927e-06
-6.8159099e-07
-4.9051399e-06
-6.9108856e-07
-4.8162801e-06
-7.0026148e-07
-4.726351e-06
-7.0912505e-07
-4.6353886e-06
-7.1769447e-07
-4.5434268e-06
-7.2598464e-07
-4.4504978e-06
-7.3401024e-07
-4.3566319e-06
-7.4178569e-07
-4.2618575e-06
-7.4932519e-07
-4.1662015e-06
-7.566426e-07
-4.0696891e-06
-7.6375156e-07
-3.9723434e-06
-7.7066536e-07
-3.8741864e-06
-7.7739705e-07
-3.7752381e-06
-7.8395927e-07
-3.6755173e-06
-7.9036441e-07
-3.575041e-06
-7.9662456e-07
-3.4738248e-06
-8.0275151e-07
-3.3718831e-06
-8.0875657e-07
-3.2692287e-06
-8.1465091e-07
-3.165873e-06
-8.2044529e-07
-3.0618263e-06
-8.2615013e-07
-2.9570974e-06
-8.3177556e-07
-2.8516943e-06
-8.3733132e-07
-2.7456234e-06
-8.4282691e-07
-2.6388901e-06
-8.482714e-07
-2.5314987e-06
-8.5367358e-07
-2.4234526e-06
-8.5904198e-07
-2.314754e-06
-8.6438463e-07
-2.2054042e-06
-8.6970941e-07
-2.0954035e-06
-8.7502377e-07
-1.9847515e-06
-8.8033485e-07
-1.8734466e-06
-8.8564948e-07
-1.7614866e-06
-8.9097419e-07
-1.6488685e-06
-8.9631515e-07
-1.5355884e-06
-9.0167823e-07
-1.4216418e-06
-9.0706898e-07
-1.3070233e-06
-9.1249274e-07
-1.1917269e-06
-9.1795449e-07
-1.0757461e-06
-9.2345911e-07
-9.5907356e-07
-9.2901129e-07
-8.4170156e-07
-9.3461568e-07
-7.236223e-07
-9.4027693e-07
-6.0482816e-07
-9.4599988e-07
-4.8531273e-07
-9.5178934e-07
-3.6507193e-07
-9.5764948e-07
-2.4410511e-07
-9.6358223e-07
-1.2241513e-07
-9.6958491e-07
-9.7564602e-07
-6.9110939e-06
-1.3504314e-07
-6.8895594e-06
-1.6563822e-07
-6.8647253e-06
-1.9548109e-07
-6.8366806e-06
-2.2456556e-07
-6.8055146e-06
-2.5288775e-07
-6.7713165e-06
-2.8044606e-07
-6.734175e-06
-3.0724085e-07
-6.6941783e-06
-3.3327444e-07
-6.6514139e-06
-3.5855091e-07
-6.6059683e-06
-3.8307589e-07
-6.557927e-06
-4.0685664e-07
-6.5073741e-06
-4.2990174e-07
-6.4543924e-06
-4.522211e-07
-6.3990632e-06
-4.7382569e-07
-6.3414662e-06
-4.9472767e-07
-6.2816795e-06
-5.1494005e-07
-6.2197792e-06
-5.3447677e-07
-6.1558398e-06
-5.5335246e-07
-6.0899337e-06
-5.7158253e-07
-6.0221313e-06
-5.8918291e-07
-5.9525012e-06
-6.0617002e-07
-5.8811099e-06
-6.2256078e-07
-5.8080216e-06
-6.3837245e-07
-5.7332988e-06
-6.5362252e-07
-5.6570014e-06
-6.6832885e-07
-5.5791876e-06
-6.8250935e-07
-5.4999132e-06
-6.9618213e-07
-5.4192322e-06
-7.0936529e-07
-5.3371961e-06
-7.2207708e-07
-5.2538546e-06
-7.3433561e-07
-5.1692551e-06
-7.4615899e-07
-5.0834431e-06
-7.5756523e-07
-4.9964619e-06
-7.6857218e-07
-4.9083529e-06
-7.7919759e-07
-4.8191554e-06
-7.8945897e-07
-4.7289068e-06
-7.993736e-07
-4.6376427e-06
-8.0895862e-07
-4.5453965e-06
-8.1823085e-07
-4.4522e-06
-8.2720678e-07
-4.3580829e-06
-8.3590271e-07
-4.2630735e-06
-8.4433463e-07
-4.167198e-06
-8.5251813e-07
-4.070481e-06
-8.6046853e-07
-3.9729455e-06
-8.6820087e-07
-3.8746128e-06
-8.7572977e-07
-3.7755025e-06
-8.8306946e-07
-3.675633e-06
-8.9023394e-07
-3.5750209e-06
-8.9723673e-07
-3.4736813e-06
-9.0409104e-07
-3.3716281e-06
-9.1080977e-07
-3.2688738e-06
-9.1740531e-07
-3.1654292e-06
-9.2388981e-07
-3.0613044e-06
-9.30275e-07
-2.9565077e-06
-9.3657224e-07
-2.8510465e-06
-9.4279251e-07
-2.7449269e-06
-9.4894645e-07
-2.6381541e-06
-9.5504425e-07
-2.5307318e-06
-9.6109584e-07
-2.4226631e-06
-9.6711072e-07
-2.3139497e-06
-9.7309803e-07
-2.2045926e-06
-9.7906652e-07
-2.0945917e-06
-9.8502464e-07
-1.9839462e-06
-9.9098039e-07
-1.8726542e-06
-9.9694149e-07
-1.7607131e-06
-1.0029153e-06
-1.6481195e-06
-1.0089087e-06
-1.5348693e-06
-1.0149284e-06
-1.4209576e-06
-1.0209807e-06
-1.3063787e-06
-1.0270716e-06
-1.1911265e-06
-1.0332067e-06
-1.0751942e-06
-1.0393915e-06
-9.5857441e-07
-1.0456311e-06
-8.4125951e-07
-1.0519306e-06
-7.2324164e-07
-1.0582948e-06
-6.0451317e-07
-1.0647284e-06
-4.8506708e-07
-1.0712354e-06
-3.6489747e-07
-1.0778191e-06
-2.4399963e-07
-1.0844801e-06
-1.223697e-07
-1.0912149e-06
-1.0980157e-06
-6.9399268e-06
-1.5429884e-07
-6.917292e-06
-1.88273e-07
-6.8913689e-06
-2.2140425e-07
-6.8622483e-06
-2.5368615e-07
-6.8300211e-06
-2.8511495e-07
-6.7947779e-06
-3.1568923e-07
-6.7566088e-06
-3.454099e-07
-6.7156034e-06
-3.7427993e-07
-6.67185e-06
-4.0230427e-07
-6.6254362e-06
-4.2948967e-07
-6.5764483e-06
-4.5584453e-07
-6.5249712e-06
-4.8137883e-07
-6.4710884e-06
-5.0610392e-07
-6.4148817e-06
-5.300324e-07
-6.3564313e-06
-5.5317809e-07
-6.2958156e-06
-5.7555581e-07
-6.233111e-06
-5.9718133e-07
-6.1683922e-06
-6.1807128e-07
-6.1017317e-06
-6.3824297e-07
-6.0332003e-06
-6.5771439e-07
-5.9628662e-06
-6.7650405e-07
-5.8907961e-06
-6.9463096e-07
-5.817054e-06
-7.1211448e-07
-5.7417022e-06
-7.2897434e-07
-5.6648006e-06
-7.4523046e-07
-5.5864069e-06
-7.6090296e-07
-5.506577e-06
-7.7601209e-07
-5.4253641e-06
-7.9057816e-07
-5.3428198e-06
-8.0462143e-07
-5.2589931e-06
-8.1816229e-07
-5.1739312e-06
-8.3122088e-07
-5.0876791e-06
-8.4381733e-07
-5.0002797e-06
-8.5597157e-07
-4.9117739e-06
-8.6770335e-07
-4.8222007e-06
-8.790322e-07
-4.7315969e-06
-8.8997742e-07
-4.6399975e-06
-9.0055802e-07
-4.5474355e-06
-9.1079277e-07
-4.4539423e-06
-9.2070006e-07
-4.359547e-06
-9.3029797e-07
-4.2642774e-06
-9.3960429e-07
-4.1681591e-06
-9.4863638e-07
-4.0712164e-06
-9.5741129e-07
-3.9734715e-06
-9.6594569e-07
-3.8749455e-06
-9.7425583e-07
-3.7756574e-06
-9.8235758e-07
-3.6756249e-06
-9.9026641e-07
-3.5748642e-06
-9.979974e-07
-3.4733901e-06
-1.0055652e-06
-3.3712158e-06
-1.0129841e-06
-3.2683532e-06
-1.0202679e-06
-3.164813e-06
-1.0274301e-06
-3.0606044e-06
-1.0344836e-06
-2.9557356e-06
-1.0414411e-06
-2.8502134e-06
-1.0483148e-06
-2.7440434e-06
-1.0551164e-06
-2.6372302e-06
-1.0618574e-06
-2.5297775e-06
-1.0685487e-06
-2.4216874e-06
-1.0752007e-06
-2.3129616e-06
-1.0818238e-06
-2.2036005e-06
-1.0884276e-06
-2.0936036e-06
-1.0950215e-06
-1.9829696e-06
-1.1016144e-06
-1.8716963e-06
-1.1082148e-06
-1.7597808e-06
-1.1148308e-06
-1.6472191e-06
-1.1214704e-06
-1.5340068e-06
-1.1281407e-06
-1.4201386e-06
-1.1348489e-06
-1.3056087e-06
-1.1416015e-06
-1.1904105e-06
-1.1484049e-06
-1.0745369e-06
-1.155265e-06
-9.579805e-07
-1.1621875e-06
-8.4073332e-07
-1.1691778e-06
-7.2278732e-07
-1.1762408e-06
-6.0413442e-07
-1.1833812e-06
-4.8476676e-07
-1.190603e-06
-3.6467693e-07
-1.1979089e-06
-2.4385773e-07
-1.2052993e-06
-1.2230192e-07
-1.2127706e-06
-1.2203176e-06
-6.9718563e-06
-1.747941e-07
-6.9479929e-06
-2.1213638e-07
-6.9208542e-06
-2.4854291e-07
-6.8905331e-06
-2.8400724e-07
-6.8571223e-06
-3.1852578e-07
-6.820714e-06
-3.5209757e-07
-6.7813997e-06
-3.8472414e-07
-6.7392703e-06
-4.1640933e-07
-6.6944155e-06
-4.4715907e-07
-6.6469238e-06
-4.7698134e-07
-6.5968825e-06
-5.0588587e-07
-6.5443773e-06
-5.3388409e-07
-6.4894922e-06
-5.6098891e-07
-6.43231e-06
-5.8721471e-07
-6.372911e-06
-6.1257705e-07
-6.3113742e-06
-6.3709263e-07
-6.2477763e-06
-6.6077922e-07
-6.1821922e-06
-6.836554e-07
-6.1146946e-06
-7.0574057e-07
-6.0453541e-06
-7.2705486e-07
-5.9742392e-06
-7.4761889e-07
-5.9014163e-06
-7.6745383e-07
-5.8269496e-06
-7.8658126e-07
-5.7509009e-06
-8.0502307e-07
-5.6733299e-06
-8.2280142e-07
-5.5942942e-06
-8.3993864e-07
-5.5138492e-06
-8.5645717e-07
-5.4320478e-06
-8.7237948e-07
-5.3489412e-06
-8.8772808e-07
-5.264578e-06
-9.0252546e-07
-5.179005e-06
-9.1679393e-07
-5.0922666e-06
-9.3055571e-07
-5.0044053e-06
-9.4383286e-07
-4.9154615e-06
-9.5664714e-07
-4.8254736e-06
-9.6902013e-07
-4.7344779e-06
-9.8097311e-07
-4.6425088e-06
-9.9252706e-07
-4.549599e-06
-1.0037026e-06
-4.4557789e-06
-1.0145201e-06
-4.3610774e-06
-1.0249995e-06
-4.2655215e-06
-1.0351602e-06
-4.1691364e-06
-1.0450215e-06
-4.0719456e-06
-1.0546021e-06
-3.973971e-06
-1.0639202e-06
-3.8752329e-06
-1.0729939e-06
-3.7757499e-06
-1.0818406e-06
-3.6755392e-06
-1.0904772e-06
-3.5746162e-06
-1.0989204e-06
-3.4729952e-06
-1.1071862e-06
-3.370689e-06
-1.1152903e-06
-3.2677089e-06
-1.123248e-06
-3.164065e-06
-1.1310739e-06
-3.059766e-06
-1.1387825e-06
-2.9548196e-06
-1.1463875e-06
-2.849232e-06
-1.1539023e-06
-2.7430084e-06
-1.16134e-06
-2.636153e-06
-1.1687128e-06
-2.5286687e-06
-1.176033e-06
-2.4205574e-06
-1.183312e-06
-2.3118202e-06
-1.1905611e-06
-2.2024569e-06
-1.1977909e-06
-2.0924668e-06
-1.2050116e-06
-1.981848e-06
-1.2122332e-06
-1.8705979e-06
-1.2194649e-06
-1.758713e-06
-1.2267158e-06
-1.6461891e-06
-1.2339943e-06
-1.5330212e-06
-1.2413086e-06
-1.4192038e-06
-1.2486663e-06
-1.3047305e-06
-1.2560748e-06
-1.1895945e-06
-1.2635409e-06
-1.0737883e-06
-1.2710712e-06
-9.5730408e-07
-1.2786717e-06
-8.4013361e-07
-1.2863482e-06
-7.2226844e-07
-1.294106e-06
-6.0369984e-07
-1.3019498e-06
-4.8441925e-07
-1.3098837e-06
-3.6441792e-07
-1.3179103e-06
-2.4368711e-07
-1.3260301e-06
-1.2221787e-07
-1.3342399e-06
-1.3425355e-06
-7.0068806e-06
-1.9666097e-07
-6.9816584e-06
-2.3735862e-07
-6.953176e-06
-2.7702535e-07
-6.9215283e-06
-3.1565489e-07
-6.8868101e-06
-3.53244e-07
-6.8491153e-06
-3.8979238e-07
-6.8085371e-06
-4.2530233e-07
-6.7651677e-06
-4.5977871e-07
-6.7190982e-06
-4.9322862e-07
-6.6704182e-06
-5.2566136e-07
-6.6192159e-06
-5.5708813e-07
-6.565578e-06
-5.8752198e-07
-6.5095894e-06
-6.1697754e-07
-6.4513331e-06
-6.4547098e-07
-6.3908904e-06
-6.7301981e-07
-6.3283403e-06
-6.996427e-07
-6.2637601e-06
-7.2535945e-07
-6.1972247e-06
-7.5019077e-07
-6.1288071e-06
-7.7415821e-07
-6.0585778e-06
-7.9728409e-07
-5.9866055e-06
-8.195912e-07
-5.9129563e-06
-8.4110303e-07