/*--------------------------------*- C++ -*----------------------------------*\
| =========                 |                                                 |
| \\      /  F ield         | OpenFOAM: The Open Source CFD Toolbox           |
|  \\    /   O peration     | Version:  2306                                  |
|   \\  /    A nd           | Website:  www.openfoam.com                      |
|    \\/     M anipulation  |                                                 |
\*---------------------------------------------------------------------------*/
FoamFile
{
    version     2.0;
    format      ascii;
    arch        "LSB;label=32;scalar=64";
    class       surfaceScalarField;
    location    "0.35";
    object      phi_0;
}
// * * * * * * * * * * * * * * * * * * * * * * * * * * * * * * * * * * * * * //

dimensions      [0 3 -1 0 0 0 0];

oriented        oriented;

internalField   nonuniform List<scalar> 
12640
(
-1.9128028e-10
-4.9017816e-09
-7.6489535e-10
-1.4699546e-08
-1.7195691e-09
-2.4466465e-08
-3.0530541e-09
-3.4179711e-08
-4.7619413e-09
-4.3813497e-08
-6.8417277e-09
-5.3342984e-08
-9.2868444e-09
-6.2744022e-08
-1.209063e-08
-7.1992947e-08
-1.5245378e-08
-8.1066375e-08
-1.8742376e-08
-8.9941853e-08
-2.2571936e-08
-9.8597258e-08
-2.6723395e-08
-1.0701081e-07
-3.1185117e-08
-1.151616e-07
-3.5944549e-08
-1.2302914e-07
-4.098811e-08
-1.3059351e-07
-4.6301484e-08
-1.3783584e-07
-5.186943e-08
-1.4473818e-07
-5.7675934e-08
-1.5128252e-07
-6.3704218e-08
-1.5745294e-07
-6.9936758e-08
-1.632335e-07
-7.6355254e-08
-1.6860987e-07
-8.2940694e-08
-1.7356834e-07
-8.9674193e-08
-1.7809637e-07
-9.6535134e-08
-1.8218257e-07
-1.0350321e-07
-1.8581693e-07
-1.105572e-07
-1.8899035e-07
-1.1767721e-07
-1.9169511e-07
-1.2483946e-07
-1.9392465e-07
-1.3202372e-07
-1.9567332e-07
-1.3920766e-07
-1.9693795e-07
-1.4636913e-07
-1.9771586e-07
-1.5348635e-07
-1.9800481e-07
-1.6053716e-07
-1.978062e-07
-1.6749983e-07
-1.9712073e-07
-1.7435305e-07
-1.9595316e-07
-1.8107532e-07
-1.9430328e-07
-1.8764416e-07
-1.9218026e-07
-1.940402e-07
-1.8958961e-07
-2.0024575e-07
-1.8653976e-07
-2.0623733e-07
-1.830395e-07
-2.1199714e-07
-1.7910095e-07
-2.1750841e-07
-1.7473306e-07
-2.2275353e-07
-1.6995105e-07
-2.2771565e-07
-1.6476862e-07
-2.3237784e-07
-1.5920011e-07
-2.3672647e-07
-1.5326158e-07
-2.4074876e-07
-1.4697016e-07
-2.4443023e-07
-1.4034456e-07
-2.4775925e-07
-1.3340217e-07
-2.5072585e-07
-1.2616229e-07
-2.5332016e-07
-1.1864642e-07
-2.5553454e-07
-1.1087314e-07
-2.5736021e-07
-1.0286611e-07
-2.5879341e-07
-9.4644276e-08
-2.5982685e-07
-8.6233083e-08
-2.6045837e-07
-7.7650364e-08
-2.6068513e-07
-6.8922304e-08
-2.6050563e-07
-6.0069627e-08
-2.5991811e-07
-5.11169e-08
-2.5892698e-07
-4.2084042e-08
-2.5753381e-07
-3.2995583e-08
-2.5573957e-07
-2.3875688e-08
-2.5354876e-07
-1.4743766e-08
-2.5097012e-07
-5.6220873e-09
-2.4800552e-07
3.4625062e-09
-2.4466588e-07
1.2497501e-08
-2.4095722e-07
2.1453979e-08
-2.3689264e-07
3.0316783e-08
-2.3247467e-07
3.9062228e-08
-2.2772536e-07
4.7675874e-08
-2.2264836e-07
5.6132831e-08
-2.1725692e-07
6.4419082e-08
-2.1156698e-07
7.2518296e-08
-2.0558976e-07
8.0410697e-08
-1.9933847e-07
8.8082623e-08
-1.9283503e-07
9.5521473e-08
-1.8609182e-07
1.0271018e-07
-1.7912138e-07
1.0963352e-07
-1.7194069e-07
1.1628602e-07
1.2265117e-07
-1.8325136e-10
-4.7185296e-09
-7.3280098e-10
-1.4149996e-08
-1.6474476e-09
-2.355182e-08
-2.9249629e-09
-3.2902188e-08
-4.5621254e-09
-4.2176333e-08
-6.5546055e-09
-5.1350503e-08
-8.8970187e-09
-6.0401619e-08
-1.1582991e-08
-6.9306967e-08
-1.4605188e-08
-7.8044184e-08
-1.7955267e-08
-8.6591782e-08
-2.1623898e-08
-9.4928627e-08
-2.5600861e-08
-1.0303383e-07
-2.9875027e-08
-1.1088745e-07
-3.4434222e-08
-1.1846993e-07
-3.9265767e-08
-1.2576199e-07
-4.435579e-08
-1.3274581e-07
-4.9689833e-08
-1.3940414e-07
-5.5252478e-08
-1.457199e-07
-6.1027691e-08
-1.5167776e-07
-6.6998676e-08
-1.5726251e-07
-7.3148176e-08
-1.6246032e-07
-7.9457838e-08
-1.6725867e-07
-8.5909603e-08
-1.7164461e-07
-9.2483967e-08
-1.7560822e-07
-9.9161611e-08
-1.7913932e-07
-1.0592269e-07
-1.8222929e-07
-1.1274616e-07
-1.8487163e-07
-1.1961291e-07
-1.870579e-07
-1.2650104e-07
-1.8878519e-07
-1.3338965e-07
-1.9004938e-07
-1.4025875e-07
-1.9084676e-07
-1.4708618e-07
-1.9117731e-07
-1.5385161e-07
-1.9104083e-07
-1.6053401e-07
-1.904383e-07
-1.6711394e-07
-1.8937315e-07
-1.7356944e-07
-1.8784781e-07
-1.7988028e-07
-1.8586937e-07
-1.8602859e-07
-1.8344129e-07
-1.9199419e-07
-1.8057416e-07
-1.977586e-07
-1.7727509e-07
-2.0330399e-07
-1.735555e-07
-2.0861317e-07
-1.6942394e-07
-2.1366898e-07
-1.648952e-07
-2.1845628e-07
-1.5998127e-07
-2.2296022e-07
-1.546961e-07
-2.2716575e-07
-1.4905612e-07
-2.3105996e-07
-1.4307599e-07
-2.3463174e-07
-1.3677274e-07
-2.3786598e-07
-1.301679e-07
-2.407581e-07
-1.2327015e-07
-2.4329542e-07
-1.1610907e-07
-2.4547057e-07
-1.0869802e-07
-2.4727619e-07
-1.0106043e-07
-2.4870644e-07
-9.3213981e-08
-2.4975624e-07
-8.5183228e-08
-2.5042314e-07
-7.6983492e-08
-2.5070371e-07
-6.8641659e-08
-2.5059607e-07
-6.017735e-08
-2.5010239e-07
-5.1610546e-08
-2.4922094e-07
-4.2965601e-08
-2.479532e-07
-3.4263315e-08
-2.4630279e-07
-2.5526094e-08
-2.4427451e-07
-1.6772141e-08
-2.4187186e-07
-8.0247187e-09
-2.3910342e-07
6.9404418e-10
-2.3597477e-07
9.3689886e-09
-2.3249317e-07
1.7972348e-08
-2.286659e-07
2.6489484e-08
-2.2450556e-07
3.4901928e-08
-2.2001964e-07
4.3189911e-08
-2.1522135e-07
5.1334562e-08
-2.1012286e-07
5.932058e-08
-2.047329e-07
6.7128273e-08
-1.9906884e-07
7.4746677e-08
-1.9314253e-07
8.2156336e-08
-1.8696798e-07
8.9346933e-08
-1.8055872e-07
9.6300948e-08
-1.7393296e-07
1.0300768e-07
-1.6710127e-07
1.0945435e-07
1.1562945e-07
-1.7556837e-10
-4.5429611e-09
-7.0206452e-10
-1.36235e-08
-1.5783334e-09
-2.2675554e-08
-2.8022441e-09
-3.1678279e-08
-4.3707009e-09
-4.0607879e-08
-6.2795395e-09
-4.9441657e-08
-8.5236228e-09
-5.8157536e-08
-1.1096756e-08
-6.6733835e-08
-1.3992024e-08
-7.5148894e-08
-1.7201382e-08
-8.3382439e-08
-2.0715946e-08
-9.141406e-08
-2.4525883e-08
-9.9223893e-08
-2.8620349e-08
-1.0679298e-07
-3.2988147e-08
-1.1410214e-07
-3.7616681e-08
-1.2113347e-07
-4.2493032e-08
-1.2786948e-07
-4.7603167e-08
-1.34294e-07
-5.2932416e-08
-1.4039063e-07
-5.8465392e-08
-1.4614476e-07
-6.418624e-08
-1.5154165e-07
-7.0078219e-08
-1.5656834e-07
-7.6124455e-08
-1.6121245e-07
-8.2306725e-08
-1.6546234e-07
-8.8607193e-08
-1.6930774e-07
-9.5006789e-08
-1.7273973e-07
-1.0148672e-07
-1.7574932e-07
-1.0802868e-07
-1.7832967e-07
-1.1461144e-07
-1.8047514e-07
-1.2121611e-07
-1.8218052e-07
-1.2782293e-07
-1.8344259e-07
-1.3441122e-07
-1.8425849e-07
-1.4096136e-07
-1.8462718e-07
-1.474536e-07
-1.8454857e-07
-1.5386791e-07
-1.84024e-07
-1.6018517e-07
-1.8305594e-07
-1.6638496e-07
-1.8164796e-07
-1.7244949e-07
-1.7980487e-07
-1.7835865e-07
-1.7753212e-07
-1.8409531e-07
-1.7483754e-07
-1.8964139e-07
-1.7172901e-07
-1.9498027e-07
-1.6821663e-07
-2.0009425e-07
-1.6430995e-07
-2.0496853e-07
-1.600209e-07
-2.0958763e-07
-1.5536216e-07
-2.1393735e-07
-1.5034641e-07
-2.1800391e-07
-1.4498956e-07
-2.2177372e-07
-1.3930617e-07
-2.2523632e-07
-1.3331011e-07
-2.2838309e-07
-1.270212e-07
-2.3119906e-07
-1.2045417e-07
-2.3367855e-07
-1.1362955e-07
-2.3581384e-07
-1.0656275e-07
-2.3759732e-07
-9.927692e-08
-2.3902039e-07
-9.1790906e-08
-2.40085e-07
-8.4118655e-08
-2.407832e-07
-7.6285373e-08
-2.4111185e-07
-6.8313106e-08
-2.4107136e-07
-6.021777e-08
-2.4066033e-07
-5.2021475e-08
-2.3987786e-07
-4.374803e-08
-2.3872795e-07
-3.5413297e-08
-2.3721403e-07
-2.70401e-08
-2.3533719e-07
-1.864893e-08
-2.3310139e-07
-1.0260472e-08
-2.3051753e-07
-1.889793e-09
-2.2758367e-07
6.4350897e-09
-2.2431401e-07
1.4702665e-08
-2.2071522e-07
2.2890601e-08
-2.1679405e-07
3.098076e-08
-2.1256067e-07
3.8956595e-08
-2.0802611e-07
4.6799979e-08
-2.0320049e-07
5.4494948e-08
-1.981002e-07
6.2028044e-08
-1.9273107e-07
6.9377474e-08
-1.8710951e-07
7.6534743e-08
-1.8124799e-07
8.3485386e-08
-1.7516084e-07
9.021385e-08
-1.688613e-07
9.6708132e-08
-1.6236394e-07
1.0295702e-07
1.0895023e-07
-1.6820509e-10
-4.3747566e-09
-6.7261717e-10
-1.3119088e-08
-1.512113e-09
-2.1836057e-08
-2.6846596e-09
-3.0505731e-08
-4.1872942e-09
-3.9105248e-08
-6.0159953e-09
-4.7612954e-08
-8.1658798e-09
-5.6007645e-08
-1.0631246e-08
-6.4268471e-08
-1.3404929e-08
-7.2375228e-08
-1.6479444e-08
-8.0307908e-08
-1.9846388e-08
-8.8047103e-08
-2.3496167e-08
-9.5574127e-08
-2.7418939e-08
-1.028702e-07
-3.1603593e-08
-1.099175e-07
-3.6037898e-08
-1.1669915e-07
-4.0709527e-08
-1.2319785e-07
-4.560542e-08
-1.2939811e-07
-5.0711346e-08
-1.352847e-07
-5.6012574e-08
-1.4084358e-07
-6.149409e-08
-1.4606012e-07
-6.713976e-08
-1.5092267e-07
-7.2933444e-08
-1.5541874e-07
-7.8858015e-08
-1.5953775e-07
-8.4896057e-08
-1.6326969e-07
-9.1030316e-08
-1.6660547e-07
-9.7242252e-08
-1.6953739e-07
-1.0351337e-07
-1.7205862e-07
-1.0982482e-07
-1.7416372e-07
-1.1615832e-07
-1.7584701e-07
-1.2249459e-07
-1.7710628e-07
-1.2881479e-07
-1.7793829e-07
-1.3509986e-07
-1.7834211e-07
-1.4133021e-07
-1.7831819e-07
-1.4748752e-07
-1.7786666e-07
-1.5355319e-07
-1.7699025e-07
-1.5950911e-07
-1.7569212e-07
-1.6533516e-07
-1.7397881e-07
-1.7101521e-07
-1.7185205e-07
-1.7653273e-07
-1.6932006e-07
-1.8186905e-07
-1.663927e-07
-1.8700885e-07
-1.6307683e-07
-1.9193526e-07
-1.5938356e-07
-1.9663384e-07
-1.5532226e-07
-2.0109069e-07
-1.5090541e-07
-2.0529119e-07
-1.4614589e-07
-2.0922253e-07
-1.4105818e-07
-2.1287375e-07
-1.3565494e-07
-2.1623174e-07
-1.2995219e-07
-2.1928744e-07
-1.2396547e-07
-2.220301e-07
-1.1771159e-07
-2.2445283e-07
-1.1120677e-07
-2.2654528e-07
-1.0447031e-07
-2.2830417e-07
-9.7517952e-08
-2.2972398e-07
-9.0371187e-08
-2.3079649e-07
-8.3046102e-08
-2.3151986e-07
-7.5561996e-08
-2.3189153e-07
-6.7941455e-08
-2.3191178e-07
-6.0197508e-08
-2.31577e-07
-5.2356294e-08
-2.3089118e-07
-4.4433925e-08
-2.298518e-07
-3.6452715e-08
-2.2846083e-07
-2.8431035e-08
-2.2672589e-07
-2.0383881e-08
-2.2464826e-07
-1.2338097e-08
-2.2223171e-07
-4.3063869e-09
-2.1948777e-07
3.6912934e-09
-2.1641795e-07
1.163286e-08
-2.1303079e-07
1.9503498e-08
-2.093354e-07
2.7285255e-08
-2.0534019e-07
3.4961432e-08
-2.010561e-07
4.2515856e-08
-1.9649274e-07
4.9931507e-08
-1.9166115e-07
5.7196431e-08
-1.8657188e-07
6.4288224e-08
-1.8123919e-07
7.120204e-08
-1.756742e-07
7.7920335e-08
-1.6988913e-07
8.4428662e-08
-1.638999e-07
9.071893e-08
-1.5772185e-07
9.6778798e-08
1.0259499e-07
-1.611483e-10
-4.213608e-09
-6.4439343e-10
-1.2635842e-08
-1.4486719e-09
-2.1031778e-08
-2.5720723e-09
-2.9382339e-08
-4.011633e-09
-3.7665687e-08
-5.7636204e-09
-4.5860969e-08
-7.8233441e-09
-5.3947933e-08
-1.0185118e-08
-6.1906686e-08
-1.284258e-08
-6.971779e-08
-1.5787978e-08
-7.7362513e-08
-1.9013756e-08
-8.4821334e-08
-2.2510241e-08
-9.2077634e-08
-2.6268522e-08
-9.9111929e-08
-3.0277442e-08
-1.0590858e-07
-3.4526178e-08
-1.1245038e-07
-3.9001673e-08
-1.1872234e-07
-4.3692553e-08
-1.2470727e-07
-4.8584594e-08
-1.3039266e-07
-5.3664491e-08
-1.3576368e-07
-5.891704e-08
-1.4080759e-07
-6.4326634e-08
-1.4551308e-07
-6.9878856e-08
-1.4986648e-07
-7.5557263e-08
-1.5385935e-07
-8.1343994e-08
-1.5748297e-07
-8.7223983e-08
-1.607255e-07
-9.3179026e-08
-1.6358238e-07
-9.9191542e-08
-1.6604609e-07
-1.052434e-07
-1.6811184e-07
-1.1131742e-07
-1.6977298e-07
-1.1739504e-07
-1.7102869e-07
-1.2345799e-07
-1.7187528e-07
-1.2948876e-07
-1.723114e-07
-1.3546789e-07
-1.7233907e-07
-1.4137933e-07
-1.7195523e-07
-1.4720399e-07
-1.7116562e-07
-1.5292411e-07
-1.6997204e-07
-1.5852428e-07
-1.6837855e-07
-1.6398548e-07
-1.6639087e-07
-1.6929102e-07
-1.6401448e-07
-1.7442561e-07
-1.6125807e-07
-1.793735e-07
-1.5812898e-07
-1.8411946e-07
-1.5463759e-07
-1.8864953e-07
-1.5079228e-07
-1.929488e-07
-1.4660611e-07
-1.9700521e-07
-1.4208952e-07
-2.008065e-07
-1.3725689e-07
-2.0434068e-07
-1.321208e-07
-2.0759598e-07
-1.2669678e-07
-2.105638e-07
-1.2099771e-07
-2.1323395e-07
-1.150415e-07
-2.155985e-07
-1.088423e-07
-2.1765162e-07
-1.0241727e-07
-2.1938497e-07
-9.5784549e-08
-2.2079325e-07
-8.8962918e-08
-2.2187287e-07
-8.196645e-08
-2.2261688e-07
-7.4818118e-08
-2.2302949e-07
-6.7528818e-08
-2.2310407e-07
-6.0122933e-08
-2.2284066e-07
-5.2619656e-08
-2.2223739e-07
-4.5037229e-08
-2.2130116e-07
-3.7388817e-08
-2.2003011e-07
-2.9702135e-08
-2.1842649e-07
-2.1987444e-08
-2.1649519e-07
-1.4269426e-08
-2.1424146e-07
-6.5601144e-09
-2.1167024e-07
1.1199761e-09
-2.0878726e-07
8.7498411e-09
-2.0560131e-07
1.6317498e-08
-2.0211981e-07
2.3803766e-08
-1.983494e-07
3.1191035e-08
-1.9430067e-07
3.8467191e-08
-1.8998329e-07
4.5614075e-08
-1.8540518e-07
5.2618391e-08
-1.8058607e-07
5.9469042e-08
-1.7552761e-07
6.6143586e-08
-1.7024482e-07
7.263762e-08
-1.6475265e-07
7.893648e-08
-1.5905979e-07
8.5026126e-08
-1.5318029e-07
9.0899283e-08
9.6546154e-08
-1.5438912e-10
-4.0592185e-09
-6.1736734e-10
-1.2172864e-08
-1.3879172e-09
-2.0261229e-08
-2.4642028e-09
-2.8306055e-08
-3.8433572e-09
-3.6286531e-08
-5.5218856e-09
-4.4182432e-08
-7.4951854e-09
-5.1974634e-08
-9.7578391e-09
-5.9644039e-08
-1.2303638e-08
-6.7171983e-08
-1.5125848e-08
-7.454031e-08
-1.8216016e-08
-8.1731146e-08
-2.1566468e-08
-8.8727194e-08
-2.5166922e-08
-9.5511456e-08
-2.9007742e-08
-1.0206776e-07
-3.3078008e-08
-1.0838012e-07
-3.7366891e-08
-1.1443346e-07
-4.1861092e-08
-1.2021307e-07
-4.654869e-08
-1.2570506e-07
-5.1415907e-08
-1.3089647e-07
-5.6448867e-08
-1.3577458e-07
-6.1633956e-08
-1.4032801e-07
-6.6954835e-08
-1.445456e-07
-7.2396573e-08
-1.4841767e-07
-7.7944447e-08
-1.5193508e-07
-8.3580519e-08
-1.5508942e-07
-8.9289286e-08
-1.5787357e-07
-9.5054063e-08
-1.6028131e-07
-1.0085793e-07
-1.6230795e-07
-1.0668332e-07
-1.6394763e-07
-1.1251312e-07
-1.6519886e-07
-1.1832951e-07
-1.6605889e-07
-1.241163e-07
-1.6652457e-07
-1.2985693e-07
-1.6659843e-07
-1.3553189e-07
-1.6628024e-07
-1.4112542e-07
-1.6557204e-07
-1.4662076e-07
-1.6447662e-07
-1.5200147e-07
-1.6299785e-07
-1.5725159e-07
-1.6114076e-07
-1.6235437e-07
-1.5891167e-07
-1.6729547e-07
-1.5631698e-07
-1.7205973e-07
-1.5336469e-07
-1.7663065e-07
-1.5006665e-07
-1.8099801e-07
-1.4642485e-07
-1.851454e-07
-1.4245877e-07
-1.8906326e-07
-1.3817158e-07
-1.9273757e-07
-1.3358257e-07
-1.9615771e-07
-1.2870066e-07
-1.9931324e-07
-1.2354123e-07
-2.021953e-07
-1.1811564e-07
-2.0479473e-07
-1.12442e-07
-2.0710245e-07
-1.0653461e-07
-2.0911244e-07
-1.0040725e-07
-2.108181e-07
-9.4078917e-08
-2.1221588e-07
-8.7565105e-08
-2.1329589e-07
-8.0886364e-08
-2.1406377e-07
-7.4050164e-08
-2.1450964e-07
-6.7082978e-08
-2.146327e-07
-5.9999815e-08
-2.1443167e-07
-5.2820756e-08
-2.1391156e-07
-4.5557375e-08
-2.1306634e-07
-3.8234059e-08
-2.119046e-07
-3.0863857e-08
-2.1042333e-07
-2.3468662e-08
-2.0863187e-07
-1.6060882e-08
-2.065294e-07
-8.6626511e-09
-2.0412162e-07
-1.2878361e-09
-2.0141723e-07
6.0455415e-09
-1.9841973e-07
1.3319961e-08
-1.9513924e-07
2.0523394e-08
-1.9158139e-07
2.7632916e-08
-1.8775465e-07
3.4640575e-08
-1.8367233e-07
4.1531595e-08
-1.7934078e-07
4.8286883e-08
-1.7476858e-07
5.4896879e-08
-1.6997084e-07
6.1345793e-08
-1.6495673e-07
6.7623511e-08
-1.5973671e-07
7.371656e-08
-1.5432705e-07
7.9616436e-08
-1.4873607e-07
8.5308312e-08
9.0787362e-08
-1.4792277e-10
-3.9112959e-09
-5.9151048e-10
-1.1729278e-08
-1.3297318e-09
-1.9523005e-08
-2.3608532e-09
-2.7274933e-08
-3.6823039e-09
-3.4965084e-08
-5.2903756e-09
-4.2574359e-08
-7.1809114e-09
-5.0084102e-08
-9.348672e-09
-5.7476273e-08
-1.1787787e-08
-6.4732866e-08
-1.4491509e-08
-7.183658e-08
-1.745235e-08
-7.8770303e-08
-2.0662133e-08
-8.5517419e-08
-2.4111906e-08
-9.2061685e-08
-2.7791755e-08
-9.8387875e-08
-3.1691844e-08
-1.0448004e-07
-3.5800846e-08
-1.1032444e-07
-4.0107378e-08
-1.1590652e-07
-4.4599286e-08
-1.2121316e-07
-4.9263098e-08
-1.2623261e-07
-5.4086514e-08
-1.309512e-07
-5.9055267e-08
-1.3535927e-07
-6.4155114e-08
-1.3944578e-07
-6.9371142e-08
-1.4320161e-07
-7.4688683e-08
-1.4661757e-07
-8.0091977e-08
-1.4968608e-07
-8.5565512e-08
-1.5240003e-07
-9.1093092e-08
-1.5475376e-07
-9.6658858e-08
-1.5674217e-07
-1.0224581e-07
-1.5836065e-07
-1.0783847e-07
-1.5960621e-07
-1.1342047e-07
-1.6047684e-07
-1.1897384e-07
-1.609712e-07
-1.2448333e-07
-1.6108902e-07
-1.2993188e-07
-1.6083167e-07
-1.3530412e-07
-1.6019985e-07
-1.4058373e-07
-1.5919703e-07
-1.4575459e-07
-1.5782697e-07
-1.5080155e-07
-1.5609388e-07
-1.5570944e-07
-1.5400381e-07
-1.6046355e-07
-1.5156283e-07
-1.6504952e-07
-1.4877876e-07
-1.69456e-07
-1.4566019e-07
-1.7366352e-07
-1.4221735e-07
-1.7766675e-07
-1.3845552e-07
-1.8144872e-07
-1.3438959e-07
-1.8500055e-07
-1.3003071e-07
-1.8831018e-07
-1.2539109e-07
-1.9136924e-07
-1.2048215e-07
-1.9416683e-07
-1.1531804e-07
-1.966944e-07
-1.0991444e-07
-1.9894687e-07
-1.0428208e-07
-2.0091457e-07
-9.8439532e-08
-2.025917e-07
-9.2401751e-08
-2.0397391e-07
-8.6182938e-08
-2.0505907e-07
-7.9801224e-08
-2.058399e-07
-7.3269271e-08
-2.063152e-07
-6.6607859e-08
-2.064831e-07
-5.9831848e-08
-2.0634398e-07
-5.2959798e-08
-2.0589456e-07
-4.6006809e-08
-2.0513937e-07
-3.8989339e-08
-2.0407711e-07
-3.1926068e-08
-2.0271289e-07
-2.4832976e-08
-2.0104756e-07
-1.7726194e-08
-1.9908627e-07
-1.0623987e-08
-1.9683337e-07
-3.5406788e-09
-1.9429373e-07
3.5057545e-09
-1.9147605e-07
1.0502397e-08
-1.88384e-07
1.7431198e-08
-1.8502847e-07
2.4277535e-08
-1.8141385e-07
3.1025898e-08
-1.7755066e-07
3.7668463e-08
-1.7344884e-07
4.4185076e-08
-1.6911558e-07
5.0563625e-08
-1.6456518e-07
5.6795443e-08
-1.5980512e-07
6.2863327e-08
-1.5484746e-07
6.8758911e-08
-1.4970255e-07
7.4471499e-08
-1.4438496e-07
7.9990594e-08
8.5306332e-08
-1.4171741e-10
-3.7695785e-09
-5.6670515e-10
-1.130429e-08
-1.273996e-09
-1.8815712e-08
-2.2619052e-09
-2.6287029e-08
-3.5279154e-09
-3.3699069e-08
-5.0685082e-09
-4.1033765e-08
-6.8798179e-09
-4.8272807e-08
-8.9567679e-09
-5.5399322e-08
-1.1293685e-08
-6.2395964e-08
-1.3883984e-08
-6.9246275e-08
-1.6720905e-08
-7.5933388e-08
-1.9795835e-08
-8.2442481e-08
-2.3101125e-08
-8.8756381e-08
-2.6627332e-08
-9.4861663e-08
-3.0364188e-08
-1.0074318e-07
-3.43016e-08
-1.0638707e-07
-3.8428161e-08
-1.1177997e-07
-4.2732212e-08
-1.1690911e-07
-4.7202191e-08
-1.2176264e-07
-5.1824397e-08
-1.26329e-07
-5.658632e-08
-1.3059734e-07
-6.1474331e-08
-1.345578e-07
-6.6474125e-08
-1.3820183e-07
-7.1571526e-08
-1.4152016e-07
-7.6751783e-08
-1.4450584e-07
-8.199996e-08
-1.4715187e-07
-8.7300547e-08
-1.4945317e-07
-9.263859e-08
-1.5140409e-07
-9.799718e-08
-1.5300207e-07
-1.0336287e-07
-1.5424055e-07
-1.0871833e-07
-1.5512136e-07
-1.1404818e-07
-1.5564135e-07
-1.193368e-07
-1.5580036e-07
-1.2456838e-07
-1.5560013e-07
-1.2972814e-07
-1.5504011e-07
-1.3480058e-07
-1.5412462e-07
-1.3977017e-07
-1.5285741e-07
-1.4462251e-07
-1.5124148e-07
-1.4934279e-07
-1.4928342e-07
-1.5391737e-07
-1.4698828e-07
-1.5833281e-07
-1.443633e-07
-1.6257573e-07
-1.4141722e-07
-1.6663514e-07
-1.3815796e-07
-1.7049589e-07
-1.3459482e-07
-1.7414756e-07
-1.3073793e-07
-1.7758047e-07
-1.2659781e-07
-1.8078325e-07
-1.2218832e-07
-1.8374666e-07
-1.1751869e-07
-1.8646177e-07
-1.126029e-07
-1.8892116e-07
-1.0745508e-07
-1.9111563e-07
-1.0208754e-07
-1.9304005e-07
-9.6515172e-08
-1.9468907e-07
-9.0752726e-08
-1.9605665e-07
-8.4815365e-08
-1.9713856e-07
-7.8719197e-08
-1.9793173e-07
-7.2476168e-08
-1.9843274e-07
-6.6106863e-08
-1.9863956e-07
-5.9624995e-08
-1.9855388e-07
-5.3045559e-08
-1.9817442e-07
-4.6386205e-08
-1.975004e-07
-3.9663457e-08
-1.9653317e-07
-3.2893256e-08
-1.9527552e-07
-2.6090517e-08
-1.9373066e-07
-1.927103e-08
-1.9190228e-07
-1.2452235e-08
-1.8979483e-07
-5.6481058e-09
-1.8741296e-07
1.123908e-09
-1.8476109e-07
7.8504795e-09
-1.8184781e-07
1.4517899e-08
-1.7868019e-07
2.1109832e-08
-1.7526701e-07
2.7612728e-08
-1.7161264e-07
3.4014217e-08
-1.6772766e-07
4.0300041e-08
-1.6362282e-07
4.6458741e-08
-1.5930449e-07
5.2477216e-08
-1.5478547e-07
5.8344302e-08
-1.5007666e-07
6.4050084e-08
-1.4518741e-07
6.9582192e-08
-1.4012767e-07
7.493093e-08
8.0089616e-08
-1.3577992e-10
-3.6337988e-09
-5.4294596e-10
-1.0897121e-08
-1.2205897e-09
-1.8138072e-08
-2.1670662e-09
-2.5340551e-08
-3.3799674e-09
-3.2486172e-08
-4.8561409e-09
-3.955759e-08
-6.5914785e-09
-4.6537467e-08
-8.5813205e-09
-5.3409473e-08
-1.0820228e-08
-6.0157046e-08
-1.3302201e-08
-6.6764324e-08
-1.6019965e-08
-7.3215625e-08
-1.8966788e-08
-7.949566e-08
-2.2133554e-08
-8.5589587e-08
-2.551206e-08
-9.1483166e-08
-2.9092736e-08
-9.7162523e-08
-3.2865535e-08
-1.0261426e-07
-3.6819848e-08
-1.0782563e-07
-4.0944441e-08
-1.127845e-07
-4.5227984e-08
-1.1747911e-07
-4.9657831e-08
-1.2189913e-07
-5.4221974e-08
-1.260332e-07
-5.8907103e-08
-1.2987267e-07
-6.3699969e-08
-1.3340895e-07
-6.8586586e-08
-1.3663357e-07
-7.3553182e-08
-1.3953926e-07
-7.8585123e-08
-1.4211997e-07
-8.3668123e-08
-1.443702e-07
-8.8787319e-08
-1.462849e-07
-9.3929179e-08
-1.4786015e-07
-9.9076553e-08
-1.4909315e-07
-1.042156e-07
-1.4998237e-07
-1.093303e-07
-1.5052667e-07
-1.144079e-07
-1.5072273e-07
-1.1943111e-07
-1.505769e-07
-1.2438714e-07
-1.5008408e-07
-1.2926037e-07
-1.4925136e-07
-1.3403671e-07
-1.4808108e-07
-1.3870142e-07
-1.4657679e-07
-1.4324203e-07
-1.4474289e-07
-1.4764467e-07
-1.4258564e-07
-1.5189609e-07
-1.401119e-07
-1.5598227e-07
-1.3733109e-07
-1.5989487e-07
-1.3424535e-07
-1.6361927e-07
-1.3087041e-07
-1.6714565e-07
-1.2721158e-07
-1.7046241e-07
-1.2328101e-07
-1.735615e-07
-1.1908922e-07
-1.7643169e-07
-1.1464847e-07
-1.7906678e-07
-1.0996787e-07
-1.8145748e-07
-1.0506435e-07
-1.8359723e-07
-9.994771e-08
-1.8547729e-07
-9.4635066e-08
-1.8709699e-07
-8.9132946e-08
-1.8844666e-07
-8.3465664e-08
-1.895256e-07
-7.7640325e-08
-1.9032768e-07
-7.1674111e-08
-1.9085173e-07
-6.5582792e-08
-1.9109616e-07
-5.9380595e-08
-1.9105932e-07
-5.3082486e-08
-1.9073983e-07
-4.6705713e-08
-1.9013951e-07
-4.02637e-08
-1.8926077e-07
-3.3771961e-08
-1.8810322e-07
-2.7248027e-08
-1.8667057e-07
-2.0703724e-08
-1.8496557e-07
-1.4157247e-08
-1.8299207e-07
-7.621583e-09
-1.807575e-07
-1.1105746e-09
-1.7826644e-07
5.359566e-09
-1.7552263e-07
1.1774063e-08
-1.7253466e-07
1.8121914e-08
-1.6930933e-07
2.4387368e-08
-1.6585307e-07
3.0557914e-08
-1.621751e-07
3.6622085e-08
-1.5828356e-07
4.2567272e-08
-1.5418726e-07
4.8381015e-08
-1.4989711e-07
5.4054074e-08
-1.4542175e-07
5.9574778e-08
-1.4077193e-07
6.4932377e-08
-1.359607e-07
7.01197e-08
7.512462e-08
-1.3008994e-10
-3.5037092e-09
-5.2020489e-10
-1.0507006e-08
-1.1694546e-09
-1.7488821e-08
-2.0762741e-09
-2.4433731e-08
-3.2383789e-09
-3.1324068e-08
-4.6525641e-09
-3.8143403e-08
-6.3152193e-09
-4.4874821e-08
-8.2217145e-09
-5.1502982e-08
-1.0366873e-08
-5.8011894e-08
-1.2744811e-08
-6.4386393e-08
-1.5348902e-08
-7.0611521e-08
-1.8172164e-08
-7.6672385e-08
-2.1206577e-08
-8.2555176e-08
-2.444383e-08
-8.8245921e-08
-2.787486e-08
-9.3731471e-08
-3.1490064e-08
-9.8999055e-08
-3.5279368e-08
-1.0403631e-07
-3.9232141e-08
-1.0883174e-07
-4.3337206e-08
-1.1337403e-07
-4.7583109e-08
-1.1765325e-07
-5.1957673e-08
-1.2165863e-07
-5.6448552e-08
-1.2538178e-07
-6.1043082e-08
-1.2881441e-07
-6.5727756e-08
-1.3194889e-07
-7.0489779e-08
-1.3477719e-07
-7.5315199e-08
-1.3729456e-07
-8.0189773e-08
-1.3949561e-07
-8.5099392e-08
-1.4137529e-07
-9.0031263e-08
-1.4292829e-07
-9.4969908e-08
-1.4415446e-07
-9.9901336e-08
-1.4505096e-07
-1.0481199e-07
-1.4561605e-07
-1.0968531e-07
-1.4584943e-07
-1.1451048e-07
-1.4575177e-07
-1.1926978e-07
-1.4532477e-07
-1.2395151e-07
-1.4456963e-07
-1.2854243e-07
-1.4349015e-07
-1.3302671e-07
-1.420925e-07
-1.3739424e-07
-1.4037534e-07
-1.4163039e-07
-1.3834947e-07
-1.4572276e-07
-1.3601954e-07
-1.4966146e-07
-1.3339235e-07
-1.534316e-07
-1.3047522e-07
-1.5702393e-07
-1.2727813e-07
-1.604278e-07
-1.2380769e-07
-1.6363298e-07
-1.2007586e-07
-1.6663066e-07
-1.1609152e-07
-1.6941137e-07
-1.1186778e-07
-1.7196655e-07
-1.0741273e-07
-1.7429047e-07
-1.0274046e-07
-1.7637405e-07
-9.7864197e-08
-1.7821368e-07
-9.2795397e-08
-1.7980075e-07
-8.7545955e-08
-1.8113297e-07
-8.2133395e-08
-1.8220485e-07
-7.6568355e-08
-1.830132e-07
-7.0865783e-08
-1.8355723e-07
-6.5038716e-08
-1.8383222e-07
-5.9105597e-08
-1.8383883e-07
-5.3075808e-08
-1.8357802e-07
-4.6966409e-08
-1.8304827e-07
-4.0793491e-08
-1.8224913e-07
-3.4571019e-08
-1.8118597e-07
-2.8311244e-08
-1.7985907e-07
-2.2030616e-08
-1.7827089e-07
-1.5745505e-08
-1.7642782e-07
-9.4645703e-09
-1.7433164e-07
-3.2067427e-09
-1.7198779e-07
3.0157761e-09
-1.6940315e-07
9.1894338e-09
-1.6658165e-07
1.5300347e-08
-1.6353412e-07
2.1339857e-08
-1.6026529e-07
2.7289036e-08
-1.5678315e-07
3.3139909e-08
-1.5309437e-07
3.8878495e-08
-1.4920896e-07
4.4495553e-08
-1.4513628e-07
4.998155e-08
-1.4088585e-07
5.5324349e-08
-1.3646683e-07
6.0513297e-08
-1.3188746e-07
6.5540374e-08
7.0397957e-08
-1.2463841e-10
-3.3790709e-09
-4.9840094e-10
-1.0133245e-08
-1.1204368e-09
-1.6866785e-08
-1.9892571e-09
-2.3564917e-08
-3.1026355e-09
-3.0210687e-08
-4.4577042e-09
-3.6788339e-08
-6.0506417e-09
-4.3281889e-08
-7.8772783e-09
-4.9676356e-08
-9.9325447e-09
-5.5956628e-08
-1.2210912e-08
-6.210802e-08
-1.4706015e-08
-6.8116429e-08
-1.7411109e-08
-7.3967291e-08
-2.0318632e-08
-7.9647656e-08
-2.3420554e-08
-8.5143979e-08
-2.6708259e-08
-9.0443767e-08
-3.0172554e-08
-9.5534757e-08
-3.3803879e-08
-1.00405e-07
-3.7591984e-08
-1.0504361e-07
-4.1526176e-08
-1.0943988e-07
-4.5595727e-08
-1.1358369e-07
-4.9788723e-08
-1.1746563e-07
-5.4093416e-08
-1.2107707e-07
-5.8497863e-08
-1.2440996e-07
-6.2989494e-08
-1.2745726e-07
-6.7555104e-08
-1.3021164e-07
-7.2181968e-08
-1.3266767e-07
-7.6857397e-08
-1.3482017e-07
-8.1567815e-08
-1.3666492e-07
-8.6298473e-08
-1.3819764e-07
-9.1036764e-08
-1.3941619e-07
-9.5769184e-08
-1.4031849e-07
-1.0048216e-07
-1.4090314e-07
-1.0516109e-07
-1.4117048e-07
-1.0979382e-07
-1.4111898e-07
-1.1436571e-07
-1.407529e-07
-1.1886422e-07
-1.4007112e-07
-1.2327564e-07
-1.3907872e-07
-1.2758953e-07
-1.3777861e-07
-1.3178881e-07
-1.3617606e-07
-1.3586501e-07
-1.3427323e-07
-1.3980544e-07
-1.3207905e-07
-1.4359825e-07
-1.2959953e-07
-1.4723211e-07
-1.2684132e-07
-1.5069764e-07
-1.2381258e-07
-1.5398333e-07
-1.2052202e-07
-1.5708016e-07
-1.1697902e-07
-1.5997864e-07
-1.1319308e-07
-1.6267154e-07
-1.0917485e-07
-1.6515053e-07
-1.0493378e-07
-1.6740743e-07
-1.0048361e-07
-1.6943639e-07
-9.5835314e-08
-1.7123192e-07
-9.0999818e-08
-1.7278776e-07
-8.5990101e-08
-1.7409986e-07
-8.0821267e-08
-1.7516408e-07
-7.5504117e-08
-1.7597754e-07
-7.0052397e-08
-1.7653592e-07
-6.4480366e-08
-1.768411e-07
-5.8800353e-08
-1.768894e-07
-5.3027535e-08
-1.7667931e-07
-4.7176482e-08
-1.7621024e-07
-4.1262591e-08
-1.7549002e-07
-3.5291153e-08
-1.7451166e-07
-2.9289612e-08
-1.7328189e-07
-2.3260287e-08
-1.7180576e-07
-1.7221651e-08
-1.7008115e-07
-1.1189109e-08
-1.6811527e-07
-5.1726248e-09
-1.6591238e-07
8.1295288e-10
-1.6347629e-07
6.7532667e-09
-1.6081766e-07
1.264191e-08
-1.579377e-07
1.8459865e-08
-1.5484435e-07
2.4195711e-08
-1.5154444e-07
2.9840015e-08
-1.4804804e-07
3.5382131e-08
-1.4436422e-07
4.0811776e-08
-1.4049752e-07
4.6114886e-08
-1.3645971e-07
5.1286526e-08
-1.3225626e-07
5.6309845e-08
-1.2790246e-07
6.1186638e-08
6.5899494e-08
-1.1941682e-10
-3.2596539e-09
-4.7752507e-10
-9.7751359e-09
-1.0735082e-09
-1.6270804e-08
-1.9059132e-09
-2.2732509e-08
-2.9726387e-09
-2.9143964e-08
-4.2708523e-09
-3.5490122e-08
-5.7970711e-09
-4.1755676e-08
-7.5471767e-09
-4.7926237e-08
-9.5164e-09
-5.3987399e-08
-1.1699374e-08
-5.9925055e-08
-1.4090163e-08
-6.5725638e-08
-1.6682056e-08
-7.1375393e-08
-1.9468035e-08
-7.6861686e-08
-2.24403e-08
-8.2171695e-08
-2.559073e-08
-8.7293347e-08
-2.8910553e-08
-9.2214944e-08
-3.2390489e-08
-9.6925062e-08
-3.6020934e-08
-1.0141313e-07
-3.9791487e-08
-1.0566934e-07
-4.3691932e-08
-1.0968324e-07
-4.7710984e-08
-1.1344657e-07
-5.1837559e-08
-1.1695051e-07
-5.6059903e-08
-1.2018758e-07
-6.0366173e-08
-1.2315101e-07
-6.4744189e-08
-1.258336e-07
-6.9181371e-08
-1.2823045e-07
-7.3665283e-08
-1.3033629e-07
-7.8182714e-08
-1.3214748e-07
-8.2721449e-08
-1.3365891e-07
-8.7268078e-08
-1.3486961e-07
-9.1809575e-08
-1.3577701e-07
-9.6332742e-08
-1.3637996e-07
-1.0082561e-07
-1.3667764e-07
-1.0527361e-07
-1.36671e-07
-1.0966572e-07
-1.3636079e-07
-1.1398777e-07
-1.3574905e-07
-1.1822783e-07
-1.3483857e-07
-1.22374e-07
-1.3363245e-07
-1.2641498e-07
-1.3213501e-07
-1.3033642e-07
-1.3035179e-07
-1.3412977e-07
-1.2828575e-07
-1.3778287e-07
-1.2594633e-07
-1.4128517e-07
-1.2333909e-07
-1.446271e-07
-1.204706e-07
-1.4779844e-07
-1.1735072e-07
-1.5079059e-07
-1.1398683e-07
-1.5359226e-07
-1.1039145e-07
-1.5619998e-07
-1.065671e-07
-1.5860294e-07
-1.0253079e-07
-1.6079482e-07
-9.8291756e-08
-1.6277036e-07
-9.3859737e-08
-1.6452192e-07
-8.9248283e-08
-1.6604511e-07
-8.4466962e-08
-1.6733582e-07
-7.9530489e-08
-1.6839131e-07
-7.4448675e-08
-1.6920728e-07
-6.9236511e-08
-1.6978006e-07
-6.3907514e-08
-1.7010871e-07
-5.8471576e-08
-1.701913e-07
-5.2945037e-08
-1.7002982e-07
-4.7337946e-08
-1.6962377e-07
-4.1668618e-08
-1.689701e-07
-3.5944845e-08
-1.6807582e-07
-3.0183904e-08
-1.6693666e-07
-2.4399387e-08
-1.6556158e-07
-1.8596792e-08
-1.639494e-07
-1.2801342e-08
-1.6210606e-07
-7.0160196e-09
-1.6003535e-07
-1.2578276e-09
-1.5774226e-07
4.4602213e-09
-1.5523195e-07
1.013159e-08
-1.5251117e-07
1.5739129e-08
-1.4958447e-07
2.1268912e-08
-1.4646224e-07
2.6717797e-08
-1.4314714e-07
3.2066886e-08
-1.3965001e-07
3.731467e-08
-1.3597776e-07
4.2442656e-08
-1.3213736e-07
4.7446088e-08
-1.2814748e-07
5.2320093e-08
-1.2400223e-07
5.7041281e-08
6.1618764e-08
-1.1441313e-10
-3.1452408e-09
-4.5751778e-10
-9.432032e-09
-1.0285276e-09
-1.5699796e-08
-1.8260396e-09
-2.1934991e-08
-2.8480842e-09
-2.8121919e-08
-4.0918536e-09
-3.4246351e-08
-5.5541598e-09
-4.0293366e-08
-7.2309826e-09
-4.6249424e-08
-9.117747e-09
-5.2100624e-08
-1.1209326e-08
-5.7833479e-08
-1.3500079e-08
-6.3434884e-08
-1.5983549e-08
-6.8891923e-08
-1.8653061e-08
-7.4192166e-08
-2.1501268e-08
-7.9323512e-08
-2.4520043e-08
-8.4274536e-08
-2.7701372e-08
-8.9033627e-08
-3.1036291e-08
-9.3590168e-08
-3.4515554e-08
-9.7933876e-08
-3.8129656e-08
-1.0205524e-07
-4.1868094e-08
-1.0594479e-07
-4.5720288e-08
-1.095944e-07
-4.9676187e-08
-1.1299458e-07
-5.3724289e-08
-1.1613948e-07
-5.7852549e-08
-1.1902273e-07
-6.2050513e-08
-1.2163561e-07
-6.6305734e-08
-1.2397525e-07
-7.0606163e-08
-1.2603588e-07