/*--------------------------------*- C++ -*----------------------------------*\
| =========                 |                                                 |
| \\      /  F ield         | OpenFOAM: The Open Source CFD Toolbox           |
|  \\    /   O peration     | Version:  2106                                  |
|   \\  /    A nd           | Website:  www.openfoam.com                      |
|    \\/     M anipulation  |                                                 |
\*---------------------------------------------------------------------------*/
FoamFile
{
    version     2.0;
    format      ascii;
    arch        "LSB;label=32;scalar=64";
    class       volVectorField;
    location    "0.022";
    object      U_0;
}
// * * * * * * * * * * * * * * * * * * * * * * * * * * * * * * * * * * * * * //

dimensions      [0 1 -1 0 0 0 0];

internalField   nonuniform List<vector> 
4096
(
(0.0026577843 -0.0026405647 0)
(0.0079478857 -0.0026156831 0)
(0.013163095 -0.0025661399 0)
(0.018254217 -0.0024923719 0)
(0.023173154 -0.0023950305 0)
(0.027873327 -0.0022749782 0)
(0.032310101 -0.0021332825 0)
(0.036441187 -0.0019712093 0)
(0.040227034 -0.0017902143 0)
(0.043631197 -0.0015919326 0)
(0.046620693 -0.0013781672 0)
(0.049166321 -0.0011508756 0)
(0.051242957 -0.00091215454 0)
(0.05282982 -0.00066422373 0)
(0.053910705 -0.00040940732 0)
(0.054474166 -0.00015011434 0)
(0.054513634 0.00011118775 0)
(0.05402772 0.00037195517 0)
(0.053019783 0.00062972431 0)
(0.051498597 0.00088191999 0)
(0.049477805 0.0011260661 0)
(0.046976046 0.0013597368 0)
(0.044016757 0.0015805902 0)
(0.040627978 0.0017863964 0)
(0.036842101 0.0019750634 0)
(0.032695569 0.002144661 0)
(0.028228526 0.0022934446 0)
(0.023484424 0.0024198757 0)
(0.018509585 0.0025226415 0)
(0.013352735 0.002600671 0)
(0.008064498 0.0026531488 0)
(0.0026968754 0.0026795255 0)
(-0.0026973006 0.0026795244 0)
(-0.008064919 0.0026531457 0)
(-0.013353147 0.0026006658 0)
(-0.018509985 0.0025226344 0)
(-0.023484808 0.0024198667 0)
(-0.028228891 0.0022934338 0)
(-0.03269591 0.0021446485 0)
(-0.036842416 0.0019750493 0)
(-0.040628263 0.0017863809 0)
(-0.044017009 0.0015805734 0)
(-0.046976263 0.0013597189 0)
(-0.049477986 0.0011260473 0)
(-0.051498739 0.00088190042 0)
(-0.053019885 0.00062970417 0)
(-0.054027781 0.00037193464 0)
(-0.054513654 0.00011116703 0)
(-0.054474144 -0.00015013507 0)
(-0.053910642 -0.00040942785 0)
(-0.052829716 -0.00066424389 0)
(-0.051242813 -0.00091217414 0)
(-0.049166138 -0.0011508944 0)
(-0.046620474 -0.0013781852 0)
(-0.043630943 -0.0015919495 0)
(-0.040226747 -0.0017902299 0)
(-0.036440871 -0.0019712234 0)
(-0.032309758 -0.002133295 0)
(-0.02787296 -0.002274989 0)
(-0.023172767 -0.0023950396 0)
(-0.018253814 -0.002492379 0)
(-0.013162679 -0.0025661451 0)
(-0.0079474616 -0.0026156862 0)
(-0.002657356 -0.0026405657 0)
(0.0027215627 -0.0079690009 0)
(0.0081386173 -0.0078939138 0)
(0.013478991 -0.0077444035 0)
(0.018692314 -0.0075217876 0)
(0.023729338 -0.007228032 0)
(0.028542372 -0.006865739 0)
(0.033085714 -0.0064381301 0)
(0.037316063 -0.0059490249 0)
(0.04119292 -0.0054028157 0)
(0.044678969 -0.0048044364 0)
(0.047740435 -0.0041593274 0)
(0.050347412 -0.0034733953 0)
(0.052474172 -0.0027529673 0)
(0.05409943 -0.0020047414 0)
(0.055206581 -0.0012357312 0)
(0.055783897 -0.00045320768 0)
(0.055824665 0.00033536498 0)
(0.055327338 0.0011224201 0)
(0.054295516 0.0019003315 0)
(0.052738059 0.0026614625 0)
(0.05066895 0.0033983099 0)
(0.048107261 0.004103548 0)
(0.045076981 0.0047701083 0)
(0.041606815 0.0053912601 0)
(0.037729928 0.0059606879 0)
(0.033483635 0.0064725652 0)
(0.028909048 0.0069216249 0)
(0.024050667 0.0073032225 0)
(0.018955936 0.0076133944 0)
(0.013674763 0.0078489073 0)
(0.0082590039 0.0080072992 0)
(0.0027619246 0.0080869111 0)
(-0.0027623552 0.008086908 0)
(-0.0082594302 0.0080072899 0)
(-0.013675181 0.0078488919 0)
(-0.018956342 0.007613373 0)
(-0.024051056 0.0073031954 0)
(-0.028909417 0.0069215924 0)
(-0.033483981 0.0064725276 0)
(-0.037730246 0.0059606455 0)
(-0.041607103 0.0053912135 0)
(-0.045077236 0.0047700579 0)
(-0.048107481 0.0041034942 0)
(-0.050669133 0.0033982533 0)
(-0.052738202 0.0026614036 0)
(-0.054295619 0.0019002709 0)
(-0.0553274 0.0011223583 0)
(-0.055824685 0.00033530262 0)
(-0.055783875 -0.00045327005 0)
(-0.055206517 -0.001235793 0)
(-0.054099324 -0.002004802 0)
(-0.052474026 -0.0027530263 0)
(-0.050347228 -0.003473452 0)
(-0.047740213 -0.0041593813 0)
(-0.044678712 -0.004804487 0)
(-0.041192629 -0.0054028625 0)
(-0.037315742 -0.0059490675 0)
(-0.033085366 -0.0064381679 0)
(-0.028542 -0.0068657717 0)
(-0.023728946 -0.0072280593 0)
(-0.018691905 -0.0075218091 0)
(-0.01347857 -0.0077444191 0)
(-0.0081381879 -0.0078939232 0)
(-0.002721129 -0.0079690041 0)
(0.0028351947 -0.013486072 0)
(0.0084784324 -0.013359005 0)
(0.014041783 -0.013105996 0)
(0.019472772 -0.012729273 0)
(0.024720093 -0.012232164 0)
(0.029734065 -0.011619072 0)
(0.034467079 -0.01089545 0)
(0.038874028 -0.010067761 0)
(0.042912728 -0.0091434371 0)
(0.046544309 -0.0081308273 0)
(0.049733592 -0.0070391371 0)
(0.05244943 -0.0058783605 0)
(0.054665022 -0.0046592031 0)
(0.056358202 -0.0033929974 0)
(0.057511672 -0.0020916099 0)
(0.058113212 -0.00076734 0)
(0.058155832 0.00056718901 0)
(0.057637896 0.0018991559 0)
(0.056563176 0.0032156475 0)
(0.05494087 0.0045037706 0)
(0.052785545 0.0057508183 0)
(0.050117053 0.0069443883 0)
(0.046960373 0.0080725155 0)
(0.043345397 0.0091238061 0)
(0.039306668 0.010087568 0)
(0.034883054 0.010953938 0)
(0.03011738 0.011713996 0)
(0.025056005 0.012359877 0)
(0.019748361 0.012884871 0)
(0.014246445 0.0132835 0)
(0.0086042898 0.013551596 0)
(0.002877398 0.013686348 0)
(-0.0028778373 0.013686343 0)
(-0.0086047248 0.01355158 0)
(-0.014246871 0.013283474 0)
(-0.019748774 0.012884835 0)
(-0.025056402 0.012359832 0)
(-0.030117757 0.011713941 0)
(-0.034883406 0.010953875 0)
(-0.039306993 0.010087497 0)
(-0.043345691 0.0091237277 0)
(-0.046960633 0.0080724307 0)
(-0.050117277 0.0069442979 0)
(-0.052785731 0.0057507232 0)
(-0.054941016 0.0045036717 0)
(-0.056563281 0.0032155457 0)
(-0.057637959 0.0018990521 0)
(-0.058155852 0.00056708432 0)
(-0.058113189 -0.00076744472 0)
(-0.057511607 -0.0020917136 0)
(-0.056358095 -0.0033930993 0)
(-0.054664874 -0.0046593021 0)
(-0.052449241 -0.0058784557 0)
(-0.049733366 -0.0070392277 0)
(-0.046544047 -0.0081309123 0)
(-0.042912431 -0.0091435157 0)
(-0.038873701 -0.010067832 0)
(-0.034466724 -0.010895514 0)
(-0.029733686 -0.011619127 0)
(-0.024719693 -0.01223221 0)
(-0.019472355 -0.012729309 0)
(-0.014041353 -0.013106022 0)
(-0.0084779941 -0.013359021 0)
(-0.002834752 -0.013486077 0)
(0.0029988799 -0.019279297 0)
(0.0089679271 -0.019097642 0)
(0.014852458 -0.01873594 0)
(0.020596957 -0.018197379 0)
(0.02614715 -0.017486717 0)
(0.031450482 -0.016610253 0)
(0.036456594 -0.015575781 0)
(0.04111778 -0.014392545 0)
(0.045389425 -0.013071172 0)
(0.049230426 -0.011623597 0)
(0.052603586 -0.010062981 0)
(0.055475971 -0.0084036103 0)
(0.057819253 -0.006660787 0)
(0.059609994 -0.0048507088 0)
(0.060829913 -0.0029903351 0)
(0.061466091 -0.0010972431 0)
(0.061511143 0.00081052807 0)
(0.060963337 0.0027146453 0)
(0.059826662 0.0045966474 0)
(0.058110838 0.00643812 0)
(0.055831265 0.0082208966 0)
(0.053008928 0.0099272452 0)
(0.049670235 0.011540059 0)
(0.04584679 0.013043046 0)
(0.041575116 0.014420917 0)
(0.036896317 0.015659564 0)
(0.031855683 0.016746232 0)
(0.026502244 0.01766967 0)
(0.020888286 0.018420278 0)
(0.015068812 0.018990222 0)
(0.0091009799 0.019373536 0)
(0.0030435043 0.019566201 0)
(-0.0030439562 0.019566193 0)
(-0.0091014274 0.019373514 0)
(-0.015069251 0.018990185 0)
(-0.020888711 0.018420227 0)
(-0.026502652 0.017669606 0)
(-0.031856069 0.016746154 0)
(-0.036896679 0.015659475 0)
(-0.04157545 0.014420816 0)
(-0.045847092 0.013042935 0)
(-0.049670502 0.011539939 0)
(-0.053009159 0.0099271174 0)
(-0.055831456 0.0082207621 0)
(-0.058110988 0.0064379801 0)
(-0.05982677 0.0045965035 0)
(-0.060963402 0.0027144986 0)
(-0.061511164 0.00081038004 0)
(-0.061466068 -0.0010973911 0)
(-0.060829846 -0.0029904818 0)
(-0.059609884 -0.0048508529 0)
(-0.0578191 -0.006660927 0)
(-0.055475777 -0.008403745 0)
(-0.052603352 -0.010063109 0)
(-0.049230156 -0.011623717 0)
(-0.04538912 -0.013071283 0)
(-0.041117443 -0.014392646 0)
(-0.036456229 -0.015575871 0)
(-0.031450092 -0.01661033 0)
(-0.026146738 -0.017486782 0)
(-0.020596528 -0.01819743 0)
(-0.014852015 -0.018735977 0)
(-0.008967476 -0.019097664 0)
(-0.0029984242 -0.019279304 0)
(0.0032144804 -0.025448893 0)
(0.0096126689 -0.025209087 0)
(0.015920231 -0.024731599 0)
(0.022077643 -0.024020642 0)
(0.02802671 -0.0230825 0)
(0.033711091 -0.021925495 0)
(0.039076801 -0.020559922 0)
(0.044072709 -0.018997989 0)
(0.048651001 -0.017253729 0)
(0.052767635 -0.015342904 0)
(0.056382759 -0.013282887 0)
(0.059461099 -0.01109254 0)
(0.061972312 -0.0087920586 0)
(0.063891304 -0.0064028212 0)
(0.065198502 -0.0039472083 0)
(0.065880079 -0.0014484143 0)
(0.065928134 0.0010697571 0)
(0.065340822 0.0035831106 0)
(0.064122419 0.0060672829 0)
(0.06228334 0.0084979794 0)
(0.059840084 0.010851225 0)
(0.056815133 0.013103616 0)
(0.053236775 0.01523257 0)
(0.049138871 0.017216578 0)
(0.044560551 0.019035455 0)
(0.039545858 0.020670571 0)
(0.034143324 0.022105081 0)
(0.028405496 0.023324126 0)
(0.022388413 0.024315025 0)
(0.016151028 0.025067431 0)
(0.0097546087 0.025573463 0)
(0.0032620945 0.02582781 0)
(-0.003262563 0.0258278 0)
(-0.0097550726 0.025573434 0)
(-0.016151483 0.025067383 0)
(-0.022388854 0.024314959 0)
(-0.028405919 0.023324042 0)
(-0.034143724 0.02210498 0)
(-0.039546232 0.020670455 0)
(-0.044560896 0.019035324 0)
(-0.049139183 0.017216434 0)
(-0.053237052 0.015232413 0)
(-0.056815371 0.01310345 0)
(-0.059840282 0.01085105 0)
(-0.062283495 0.0084977973 0)
(-0.064122531 0.0060670955 0)
(-0.065340889 0.0035829196 0)
(-0.065928156 0.0010695644 0)
(-0.065880054 -0.001448607 0)
(-0.065198432 -0.0039473993 0)
(-0.063891189 -0.0064030087 0)
(-0.061972153 -0.0087922409 0)
(-0.059460898 -0.011092715 0)
(-0.056382518 -0.013283054 0)
(-0.052767355 -0.01534306 0)
(-0.048650685 -0.017253874 0)
(-0.04407236 -0.01899812 0)
(-0.039076423 -0.020560039 0)
(-0.033710686 -0.021925596 0)
(-0.028026283 -0.023082585 0)
(-0.022077198 -0.024020708 0)
(-0.015919772 -0.024731648 0)
(-0.0096122008 -0.025209116 0)
(-0.0032140077 -0.025448903 0)
(0.0034855189 -0.032101615 0)
(0.01042319 -0.031799077 0)
(0.01726254 -0.031196683 0)
(0.023938994 -0.030299753 0)
(0.030389427 -0.029116226 0)
(0.036552729 -0.027656609 0)
(0.042370358 -0.025933905 0)
(0.04778687 -0.023963524 0)
(0.052750436 -0.021763182 0)
(0.057213322 -0.019352772 0)
(0.061132346 -0.016754218 0)
(0.064469296 -0.013991313 0)
(0.067191313 -0.011089538 0)
(0.069271227 -0.0080758523 0)
(0.070687855 -0.0049784809 0)
(0.071426238 -0.0018266701 0)
(0.071477838 0.0013495666 0)
(0.070840673 0.0045197207 0)
(0.069519391 0.0076530736 0)
(0.067525284 0.010718994 0)
(0.064876238 0.013687252 0)
(0.061596616 0.01652833 0)
(0.057717073 0.019213745 0)
(0.053274301 0.021716367 0)
(0.048310708 0.024010728 0)
(0.042874027 0.026073321 0)
(0.037016861 0.027882887 0)
(0.030796172 0.029420676 0)
(0.024272705 0.03067068 0)
(0.017510378 0.031619836 0)
(0.010575616 0.032258197 0)
(0.0035366595 0.032579059 0)
(-0.0035371489 0.032579047 0)
(-0.0105761 0.032258161 0)
(-0.017510853 0.031619776 0)
(-0.024273166 0.030670597 0)
(-0.030796613 0.029420572 0)
(-0.03701728 0.027882762 0)
(-0.042874418 0.026073176 0)
(-0.048311068 0.024010565 0)
(-0.053274627 0.021716188 0)
(-0.057717361 0.019213551 0)
(-0.061596865 0.016528123 0)
(-0.064876444 0.013687034 0)
(-0.067525446 0.010718768 0)
(-0.069519507 0.007652841 0)
(-0.070840742 0.0045194838 0)
(-0.07147786 0.0013493275 0)
(-0.071426212 -0.0018269092 0)
(-0.070687782 -0.0049787179 0)
(-0.069271108 -0.008076085 0)
(-0.067191147 -0.011089764 0)
(-0.064469086 -0.013991531 0)
(-0.061132094 -0.016754425 0)
(-0.057213029 -0.019352966 0)
(-0.052750106 -0.021763362 0)
(-0.047786505 -0.023963688 0)
(-0.042369962 -0.025934051 0)
(-0.036552306 -0.027656736 0)
(-0.030388981 -0.029116332 0)
(-0.023938529 -0.030299836 0)
(-0.01726206 -0.031196743 0)
(-0.0104227 -0.031799114 0)
(-0.0034850245 -0.032101627 0)
(0.0038172659 -0.039352508 0)
(0.011415248 -0.038981554 0)
(0.018905473 -0.038242939 0)
(0.026217171 -0.037143197 0)
(0.033281172 -0.03569208 0)
(0.040030523 -0.033902485 0)
(0.046401097 -0.031790375 0)
(0.052332175 -0.029374669 0)
(0.057767012 -0.026677105 0)
(0.062653363 -0.023722088 0)
(0.066943977 -0.020536513 0)
(0.070597061 -0.017149556 0)
(0.073576685 -0.013592456 0)
(0.075853156 -0.0098982589 0)
(0.077403333 -0.0061015547 0)
(0.078210889 -0.0022381798 0)
(0.078266518 0.0016550926 0)
(0.077568083 0.0055408843 0)
(0.076120695 0.0093815605 0)
(0.073936731 0.013139594 0)
(0.071035775 0.016777943 0)
(0.067444498 0.020260438 0)
(0.063196448 0.023552171 0)
(0.058331786 0.026619884 0)
(0.052896922 0.029432355 0)
(0.046944103 0.031960761 0)
(0.040530908 0.034179031 0)
(0.03371969 0.036064166 0)
(0.026576954 0.037596532 0)
(0.019172678 0.038760103 0)
(0.01157959 0.039542677 0)
(0.0038724126 0.039936027 0)
(-0.0038729277 0.039936012 0)
(-0.0115801 0.039542633 0)
(-0.019173177 0.038760031 0)
(-0.026577438 0.037596432 0)
(-0.033720154 0.03606404 0)
(-0.040531348 0.034178879 0)
(-0.046944514 0.031960586 0)
(-0.052897301 0.029432158 0)
(-0.058332128 0.026619668 0)
(-0.063196751 0.023551937 0)
(-0.067444758 0.020260189 0)
(-0.071035991 0.016777681 0)
(-0.0739369 0.013139322 0)
(-0.076120816 0.0093812807 0)
(-0.077568155 0.0055405993 0)
(-0.07826654 0.001654805 0)
(-0.078210861 -0.0022384674 0)
(-0.077403256 -0.0061018397 0)
(-0.07585303 -0.0098985388 0)
(-0.073576511 -0.013592728 0)
(-0.07059684 -0.017149818 0)
(-0.066943712 -0.020536762 0)
(-0.062653055 -0.023722322 0)
(-0.057766666 -0.026677321 0)
(-0.052331792 -0.029374866 0)
(-0.046400681 -0.031790551 0)
(-0.040030078 -0.033902637 0)
(-0.033280703 -0.035692207 0)
(-0.026216681 -0.037143298 0)
(-0.018904967 -0.038243011 0)
(-0.011414733 -0.038981598 0)
(-0.003816745 -0.039352522 0)
(0.0042168877 -0.047328802 0)
(0.012610272 -0.046882525 0)
(0.020884505 -0.04599394 0)
(0.028961342 -0.044670927 0)
(0.036764317 -0.042925237 0)
(0.044219429 -0.040772418 0)
(0.051255816 -0.038231706 0)
(0.057806405 -0.035325892 0)
(0.063808532 -0.032081158 0)
(0.069204523 -0.028526892 0)
(0.073942241 -0.024695465 0)
(0.07797559 -0.020621986 0)
(0.081264963 -0.016344033 0)
(0.083777644 -0.011901349 0)
(0.085488156 -0.0073355211 0)
(0.086378541 -0.0026896275 0)
(0.08643859 0.0019921338 0)
(0.085665994 0.0066648414 0)
(0.084066438 0.011283267 0)
(0.081653614 0.015802311 0)
(0.078449161 0.020177452 0)
(0.074482531 0.024365214 0)
(0.069790763 0.028323628 0)
(0.064418186 0.032012705 0)
(0.058416035 0.035394893 0)
(0.051841981 0.038435523 0)
(0.044759588 0.041103229 0)
(0.037237696 0.043370339 0)
(0.02934973 0.045213223 0)
(0.021172958 0.046612595 0)
(0.012787687 0.047553766 0)
(0.004276428 0.048026835 0)
(-0.0042769735 0.048026818 0)
(-0.012788227 0.047553715 0)
(-0.021173487 0.04661251 0)
(-0.029350243 0.045213105 0)
(-0.037238187 0.04337019 0)
(-0.044760053 0.04110305 0)
(-0.051842415 0.038435316 0)
(-0.058416435 0.03539466 0)
(-0.064418548 0.032012449 0)
(-0.069791082 0.028323352 0)
(-0.074482805 0.02436492 0)
(-0.078449389 0.020177144 0)
(-0.081653792 0.01580199 0)
(-0.084066565 0.011282937 0)
(-0.08566607 0.0066645058 0)
(-0.086438613 0.0019917952 0)
(-0.086378512 -0.0026899661 0)
(-0.085488074 -0.0073358568 0)
(-0.083777511 -0.011901679 0)
(-0.081264779 -0.016344353 0)
(-0.077975357 -0.020622295 0)
(-0.073941961 -0.024695759 0)
(-0.069204198 -0.028527169 0)
(-0.063808165 -0.032081414 0)
(-0.057806 -0.035326125 0)
(-0.051255375 -0.038231914 0)
(-0.044218957 -0.040772598 0)
(-0.036763819 -0.042925387 0)
(-0.028960823 -0.044671045 0)
(-0.020883969 -0.045994026 0)
(-0.012609725 -0.046882577 0)
(-0.0042163352 -0.04732882 0)
(0.0046935787 -0.056174017 0)
(0.014035752 -0.055644122 0)
(0.023245148 -0.05458906 0)
(0.032234588 -0.05301821 0)
(0.040918882 -0.050945562 0)
(0.04921561 -0.048389619 0)
(0.05704587 -0.04537327 0)
(0.064335005 -0.041923625 0)
(0.071013292 -0.038071819 0)
(0.077016594 -0.033852783 0)
(0.082286957 -0.029304983 0)
(0.086773173 -0.024470122 0)
(0.090431271 -0.019392815 0)
(0.093224956 -0.014120233 0)
(0.09512599 -0.0087017188 0)
(0.0961145 -0.0031883728 0)
(0.096179219 0.0023673879 0)
(0.095317661 0.0079122941 0)
(0.093536213 0.013392716 0)
(0.090850153 0.018755175 0)
(0.087283584 0.023946876 0)
(0.082869279 0.028916253 0)
(0.077648445 0.033613523 0)
(0.071670384 0.037991239 0)
(0.064992075 0.042004839 0)
(0.057677654 0.045613174 0)
(0.049797813 0.048779008 0)
(0.04142911 0.051469484 0)
(0.032653213 0.053656541 0)
(0.023556061 0.055317274 0)
(0.014226983 0.056434238 0)
(0.0047577604 0.056995669 0)
(-0.0047583415 0.056995649 0)
(-0.014227559 0.056434178 0)
(-0.023556625 0.055317175 0)
(-0.032653759 0.053656403 0)
(-0.041429633 0.05146931 0)
(-0.049798307 0.0487788 0)
(-0.057678116 0.045612934 0)
(-0.0649925 0.042004569 0)
(-0.071670768 0.037990942 0)
(-0.077648783 0.033613202 0)
(-0.08286957 0.028915912 0)
(-0.087283825 0.023946518 0)
(-0.090850342 0.018754803 0)
(-0.093536348 0.013392334 0)
(-0.095317741 0.0079119049 0)
(-0.096179243 0.0023669952 0)
(-0.096114468 -0.0031887654 0)
(-0.095125903 -0.0087021079 0)
(-0.093224814 -0.014120615 0)
(-0.090431075 -0.019393186 0)
(-0.086772926 -0.02447048 0)
(-0.082286659 -0.029305325 0)
(-0.077016248 -0.033853104 0)
(-0.071012902 -0.038072116 0)
(-0.064334573 -0.041923896 0)
(-0.057045401 -0.045373512 0)
(-0.049215107 -0.048389829 0)
(-0.040918351 -0.050945737 0)
(-0.032234034 -0.053018348 0)
(-0.023244577 -0.05458916 0)
(-0.014035168 -0.055644183 0)
(-0.0046929892 -0.056174037 0)
(0.00525857 -0.066052092 0)
(0.015725268 -0.065428697 0)
(0.026042998 -0.064187486 0)
(0.036113962 -0.062339529 0)
(0.045842612 -0.059901337 0)
(0.055136531 -0.056894742 0)
(0.063907276 -0.05334674 0)
(0.072071198 -0.049289298 0)
(0.079550212 -0.044759113 0)
(0.086272527 -0.039797339 0)
(0.092173316 -0.034449272 0)
(0.097195333 -0.028763999 0)
(0.10128946 -0.022794007 0)
(0.10441521 -0.016594767 0)
(0.10654108 -0.010224282 0)
(0.10764498 -0.0037425979 0)
(0.10771442 0.0027887051 0)
(0.10674674 0.0093070574 0)
(0.10474918 0.015749471 0)
(0.10173892 0.022053134 0)
(0.097742996 0.028156037 0)
(0.092798143 0.033997601 0)
(0.086950504 0.039519335 0)
(0.080255279 0.04466548 0)
(0.072776249 0.049383657 0)
(0.064585202 0.053625487 0)
(0.05576126 0.057347182 0)
(0.046390114 0.060510099 0)
(0.036563172 0.06308123 0)
(0.026376629 0.06503363 0)
(0.015930473 0.066346769 0)
(0.0053274424 0.067006811 0)
(-0.0053280643 0.067006787 0)
(-0.015931089 0.0663467 0)
(-0.026377231 0.065033515 0)
(-0.036563755 0.063081072 0)
(-0.046390673 0.060509899 0)
(-0.055761788 0.057346942 0)
(-0.064585695 0.05362521 0)
(-0.072776703 0.049383347 0)
(-0.080255688 0.044665139 0)
(-0.086950865 0.039518967 0)
(-0.092798453 0.03399721 0)
(-0.097743253 0.028155626 0)
(-0.10173912 0.022052708 0)
(-0.10474932 0.015749032 0)
(-0.10674683 0.0093066113 0)
(-0.10771445 0.0027882551 0)
(-0.10764495 -0.0037430479 0)
(-0.10654099 -0.010224728 0)
(-0.10441505 -0.016595206 0)
(-0.10128926 -0.022794433 0)
(-0.097195069 -0.02876441 0)
(-0.092172998 -0.034449664 0)
(-0.086272158 -0.039797708 0)
(-0.079549796 -0.044759455 0)
(-0.072070737 -0.04928961 0)
(-0.063906775 -0.053347018 0)
(-0.055135993 -0.056894983 0)
(-0.045842044 -0.059901539 0)
(-0.036113368 -0.062339689 0)
(-0.026042386 -0.064187601 0)
(-0.015724642 -0.065428767 0)
(-0.0052579377 -0.066052116 0)
(0.0059248766 -0.077151364 0)
(0.017717736 -0.07642275 0)
(0.029342481 -0.074972069 0)
(0.040688758 -0.072812311 0)
(0.05164878 -0.069962844 0)
(0.062118316 -0.066449274 0)
(0.071997658 -0.062303255 0)
(0.081192545 -0.057562249 0)
(0.089615034 -0.052269247 0)
(0.097184318 -0.046472434 0)
(0.10382749 -0.040224817 0)
(0.1094802 -0.033583804 0)
(0.11408731 -0.026610748 0)
(0.11760339 -0.019370456 0)
(0.11999318 -0.011930656 0)
(0.12123199 -0.0043614365 0)
(0.12130594 0.003265346 0)
(0.12021219 0.010876698 0)
(0.11795904 0.018399146 0)
(0.11456594 0.025759426 0)
(0.11006342 0.032885201 0)
(0.10449289 0.039705802 0)
(0.09790633 0.046152975 0)
(0.090365905 0.052161647 0)
(0.08194341 0.057670672 0)
(0.072719644 0.062623562 0)
(0.062783656 0.066969181 0)
(0.052231878 0.07066239 0)
(0.041167178 0.073664627 0)
(0.029697806 0.075944409 0)
(0.017936283 0.07747775 0)
(0.0059982226 0.078248478 0)
(-0.0059988909 0.078248451 0)
(-0.017936945 0.077477671 0)
(-0.029698453 0.075944278 0)
(-0.041167805 0.073664446 0)
(-0.052232478 0.070662161 0)
(-0.062784223 0.066968907 0)
(-0.072720173 0.062623246 0)
(-0.081943895 0.057670318 0)
(-0.090366343 0.052161258 0)
(-0.097906716 0.046152556 0)
(-0.10449322 0.039705356 0)
(-0.11006369 0.032884734 0)
(-0.11456615 0.02575894 0)
(-0.11795919 0.018398647 0)
(-0.12021228 0.010876191 0)
(-0.12130597 0.0032648348 0)
(-0.12123196 -0.0043619476 0)
(-0.11999309 -0.011931162 0)
(-0.11760322 -0.019370954 0)
(-0.11408708 -0.026611233 0)
(-0.10947991 -0.033584271 0)
(-0.10382715 -0.040225263 0)
(-0.097183924 -0.046472854 0)
(-0.089614587 -0.052269637 0)
(-0.081192051 -0.057562605 0)
(-0.07199712 -0.062303573 0)
(-0.062117739 -0.066449551 0)
(-0.051648169 -0.069963075 0)
(-0.04068812 -0.072812494 0)
(-0.029341821 -0.074972202 0)
(-0.017717062 -0.076422831 0)
(-0.0059241955 -0.077151391 0)
(0.0067066155 -0.089687698 0)
(0.020055364 -0.088840039 0)
(0.033213477 -0.087152372 0)
(0.046055834 -0.084639878 0)
(0.058460252 -0.081325189 0)
(0.070308619 -0.077238216 0)
(0.081487991 -0.072415919 0)
(0.091891648 -0.066902024 0)
(0.10142008 -0.060746681 0)
(0.10998192 -0.05400607 0)
(0.11749478 -0.046741949 0)
(0.12388604 -0.039021164 0)
(0.1290935 -0.030915108 0)
(0.13306602 -0.022499143 0)
(0.13576395 -0.013851986 0)
(0.13715959 -0.0050550564 0)
(0.1372375 0.0038082048 0)
(0.13599467 0.01265306 0)
(0.1334407 0.021394229 0)
(0.12959775 0.02994668 0)
(0.12450048 0.038226457 0)
(0.11819582 0.046151527 0)
(0.11074261 0.053642652 0)
(0.10221119 0.060624268 0)
(0.092682768 0.067025357 0)
(0.082248699 0.072780294 0)
(0.071009654 0.077829663 0)
(0.059074642 0.082121005 0)
(0.046559931 0.085609497 0)
(0.033587872 0.088258541 0)
(0.020285636 0.090040251 0)
(0.0067838849 0.090935823 0)
(-0.0067846053 0.090935793 0)
(-0.020286349 0.090040161 0)
(-0.03358857 0.088258393 0)
(-0.046560606 0.085609291 0)
(-0.059075287 0.082120745 0)
(-0.071010264 0.077829352 0)
(-0.082249267 0.072779935 0)
(-0.092683289 0.067024955 0)
(-0.10221166 0.060623828 0)
(-0.11074302 0.053642178 0)
(-0.11819617 0.046151023 0)
(-0.12450078 0.038225929 0)
(-0.12959798 0.029946133 0)
(-0.13344086 0.021393666 0)
(-0.13599477 0.012652488 0)
(-0.13723752 0.0038076282 0)
(-0.13715955 -0.0050556328 0)
(-0.13576384 -0.013852557 0)
(-0.13306584 -0.022499704 0)
(-0.12909327 -0.030915655 0)
(-0.12388574 -0.039021692 0)
(-0.11749442 -0.046742453 0)
(-0.1099815 -0.054006545 0)
(-0.1014196 -0.060747123 0)
(-0.091891116 -0.066902427 0)
(-0.081487412 -0.07241628 0)
(-0.070307997 -0.07723853 0)
(-0.058459594 -0.081325453 0)
(-0.046055145 -0.084640087 0)
(-0.033212765 -0.087152523 0)
(-0.020054636 -0.088840131 0)
(-0.0067058791 -0.089687729 0)
(0.007617703 -0.10390575 0)
(0.022779764 -0.10292282 0)
(0.037724876 -0.10096589 0)
(0.052310672 -0.098052637 0)
(0.066398158 -0.094209446 0)
(0.079853011 -0.089471159 0)
(0.092546846 -0.083880814 0)
(0.10435841 -0.077489305 0)
(0.1151747 -0.070354968 0)
(0.12489206 -0.06254311 0)
(0.13341709 -0.054125475 0)
(0.14066751 -0.045179657 0)
(0.14657299 -0.035788472 0)
(0.15107571 -0.026039276 0)
(0.154131 -0.016023251 0)
(0.15570773 -0.0058346612 0)
(0.15578866 0.004429937 0)
(0.15437068 0.014672518 0)
(0.15146494 0.024794453 0)
(0.14709681 0.034697411 0)
(0.14130582 0.044284305 0)
(0.13414537 0.053460267 0)
(0.12568234 0.062133648 0)
(0.1159966 0.070217033 0)
(0.10518034 0.077628246 0)
(0.093337202 0.084291339 0)
(0.080581386 0.090137535 0)
(0.067036519 0.095106099 0)
(0.052834442 0.09914513 0)
(0.03811388 0.10221225 0)
(0.023019011 0.10427515 0)
(0.0076979631 0.10531207 0)
(-0.0076987419 0.10531203 0)
(-0.023019781 0.10427505 0)
(-0.038114634 0.10221208 0)
(-0.052835171 0.099144897 0)
(-0.067037215 0.095105805 0)
(-0.080582044 0.090137184 0)
(-0.093337814 0.084290935 0)
(-0.1051809 0.077627793 0)
(-0.11599711 0.070216536 0)
(-0.12568278 0.062133114 0)
(-0.13414575 0.0534597 0)
(-0.14130614 0.044283711 0)
(-0.14709706 0.034696795 0)
(-0.15146511 0.024793822 0)
(-0.15437079 0.014671877 0)
(-0.15578869 0.0044292904 0)
(-0.15570769 -0.0058353075 0)
(-0.15413089 -0.016023892 0)
(-0.15107553 -0.026039906 0)
(-0.14657273 -0.035789087 0)
(-0.14066719 -0.04518025 0)
(-0.13341669 -0.054126041 0)
(-0.12489161 -0.062543645 0)
(-0.11517419 -0.070355466 0)
(-0.10435783 -0.077489761 0)
(-0.092546221 -0.083881223 0)
(-0.07985234 -0.089471515 0)
(-0.066397445 -0.094209745 0)
(-0.052309926 -0.098052874 0)
(-0.037724104 -0.10096606 0)
(-0.022778974 -0.10292293 0)
(-0.0076169042 -0.10390578 0)
(0.0086697309 -0.1200769 0)
(0.025925594 -0.11893982 0)
(0.042934064 -0.11667604 0)
(0.05953282 -0.11330614 0)
(0.075563421 -0.10886081 0)
(0.0908728 -0.10338054 0)
(0.10531471 -0.096915372 0)
(0.11875111 -0.089524417 0)
(0.13105343 -0.081275402 0)
(0.1421038 -0.072244088 0)
(0.1517961 -0.062513646 0)
(0.16003698 -0.052173957 0)
(0.16674668 -0.041320868 0)
(0.17185979 -0.030055407 0)
(0.17532584 -0.01848295 0)
(0.17710979 -0.0067123626 0)
(0.17719242 0.0051448987 0)
(0.17557056 0.016975729 0)
(0.17225721 0.028666358 0)
(0.16728154 0.040103382 0)
(0.16068875 0.051174839 0)
(0.15253976 0.061771326 0)
(0.14291079 0.07178714 0)
(0.13189276 0.081121445 0)
(0.11959051 0.089679434 0)
(0.10612189 0.09737347 0)
(0.091616705 0.10412417 0)
(0.076215409 0.10986144 0)
(0.060067777 0.11452535 0)
(0.043331373 0.11806698 0)
(0.026169932 0.12044903 0)
(0.0087516651 0.12164637 0)
(-0.0087525096 0.12164633 0)
(-0.026170767 0.12044892 0)
(-0.043332189 0.11806679 0)
(-0.060068567 0.11452509 0)
(-0.076216163 0.10986111 0)
(-0.091617416 0.10412378 0)
(-0.10612255 0.097373015 0)
(-0.11959111 0.089678925 0)
(-0.1318933 0.081120888 0)
(-0.14291127 0.071786541 0)
(-0.15254017 0.061770692 0)
(-0.16068908 0.051174175 0)
(-0.1672818 0.040102694 0)
(-0.17225739 0.028665653 0)
(-0.17557067 0.016975013 0)
(-0.17719245 0.0051441771 0)
(-0.17710974 -0.0067130838 0)
(-0.17532571 -0.018483665 0)
(-0.17185959 -0.03005611 0)
(-0.1667464 -0.041321554 0)
(-0.16003663 -0.052174619 0)
(-0.15179568 -0.06251428 0)
(-0.14210331 -0.072244688 0)
(-0.13105288 -0.081275961 0)
(-0.1187505 -0.08952493 0)
(-0.10531404 -0.096915832 0)
(-0.090872073 -0.10338094 0)
(-0.075562649 -0.10886114 0)
(-0.05953201 -0.11330641 0)
(-0.042933225 -0.11667624 0)
(-0.025924735 -0.11893994 0)
(-0.0086688614 -0.12007694 0)
(0.0098688426 -0.13849206 0)
(0.029511226 -0.13717909 0)
(0.048871467 -0.13456522 0)
(0.067764469 -0.13067434 0)
(0.086009598 -0.1255421 0)
(0.1034324 -0.11921552 0)
(0.11986624 -0.11175266 0)
(0.13515393 -0.10322208 0)
(0.14914914 -0.093702285 0)
(0.16171778 -0.083281033 0)
(0.17273927 -0.072054581 0)
(0.18210762 -0.060126869 0)
(0.18973237 -0.047608644 0)
(0.19553946 -0.03461654 0)
(0.19947185 -0.021272116 0)
(0.20149013 -0.0077008733 0)
(0.20157284 0.0059687779 0)
(0.19971682 0.019606586 0)
(0.19593727 0.033081581 0)
(0.19026778 0.046263249 0)
(0.18276008 0.059022757 0)
(0.17348376 0.07123422 0)
(0.16252571 0.082776009 0)
(0.14998949 0.093532085 0)
(0.13599441 0.10339333 0)
(0.12067452 0.11225887 0)
(0.10417734 0.12003732 0)
(0.086662524 0.12664796 0)
(0.068300205 0.1320218 0)
(0.049269346 0.1361025 0)
(0.029755891 0.13884711 0)
(0.0099508365 0.14022668 0)
(-0.0099517552 0.14022664 0)
(-0.029756799 0.13884698 0)
(-0.049270234 0.13610228 0)
(-0.068301062 0.1320215 0)
(-0.086663342 0.12664758 0)
(-0.10417811 0.12003687 0)
(-0.12067523 0.11225836 0)
(-0.13599506 0.10339276 0)
(-0.14999008 0.093531462 0)
(-0.16252623 0.08277534 0)
(-0.1734842 0.071233512 0)
(-0.18276044 0.059022017 0)
(-0.19026806 0.046262483 0)
(-0.19593747 0.033080796 0)
(-0.19971693 0.019605789 0)
(-0.20157287 0.0059679759 0)
(-0.20149008 -0.0077016746 0)
(-0.19947172 -0.021272911 0)
(-0.19553924 -0.034617321 0)
(-0.18973208 -0.047609407 0)
(-0.18210725 -0.060127608 0)
(-0.17273882 -0.072055289 0)
(-0.16171725 -0.083281703 0)
(-0.14914854 -0.09370291 0)
(-0.13515327 -0.10322265 0)
(-0.11986551 -0.11175317 0)
(-0.10343161 -0.11921597 0)
(-0.086008758 -0.12554248 0)
(-0.067763587 -0.13067465 0)
(-0.048870551 -0.13456544 0)
(-0.029510287 -0.13717923 0)
(-0.0098678924 -0.1384921 0)
(0.011211491 -0.15944711 0)
(0.033526056 -0.15793363 0)
(0.05551955 -0.15492065 0)
(0.07698136 -0.15043591 0)
(0.097705985 -0.14452073 0)
(0.117495 -0.13722962 0)
(0.13615896 -0.12862985 0)
(0.15351918 -0.11880083 0)
(0.16940942 -0.1078334 0)
(0.18367746 -0.095829073 0)
(0.19618647 -0.082899069 0)
(0.2068163 -0.069163407 0)
(0.2154645 -0.054749852 0)
(0.22204732 -0.039792846 0)
(0.22650041 -0.024432401 0)
(0.22877944 -0.0088129608 0)
(0.22886053 0.0069177666 0)
(0.22674059 0.022610032 0)
(0.22243738 0.038113326 0)
(0.21598948 0.053277715 0)
(0.20745608 0.067955237 0)
(0.19691655 0.082001336 0)
(0.18446983 0.095276355 0)
(0.17023367 0.10764705 0)
(0.15434362 0.11898812 0)
(0.13695189 0.12918371 0)
(0.11822586 0.13812886 0)
(0.098346599 0.14573088 0)
(0.077507006 0.1519105 0)
(0.055909926 0.15660302 0)
(0.033766073 0.15975911 0)
(0.011291857 0.1613455 0)
(-0.011292861 0.16134545 0)
(-0.033767065 0.15975896 0)
(-0.055910895 0.15660278 0)
(-0.077507941 0.15191017 0)
(-0.09834749 0.14573046 0)
(-0.1182267 0.13812837 0)
(-0.13695266 0.12918314 0)
(-0.15434433 0.11898748 0)
(-0.1702343 0.10764635 0)
(-0.18447038 0.095275609 0)
(-0.19691702 0.082000548 0)
(-0.20745647 0.067954414 0)
(-0.21598978 0.053276866 0)
(-0.22243759 0.038112456 0)
(-0.22674072 0.02260915 0)
(-0.22886057 0.0069168785 0)
(-0.22877938 -0.008813848 0)
(-0.22650027 -0.024433281 0)