/*--------------------------------*- C++ -*----------------------------------*\
| =========                 |                                                 |
| \\      /  F ield         | OpenFOAM: The Open Source CFD Toolbox           |
|  \\    /   O peration     | Version:  2306                                  |
|   \\  /    A nd           | Website:  www.openfoam.com                      |
|    \\/     M anipulation  |                                                 |
\*---------------------------------------------------------------------------*/
FoamFile
{
    version     2.0;
    format      ascii;
    arch        "LSB;label=32;scalar=64";
    class       volVectorField;
    location    "0.35";
    object      U_0;
}
// * * * * * * * * * * * * * * * * * * * * * * * * * * * * * * * * * * * * * //

dimensions      [0 1 -1 0 0 0 0];

internalField   nonuniform List<vector> 
6400
(
(0.0061583232 -0.12296485 -3.5054608e-17)
(0.014189768 -0.12275491 -2.0032286e-16)
(0.02322689 -0.12117675 -2.4159822e-17)
(0.031725327 -0.1184584 1.4740117e-16)
(0.040142209 -0.11449745 2.5036232e-17)
(0.048082475 -0.10936443 -3.7598406e-17)
(0.055455932 -0.10317178 -4.5553297e-17)
(0.062195496 -0.096024268 1.9531063e-19)
(0.068233549 -0.088021931 -3.872858e-17)
(0.073505102 -0.079264875 -3.7012964e-17)
(0.077951526 -0.069857676 -2.2071444e-17)
(0.081523438 -0.059911568 -2.0891922e-17)
(0.08418354 -0.049544304 -1.0629997e-17)
(0.085908804 -0.038878266 8.1262619e-18)
(0.086691703 -0.028037578 1.7181533e-17)
(0.086540251 -0.017144612 -3.9428854e-17)
(0.085475204 -0.0063174156 -1.9621128e-17)
(0.083535662 0.004333061 -1.3923324e-17)
(0.080768097 0.01470628 -2.7757023e-18)
(0.07721968 0.024711613 2.5259088e-17)
(0.072952248 0.034269585 1.1223543e-17)
(0.068028072 0.043311562 5.9563598e-18)
(0.062510819 0.051778806 1.4026394e-17)
(0.056464211 0.05962152 3.1757258e-18)
(0.049951059 0.066797539 -5.7301139e-18)
(0.043032926 0.073270843 1.7340215e-17)
(0.03576992 0.079010553 3.6796124e-17)
(0.028221184 0.08398947 5.7699425e-17)
(0.020446214 0.08818249 4.3552486e-17)
(0.012504554 0.091567959 1.7080647e-17)
(0.004452485 0.09412573 9.7865955e-18)
(-0.0036606286 0.095846772 9.9934368e-18)
(-0.011752264 0.096699999 2.8141009e-17)
(-0.019745017 0.096682939 2.562877e-17)
(-0.027570152 0.095790362 2.2968681e-17)
(-0.035146859 0.094024936 2.173629e-17)
(-0.042390156 0.09139895 1.7672807e-17)
(-0.049211875 0.087936239 3.1768101e-17)
(-0.055522397 0.083674147 2.3466072e-17)
(-0.061233075 0.078665184 2.7651965e-17)
(-0.066259282 0.072978159 3.6961426e-17)
(-0.070523979 0.066698568 2.5965363e-17)
(-0.073961572 0.05992802 9.0226388e-18)
(-0.076521731 0.052782531 -2.232395e-17)
(-0.078172633 0.045389676 -2.1615654e-17)
(-0.078903342 0.037884743 -5.4323763e-18)
(-0.07872559 0.030406268 -8.6208155e-18)
(-0.077674499 0.023090902 -9.7951739e-18)
(-0.075807793 0.016068119 -6.8708747e-18)
(-0.073203503 0.0094549079 -2.329846e-17)
(-0.069957949 0.0033514682 -1.3365499e-17)
(-0.066176242 -0.0021558294 -3.4296203e-18)
(-0.061973645 -0.0070118313 -1.8611277e-17)
(-0.057476193 -0.011179572 -8.0987799e-18)
(-0.05280089 -0.014645067 -1.0345325e-17)
(-0.04806089 -0.017415819 -1.4576602e-17)
(-0.043360357 -0.0195182 -9.0595053e-18)
(-0.038791471 -0.020994728 -7.9778762e-18)
(-0.034432394 -0.021900854 -3.671988e-18)
(-0.03034601 -0.022301566 -5.7402853e-19)
(-0.026579437 -0.022267969 -2.2412182e-18)
(-0.023164329 -0.021874033 -2.7508376e-18)
(-0.020117849 -0.021193782 -5.5919758e-18)
(-0.017443894 -0.020298772 -8.5367895e-19)
(-0.015134533 -0.019255811 -2.4326302e-19)
(-0.013171841 -0.018125199 -1.4380766e-18)
(-0.011529917 -0.016959431 -5.6898678e-19)
(-0.010177027 -0.01580229 4.0501655e-19)
(-0.0090777613 -0.014688525 2.2735975e-19)
(-0.0081950365 -0.013643934 -3.5838761e-19)
(-0.0074918828 -0.012685807 -8.8640056e-19)
(-0.00693298 -0.011823649 -1.3492939e-18)
(-0.0064859671 -0.011060237 5.1998601e-19)
(-0.006122431 -0.010392885 2.7385633e-19)
(-0.0058184763 -0.0098148261 3.0190655e-19)
(-0.0055549051 -0.0093165838 -1.869908e-19)
(-0.0053170697 -0.0088871993 -5.6054595e-19)
(-0.0050944788 -0.008515277 2.2076311e-19)
(-0.0048802356 -0.008189805 1.3841999e-19)
(-0.0046703959 -0.0079007902 -8.3356919e-20)
(0.0070497149 -0.14242429 -2.0269554e-17)
(0.016283106 -0.14220563 -3.2612286e-16)
(0.026629429 -0.1403591 -9.9865169e-17)
(0.036302617 -0.13720529 -1.2292027e-16)
(0.045844528 -0.13263984 -1.2699143e-16)
(0.05481385 -0.12676444 4.0793757e-17)
(0.063128189 -0.1197143 -7.3364496e-17)
(0.070724971 -0.11160547 -1.555303e-17)
(0.077534754 -0.10254417 3.0511386e-17)
(0.083485001 -0.092636172 -8.6900693e-18)
(0.088506597 -0.081994803 1.5058311e-17)
(0.092539606 -0.070744235 -3.9373401e-17)
(0.095538356 -0.059018969 -4.1878764e-17)
(0.097474994 -0.046960707 -2.2628108e-17)
(0.098341056 -0.034713847 -2.651276e-17)
(0.098147377 -0.022420963 -2.6518346e-18)
(0.096921762 -0.010218311 -1.5386161e-18)
(0.094709008 0.0017679156 -1.4970372e-17)
(0.091574357 0.013421991 -1.0230844e-17)
(0.08757011 0.024644618 -1.6288815e-17)
(0.082771865 0.035348734 7.975655e-18)
(0.077253299 0.045461338 2.3946435e-18)
(0.071088248 0.054921433 1.0664885e-17)
(0.064349223 0.063678656 -5.4469026e-18)
(0.057106234 0.071691405 -5.2962674e-18)
(0.049426451 0.078924813 1.5817515e-17)
(0.041374186 0.085348985 2.5237797e-17)
(0.03301122 0.090937313 4.1373213e-17)
(0.024399126 0.095664785 2.7494736e-17)
(0.015600157 0.099508055 8.1385731e-18)
(0.0066740423 0.10244522 8.0579735e-18)
(-0.0023358497 0.10445729 5.8938565e-18)
(-0.011336514 0.10551911 2.08165e-17)
(-0.020248019 0.10561572 2.269909e-17)
(-0.028994777 0.10473604 1.9141588e-17)
(-0.037487232 0.10287671 3.9417967e-18)
(-0.045629433 0.10004452 -3.0127488e-19)
(-0.053319889 0.096259226 1.6543865e-17)
(-0.060453515 0.091556255 1.8736363e-17)
(-0.066924487 0.085989218 1.9821735e-17)
(-0.072629991 0.079631761 1.7494871e-17)
(-0.077474738 0.072578512 1.5714288e-17)
(-0.081376001 0.064944808 2.7291225e-17)
(-0.084268747 0.056864921 -2.3916092e-17)
(-0.086110117 0.048488697 -1.8495881e-17)
(-0.086882774 0.039976769 -1.841719e-17)
(-0.086597405 0.031494885 -1.4481606e-17)
(-0.085293949 0.023207362 -6.543798e-18)
(-0.083041006 0.015270106 -1.5221187e-18)
(-0.07993322 0.007823922 -1.0228349e-17)
(-0.076082629 0.00098762078 -1.5262505e-17)
(-0.071617097 -0.0051342098 -5.1949806e-18)
(-0.066686168 -0.010479772 -1.7634234e-17)
(-0.0614337 -0.01500778 -1.5500926e-17)
(-0.056001933 -0.018705863 -1.1888854e-17)
(-0.050526203 -0.021587654 -1.6225083e-17)
(-0.045129765 -0.023689603 -1.1494471e-17)
(-0.039920472 -0.025067312 -4.7462076e-18)
(-0.034988451 -0.025791405 -8.5107499e-18)
(-0.030404761 -0.025943247 -7.0234878e-18)
(-0.026221012 -0.025610683 -3.0092482e-18)
(-0.022470043 -0.024884076 -2.5412465e-18)
(-0.01916731 -0.023853027 -4.8134418e-18)
(-0.016312383 -0.022603296 -3.6464035e-18)
(-0.013890828 -0.021214084 -3.6468988e-18)
(-0.011876612 -0.019756037 -8.4531892e-19)
(-0.010234538 -0.018289822 -1.3183969e-18)
(-0.0089229614 -0.016864987 1.6862475e-18)
(-0.007896502 -0.015519822 6.0908568e-19)
(-0.0071084325 -0.014281547 -1.1192102e-18)
(-0.00651283 -0.013166926 -4.9161908e-19)
(-0.0060664461 -0.012183293 -6.9617489e-19)
(-0.0057303174 -0.011329935 7.9727334e-19)
(-0.005470938 -0.010599749 -2.4927225e-19)
(-0.0052608788 -0.009981085 -2.097667e-19)
(-0.005078866 -0.0094595272 2.5198597e-19)
(-0.0049094373 -0.0090194344 -3.3614278e-19)
(-0.0047422992 -0.0086451762 7.6891984e-20)
(-0.0045715449 -0.0083221445 -1.4317663e-19)
(-0.004394787 -0.0080375268 -6.4160852e-19)
(0.0081166254 -0.1647906 1.9628583e-16)
(0.018804569 -0.16455816 2.747542e-16)
(0.030693471 -0.16232395 2.5870956e-16)
(0.041699184 -0.15859015 1.3392722e-16)
(0.052488257 -0.15326352 1.6479766e-18)
(0.062578117 -0.1464975 9.4776713e-18)
(0.071913932 -0.1384525 2.0530916e-17)
(0.080446974 -0.12924926 -3.1300653e-17)
(0.088108302 -0.11899158 -4.1548427e-18)
(0.09481464 -0.10778411 4.5626282e-17)
(0.1004807 -0.095745832 4.1708703e-17)
(0.10503032 -0.083014463 2.7958134e-17)
(0.10840505 -0.069744405 -1.1089011e-19)
(0.11056965 -0.056101309 1.0114573e-17)
(0.11151422 -0.042255135 -5.417032e-18)
(0.11125364 -0.028373207 1.8633111e-17)
(0.10982495 -0.014614074 1.0756725e-17)
(0.10728247 -0.0011227094 9.69378e-18)
(0.10371076 0.011966916 -6.3775519e-18)
(0.099173726 0.024547709 -2.0407607e-17)
(0.09376202 0.036524297 4.6045657e-18)
(0.08756392 0.04781989 2.4724238e-17)
(0.080665526 0.058372547 -1.3067393e-17)
(0.073149626 0.068133036 -3.495271e-17)
(0.065094272 0.077062173 -2.2971212e-17)
(0.056572384 0.085128087 -4.4699244e-18)
(0.047652001 0.092303604 3.7906348e-18)
(0.038396996 0.09856387 -7.8587663e-18)
(0.028869829 0.10388514 -2.6172972e-17)
(0.019132817 0.10824287 -1.3539997e-17)
(0.0092481379 0.11161148 -1.1529725e-17)
(-0.00074557764 0.11396806 -1.9339816e-17)
(-0.010749231 0.11528265 -1.4520065e-17)
(-0.020680659 0.11553091 -8.0086973e-18)
(-0.03045776 0.11469323 -6.9905548e-18)
(-0.039981601 0.11275743 -3.8378056e-17)
(-0.049144262 0.10972194 -5.100184e-17)
(-0.057829045 0.10559956 -2.7525686e-17)
(-0.065912598 0.10042127 -1.2769856e-17)
(-0.073268235 0.094239772 -1.6603915e-17)
(-0.079770495 0.087132399 1.2530903e-17)
(-0.085300846 0.079202937 2.5979485e-17)
(-0.089754255 0.070581877 2.0780161e-17)
(-0.093046081 0.061424703 -1.952317e-17)
(-0.095118342 0.051907982 -3.8660191e-17)
(-0.095944404 0.042223384 -9.2116336e-18)
(-0.095532516 0.032570407 9.5568036e-18)
(-0.093927785 0.023147886 1.2752698e-17)
(-0.091211473 0.014144816 4.7409406e-18)
(-0.087498792 0.0057324507 -7.4050201e-18)
(-0.08292434 -0.0019441458 1.8871898e-17)
(-0.077644212 -0.0087677136 2.35893e-17)
(-0.07184345 -0.014660778 2.2426159e-18)
(-0.065694943 -0.019579301 -7.4904743e-18)
(-0.059370769 -0.023514102 -1.1218398e-18)
(-0.053032833 -0.026487452 9.4682159e-18)
(-0.046827197 -0.028549163 1.5799905e-17)
(-0.040880087 -0.029771704 1.0162596e-17)
(-0.035295305 -0.030244891 -3.5988025e-18)
(-0.030152839 -0.030070507 -2.5070695e-18)
(-0.02550869 -0.029356992 1.9983235e-18)
(-0.021396154 -0.028214675 5.3886874e-18)
(-0.017827708 -0.026751931 -1.1459186e-18)
(-0.014796775 -0.025071502 -3.4059847e-19)
(-0.012280235 -0.023267183 6.60409e-19)
(-0.010241611 -0.021421611 8.2095208e-19)
(-0.0086338588 -0.019604858 1.3088645e-18)
(-0.0074028408 -0.0178727 7.3150852e-19)
(-0.0064908283 -0.016267005 1.6108069e-18)
(-0.0058392059 -0.014815951 1.1305564e-18)
(-0.0053911342 -0.013534855 -8.8709057e-19)
(-0.0050938308 -0.012427666 -7.1601346e-19)
(-0.0049005092 -0.011488733 7.1127586e-19)
(-0.0047718368 -0.010704866 -2.0258539e-19)
(-0.0046766241 -0.010057897 -3.1536161e-19)
(-0.0045916969 -0.0095270007 -3.352518e-19)
(-0.0045012114 -0.0090905427 2.4968714e-19)
(-0.0043957223 -0.0087275558 1.9144714e-19)
(-0.0042711575 -0.0084190783 -2.50887e-19)
(-0.0041275902 -0.0081490168 -4.8525706e-19)
(0.0094388726 -0.19069001 1.9346832e-16)
(0.021946882 -0.19042204 7.948562e-17)
(0.035676923 -0.18757351 -3.3921765e-17)
(0.048173379 -0.18301772 9.5492791e-17)
(0.060310057 -0.17669617 4.6403474e-17)
(0.071581106 -0.16884547 -7.7955592e-17)
(0.081996687 -0.159646 -1.9006268e-17)
(0.091535684 -0.1492051 -4.4923193e-18)
(0.1001309 -0.13760569 5.7722826e-18)
(0.10768062 -0.12493823 1.1735325e-17)
(0.1140726 -0.1113219 -1.3861099e-17)
(0.11920478 -0.096908745 -7.7852548e-18)
(0.12299919 -0.08187806 -8.5019317e-18)
(0.12540964 -0.066426286 -6.0230021e-18)
(0.1264242 -0.050756044 2.686482e-17)
(0.12606367 -0.035065966 9.0036204e-18)
(0.12437714 -0.019542836 -3.2766053e-18)
(0.12143321 -0.0043552545 -2.2983647e-18)
(0.11733533 0.010345932 -6.8727054e-18)
(0.11217226 0.024440975 4.6846939e-18)
(0.10604809 0.037827526 2.7383436e-18)
(0.099070217 0.050426304 1.3532523e-17)
(0.091339758 0.062176456 2.0543286e-18)
(0.082951525 0.073032307 1.834548e-17)
(0.073992487 0.082959735 3.0618269e-17)
(0.064541409 0.091932412 3.8727826e-17)
(0.054669297 0.09992832 3.6328734e-17)
(0.04444096 0.10692642 3.7678278e-17)
(0.033917996 0.11290513 4.0644828e-17)
(0.023160483 0.11783965 3.8181207e-17)
(0.012230581 0.1217013 2.4734422e-17)
(0.0011621886 0.12446215 1.4981567e-17)
(-0.0099449027 0.12608577 1.4027899e-17)
(-0.021005155 0.12653511 1.3415706e-17)
(-0.031931764 0.12578017 1.7996738e-17)
(-0.042616251 0.12379652 -7.8588979e-18)
(-0.052937843 0.12057038 -7.5470319e-18)
(-0.062762605 0.11610369 6.3232669e-18)
(-0.071945686 0.11041933 9.1271786e-18)
(-0.080335086 0.10356603 3.1021314e-17)
(-0.087777124 0.09562281 3.4313572e-17)
(-0.094123588 0.086702009 2.9782551e-17)
(-0.099240297 0.076950546 5.267438e-18)
(-0.10301638 0.066548454 1.8942182e-17)
(-0.10537306 0.05570444 9.697103e-19)
(-0.10627028 0.044648415 -1.1536287e-17)
(-0.10571179 0.033622032 -4.6297304e-18)
(-0.10374819 0.022867508 -4.3401499e-18)
(-0.10047569 0.012615255 9.3170457e-19)
(-0.096034458 0.0030712661 1.2478824e-17)
(-0.090586582 -0.0055733638 2.8613001e-17)
(-0.084331341 -0.013195378 1.4403053e-17)
(-0.077490326 -0.019700078 4.2911582e-18)
(-0.070275745 -0.025039765 -9.6682862e-18)
(-0.062896047 -0.029210012 -1.2246931e-17)
(-0.055545515 -0.032245119 1.0053243e-17)
(-0.048397466 -0.034212604 1.84219e-17)
(-0.041599595 -0.035206701 9.9708153e-18)
(-0.035271187 -0.035341496 -7.5173789e-18)
(-0.029501789 -0.034744217 -1.1141757e-17)
(-0.024351411 -0.033548618 4.8694556e-19)
(-0.019852681 -0.031889299 8.9854133e-18)
(-0.016013383 -0.029897202 6.338199e-19)
(-0.012818429 -0.027695356 -1.8488637e-18)
(-0.010233168 -0.025394712 -2.0701175e-18)
(-0.0082078455 -0.023091653 -2.6653839e-18)
(-0.0066803489 -0.020867313 4.4421063e-18)
(-0.0055807975 -0.018783905 2.459577e-18)
(-0.0048362417 -0.016886838 -1.1401149e-18)
(-0.0043733884 -0.015204518 -1.6288799e-18)
(-0.0041221249 -0.013749504 -2.6495703e-20)
(-0.0040182568 -0.012520738 -3.5395664e-19)
(-0.0040056889 -0.011505849 -2.3592323e-19)
(-0.0040384232 -0.010683308 -3.8850456e-19)
(-0.0040814187 -0.010026327 -4.6256075e-19)
(-0.0041099574 -0.0095058153 -5.9536108e-19)
(-0.0041084604 -0.009092429 3.4387339e-19)
(-0.0040693203 -0.008758567 5.7853057e-19)
(-0.0039915107 -0.008480046 -1.4322745e-19)
(-0.0038787842 -0.0082370095 -6.3117655e-19)
(0.011175384 -0.22105979 4.5984175e-16)
(0.026068722 -0.22067676 6.1406687e-16)
(0.042019396 -0.21675902 -3.0664915e-17)
(0.056124159 -0.21095841 2.1707746e-16)
(0.069639266 -0.20328319 1.4805939e-16)
(0.082079553 -0.1940941 -2.5654192e-18)
(0.093586254 -0.183563 -1.0310701e-17)
(0.10418179 -0.1717422 1.6585967e-17)
(0.11379649 -0.15865756 7.5460434e-18)
(0.12229253 -0.14436241 4.295869e-17)
(0.12951087 -0.12896791 5.0123008e-17)
(0.13530743 -0.11264281 3.668212e-17)
(0.13957447 -0.095599617 4.7010286e-17)
(0.14225021 -0.07807617 2.1711567e-17)
(0.1433203 -0.060318225 5.7730609e-17)
(0.14281371 -0.042564934 6.5185795e-17)
(0.14079601 -0.025038211 9.400463e-18)
(0.13735834 -0.0079352858 -2.0616315e-18)
(0.13262721 0.0085745761 -1.2361084e-17)
(0.12672165 0.024355859 3.3671187e-17)
(0.11976515 0.03930087 3.9169383e-17)
(0.11188874 0.053329921 6.4566325e-18)
(0.10321174 0.066386165 4.3540705e-17)
(0.093843046 0.078430885 5.0197465e-17)
(0.083879473 0.08943869 7.3949431e-17)
(0.073405541 0.099392412 1.3235363e-16)
(0.062494191 0.10827845 1.0240576e-16)
(0.051209163 0.11608234 8.6693785e-17)
(0.039608759 0.12278622 9.3762784e-17)
(0.027747814 0.12836606 8.2834061e-17)
(0.015685505 0.13279054 9.6444506e-17)
(0.00345064 0.13602513 6.5401446e-17)
(-0.0088656309 0.1380284 2.8561238e-17)
(-0.021170786 0.13874247 5.305758e-17)
(-0.033376423 0.13812637 5.5056412e-17)
(-0.045365316 0.13613874 5.1386626e-17)
(-0.057003238 0.13274853 5.7874013e-17)
(-0.068136919 0.12794157 4.4817546e-17)
(-0.078596366 0.12172752 7.0307312e-17)
(-0.088198958 0.11414666 9.1297036e-17)
(-0.096755866 0.10527629 5.4777971e-17)
(-0.10408091 0.095235776 3.5753747e-17)
(-0.11000167 0.084189297 1.1242552e-17)
(-0.11437201 0.072345118 9.5533218e-18)
(-0.1170844 0.059950694 -1.3987389e-17)
(-0.11807954 0.04728339 -2.4030169e-18)
(-0.11735359 0.034638162 4.1027462e-18)
(-0.11496307 0.022312893 4.4852894e-18)
(-0.11102551 0.010592342 -5.4384563e-20)
(-0.10570007 -0.00027232507 4.0183207e-18)
(-0.099190671 -0.010048563 2.209856e-17)
(-0.091764419 -0.018585673 9.7949546e-18)
(-0.083675812 -0.025774775 2.5162402e-18)
(-0.075188743 -0.031565782 -7.673293e-18)
(-0.066557184 -0.035962225 -1.3112043e-17)
(-0.058014924 -0.039015257 -3.6578906e-20)
(-0.049767788 -0.040815959 1.3884738e-17)
(-0.04198837 -0.041486691 1.113932e-17)
(-0.034813244 -0.041172229 -3.2494009e-18)
(-0.028341899 -0.040031466 -5.7989399e-18)
(-0.022637577 -0.038229226 -4.2611117e-19)
(-0.017730533 -0.035929538 7.2545907e-18)
(-0.013621546 -0.033290319 4.2154001e-19)
(-0.01028404 -0.030458854 -2.8694502e-19)
(-0.0076681383 -0.027566262 -6.360055e-19)
(-0.005707422 -0.024724167 -5.5399045e-18)
(-0.0043206346 -0.022027693 -1.1642619e-18)
(-0.0034180311 -0.019544855 4.0902015e-20)
(-0.0029080421 -0.017324483 6.2247227e-19)
(-0.0026991617 -0.015394171 -4.6785163e-19)
(-0.0027051281 -0.013761798 -9.6893236e-19)
(-0.0028482802 -0.012418982 -1.5521059e-18)
(-0.0030614037 -0.011344971 -7.6018452e-19)
(-0.0032907565 -0.010506584 -1.9332301e-20)
(-0.0034976085 -0.0098657399 -3.558373e-20)
(-0.0036562689 -0.0093826685 -2.5645957e-19)
(-0.0037524144 -0.0090181548 -2.3134977e-19)
(-0.0037817738 -0.008736436 2.9317035e-19)
(-0.0037480277 -0.008507109 1.6069044e-19)
(-0.0036602491 -0.0083060784 -2.9770464e-19)
(0.013660791 -0.2574473 4.1330253e-16)
(0.031860913 -0.2566785 6.4223025e-16)
(0.050478771 -0.25073425 3.4139152e-16)
(0.066164982 -0.24293373 2.4471306e-16)
(0.080921837 -0.2333501 3.6573709e-16)
(0.094374416 -0.22250202 9.6765203e-17)
(0.10690199 -0.21046433 -1.8254964e-17)
(0.11857759 -0.19714768 -1.5284605e-16)
(0.12930873 -0.18245497 -6.3287827e-17)
(0.13888348 -0.16636567 -1.0410105e-16)
(0.14706026 -0.14897322 -1.740328e-16)
(0.15362747 -0.13047015 -8.3165943e-17)
(0.15843318 -0.1111169 -8.7501293e-17)
(0.16139475 -0.091209278 -1.6504923e-18)
(0.16249639 -0.071051294 -1.0451254e-18)
(0.16178057 -0.050934858 -2.6779343e-17)
(0.15933627 -0.031125713 -3.8905295e-17)
(0.1552847 -0.011855555 -5.4043712e-17)
(0.14978354 0.0066830676 -1.1111096e-17)
(0.14299163 0.024339246 5.9782188e-17)
(0.13505722 0.041001698 7.8343055e-17)
(0.12614076 0.056593353 1.3748954e-18)
(0.11638385 0.071065501 1.8949323e-17)
(0.10591198 0.084391154 4.5435098e-17)
(0.094832835 0.096558645 5.2651723e-17)
(0.08323625 0.10756486 1.1560522e-16)
(0.071195367 0.11740898 9.1001563e-17)
(0.058770091 0.1260868 5.8816238e-17)
(0.046011985 0.13358674 7.713036e-17)
(0.032967069 0.13988689 5.039742e-17)
(0.019686592 0.14495408 8.0339039e-17)
(0.0061961793 0.14874342 4.7273779e-17)
(-0.0074378515 0.15121272 -1.9075679e-17)
(-0.021110357 0.15227338 2.1493748e-17)
(-0.03473401 0.15187237 2.5608003e-17)
(-0.04818612 0.14994517 5.5768667e-17)
(-0.061318682 0.14643696 5.831409e-17)
(-0.073957103 0.14131053 2.1409472e-17)
(-0.085902251 0.13455527 6.5151538e-17)
(-0.096934679 0.12619648 6.5040306e-17)
(-0.10682189 0.11630449 1.7642463e-17)
(-0.11532911 0.10500256 3.1753215e-17)
(-0.12223363 0.092472102 5.546175e-17)
(-0.12734164 0.078953453 -7.2069828e-18)
(-0.13050562 0.064740771 -4.5939159e-17)
(-0.13163841 0.050170487 -3.7158795e-17)
(-0.13072348 0.035605203 -5.5483895e-18)
(-0.12782189 0.021414174 3.5061189e-17)
(-0.12307701 0.0079529349 6.8591528e-18)
(-0.11668369 -0.0044609753 -2.4783384e-17)
(-0.10889637 -0.01556066 -1.1315955e-18)
(-0.10004602 -0.025148781 8.7022515e-18)
(-0.090452719 -0.033102859 -4.1779435e-18)
(-0.080441058 -0.039372507 9.6340002e-18)
(-0.070320612 -0.043973982 1.9920193e-17)
(-0.060373028 -0.046981993 6.0115893e-18)
(-0.050842629 -0.048519018 8.4091529e-18)
(-0.041930584 -0.048743808 1.7415212e-17)
(-0.033792371 -0.047839915 4.0909162e-18)
(-0.02653734 -0.046005508 4.9434217e-18)
(-0.020230618 -0.043443447 7.9321263e-18)
(-0.014897652 -0.040353371 1.0315438e-17)
(-0.010529054 -0.03692512 1.0313286e-17)
(-0.0070830602 -0.033334717 3.7077559e-18)
(-0.0044895174 -0.029737999 -3.5738017e-18)
(-0.0026622169 -0.02626212 -2.3664524e-18)
(-0.0014954267 -0.023020642 1.3924075e-18)
(-0.00087337839 -0.020086332 5.225168e-18)
(-0.00068243655 -0.017510984 1.2969579e-18)
(-0.00080836607 -0.015319577 -2.1678181e-18)
(-0.0011450929 -0.013512783 -1.0681474e-18)
(-0.0015998509 -0.012070085 3.5652719e-19)
(-0.0020918681 -0.010963594 9.8334551e-19)
(-0.0025578242 -0.010142529 4.4898088e-19)
(-0.0029560927 -0.0095541862 -5.5426828e-19)
(-0.003260885 -0.009144906 -2.8890748e-19)
(-0.0034606647 -0.0088629991 2.7400661e-19)
(-0.0035566461 -0.0086626758 7.4123108e-19)
(-0.003559484 -0.0085061861 2.109282e-19)
(-0.0034857693 -0.0083647642 -2.2953874e-19)
(0.017560199 -0.30262104 5.1698753e-16)
(0.04059661 -0.30060572 5.7762264e-16)
(0.062275525 -0.29059452 6.9213109e-16)
(0.079149463 -0.27944911 2.9790629e-16)
(0.094678264 -0.26711798 2.7113153e-16)
(0.10874024 -0.25424656 1.5987727e-16)
(0.12210775 -0.24058266 2.9715959e-16)
(0.13487143 -0.22573069 1.5494883e-16)
(0.14685838 -0.20935956 5.9647864e-17)
(0.1577064 -0.19132222 1.8300224e-16)
(0.16703031 -0.17168865 9.2519703e-17)
(0.17451345 -0.15069358 -1.1917064e-17)
(0.17994249 -0.12867193 -3.6448611e-17)
(0.1832106 -0.1060032 -3.3025301e-17)
(0.18430545 -0.083070894 1.8749639e-17)
(0.18329178 -0.060235748 -6.1729194e-17)
(0.18029261 -0.037818886 3.0261456e-17)
(0.17547072 -0.016093196 -6.2040915e-17)
(0.1690255 0.0047215253 -1.1784831e-16)
(0.16116689 0.024458764 -8.4026538e-17)
(0.15207616 0.043007023 -1.8366084e-17)
(0.14194996 0.060296319 3.5164758e-18)
(0.13095708 0.076291857 -1.0192176e-17)
(0.11924247 0.090984958 3.9551227e-17)
(0.10692564 0.10438448 3.9302774e-17)
(0.094100937 0.11650785 6.6246263e-17)
(0.080839368 0.12737279 1.0277376e-16)
(0.067193178 0.13699017 8.4120388e-17)
(0.053202325 0.14535855 9.490677e-17)
(0.038899304 0.15246039 6.421809e-17)
(0.02431965 0.15826087 8.4230619e-17)
(0.0094886763 0.1627052 8.4732719e-17)
(-0.0055696238 0.16573764 4.0634259e-17)
(-0.020735002 0.16725232 6.701637e-17)
(-0.035923772 0.16716909 7.0380104e-17)
(-0.051013132 0.16539387 7.2754393e-17)
(-0.065841372 0.16184043 6.1050462e-17)
(-0.080211062 0.15643948 4.8009066e-17)
(-0.093889827 0.14915058 7.0772761e-17)
(-0.10661432 0.13997472 7.6047636e-17)
(-0.11809802 0.12896723 6.1636369e-17)
(-0.12804407 0.11624972 3.0781875e-17)
(-0.13616342 0.10201922 3.0945121e-17)
(-0.14219763 0.086551747 -3.9963242e-17)
(-0.14594352 0.070197706 -2.1302002e-17)
(-0.14727385 0.053367773 -3.1945654e-17)
(-0.14615221 0.03651129 -4.407008e-17)
(-0.14264225 0.02008895 -1.8996796e-17)
(-0.13691751 0.004540302 4.0275886e-19)
(-0.12921482 -0.0097078549 -8.5744357e-19)
(-0.11986964 -0.02235052 -6.8949545e-18)
(-0.1092887 -0.033146417 -1.3859216e-17)
(-0.097874759 -0.04195325 -2.9976477e-17)
(-0.086030361 -0.048722666 7.9755019e-18)
(-0.074134499 -0.053490576 3.4581683e-17)
(-0.062526861 -0.056364613 -8.001796e-18)
(-0.05149706 -0.05750918 -2.687888e-17)
(-0.04127854 -0.057130126 -2.1223016e-19)
(-0.032046796 -0.055459959 2.2245147e-18)
(-0.023920225 -0.052745298 1.9896525e-17)
(-0.016963644 -0.049235208 9.9908111e-18)
(-0.011194105 -0.045172133 -8.087825e-18)
(-0.006587761 -0.040785169 2.7823972e-18)
(-0.0030845513 -0.036280078 2.7322244e-18)
(-0.00058598139 -0.031847411 5.3619473e-18)
(0.0010171608 -0.027634623 5.4753151e-18)
(0.0018603553 -0.023764336 -3.2749942e-18)
(0.0020952048 -0.020321334 4.8358858e-18)
(0.001861328 -0.017358364 2.5451563e-18)
(0.0013009721 -0.014896009 4.5667451e-19)
(0.00054577828 -0.012926208 4.8623405e-19)
(-0.00029802222 -0.011415778 1.9830211e-19)
(-0.0011328109 -0.010312791 1.1759137e-18)
(-0.0018802445 -0.0095553792 1.4976819e-18)
(-0.0024987287 -0.0090690044 1.7370169e-19)
(-0.0029636521 -0.0087816796 -2.8143104e-20)
(-0.0032685973 -0.0086259721 -1.2460335e-20)
(-0.0034232446 -0.0085437718 1.2766567e-19)
(-0.0034483176 -0.0084887273 3.876888e-19)
(-0.0033708631 -0.0084270742 8.9172159e-19)
(0.023898239 -0.36157144 5.63437e-16)
(0.054159177 -0.35587014 1.4528529e-15)
(0.078912816 -0.33763642 1.5043633e-15)
(0.095879791 -0.32082593 9.7957975e-16)
(0.111204 -0.30455203 4.2621987e-16)
(0.1251616 -0.28935371 8.6377934e-17)
(0.13911848 -0.27411417 -2.3315217e-17)
(0.15304437 -0.25785172 2.0927306e-16)
(0.16656071 -0.2398302 1.1079662e-16)
(0.1790156 -0.21971203 6.4176766e-17)
(0.18978431 -0.19755608 2.0943252e-16)
(0.19839572 -0.17368258 7.7445322e-17)
(0.20456033 -0.14854802 8.1436138e-17)
(0.20815257 -0.12265468 4.3703644e-17)
(0.20917775 -0.096494497 2.0256765e-17)
(0.20773961 -0.07051701 4.7846283e-17)
(0.20401174 -0.045111951 -3.2372952e-17)
(0.19821313 -0.020600774 -4.1827499e-17)
(0.19059956 0.0027677309 -3.9896001e-17)
(0.18144722 0.024810163 -5.101895e-18)
(0.17098032 0.045419869 3.5416634e-17)
(0.15943955 0.06454064 8.9086052e-19)
(0.14702704 0.082159648 -2.2706267e-17)
(0.13391054 0.098295458 -1.2086898e-17)
(0.12022219 0.11298655 -2.9403054e-17)
(0.10605929 0.12627952 -3.8773188e-17)
(0.091487331 0.13821826 -3.26587e-17)
(0.076546012 0.14883504 -1.6887078e-17)
(0.061257612 0.15814334 -7.5818332e-18)
(0.045633943 0.16613275 4.3753791e-19)
(0.029688149 0.17276741 -1.682014e-17)
(0.013431443 0.17798561 -7.8500458e-18)
(-0.0031487604 0.18170288 4.4859391e-18)
(-0.019926347 0.18380695 1.979923e-17)
(-0.036835037 0.18417643 1.7354254e-17)
(-0.053750496 0.18267989 -3.7105133e-17)
(-0.070499436 0.17918993 -1.9926096e-17)
(-0.086861455 0.1735935 1.7023359e-17)
(-0.10256721 0.16580736 1.9275823e-17)
(-0.11730167 0.15579514 5.1917629e-17)
(-0.13071205 0.14358511 8.6352168e-17)
(-0.14242232 0.12928794 7.4494086e-17)
(-0.15205595 0.11311188 6.240499e-17)
(-0.15926633 0.095371282 -7.5099587e-18)
(-0.1637718 0.076484023 -6.8200605e-17)
(-0.16538685 0.056954706 -8.3222623e-17)
(-0.16404548 0.037345502 -4.0653008e-17)
(-0.15981821 0.018240199 7.4498879e-18)
(-0.15289342 0.00019498643 3.3036119e-18)
(-0.14357076 -0.016252221 -2.2524507e-17)
(-0.13231942 -0.030715931 -3.3439948e-18)
(-0.11962278 -0.042905004 -1.0842452e-17)
(-0.10599533 -0.052658933 -3.7147814e-17)
(-0.091939768 -0.059937899 1.9672004e-18)
(-0.07792151 -0.064808307 4.6145476e-17)
(-0.064350236 -0.067424033 -1.7477414e-17)
(-0.05156815 -0.068005573 -2.4818761e-17)
(-0.039844273 -0.066819704 1.5022525e-18)
(-0.029374154 -0.064160619 -4.4726571e-18)
(-0.020283172 -0.06033446 1.2559968e-17)
(-0.012632414 -0.055646029 -1.563575e-17)
(-0.0064271532 -0.050387682 -6.1950771e-18)
(-0.0016192265 -0.044836924 3.1672673e-18)
(0.0018680402 -0.039241568 5.1283529e-19)
(0.0041631366 -0.033819317 6.9171302e-19)
(0.0054264285 -0.028746609 -3.8980676e-18)
(0.0058231163 -0.024152598 -4.5929688e-19)
(0.0055360563 -0.020137918 2.729347e-18)
(0.0047450249 -0.016755692 3.7921539e-18)
(0.0036250493 -0.014020032 -1.5474874e-18)
(0.0023359167 -0.011910321 -1.9351539e-18)
(0.0010142097 -0.010375962 2.3432434e-18)
(-0.00023087084 -0.0093356955 1.0583651e-18)
(-0.0013132513 -0.0087056414 1.4007695e-18)
(-0.0021813348 -0.0083877171 -6.4149957e-19)
(-0.0028164865 -0.0082856309 -2.4083386e-19)
(-0.0032211197 -0.0083119658 1.7894114e-19)
(-0.0034175531 -0.0083935159 -9.3817974e-20)
(-0.0034408073 -0.0084739702 2.1362086e-19)
(-0.0033323491 -0.0085144585 5.6596867e-19)
(0.033238757 -0.44227652 -5.9488944e-16)
(0.073764802 -0.42722243 -1.2283978e-15)
(0.1007608 -0.39303941 1.1545233e-15)
(0.11588241 -0.36691522 8.9922116e-16)
(0.12961986 -0.34518504 6.3165125e-16)
(0.14263598 -0.32767418 -2.9020377e-16)
(0.15713881 -0.31128098 -2.3310672e-16)
(0.17262473 -0.29402468 -2.4277058e-16)
(0.18830013 -0.27452824 -2.6908184e-16)
(0.20300085 -0.2522064 -1.6799178e-16)
(0.21573013 -0.22716609 -1.2547691e-16)
(0.2258085 -0.19990447 -7.3010317e-17)
(0.23287012 -0.17108106 -7.9795896e-17)
(0.23679814 -0.14137845 -1.9362168e-17)
(0.23765069 -0.11143305 -4.3377938e-17)
(0.23560269 -0.081804734 -6.2854244e-18)
(0.23090516 -0.052964322 -4.8527692e-17)
(0.22385684 -0.025288893 -5.2522172e-17)
(0.21478614 0.00094096727 -1.0576161e-17)
(0.20405046 0.025528549 1.1399576e-17)
(0.19193344 0.048378382 -5.3634352e-17)
(0.17872899 0.069457048 -6.2733783e-17)
(0.16467941 0.088784778 -7.2053188e-17)
(0.14997892 0.10641933 -1.2867481e-16)
(0.13477271 0.12244078 -1.1505658e-16)
(0.11915856 0.13693624 -1.5943868e-16)
(0.10319159 0.1499858 -1.793457e-16)
(0.086892222 0.16165131 -1.1959894e-16)
(0.070256615 0.17196699 -1.3334086e-16)
(0.053267079 0.18093327 -1.2035819e-16)
(0.035906577 0.18851477 -1.8985901e-16)
(0.018156992 0.19463968 -1.754864e-16)
(-3.0299825e-05 0.19920154 -1.0187839e-16)
(-0.018537218 0.20206264 -1.0859622e-16)
(-0.037321025 0.20305977 -1.091989e-16)
(-0.05626319 0.20201395 -1.8372572e-16)
(-0.07518184 0.19874403 -1.3399883e-16)
(-0.093835153 0.19307835 -2.9619818e-17)
(-0.11191409 0.18487381 -1.5280576e-17)
(-0.12904395 0.17403846 3.1578754e-17)
(-0.14479151 0.16055589 6.2894729e-17)
(-0.15868051 0.14451092 7.0715687e-17)
(-0.170219 0.12611389 4.3723073e-17)
(-0.17893971 0.10571772 3.5374798e-17)
(-0.18444993 0.083820129 -4.5288851e-17)
(-0.18647884 0.061044749 -7.5850389e-17)
(-0.18491136 0.038101982 -6.2193144e-17)
(-0.17981667 0.015741438 -3.2761515e-17)
(-0.1714253 -0.0053215209 -2.5765938e-17)
(-0.16011755 -0.024419632 -2.6192764e-17)
(-0.14649875 -0.041039928 1.4705058e-17)
(-0.13119564 -0.054836913 -4.9110376e-18)
(-0.11486282 -0.065634674 -2.2941375e-17)
(-0.098129737 -0.073413017 -1.5520414e-19)
(-0.081568634 -0.078285178 1.3556751e-17)
(-0.065672647 -0.080470031 -1.3279194e-17)
(-0.050843843 -0.080263231 -5.2505919e-18)
(-0.037389008 -0.07801028 6.5149573e-18)
(-0.025522022 -0.074082598 -7.0306655e-18)
(-0.015371108 -0.068858662 -3.9808993e-18)
(-0.0069877945 -0.062710401 -1.8647558e-17)
(-0.0003621714 -0.05599255 2.3921633e-18)
(0.0045717033 -0.049040768 -2.3131201e-18)
(0.0079447503 -0.042146444 -2.2465078e-19)
(0.0099194377 -0.035550122 -1.2902654e-18)
(0.010690483 -0.029464619 -1.2638177e-17)
(0.010473239 -0.024043123 4.8225492e-19)
(0.0094945913 -0.019392319 9.8434337e-19)