/*--------------------------------*- C++ -*----------------------------------*\
| =========                 |                                                 |
| \\      /  F ield         | OpenFOAM: The Open Source CFD Toolbox           |
|  \\    /   O peration     | Version:  2106                                  |
|   \\  /    A nd           | Website:  www.openfoam.com                      |
|    \\/     M anipulation  |                                                 |
\*---------------------------------------------------------------------------*/
FoamFile
{
    version     2.0;
    format      ascii;
    arch        "LSB;label=32;scalar=64";
    class       volScalarField;
    location    "0.026";
    object      p;
}
// * * * * * * * * * * * * * * * * * * * * * * * * * * * * * * * * * * * * * //

dimensions      [1 -1 -2 0 0 0 0];

internalField   nonuniform List<scalar> 
16384
(
-1.7438609
-1.7397085
-1.7314134
-1.7189949
-1.7024818
-1.6819125
-1.6573348
-1.6288059
-1.5963922
-1.5601692
-1.5202211
-1.476641
-1.4295304
-1.3789994
-1.3251657
-1.2681551
-1.2081008
-1.1451434
-1.0794302
-1.0111153
-0.94035891
-0.86732738
-0.79219246
-0.71513117
-0.6363253
-0.55596107
-0.47422867
-0.39132184
-0.30743725
-0.22277449
-0.13753901
-0.051930856
0.033848142
0.11958862
0.20508267
0.29012549
0.37451189
0.45803738
0.54049907
0.62169617
0.70143048
0.77950687
0.8557338
0.92992377
1.0018938
1.0714661
1.1384682
1.2027336
1.2641024
1.3224214
1.3775447
1.4293343
1.47766
1.5224002
1.5634422
1.6006824
1.6340266
1.6633904
1.6886993
1.7098891
1.726906
1.7397067
1.7482586
1.75254
1.75254
1.7482586
1.7397067
1.726906
1.7098891
1.6886993
1.6633904
1.6340266
1.6006824
1.5634422
1.5224002
1.47766
1.4293343
1.3775447
1.3224214
1.2641024
1.2027336
1.1384682
1.0714661
1.0018938
0.92992377
0.8557338
0.77950687
0.70143047
0.62169616
0.54049907
0.45803738
0.37451189
0.29012549
0.20508267
0.11958862
0.033848141
-0.051930858
-0.13753901
-0.2227745
-0.30743725
-0.39132185
-0.47422867
-0.55596107
-0.6363253
-0.71513117
-0.79219246
-0.86732738
-0.94035891
-1.0111153
-1.0794302
-1.1451434
-1.2081008
-1.2681551
-1.3251657
-1.3789994
-1.4295304
-1.476641
-1.5202211
-1.5601692
-1.5963922
-1.6288059
-1.6573348
-1.6819125
-1.7024818
-1.7189949
-1.7314134
-1.7397085
-1.7438609
-1.7467892
-1.7426294
-1.7343195
-1.7218788
-1.7053362
-1.6847303
-1.6601089
-1.6315294
-1.5990584
-1.5627713
-1.5227528
-1.4790962
-1.4319032
-1.381284
-1.3273567
-1.2702474
-1.2100895
-1.1470239
-1.0811982
-1.0127669
-0.94189044
-0.86873551
-0.7934742
-0.71628384
-0.63734655
-0.55684889
-0.47498139
-0.39193816
-0.30791639
-0.2231162
-0.13774107
-0.051992776
0.033924641
0.1198015
0.20543225
0.29061082
0.3751314
0.45878923
0.54138112
0.62270602
0.70256545
0.780764
0.85710984
0.93141524
1.003497
1.0731769
1.1402825
1.2046469
1.26611
1.3245185
1.3797262
1.4315949
1.4799944
1.5248028
1.5659072
1.603204
1.6365988
1.6660071
1.6913544
1.7125762
1.7296189
1.7424389
1.7510037
1.7552916
1.7552916
1.7510037
1.7424389
1.7296189
1.7125762
1.6913544
1.6660071
1.6365988
1.603204
1.5659072
1.5248028
1.4799944
1.4315949
1.3797262
1.3245185
1.26611
1.2046469
1.1402825
1.0731769
1.003497
0.93141524
0.85710984
0.780764
0.70256545
0.62270602
0.54138112
0.45878922
0.3751314
0.29061082
0.20543225
0.1198015
0.03392464
-0.051992777
-0.13774107
-0.2231162
-0.30791639
-0.39193816
-0.47498139
-0.55684889
-0.63734655
-0.71628384
-0.7934742
-0.86873551
-0.94189044
-1.0127669
-1.0811982
-1.1470239
-1.2100895
-1.2702474
-1.3273567
-1.381284
-1.4319032
-1.4790962
-1.5227528
-1.5627713
-1.5990584
-1.6315294
-1.6601089
-1.6847303
-1.7053362
-1.7218788
-1.7343195
-1.7426294
-1.7467892
-1.7542392
-1.7500614
-1.7417154
-1.7292208
-1.7126065
-1.6919113
-1.6671834
-1.6384804
-1.605869
-1.5694253
-1.5292343
-1.4853897
-1.4379938
-1.3871572
-1.3329986
-1.2756447
-1.2152296
-1.1518947
-1.0857885
-1.0170659
-0.9458883
-0.87242299
-0.79684287
-0.71932602
-0.64005537
-0.55921826
-0.47700602
-0.3936136
-0.30923907
-0.2240833
-0.13834963
-0.052242104
0.034033483
0.12026888
0.20625704
0.29179083
0.37666357
0.46066971
0.54360526
0.62526837
0.70545974
0.7839832
0.86064614
0.93526007
1.007641
1.0776102
1.1449942
1.2096257
1.2713438
1.3299946
1.3854314
1.4375152
1.4861155
1.5311098
1.5723848
1.6098363
1.6433697
1.6729
1.6983524
1.7196624
1.7367757
1.7496489
1.7582493
1.762555
1.762555
1.7582493
1.7496489
1.7367757
1.7196624
1.6983524
1.6729
1.6433697
1.6098363
1.5723848
1.5311098
1.4861155
1.4375152
1.3854314
1.3299946
1.2713438
1.2096257
1.1449942
1.0776102
1.007641
0.93526007
0.86064614
0.78398319
0.70545974
0.62526837
0.54360526
0.46066971
0.37666357
0.29179083
0.20625704
0.12026888
0.034033481
-0.052242105
-0.13834963
-0.2240833
-0.30923907
-0.3936136
-0.47700603
-0.55921826
-0.64005538
-0.71932603
-0.79684287
-0.87242299
-0.9458883
-1.0170659
-1.0857885
-1.1518947
-1.2152296
-1.2756447
-1.3329986
-1.3871572
-1.4379938
-1.4853897
-1.5292343
-1.5694253
-1.605869
-1.6384804
-1.6671834
-1.6919113
-1.7126065
-1.7292208
-1.7417154
-1.7500614
-1.7542392
-1.7660412
-1.7618351
-1.7534325
-1.7408533
-1.7241265
-1.7032912
-1.6783959
-1.6494988
-1.616667
-1.5799772
-1.539515
-1.4953747
-1.4476595
-1.3964807
-1.341958
-1.2842188
-1.2233982
-1.1596388
-1.0930898
-1.0239075
-0.95225419
-0.87829841
-0.80221419
-0.72418083
-0.64438247
-0.56300768
-0.48024909
-0.3963029
-0.31136849
-0.22564797
-0.13934579
-0.05266783
0.034178555
0.12098464
0.20754174
0.29364128
0.37907529
0.46363688
0.54712077
0.62932379
0.71004536
0.78908804
0.86625797
0.94136543
1.0142253
1.0846574
1.1524875
1.2175469
1.2796738
1.3387132
1.3945174
1.4469466
1.4958692
1.541162
1.582711
1.6204111
1.6541672
1.6838937
1.7095152
1.7309668
1.7481938
1.7611526
1.7698102
1.7741445
1.7741445
1.7698102
1.7611526
1.7481938
1.7309668
1.7095152
1.6838937
1.6541672
1.6204111
1.582711
1.541162
1.4958692
1.4469466
1.3945174
1.3387132
1.2796738
1.2175469
1.1524875
1.0846574
1.0142253
0.94136543
0.86625797
0.78908804
0.71004536
0.62932379
0.54712077
0.46363688
0.37907529
0.29364128
0.20754173
0.12098464
0.034178554
-0.052667831
-0.1393458
-0.22564798
-0.31136849
-0.3963029
-0.48024909
-0.56300768
-0.64438247
-0.72418083
-0.8022142
-0.87829841
-0.95225419
-1.0239075
-1.0930898
-1.1596388
-1.2233982
-1.2842188
-1.341958
-1.3964807
-1.4476595
-1.4953747
-1.539515
-1.5799772
-1.616667
-1.6494988
-1.6783959
-1.7032912
-1.7241265
-1.7408533
-1.7534325
-1.7618351
-1.7660412
-1.7821163
-1.7778717
-1.7693924
-1.7566982
-1.7398186
-1.7187931
-1.6936706
-1.6645098
-1.6313786
-1.5943545
-1.5535238
-1.5089818
-1.4608327
-1.4091889
-1.3541712
-1.2959082
-1.2345364
-1.1701996
-1.1030485
-1.0332408
-0.96094031
-0.88631709
-0.80954677
-0.73081027
-0.65029338
-0.56818637
-0.48468357
-0.39998292
-0.31428556
-0.22779537
-0.14071851
-0.053262826
0.034362419
0.12194693
0.20928016
0.29615169
0.38235172
0.46767156
0.55190412
0.63484444
0.7162902
0.7960422
0.87390487
0.94968678
1.0232011
1.0942663
1.1627062
1.2283509
1.2910369
1.3506079
1.4069148
1.4598165
1.5091802
1.5548816
1.5968055
1.634846
1.6689069
1.6989019
1.724755
1.7464004
1.7637833
1.7768593
1.7855951
1.7899687
1.7899687
1.7855951
1.7768593
1.7637833
1.7464004
1.724755
1.6989019
1.6689069
1.634846
1.5968055
1.5548816
1.5091802
1.4598165
1.4069148
1.3506079
1.2910369
1.2283509
1.1627062
1.0942663
1.0232011
0.94968678
0.87390486
0.7960422
0.7162902
0.63484444
0.55190412
0.46767156
0.38235172
0.29615169
0.20928016
0.12194693
0.034362418
-0.053262827
-0.14071851
-0.22779537
-0.31428556
-0.39998292
-0.48468357
-0.56818637
-0.65029338
-0.73081027
-0.80954677
-0.88631709
-0.96094031
-1.0332408
-1.1030485
-1.1701996
-1.2345364
-1.2959082
-1.3541712
-1.4091889
-1.4608327
-1.5089818
-1.5535238
-1.5943545
-1.6313786
-1.6645098
-1.6936706
-1.7187931
-1.7398186
-1.7566982
-1.7693924
-1.7778717
-1.7821163
-1.8025047
-1.7982114
-1.7896349
-1.7767951
-1.7597221
-1.7384556
-1.7130454
-1.6835507
-1.6500405
-1.6125929
-1.5712955
-1.5262448
-1.4775461
-1.4253132
-1.3696684
-1.310742
-1.2486718
-1.1836033
-1.1156892
-1.0450889
-0.97196813
-0.89649888
-0.81885879
-0.73923082
-0.65780286
-0.57476732
-0.49032069
-0.40466311
-0.31799794
-0.23053131
-0.14247162
-0.054029083
0.034584727
0.12315728
0.21147573
0.29932733
0.38649997
0.47278265
0.55796602
0.64184283
0.72420853
0.80486167
0.88360451
0.96024348
1.0345897
1.1064594
1.1756745
1.2420632
1.3054601
1.3657069
1.4226531
1.4761557
1.5260804
1.5723015
1.6147023
1.6531758
1.6876245
1.7179612
1.7441089
1.7660011
1.7835821
1.7968072
1.8056427
1.8100661
1.8100661
1.8056427
1.7968072
1.7835821
1.7660011
1.7441089
1.7179612
1.6876245
1.6531758
1.6147023
1.5723015
1.5260804
1.4761557
1.4226531
1.3657069
1.3054601
1.2420632
1.1756745
1.1064594
1.0345897
0.96024348
0.88360451
0.80486167
0.72420852
0.64184283
0.55796602
0.47278265
0.38649996
0.29932733
0.21147573
0.12315728
0.034584726
-0.054029084
-0.14247162
-0.23053131
-0.31799794
-0.40466311
-0.49032069
-0.57476732
-0.65780286
-0.73923082
-0.81885879
-0.89649888
-0.97196814
-1.0450889
-1.1156892
-1.1836033
-1.2486718
-1.310742
-1.3696684
-1.4253132
-1.4775461
-1.5262448
-1.5712955
-1.6125929
-1.6500405
-1.6835507
-1.7130454
-1.7384556
-1.7597221
-1.7767951
-1.7896349
-1.7982114
-1.8025047
-1.8272636
-1.8229112
-1.8142167
-1.8012004
-1.7838927
-1.762334
-1.7365747
-1.706675
-1.6727048
-1.6347436
-1.59288
-1.547212
-1.4978465
-1.4448989
-1.3884932
-1.3287616
-1.2658439
-1.1998876
-1.1310475
-1.0594852
-0.98536883
-0.90887266
-0.83017677
-0.7494666
-0.66693258
-0.5827697
-0.49717707
-0.41035751
-0.32251706
-0.23386459
-0.14461124
-0.054970023
0.034844682
0.12461759
0.21413303
0.30317547
0.39152999
0.4789828
0.56532176
0.65033687
0.73382082
0.8155695
0.89538248
0.97306356
1.0484213
1.1212694
1.1914274
1.258721
1.3229826
1.3840517
1.4417755
1.4960093
1.5466166
1.5934701
1.6364513
1.6754517
1.7103725
1.741125
1.7676312
1.7898237
1.8076459
1.8210525
1.8300093
1.8344934
1.8344934
1.8300093
1.8210525
1.8076459
1.7898237
1.7676312
1.741125
1.7103725
1.6754517
1.6364513
1.5934701
1.5466166
1.4960093
1.4417755
1.3840517
1.3229826
1.258721
1.1914274
1.1212694
1.0484213
0.97306356
0.89538248
0.8155695
0.73382082
0.65033687
0.56532176
0.4789828
0.39152999
0.30317547
0.21413303
0.12461759
0.034844681
-0.054970024
-0.14461124
-0.23386459
-0.32251706
-0.41035751
-0.49717707
-0.5827697
-0.66693258
-0.7494666
-0.83017677
-0.90887266
-0.98536883
-1.0594852
-1.1310475
-1.1998876
-1.2658439
-1.3287616
-1.3884932
-1.4448989
-1.4978465
-1.547212
-1.59288
-1.6347436
-1.6727048
-1.706675
-1.7365747
-1.762334
-1.7838927
-1.8012004
-1.8142167
-1.8229112
-1.8272636
-1.8564538
-1.8520319
-1.8431985
-1.8299742
-1.8123899
-1.7904868
-1.7643163
-1.7339394
-1.6994273
-1.6608608
-1.6183301
-1.5719349
-1.5217836
-1.4679939
-1.4106917
-1.3500112
-1.2860948
-1.2190923
-1.149161
-1.0764651
-1.0011754
-0.923469
-0.84352878
-0.76154312
-0.67770544
-0.59221375
-0.50527027
-0.41708094
-0.327855
-0.2378045
-0.14714384
-0.056089308
0.035141437
0.12632982
0.21725688
0.30770377
0.39745226
0.48628528
0.57398739
0.66034536
0.74514864
0.82818992
0.90926563
0.98817648
1.0647279
1.1387308
1.2100017
1.2783635
1.3436459
1.4056858
1.4643278
1.5194248
1.5708382
1.6184384
1.662105
1.7017277
1.7372059
1.7684496
1.7953794
1.8179265
1.8360337
1.8496547
1.8587548
1.8633106
1.8633106
1.8587548
1.8496547
1.8360337
1.8179265
1.7953794
1.7684496
1.7372059
1.7017277
1.662105
1.6184384
1.5708382
1.5194248
1.4643278
1.4056858
1.3436459
1.2783635
1.2100017
1.1387308
1.0647279
0.98817648
0.90926563
0.82818992
0.74514864
0.66034536
0.57398739
0.48628527
0.39745226
0.30770376
0.21725688
0.12632982
0.035141436
-0.056089309
-0.14714384
-0.2378045
-0.327855
-0.41708094
-0.50527027
-0.59221375
-0.67770544
-0.76154312
-0.84352878
-0.923469
-1.0011754
-1.0764651
-1.149161
-1.2190923
-1.2860948
-1.3500112
-1.4106917
-1.4679939
-1.5217836
-1.5719349
-1.6183301
-1.6608608
-1.6994273
-1.7339394
-1.7643163
-1.7904868
-1.8123899
-1.8299742
-1.8431985
-1.8520319
-1.8564538
-1.8901462
-1.885644
-1.8766502
-1.8631859
-1.8452826
-1.8229823
-1.7963372
-1.7654098
-1.7302725
-1.6910076
-1.6477073
-1.6004729
-1.5494152
-1.4946538
-1.4363172
-1.3745421
-1.3094734
-1.2412638
-1.1700735
-1.0960696
-1.0194262
-0.94032332
-0.85894734
-0.77548994
-0.69014797
-0.60312295
-0.51462065
-0.42485063
-0.33402578
-0.24236186
-0.15007701
-0.057391255
0.035473935
0.1282962
0.22085277
0.31292098
0.4042788
0.49470535
0.58398143
0.67189001
0.75821684
0.84275092
0.92528503
1.0056163
1.0835467
1.1588836
1.2314402
1.3010361
1.3674979
1.4306595
1.4903626
1.5464573
1.5988023
1.6472655
1.6917244
1.7320664
1.768189
1.8000005
1.8274198
1.8503771
1.8688136
1.8826825
1.8919482
1.8965869
1.8965869
1.8919482
1.8826825
1.8688136
1.8503771
1.8274198
1.8000005
1.768189
1.7320664
1.6917244
1.6472655
1.5988023
1.5464573
1.4903626
1.4306595
1.3674979
1.3010361
1.2314402
1.1588836
1.0835467
1.0056163
0.92528503
0.84275092
0.75821684
0.67189001
0.58398142
0.49470535
0.4042788
0.31292098
0.22085277
0.1282962
0.035473934
-0.057391256
-0.15007701
-0.24236186
-0.33402578
-0.42485063
-0.51462065
-0.60312295
-0.69014797
-0.77548994
-0.85894734
-0.94032332
-1.0194262
-1.0960696
-1.1700735
-1.2412638
-1.3094734
-1.3745421
-1.4363172
-1.4946538
-1.5494152
-1.6004729
-1.6477073
-1.6910076
-1.7302725
-1.7654098
-1.7963372
-1.8229823
-1.8452826
-1.8631859
-1.8766502
-1.885644
-1.8901462
-1.9284225
-1.9238292
-1.9146533
-1.9009164
-1.8826508
-1.8598992
-1.8327152
-1.8011625
-1.7653151
-1.7252571
-1.6810826
-1.6328952
-1.580808
-1.5249432
-1.4654317
-1.4024134
-1.3360362
-1.2664557
-1.1938356
-1.1183464
-1.0401654
-0.95947676
-0.87647024
-0.79134142
-0.70429105
-0.61552461
-0.52525192
-0.43368663
-0.34104578
-0.24754932
-0.15341962
-0.05888098
0.035840847
0.13051919
0.22492696
0.31883718
0.41202347
0.50426066
0.59532523
0.68499591
0.77305419
0.85928487
0.94347662
1.0254225
1.1049204
1.1817738
1.2557922
1.3267914
1.3945944
1.4590315
1.5199413
1.5771706
1.6305752
1.6800201
1.7253802
1.7665404
1.8033961
1.8358535
1.8638298
1.8872536
1.906065
1.9202159
1.92967
1.9344031
1.9344031
1.92967
1.9202159
1.906065
1.8872536
1.8638298
1.8358535
1.8033961
1.7665404
1.7253802
1.6800201
1.6305752
1.5771706
1.5199413
1.4590315
1.3945944
1.3267914
1.2557922
1.1817738
1.1049204
1.0254225
0.94347662
0.85928487
0.77305419
0.68499591
0.59532523
0.50426066
0.41202347
0.31883717
0.22492696
0.13051919
0.035840847
-0.058880981
-0.15341962
-0.24754932
-0.34104579
-0.43368664
-0.52525192
-0.61552461
-0.70429105
-0.79134142
-0.87647024
-0.95947676
-1.0401654
-1.1183464
-1.1938356
-1.2664557
-1.3360362
-1.4024134
-1.4654317
-1.5249432
-1.580808
-1.6328952
-1.6810826
-1.7252571
-1.7653151
-1.8011625
-1.8327152
-1.8598992
-1.8826508
-1.9009164
-1.9146533
-1.9238292
-1.9284225
-1.9713761
-1.9666805
-1.9573003
-1.9432575
-1.9245853
-1.9013274
-1.8735387
-1.8412843
-1.8046402
-1.7636923
-1.7185371
-1.6692804
-1.6160381
-1.5589352
-1.4981058
-1.4336928
-1.3658475
-1.2947292
-1.220505
-1.1433494
-1.0634438
-0.98097613
-0.89614047
-0.80913666
-0.72016981
-0.62944986
-0.53719112
-0.44361184
-0.3489337
-0.25338135
-0.1571819
-0.060564415
0.036240541
0.13300148
0.22948646
0.32546367
0.42070189
0.5149711
0.60804298
0.69969145
0.78969326
0.8778285
0.96388119
1.0476398
1.1288977
1.2074541
1.283114
1.3556891
1.4249984
1.4908683
1.5531336
1.6116375
1.6662324
1.7167803
1.7631529
1.8052325
1.842912
1.8760953
1.9046975
1.9286456
1.9478783
1.9623461
1.972012
1.9768511
1.9768511
1.972012
1.9623461
1.9478783
1.9286456
1.9046975
1.8760953
1.842912
1.8052325
1.7631529
1.7167803
1.6662324
1.6116375
1.5531336
1.4908683
1.4249984
1.3556891
1.283114
1.2074541
1.1288977
1.0476398
0.96388119
0.8778285
0.78969326
0.69969145
0.60804298
0.5149711
0.42070189
0.32546367
0.22948646
0.13300148
0.036240541
-0.060564416
-0.1571819
-0.25338135
-0.3489337
-0.44361184
-0.53719112
-0.62944986
-0.72016981
-0.80913666
-0.89614047
-0.98097613
-1.0634438
-1.1433494
-1.220505
-1.2947292
-1.3658475
-1.4336928
-1.4981058
-1.5589352
-1.6160381
-1.6692804
-1.7185371
-1.7636923
-1.8046402
-1.8412843
-1.8735387
-1.9013274
-1.9245853
-1.9432575
-1.9573003
-1.9666805
-1.9713761
-2.0191115
-2.0143022
-2.0046949
-1.9903122
-1.9711881
-1.9473676
-1.9189068
-1.8858727
-1.8483432
-1.8064065
-1.7601614
-1.7097166
-1.6551909
-1.5967124
-1.5344186
-1.468456
-1.3989795
-1.3261526
-1.2501464
-1.1711396
-1.089318
-1.004874
-0.91800632
-0.8289196
-0.73782376
-0.64493366
-0.55046863
-0.45465201
-0.35771062
-0.2598743
-0.16137542
-0.062448348
0.036671046
0.13574591
0.23453896
0.33281299
0.43033142
0.52685886
0.62216162
0.71600833
0.80817045
0.89842284
0.98654434
1.0723183
1.1555332
1.2359832
1.3134685
1.3877963
1.4587809
1.5262445
1.5900176
1.6499395
1.7058587
1.7576337
1.805133
1.8482357
1.8868319
1.9208229
1.9501218
1.9746534
1.9943548
2.0091754
2.019077
2.0240342
2.0240342
2.019077
2.0091754
1.9943548
1.9746534
1.9501218
1.9208229
1.8868319
1.8482357
1.805133
1.7576337
1.7058587
1.6499395
1.5900176
1.5262445
1.4587809
1.3877963
1.3134685
1.2359832
1.1555332
1.0723183
0.98654434
0.89842284
0.80817045
0.71600833
0.62216162
0.52685886
0.43033142
0.33281299
0.23453896
0.13574591
0.036671045
-0.062448348
-0.16137542
-0.2598743
-0.35771062
-0.45465201
-0.55046863
-0.64493366
-0.73782376
-0.8289196
-0.91800632
-1.004874
-1.089318
-1.1711396
-1.2501464
-1.3261526
-1.3989795
-1.468456
-1.5344186
-1.5967124
-1.6551909
-1.7097166
-1.7601614
-1.8064065
-1.8483432
-1.8858727
-1.9189068
-1.9473676
-1.9711881
-1.9903122
-2.0046949
-2.0143022
-2.0191115
-2.0717449
-2.0668102
-2.0569525
-2.042195
-2.0225726
-1.9981316
-1.9689298
-1.935036
-1.8965302
-1.8535032
-1.8060564
-1.7543018
-1.698361
-1.638366
-1.5744578
-1.5067869
-1.4355125
-1.3608022
-1.2828318
-1.2017845
-1.117851
-1.0312287
-0.94212145
-0.85073907
-0.75729681
-0.66201494
-0.56511833
-0.46683587
-0.36740006
-0.26704646
-0.1660132
-0.064540474
0.037130003
0.1387555
0.24009283
0.34089887
0.44093114
0.53994834
0.63771089
0.73398157
0.828526
0.92111328
1.0115165
1.0995135
1.1848872
1.2674262
1.3469256
1.4231873
1.4960206
1.565243
1.6306802
1.6921671
1.7495483
1.802678
1.8514211
1.8956533
1.9352616
1.9701446
2.0002127
2.0253887
2.0456078
2.0608179
2.0709798
2.0760674
2.0760674
2.0709798
2.0608179
2.0456078
2.0253887
2.0002127
1.9701446
1.9352616
1.8956533
1.8514211
1.802678
1.7495483
1.6921671
1.6306802
1.565243
1.4960206
1.4231873
1.3469256
1.2674262
1.1848872
1.0995135
1.0115165
0.92111328
0.828526
0.73398157
0.63771089
0.53994834
0.44093114
0.34089887
0.24009283
0.1387555
0.037130002
-0.064540474
-0.1660132
-0.26704646
-0.36740006
-0.46683587
-0.56511833
-0.66201494
-0.75729681
-0.85073907
-0.94212145
-1.0312287
-1.117851
-1.2017845
-1.2828318
-1.3608022
-1.4355125
-1.5067869
-1.5744578
-1.638366
-1.698361
-1.7543018
-1.8060564
-1.8535032
-1.8965302
-1.935036
-1.9689298
-1.9981316
-2.0225726
-2.042195
-2.0569525
-2.0668102
-2.0717449
-2.1294046
-2.1243325
-2.1142004
-2.0990322
-2.0788638
-2.053743
-2.0237292
-1.9888935
-1.9493181
-1.9050966
-1.8563335
-1.8031438
-1.7456531
-1.6839968
-1.6183204
-1.5487785
-1.4755349
-1.3987619
-1.3186403
-1.2353584
-1.1491122
-1.0601047
-0.96854509
-0.87464899
-0.77863746
-0.68073672
-0.58117763
-0.48019521
-0.37802811
-0.27491815
-0.17110976
-0.066849469
0.037614606
0.14203332
0.24615704
0.3497362
0.45252184
0.55426621
0.6547233
0.75364947
0.85080397
0.9459496
1.0388532
1.1292864
1.217026
1.3018548
1.383562
1.4619438
1.5368041
1.6079549
1.675217
1.7384204
1.7974048
1.8520204
1.9021279
1.9475993
1.988318
2.0241795
2.0550915
2.0809746
2.1017617
2.1173993
2.1278469
2.1330775
2.1330775
2.1278469
2.1173993
2.1017617
2.0809746
2.0550915
2.0241795
1.988318
1.9475993
1.9021279
1.8520204
1.7974048
1.7384204
1.675217
1.6079549
1.5368041
1.4619438
1.383562
1.3018548
1.217026
1.1292864
1.0388532
0.9459496
0.85080397
0.75364947
0.6547233
0.55426621
0.45252184
0.3497362
0.24615704
0.14203332
0.037614605
-0.066849469
-0.17110976
-0.27491815
-0.37802811
-0.48019521
-0.58117763
-0.68073672
-0.77863746
-0.87464899
-0.96854509
-1.0601047
-1.1491122
-1.2353584
-1.3186403
-1.3987619
-1.4755349
-1.5487785
-1.6183204
-1.6839968
-1.7456531
-1.8031438
-1.8563335
-1.9050966
-1.9493181
-1.9888935
-2.0237292
-2.053743
-2.0788638
-2.0990322
-2.1142004
-2.1243325
-2.1294046
-2.192231
-2.1870092
-2.176578
-2.1609622
-2.1401987
-2.114337
-2.0834384
-2.0475761
-2.0068352
-1.961312
-1.9111144
-1.8563611
-1.7971815
-1.7337154
-1.6661125
-1.5945323
-1.5191435
-1.4401236
-1.3576588
-1.271943
-1.183178
-1.0915726
-0.99734214
-0.90070846
-0.80189892
-0.70114619
-0.59868766
-0.49476497
-0.3896235
-0.28351181
-0.1766812
-0.069385069
0.038121526
0.14558248
0.25274115
0.35934097
0.46512596
0.56984135
0.67323414
0.77505369
0.87505235
0.972986
1.0686147
1.1617033
1.2520221
1.3393473
1.4234616
1.5041553
1.581226
1.6544801
1.7237327
1.7888084
1.849542
1.9057788
1.957375
2.0041984
2.0461289
2.0830583
2.1148915
2.1415462
2.1629534
2.1790576
2.189817
2.1952037
2.1952037
2.189817
2.1790576
2.1629534
2.1415462
2.1148915
2.0830583
2.0461289
2.0041984
1.957375
1.9057788
1.849542
1.7888084
1.7237327
1.6544801
1.581226
1.5041553
1.4234616
1.3393473
1.2520221
1.1617033
1.0686147
0.972986
0.87505235
0.77505369
0.67323414
0.56984135
0.46512596
0.35934097
0.25274115
0.14558248
0.038121526
-0.06938507
-0.1766812
-0.28351182
-0.3896235
-0.49476497
-0.59868766
-0.70114619
-0.80189892
-0.90070846
-0.99734214
-1.0915726
-1.183178
-1.271943
-1.3576588
-1.4401236
-1.5191435
-1.5945323
-1.6661125
-1.7337154
-1.7971815
-1.8563611
-1.9111144
-1.961312
-2.0068352
-2.0475761
-2.0834384
-2.114337
-2.1401987
-2.1609622
-2.176578
-2.1870092
-2.192231
-2.2603776
-2.2549933
-2.2442375
-2.228136
-2.2067269
-2.1800613
-2.1482026
-2.1112266
-2.069221
-2.0222858
-1.9705321
-1.9140827
-1.8530712
-1.787642
-1.7179497
-1.644159
-1.5664438
-1.4849875
-1.3999819
-1.3116272
-1.2201312
-1.1257093
-1.0285834
-0.92898197
-0.82713927
-0.72329491
-0.61769337
-0.51058344
-0.40221773
-0.29285215
-0.18274534
-0.072158174
0.038646821
0.14940601
0.2598552
0.36973023
0.47876756
0.58670482
0.69328142
0.79823919
0.90132295
1.0022811
1.1008664
1.1968363
1.2899539
1.3799883
1.4667155
1.5499187
1.6293893
1.704927
1.776341
1.8434501
1.9060835
1.9640812
2.0172946
2.0655869
2.1088339
2.1469237
2.1797578
2.207251
2.229332
2.2459432
2.2570415
2.2625979
2.2625979
2.2570415
2.2459432
2.229332
2.207251
2.1797578
2.1469237
2.1088339
2.0655869
2.0172946
1.9640812
1.9060835
1.8434501
1.776341
1.704927
1.6293893
1.5499187
1.4667155
1.3799883
1.2899539
1.1968363
1.1008664
1.0022811
0.90132295
0.79823919
0.69328142
0.58670482
0.47876756
0.36973023
0.2598552
0.14940601
0.038646821
-0.072158173
-0.18274534
-0.29285215
-0.40221773
-0.51058344
-0.61769337
-0.72329491
-0.82713927
-0.92898197
-1.0285834
-1.1257093
-1.2201312
-1.3116272
-1.3999819
-1.4849875
-1.5664438
-1.644159
-1.7179497
-1.787642
-1.8530712
-1.9140827
-1.9705321
-2.0222858
-2.069221
-2.1112266
-2.1482026
-2.1800613
-2.2067269
-2.228136
-2.2442375
-2.2549933
-2.2603776
-2.3340107
-2.3284507
-2.3173442
-2.3007175
-2.2786105
-2.2510759
-2.2181795
-2.1799997
-2.1366274
-2.088166
-2.0347307
-1.9764484
-1.9134575
-1.8459073
-1.7739576
-1.6977787
-1.6175505
-1.5334623
-1.4457124
-1.3545074
-1.2600621
-1.1625984
-1.0623457
-0.95953957
-0.85442161
-0.74723896
-0.6382437
-0.52769233
-0.41584524
-0.30296621
-0.18932183
-0.075180959
0.039185824
0.15350679
0.26750963
0.38092202
0.49347225
0.60488979
0.71490588
0.82325421
0.92967149
1.0338981
1.1356787
1.2347629
1.3309061
1.4238696
1.513422
1.5993391
1.6814051
1.759413
1.8331653
1.9024743
1.9671633
2.0270665
2.0820301
2.1319124
2.1765843
2.2159303
2.2498479
2.278249
2.3010594
2.3182197
2.3296848
2.3354249
2.3354249
2.3296848
2.3182197
2.3010594
2.278249
2.2498479
2.2159303
2.1765843
2.1319124
2.0820301
2.0270665
1.9671633
1.9024743
1.8331653
1.759413
1.6814051
1.5993391
1.513422
1.4238696
1.3309061
1.2347629
1.1356787
1.0338981
0.92967149
0.82325421
0.71490588
0.60488979
0.49347225
0.38092202
0.26750963
0.15350679
0.039185825
-0.075180958
-0.18932183
-0.30296621
-0.41584524
-0.52769232
-0.6382437
-0.74723896
-0.85442161
-0.95953957
-1.0623457
-1.1625984
-1.2600621
-1.3545074
-1.4457124
-1.5334623
-1.6175505
-1.6977787
-1.7739576
-1.8459073
-1.9134575
-1.9764484
-2.0347307
-2.088166
-2.1366274
-2.1799997
-2.2181795
-2.2510759
-2.2786105
-2.3007175
-2.3173442
-2.3284507
-2.3340107
-2.4133104
-2.4075612
-2.3960766
-2.3788842
-2.3560251
-2.3275543
-2.2935397
-2.254063
-2.2092183
-2.1591129
-2.1038662
-2.0436097
-1.9784869
-1.9086523
-1.8342718
-1.7555213
-1.6725873
-1.5856656
-1.4949612
-1.400688
-1.3030678
-1.2023303
-1.0987123
-0.99245707
-0.88381431
-0.77303913
-0.66039178
-0.546137
-0.43054355
-0.31388362
-0.1964323
-0.078467027
0.039733012
0.15788742
0.27571517
0.39293522
0.50926709
0.62443148
0.73815089
0.85015023
0.9601575
1.0679044
1.173127
1.2755665
1.3749696
1.4710897
1.5636869
1.6525294
1.7373935
1.8180647
1.8943384
1.96602
2.0329261
2.0948849
2.1517366
2.2033342
2.2495438
2.2902452
2.3253322
2.3547131
2.3783109
2.3960637
2.4079249
2.4138633
2.4138633
2.4079249
2.3960637
2.3783109
2.3547131
2.3253322
2.2902452
2.2495438
2.2033342
2.1517366
2.0948849
2.0329261
1.96602
1.8943384
1.8180647
1.7373935
1.6525294
1.5636869
1.4710897
1.3749696
1.2755665
1.173127
1.0679044
0.9601575
0.85015023
0.73815089
0.62443148
0.50926709
0.39293522
0.27571517
0.15788742
0.039733013
-0.078467026
-0.1964323
-0.31388362
-0.43054355
-0.546137
-0.66039178
-0.77303913
-0.88381431
-0.99245707
-1.0987123
-1.2023303
-1.3030678
-1.400688
-1.4949612
-1.5856656
-1.6725873
-1.7555213
-1.8342718
-1.9086523
-1.9784869
-2.0436097
-2.1038662
-2.1591129
-2.2092183
-2.254063
-2.2935397
-2.3275543
-2.3560251
-2.3788842
-2.3960766
-2.4075612
-2.4133104
-2.498471
-2.4925184
-2.4806276
-2.4628272
-2.43916
-2.4096831
-2.3744673
-2.3335971
-2.2871706
-2.235299
-2.1781065
-2.1157295
-2.048317
-1.9760293
-1.8990383
-1.8175267
-1.7316875
-1.6417238
-1.5478479
-1.4502813
-1.3492535
-1.2450024
-1.1377727
-1.0278163
-0.91539119
-0.80076114
-0.6841951
-0.56596665
-0.44635345
-0.3256367
-0.20410055
-0.082031571
0.04028184
0.16255004
0.2844827
0.40578947
0.52618048
0.64536707
0.76306236
0.8789819
0.99284433
1.1043721
1.2132919
1.3193359
1.4222417
1.5217538
1.6176236
1.7096106
1.7974829
1.8810178
1.960003
2.0342363
2.1035274
2.1676976
2.2265808
2.2800242
2.3278886
2.3700488
2.4063943
2.4368299
2.4612752
2.4796659
2.4919534
2.4981053
2.4981053
2.4919534
2.4796659
2.4612752
2.4368299
2.4063944
2.3700488
2.3278886
2.2800242
2.2265808
2.1676976
2.1035274
2.0342363
1.960003
1.8810178
1.7974829
1.7096106
1.6176236
1.5217538
1.4222417
1.3193359
1.2132919
1.1043721
0.99284433
0.8789819
0.76306237
0.64536708
0.52618048
0.40578947
0.28448271
0.16255004
0.040281842
-0.082031569
-0.20410055
-0.3256367
-0.44635345
-0.56596665
-0.6841951
-0.80076114
-0.91539119
-1.0278163
-1.1377727
-1.2450024
-1.3492535
-1.4502813
-1.5478479
-1.6417238
-1.7316875
-1.8175267
-1.8990383
-1.9760293
-2.048317
-2.1157295
-2.1781065
-2.235299
-2.2871706
-2.3335971
-2.3744673
-2.4096831
-2.43916
-2.4628272
-2.4806276
-2.4925184
-2.498471
-2.5897014
-2.5835308
-2.5712044
-2.5527523
-2.5282189
-2.4976635
-2.4611599
-2.4187962
-2.3706744
-2.31691
-2.2576323
-2.1929832
-2.1231174
-2.0482016
-1.9684143
-1.8839451
-1.7949945
-1.701773
-1.6045011
-1.503408
-1.3987321
-1.2907194
-1.1796236
-1.0657053
-0.94923181
-0.83047589
-0.70971581
-0.58723455
-0.46331926
-0.33826072
-0.21235273
-0.085891578
0.040824555
0.16749618
0.29382309
0.41950497
0.54424201
0.66773554
0.78968867
0.90980695
1.027799
1.1433773
1.2562589
1.3661657
1.472826
1.5759743
1.675353
1.7707121
1.8618107
1.9484177
2.0303119
2.1072834
2.1791339
2.2456777
2.3067417
2.3621667
2.4118077
2.4555344
2.4932316
2.5247998
2.5501554
2.5692312
2.5819767
2.5883579
2.5883579
2.5819767
2.5692312
2.5501554
2.5247998
2.4932316
2.4555344
2.4118077
2.3621667
2.3067417
2.2456777
2.1791339
2.1072834
2.0303119
1.9484177
1.8618107
1.7707121
1.675353
1.5759743
1.472826
1.3661657
1.2562589
1.1433774
1.027799
0.90980695
0.78968868
0.66773554
0.54424201
0.41950497
0.29382309
0.16749618
0.040824558
-0.085891576
-0.21235273
-0.33826072
-0.46331926
-0.58723455
-0.7097158
-0.83047588
-0.94923181
-1.0657053
-1.1796236
-1.2907194
-1.3987321
-1.503408
-1.604501
-1.701773
-1.7949945
-1.8839451
-1.9684143
-2.0482016
-2.1231174
-2.1929832
-2.2576323
-2.31691
-2.3706744
-2.4187962
-2.4611599
-2.4976635
-2.5282189
-2.5527523
-2.5712044
-2.5835308
-2.5897014
-2.687226
-2.6808221
-2.6680298
-2.6488803
-2.6234201
-2.5917111
-2.55383
-2.5098688
-2.4599336
-2.404145
-2.3426374
-2.2755588
-2.20307
-2.1253446
-2.0425681
-1.9549378
-1.8626618
-1.7659591
-1.6650584
-1.5601979
-1.4516245
-1.3395937
-1.2243684
-1.1062189
-0.98542174
-0.86225971
-0.7370209
-0.60999827
-0.48148905
-0.35179415
-0.22121762
-0.090066066
0.041351962
0.17272653
0.30374694
0.43410232
0.56348227
0.6915775
0.81808047
0.94268605
1.0650923
1.1850009
1.3021183
1.4161562
1.5268322
1.6338706
1.7370036
1.8359715
1.9305236
2.0204192
2.1054282
2.185332
2.2599239
2.3290102
2.3924106
2.449959
2.501504
2.5469095
2.5860554
2.6188377
2.6451691
2.6649795
2.678216
2.684843
2.684843
2.678216
2.6649795
2.6451691
2.6188377
2.5860554
2.5469095
2.501504
2.449959
2.3924106
2.3290102
2.2599239
2.185332
2.1054282
2.0204192
1.9305236
1.8359715
1.7370036
1.6338706
1.5268322
1.4161562
1.3021183
1.1850009
1.0650923
0.94268606
0.81808047
0.69157751
0.56348228
0.43410232
0.30374694
0.17272653
0.041351965
-0.090066063
-0.22121762
-0.35179414
-0.48148904
-0.60999827
-0.7370209
-0.86225971
-0.98542174
-1.1062189
-1.2243684
-1.3395937
-1.4516245
-1.5601979
-1.6650584
-1.7659591
-1.8626618
-1.9549378
-2.0425681
-2.1253446
-2.20307
-2.2755588
-2.3426374
-2.404145
-2.4599336
-2.5098688
-2.55383
-2.5917111
-2.6234201
-2.6488803
-2.6680298
-2.6808221
-2.687226
-2.7912852
-2.7846321
-2.7713422
-2.751448
-2.724998
-2.6920569
-2.652705
-2.6070379
-2.5551667
-2.4972171
-2.4333293
-2.3636575
-2.2883694
-2.2076458
-2.1216799
-2.0306771
-1.934854
-1.8344382
-1.7296675
-1.6207894
-1.5080606
-1.3917459
-1.2721185