/*--------------------------------*- C++ -*----------------------------------*\
| =========                 |                                                 |
| \\      /  F ield         | OpenFOAM: The Open Source CFD Toolbox           |
|  \\    /   O peration     | Version:  2106                                  |
|   \\  /    A nd           | Website:  www.openfoam.com                      |
|    \\/     M anipulation  |                                                 |
\*---------------------------------------------------------------------------*/
FoamFile
{
    version     2.0;
    format      ascii;
    arch        "LSB;label=32;scalar=64";
    class       surfaceScalarField;
    location    "0.026";
    object      phi_0;
}
// * * * * * * * * * * * * * * * * * * * * * * * * * * * * * * * * * * * * * //

dimensions      [0 3 -1 0 0 0 0];

oriented        oriented;

internalField   nonuniform List<scalar> 
32512
(
-4.9071761e-05
4.9071761e-05
-9.8030356e-05
4.8958594e-05
-0.00014676284
4.8732483e-05
-0.00019515671
4.8393871e-05
-0.00024310013
4.7943424e-05
-0.00029048216
4.7382028e-05
-0.00033719296
4.6710795e-05
-0.00038312401
4.5931054e-05
-0.00042816837
4.504436e-05
-0.00047222086
4.4052488e-05
-0.00051517829
4.2957432e-05
-0.0005569397
4.1761411e-05
-0.00059740656
4.046686e-05
-0.000636483
3.9076434e-05
-0.000674076
3.7593003e-05
-0.00071009566
3.6019656e-05
-0.00074445534
3.4359688e-05
-0.00077707195
3.261661e-05
-0.00080786609
3.0794132e-05
-0.00083676226
2.8896171e-05
-0.00086368909
2.6926835e-05
-0.00088857952
2.4890428e-05
-0.00091137095
2.2791434e-05
-0.00093200547
2.0634518e-05
-0.00095042998
1.8424512e-05
-0.0009665964
1.6166411e-05
-0.00098046176
1.3865361e-05
-0.00099198841
1.1526651e-05
-0.0010011441
9.1557021e-06
-0.0010079022
6.7580486e-06
-0.0010122414
4.3392895e-06
-0.0010141467
1.9052547e-06
-0.0010136085
-5.3816983e-07
-0.0010106233
-2.985264e-06
-0.0010051933
-5.4299947e-06
-0.00099732689
-7.8663821e-06
-0.00098703848
-1.0288413e-05
-0.00097434841
-1.2690069e-05
-0.00095928307
-1.5065339e-05
-0.00094187483
-1.7408237e-05
-0.00092216201
-1.9712819e-05
-0.00090018882
-2.1973197e-05
-0.00087600526
-2.4183559e-05
-0.00084966707
-2.6338187e-05
-0.0008212356
-2.8431472e-05
-0.00079077767
-3.045793e-05
-0.00075836545
-3.2412223e-05
-0.00072407627
-3.4289175e-05
-0.00068799249
-3.6083786e-05
-0.00065020123
-3.7791252e-05
-0.00061079425
-3.9406979e-05
-0.00056986765
-4.09266e-05
-0.00052752167
-4.2345989e-05
-0.00048386039
-4.3661276e-05
-0.00043899153
-4.4868861e-05
-0.0003930261
-4.5965427e-05
-0.00034607815
-4.6947952e-05
-0.00029826443
-4.7813721e-05
-0.00024970409
-4.8560335e-05
-0.00020051838
-4.9185718e-05
-0.00015083024
-4.9688132e-05
-0.00010076407
-5.0066175e-05
-5.0445277e-05
-5.0318792e-05
2.4976536e-13
-5.0445277e-05
5.0445277e-05
-5.0445277e-05
0.00010076407
-5.0318792e-05
0.00015083024
-5.0066175e-05
0.00020051838
-4.9688132e-05
0.00024970409
-4.9185718e-05
0.00029826443
-4.8560335e-05
0.00034607815
-4.7813721e-05
0.0003930261
-4.6947952e-05
0.00043899153
-4.5965427e-05
0.00048386039
-4.4868861e-05
0.00052752167
-4.3661276e-05
0.00056986765
-4.2345989e-05
0.00061079425
-4.09266e-05
0.00065020123
-3.9406979e-05
0.00068799249
-3.7791252e-05
0.00072407627
-3.6083786e-05
0.00075836545
-3.4289175e-05
0.00079077767
-3.2412223e-05
0.0008212356
-3.045793e-05
0.00084966707
-2.8431472e-05
0.00087600526
-2.6338187e-05
0.00090018882
-2.4183559e-05
0.00092216201
-2.1973197e-05
0.00094187483
-1.9712819e-05
0.00095928307
-1.7408237e-05
0.00097434841
-1.5065339e-05
0.00098703848
-1.2690069e-05
0.00099732689
-1.0288413e-05
0.0010051933
-7.8663821e-06
0.0010106233
-5.4299946e-06
0.0010136085
-2.985264e-06
0.0010141467
-5.381698e-07
0.0010122414
1.9052547e-06
0.0010079022
4.3392896e-06
0.0010011441
6.7580486e-06
0.00099198841
9.1557022e-06
0.00098046176
1.1526651e-05
0.0009665964
1.3865361e-05
0.00095042998
1.6166411e-05
0.00093200547
1.8424512e-05
0.00091137095
2.0634518e-05
0.00088857952
2.2791434e-05
0.00086368909
2.4890428e-05
0.00083676226
2.6926835e-05
0.00080786609
2.8896171e-05
0.00077707195
3.0794132e-05
0.00074445534
3.261661e-05
0.00071009566
3.4359689e-05
0.000674076
3.6019656e-05
0.000636483
3.7593003e-05
0.00059740656
3.9076434e-05
0.0005569397
4.046686e-05
0.00051517829
4.1761411e-05
0.00047222086
4.2957432e-05
0.00042816837
4.4052488e-05
0.00038312401
4.504436e-05
0.00033719296
4.5931054e-05
0.00029048216
4.6710795e-05
0.00024310013
4.7382028e-05
0.00019515671
4.7943424e-05
0.00014676284
4.8393871e-05
9.8030355e-05
4.8732483e-05
4.9071761e-05
4.8958594e-05
4.9071761e-05
-4.9186408e-05
9.8258169e-05
-9.825941e-05
9.8031597e-05
-0.00014710582
9.7578897e-05
-0.00019561291
9.6900957e-05
-0.00024366859
9.5999108e-05
-0.00029116169
9.4875127e-05
-0.00033798213
9.3531232e-05
-0.00038402116
9.1970088e-05
-0.00042917161
9.0194804e-05
-0.00047332805
8.8208929e-05
-0.00051638707
8.6016458e-05
-0.00055824749
8.3621827e-05
-0.00059881054
8.1029911e-05
-0.00063798013
7.8246023e-05
-0.00067566304
7.5275908e-05
-0.00071176912
7.2125743e-05
-0.00074621157
6.8802131e-05
-0.00077890705
6.531209e-05
-0.00080977597
6.1663054e-05
-0.00083874266
5.7862858e-05
-0.00086573555
5.3919731e-05
-0.0008906874
4.9842282e-05
-0.00091353546
4.5639493e-05
-0.00093422164
4.13207e-05
-0.00095269271
3.6895578e-05
-0.00096890043
3.2374127e-05
-0.00098280172
2.7766651e-05
-0.0009943588
2.3083738e-05
-0.0010035393
1.8336238e-05
-0.0010103165
1.3535237e-05
-0.0010146693
8.6920262e-06
-0.0010165822
3.818159e-06
-0.0010160457
-1.0746731e-06
-0.0010130562
-5.9747504e-06
-0.001007616
-1.0870141e-05
-0.00099973356
-1.574885e-05
-0.00098942314
-2.0598839e-05
-0.00097670515
-2.5408054e-05
-0.00096160604
-3.0164457e-05
-0.00094415821
-3.4856062e-05
-0.00092440007
-3.9470961e-05
-0.0009023759
-4.3997365e-05
-0.00087813582
-4.8423636e-05
-0.00085173569
-5.273832e-05
-0.00082323698
-5.6930181e-05
-0.00079270667
-6.0988241e-05
-0.00076021709
-6.4901806e-05
-0.00072584575
-6.8660508e-05
-0.00068967521
-7.2254333e-05
-0.0006517928
-7.567366e-05
-0.00061229049
-7.8909286e-05
-0.00057126463
-8.1952463e-05
-0.00052881569
-8.4794927e-05
-0.00048504804
-8.7428926e-05
-0.00044006965
-8.9847249e-05
-0.00039399183
-9.2043252e-05
-0.0003469289
-9.4010879e-05
-0.00029899793
-9.5744692e-05
-0.00025031838
-9.7239884e-05
-0.0002010118
-9.84923e-05
-0.00015120148
-9.9498453e-05
-0.00010101211
-0.00010025554
-5.0569467e-05
-0.00010076144
2.5007272e-13
-0.00010101474
5.0569467e-05
-0.00010101474
0.00010101211
-0.00010076144
0.00015120148
-0.00010025554
0.0002010118
-9.9498453e-05
0.00025031838
-9.84923e-05
0.00029899793
-9.7239884e-05
0.0003469289
-9.5744692e-05
0.00039399183
-9.4010879e-05
0.00044006965
-9.2043252e-05
0.00048504804
-8.9847249e-05
0.00052881569
-8.7428926e-05
0.00057126463
-8.4794927e-05
0.00061229049
-8.1952463e-05
0.0006517928
-7.8909286e-05
0.00068967521
-7.567366e-05
0.00072584576
-7.2254333e-05
0.00076021709
-6.8660508e-05
0.00079270667
-6.4901806e-05
0.00082323698
-6.0988241e-05
0.00085173569
-5.6930181e-05
0.00087813582
-5.273832e-05
0.0009023759
-4.8423636e-05
0.00092440007
-4.3997365e-05
0.00094415821
-3.9470961e-05
0.00096160604
-3.4856062e-05
0.00097670515
-3.0164457e-05
0.00098942314
-2.5408054e-05
0.00099973357
-2.0598839e-05
0.001007616
-1.574885e-05
0.0010130562
-1.0870141e-05
0.0010160457
-5.9747504e-06
0.0010165822
-1.0746731e-06
0.0010146693
3.818159e-06
0.0010103165
8.6920262e-06
0.0010035393
1.3535237e-05
0.0009943588
1.8336238e-05
0.00098280172
2.3083738e-05
0.00096890043
2.7766651e-05
0.00095269271
3.2374127e-05
0.00093422164
3.6895578e-05
0.00091353546
4.13207e-05
0.0008906874
4.5639493e-05
0.00086573555
4.9842282e-05
0.00083874266
5.3919731e-05
0.00080977597
5.7862858e-05
0.00077890705
6.1663055e-05
0.00074621157
6.531209e-05
0.00071176912
6.8802131e-05
0.00067566304
7.2125743e-05
0.00063798013
7.5275908e-05
0.00059881054
7.8246023e-05
0.00055824749
8.1029911e-05
0.00051638707
8.3621827e-05
0.00047332805
8.6016458e-05
0.00042917161
8.8208929e-05
0.00038402116
9.0194804e-05
0.00033798213
9.1970088e-05
0.00029116169
9.3531232e-05
0.00024366859
9.4875127e-05
0.00019561291
9.5999108e-05
0.00014710582
9.6900957e-05
9.825941e-05
9.7578897e-05
4.9186407e-05
9.8031597e-05
9.8258169e-05
-4.935994e-05
0.00014761811
-9.8606107e-05
0.00014727776
-0.00014762495
0.00014659774
-0.00019630336
0.00014557937
-0.0002445289
0.00014422465
-0.00029219002
0.00014253625
-0.00033917629
0.00014051749
-0.00038537859
0.00013817239
-0.00043068938
0.00013550559
-0.00047500289
0.00013252244
-0.00051821536
0.00012922893
-0.00056022525
0.00012563172
-0.00060093346
0.00012173812
-0.00064024355
0.00011755611
-0.00067806197
0.00011309433
-0.00071429826
0.00010836203
-0.00074886527
0.00010336915
-0.00078167939
9.8126209e-05
-0.00081266072
9.2644382e-05
-0.00084173329
8.6935431e-05
-0.00086882528
8.1011716e-05
-0.00089386917
7.4886169e-05
-0.00091680195
6.8572279e-05
-0.00093756532
6.2084068e-05
-0.00095610581
5.5436073e-05
-0.000972375
4.8643312e-05
-0.00098632961
4.1721264e-05
-0.00099793171
3.4685835e-05
-0.0010071488
2.7553327e-05
-0.001013954
2.0340399e-05
-0.001018326
1.3064041e-05
-0.0010202494
5.7415543e-06
-0.0010197145
-1.6095226e-06
-0.0010167178
-8.9714918e-06
-0.0010112615
-1.6326458e-05
-0.0010033539
-2.3656404e-05
-0.0009930095
-3.0943244e-05
-0.00098024869
-3.8168865e-05
-0.00096509797
-4.5315181e-05
-0.00094758985
-5.2364178e-05
-0.00092776284
-5.9297969e-05
-0.00090566137
-6.6098836e-05
-0.00088133572
-7.2749291e-05
-0.00085484192
-7.9232121e-05
-0.00082624165
-8.5530446e-05
-0.00079560213
-9.1627764e-05
-0.00076299593
-9.7508007e-05
-0.00072850084
-0.00010315559
-0.0006921997
-0.00010855548
-0.00065418017
-0.00011369319
-0.00061453455
-0.00011855491
-0.00057335953
-0.00012312748
-0.00053075597
-0.00012739849
-0.00048682861
-0.00013135628
-0.00044168585
-0.00013499001
-0.00039543939
-0.00013828971
-0.00034820402
-0.00014124625
-0.00030009723
-0.00014385148
-0.00025123896
-0.00014609816
-0.00020175121
-0.00014798005
-0.00015175776
-0.0001494919
-0.0001013838
-0.00015062951
-5.0755555e-05
-0.00015138968
2.5045102e-13
-0.0001517703
5.0755556e-05
-0.0001517703
0.0001013838
-0.00015138968
0.00015175776
-0.00015062951
0.00020175121
-0.0001494919
0.00025123896
-0.00014798005
0.00030009723
-0.00014609816
0.00034820402
-0.00014385148
0.00039543939
-0.00014124625
0.00044168585
-0.00013828971
0.00048682861
-0.00013499001
0.00053075597
-0.00013135628
0.00057335953
-0.00012739849
0.00061453455
-0.00012312748
0.00065418017
-0.00011855491
0.0006921997
-0.00011369319
0.00072850084
-0.00010855548
0.00076299593
-0.00010315559
0.00079560213
-9.7508007e-05
0.00082624165
-9.1627764e-05
0.00085484192
-8.5530446e-05
0.00088133572
-7.9232121e-05
0.00090566137
-7.274929e-05
0.00092776285
-6.6098836e-05
0.00094758985
-5.9297969e-05
0.00096509797
-5.2364178e-05
0.00098024869
-4.5315181e-05
0.0009930095
-3.8168865e-05
0.0010033539
-3.0943244e-05
0.0010112615
-2.3656404e-05
0.0010167178
-1.6326458e-05
0.0010197145
-8.9714917e-06
0.0010202494
-1.6095226e-06
0.001018326
5.7415544e-06
0.001013954
1.3064041e-05
0.0010071488
2.0340399e-05
0.00099793171
2.7553327e-05
0.00098632961
3.4685835e-05
0.000972375
4.1721264e-05
0.00095610581
4.8643312e-05
0.00093756532
5.5436073e-05
0.00091680195
6.2084069e-05
0.00089386916
6.8572279e-05
0.00086882528
7.4886169e-05
0.00084173329
8.1011716e-05
0.00081266072
8.6935431e-05
0.00078167939
9.2644382e-05
0.00074886527
9.8126209e-05
0.00071429826
0.00010336915
0.00067806197
0.00010836203
0.00064024355
0.00011309433
0.00060093346
0.00011755611
0.00056022525
0.00012173812
0.00051821536
0.00012563172
0.00047500289
0.00012922893
0.00043068938
0.00013252244
0.00038537858
0.00013550559
0.00033917629
0.00013817239
0.00029219002
0.00014051749
0.0002445289
0.00014253625
0.00019630336
0.00014422465
0.00014762495
0.00014557937
9.8606107e-05
0.00014659774
4.935994e-05
0.00014727776
0.00014761811
-4.9593255e-05
0.00019721136
-9.9072238e-05
0.00019675675
-0.0001483229
0.0001958484
-0.00019723163
0.0001944881
-0.0002456855
0.00019267852
-0.00029357247
0.00019042321
-0.0003407816
0.00018772662
-0.0003872033
0.00018459409
-0.00043272953
0.00018103183
-0.00047725406
0.00017704697
-0.00052067263
0.00017264751
-0.00056288324
0.00016784233
-0.00060378632
0.0001626412
-0.00064328499
0.00015705478
-0.00068128524
0.00015109457
-0.00071769617
0.00014477297
-0.00075243023
0.00013810321
-0.00078540338
0.00013109935
-0.00081653531
0.00012377632
-0.00084574969
0.00011614981
-0.00087297431
0.00010823634
-0.00089814132
0.00010005318
-0.00092118738
9.1618335e-05
-0.00094205386
8.2950548e-05
-0.00096068701
7.406923e-05
-0.00097703814
6.4994443e-05
-0.00099106375
5.5746865e-05
-0.0010027257
4.6347745e-05
-0.0010119912
3.681886e-05
-0.0010188333
2.7182474e-05
-0.0010232305
1.7461286e-05
-0.0010251673
7.6783922e-06
-0.0010246341
-2.1427869e-06
-0.001021627
-1.1978574e-05
-0.0010161484
-2.1805065e-05
-0.0010082066
-3.1598189e-05
-0.00099781607
-4.1333782e-05
-0.00098499729
-5.0987645e-05
-0.00096977686
-6.0535613e-05
-0.00095218742
-6.9953616e-05
-0.00093226764
-7.9217751e-05
-0.00091006213
-8.8304346e-05
-0.00088562139
-9.719003e-05
-0.00085900171
-0.00010585181
-0.00083026504
-0.00011426711
-0.00079947891
-0.0001224139
-0.00076671622
-0.00013027069
-0.00073205514
-0.00013781667
-0.0006955789
-0.00014503172
-0.00065737557
-0.00015189652
-0.00061753791
-0.00015839257
-0.00057616307
-0.00016450232
-0.00053335242
-0.00017020914
-0.00048921122
-0.00017549748
-0.00044384838
-0.00018035285
-0.00039737621
-0.00018476188
-0.00034991003
-0.00018871243
-0.00030156797
-0.00019219354
-0.00025247054
-0.00019519558
-0.0002027404
-0.00019771019
-0.00015250195
-0.00019973035
-0.00010188102
-0.00020125044
-5.1004494e-05
-0.0002022662
2.5092609e-13
-0.00020277479
5.1004495e-05
-0.00020277479
0.00010188102
-0.0002022662
0.00015250195
-0.00020125044
0.0002027404
-0.00019973035
0.00025247054
-0.00019771019
0.00030156797
-0.00019519558
0.00034991003
-0.00019219354
0.00039737621
-0.00018871243
0.00044384838
-0.00018476188
0.00048921122
-0.00018035285
0.00053335242
-0.00017549748
0.00057616308
-0.00017020914
0.00061753791
-0.00016450232
0.00065737557
-0.00015839257
0.0006955789
-0.00015189652
0.00073205515
-0.00014503172
0.00076671622
-0.00013781667
0.00079947891
-0.00013027069
0.00083026504
-0.0001224139
0.00085900171
-0.00011426711
0.00088562139
-0.00010585181
0.00091006213
-9.719003e-05
0.00093226764
-8.8304345e-05
0.00095218742
-7.9217751e-05
0.00096977686
-6.9953616e-05
0.00098499729
-6.0535613e-05
0.00099781607
-5.0987645e-05
0.0010082066
-4.1333782e-05
0.0010161484
-3.1598189e-05
0.001021627
-2.1805064e-05
0.0010246341
-1.1978574e-05
0.0010251673
-2.1427868e-06
0.0010232305
7.6783923e-06
0.0010188333
1.7461286e-05
0.0010119912
2.7182474e-05
0.0010027257
3.681886e-05
0.00099106375
4.6347745e-05
0.00097703814
5.5746865e-05
0.00096068701
6.4994443e-05
0.00094205386
7.406923e-05
0.00092118738
8.2950548e-05
0.00089814132
9.1618335e-05
0.00087297431
0.00010005318
0.00084574969
0.00010823634
0.00081653531
0.00011614981
0.00078540338
0.00012377632
0.00075243023
0.00013109935
0.00071769617
0.00013810321
0.00068128524
0.00014477297
0.00064328499
0.00015109457
0.00060378632
0.00015705478
0.00056288324
0.0001626412
0.00052067263
0.00016784233
0.00047725406
0.00017264751
0.00043272953
0.00017704697
0.0003872033
0.00018103183
0.0003407816
0.00018459409
0.00029357247
0.00018772662
0.0002456855
0.00019042321
0.00019723163
0.00019267852
0.0001483229
0.0001944881
9.9072237e-05
0.0001958484
4.9593255e-05
0.00019675675
0.00019721136
-4.9887417e-05
0.00024709878
-9.9659929e-05
0.00024652926
-0.00014920286
0.00024539133
-0.00019840196
0.00024368721
-0.00024714368
0.00024142024
-0.00029531534
0.00023859488
-0.0003428054
0.00023521668
-0.00038950363
0.00023129232
-0.00043530139
0.00022682959
-0.00048009183
0.00022183741
-0.0005237701
0.00021632577
-0.00056623359
0.00021030582
-0.00060738217
0.00020378977
-0.00064711835
0.00019679096
-0.00068534758
0.0001893238
-0.00072197841
0.00018140381
-0.00075692275
0.00017304754
-0.00079009603
0.00016427263
-0.00082141746
0.00015509774
-0.00085081021
0.00014554256
-0.00087820161
0.00013562775
-0.00090352338
0.00012537494
-0.00092671176
0.00011480671
-0.00094770773
0.00010394652
-0.00096645719
9.281869e-05
-0.0009829111
8.1448356e-05
-0.00099702566
6.9861424e-05
-0.0010087624
5.8084518e-05
-0.0010180885
4.6144925e-05
-0.0010249766
3.4070541e-05
-0.0010294051
2.188981e-05
-0.0010313584
9.6316634e-06
-0.0010308266
-2.6745558e-06
-0.001027806
-1.4999167e-05
-0.0010222989
-2.7312212e-05
-0.0010143135
-3.9583532e-05
-0.0010038644
-5.1782846e-05
-0.00099097226
-6.3879831e-05
-0.00097566367
-7.5844202e-05
-0.00095797149
-8.7645797e-05
-0.00093793458
-9.925466e-05
-0.0009155978
-0.00011064113
-0.00089101193
-0.0001217759
-0.00086423356
-0.00013263017
-0.00083532502
-0.00014317565
-0.0008043542
-0.00015338471
-0.00077139446
-0.00016323044
-0.0007365244
-0.00017268673
-0.00069982775
-0.00018172837
-0.00066139313
-0.00019033114
-0.00062131384
-0.00019847186
-0.00057968764
-0.00020612852
-0.0005366165
-0.00021328028
-0.00049220635
-0.00021990764
-0.00044656678
-0.00022599241
-0.00039981079
-0.00023151788
-0.00035205444
-0.00023646877
-0.0003034166
-0.00024083139
-0.00025401855
-0.00024459363
-0.00020398372
-0.00024774502
-0.00015343731
-0.00025027676
-0.00010250596
-0.00025218179
-5.1317377e-05
-0.00025345478
2.5149121e-13
-0.00025409217
5.1317378e-05
-0.00025409217
0.00010250596
-0.00025345478
0.00015343731
-0.00025218179
0.00020398372
-0.00025027676
0.00025401855
-0.00024774502
0.0003034166
-0.00024459363
0.00035205445
-0.00024083139
0.00039981079
-0.00023646877
0.00044656678
-0.00023151788
0.00049220635
-0.00022599241
0.0005366165
-0.00021990764
0.00057968764
-0.00021328028
0.00062131384
-0.00020612852
0.00066139313
-0.00019847186
0.00069982775
-0.00019033114
0.0007365244
-0.00018172837
0.00077139446
-0.00017268673
0.0008043542
-0.00016323044
0.00083532502
-0.00015338471
0.00086423356
-0.00014317565
0.00089101193
-0.00013263017
0.0009155978
-0.0001217759
0.00093793458
-0.00011064112
0.00095797149
-9.925466e-05
0.00097566367
-8.7645797e-05
0.00099097226
-7.5844202e-05
0.0010038644
-6.3879831e-05
0.0010143135
-5.1782846e-05
0.0010222989
-3.9583532e-05
0.001027806
-2.7312212e-05
0.0010308266
-1.4999167e-05
0.0010313584
-2.6745557e-06
0.0010294051
9.6316635e-06
0.0010249766
2.188981e-05
0.0010180885
3.4070541e-05
0.0010087624
4.6144925e-05
0.00099702566
5.8084518e-05
0.0009829111
6.9861424e-05
0.00096645719
8.1448356e-05
0.00094770773
9.281869e-05
0.00092671176
0.00010394652
0.00090352338
0.00011480671
0.00087820161
0.00012537494
0.00085081021
0.00013562775
0.00082141746
0.00014554256
0.00079009603
0.00015509775
0.00075692275
0.00016427263
0.00072197841
0.00017304754
0.00068534758
0.00018140381
0.00064711835
0.0001893238
0.00060738216
0.00019679096
0.00056623359
0.00020378977
0.0005237701
0.00021030582
0.00048009183
0.00021632577
0.00043530139
0.00022183741
0.00038950363
0.00022682959
0.0003428054
0.00023129232
0.00029531534
0.00023521668
0.00024714368
0.00023859488
0.00019840196
0.00024142024
0.00014920285
0.00024368721
9.9659929e-05
0.00024539133
4.9887417e-05
0.00024652926
0.00024709878
-5.0243665e-05
0.00029734245
-0.00010037166
0.00029665725
-0.00015026853
0.0002952882
-0.00019981928
0.00029323796
-0.00024890958
0.00029051054
-0.00029742599
0.00028711129
-0.00034525622
0.0002830469
-0.00039228929
0.00027832539
-0.00043841581
0.00027295611
-0.00048352818
0.00026694978
-0.00052752084
0.00026031843
-0.00057029045
0.00025307543
-0.00061173615
0.00024523548
-0.00065175979
0.0002368146
-0.00069026612
0.00022783013
-0.00072716302
0.00021830071
-0.00076236175
0.00020824627
-0.00079577712
0.000197688
-0.00082732772
0.00018664835
-0.00085693614
0.00017515098
-0.00088452917
0.00016322077
-0.00091003797
0.00015088374
-0.0009333983
0.00013816704
-0.00095455067
0.00012509889
-0.00097344054
0.00011170856
-0.00099001847
9.8026289e-05
-0.0010042403
8.4083251e-05
-0.0010160673
6.9911483e-05
-0.0010254662
5.554382e-05
-0.0010324094
4.1013832e-05
-0.0010368754
2.6355749e-05
-0.0010388481
1.1604383e-05
-0.0010383177
-3.2049557e-06
-0.0010352803
-1.8036541e-05
-0.0010297382
-3.2854319e-05
-0.0010216998
-4.7621993e-05
-0.0010111795
-6.2303121e-05
-0.00099819811
-7.6861207e-05
-0.00098278251
-9.1259805e-05
-0.0009649657
-0.00010546261
-0.00094478678
-0.00011943357
-0.00092229093
-0.00013313698
-0.00089752924
-0.00014653759
-0.00087055871
-0.0001596007
-0.00084144208
-0.00017229228
-0.00081024773
-0.00018457906
-0.00077704952
-0.00019642865
-0.00074192662
-0.00020780962
-0.00070496336
-0.00021869163
-0.00066624899
-0.00022904551
-0.00062587749
-0.00023884336
-0.00058394735
-0.00024805866
-0.00054056128
-0.00025666635
-0.000495826
-0.00026464292
-0.00044985191
-0.00027196649
-0.00040275287
-0.00027861692
-0.00035464581
-0.00028457583
-0.00030565049
-0.00028982671
-0.00025588914
-0.00029435499
-0.00020548611
-0.00029814805
-0.00015456756
-0.0003011953
-0.00010326111
-0.00030348824
-5.169545e-05
-0.00030502045
2.5216538e-13
-0.00030578762
5.1695451e-05
-0.00030578762
0.00010326111
-0.00030502045
0.00015456756
-0.00030348824
0.00020548611
-0.0003011953
0.00025588914
-0.00029814805
0.00030565049
-0.00029435499
0.00035464581
-0.00028982671
0.00040275287
-0.00028457583
0.00044985192
-0.00027861692
0.000495826
-0.00027196649
0.00054056128
-0.00026464292
0.00058394735
-0.00025666635
0.00062587749
-0.00024805866
0.00066624899
-0.00023884336
0.00070496336
-0.00022904551
0.00074192662
-0.00021869163
0.00077704952
-0.00020780962
0.00081024773
-0.00019642865
0.00084144208
-0.00018457906
0.00087055871
-0.00017229228
0.00089752924
-0.0001596007
0.00092229093
-0.00014653759
0.00094478678
-0.00013313698
0.0009649657
-0.00011943357
0.00098278251
-0.00010546261
0.00099819811
-9.1259804e-05
0.0010111795
-7.6861207e-05
0.0010216998
-6.230312e-05
0.0010297382
-4.7621993e-05
0.0010352803
-3.2854319e-05
0.0010383177
-1.8036541e-05
0.0010388481
-3.2049556e-06
0.0010368754
1.1604383e-05
0.0010324094
2.6355749e-05
0.0010254662
4.1013832e-05
0.0010160673
5.554382e-05
0.0010042403
6.9911483e-05
0.00099001847
8.4083252e-05
0.00097344054
9.8026289e-05
0.00095455067
0.00011170856
0.0009333983
0.00012509889
0.00091003797
0.00013816704
0.00088452917
0.00015088374
0.00085693614
0.00016322077
0.00082732772
0.00017515098
0.00079577712
0.00018664835
0.00076236175
0.000197688
0.00072716302
0.00020824627
0.00069026612
0.00021830071
0.00065175979
0.00022783013
0.00061173615
0.0002368146
0.00057029045
0.00024523548
0.00052752084
0.00025307543
0.00048352818
0.00026031843
0.00043841581
0.00026694978
0.00039228929
0.00027295611
0.00034525622
0.00027832539
0.00029742599
0.0002830469
0.00024890958
0.00028711129
0.00019981928
0.00029051054
0.00015026853
0.00029323796
0.00010037166
0.0002952882
5.0243665e-05
0.00029665725
0.00029734245
-5.0663431e-05
0.00034800588
-0.00010121028
0.0003472041
-0.0001515242
0.00034560211
-0.00020148928
0.00034320304
-0.00025099029
0.00034001155
-0.0002999129
0.0003360339
-0.0003481439
0.00033127791
-0.00039557146
0.00032575294
-0.00044208529
0.00031946994
-0.00048757692
0.00031244141
-0.00053193992
0.00030468143
-0.0005750701
0.00029620562
-0.00061686579
0.00028703116
-0.00065722798
0.00027717679
-0.00069606063
0.00026666278
-0.00073327083
0.00025551092
-0.00076876908
0.00024374451
-0.00080246944
0.00023138836
-0.0008342898
0.0002184687
-0.00086415205
0.00020501324
-0.00089198233
0.00019105105
-0.00091771117
0.00017661258
-0.00094127374
0.00016172961
-0.00096261
0.00014643516
-0.00098166491
0.00013076347
-0.00099838856
0.00011474994
-0.0010127363
9.8431041e-05
-0.0010246691
8.184428e-05
-0.0010341534
6.5028084e-05
-0.0010411613
4.8021746e-05
-0.0010456709
3.086533e-05
-0.0010476661
1.359958e-05
-0.0010471369
-3.73417e-06
-0.0010440793
-2.1094102e-05
-0.0010384956
-3.843801e-05
-0.0010303942
-5.5723407e-05
-0.0010197897
-7.2907635e-05
-0.0010067029
-8.9947975e-05
-0.00099116098
-0.00010680176
-0.0009731971
-0.0001234265
-0.0009528507
-0.00013977998
-0.00093016728
-0.0001558204
-0.00090519836
-0.00017150651
-0.00087800139
-0.00018679767
-0.00084863962
-0.00020165405
-0.00081718198
-0.0002160367
-0.00078370294
-0.00022990769
-0.00074828235
-0.00024323022
-0.00071100521
-0.00025596877
-0.00067196155
-0.00026808917
-0.00063124614
-0.00027955877
-0.0005889583
-0.0002903465
-0.00054520164
-0.00030042301
-0.0005000838
-0.00030976076
-0.00045371614
-0.00031833415
-0.00040621351
-0.00032611955
-0.00035769387
-0.00033309546
-0.00030827805
-0.00033924254
-0.00025808933
-0.0003445437
-0.00020725321
-0.00034898417
-0.00015589695
-0.00035255156
-0.00010414931
-0.00035523588
-5.214013e-05
-0.00035702962
2.529458e-13
-0.00035792775
5.214013e-05
-0.00035792775
0.00010414931
-0.00035702962
0.00015589695
-0.00035523588
0.00020725321
-0.00035255156
0.00025808933
-0.00034898417
0.00030827805
-0.0003445437
0.00035769387
-0.00033924254
0.00040621351
-0.00033309546
0.00045371614
-0.00032611955
0.0005000838
-0.00031833415
0.00054520164
-0.00030976076
0.0005889583
-0.00030042301
0.00063124614
-0.0002903465
0.00067196155
-0.00027955877
0.00071100521
-0.00026808917
0.00074828235
-0.00025596877
0.00078370294
-0.00024323022
0.00081718198
-0.00022990769
0.00084863962
-0.0002160367
0.00087800139
-0.00020165405
0.00090519836
-0.00018679767
0.00093016728
-0.00017150651
0.0009528507
-0.0001558204
0.0009731971
-0.00013977998
0.00099116098
-0.0001234265
0.0010067029
-0.00010680176
0.0010197897
-8.9947975e-05
0.0010303942
-7.2907635e-05
0.0010384956
-5.5723407e-05
0.0010440793
-3.8438009e-05
0.0010471369
-2.1094102e-05
0.0010476661
-3.7341698e-06
0.0010456709
1.359958e-05
0.0010411613
3.086533e-05
0.0010341534
4.8021747e-05
0.0010246691
6.5028085e-05
0.0010127363
8.184428e-05
0.00099838856
9.8431041e-05
0.00098166491
0.00011474994
0.00096261
0.00013076347
0.00094127374
0.00014643516
0.00091771117
0.00016172961
0.00089198233
0.00017661258
0.00086415205
0.00019105105
0.0008342898
0.00020501324
0.00080246944
0.0002184687
0.00076876908
0.00023138836
0.00073327083
0.00024374452
0.00069606063
0.00025551092
0.00065722798
0.00026666278
0.00061686579
0.00027717679
0.0005750701
0.00028703116
0.00053193992
0.00029620562
0.00048757692
0.00030468143
0.00044208529
0.00031244141
0.00039557146
0.00031946994
0.0003481439
0.00032575294
0.0002999129
0.00033127791
0.00025099029
0.0003360339
0.00020148928
0.00034001155
0.0001515242
0.00034320304
0.00010121028
0.00034560211
5.0663431e-05
0.0003472041
0.00034800588
-5.1148374e-05
0.00039915425
-0.00010217912
0.00039823485
-0.00015297483
0.00039639783
-0.00020341856
0.00039364677
-0.00025339404
0.00038998702
-0.00030278589
0.00038542575
-0.00035147988
0.0003799719
-0.00039936313
0.00037363619
-0.00044632434
0.00036643116
-0.00049225405
0.00035837112
-0.00053704481
0.00034947219
-0.00058059146
0.00033975227
-0.00062279135
0.00032923104
-0.00066354452
0.00031792996
-0.00070275399
0.00030587225
-0.00074032597
0.00029308289
-0.00077617004
0.00027958859
-0.00081019942
0.00026541774
-0.00084233117
0.00025060045
-0.00087248638
0.00023516845
-0.00090059044
0.0002191551
-0.00092657315
0.0002025953
-0.00095036902
0.00018552547
-0.00097191736
0.0001679835
-0.00099116254
0.00015000865
-0.0010080541
0.00013164151
-0.001022547
0.00011292392
-0.0010346016
9.3898901e-05
-0.0010441841
7.4610523e-05
-0.0010512662
5.5103861e-05
-0.0010558257
3.5424871e-05
-0.0010578464
1.5620293e-05
-0.0010573181
-4.26246e-06
-0.0010542368
-2.4175414e-05
-0.0010486047
-4.4070153e-05
-0.0010404301
-6.3897938e-05
-0.0010297279
-8.360983e-05
-0.0010165191
-0.00010315682
-0.0010008309
-0.00012248998
-0.00098269685
-0.00014156053
-0.00096215675
-0.00016032008
-0.0009392565
-0.00017872065
-0.00091404808
-0.00019671492
-0.00088658948
-0.00021425628
-0.00085694452
-0.00023129901
-0.0008251828
-0.00024779842
-0.00079137948
-0.00026371101
-0.00075561516
-0.00027899454
-0.00071797568
-0.00029360825
-0.00067855191
-0.00030751294
-0.00063743957
-0.00032067111
-0.00059473894
-0.00033304713
-0.00055055464
-0.0003446073
-0.00050499538
-0.00035532003
-0.00045817363
-0.0003651559
-0.00041020538
-0.00037408781
-0.00036120978
-0.00038209106
-0.00031130886
-0.00038914346
-0.00026062718
-0.00039522539
-0.00020929147
-0.00040031988
-0.00015743032
-0.00040441271
-0.00010517378
-0.00040749242
-5.2653038e-05
-0.00040955037
2.5379847e-13
-0.00041058079
5.2653039e-05
-0.00041058079
0.00010517378
-0.00040955037
0.00015743032
-0.00040749242
0.00020929147
-0.00040441271
0.00026062718
-0.00040031988
0.00031130886
-0.00039522539
0.00036120978
-0.00038914346
0.00041020538
-0.00038209106
0.00045817363
-0.00037408781
0.00050499538
-0.0003651559
0.00055055464
-0.00035532003
0.00059473894
-0.0003446073
0.00063743957
-0.00033304713
0.00067855192
-0.00032067111
0.00071797568
-0.00030751294
0.00075561516
-0.00029360825
0.00079137948
-0.00027899454
0.0008251828
-0.00026371101
0.00085694452
-0.00024779842
0.00088658948
-0.00023129901
0.00091404808
-0.00021425628
0.0009392565
-0.00019671492
0.00096215675
-0.00017872065
0.00098269685
-0.00016032008
0.0010008309
-0.00014156053
0.0010165191
-0.00012248998
0.0010297279
-0.00010315682
0.0010404301
-8.360983e-05
0.0010486047
-6.3897938e-05
0.0010542368
-4.4070153e-05
0.0010573181
-2.4175414e-05
0.0010578464
-4.2624598e-06
0.0010558257
1.5620293e-05
0.0010512662
3.5424871e-05
0.0010441841
5.5103861e-05
0.0010346016
7.4610523e-05
0.001022547
9.3898901e-05
0.0010080541
0.00011292392
0.00099116254
0.00013164151
0.00097191736
0.00015000865
0.00095036902
0.0001679835
0.00092657315
0.00018552547
0.00090059044
0.0002025953
0.00087248638
0.0002191551
0.00084233117
0.00023516845
0.00081019942
0.00025060045
0.00077617004
0.00026541774
0.00074032597
0.00027958859
0.00070275399
0.00029308289
0.00066354452
0.00030587225
0.00062279134
0.00031792996
0.00058059146
0.00032923104
0.00053704481
0.00033975227
0.00049225405
0.00034947219
0.00044632434
0.00035837112
0.00039936313
0.00036643116
0.00035147988
0.00037363619
0.00030278589
0.0003799719
0.00025339404
0.00038542575
0.00020341856