/*--------------------------------*- C++ -*----------------------------------*\
| =========                 |                                                 |
| \\      /  F ield         | OpenFOAM: The Open Source CFD Toolbox           |
|  \\    /   O peration     | Version:  2106                                  |
|   \\  /    A nd           | Website:  www.openfoam.com                      |
|    \\/     M anipulation  |                                                 |
\*---------------------------------------------------------------------------*/
FoamFile
{
    version     2.0;
    format      ascii;
    arch        "LSB;label=32;scalar=64";
    class       volScalarField;
    location    "2.7";
    object      p_rgh;
}
// * * * * * * * * * * * * * * * * * * * * * * * * * * * * * * * * * * * * * //

dimensions      [1 -1 -2 0 0 0 0];

internalField   nonuniform List<scalar> 
90000
(
0.00333333
0.00333356
0.00333401
0.00333468
0.00333558
0.00333669
0.00333802
0.00333957
0.00334133
0.0033433
0.00334547
0.00334785
0.00335043
0.0033532
0.00335616
0.00335931
0.00336263
0.00336613
0.00336979
0.00337361
0.00337759
0.00338171
0.00338597
0.00339036
0.00339488
0.00339952
0.00340426
0.0034091
0.00341403
0.00341905
0.00342414
0.0034293
0.00343451
0.00343977
0.00344506
0.00345039
0.00345573
0.00346108
0.00346644
0.00347178
0.00347711
0.00348241
0.00348767
0.00349288
0.00349804
0.00350314
0.00350816
0.0035131
0.00351795
0.00352269
0.00352733
0.00353186
0.00353626
0.00354053
0.00354466
0.00354864
0.00355247
0.00355614
0.00355964
0.00356297
0.00356613
0.00356909
0.00357187
0.00357445
0.00357684
0.00357902
0.00358099
0.00358275
0.0035843
0.00358564
0.00358675
0.00358765
0.00358832
0.00358877
0.00358899
0.00358899
0.00358877
0.00358832
0.00358765
0.00358675
0.00358564
0.0035843
0.00358275
0.00358099
0.00357902
0.00357684
0.00357445
0.00357187
0.00356909
0.00356613
0.00356297
0.00355964
0.00355614
0.00355247
0.00354864
0.00354466
0.00354053
0.00353626
0.00353186
0.00352733
0.00352269
0.00351795
0.0035131
0.00350816
0.00350314
0.00349804
0.00349288
0.00348767
0.00348241
0.00347711
0.00347178
0.00346644
0.00346108
0.00345573
0.00345039
0.00344506
0.00343977
0.00343451
0.0034293
0.00342414
0.00341905
0.00341403
0.0034091
0.00340426
0.00339952
0.00339488
0.00339036
0.00338597
0.00338171
0.00337759
0.00337361
0.00336979
0.00336613
0.00336263
0.00335931
0.00335616
0.0033532
0.00335043
0.00334785
0.00334548
0.0033433
0.00334133
0.00333957
0.00333802
0.00333669
0.00333558
0.00333468
0.00333401
0.00333356
0.00333333
0.00333311
0.00333334
0.00333379
0.00333446
0.00333536
0.00333647
0.00333781
0.00333936
0.00334112
0.00334309
0.00334527
0.00334766
0.00335024
0.00335301
0.00335598
0.00335913
0.00336246
0.00336596
0.00336963
0.00337346
0.00337744
0.00338157
0.00338584
0.00339024
0.00339477
0.00339941
0.00340416
0.00340901
0.00341395
0.00341898
0.00342408
0.00342924
0.00343446
0.00343973
0.00344503
0.00345037
0.00345572
0.00346108
0.00346645
0.0034718
0.00347714
0.00348244
0.00348771
0.00349294
0.00349811
0.00350321
0.00350824
0.00351319
0.00351804
0.0035228
0.00352745
0.00353198
0.00353639
0.00354067
0.0035448
0.00354879
0.00355263
0.00355631
0.00355981
0.00356315
0.00356631
0.00356928
0.00357206
0.00357465
0.00357704
0.00357922
0.0035812
0.00358297
0.00358452
0.00358585
0.00358697
0.00358787
0.00358854
0.00358899
0.00358921
0.00358921
0.00358899
0.00358854
0.00358787
0.00358697
0.00358585
0.00358452
0.00358297
0.0035812
0.00357922
0.00357704
0.00357465
0.00357206
0.00356928
0.00356631
0.00356315
0.00355981
0.00355631
0.00355263
0.00354879
0.0035448
0.00354067
0.00353639
0.00353198
0.00352745
0.0035228
0.00351804
0.00351319
0.00350824
0.00350321
0.00349811
0.00349294
0.00348771
0.00348244
0.00347714
0.0034718
0.00346645
0.00346108
0.00345572
0.00345037
0.00344503
0.00343973
0.00343446
0.00342924
0.00342408
0.00341898
0.00341395
0.00340901
0.00340416
0.00339941
0.00339477
0.00339024
0.00338584
0.00338157
0.00337744
0.00337346
0.00336963
0.00336596
0.00336246
0.00335913
0.00335598
0.00335302
0.00335024
0.00334766
0.00334527
0.00334309
0.00334112
0.00333936
0.00333781
0.00333647
0.00333536
0.00333446
0.00333379
0.00333334
0.00333311
0.00333267
0.00333289
0.00333335
0.00333402
0.00333492
0.00333604
0.00333738
0.00333893
0.0033407
0.00334268
0.00334487
0.00334726
0.00334985
0.00335264
0.00335561
0.00335877
0.00336212
0.00336563
0.00336931
0.00337315
0.00337715
0.00338129
0.00338558
0.00338999
0.00339454
0.00339919
0.00340396
0.00340883
0.00341379
0.00341883
0.00342395
0.00342913
0.00343437
0.00343965
0.00344498
0.00345033
0.0034557
0.00346108
0.00346646
0.00347184
0.00347719
0.00348252
0.00348781
0.00349305
0.00349823
0.00350336
0.0035084
0.00351337
0.00351824
0.00352301
0.00352768
0.00353223
0.00353665
0.00354094
0.00354509
0.0035491
0.00355295
0.00355664
0.00356016
0.00356351
0.00356667
0.00356966
0.00357245
0.00357504
0.00357744
0.00357963
0.00358162
0.00358339
0.00358495
0.00358629
0.00358741
0.00358831
0.00358898
0.00358943
0.00358966
0.00358966
0.00358943
0.00358898
0.00358831
0.00358741
0.00358629
0.00358495
0.00358339
0.00358162
0.00357963
0.00357744
0.00357504
0.00357245
0.00356966
0.00356667
0.00356351
0.00356016
0.00355664
0.00355295
0.0035491
0.00354509
0.00354094
0.00353665
0.00353223
0.00352768
0.00352301
0.00351824
0.00351337
0.0035084
0.00350336
0.00349823
0.00349305
0.00348781
0.00348252
0.00347719
0.00347184
0.00346646
0.00346108
0.0034557
0.00345033
0.00344498
0.00343965
0.00343437
0.00342913
0.00342395
0.00341883
0.00341379
0.00340883
0.00340396
0.00339919
0.00339454
0.00338999
0.00338558
0.00338129
0.00337715
0.00337315
0.00336931
0.00336563
0.00336212
0.00335878
0.00335561
0.00335264
0.00334985
0.00334726
0.00334487
0.00334268
0.0033407
0.00333893
0.00333738
0.00333604
0.00333492
0.00333402
0.00333335
0.00333289
0.00333267
0.003332
0.00333222
0.00333268
0.00333336
0.00333426
0.00333539
0.00333673
0.00333829
0.00334007
0.00334206
0.00334426
0.00334667
0.00334927
0.00335207
0.00335506
0.00335824
0.0033616
0.00336513
0.00336883
0.00337269
0.00337671
0.00338088
0.00338518
0.00338962
0.00339419
0.00339887
0.00340366
0.00340855
0.00341354
0.00341861
0.00342375
0.00342896
0.00343423
0.00343954
0.00344489
0.00345027
0.00345567
0.00346108
0.00346649
0.00347189
0.00347727
0.00348263
0.00348794
0.00349321
0.00349843
0.00350358
0.00350865
0.00351364
0.00351854
0.00352334
0.00352803
0.0035326
0.00353705
0.00354136
0.00354553
0.00354956
0.00355343
0.00355714
0.00356067
0.00356404
0.00356722
0.00357022
0.00357303
0.00357564
0.00357805
0.00358025
0.00358225
0.00358403
0.00358559
0.00358694
0.00358807
0.00358897
0.00358965
0.0035901
0.00359033
0.00359033
0.0035901
0.00358965
0.00358897
0.00358807
0.00358694
0.00358559
0.00358403
0.00358225
0.00358025
0.00357805
0.00357564
0.00357303
0.00357022
0.00356722
0.00356404
0.00356067
0.00355714
0.00355343
0.00354956
0.00354553
0.00354136
0.00353705
0.0035326
0.00352803
0.00352334
0.00351854
0.00351364
0.00350865
0.00350358
0.00349843
0.00349321
0.00348794
0.00348263
0.00347727
0.00347189
0.00346649
0.00346108
0.00345567
0.00345027
0.00344489
0.00343954
0.00343423
0.00342896
0.00342375
0.00341861
0.00341354
0.00340855
0.00340366
0.00339887
0.00339419
0.00338962
0.00338518
0.00338088
0.00337671
0.00337269
0.00336883
0.00336513
0.0033616
0.00335824
0.00335506
0.00335207
0.00334927
0.00334667
0.00334426
0.00334206
0.00334007
0.00333829
0.00333673
0.00333539
0.00333426
0.00333336
0.00333268
0.00333222
0.003332
0.0033311
0.00333133
0.00333178
0.00333247
0.00333338
0.00333451
0.00333587
0.00333744
0.00333923
0.00334123
0.00334345
0.00334587
0.00334849
0.00335131
0.00335432
0.00335752
0.0033609
0.00336446
0.00336819
0.00337208
0.00337612
0.00338032
0.00338465
0.00338912
0.00339372
0.00339844
0.00340326
0.00340819
0.00341321
0.00341831
0.00342349
0.00342874
0.00343404
0.00343939
0.00344478
0.0034502
0.00345563
0.00346108
0.00346653
0.00347197
0.00347738
0.00348278
0.00348813
0.00349344
0.00349869
0.00350387
0.00350898
0.003514
0.00351894
0.00352377
0.00352849
0.00353309
0.00353757
0.00354192
0.00354612
0.00355017
0.00355407
0.0035578
0.00356137
0.00356475
0.00356796
0.00357098
0.0035738
0.00357643
0.00357886
0.00358108
0.00358309
0.00358488
0.00358646
0.00358781
0.00358895
0.00358986
0.00359054
0.003591
0.00359123
0.00359123
0.003591
0.00359054
0.00358986
0.00358895
0.00358781
0.00358646
0.00358488
0.00358309
0.00358108
0.00357886
0.00357643
0.0035738
0.00357098
0.00356796
0.00356475
0.00356137
0.0035578
0.00355407
0.00355017
0.00354612
0.00354192
0.00353757
0.00353309
0.00352849
0.00352377
0.00351894
0.003514
0.00350898
0.00350387
0.00349869
0.00349344
0.00348813
0.00348278
0.00347739
0.00347197
0.00346653
0.00346108
0.00345563
0.0034502
0.00344478
0.00343939
0.00343404
0.00342874
0.00342349
0.00341831
0.00341321
0.00340819
0.00340326
0.00339844
0.00339372
0.00338912
0.00338465
0.00338032
0.00337612
0.00337208
0.00336819
0.00336446
0.00336091
0.00335752
0.00335432
0.00335131
0.00334849
0.00334587
0.00334345
0.00334124
0.00333923
0.00333744
0.00333587
0.00333451
0.00333338
0.00333247
0.00333179
0.00333133
0.0033311
0.00332997
0.0033302
0.00333066
0.00333135
0.00333227
0.00333341
0.00333478
0.00333637
0.00333817
0.0033402
0.00334243
0.00334487
0.00334752
0.00335036
0.0033534
0.00335663
0.00336004
0.00336362
0.00336738
0.00337131
0.00337539
0.00337962
0.00338399
0.0033885
0.00339314
0.00339789
0.00340276
0.00340773
0.00341279
0.00341794
0.00342316
0.00342845
0.0034338
0.0034392
0.00344464
0.0034501
0.00345558
0.00346108
0.00346657
0.00347206
0.00347752
0.00348296
0.00348836
0.00349371
0.00349901
0.00350424
0.00350939
0.00351446
0.00351944
0.00352431
0.00352907
0.00353372
0.00353823
0.00354261
0.00354685
0.00355094
0.00355487
0.00355864
0.00356223
0.00356565
0.00356888
0.00357193
0.00357478
0.00357743
0.00357988
0.00358211
0.00358414
0.00358595
0.00358754
0.00358891
0.00359005
0.00359097
0.00359166
0.00359212
0.00359235
0.00359235
0.00359212
0.00359166
0.00359097
0.00359005
0.00358891
0.00358754
0.00358595
0.00358414
0.00358211
0.00357988
0.00357743
0.00357478
0.00357193
0.00356888
0.00356565
0.00356223
0.00355864
0.00355487
0.00355094
0.00354685
0.00354261
0.00353823
0.00353372
0.00352907
0.00352431
0.00351944
0.00351446
0.00350939
0.00350424
0.00349901
0.00349371
0.00348836
0.00348296
0.00347752
0.00347206
0.00346657
0.00346108
0.00345558
0.0034501
0.00344464
0.0034392
0.0034338
0.00342846
0.00342316
0.00341794
0.00341279
0.00340773
0.00340276
0.00339789
0.00339314
0.0033885
0.00338399
0.00337962
0.00337539
0.00337131
0.00336738
0.00336362
0.00336004
0.00335663
0.0033534
0.00335036
0.00334752
0.00334487
0.00334243
0.0033402
0.00333818
0.00333637
0.00333478
0.00333342
0.00333227
0.00333136
0.00333067
0.0033302
0.00332997
0.00332862
0.00332885
0.00332932
0.00333001
0.00333094
0.00333209
0.00333347
0.00333508
0.0033369
0.00333895
0.0033412
0.00334367
0.00334634
0.00334921
0.00335228
0.00335555
0.00335899
0.00336262
0.00336641
0.00337038
0.0033745
0.00337877
0.00338319
0.00338775
0.00339243
0.00339724
0.00340215
0.00340718
0.00341229
0.00341749
0.00342277
0.00342812
0.00343352
0.00343897
0.00344446
0.00344998
0.00345553
0.00346108
0.00346663
0.00347217
0.00347769
0.00348319
0.00348864
0.00349405
0.0034994
0.00350468
0.00350989
0.00351501
0.00352004
0.00352496
0.00352977
0.00353446
0.00353903
0.00354345
0.00354774
0.00355187
0.00355584
0.00355964
0.00356327
0.00356673
0.00356999
0.00357307
0.00357595
0.00357863
0.0035811
0.00358336
0.00358541
0.00358724
0.00358885
0.00359023
0.00359138
0.00359231
0.00359301
0.00359347
0.00359371
0.00359371
0.00359347
0.00359301
0.00359231
0.00359138
0.00359023
0.00358885
0.00358724
0.00358541
0.00358336
0.0035811
0.00357863
0.00357595
0.00357307
0.00357
0.00356673
0.00356327
0.00355964
0.00355584
0.00355187
0.00354774
0.00354345
0.00353903
0.00353446
0.00352977
0.00352496
0.00352004
0.00351501
0.00350989
0.00350468
0.0034994
0.00349405
0.00348864
0.00348319
0.00347769
0.00347217
0.00346663
0.00346108
0.00345553
0.00344998
0.00344446
0.00343897
0.00343352
0.00342812
0.00342277
0.00341749
0.00341229
0.00340718
0.00340215
0.00339724
0.00339243
0.00338775
0.00338319
0.00337877
0.0033745
0.00337038
0.00336641
0.00336262
0.00335899
0.00335555
0.00335229
0.00334922
0.00334634
0.00334367
0.0033412
0.00333895
0.0033369
0.00333508
0.00333347
0.00333209
0.00333094
0.00333001
0.00332932
0.00332885
0.00332862
0.00332703
0.00332726
0.00332774
0.00332844
0.00332938
0.00333055
0.00333194
0.00333357
0.00333541
0.00333748
0.00333976
0.00334226
0.00334496
0.00334787
0.00335098
0.00335428
0.00335777
0.00336143
0.00336528
0.00336929
0.00337346
0.00337778
0.00338226
0.00338687
0.00339161
0.00339647
0.00340145
0.00340653
0.0034117
0.00341697
0.00342231
0.00342772
0.00343319
0.0034387
0.00344426
0.00344985
0.00345546
0.00346107
0.00346669
0.0034723
0.00347789
0.00348345
0.00348897
0.00349444
0.00349986
0.0035052
0.00351047
0.00351565
0.00352074
0.00352572
0.00353059
0.00353534
0.00353996
0.00354444
0.00354877
0.00355295
0.00355697
0.00356082
0.0035645
0.00356799
0.0035713
0.00357441
0.00357732
0.00358004
0.00358254
0.00358483
0.0035869
0.00358875
0.00359037
0.00359177
0.00359294
0.00359388
0.00359459
0.00359506
0.00359529
0.00359529
0.00359506
0.00359459
0.00359388
0.00359294
0.00359177
0.00359037
0.00358875
0.0035869
0.00358483
0.00358254
0.00358004
0.00357733
0.00357441
0.0035713
0.00356799
0.0035645
0.00356082
0.00355697
0.00355295
0.00354877
0.00354444
0.00353996
0.00353534
0.00353059
0.00352572
0.00352074
0.00351565
0.00351047
0.0035052
0.00349986
0.00349444
0.00348897
0.00348345
0.00347789
0.0034723
0.00346669
0.00346107
0.00345546
0.00344985
0.00344426
0.00343871
0.00343319
0.00342772
0.00342231
0.00341697
0.0034117
0.00340653
0.00340145
0.00339647
0.00339161
0.00338687
0.00338226
0.00337779
0.00337346
0.00336929
0.00336528
0.00336143
0.00335777
0.00335428
0.00335098
0.00334787
0.00334497
0.00334226
0.00333976
0.00333748
0.00333541
0.00333357
0.00333194
0.00333055
0.00332938
0.00332844
0.00332774
0.00332726
0.00332703
0.0033252
0.00332544
0.00332592
0.00332664
0.00332759
0.00332877
0.00333019
0.00333183
0.0033337
0.0033358
0.00333811
0.00334064
0.00334338
0.00334633
0.00334948
0.00335283
0.00335636
0.00336008
0.00336397
0.00336804
0.00337227
0.00337665
0.00338118
0.00338586
0.00339066
0.00339559
0.00340063
0.00340578
0.00341103
0.00341637
0.00342178
0.00342726
0.00343281
0.0034384
0.00344403
0.00344969
0.00345538
0.00346107
0.00346677
0.00347245
0.00347811
0.00348375
0.00348935
0.00349489
0.00350038
0.0035058
0.00351114
0.00351639
0.00352155
0.0035266
0.00353154
0.00353635
0.00354103
0.00354557
0.00354996
0.0035542
0.00355827
0.00356217
0.0035659
0.00356944
0.00357279
0.00357595
0.0035789
0.00358165
0.00358418
0.0035865
0.0035886
0.00359048
0.00359213
0.00359355
0.00359473
0.00359568
0.0035964
0.00359687
0.00359711
0.00359711
0.00359687
0.0035964
0.00359568
0.00359473
0.00359355
0.00359213
0.00359048
0.0035886
0.0035865
0.00358418
0.00358165
0.0035789
0.00357595
0.00357279
0.00356944
0.0035659
0.00356217
0.00355827
0.0035542
0.00354996
0.00354557
0.00354103
0.00353635
0.00353154
0.0035266
0.00352155
0.00351639
0.00351114
0.0035058
0.00350038
0.00349489
0.00348935
0.00348375
0.00347811
0.00347245
0.00346677
0.00346107
0.00345538
0.00344969
0.00344403
0.0034384
0.00343281
0.00342726
0.00342178
0.00341637
0.00341103
0.00340578
0.00340063
0.00339559
0.00339066
0.00338586
0.00338118
0.00337665
0.00337227
0.00336804
0.00336397
0.00336008
0.00335636
0.00335283
0.00334948
0.00334633
0.00334339
0.00334064
0.00333811
0.0033358
0.0033337
0.00333183
0.00333019
0.00332877
0.00332759
0.00332664
0.00332592
0.00332544
0.0033252
0.00332314
0.00332338
0.00332387
0.0033246
0.00332556
0.00332676
0.0033282
0.00332987
0.00333177
0.0033339
0.00333625
0.00333882
0.0033416
0.00334459
0.00334779
0.00335118
0.00335477
0.00335854
0.0033625
0.00336662
0.00337092
0.00337537
0.00337997
0.00338471
0.00338959
0.00339459
0.00339971
0.00340494
0.00341027
0.00341568
0.00342118
0.00342675
0.00343237
0.00343805
0.00344377
0.00344952
0.00345529
0.00346107
0.00346685
0.00347262
0.00347837
0.00348409
0.00348977
0.0034954
0.00350097
0.00350647
0.00351189
0.00351723
0.00352246
0.00352759
0.0035326
0.00353749
0.00354224
0.00354685
0.00355131
0.00355561
0.00355974
0.0035637
0.00356749
0.00357108
0.00357448
0.00357769
0.00358069
0.00358347
0.00358605
0.0035884
0.00359053
0.00359244
0.00359411
0.00359555
0.00359675
0.00359772
0.00359845
0.00359893
0.00359917
0.00359917
0.00359893
0.00359845
0.00359772
0.00359676
0.00359555
0.00359411
0.00359244
0.00359053
0.0035884
0.00358605
0.00358347
0.00358069
0.00357769
0.00357448
0.00357108
0.00356749
0.0035637
0.00355974
0.00355561
0.00355131
0.00354685
0.00354224
0.00353749
0.0035326
0.00352759
0.00352246
0.00351723
0.0035119
0.00350647
0.00350097
0.0034954
0.00348977
0.00348409
0.00347837
0.00347262
0.00346685
0.00346107
0.00345529
0.00344952
0.00344377
0.00343805
0.00343237
0.00342675
0.00342118
0.00341568
0.00341027
0.00340494
0.00339971
0.00339459
0.00338959
0.00338471
0.00337997
0.00337537
0.00337092
0.00336662
0.0033625
0.00335854
0.00335477
0.00335118
0.00334779
0.00334459
0.0033416
0.00333882
0.00333625
0.0033339
0.00333177
0.00332987
0.0033282
0.00332676
0.00332556
0.0033246
0.00332387
0.00332339
0.00332314
0.00332084
0.00332108
0.00332158
0.00332232
0.0033233
0.00332452
0.00332598
0.00332768
0.00332961
0.00333177
0.00333416
0.00333677
0.0033396
0.00334264
0.00334589
0.00334934
0.00335299
0.00335683
0.00336085
0.00336504
0.00336941
0.00337393
0.00337861
0.00338343
0.00338839
0.00339348
0.00339869
0.003404
0.00340942
0.00341492
0.00342051
0.00342617
0.00343189
0.00343766
0.00344348
0.00344932
0.00345519
0.00346106
0.00346694
0.00347281
0.00347865
0.00348447
0.00349025
0.00349597
0.00350163
0.00350723
0.00351274
0.00351816
0.00352348
0.0035287
0.00353379
0.00353876
0.00354359
0.00354827
0.00355281
0.00355718
0.00356138
0.00356541
0.00356926
0.00357291
0.00357637
0.00357963
0.00358268
0.00358551
0.00358813
0.00359052
0.00359269
0.00359463
0.00359633
0.00359779
0.00359902
0.0036
0.00360073
0.00360123
0.00360147
0.00360147
0.00360123
0.00360073
0.0036
0.00359902
0.00359779
0.00359633
0.00359463
0.00359269
0.00359052
0.00358813
0.00358551
0.00358268
0.00357963
0.00357637
0.00357291
0.00356926
0.00356541
0.00356138
0.00355718
0.00355281
0.00354827
0.00354359
0.00353876
0.00353379
0.0035287
0.00352348
0.00351816
0.00351274
0.00350723
0.00350163
0.00349597
0.00349025
0.00348447
0.00347865
0.00347281
0.00346694
0.00346106
0.00345519
0.00344932
0.00344348
0.00343766
0.00343189
0.00342617
0.00342051
0.00341492
0.00340942
0.003404
0.00339869
0.00339348
0.00338839
0.00338344
0.00337861
0.00337393
0.00336941
0.00336505
0.00336085
0.00335683
0.00335299
0.00334935
0.00334589
0.00334264
0.0033396
0.00333677
0.00333416
0.00333177
0.00332961
0.00332768
0.00332598
0.00332452
0.0033233
0.00332232
0.00332158
0.00332109
0.00332084
0.00331829
0.00331854
0.00331904
0.00331979
0.00332079
0.00332204
0.00332352
0.00332525
0.00332722
0.00332942
0.00333185
0.00333451
0.00333739
0.00334049
0.0033438
0.00334731
0.00335103
0.00335493
0.00335903
0.0033633
0.00336774
0.00337235
0.00337711
0.00338202
0.00338707
0.00339225
0.00339755
0.00340296
0.00340847
0.00341408
0.00341977
0.00342553
0.00343136
0.00343723
0.00344315
0.0034491
0.00345508
0.00346106
0.00346704
0.00347302
0.00347897
0.00348489
0.00349077
0.0034966
0.00350237
0.00350806
0.00351367
0.00351919
0.00352461
0.00352992
0.00353511
0.00354016
0.00354508
0.00354985
0.00355447
0.00355892
0.0035632
0.0035673
0.00357122
0.00357494
0.00357846
0.00358178
0.00358488
0.00358777
0.00359043
0.00359287
0.00359508
0.00359705
0.00359878
0.00360027
0.00360152
0.00360252
0.00360327
0.00360377
0.00360402
0.00360402
0.00360377
0.00360327
0.00360252
0.00360152
0.00360027
0.00359878
0.00359705
0.00359508
0.00359287
0.00359043
0.00358777
0.00358488
0.00358178
0.00357846
0.00357494
0.00357122
0.0035673
0.0035632
0.00355892
0.00355447
0.00354985
0.00354508
0.00354016
0.00353511
0.00352992
0.00352461
0.00351919
0.00351367
0.00350806
0.00350237
0.0034966
0.00349077
0.00348489
0.00347897
0.00347302
0.00346704
0.00346106
0.00345508
0.0034491
0.00344315
0.00343723
0.00343136
0.00342553
0.00341977
0.00341408
0.00340848
0.00340296
0.00339755
0.00339225
0.00338707
0.00338202
0.00337711
0.00337235
0.00336774
0.0033633
0.00335903
0.00335493
0.00335103
0.00334731
0.0033438
0.00334049
0.00333739
0.00333451
0.00333185
0.00332942
0.00332722
0.00332525
0.00332352
0.00332204
0.00332079
0.00331979
0.00331904
0.00331854
0.00331829
0.00331549
0.00331574
0.00331626
0.00331702
0.00331804
0.00331931
0.00332082
0.00332259
0.00332459
0.00332684
0.00332932
0.00333203
0.00333496
0.00333812
0.0033415
0.00334508
0.00334887
0.00335285
0.00335702
0.00336138
0.00336591
0.00337061
0.00337546
0.00338047
0.00338562
0.0033909
0.0033963
0.00340182
0.00340744
0.00341316
0.00341896
0.00342483
0.00343077
0.00343676
0.0034428
0.00344887
0.00345495
0.00346106
0.00346716
0.00347325
0.00347932
0.00348535
0.00349135
0.00349729
0.00350317
0.00350898
0.0035147
0.00352033
0.00352585
0.00353126
0.00353655
0.00354171
0.00354672
0.00355159
0.0035563
0.00356083
0.0035652
0.00356938
0.00357337
0.00357717
0.00358076
0.00358414
0.0035873
0.00359025
0.00359297
0.00359545
0.0035977
0.00359971
0.00360148
0.003603
0.00360427
0.00360528
0.00360605
0.00360656
0.00360682
0.00360682
0.00360656
0.00360605
0.00360528
0.00360427
0.003603
0.00360148
0.00359971
0.0035977
0.00359545
0.00359297
0.00359025
0.0035873
0.00358414
0.00358076
0.00357717
0.00357337
0.00356938
0.0035652
0.00356084
0.0035563
0.00355159
0.00354672
0.00354171
0.00353655
0.00353126
0.00352585
0.00352033
0.0035147
0.00350898
0.00350317
0.00349729
0.00349135
0.00348535
0.00347932
0.00347325
0.00346716
0.00346106
0.00345495
0.00344887
0.0034428
0.00343676
0.00343077
0.00342483
0.00341896
0.00341316
0.00340744
0.00340182
0.0033963
0.0033909
0.00338562
0.00338047
0.00337546
0.00337061
0.00336591
0.00336138
0.00335702
0.00335285
0.00334887
0.00334508
0.0033415
0.00333812
0.00333497
0.00333203
0.00332932
0.00332684
0.00332459
0.00332259
0.00332083
0.00331931
0.00331804
0.00331702
0.00331626
0.00331574
0.00331549
0.00331243
0.00331269
0.00331321
0.003314
0.00331504
0.00331633
0.00331788
0.00331968
0.00332173
0.00332402
0.00332655
0.00332932
0.00333232
0.00333554
0.00333898
0.00334264
0.00334651
0.00335058
0.00335484
0.00335928
0.00336391
0.0033687
0.00337366
0.00337877
0.00338403
0.00338942
0.00339494
0.00340057
0.00340631
0.00341215
0.00341807
0.00342407
0.00343013
0.00343625
0.00344241
0.0034486
0.00345482
0.00346105
0.00346728
0.0034735
0.00347969
0.00348586
0.00349198
0.00349805
0.00350405
0.00350998
0.00351582
0.00352157
0.00352721
0.00353273
0.00353813
0.0035434
0.00354852
0.00355348
0.00355829
0.00356292
0.00356738
0.00357165
0.00357572
0.0035796
0.00358326
0.00358672
0.00358995
0.00359295
0.00359573
0.00359826
0.00360056
0.00360261
0.00360442
0.00360597
0.00360726
0.0036083
0.00360909
0.00360961
0.00360987
0.00360987
0.00360961
0.00360909
0.0036083
0.00360726
0.00360597
0.00360442
0.00360261
0.00360056
0.00359826
0.00359573
0.00359295
0.00358995
0.00358672
0.00358326
0.0035796
0.00357572
0.00357165
0.00356738
0.00356292
0.00355829
0.00355348
0.00354852
0.0035434
0.00353813
0.00353273
0.00352721
0.00352157
0.00351582
0.00350998
0.00350405
0.00349805
0.00349198
0.00348586
0.00347969
0.0034735
0.00346728
0.00346105
0.00345482
0.0034486
0.00344241
0.00343625
0.00343013
0.00342407
0.00341807
0.00341215
0.00340631
0.00340057
0.00339494
0.00338942
0.00338403
0.00337877
0.00337366
0.0033687
0.00336391
0.00335928
0.00335484
0.00335058
0.00334651
0.00334264
0.00333899
0.00333554
0.00333232
0.00332932
0.00332655
0.00332402
0.00332173
0.00331968
0.00331788
0.00331633
0.00331504
0.003314
0.00331322
0.00331269
0.00331243
0.00330911
0.00330938
0.00330992
0.00331071
0.00331178
0.0033131
0.00331468
0.00331652
0.00331862
0.00332096
0.00332355
0.00332638
0.00332944
0.00333274
0.00333626
0.00334
0.00334395
0.00334811
0.00335246
0.00335701
0.00336174
0.00336664
0.00337171
0.00337693
0.00338231
0.00338782
0.00339346
0.00339922
0.00340508
0.00341105
0.00341711
0.00342324
0.00342944
0.00343569
0.00344199
0.00344832
0.00345468
0.00346104
0.00346741
0.00347377
0.0034801
0.00348641
0.00349266
0.00349887
0.003505
0.00351106
0.00351703
0.00352291
0.00352868
0.00353432
0.00353984
0.00354523
0.00355046
0.00355554
0.00356045
0.00356519
0.00356974
0.00357411
0.00357827
0.00358223
0.00358598
0.00358951
0.00359282
0.00359589
0.00359872
0.00360132
0.00360366
0.00360576
0.00360761
0.00360919
0.00361052
0.00361158
0.00361238
0.00361291
0.00361318
0.00361318
0.00361291
0.00361238
0.00361158
0.00361052
0.00360919
0.00360761
0.00360576
0.00360367
0.00360132
0.00359872
0.00359589
0.00359282
0.00358951
0.00358598
0.00358223
0.00357827
0.00357411
0.00356974
0.00356519
0.00356045
0.00355554
0.00355046
0.00354523
0.00353984
0.00353432
0.00352868
0.00352291
0.00351704
0.00351106
0.003505
0.00349887
0.00349266
0.00348641
0.0034801
0.00347377
0.00346741
0.00346104
0.00345468
0.00344832
0.00344199
0.00343569
0.00342944
0.00342324
0.00341711
0.00341105
0.00340509
0.00339922
0.00339346
0.00338782
0.00338231
0.00337693
0.00337171
0.00336664
0.00336174
0.00335701
0.00335246
0.00334811
0.00334395
0.00334
0.00333626
0.00333274
0.00332944
0.00332638
0.00332355
0.00332096
0.00331862
0.00331652
0.00331469
0.0033131
0.00331178
0.00331072
0.00330992
0.00330938
0.00330911
0.00330553
0.0033058
0.00330635
0.00330717
0.00330826
0.00330961
0.00331123
0.00331311
0.00331526
0.00331765
0.0033203
0.0033232
0.00332634
0.00332971
0.00333331
0.00333714
0.00334119
0.00334544
0.0033499
0.00335455
0.00335939
0.00336441
0.0033696
0.00337495
0.00338045
0.00338609
0.00339186
0.00339775
0.00340376
0.00340987
0.00341606
0.00342234
0.00342868
0.00343509
0.00344153
0.00344802
0.00345452
0.00346104
0.00346756
0.00347406
0.00348055
0.003487
0.0034934
0.00349975
0.00350603
0.00351223
0.00351835
0.00352436
0.00353026
0.00353604
0.00354169
0.0035472
0.00355256
0.00355776
0.00356279
0.00356763
0.0035723
0.00357676
0.00358103
0.00358508
0.00358892
0.00359253
0.00359591
0.00359906
0.00360196
0.00360462
0.00360702
0.00360917
0.00361105
0.00361268
0.00361403
0.00361512
0.00361594
0.00361649
0.00361676
0.00361676
0.00361649
0.00361594
0.00361512
0.00361403
0.00361268
0.00361105
0.00360917
0.00360702
0.00360462
0.00360196
0.00359906
0.00359591
0.00359253
0.00358892
0.00358508
0.00358103
0.00357677
0.0035723
0.00356764
0.00356279
0.00355776
0.00355256
0.0035472
0.00354169
0.00353604
0.00353026
0.00352436
0.00351835
0.00351223
0.00350603
0.00349975
0.0034934
0.003487
0.00348055
0.00347406
0.00346756
0.00346104
0.00345452
0.00344802
0.00344153
0.00343509
0.00342868
0.00342234
0.00341606
0.00340987
0.00340376
0.00339776
0.00339186
0.00338609
0.00338045
0.00337495
0.0033696
0.00336441
0.00335939
0.00335455
0.0033499
0.00334544
0.00334119
0.00333714
0.00333331
0.00332971
0.00332634
0.0033232
0.0033203
0.00331766
0.00331526
0.00331312
0.00331123
0.00330961
0.00330826
0.00330717
0.00330635
0.0033058
0.00330553
0.00330167
0.00330195
0.00330251
0.00330335
0.00330447
0.00330586
0.00330752
0.00330945
0.00331164
0.0033141
0.00331681
0.00331978
0.00332299
0.00332645
0.00333014
0.00333407
0.00333821
0.00334257
0.00334714
0.00335191
0.00335687
0.00336201
0.00336733
0.00337281
0.00337844
0.00338422
0.00339014
0.00339618
0.00340233
0.00340859
0.00341494
0.00342137
0.00342788
0.00343444
0.00344104
0.00344769
0.00345435
0.00346103
0.00346771
0.00347438
0.00348102
0.00348763
0.0034942
0.0035007
0.00350714
0.0035135
0.00351976
0.00352592
0.00353197
0.00353789
0.00354368
0.00354933
0.00355482
0.00356015
0.0035653
0.00357027
0.00357505
0.00357962
0.00358399
0.00358815
0.00359208
0.00359578
0.00359925
0.00360247
0.00360544
0.00360817
0.00361063
0.00361283
0.00361476
0.00361643
0.00361782
0.00361893
0.00361977
0.00362033
0.00362061
0.00362061
0.00362033
0.00361977
0.00361893
0.00361782
0.00361643
0.00361476
0.00361283
0.00361063
0.00360817
0.00360544
0.00360247
0.00359925
0.00359578
0.00359208
0.00358815
0.003584
0.00357962
0.00357505
0.00357027
0.0035653
0.00356015
0.00355482
0.00354933
0.00354368
0.0035379
0.00353197
0.00352592
0.00351976
0.0035135
0.00350714
0.0035007
0.0034942
0.00348763
0.00348102
0.00347438
0.00346771
0.00346103
0.00345435
0.00344769
0.00344104
0.00343444
0.00342788
0.00342137
0.00341494
0.00340859
0.00340234
0.00339618
0.00339014
0.00338422
0.00337844
0.00337281
0.00336733
0.00336201
0.00335687
0.00335191
0.00334714
0.00334257
0.00333821
0.00333407
0.00333015
0.00332645
0.003323
0.00331978
0.00331681
0.0033141
0.00331164
0.00330945
0.00330752
0.00330586
0.00330447
0.00330335
0.00330251
0.00330195
0.00330167
0.00329753
0.00329782
0.0032984
0.00329926
0.0033004
0.00330183
0.00330353
0.00330551
0.00330776
0.00331028
0.00331307
0.00331611
0.00331941
0.00332296
0.00332675
0.00333077
0.00333502
0.0033395
0.00334418
0.00334907
0.00335416
0.00335944
0.00336489
0.00337051
0.0033763
0.00338223
0.00338829
0.00339449
0.00340081
0.00340723
0.00341374
0.00342034
0.00342701
0.00343374
0.00344052
0.00344733
0.00345417
0.00346102
0.00346787
0.00347472
0.00348153
0.00348831
0.00349505
0.00350172
0.00350833
0.00351485
0.00352127
0.0035276
0.0035338
0.00353988
0.00354582
0.00355161
0.00355724
0.00356271
0.00356799
0.00357309
0.00357799
0.00358269
0.00358718
0.00359144
0.00359547
0.00359927
0.00360282
0.00360613
0.00360918
0.00361197
0.0036145
0.00361676
0.00361874
0.00362045
0.00362187
0.00362302
0.00362388
0.00362445
0.00362474
0.00362474
0.00362445
0.00362388
0.00362302
0.00362187
0.00362045
0.00361874
0.00361676
0.0036145
0.00361197
0.00360918
0.00360613
0.00360282
0.00359927
0.00359547
0.00359144
0.00358718
0.00358269
0.00357799
0.00357309
0.00356799
0.00356271
0.00355724
0.00355161
0.00354582
0.00353988
0.0035338
0.0035276
0.00352127
0.00351485
0.00350833
0.00350172
0.00349505
0.00348831
0.00348153
0.00347472
0.00346787
0.00346102
0.00345417
0.00344733
0.00344052
0.00343374
0.00342701
0.00342034