/*--------------------------------*- C++ -*----------------------------------*\
| =========                 |                                                 |
| \\      /  F ield         | OpenFOAM: The Open Source CFD Toolbox           |
|  \\    /   O peration     | Version:  2106                                  |
|   \\  /    A nd           | Website:  www.openfoam.com                      |
|    \\/     M anipulation  |                                                 |
\*---------------------------------------------------------------------------*/
FoamFile
{
    version     2.0;
    format      ascii;
    arch        "LSB;label=32;scalar=64";
    class       surfaceScalarField;
    location    "0.13";
    object      phi_0;
}
// * * * * * * * * * * * * * * * * * * * * * * * * * * * * * * * * * * * * * //

dimensions      [0 3 -1 0 0 0 0];

oriented        oriented;

internalField   nonuniform List<scalar> 
65152
(
2.7260437e-08
-2.7260437e-08
6.4935177e-08
-3.767474e-08
1.0512246e-07
-4.0187279e-08
1.4620094e-07
-4.1078482e-08
1.8751803e-07
-4.1317092e-08
2.2891403e-07
-4.1395999e-08
2.70383e-07
-4.1468968e-08
3.1195069e-07
-4.1567693e-08
3.5368503e-07
-4.1734344e-08
3.9561826e-07
-4.1933228e-08
4.3774134e-07
-4.212308e-08
4.8004819e-07
-4.2306845e-08
5.2253676e-07
-4.2488568e-08
5.6520981e-07
-4.267305e-08
6.0808173e-07
-4.2871926e-08
6.5116756e-07
-4.3085827e-08
6.9448266e-07
-4.3315099e-08
7.3804296e-07
-4.3560304e-08
7.8186538e-07
-4.3822418e-08
8.2596594e-07
-4.4100559e-08
8.7036476e-07
-4.4398822e-08
9.1507245e-07
-4.4707691e-08
9.6012382e-07
-4.5051363e-08
1.0054991e-06
-4.5375272e-08
1.0512921e-06
-4.5793001e-08
1.0973846e-06
-4.609247e-08
1.1440002e-06
-4.661564e-08
1.1909266e-06
-4.6926384e-08
1.238254e-06
-4.7327446e-08
1.2865179e-06
-4.8263895e-08
1.3338856e-06
-4.7367631e-08
1.384469e-06
-5.0583402e-08
1.4313064e-06
-4.6837479e-08
1.4838905e-06
-5.2584027e-08
1.5322197e-06
-4.8329274e-08
1.5835741e-06
-5.1354405e-08
1.6365442e-06
-5.2970101e-08
1.6862901e-06
-4.9745829e-08
1.7403404e-06
-5.4050368e-08
1.7941239e-06
-5.3783481e-08
1.8463025e-06
-5.2178613e-08
1.901683e-06
-5.5380498e-08
1.9573597e-06
-5.56767e-08
2.0118486e-06
-5.4488851e-08
2.0686962e-06
-5.6847642e-08
2.1256319e-06
-5.6935663e-08
2.1828893e-06
-5.7257429e-08
2.2416051e-06
-5.8715768e-08
2.2998626e-06
-5.8257528e-08
2.3587688e-06
-5.8906135e-08
2.4193775e-06
-6.0608781e-08
2.4803066e-06
-6.092908e-08
2.5408677e-06
-6.0561053e-08
2.6021332e-06
-6.1265548e-08
2.6646809e-06
-6.254767e-08
2.7277951e-06
-6.3114201e-08
2.7913258e-06
-6.3530676e-08
2.8552354e-06
-6.3909642e-08
2.9191517e-06
-6.3916283e-08
2.9835786e-06
-6.4426918e-08
3.0493666e-06
-6.5788e-08
3.1160387e-06
-6.6672143e-08
3.1825082e-06
-6.646949e-08
3.2488068e-06
-6.6298535e-08
3.315748e-06
-6.6941235e-08
3.3830921e-06
-6.7344083e-08
3.4510044e-06
-6.7912264e-08
3.520259e-06
-6.9254692e-08
3.5896455e-06
-6.9386413e-08
3.6588058e-06
-6.9160342e-08
3.7278646e-06
-6.9058802e-08
3.7969153e-06
-6.9050745e-08
3.8668798e-06
-6.9964417e-08
3.9378767e-06
-7.0996982e-08
4.0089577e-06
-7.1081e-08
4.0804389e-06
-7.148118e-08
4.1520585e-06
-7.1619525e-08
4.2232643e-06
-7.1205878e-08
4.2950635e-06
-7.1799155e-08
4.3670232e-06
-7.1959673e-08
4.4389775e-06
-7.1954363e-08
4.5114754e-06
-7.2497836e-08
4.5841577e-06
-7.268233e-08
4.6567795e-06
-7.2621838e-08
4.7296844e-06
-7.290489e-08
4.803008e-06
-7.3323581e-08
4.8760293e-06
-7.3021319e-08
4.9496209e-06
-7.3591608e-08
5.0230725e-06
-7.3451547e-08
5.0955384e-06
-7.2465885e-08
5.1684871e-06
-7.2948726e-08
5.2411184e-06
-7.2631367e-08
5.312921e-06
-7.1802542e-08
5.3856703e-06
-7.2749279e-08
5.4590955e-06
-7.342523e-08
5.532112e-06
-7.3016487e-08
5.605433e-06
-7.3321021e-08
5.6783208e-06
-7.2887839e-08
5.7496685e-06
-7.1347689e-08
5.8201569e-06
-7.0488325e-08
5.8909816e-06
-7.082479e-08
5.961808e-06
-7.0826373e-08
6.0327026e-06
-7.0894581e-08
6.1040718e-06
-7.1369187e-08
6.175684e-06
-7.1612212e-08
6.246109e-06
-7.0424965e-08
6.3149191e-06
-6.8810113e-08
6.3826322e-06
-6.7713143e-08
6.449358e-06
-6.6725766e-08
6.5153624e-06
-6.6004393e-08
6.5820968e-06
-6.6734397e-08
6.6497558e-06
-6.7659027e-08
6.7178428e-06
-6.8086985e-08
6.7857571e-06
-6.7914353e-08
6.8533373e-06
-6.758017e-08
6.9200999e-06
-6.6762564e-08
6.9852276e-06
-6.5127714e-08
7.0483208e-06
-6.3093216e-08
7.110211e-06
-6.1890198e-08
7.170845e-06
-6.0634032e-08
7.229404e-06
-5.855894e-08
7.2864775e-06
-5.7073535e-08
7.343725e-06
-5.7247498e-08
7.4022639e-06
-5.8538919e-08
7.4624899e-06
-6.0225922e-08
7.5241009e-06
-6.1611093e-08
7.5862406e-06
-6.2139645e-08
7.6471694e-06
-6.0928803e-08
7.7048581e-06
-5.7688714e-08
7.758826e-06
-5.3967923e-08
7.8104928e-06
-5.1666779e-08
7.8618892e-06
-5.139638e-08
7.9144792e-06
-5.2590028e-08
7.9687348e-06
-5.4255625e-08
8.0236706e-06
-5.4935781e-08
8.0777624e-06
-5.4091751e-08
8.1293938e-06
-5.1631428e-08
8.1773021e-06
-4.7908265e-08
8.2209148e-06
-4.3612707e-08
8.2605443e-06
-3.9629555e-08
8.2968552e-06
-3.6310907e-08
8.3314978e-06
-3.4642524e-08
8.3676146e-06
-3.6116873e-08
8.4083659e-06
-4.075128e-08
8.4556325e-06
-4.7266578e-08
8.5072906e-06
-5.1658082e-08
8.555509e-06
-4.8218407e-08
8.592739e-06
-3.723007e-08
8.6166902e-06
-2.3951169e-08
8.6291427e-06
-1.2452479e-08
8.6346397e-06
-5.4969552e-09
8.6377757e-06
-3.136027e-09
8.6414707e-06
-3.6949831e-09
8.6479534e-06
-6.4827028e-09
8.6575981e-06
-9.6447465e-09
8.6668206e-06
-9.2224513e-09
8.6749362e-06
-8.1156496e-09
8.6861595e-06
-1.1223287e-08
8.706493e-06
-2.0333477e-08
8.7380622e-06
-3.1569264e-08
8.7778174e-06
-3.9755131e-08
8.8228752e-06
-4.5057864e-08
8.8710881e-06
-4.8212882e-08
8.9203187e-06
-4.9230583e-08
8.9693665e-06
-4.9047833e-08
9.0184969e-06
-4.9130367e-08
9.0701095e-06
-5.1612618e-08
9.1281452e-06
-5.8035651e-08
9.196274e-06
-6.8128822e-08
9.2753254e-06
-7.9051374e-08
9.3637879e-06
-8.8462499e-08
9.4569633e-06
-9.3175446e-08
9.5475943e-06
-9.0630997e-08
9.6274478e-06
-7.9853504e-08
9.6940414e-06
-6.6593575e-08
9.7527841e-06
-5.874268e-08
9.8160115e-06
-6.322744e-08
9.8985416e-06
-8.2530112e-08
1.0002773e-05
-1.0423132e-07
1.0123378e-05
-1.2060495e-07
1.0255563e-05
-1.3218462e-07
1.0389148e-05
-1.3358522e-07
1.0512198e-05
-1.2304992e-07
1.0633421e-05
-1.2122309e-07
1.0777118e-05
-1.4369718e-07
1.0940667e-05
-1.6354935e-07
1.1130896e-05
-1.9022874e-07
1.1293629e-05
-1.6273259e-07
1.1326593e-05
-3.2964104e-08
1.120177e-05
1.2482224e-07
8.7464443e-06
2.4553261e-06
6.7373369e-06
2.0091074e-06
4.9442556e-06
1.7930813e-06
3.7464204e-06
1.1978352e-06
3.0074895e-06
7.389309e-07
2.5156701e-06
4.9181945e-07
2.1659381e-06
3.4973197e-07
1.9025054e-06
2.634327e-07
1.6950035e-06
2.0750187e-07
1.5262421e-06
1.6876146e-07
1.3856717e-06
1.4057036e-07
1.266455e-06
1.1921672e-07
1.1636809e-06
1.0277409e-07
1.0742203e-06
8.9460604e-08
9.9555562e-07
7.8664661e-08
9.2566168e-07
6.9893943e-08
8.6311643e-07
6.2545246e-08
8.0680427e-07
5.6312166e-08
7.5582134e-07
5.0982928e-08
7.0942946e-07
4.6391881e-08
6.6702097e-07
4.2408486e-08
6.2808613e-07
3.8934836e-08
5.9225416e-07
3.5831978e-08
5.5905082e-07
3.3203334e-08
5.2828333e-07
3.0767488e-08
4.9960086e-07
2.8682478e-08
4.7283943e-07
2.6761427e-08
4.4782146e-07
2.5017969e-08
4.2430992e-07
2.351154e-08
4.0244534e-07
2.1864582e-08
3.8171052e-07
2.0734815e-08
3.6195584e-07
1.975468e-08
3.4340814e-07
1.8547702e-08
3.2582341e-07
1.7584738e-08
3.0910928e-07
1.6714124e-08
2.9319916e-07
1.5910121e-08
2.7802988e-07
1.5169284e-08
2.6354266e-07
1.4487214e-08
2.4968368e-07
1.3858981e-08
2.3640458e-07
1.3279098e-08
2.2366545e-07
1.2739136e-08
2.1138988e-07
1.2275568e-08
1.9958081e-07
1.1809066e-08
1.8819741e-07
1.1383398e-08
1.7719934e-07
1.0998072e-08
1.6655511e-07
1.0644236e-08
1.5623697e-07
1.0318139e-08
1.4624552e-07
9.991442e-09
1.3652007e-07
9.7254564e-09
1.2704798e-07
9.4720875e-09
1.1781733e-07
9.2306475e-09
1.087434e-07
9.0739368e-09
9.9919166e-08
8.8242295e-09
9.1272334e-08
8.646832e-09
8.278106e-08
8.4912744e-09
7.4434463e-08
8.3465991e-09
6.6210568e-08
8.223896e-09
5.81271e-08
8.0834675e-09
5.0115662e-08
8.0114375e-09
4.2198214e-08
7.9174471e-09
3.4351541e-08
7.8466737e-09
2.6557501e-08
7.7940407e-09
1.8879819e-08
7.6776833e-09
1.1413881e-08
7.4659378e-09
4.6001071e-09
6.8137735e-09
4.6001069e-09
2.9419361e-08
-5.6679799e-08
7.270181e-08
-8.0957188e-08
1.1888083e-07
-8.6366299e-08
1.6557609e-07
-8.7773744e-08
2.1245541e-07
-8.819641e-08
2.5942745e-07
-8.8368038e-08
3.0646207e-07
-8.8503588e-08
3.5355524e-07
-8.866086e-08
4.0068085e-07
-8.8859959e-08
4.477813e-07
-8.9033675e-08
4.9489604e-07
-8.9237819e-08
5.4207382e-07
-8.9484626e-08
5.8934968e-07
-8.9764426e-08
6.3675627e-07
-9.007964e-08
6.8431746e-07
-9.0433123e-08
7.3205634e-07
-9.08247e-08
7.7999502e-07
-9.1253782e-08
8.2815455e-07
-9.1719832e-08
8.7655499e-07
-9.2222861e-08
9.2521622e-07
-9.2761788e-08
9.7415654e-07
-9.3339148e-08
1.0233968e-06
-9.3947917e-08
1.0729505e-06
-9.4605051e-08
1.1228474e-06
-9.5272208e-08
1.17308e-06
-9.6025582e-08
1.2237208e-06
-9.6733341e-08
1.2746731e-06
-9.7567895e-08
1.3261871e-06
-9.8440371e-08
1.3778098e-06
-9.8950138e-08
1.4305003e-06
-1.0095442e-07
1.4824305e-06
-9.9297831e-08
1.5370966e-06
-1.0524955e-07
1.5885277e-06
-9.8268532e-08
1.6457208e-06
-1.0977709e-07
1.6974987e-06
-1.0010722e-07
1.7544139e-06
-1.0826956e-07
1.8108019e-06
-1.093581e-07
1.8647361e-06
-1.0368009e-07
1.9236208e-06
-1.1293507e-07
1.9815832e-06
-1.1174588e-07
2.0375314e-06
-1.0812673e-07
2.0968367e-06
-1.1468586e-07
2.1579624e-06
-1.1680236e-07
2.216208e-06
-1.1273448e-07
2.275731e-06
-1.1637064e-07
2.3377382e-06
-1.1894291e-07
2.4007864e-06
-1.203056e-07
2.4618745e-06
-1.1980388e-07
2.5230624e-06
-1.1944536e-07
2.587596e-06
-1.2343977e-07
2.6530493e-06
-1.2606204e-07
2.717128e-06
-1.2500784e-07
2.7811575e-06
-1.2459051e-07
2.8464699e-06
-1.2657793e-07
2.9131109e-06
-1.2918866e-07
2.9812714e-06
-1.3127474e-07
3.0492714e-06
-1.3153071e-07
3.1156497e-06
-1.3028793e-07
3.182686e-06
-1.3095259e-07
3.252208e-06
-1.3394894e-07
3.3229273e-06
-1.365073e-07
3.393403e-06
-1.371478e-07
3.4636395e-06
-1.3670604e-07
3.5337461e-06
-1.3640512e-07
3.6041107e-06
-1.3730585e-07
3.6750531e-06
-1.3828646e-07
3.7478245e-06
-1.406836e-07
3.822576e-06
-1.4400625e-07
3.895954e-06
-1.4276443e-07
3.9684076e-06
-1.4161393e-07
4.040874e-06
-1.4152521e-07
4.1138459e-06
-1.4202257e-07
4.1884085e-06
-1.4452703e-07
4.2642505e-06
-1.4683898e-07
4.3396076e-06
-1.464381e-07
4.4155955e-06
-1.4746911e-07
4.4913423e-06
-1.4736636e-07
4.5660617e-06
-1.4592525e-07
4.6420095e-06
-1.4774697e-07
4.7183299e-06
-1.4828004e-07
4.7947866e-06
-1.4841111e-07
4.8713807e-06
-1.4909187e-07
4.9483556e-06
-1.4965728e-07
5.0257186e-06
-1.499848e-07
5.1033254e-06
-1.5051172e-07
5.1808345e-06
-1.5083267e-07
5.2585635e-06
-1.5075034e-07
5.3372945e-06
-1.5232262e-07
5.4149223e-06
-1.5107934e-07
5.4917794e-06
-1.4932294e-07
5.5693618e-06
-1.5053116e-07
5.6460819e-06
-1.4935146e-07
5.7224663e-06
-1.4818693e-07
5.8005607e-06
-1.5084372e-07
5.8793832e-06
-1.5224767e-07
5.9586242e-06
-1.5225755e-07
6.0376216e-06
-1.523184e-07
6.1147174e-06
-1.4998364e-07
6.1901349e-06
-1.4676515e-07
6.2654516e-06
-1.4580506e-07
6.3412441e-06
-1.4661729e-07
6.4174657e-06
-1.4704791e-07
6.4945147e-06
-1.479436e-07
6.5724525e-06
-1.4930702e-07
6.6503881e-06
-1.4954777e-07
6.7267154e-06
-1.4675225e-07
6.8007176e-06
-1.4281232e-07
6.8731469e-06
-1.4014248e-07
6.9446942e-06
-1.3827304e-07
7.0165882e-06
-1.3789844e-07
7.0900941e-06
-1.4024026e-07
7.1651469e-06
-1.4271182e-07
7.2407646e-06
-1.4370468e-07
7.3161195e-06
-1.4326931e-07
7.3907664e-06
-1.4222704e-07
7.4644901e-06
-1.4048628e-07
7.5370604e-06
-1.3769797e-07
7.6083866e-06
-1.3441949e-07
7.678157e-06
-1.3166058e-07
7.7453555e-06
-1.2783251e-07
7.8099381e-06
-1.2314148e-07
7.8737228e-06
-1.2085831e-07
7.938512e-06
-1.2203671e-07
8.0059502e-06
-1.2597704e-07
8.0772904e-06
-1.315662e-07
8.1514351e-06
-1.3575575e-07
8.2251916e-06
-1.3589614e-07
8.2951129e-06
-1.308501e-07
8.3595818e-06
-1.2215767e-07
8.4195064e-06
-1.1389246e-07
8.4778128e-06
-1.0997321e-07
8.5380097e-06
-1.1159326e-07
8.6018896e-06
-1.164699e-07
8.6693755e-06
-1.2174161e-07
8.7389953e-06
-1.2455554e-07
8.8074407e-06
-1.2253718e-07
8.8717901e-06
-1.1598078e-07
8.9309402e-06
-1.0705838e-07
8.9845444e-06
-9.7216871e-08
9.0323595e-06
-8.7444678e-08
9.0758273e-06
-7.9778766e-08
9.1179985e-06
-7.6813717e-08
9.1635079e-06
-8.1626223e-08
9.2168683e-06
-9.4111694e-08
9.2812726e-06
-1.1167089e-07
9.3559535e-06
-1.2633898e-07
9.4370604e-06
-1.2932527e-07
9.5169175e-06
-1.1708721e-07
9.5851816e-06
-9.2215275e-08
9.6342341e-06
-6.1504998e-08
9.6632103e-06
-3.4473142e-08
9.6787267e-06
-1.8652444e-08
9.6919983e-06
-1.6966557e-08
9.7125951e-06
-2.7079464e-08
9.7445441e-06
-4.1593756e-08
9.7885931e-06
-5.3271424e-08
9.8424575e-06
-6.1980141e-08
9.902891e-06
-7.1656735e-08
9.9649474e-06
-8.2389883e-08
1.0025421e-05
-9.2043195e-08
1.0085021e-05
-9.9354929e-08
1.0142822e-05
-1.0285894e-07
1.0195362e-05
-1.0075225e-07
1.0238889e-05
-9.2757544e-08
1.0272882e-05
-8.3040872e-08
1.0300761e-05
-7.7009546e-08
1.0329626e-05
-8.0477832e-08
1.0367576e-05
-9.5985651e-08
1.0419576e-05
-1.2012912e-07
1.048595e-05
-1.454255e-07
1.0564175e-05
-1.6668665e-07
1.0646925e-05
-1.7592547e-07
1.0719961e-05
-1.6366738e-07
1.0768742e-05
-1.2863485e-07
1.0798042e-05
-9.5892793e-08
1.0831579e-05
-9.2280458e-08
1.0895407e-05
-1.2705474e-07
1.1004573e-05
-1.916961e-07
1.1141949e-05
-2.4160791e-07
1.1277071e-05
-2.5572642e-07
1.1409367e-05
-2.6448078e-07
1.1538162e-05
-2.6238015e-07
1.1662393e-05
-2.4728128e-07
1.1795101e-05
-2.5393054e-07
1.1951189e-05
-2.997853e-07
1.2060853e-05
-2.7321405e-07
1.1992632e-05
-1.2200758e-07
1.1669767e-05
1.6013278e-07
1.1086151e-05
5.5065191e-07
9.2831099e-06
1.9278632e-06
7.92377e-06
3.8146661e-06
6.1510416e-06
3.7818357e-06
5.0126783e-06
2.9314446e-06
4.2552592e-06
1.9552543e-06
3.6613708e-06
1.3328193e-06
3.1951366e-06
9.5805373e-07
2.8246988e-06
7.2016976e-07
2.52591e-06
5.6222149e-07
2.280675e-06
4.5273687e-07
2.0757458e-06
3.7369069e-07
1.9016842e-06
3.1463191e-07
1.7517621e-06
2.6913887e-07
1.6208639e-06
2.3367222e-07
1.5058494e-06
2.0447516e-07
1.403611e-06
1.8090305e-07
1.3119749e-06
1.6153004e-07
1.229353e-06
1.4516711e-07
1.1544245e-06
1.3124073e-07
1.0861198e-06
1.1928756e-07
1.0235616e-06
1.0895012e-07
9.6602061e-07
9.9949477e-08
9.1289134e-07
9.2064107e-08
8.6369286e-07
8.5030457e-08
8.1787444e-07
7.9021752e-08
7.7522403e-07
7.34179e-08
7.352321e-07
6.8674413e-08
6.977794e-07
6.4214124e-08
6.6260884e-07
6.018853e-08
6.295327e-07
5.6587684e-08
5.9808779e-07
5.3309494e-08
5.6835664e-07
5.0465961e-08
5.4049169e-07
4.7619633e-08
5.1383414e-07
4.5205246e-08
4.8842e-07
4.2998882e-08
4.6418854e-07
4.094558e-08
4.4104814e-07
3.9050527e-08
4.189121e-07
3.7305321e-08
3.977008e-07
3.5698514e-08
3.7734179e-07
3.4217989e-08
3.5777061e-07
3.2850283e-08
3.3892783e-07
3.1581913e-08
3.2074124e-07
3.0462162e-08
3.0318449e-07
2.9365816e-08
2.8620508e-07
2.836281e-08
2.6975447e-07
2.7448675e-08
2.537918e-07
2.6606906e-08
2.3828088e-07
2.5829062e-08
2.2322252e-07
2.5049799e-08
2.0852284e-07
2.4425145e-08
1.9416807e-07
2.3826853e-08
1.8013366e-07
2.3265062e-08
1.6645461e-07
2.2752977e-08
1.5300254e-07
2.2276303e-08
1.3979862e-07
2.1850755e-08
1.2682462e-07
2.1465273e-08
1.1405521e-07
2.1116015e-08
1.0146891e-07
2.0810193e-08
8.901442e-08
2.0537958e-08
7.6724218e-08
2.030164e-08
6.4560901e-08
2.0080764e-08
5.2496349e-08
1.9911227e-08
4.0553534e-08
1.9736856e-08
2.8762388e-08
1.9468829e-08
1.7333976e-08
1.8894349e-08
6.9123819e-09
1.7235368e-08
1.1512489e-08
2.9384829e-08
-8.6064627e-08
7.2335312e-08
-1.2390767e-07
1.1815656e-07
-1.3218755e-07
1.6459825e-07
-1.3421544e-07
2.1119824e-07
-1.347964e-07
2.5787025e-07
-1.3504004e-07
3.0459696e-07
-1.352303e-07
3.5138003e-07
-1.3544393e-07
3.982183e-07
-1.3569823e-07
4.4516663e-07
-1.35982e-07
4.9223734e-07
-1.3630852e-07
5.3943842e-07
-1.3668571e-07
5.867878e-07
-1.371138e-07
6.3430188e-07
-1.3759373e-07
6.8199568e-07
-1.3812692e-07
7.2988491e-07
-1.3871393e-07
7.7798584e-07
-1.3935471e-07
8.2631505e-07
-1.4004905e-07
8.7488891e-07
-1.4079672e-07
9.237254e-07
-1.4159828e-07
9.7283841e-07
-1.4245216e-07
1.0222541e-06
-1.4336358e-07
1.071967e-06
-1.4431795e-07
1.1220501e-06
-1.453553e-07
1.1723975e-06
-1.4637303e-07
1.2232796e-06
-1.4761542e-07
1.2742496e-06
-1.4853792e-07
1.3260785e-06
-1.5026923e-07
1.3777376e-06
-1.5060924e-07
1.430409e-06
-1.5362588e-07
1.4831948e-06
-1.5208361e-07
1.5363818e-06
-1.5843655e-07
1.5902941e-06
-1.5218084e-07
1.6450271e-06
-1.6451008e-07
1.6986533e-06
-1.5373342e-07
1.7555602e-06
-1.6517642e-07
1.810667e-06
-1.644649e-07
1.8663514e-06
-1.5936455e-07
1.9247829e-06
-1.7136651e-07
1.9820473e-06
-1.6901033e-07
2.0390337e-06
-1.6511307e-07
2.0983575e-06
-1.7400969e-07
2.1587767e-06
-1.7722154e-07
2.2177834e-06
-1.7174121e-07
2.2772266e-06
-1.758138e-07
2.3391084e-06
-1.8082471e-07
2.4023873e-06
-1.8358454e-07
2.4633927e-06
-1.808093e-07
2.52476e-06
-1.8081259e-07
2.5892349e-06
-1.8791472e-07
2.6549164e-06
-1.9174352e-07
2.7187167e-06
-1.8880812e-07
2.782655e-06
-1.8852883e-07
2.848658e-06
-1.9258097e-07
2.9151668e-06
-1.956974e-07
2.9827345e-06
-1.9884246e-07
3.0506609e-06
-1.9945716e-07
3.1175887e-06
-1.9721566e-07
3.185094e-06
-1.9845792e-07
3.2544026e-06
-2.0325758e-07
3.3243829e-06
-2.0648753e-07
3.3945877e-06
-2.0735269e-07
3.4653464e-06
-2.0746469e-07
3.5363185e-06
-2.0737718e-07
3.6067528e-06
-2.0774014e-07
3.6768074e-06
-2.0834109e-07
3.749053e-06
-2.1292923e-07
3.8241672e-06
-2.1912048e-07
3.8978968e-06
-2.1649396e-07
3.9711504e-06
-2.1486758e-07
4.0435471e-06
-2.1392192e-07
4.1156409e-06
-2.1411637e-07
4.1899893e-06
-2.1887541e-07
4.2660638e-06
-2.2291343e-07
4.3416866e-06
-2.2206097e-07
4.4186242e-06
-2.2440667e-07
4.4943815e-06
-2.231237e-07
4.5684409e-06
-2.1998459e-07
4.6438172e-06
-2.2312331e-07
4.719677e-06
-2.2413979e-07
4.7964315e-06
-2.251657e-07
4.8735749e-06
-2.2623524e-07
4.9512407e-06
-2.273231e-07
5.0293814e-06
-2.2812548e-07
5.107276e-06
-2.2840629e-07
5.1835363e-06
-2.2709298e-07
5.2605684e-06
-2.2778245e-07
5.339244e-06
-2.3099819e-07
5.4163759e-06
-2.2821126e-07
5.4937089e-06
-2.2665597e-07
5.5722497e-06
-2.2907189e-07
5.6495048e-06
-2.2660657e-07
5.7264365e-06
-2.2511863e-07
5.804519e-06
-2.2892625e-07
5.8827809e-06
-2.3050956e-07
5.9617561e-06
-2.3123273e-07
6.0407182e-06
-2.3128054e-07
6.1182162e-06
-2.2748157e-07
6.1941788e-06
-2.2272774e-07
6.2705147e-06
-2.2214103e-07
6.3469921e-06
-2.2309467e-07
6.4223918e-06
-2.2244764e-07
6.4976315e-06
-2.2318324e-07
6.5747512e-06
-2.2642671e-07
6.6525457e-06
-2.273423e-07
6.7292868e-06
-2.2349339e-07
6.8042407e-06
-2.1776616e-07
6.8780638e-06
-2.1396562e-07
6.9512039e-06
-2.1141309e-07
7.0256709e-06
-2.1236545e-07
7.1011087e-06
-2.1567807e-07
7.1762288e-06
-2.1783197e-07
7.2496696e-06
-2.1714547e-07
7.3222541e-06
-2.1585379e-07
7.3945093e-06
-2.1448222e-07
7.466305e-06
-2.1228194e-07
7.5364339e-06
-2.0782687e-07
7.6059524e-06
-2.0393808e-07
7.6759085e-06
-2.0161667e-07
7.7465609e-06
-1.9848492e-07
7.8168859e-06
-1.9346645e-07
7.8857707e-06
-1.897431e-07
7.9524797e-06
-1.8874574e-07
8.0189246e-06
-1.924219e-07
8.0873709e-06
-2.0001254e-07
8.1589313e-06
-2.0731618e-07
8.2325859e-06
-2.095507e-07
8.3053766e-06
-2.0364077e-07
8.3731788e-06
-1.8995992e-07
8.4346309e-06
-1.7534453e-07
8.4914133e-06
-1.667556e-07
8.5473904e-06
-1.6757037e-07
8.6065491e-06
-1.7562864e-07
8.6712174e-06
-1.8640985e-07
8.7404648e-06
-1.9380297e-07
8.8100415e-06
-1.9211385e-07
8.8756478e-06
-1.8158706e-07
8.936361e-06
-1.6777159e-07
8.9940703e-06
-1.5492616e-07
9.0506007e-06
-1.4397517e-07
9.1068316e-06
-1.3600965e-07
9.1632583e-06
-1.332404e-07
9.219432e-06
-1.3779994e-07
9.2751585e-06
-1.4983815e-07
9.3319262e-06
-1.684386e-07
9.3920744e-06
-1.8648718e-07
9.4556578e-06
-1.9290866e-07
9.5197261e-06
-1.8115554e-07
9.5795569e-06
-1.5204612e-07
9.6307164e-06
-1.1266444e-07
9.6707851e-06
-7.4541818e-08
9.7017256e-06
-4.9592989e-08
9.7297077e-06
-4.4948602e-08
9.7612257e-06
-5.8597458e-08
9.7999165e-06
-8.0284625e-08
9.8459293e-06
-9.9284157e-08
9.897423e-06
-1.1347387e-07
9.9513639e-06
-1.2559761e-07
1.0006662e-05
-1.3768813e-07
1.0062528e-05
-1.4790917e-07
1.0114644e-05
-1.5147034e-07
1.0158563e-05
-1.4677809e-07
1.0194649e-05
-1.368385e-07
1.0229466e-05
-1.2757474e-07
1.0271276e-05
-1.2485118e-07
1.0323342e-05
-1.2907504e-07
1.0385318e-05
-1.4245414e-07
1.0454851e-05
-1.6551879e-07
1.0524173e-05
-1.894503e-07
1.0582499e-05
-2.0375219e-07
1.0623838e-05
-2.080254e-07
1.0654493e-05
-2.0658021e-07
1.0684479e-05
-1.9365354e-07
1.0725149e-05
-1.6930465e-07
1.0792112e-05
-1.628562e-07
1.0889033e-05
-1.8920147e-07
1.1013992e-05
-2.5201358e-07
1.1181231e-05
-3.5893534e-07
1.1375357e-05
-4.3573411e-07
1.1563546e-05
-4.4391521e-07
1.171381e-05
-4.1474414e-07
1.1807864e-05
-3.5643474e-07
1.1875778e-05
-3.151947e-07
1.1928388e-05
-3.0654125e-07
1.1947669e-05
-3.1906558e-07
1.1745284e-05
-7.0829372e-08
1.119917e-05
4.2410635e-07
1.0118997e-05
1.240306e-06
8.2944658e-06
2.3751828e-06
6.2127854e-06
4.0095436e-06
5.1594666e-06
4.8679849e-06
4.6431846e-06
4.2981177e-06
4.3585084e-06
3.2161208e-06
3.9731134e-06
2.3406494e-06
3.5693663e-06
1.7365664e-06
3.2029586e-06
1.3244614e-06
2.8854215e-06
1.0377069e-06
2.6141226e-06
8.3352032e-07
2.3824084e-06
6.8445107e-07
2.1833861e-06
5.7271301e-07
2.0110143e-06
4.8700368e-07
1.8603456e-06
4.1980765e-07
1.7277742e-06
3.6624352e-07
1.6097998e-06
3.2244958e-07
1.5042249e-06
2.8647802e-07
1.4092389e-06
2.5651603e-07
1.3232114e-06
2.3119452e-07
1.2448789e-06
2.0957324e-07
1.17321e-06
1.9095648e-07
1.107355e-06
1.7480513e-07
1.0466063e-06
1.6069815e-07
9.9037153e-07
1.4829891e-07
9.3798101e-07
1.3742098e-07
8.8940541e-07
1.2759735e-07
8.4389349e-07
1.1892982e-07
8.0129271e-07
1.1127519e-07
7.6124762e-07
1.0425922e-07
7.2351151e-07
9.7924639e-08
6.8792688e-07
9.2172311e-08
6.5418677e-07
8.7049606e-08
6.2226289e-07
8.2389841e-08
5.9197675e-07
7.7905779e-08
5.631699e-07
7.4012092e-08
5.3569016e-07
7.0478621e-08
5.0944944e-07
6.7186307e-08
4.8435232e-07
6.414764e-08
4.6030995e-07
6.1347693e-08
4.3724103e-07
5.8767435e-08
4.1507088e-07
5.6388137e-08
3.9372619e-07
5.4194974e-08
3.7312821e-07
5.2179896e-08
3.5331207e-07
5.0278294e-08
3.3411677e-07
4.8561121e-08
3.1551467e-07
4.6964907e-08
2.9748313e-07
4.5480218e-08
2.7997906e-07
4.4110978e-08
2.6296494e-07
4.2843177e-08
2.4636566e-07
4.1649077e-08
2.3019832e-07
4.0592487e-08
2.1441004e-07
3.9615133e-08
1.9896701e-07
3.8708092e-08
1.8386682e-07
3.7853168e-08
1.6903891e-07
3.710421e-08
1.5446863e-07
3.6421042e-08
1.4014116e-07
3.5792738e-08
1.2603621e-07
3.5220962e-08
1.121205e-07
3.4725902e-08
9.8364605e-08
3.4293857e-08
8.4766963e-08
3.3899283e-08
7.1298233e-08
3.3549495e-08
5.7955532e-08
3.3253928e-08
4.4747265e-08
3.2945123e-08
3.1725195e-08
3.24909e-08
1.9107126e-08
3.1512419e-08
7.6124185e-09
2.8730075e-08
1.9124907e-08
2.9470816e-08
-1.1553544e-07
7.2385919e-08
-1.6682277e-07
1.1817491e-07
-1.7797654e-07
1.6461402e-07
-1.8065455e-07
2.1121283e-07
-1.8139521e-07
2.5787391e-07
-1.8170113e-07
3.0458504e-07
-1.8194142e-07
3.5135242e-07
-1.8221131e-07
3.9818898e-07
-1.8253479e-07
4.4512161e-07
-1.8291463e-07
4.9216773e-07
-1.8335464e-07
5.3934091e-07
-1.838589e-07
5.8665688e-07
-1.8442977e-07
6.3413169e-07
-1.8506853e-07
6.8178108e-07
-1.8577631e-07
7.2962124e-07
-1.8655409e-07
7.7766901e-07
-1.8740248e-07
8.2594146e-07
-1.883215e-07
8.7445574e-07
-1.8931099e-07
9.2322982e-07
-1.9037236e-07
9.7227985e-07
-1.915022e-07
1.0216274e-06
-1.9271111e-07
1.0712807e-06
-1.9397124e-07
1.1212807e-06
-1.9535537e-07
1.1715948e-06
-1.9668708e-07
1.222345e-06
-1.9836565e-07
1.2733567e-06
-1.9954959e-07
1.3249633e-06
-2.018758e-07
1.3767453e-06
-2.0239127e-07
1.4291763e-06
-2.0605688e-07
1.4820573e-06
-2.0496462e-07
1.534979e-06
-2.1135822e-07
1.5893194e-06
-2.0652129e-07
1.6430163e-06
-2.1820696e-07
1.697909e-06
-2.0862609e-07
1.7537133e-06
-2.2098079e-07
1.8088487e-06
-2.1960021e-07
1.8653453e-06
-2.1586119e-07
1.923149e-06
-2.2917019e-07
1.979819e-06
-2.2568033e-07
2.037525e-06
-2.228191e-07
2.0976267e-06
-2.3411143e-07
2.1563139e-06
-2.3590866e-07
2.2154225e-06
-2.308499e-07
2.2762859e-06
-2.3667715e-07
2.3383089e-06
-2.4284768e-07
2.3997485e-06
-2.4502418e-07
2.4608303e-06
-2.4189108e-07
2.5237228e-06
-2.4370509e-07
2.5886297e-06
-2.5282165e-07
2.6535653e-06
-2.5667914e-07
2.7159328e-06
-2.5117559e-07
2.7798436e-06
-2.5243964e-07
2.8480726e-06
-2.6080998e-07
2.9159522e-06
-2.6357698e-07
2.9815626e-06
-2.6445283e-07
3.0469246e-06
-2.6481919e-07
3.114581e-06
-2.6487209e-07
3.1846721e-06
-2.68549e-07
3.2556025e-06
-2.7418797e-07
3.3244794e-06
-2.7536439e-07
3.3927893e-06
-2.7566258e-07
3.4619286e-06
-2.7660404e-07
3.5331285e-06
-2.7857703e-07
3.6062025e-06
-2.8081419e-07
3.6787e-06
-2.8083857e-07
3.7511862e-06
-2.8541543e-07
3.8237824e-06
-2.9171669e-07
3.8939825e-06
-2.8669402e-07
3.9674533e-06
-2.8833838e-07
4.0422321e-06
-2.8870076e-07
4.1165772e-06
-2.8846148e-07
4.1926731e-06
-2.9497125e-07
4.2678086e-06
-2.9804902e-07
4.3413571e-06
-2.9560941e-07
4.4175745e-06
-3.0062411e-07
4.4929732e-06
-2.9852233e-07
4.5670936e-06
-2.9410507e-07
4.6431742e-06
-2.992039e-07
4.7203349e-06
-3.013005e-07
4.7976086e-06
-3.0243937e-07
4.8750554e-06
-3.0368202e-07
4.9532658e-06
-3.0553354e-07
5.0316122e-06
-3.0647187e-07
5.1091976e-06
-3.0599168e-07
5.1839114e-06
-3.0180676e-07
5.260419e-06
-3.0429009e-07
5.3391785e-06
-3.0975766e-07
5.4155632e-06
-3.0459604e-07
5.4930408e-06
-3.0413347e-07
5.5731917e-06
-3.0922288e-07
5.6529598e-06
-3.0637466e-07
5.7319343e-06
-3.040931e-07
5.8096857e-06
-3.0667771e-07
5.8871674e-06
-3.0799117e-07
5.9651241e-06
-3.0918948e-07
6.0419409e-06
-3.0809732e-07
6.1173238e-06
-3.0286449e-07
6.1933009e-06
-2.987048e-07
6.2716087e-06
-3.0044883e-07
6.3503727e-06
-3.0185873e-07
6.4264506e-06
-2.9852553e-07
6.5009334e-06
-2.9766606e-07
6.5762171e-06
-3.0171039e-07
6.6533224e-06
-3.0444764e-07
6.7310764e-06
-3.0124735e-07
6.8083897e-06
-2.9507942e-07
6.8834934e-06
-2.8906935e-07
6.9575186e-06
-2.8543832e-07
7.032741e-06
-2.8758783e-07
7.1087231e-06
-2.9166018e-07
7.1829475e-06
-2.9205635e-07
7.253906e-06
-2.8810402e-07
7.3223408e-06
-2.8428852e-07
7.3913773e-06
-2.8351873e-07
7.4619074e-06
-2.8281206e-07
7.5328469e-06
-2.7876638e-07
7.6029947e-06
-2.740859e-07
7.6741115e-06
-2.7273345e-07
7.7485744e-06
-2.7294785e-07
7.826171e-06
-2.7106302e-07
7.9027691e-06
-2.663412e-07
7.9732149e-06
-2.5919156e-07
8.0371775e-06
-2.563845e-07
8.098266e-06
-2.6110098e-07
8.1593878e-06
-2.6843801e-07
8.2236635e-06
-2.7382634e-07
8.2917827e-06
-2.7175999e-07
8.3615152e-06
-2.5969244e-07
8.4295814e-06
-2.4341078e-07
8.4937914e-06
-2.3096551e-07
8.5539246e-06
-2.2770363e-07
8.6125884e-06
-2.3429246e-07
8.6737448e-06
-2.4756616e-07
8.7389129e-06
-2.5897115e-07
8.8060872e-06
-2.592881e-07
8.871237e-06
-2.4673685e-07
8.9330465e-06
-2.2958109e-07
8.9939341e-06
-2.1581374e-07
9.0561282e-06
-2.0616934e-07
9.1196407e-06
-1.9952209e-07
9.1837902e-06
-1.973899e-07
9.2469685e-06
-2.0097823e-07
9.3075895e-06
-2.1045921e-07
9.364088e-06
-2.2493712e-07
9.4158819e-06
-2.3828101e-07
9.4628242e-06
-2.39851e-07
9.5049742e-06
-2.2330551e-07
9.542817e-06
-1.898889e-07
9.5788951e-06
-1.4874257e-07
9.6174936e-06
-1.1314031e-07
9.6622265e-06
-9.4325886e-08
9.7146141e-06
-9.7336176e-08
9.7731757e-06
-1.1715913e-07
9.8338078e-06
-1.4091669e-07
9.8906729e-06
-1.561493e-07
9.9392801e-06
-1.6208099e-07
9.9792708e-06
-1.6558838e-07
1.0012639e-05
-1.7105601e-07
1.00412e-05
-1.7647082e-07
1.0067022e-05
-1.7729152e-07
1.0093259e-05
-1.7301593e-07
1.0123697e-05
-1.6727626e-07
1.0168893e-05
-1.7277111e-07
1.0237936e-05
-1.9389377e-07
1.0325564e-05
-2.1670267e-07
1.0416499e-05
-2.3338967e-07
1.0493826e-05
-2.4284601e-07
1.0544935e-05
-2.4055872e-07
1.0569303e-05
-2.2812001e-07
1.058524e-05
-2.2396263e-07
1.0623552e-05
-2.4489273e-07
1.0703149e-05
-2.7325007e-07
1.0826284e-05
-2.9243992e-07
1.0993797e-05
-3.3036894e-07
1.1182219e-05
-3.7762327e-07
1.1339941e-05
-4.0973532e-07
1.1476205e-05
-4.9519968e-07
1.1608267e-05
-5.6779587e-07
1.166851e-05
-5.0415863e-07
1.159845e-05
-3.446838e-07
1.1353667e-05
-1.1165237e-07
1.0951696e-05
8.6777098e-08
1.0553065e-05
9.2088927e-08
1.0075915e-05
1.5808515e-07
9.2279369e-06
7.771484e-07
7.9133369e-06
1.7387063e-06
6.3179045e-06
2.8357385e-06
4.2298142e-06
4.4632731e-06
3.2719878e-06
4.96737e-06
3.3875609e-06
4.7524118e-06
3.6400849e-06
4.0455936e-06
3.6698588e-06
3.1863469e-06
3.5058092e-06
2.504699e-06
3.2635802e-06
1.9787953e-06
3.0059918e-06
1.5820499e-06
2.7606976e-06
1.2830011e-06
2.5364949e-06
1.057723e-06
2.3357543e-06
8.8519165e-07
2.1574961e-06
7.5097124e-07
1.9991894e-06
6.4531032e-07
1.8582217e-06
5.6077536e-07
1.7322586e-06
4.9220669e-07
1.6189695e-06
4.3573863e-07
1.516701e-06
3.8874657e-07
1.4239823e-06
3.4923469e-07
1.3395193e-06
3.1565753e-07
1.2622361e-06
2.8685643e-07
1.1912342e-06
2.6195836e-07
1.1257619e-06
2.4027742e-07
1.0651783e-06
2.2128174e-07
1.0089246e-06
2.0455265e-07
9.5660022e-07
1.8974536e-07
9.0765818e-07
1.7653939e-07
8.6178455e-07
1.6480346e-07
8.1886465e-07
1.5419508e-07
7.7846325e-07
1.4466062e-07
7.4032772e-07
1.3606017e-07
7.0420687e-07
1.2829316e-07
6.7011959e-07
1.2113689e-07
6.3780545e-07
1.1470398e-07
6.0695809e-07
1.0875314e-07
5.7760204e-07
1.0336814e-07
5.4963271e-07
9.8447955e-08
5.2290622e-07
9.3912796e-08
4.973223e-07
8.973156e-08
4.7279231e-07
8.5877678e-08
4.4923615e-07
8.2323595e-08
4.2658066e-07
7.9043628e-08
4.047605e-07
7.601514e-08
3.8372264e-07
7.3217753e-08
3.633725e-07
7.0628429e-08
3.4369376e-07
6.8239867e-08
3.2463868e-07
6.6019989e-08
3.0615155e-07
6.3967346e-08
2.8819163e-07
6.2070898e-08
2.7071758e-07
6.0317221e-08
2.5367393e-07
5.8692734e-08
2.3705835e-07
5.7208067e-08
2.2083123e-07
5.5842249e-08
2.0495691e-07
5.458241e-08
1.8939729e-07
5.341279e-08
1.7413374e-07
5.2367765e-08
1.5914042e-07
5.1414356e-08
1.4438803e-07
5.0545133e-08
1.2985257e-07
4.9756416e-08
1.1551516e-07
4.9063317e-08
1.0135505e-07
4.845397e-08
8.7343702e-08
4.7910629e-08
7.3460486e-08
4.7432711e-08
5.9705058e-08
4.7009356e-08
4.6085358e-08
4.6564823e-08
3.2661391e-08
4.5914868e-08
1.9656692e-08