/*--------------------------------*- C++ -*----------------------------------*\
| =========                 |                                                 |
| \\      /  F ield         | OpenFOAM: The Open Source CFD Toolbox           |
|  \\    /   O peration     | Version:  2106                                  |
|   \\  /    A nd           | Website:  www.openfoam.com                      |
|    \\/     M anipulation  |                                                 |
\*---------------------------------------------------------------------------*/
FoamFile
{
    version     2.0;
    format      ascii;
    arch        "LSB;label=32;scalar=64";
    class       volVectorField;
    location    "0.13";
    object      U_0;
}
// * * * * * * * * * * * * * * * * * * * * * * * * * * * * * * * * * * * * * //

dimensions      [0 1 -1 0 0 0 0];

internalField   nonuniform List<vector> 
32768
(
(0.0011580177 -0.0014071246 0)
(0.0050218642 -0.0018088922 0)
(0.009484245 -0.0019155617 0)
(0.01407584 -0.0019667388 0)
(0.018687746 -0.0019823516 0)
(0.023316235 -0.0019872022 0)
(0.027956003 -0.0019912706 0)
(0.032604734 -0.0019972304 0)
(0.037265907 -0.0020037456 0)
(0.041951888 -0.0020330057 0)
(0.046659309 -0.0020720665 0)
(0.051386939 -0.0021145771 0)
(0.056134768 -0.0021575009 0)
(0.060903112 -0.0021996583 0)
(0.06569287 -0.0022402256 0)
(0.070505591 -0.0022790009 0)
(0.075343061 -0.0023162329 0)
(0.080207075 -0.0023522731 0)
(0.085099496 -0.0023874962 0)
(0.090022101 -0.002422141 0)
(0.094977095 -0.0024566824 0)
(0.099965746 -0.0024908432 0)
(0.1049917 -0.0025260178 0)
(0.11005328 -0.0025597317 0)
(0.11516007 -0.0025974601 0)
(0.12029961 -0.0026293296 0)
(0.12549915 -0.0026724098 0)
(0.13072077 -0.0027009228 0)
(0.13602273 -0.0027493031 0)
(0.14133858 -0.0027806568 0)
(0.14673799 -0.0028199131 0)
(0.15217502 -0.0028776974 0)
(0.15766178 -0.0028787967 0)
(0.16322707 -0.0029862108 0)
(0.16883226 -0.0029499568 0)
(0.17451107 -0.0030597577 0)
(0.18021953 -0.0030938402 0)
(0.18607445 -0.0030803231 0)
(0.19188464 -0.0032229508 0)
(0.19779976 -0.0032067134 0)
(0.20389724 -0.0032352403 0)
(0.20986393 -0.003364884 0)
(0.21596159 -0.0033509478 0)
(0.22230093 -0.0033886216 0)
(0.22851091 -0.0035042837 0)
(0.23474484 -0.0034988673 0)
(0.24124486 -0.0035452327 0)
(0.24777847 -0.0036530872 0)
(0.25425152 -0.0036560817 0)
(0.26081463 -0.0036845339 0)
(0.26752697 -0.0037902843 0)
(0.27433044 -0.003838138 0)
(0.28115084 -0.0038427691 0)
(0.28797401 -0.0039036398 0)
(0.29485801 -0.0039733252 0)
(0.30188827 -0.0040065861 0)
(0.30904698 -0.0040661308 0)
(0.31619179 -0.0041281524 0)
(0.3232894 -0.0041340784 0)
(0.33046979 -0.0041577266 0)
(0.33779206 -0.0042518161 0)
(0.34520074 -0.0043276013 0)
(0.35265483 -0.0043377383 0)
(0.36012192 -0.0043551441 0)
(0.36757053 -0.0044039827 0)
(0.37504912 -0.0044394897 0)
(0.38262631 -0.0044805004 0)
(0.39031954 -0.004553177 0)
(0.39810298 -0.004603675 0)
(0.4058773 -0.0046220534 0)
(0.41359368 -0.0046257641 0)
(0.4213199 -0.0046397192 0)
(0.42910173 -0.0046943251 0)
(0.43697652 -0.0047585582 0)
(0.44495142 -0.0048013191 0)
(0.45295191 -0.0048371478 0)
(0.46095634 -0.0048587874 0)
(0.46896625 -0.0048722429 0)
(0.47695497 -0.0049000703 0)
(0.48498294 -0.0049156943 0)
(0.49307722 -0.0049423243 0)
(0.50117325 -0.0049909531 0)
(0.50926581 -0.0050147571 0)
(0.51740838 -0.0050265162 0)
(0.52558589 -0.0050635475 0)
(0.53375661 -0.0050864019 0)
(0.54194679 -0.0050905898 0)
(0.55016338 -0.0051220953 0)
(0.55839013 -0.0051229598 0)
(0.56659612 -0.0051102229 0)
(0.57472935 -0.0051343227 0)
(0.58283868 -0.0051238781 0)
(0.59096182 -0.0051111247 0)
(0.59905455 -0.0051556616 0)
(0.60718483 -0.00517315 0)
(0.61541619 -0.0051699258 0)
(0.62366007 -0.0052012216 0)
(0.631829 -0.0051955488 0)
(0.6398999 -0.005140013 0)
(0.64785824 -0.0051138954 0)
(0.65574478 -0.005114094 0)
(0.66364556 -0.0050982925 0)
(0.67159844 -0.0050867573 0)
(0.67958422 -0.0051014608 0)
(0.6875772 -0.0051038324 0)
(0.69554392 -0.0050647447 0)
(0.70339199 -0.0050236387 0)
(0.711029 -0.0049974348 0)
(0.71850121 -0.0049495011 0)
(0.72592592 -0.0049033017 0)
(0.73336427 -0.004907212 0)
(0.74086199 -0.0049453163 0)
(0.74846037 -0.0049611482 0)
(0.75612023 -0.0049241091 0)
(0.76374097 -0.0048563775 0)
(0.77124317 -0.0047925477 0)
(0.77860893 -0.0047187926 0)
(0.78582984 -0.0046445463 0)
(0.79286164 -0.004568961 0)
(0.79968734 -0.00449292 0)
(0.80633063 -0.0043899154 0)
(0.81281275 -0.0043347111 0)
(0.81919827 -0.0043365863 0)
(0.82562879 -0.0043592083 0)
(0.83224722 -0.0043912416 0)
(0.83910541 -0.0044275854 0)
(0.84610763 -0.0044344971 0)
(0.8530389 -0.0043580513 0)
(0.85968813 -0.0041984375 0)
(0.86594308 -0.0040142604 0)
(0.87183393 -0.0038675826 0)
(0.87754449 -0.0037846067 0)
(0.88331809 -0.0037678293 0)
(0.88929721 -0.0037718386 0)
(0.89545075 -0.0037631916 0)
(0.9016165 -0.0036663853 0)
(0.90757854 -0.0034684125 0)
(0.91316118 -0.00317189 0)
(0.91829532 -0.0029888378 0)
(0.92295632 -0.0029544219 0)
(0.92717874 -0.0029915699 0)
(0.93111171 -0.0029789865 0)
(0.93500448 -0.0029195528 0)
(0.93919962 -0.0028310846 0)
(0.94405822 -0.0027230092 0)
(0.94966223 -0.0024905485 0)
(0.95573864 -0.0018219838 0)
(0.96053366 -0.0010014863 0)
(0.96393587 -0.00048319492 0)
(0.9659099 -0.00032022316 0)
(0.96678118 -0.00035804109 0)
(0.96717781 -0.00034953679 0)
(0.96754807 -0.00013542205 0)
(0.9680455 0.00018016844 0)
(0.96892207 0.00068977973 0)
(0.97022553 0.0015519947 0)
(0.97108349 0.0019422685 0)
(0.97193771 0.0014807948 0)
(0.97356704 0.00026368131 0)
(0.97658521 -0.0011004381 0)
(0.9806587 -0.0020520737 0)
(0.98541999 -0.0026945177 0)
(0.99068044 -0.0032152737 0)
(0.99619049 -0.00367198 0)
(1.0017133 -0.0040999063 0)
(1.0071599 -0.0045176032 0)
(1.012704 -0.0048923348 0)
(1.0187429 -0.0051935132 0)
(1.0257379 -0.0053996831 0)
(1.0339819 -0.005512091 0)
(1.0434449 -0.0055555923 0)
(1.0537737 -0.0055048422 0)
(1.0642929 -0.005343871 0)
(1.0740427 -0.005189501 0)
(1.082228 -0.0053444177 0)
(1.0888809 -0.0059358843 0)
(1.09526 -0.0068682753 0)
(1.1032565 -0.007770593 0)
(1.1138096 -0.0077043506 0)
(1.1265128 -0.0066716106 0)
(1.1407395 -0.0062986685 0)
(1.155658 -0.0073539644 0)
(1.1700967 -0.0093577384 0)
(1.1837224 -0.011476764 0)
(1.1982741 -0.013147585 0)
(1.2149866 -0.014223454 0)
(1.2322788 -0.01747736 0)
(1.2485009 -0.026988597 0)
(1.2579381 -0.024707137 0)
(1.2040105 -0.014497864 0)
(1.0193903 -0.0062215836 0)
(1.0664393 0.1040126 0)
(0.61106994 0.10462179 0)
(0.46348612 0.066608732 0)
(0.373939 0.039002113 0)
(0.30617022 0.024762016 0)
(0.26065102 0.017184925 0)
(0.22695896 0.012747838 0)
(0.20089663 0.0099100803 0)
(0.18000051 0.0079662718 0)
(0.16278142 0.0065651726 0)
(0.14830413 0.0055197961 0)
(0.13591671 0.0046791971 0)
(0.12518324 0.0042540876 0)
(0.11579459 0.0036048303 0)
(0.107493 0.003143885 0)
(0.10009103 0.0027829074 0)
(0.093445958 0.0024853447 0)
(0.087446249 0.0022342924 0)
(0.082000539 0.0020196923 0)
(0.077034158 0.0018346136 0)
(0.072483059 0.0016736432 0)
(0.068302041 0.0015377364 0)
(0.064438698 0.0013168466 0)
(0.060859966 0.0012824329 0)
(0.057534044 0.0011173384 0)
(0.054430295 0.0010989169 0)
(0.051533685 0.0010367002 0)
(0.048817225 0.00097319485 0)
(0.04627882 0.00091355496 0)
(0.043893386 0.00085355136 0)
(0.041628168 0.00085199079 0)
(0.039485717 0.00075722185 0)
(0.037461894 0.00070947448 0)
(0.035542545 0.0006711372 0)
(0.033716654 0.00063623521 0)
(0.031977042 0.00060413333 0)
(0.030317058 0.000574611 0)
(0.028730448 0.00054745756 0)
(0.027211186 0.00052240399 0)
(0.025755245 0.00049819325 0)
(0.024354815 0.00044545633 0)
(0.023006344 0.00045378908 0)
(0.021708407 0.0004403104 0)
(0.020455401 0.0004246397 0)
(0.019244055 0.00040976145 0)
(0.018070239 0.00039701572 0)
(0.01693351 0.00040510949 0)
(0.015830052 0.00037405383 0)
(0.014755141 0.00036021728 0)
(0.013708078 0.00034880756 0)
(0.012683354 0.00033908558 0)
(0.011681564 0.00033121022 0)
(0.010703362 0.0003250413 0)
(0.0097439236 0.00031992836 0)
(0.0088013157 0.00032520737 0)
(0.0078738285 0.00030940328 0)
(0.0069607809 0.0002950284 0)
(0.0060595942 0.00029924096 0)
(0.0051680649 0.00030221084 0)
(0.0042853503 0.00029287289 0)
(0.0034090591 0.00028950209 0)
(0.0025412925 0.00028642319 0)
(0.001688645 0.00028209945 0)
(0.00086000256 0.0002611802 0)
(0.00019311445 0.0001906877 0)
(0.0011420257 -0.0047018826 0)
(0.0055215397 -0.006645962 0)
(0.010729234 -0.0070963436 0)
(0.015925539 -0.0072334159 0)
(0.021166173 -0.0072730379 0)
(0.026422358 -0.0072874181 0)
(0.031686711 -0.0072992668 0)
(0.036956297 -0.007313394 0)
(0.042238189 -0.0073372784 0)
(0.047512971 -0.0073469994 0)
(0.052787089 -0.0073495317 0)
(0.058066178 -0.0073503547 0)
(0.063354725 -0.0073532248 0)
(0.068656204 -0.007359863 0)
(0.073973758 -0.0073705289 0)
(0.079310003 -0.0073852256 0)
(0.084667442 -0.0074039907 0)
(0.090048412 -0.0074267853 0)
(0.095455439 -0.0074535997 0)
(0.10089008 -0.0074841483 0)
(0.10635637 -0.0075188962 0)
(0.11185148 -0.0075562254 0)
(0.11738984 -0.0075998834 0)
(0.12294452 -0.0076408082 0)
(0.12858144 -0.0076979268 0)
(0.13417049 -0.0077352072 0)
(0.13996852 -0.0078102639 0)
(0.14551983 -0.007852987 0)
(0.15158624 -0.0078957483 0)
(0.15701119 -0.0080752958 0)
(0.16340645 -0.0078361964 0)
(0.16875485 -0.0085042026 0)
(0.17531978 -0.0076590017 0)
(0.18085179 -0.0088455284 0)
(0.18733739 -0.0079310979 0)
(0.19326475 -0.0084876291 0)
(0.19946507 -0.008827766 0)
(0.20608812 -0.0081247697 0)
(0.2118475 -0.0089197816 0)
(0.21868958 -0.0089135442 0)
(0.22529175 -0.0085125318 0)
(0.23117963 -0.0090774546 0)
(0.23824845 -0.0091995645 0)
(0.24519933 -0.0088809795 0)
(0.25128839 -0.0092687711 0)
(0.25822828 -0.009335038 0)
(0.26550231 -0.0093549781 0)
(0.27224848 -0.0095380462 0)
(0.27905166 -0.0094705446 0)
(0.28615981 -0.0095973233 0)
(0.29343915 -0.0098392244 0)
(0.30071297 -0.0098760577 0)
(0.30791918 -0.0098103325 0)
(0.31509898 -0.0098942022 0)
(0.32240409 -0.010107812 0)
(0.33005901 -0.010218653 0)
(0.33779102 -0.010240677 0)
(0.34520769 -0.010254005 0)
(0.35260119 -0.010275551 0)
(0.3603256 -0.010373279 0)
(0.36818964 -0.010557809 0)
(0.37605813 -0.010680203 0)
(0.38399835 -0.010645705 0)
(0.39188893 -0.01058943 0)
(0.39965581 -0.010675611 0)
(0.40755289 -0.01074105 0)
(0.41562719 -0.010835822 0)
(0.42387728 -0.011047982 0)
(0.43224485 -0.01102047 0)
(0.44037156 -0.010964237 0)
(0.448424 -0.010945757 0)
(0.45658573 -0.010932404 0)
(0.46477968 -0.011078068 0)
(0.47319305 -0.011237461 0)
(0.48172774 -0.011215555 0)
(0.49015398 -0.011274241 0)
(0.49865972 -0.011280322 0)
(0.50710321 -0.011177585 0)
(0.51543166 -0.011288348 0)
(0.5240083 -0.011312739 0)
(0.53261625 -0.011283339 0)
(0.54111797 -0.011345789 0)
(0.54965563 -0.011366958 0)
(0.55839124 -0.011352153 0)
(0.56705141 -0.01136857 0)
(0.57567047 -0.011438171 0)
(0.58441105 -0.011379173 0)
(0.59313033 -0.011466239 0)
(0.60191551 -0.011435619 0)
(0.61063422 -0.011238153 0)
(0.61914147 -0.011306535 0)
(0.62781659 -0.011252937 0)
(0.63647128 -0.011093266 0)
(0.64497834 -0.011241531 0)
(0.65376297 -0.011378721 0)
(0.66274142 -0.011297566 0)
(0.67159341 -0.011318219 0)
(0.68030367 -0.01122564 0)
(0.68889202 -0.010945752 0)
(0.69731604 -0.010777694 0)
(0.70572908 -0.01085471 0)
(0.71425746 -0.010876929 0)
(0.72290059 -0.010908956 0)
(0.73158171 -0.010994501 0)
(0.74029499 -0.011037143 0)
(0.74902946 -0.010812445 0)
(0.75750944 -0.010494741 0)
(0.76560711 -0.010270045 0)
(0.77363577 -0.01010666 0)
(0.78173633 -0.0099905074 0)
(0.78985328 -0.010116023 0)
(0.79812877 -0.010273817 0)
(0.80664007 -0.01040266 0)
(0.8152077 -0.010438889 0)
(0.82361441 -0.010402817 0)
(0.83181794 -0.010228527 0)
(0.83998057 -0.0099550301 0)
(0.84808906 -0.0096260134 0)
(0.85593226 -0.0094528639 0)
(0.86349514 -0.009229192 0)
(0.87081143 -0.0088332084 0)
(0.87792517 -0.0085243049 0)
(0.88499657 -0.0085410291 0)
(0.89227865 -0.0088003646 0)
(0.89998609 -0.0091569244 0)
(0.90818547 -0.0094588686 0)
(0.91655074 -0.009588962 0)
(0.92461772 -0.0093751302 0)
(0.93212916 -0.0087755135 0)
(0.93905442 -0.008122991 0)
(0.94558679 -0.0077657958 0)
(0.9521407 -0.0077872748 0)
(0.95909269 -0.0080504616 0)
(0.9665436 -0.0083647948 0)
(0.97436805 -0.0085211206 0)
(0.98228956 -0.008476225 0)
(0.98989768 -0.0082052182 0)
(0.99693333 -0.0077090322 0)
(1.0033397 -0.0069060644 0)
(1.0090275 -0.0059927407 0)
(1.014076 -0.0051949999 0)
(1.0187905 -0.0048170971 0)
(1.0235359 -0.0051902664 0)
(1.028853 -0.0063316611 0)
(1.0353469 -0.0079297019 0)
(1.0431802 -0.0091254086 0)
(1.0520472 -0.009042701 0)
(1.0612962 -0.0074801354 0)
(1.0698423 -0.0050391027 0)
(1.0765203 -0.0025860935 0)
(1.0807635 -0.00093566671 0)
(1.0829069 -0.00035266327 0)
(1.0840724 -0.00067748223 0)
(1.0856013 -0.0016603323 0)
(1.0883717 -0.0028479858 0)
(1.0925695 -0.0035155081 0)
(1.0979374 -0.0036050179 0)
(1.1042133 -0.0038048564 0)
(1.1113175 -0.0046417007 0)
(1.1181522 -0.0058410001 0)
(1.1247627 -0.0068371625 0)
(1.1313606 -0.0074602204 0)
(1.1375268 -0.0076840515 0)
(1.1429822 -0.00749106 0)
(1.1472288 -0.0070319273 0)
(1.1504828 -0.0065999559 0)
(1.1533437 -0.0067465823 0)
(1.1568558 -0.0078946038 0)
(1.1617271 -0.0099796796 0)
(1.1683687 -0.012331888 0)
(1.1764737 -0.014411179 0)
(1.1856996 -0.015586007 0)
(1.1947491 -0.015279822 0)
(1.2017672 -0.013120727 0)
(1.2056697 -0.010020428 0)
(1.2081266 -0.0073387417 0)
(1.2127637 -0.0069531848 0)
(1.222462 -0.010263743 0)
(1.2368594 -0.015788072 0)
(1.252586 -0.021148064 0)
(1.267613 -0.024421115 0)
(1.2818327 -0.022963594 0)
(1.2954901 -0.017515239 0)
(1.309782 -0.014187201 0)
(1.3259372 -0.017165183 0)
(1.3386725 -0.023042221 0)
(1.3401282 -0.02863184 0)
(1.3143635 -0.0086460997 0)
(1.2284192 0.01987581 0)
(1.0609857 0.033892052 0)
(1.0951257 0.44632929 0)
(0.77640588 0.35606781 0)
(0.58573018 0.28635519 0)
(0.51411981 0.18770586 0)
(0.44053979 0.12019219 0)
(0.38182326 0.082675294 0)
(0.3357018 0.060391266 0)
(0.29866099 0.046327881 0)
(0.26847234 0.036891915 0)
(0.24344605 0.030218478 0)
(0.22234249 0.025301285 0)
(0.20428792 0.021539131 0)
(0.18861991 0.01866663 0)
(0.17489035 0.016085724 0)
(0.16275964 0.014286483 0)
(0.15192957 0.012755073 0)
(0.14219128 0.011447217 0)
(0.13338401 0.010329088 0)
(0.12537598 0.0093692441 0)
(0.11805853 0.0085403041 0)
(0.11134236 0.0078197121 0)
(0.10515193 0.007190686 0)
(0.099429058 0.0066207871 0)
(0.094112604 0.0062418552 0)
(0.089164637 0.0057224726 0)
(0.084540839 0.0054126607 0)
(0.080207096 0.004994752 0)
(0.07614319 0.0046606283 0)
(0.072323512 0.0043806951 0)
(0.068716805 0.0040506352 0)
(0.065290974 0.003868557 0)
(0.062064978 0.0036608629 0)
(0.05901649 0.0034701289 0)
(0.056103103 0.003296941 0)
(0.05332403 0.0031365438 0)
(0.050672334 0.002988252 0)
(0.048138222 0.0028516139 0)
(0.045712097 0.0027258033 0)
(0.043385417 0.0026098937 0)
(0.04115037 0.0025028859 0)
(0.039000282 0.0024040531 0)
(0.036927534 0.0023509069 0)
(0.034926953 0.0022365186 0)
(0.032993772 0.002153246 0)
(0.031122364 0.0020812085 0)
(0.029308127 0.0020155329 0)
(0.027546098 0.001954113 0)
(0.025835024 0.0018718915 0)
(0.024169373 0.0018421818 0)
(0.022542928 0.0017982645 0)
(0.020953671 0.0017549506 0)
(0.019402078 0.0017320305 0)
(0.017883575 0.0016800564 0)
(0.016391395 0.0016454686 0)
(0.014925805 0.0016150029 0)
(0.013484683 0.0015766416 0)
(0.012065439 0.0015643498 0)
(0.010663553 0.0015450347 0)
(0.0092781049 0.0015261962 0)
(0.0079092209 0.0015020454 0)
(0.006552624 0.0014953339 0)
(0.0052075233 0.0014875323 0)
(0.0038756273 0.0014633738 0)
(0.0025669836 0.0014201957 0)
(0.0013075695 0.001293762 0)
(0.00026823443 0.00086361784 0)
(0.0011473954 -0.0079912665 0)
(0.0055074813 -0.011474449 0)
(0.010664411 -0.012240514 0)
(0.015829148 -0.012429501 0)
(0.02104075 -0.012483548 0)
(0.026265008 -0.012506354 0)
(0.031495097 -0.012524631 0)
(0.036731258 -0.012545827 0)
(0.041973731 -0.012570338 0)
(0.047225304 -0.01259976 0)
(0.052489765 -0.01263562 0)
(0.057768495 -0.012678121 0)
(0.063062973 -0.012727055 0)
(0.068374982 -0.01278188 0)
(0.07370628 -0.012842313 0)
(0.079058593 -0.012908091 0)
(0.084433731 -0.012978992 0)
(0.08983344 -0.013054857 0)
(0.095259886 -0.013135597 0)
(0.10071403 -0.013221161 0)
(0.10620043 -0.013311552 0)
(0.11171381 -0.01340677 0)
(0.1172746 -0.013506691 0)
(0.12283999 -0.013612044 0)
(0.12851414 -0.013720134 0)
(0.13407929 -0.01383929 0)
(0.13997951 -0.013946566 0)
(0.14538726 -0.014099451 0)
(0.15174273 -0.014163702 0)
(0.15676389 -0.014435631 0)
(0.16373597 -0.014295717 0)
(0.16845147 -0.014959483 0)
(0.17563485 -0.014240868 0)
(0.18077393 -0.015625949 0)
(0.18739011 -0.014375277 0)
(0.19343293 -0.015641951 0)
(0.1995119 -0.015549005 0)
(0.20615416 -0.01496305 0)
(0.21198264 -0.016257264 0)
(0.21888901 -0.015984595 0)
(0.22527922 -0.015557703 0)
(0.23135617 -0.016490586 0)
(0.23852568 -0.016821477 0)
(0.24518381 -0.01620854 0)
(0.251457 -0.016671531 0)
(0.25854793 -0.017160454 0)
(0.26553645 -0.01741608 0)
(0.27241196 -0.017162391 0)
(0.27934993 -0.017134349 0)
(0.2862763 -0.017866509 0)
(0.29358758 -0.018240148 0)
(0.30101793 -0.017973876 0)
(0.30806885 -0.017915635 0)
(0.31521376 -0.018273996 0)
(0.32274067 -0.018664717 0)
(0.33031612 -0.019006251 0)
(0.33786284 -0.019028959 0)
(0.34538829 -0.018754388 0)
(0.35293062 -0.018871822 0)
(0.36061904 -0.019423877 0)
(0.36835139 -0.019821348 0)
(0.37622742 -0.019854805 0)
(0.38419995 -0.019777834 0)
(0.39211525 -0.0197525 0)
(0.39995658 -0.019873072 0)
(0.40789375 -0.020030472 0)
(0.41577544 -0.020457345 0)
(0.42398943 -0.020986586 0)
(0.43248764 -0.020748229 0)
(0.44063459 -0.020543642 0)
(0.44875512 -0.020530654 0)
(0.45687055 -0.020647848 0)
(0.46488668 -0.021058075 0)
(0.47337094 -0.021418904 0)
(0.48196141 -0.021356712 0)
(0.4903795 -0.02152016 0)
(0.49900881 -0.021490442 0)
(0.50742326 -0.021275549 0)
(0.5155931 -0.02156521 0)
(0.5241862 -0.02165464 0)
(0.53275052 -0.021710018 0)
(0.54123831 -0.021798045 0)
(0.54993915 -0.021906602 0)
(0.55876488 -0.021992586 0)
(0.56740713 -0.022086407 0)
(0.57605787 -0.022096379 0)
(0.58463922 -0.022133699 0)
(0.5932185 -0.022390154 0)
(0.60215395 -0.022156969 0)
(0.61074845 -0.021948112 0)
(0.6192619 -0.022140434 0)
(0.62823246 -0.021946927 0)
(0.63686405 -0.021828931 0)
(0.64527972 -0.022264695 0)
(0.65419737 -0.022475572 0)
(0.66310485 -0.022548918 0)
(0.67179051 -0.022519192 0)
(0.68060893 -0.022126509 0)
(0.6893168 -0.021695154 0)
(0.69771361 -0.021609224 0)
(0.70623122 -0.021714602 0)
(0.71484953 -0.021807392 0)
(0.72327511 -0.021959931 0)
(0.73167832 -0.022174326 0)
(0.74039877 -0.022212414 0)
(0.74923737 -0.02180976 0)
(0.75772363 -0.021220338 0)
(0.76592564 -0.020841369 0)
(0.77422057 -0.02060105 0)
(0.78257118 -0.02065413 0)
(0.79093032 -0.021060762 0)
(0.79941298 -0.021431271 0)
(0.8078189 -0.021488978 0)
(0.8160021 -0.021385572 0)
(0.82406862 -0.021272315 0)
(0.83214435 -0.021072868 0)
(0.8401824 -0.02064031 0)
(0.84795512 -0.020132372 0)
(0.85555619 -0.019677743 0)
(0.86344403 -0.019155904 0)
(0.87146219 -0.018606004 0)
(0.87923235 -0.018350343 0)
(0.88664414 -0.0185514 0)
(0.89401348 -0.019185229 0)
(0.90151199 -0.020057435 0)
(0.9093264 -0.020636952 0)
(0.91739929 -0.020555344 0)
(0.92567943 -0.01976187 0)
(0.93372051 -0.018483005 0)
(0.94097131 -0.017230647 0)
(0.9474473 -0.01668066 0)
(0.95362793 -0.017012009 0)
(0.95998119 -0.01785071 0)
(0.96690676 -0.018737173 0)
(0.97447065 -0.019213051 0)
(0.98240465 -0.018755649 0)
(0.99010113 -0.017504809 0)
(0.99718514 -0.016050828 0)
(1.0037935 -0.014730669 0)
(1.0101402 -0.013518487 0)
(1.0163539 -0.012647687 0)
(1.0225419 -0.012445872 0)
(1.0287483 -0.01317616 0)
(1.0348832 -0.014763131 0)
(1.0410244 -0.016992236 0)
(1.04743 -0.019033885 0)
(1.0543927 -0.019789065 0)
(1.0616769 -0.018563623 0)
(1.0687157 -0.015389766 0)
(1.0750228 -0.010973926 0)
(1.0801425 -0.0066273896 0)
(1.0839769 -0.0037317104 0)
(1.0870862 -0.0030641049 0)
(1.0902676 -0.0043500946 0)
(1.0941273 -0.0065144938 0)
(1.0988929 -0.0086296897 0)
(1.1044035 -0.010504496 0)
(1.1103559 -0.012193606 0)
(1.1164971 -0.013566949 0)
(1.1228146 -0.014524211 0)
(1.1290593 -0.015207189 0)
(1.1345124 -0.015390051 0)
(1.1388604 -0.014661118 0)
(1.142623 -0.013000158 0)
(1.1467701 -0.011242639 0)
(1.152004 -0.010331749 0)
(1.1584651 -0.011046028 0)
(1.1659998 -0.013454251 0)
(1.1741112 -0.016847233 0)
(1.1816772 -0.020272188 0)
(1.1874039 -0.022990565 0)
(1.1911415 -0.023755453 0)
(1.1941884 -0.021060539 0)
(1.1978639 -0.015076855 0)
(1.2036788 -0.010608635 0)
(1.2127352 -0.012582904 0)
(1.2251584 -0.020878655 0)
(1.2417194 -0.032017985 0)
(1.2625237 -0.037425899 0)
(1.2841592 -0.034030244 0)
(1.305749 -0.031874855 0)
(1.3176488 -0.034572497 0)
(1.3246344 -0.039079438 0)
(1.3291573 -0.045577739 0)
(1.3306473 -0.055431962 0)
(1.3211147 -0.043016015 0)
(1.2778459 0.0021684551 0)
(1.1659952 0.045646221 0)
(0.96712984 0.079908893 0)
(0.88492245 0.37720144 0)
(0.62234952 0.52253541 0)
(0.51445951 0.46942554 0)
(0.49999943 0.3535435 0)
(0.46530368 0.24477024 0)
(0.42076046 0.17429217 0)
(0.37786005 0.12920037 0)
(0.33985654 0.099181702 0)
(0.30713567 0.078553371 0)
(0.27916241 0.063884418 0)
(0.25518418 0.05309481 0)
(0.23449182 0.044926559 0)
(0.21647943 0.038582897 0)
(0.20067229 0.033566939 0)
(0.18668962 0.029484474 0)
(0.17420606 0.02615211 0)
(0.16299833 0.023376653 0)
(0.15288212 0.02103688 0)
(0.1436959 0.019044224 0)
(0.13531004 0.017331906 0)
(0.1276204 0.015848875 0)
(0.12053964 0.014555517 0)
(0.11399802 0.013420747 0)
(0.10792265 0.012417319 0)
(0.10227268 0.011535124 0)
(0.097009823 0.010738687 0)
(0.092080053 0.010037069 0)
(0.087456647 0.009394857 0)
(0.083104428 0.0088193361 0)
(0.079001788 0.0082929449 0)
(0.075123322 0.0078957295 0)
(0.071447003 0.0074262891 0)
(0.067965908 0.0069500254 0)
(0.064659946 0.0066391612 0)
(0.061509515 0.0063249926 0)
(0.058502942 0.0060276933 0)
(0.055629627 0.0057522045 0)
(0.052879345 0.0054982588 0)
(0.050242545 0.0052643408 0)
(0.047710388 0.0050487417 0)
(0.045275055 0.0048498445 0)
(0.042927378 0.0046663249 0)
(0.04066494 0.0044982871 0)
(0.038481421 0.0043409721 0)
(0.036365836 0.0041956274 0)
(0.034315347 0.0040617238 0)
(0.032326022 0.0039383553 0)
(0.030393804 0.0038245025 0)
(0.028512392 0.0037163662 0)
(0.026678102 0.0036213443 0)
(0.024889341 0.0035324762 0)
(0.023140796 0.0034496195 0)
(0.021431136 0.0033559264 0)
(0.019756069 0.00330321 0)
(0.018110207 0.0032434131 0)
(0.016492448 0.0031879396 0)
(0.01490076 0.0031485768 0)
(0.013332425 0.0030927009 0)
(0.011783158 0.0030520757 0)
(0.010251696 0.003016239 0)
(0.0087366006 0.0029849838 0)
(0.0072351073 0.0029590061 0)
(0.0057475656 0.0029319219 0)
(0.0042752931 0.0028919822 0)
(0.0028295593 0.0028056906 0)
(0.0014435397 0.0025594672 0)
(0.00028967921 0.0017069736 0)
(0.0011561943 -0.011288938 0)
(0.0055174466 -0.016281253 0)
(0.010667475 -0.017370374 0)
(0.015830673 -0.01763475 0)
(0.021042187 -0.017709143 0)
(0.026265967 -0.017740183 0)
(0.031494756 -0.017764501 0)
(0.036729104 -0.017791679 0)
(0.041970566 -0.017824276 0)
(0.0472213 -0.017861908 0)
(0.052483625 -0.017905063 0)
(0.057759409 -0.017953981 0)
(0.063050374 -0.018008663 0)
(0.068358261 -0.018069175 0)
(0.073684839 -0.018135661 0)
(0.079031891 -0.018208262 0)
(0.084401294 -0.018287123 0)
(0.089794852 -0.018372413 0)
(0.095214765 -0.018464254 0)
(0.10066216 -0.018562903 0)
(0.1061413 -0.01866812 0)
(0.11164801 -0.018781045 0)
(0.11719989 -0.018898817 0)
(0.12276159 -0.019029166 0)
(0.12841947 -0.019153051 0)
(0.13399576 -0.019314414 0)
(0.13985235 -0.019418806 0)
(0.14531498 -0.019654111 0)
(0.15157004 -0.019672461 0)
(0.15669738 -0.020076264 0)
(0.16356358 -0.019874607 0)
(0.16829483 -0.020639947 0)
(0.17558582 -0.019952532 0)
(0.18046118 -0.021340732 0)
(0.18738663 -0.020173763 0)
(0.19319841 -0.021476666 0)
(0.19933793 -0.021412044 0)
(0.20598507 -0.020863162 0)
(0.2118479 -0.02225191 0)
(0.21869645 -0.022002429 0)
(0.22500238 -0.021573319 0)
(0.23124639 -0.022609943 0)
(0.23847137 -0.023018174 0)
(0.2447615 -0.022417577 0)
(0.25124558 -0.022843099 0)
(0.25860813 -0.023489519 0)
(0.26529631 -0.023876073 0)
(0.27202615 -0.02348727 0)
(0.27917692 -0.023515974 0)
(0.28622737 -0.024399893 0)
(0.29345285 -0.02487804 0)
(0.30085194 -0.024484004 0)
(0.30765801 -0.024483361 0)
(0.31490991 -0.025041273 0)
(0.32289926 -0.025352385 0)
(0.33038672 -0.02571419 0)
(0.33748335 -0.025837436 0)
(0.34489942 -0.025607595 0)
(0.3527563 -0.025768004 0)
(0.36072718 -0.026303364 0)
(0.36844658 -0.026637413 0)
(0.37615223 -0.026799247 0)
(0.38392518 -0.026893202 0)
(0.39161169 -0.02690043 0)
(0.39968836 -0.026874909 0)
(0.40808241 -0.026855529 0)
(0.41605241 -0.027459047 0)
(0.42414961 -0.028326313 0)
(0.4322664 -0.027978657 0)
(0.44004849 -0.027808522 0)
(0.4484621 -0.027608557 0)
(0.45692737 -0.027553591 0)
(0.46505253 -0.028213589 0)
(0.47376435 -0.028759387 0)
(0.48204406 -0.028635895 0)
(0.49022373 -0.028989325 0)
(0.49886283 -0.028736756 0)
(0.50732117 -0.028254142 0)
(0.5153488 -0.028661642 0)
(0.52426746 -0.028809763 0)
(0.53289801 -0.028987383 0)
(0.54125985 -0.029136686 0)
(0.55024997 -0.029296612 0)
(0.55900718 -0.029383915 0)
(0.56757597 -0.029342467 0)
(0.57629897 -0.02905457 0)
(0.5845717 -0.029161348 0)
(0.59313739 -0.029622332 0)
(0.60225838 -0.029234289 0)
(0.61054158 -0.029088427 0)
(0.61915127 -0.029452991 0)
(0.62861945 -0.029106957 0)
(0.63734289 -0.028883583 0)
(0.64586506 -0.02930657 0)
(0.65483392 -0.029437387 0)
(0.66350994 -0.029544644 0)
(0.67203611 -0.029598315 0)
(0.6806462 -0.02907812 0)
(0.68912585 -0.028461957 0)
(0.6976677 -0.028478645 0)
(0.70652088 -0.028538854 0)
(0.71534949 -0.028285828 0)
(0.72377723 -0.02834275 0)
(0.73196621 -0.028815673 0)
(0.74051476 -0.028951318 0)
(0.74946424 -0.028549325 0)
(0.75812432 -0.027866645 0)
(0.76652891 -0.027377517 0)
(0.77504943 -0.027061287 0)
(0.78342429 -0.027215638 0)
(0.79174932 -0.027560711 0)
(0.8002984 -0.02772546 0)
(0.80862554 -0.027470597 0)
(0.81629649 -0.027143248 0)
(0.82374728 -0.026945456 0)
(0.83163627 -0.026785488 0)
(0.83982321 -0.02631978 0)
(0.8476587 -0.025920416 0)
(0.8552936 -0.025665117 -2.3438285e-34)
(0.86342286 -0.025385453 -1.3184001e-29)
(0.87211884 -0.024880632 0)
(0.88089208 -0.024470174 0)
(0.88920023 -0.024125471 0)
(0.89665102 -0.024314104 0)
(0.90355806 -0.025152451 0)
(0.91031754 -0.026169548 0)
(0.91715475 -0.026570144 0)
(0.92451255 -0.025938059 0)
(0.93244056 -0.024246734 -1.9421439e-34)
(0.94032733 -0.022329084 -1.042366e-29)
(0.94770711 -0.020984828 -1.7775738e-34)
(0.95456721 -0.020863822 -9.739372e-30)
(0.96114911 -0.021812074 0)
(0.96773267 -0.023294738 0)
(0.97471005 -0.02444401 0)
(0.98218536 -0.024558566 0)
(0.98973765 -0.023425905 0)
(0.99682747 -0.02166819 0)
(1.0035638 -0.020046742 -1.3654537e-34)
(1.0104398 -0.018833094 -7.3832026e-30)
(1.0175659 -0.017850647 0)
(1.0247347 -0.017375191 0)
(1.0318617 -0.017725406 0)
(1.0388421 -0.018957211 0)
(1.0454043 -0.020971132 0)
(1.0514355 -0.022966004 0)
(1.0569667 -0.023641711 0)
(1.0619471 -0.022289557 0)
(1.0664003 -0.019006063 0)
(1.0704666 -0.014563362 0)
(1.0745719 -0.010201686 -7.2795825e-35)
(1.0791459 -0.0073313442 -3.4150847e-30)
(1.0845502 -0.006949425 0)
(1.090878 -0.0088157202 0)
(1.0977194 -0.011553085 0)
(1.1044536 -0.013682583 0)
(1.1104189 -0.01505868 0)
(1.1153001 -0.016247886 0)
(1.119374 -0.017685839 0)
(1.1227804 -0.018950626 0)
(1.1257437 -0.018939793 -1.2889914e-35)
(1.1285246 -0.017656541 -4.9939936e-31)
(1.1314015 -0.016218606 0)
(1.1352029 -0.015860952 0)
(1.1414081 -0.016941989 5.592865e-35)
(1.1505586 -0.018582746 4.476555e-30)
(1.1610464 -0.020646658 0)
(1.1707849 -0.023318471 0)
(1.1782577 -0.025374244 0)
(1.1824379 -0.025152582 0)
(1.1839291 -0.023354188 2.2805819e-34)
(1.1860742 -0.022425541 1.2591153e-29)
(1.1923015 -0.022622908 0)
(1.2036709 -0.023562075 0)
(1.2202714 -0.027183449 0)
(1.2410993 -0.031450776 0)
(1.2611317 -0.036916705 0)
(1.2786442 -0.049211759 0)
(1.2919753 -0.061418845 0)
(1.3009364 -0.069489945 0)
(1.3030247 -0.067146253 0)
(1.2839712 -0.046028797 0)
(1.2422311 -0.028638386 0)
(1.1910094 -0.020237048 0)
(1.1550584 -0.010472701 0)
(1.0632867 0.028825472 0)
(0.93683235 0.087281688 0)
(0.76506838 0.1604644 0)
(0.60742993 0.45066876 0)
(0.39076588 0.55798291 0)
(0.35894642 0.55762746 0)
(0.39022148 0.47992878 0)
(0.4113867 0.36160322 0)
(0.40178274 0.27364279 0)
(0.37835072 0.20996237 0)
(0.35025171 0.16409394 0)
(0.32216172 0.1308888 0)
(0.29599953 0.10646905 0)
(0.27232455 0.088237219 0)
(0.25119175 0.074352334 0)
(0.23241948 0.063564226 0)
(0.21572105 0.055019573 0)
(0.2008215 0.048145518 0)
(0.18746459 0.042513268 0)
(0.17542184 0.037848001 0)
(0.16452511 0.033943844 0)
(0.15462289 0.030637299 0)
(0.14558192 0.027808116 0)
(0.13729153 0.025367178 0)
(0.12966006 0.0232455 0)
(0.12261071 0.021389682 0)
(0.11607594 0.019754992 0)
(0.11000165 0.018328777 -7.4944825e-34)
(0.1043386 0.016935077 -3.8914561e-29)
(0.099033703 0.015856839 0)
(0.094064107 0.014851707 0)
(0.089403493 0.013930673 0)
(0.085010021 0.013095346 0)
(0.080855214 0.012337642 0)
(0.076924817 0.011654305 0)
(0.07320902 0.011030179 0)
(0.069675675 0.010447556 0)
(0.06630621 0.0099288015 0)
(0.063097572 0.009452538 0)
(0.060036387 0.0090136089 0)
(0.057108915 0.0086092062 0)
(0.054304152 0.0082366015 0)
(0.05161277 0.0078931158 0)
(0.049026313 0.0075762586 0)
(0.046536821 0.0072839031 0)
(0.044137925 0.0070146802 -2.3080383e-34)
(0.041821441 0.006727855 -1.2131376e-29)
(0.03958087 0.0065265426 0)
(0.037412661 0.0063184164 0)
(0.03531115 0.0061214286 0)
(0.033270978 0.005938735 0)
(0.031287787 0.0057696153 0)
(0.029355523 0.0056125557 0)
(0.027471063 0.0054696802 0)
(0.025632691 0.0053384024 0)
(0.023835729 0.0052173506 0)
(0.022076153 0.0051040155 0)
(0.020350723 0.0050040502 0)
(0.018656951 0.0049118714 0)
(0.016991795 0.0048272593 -8.2205013e-35)
(0.015352238 0.0047388318 -4.1473988e-30)
(0.013735783 0.0046841442 6.6126887e-35)
(0.012140537 0.0046378927 3.2761265e-30)
(0.010563615 0.0045754667 0)
(0.0090018136 0.0045285115 0)
(0.0074540413 0.0044876976 -3.6277524e-35)
(0.0059202857 0.004440218 -1.6221399e-30)
(0.0044022977 0.0043834872 -2.1868486e-35)
(0.0029118666 0.0042484795 -8.1908625e-31)