/*--------------------------------*- C++ -*----------------------------------*\
| =========                 |                                                 |
| \\      /  F ield         | OpenFOAM: The Open Source CFD Toolbox           |
|  \\    /   O peration     | Version:  2106                                  |
|   \\  /    A nd           | Website:  www.openfoam.com                      |
|    \\/     M anipulation  |                                                 |
\*---------------------------------------------------------------------------*/
FoamFile
{
    version     2.0;
    format      ascii;
    arch        "LSB;label=32;scalar=64";
    class       surfaceScalarField;
    location    "0.033";
    object      phi_0;
}
// * * * * * * * * * * * * * * * * * * * * * * * * * * * * * * * * * * * * * //

dimensions      [0 3 -1 0 0 0 0];

oriented        oriented;

internalField   nonuniform List<scalar> 
32512
(
2.3384795e-05
-2.3384795e-05
4.6710902e-05
-2.3326107e-05
6.9919798e-05
-2.3208896e-05
9.2953288e-05
-2.3033489e-05
0.00011575367
-2.280038e-05
0.00013826389
-2.2510219e-05
0.0001604277
-2.2163818e-05
0.00018218985
-2.1762142e-05
0.00020349616
-2.1306309e-05
0.00022429374
-2.0797582e-05
0.00024453111
-2.0237368e-05
0.00026415832
-1.9627213e-05
0.00028312711
-1.8968789e-05
0.00030139101
-1.82639e-05
0.00031890547
-1.7514464e-05
0.00033562798
-1.6722513e-05
0.00035151817
-1.5890183e-05
0.00036653788
-1.5019708e-05
0.00038065129
-1.4113413e-05
0.00039382499
-1.3173704e-05
0.00040602805
-1.2203061e-05
0.00041723209
-1.1204031e-05
0.0004274113
-1.0179219e-05
0.00043654258
-9.1312803e-06
0.0004446055
-8.0629122e-06
0.00045158234
-6.9768461e-06
0.00045745818
-5.8758397e-06
0.00046222085
-4.7626684e-06
0.00046586097
-3.6401186e-06
0.00046837195
-2.5109792e-06
0.00046974998
-1.3780351e-06
0.00046999404
-2.4405752e-07
0.00046910586
8.8818211e-07
0.00046708987
2.0159936e-06
0.0004639532
3.1366678e-06
0.00045970567
4.2475297e-06
0.00045435969
5.3459775e-06
0.00044793024
6.4294509e-06
0.0004404348
7.495444e-06
0.00043189328
8.5415119e-06
0.00042232801
9.5652759e-06
0.00041176358
1.0564427e-05
0.00040022685
1.1536733e-05
0.00038774681
1.2480036e-05
0.00037435455
1.3392263e-05
0.00036008313
1.4271425e-05
0.0003449675
1.5115621e-05
0.00032904446
1.5923042e-05
0.00031235249
1.6691967e-05
0.00029493172
1.7420776e-05
0.00027682378
1.8107939e-05
0.00025807175
1.8752028e-05
0.00023872004
1.9351713e-05
0.00021881428
1.9905763e-05
0.00019840123
2.0413049e-05
0.00017752869
2.0872542e-05
0.00015624537
2.1283316e-05
0.00013460082
2.1644547e-05
0.00011264531
2.1955514e-05
9.0429709e-05
2.2215599e-05
6.8005424e-05
2.2424285e-05
4.5424263e-05
2.2581161e-05
2.2738346e-05
2.2685917e-05
2.1848777e-13
2.2738346e-05
-2.2738346e-05
2.2738346e-05
-4.5424263e-05
2.2685917e-05
-6.8005424e-05
2.2581161e-05
-9.0429709e-05
2.2424285e-05
-0.00011264531
2.2215599e-05
-0.00013460082
2.1955514e-05
-0.00015624537
2.1644547e-05
-0.00017752868
2.1283316e-05
-0.00019840123
2.0872542e-05
-0.00021881428
2.0413049e-05
-0.00023872004
1.9905763e-05
-0.00025807175
1.9351713e-05
-0.00027682378
1.8752028e-05
-0.00029493172
1.8107939e-05
-0.00031235249
1.7420776e-05
-0.00032904446
1.6691967e-05
-0.0003449675
1.5923042e-05
-0.00036008312
1.5115621e-05
-0.00037435455
1.4271425e-05
-0.00038774681
1.3392263e-05
-0.00040022685
1.2480036e-05
-0.00041176358
1.1536733e-05
-0.00042232801
1.0564427e-05
-0.00043189328
9.5652759e-06
-0.0004404348
8.541512e-06
-0.00044793024
7.495444e-06
-0.00045435969
6.429451e-06
-0.00045970567
5.3459775e-06
-0.0004639532
4.2475297e-06
-0.00046708987
3.1366679e-06
-0.00046910586
2.0159936e-06
-0.00046999404
8.8818213e-07
-0.00046974998
-2.440575e-07
-0.00046837195
-1.3780351e-06
-0.00046586097
-2.5109792e-06
-0.00046222085
-3.6401186e-06
-0.00045745818
-4.7626684e-06
-0.00045158234
-5.8758396e-06
-0.0004446055
-6.9768461e-06
-0.00043654258
-8.0629122e-06
-0.0004274113
-9.1312803e-06
-0.00041723209
-1.0179219e-05
-0.00040602805
-1.1204031e-05
-0.00039382499
-1.2203061e-05
-0.00038065129
-1.3173704e-05
-0.00036653788
-1.4113413e-05
-0.00035151817
-1.5019708e-05
-0.00033562798
-1.5890183e-05
-0.00031890547
-1.6722513e-05
-0.00030139101
-1.7514464e-05
-0.00028312711
-1.82639e-05
-0.00026415832
-1.8968789e-05
-0.00024453111
-1.9627212e-05
-0.00022429374
-2.0237368e-05
-0.00020349616
-2.0797582e-05
-0.00018218985
-2.1306309e-05
-0.00016042771
-2.1762142e-05
-0.00013826389
-2.2163818e-05
-0.00011575367
-2.2510219e-05
-9.2953288e-05
-2.280038e-05
-6.9919799e-05
-2.3033489e-05
-4.6710903e-05
-2.3208896e-05
-2.3384796e-05
-2.3326107e-05
-2.3384795e-05
2.3481654e-05
-4.6866449e-05
4.6904371e-05
-4.6748824e-05
7.0209379e-05
-4.6513904e-05
9.3338238e-05
-4.6162348e-05
0.000116233
-4.5695142e-05
0.00013883637
-4.5113592e-05
0.00016109188
-4.4419324e-05
0.00018294401
-4.3614273e-05
0.00020433838
-4.270068e-05
0.00022522188
-4.1681078e-05
0.0002455428
-4.0558288e-05
0.00026525099
-3.9335404e-05
0.00028429798
-3.8015786e-05
0.00030263713
-3.6603042e-05
0.00032022368
-3.510102e-05
0.00033701496
-3.3513793e-05
0.00035297042
-3.1845644e-05
0.00036805177
-3.010105e-05
0.00038222302
-2.8284669e-05
0.00039545064
-2.6401325e-05
0.00040770357
-2.4455989e-05
0.0004189533
-2.2453765e-05
0.00042917396
-2.0399875e-05
0.00043834232
-1.8299641e-05
0.00044643788
-1.6158468e-05
0.00045344286
-1.3981832e-05
0.00045934228
-1.1775258e-05
0.00046412392
-9.5443101e-06
0.00046777837
-7.294572e-06
0.00047029903
-5.0316336e-06
0.00047168207
-2.7610758e-06
0.00047192647
-4.8845615e-07
0.00047103395
1.7807022e-06
0.00046900899
4.0409504e-06
0.00046585878
6.2868807e-06
0.00046159315
8.513157e-06
0.00045622458
1.0714548e-05
0.00044976811
1.2885923e-05
0.00044224129
1.5022259e-05
0.00043366415
1.7118657e-05
0.00042405907
1.917035e-05
0.00041345079
2.1172713e-05
0.00040186625
2.3121268e-05
0.00038933459
2.5011696e-05
0.00037588701
2.6839841e-05
0.00036155672
2.8601717e-05
0.00034637883
3.0293515e-05
0.00033039026
3.1911608e-05
0.00031362968
3.3452552e-05
0.00029613736
3.4913096e-05
0.00027795512
3.629018e-05
0.0002591262
3.7580939e-05
0.00023969521
3.8782708e-05
0.00021970795
3.9893022e-05
0.00019921138
4.0909619e-05
0.00017825349
4.1830437e-05
0.00015688318
4.2653622e-05
0.00013515021
4.3377522e-05
0.00011310503
4.4000693e-05
9.0798729e-05
4.4521896e-05
6.8282916e-05
4.4940098e-05
4.5609604e-05
4.5254473e-05
2.2831121e-05
4.54644e-05
2.1856606e-13
4.5569467e-05
-2.2831121e-05
4.5569467e-05
-4.5609604e-05
4.54644e-05
-6.8282916e-05
4.5254473e-05
-9.0798728e-05
4.4940098e-05
-0.00011310503
4.4521896e-05
-0.0001351502
4.4000693e-05
-0.00015688318
4.3377522e-05
-0.00017825349
4.2653622e-05
-0.00019921138
4.1830437e-05
-0.00021970795
4.0909619e-05
-0.00023969521
3.9893022e-05
-0.0002591262
3.8782708e-05
-0.00027795512
3.7580939e-05
-0.00029613736
3.629018e-05
-0.00031362968
3.4913096e-05
-0.00033039026
3.3452553e-05
-0.00034637883
3.1911608e-05
-0.00036155672
3.0293515e-05
-0.00037588701
2.8601717e-05
-0.00038933459
2.6839841e-05
-0.00040186625
2.5011696e-05
-0.00041345079
2.3121268e-05
-0.00042405907
2.1172713e-05
-0.00043366415
1.917035e-05
-0.00044224129
1.7118657e-05
-0.00044976811
1.5022259e-05
-0.00045622458
1.2885923e-05
-0.00046159315
1.0714548e-05
-0.00046585878
8.5131571e-06
-0.00046900899
6.2868807e-06
-0.00047103395
4.0409504e-06
-0.00047192647
1.7807022e-06
-0.00047168207
-4.8845611e-07
-0.00047029903
-2.7610757e-06
-0.00046777837
-5.0316336e-06
-0.00046412392
-7.294572e-06
-0.00045934228
-9.54431e-06
-0.00045344286
-1.1775258e-05
-0.00044643788
-1.3981832e-05
-0.00043834232
-1.6158468e-05
-0.00042917396
-1.8299641e-05
-0.0004189533
-2.0399875e-05
-0.00040770357
-2.2453765e-05
-0.00039545064
-2.4455989e-05
-0.00038222302
-2.6401325e-05
-0.00036805177
-2.8284669e-05
-0.00035297042
-3.010105e-05
-0.00033701496
-3.1845644e-05
-0.00032022368
-3.3513793e-05
-0.00030263713
-3.510102e-05
-0.00028429798
-3.6603042e-05
-0.00026525099
-3.8015785e-05
-0.0002455428
-3.9335404e-05
-0.00022522188
-4.0558288e-05
-0.00020433838
-4.1681078e-05
-0.00018294401
-4.270068e-05
-0.00016109188
-4.3614273e-05
-0.00013883637
-4.4419324e-05
-0.000116233
-4.5113592e-05
-9.3338239e-05
-4.5695142e-05
-7.020938e-05
-4.6162348e-05
-4.6904371e-05
-4.6513904e-05
-2.3481654e-05
-4.6748824e-05
-4.6866449e-05
2.3646026e-05
-7.0512476e-05
4.72327e-05
-7.0335498e-05
7.0700836e-05
-6.998204e-05
9.3991581e-05
-6.9453094e-05
0.00011704658
-6.875014e-05
0.00013980814
-6.7875149e-05
0.00016221938
-6.6830564e-05
0.0001842244
-6.5619298e-05
0.00020576844
-6.4244723e-05
0.00022679802
-6.2710652e-05
0.00024726106
-6.1021328e-05
0.00026710706
-5.9181409e-05
0.00028628723
-5.7195948e-05
0.00030475456
-5.5070378e-05
0.00032246403
-5.2810487e-05
0.00033937264
-5.0422403e-05
0.00035543957
-4.791257e-05
0.00037062624
-4.5287727e-05
0.00038489645
-4.255488e-05
0.00039821642
-3.9721288e-05
0.00041055486
-3.6794431e-05
0.00042188308
-3.3781988e-05
0.00043217502
-3.0691815e-05
0.0004414073
-2.7531919e-05
0.00044955927
-2.4310435e-05
0.00045661303
-2.1035598e-05
0.0004625535
-1.7715723e-05
0.00046736837
-1.435918e-05
0.00047104817
-1.0974371e-05
0.00047358624
-7.5697052e-06
0.00047497874
-4.1535794e-06
0.00047522464
-7.3435419e-07
0.00047432567
2.6796677e-06
0.00047228636
6.0802687e-06
0.00046911392
9.4593188e-06
0.00046481827
1.2808801e-05
0.00045941198
1.6120841e-05
0.00045291019
1.9387715e-05
0.00044533058
2.2601868e-05
0.00043669331
2.5755929e-05
0.00042702093
2.8842727e-05
0.00041633834
3.18553e-05
0.0004046727
3.4786914e-05
0.00039205332
3.763107e-05
0.00037851165
4.0381515e-05
0.00036408111
4.3032254e-05
0.00034879707
4.5577556e-05
0.00033269672
4.8011963e-05
0.00031581897
5.0330297e-05
0.00029820441
5.2527664e-05
0.00027989512
5.4599461e-05
0.00026093468
5.6541382e-05
0.00024136797
5.8349415e-05
0.00022124114
6.0019854e-05
0.00020060147
6.1549294e-05
0.00017949727
6.2934636e-05
0.0001579778
6.4173089e-05
0.00013609315
6.5262171e-05
0.00011389414
6.6199708e-05
9.1432196e-05
6.6983838e-05
6.8759288e-05
6.7613005e-05
4.5927793e-05
6.8085969e-05
2.2990397e-05
6.8401795e-05
2.1867702e-13
6.8559864e-05
-2.2990397e-05
6.8559864e-05
-4.5927792e-05
6.8401795e-05
-6.8759288e-05
6.8085969e-05
-9.1432195e-05
6.7613005e-05
-0.00011389414
6.6983838e-05
-0.00013609315
6.6199708e-05
-0.0001579778
6.5262171e-05
-0.00017949727
6.4173089e-05
-0.00020060147
6.2934636e-05
-0.00022124114
6.1549294e-05
-0.00024136797
6.0019854e-05
-0.00026093468
5.8349415e-05
-0.00027989512
5.6541382e-05
-0.00029820441
5.4599461e-05
-0.00031581897
5.2527664e-05
-0.00033269672
5.0330297e-05
-0.00034879707
4.8011963e-05
-0.00036408111
4.5577556e-05
-0.00037851165
4.3032254e-05
-0.00039205332
4.0381515e-05
-0.0004046727
3.763107e-05
-0.00041633834
3.4786914e-05
-0.00042702093
3.18553e-05
-0.00043669331
2.8842727e-05
-0.00044533058
2.5755929e-05
-0.00045291019
2.2601868e-05
-0.00045941198
1.9387715e-05
-0.00046481827
1.6120841e-05
-0.00046911392
1.2808802e-05
-0.00047228636
9.4593189e-06
-0.00047432567
6.0802688e-06
-0.00047522464
2.6796678e-06
-0.00047497874
-7.3435412e-07
-0.00047358624
-4.1535794e-06
-0.00047104817
-7.5697052e-06
-0.00046736837
-1.0974371e-05
-0.0004625535
-1.435918e-05
-0.00045661303
-1.7715723e-05
-0.00044955927
-2.1035598e-05
-0.0004414073
-2.4310435e-05
-0.00043217502
-2.7531919e-05
-0.00042188308
-3.0691815e-05
-0.00041055486
-3.3781987e-05
-0.00039821642
-3.6794431e-05
-0.00038489645
-3.9721288e-05
-0.00037062624
-4.255488e-05
-0.00035543957
-4.5287727e-05
-0.00033937264
-4.791257e-05
-0.00032246403
-5.0422403e-05
-0.00030475456
-5.2810487e-05
-0.00028628723
-5.5070378e-05
-0.00026710706
-5.7195948e-05
-0.00024726106
-5.9181409e-05
-0.00022679802
-6.1021328e-05
-0.00020576844
-6.2710652e-05
-0.0001842244
-6.4244723e-05
-0.00016221938
-6.5619298e-05
-0.00013980814
-6.6830564e-05
-0.00011704658
-6.7875149e-05
-9.3991582e-05
-6.875014e-05
-7.0700837e-05
-6.9453094e-05
-4.7232701e-05
-6.998204e-05
-2.3646027e-05
-7.0335498e-05
-7.0512476e-05
2.3878055e-05
-9.439053e-05
4.7696175e-05
-9.4153618e-05
7.1394593e-05
-9.3680459e-05
9.491388e-05
-9.297238e-05
0.00011819511
-9.2031367e-05
0.00014118001
-9.0860055e-05
0.00016381117
-8.9461716e-05
0.00018603212
-8.7840252e-05
0.00020778757
-8.6000174e-05
0.00022902351
-8.3946589e-05
0.00024968736
-8.1685179e-05
0.00026972813
-7.9222177e-05
0.00028909653
-7.6564349e-05
0.00030774512
-7.3718968e-05
0.00032562841
-7.0693784e-05
0.00034270301
-6.7496999e-05
0.00035892768
-6.413724e-05
0.00037426348
-6.0623526e-05
0.00038867384
-5.6965239e-05
0.00040212464
-5.3172094e-05
0.00041458431
-4.9254103e-05
0.00042602387
-4.5221546e-05
0.000436417
-4.108494e-05
0.00044574008
-3.6855002e-05
0.00045397227
-3.254262e-05
0.00046109549
-2.8158819e-05
0.0004670945
-2.3714729e-05
0.00047195687
-1.9221554e-05
0.00047567304
-1.4690539e-05
0.00047823627
-1.0132943e-05
0.0004796427
-5.5600037e-06
0.00047989126
-9.8291301e-07
0.00047898371
3.5872156e-06
0.0004769246
8.1393748e-06
0.00047372124
1.2662684e-05
0.00046938363
1.7146415e-05
0.00046392444
2.1580025e-05
0.00045735898
2.5953175e-05
0.0004497051
3.025575e-05
0.00044098314
3.4477883e-05
0.0004312159
3.8609973e-05
0.0004204285
4.2642701e-05
0.00040864836
4.6567051e-05
0.00039590511
5.0374324e-05
0.00038223047
5.405615e-05
0.00036765822
5.7604502e-05
0.00035222407
6.1011709e-05
0.00033596557
6.4270465e-05
0.00031892203
6.7373838e-05
0.00030113441
7.0315279e-05
0.00028264525
7.3088625e-05
0.00026349852
7.5688112e-05
0.00024373956
7.8108372e-05
0.00022341497
8.0344442e-05
0.0002025725
8.2391767e-05
0.00018126094
8.4246198e-05
0.00015953002
8.5904e-05
0.00013743034
8.7361852e-05
0.00011501321
8.8616844e-05
9.2330564e-05
8.9666481e-05
6.9434883e-05
9.0508687e-05
4.6379056e-05
9.1141796e-05
2.3216289e-05
9.1564562e-05
2.1882664e-13
9.1776153e-05
-2.3216289e-05
9.1776153e-05
-4.6379055e-05
9.1564562e-05
-6.9434882e-05
9.1141796e-05
-9.2330564e-05
9.0508687e-05
-0.00011501321
8.9666481e-05
-0.00013743034
8.8616844e-05
-0.00015953002
8.7361852e-05
-0.00018126094
8.5904e-05
-0.0002025725
8.4246198e-05
-0.00022341497
8.2391767e-05
-0.00024373956
8.0344442e-05
-0.00026349852
7.8108372e-05
-0.00028264525
7.5688112e-05
-0.00030113441
7.3088625e-05
-0.00031892203
7.0315279e-05
-0.00033596557
6.7373838e-05
-0.00035222407
6.4270465e-05
-0.00036765822
6.1011709e-05
-0.00038223047
5.7604502e-05
-0.00039590511
5.405615e-05
-0.00040864836
5.0374324e-05
-0.0004204285
4.6567052e-05
-0.0004312159
4.2642701e-05
-0.00044098314
3.8609973e-05
-0.0004497051
3.4477883e-05
-0.00045735898
3.025575e-05
-0.00046392444
2.5953175e-05
-0.00046938363
2.1580025e-05
-0.00047372124
1.7146415e-05
-0.0004769246
1.2662684e-05
-0.00047898371
8.1393749e-06
-0.00047989126
3.5872157e-06
-0.0004796427
-9.8291292e-07
-0.00047823627
-5.5600036e-06
-0.00047567304
-1.0132943e-05
-0.00047195687
-1.4690539e-05
-0.0004670945
-1.9221553e-05
-0.00046109549
-2.3714729e-05
-0.00045397227
-2.8158819e-05
-0.00044574008
-3.254262e-05
-0.000436417
-3.6855002e-05
-0.00042602387
-4.108494e-05
-0.00041458432
-4.5221546e-05
-0.00040212464
-4.9254102e-05
-0.00038867384
-5.3172094e-05
-0.00037426348
-5.6965239e-05
-0.00035892768
-6.0623526e-05
-0.00034270301
-6.413724e-05
-0.00032562841
-6.7496999e-05
-0.00030774512
-7.0693783e-05
-0.00028909653
-7.3718968e-05
-0.00026972813
-7.6564349e-05
-0.00024968736
-7.9222177e-05
-0.00022902351
-8.1685179e-05
-0.00020778757
-8.3946589e-05
-0.00018603212
-8.6000174e-05
-0.00016381117
-8.7840252e-05
-0.00014118001
-8.9461716e-05
-0.00011819511
-9.0860055e-05
-9.491388e-05
-9.2031367e-05
-7.1394594e-05
-9.297238e-05
-4.7696175e-05
-9.3680459e-05
-2.3878055e-05
-9.4153618e-05
-9.439053e-05
2.4178078e-05
-0.00011856861
4.8295471e-05
-0.00011827101
7.2291664e-05
-0.00011767665
9.6106482e-05
-0.0001167872
0.00011968026
-0.00011560515
0.00014295401
-0.0001141338
0.00016586957
-0.00011237728
0.00018836981
-0.00011034048
0.00021039871
-0.00010802908
0.0002319016
-0.00010544948
0.00025282524
-0.00010260882
0.00027311801
-9.9514942e-05
0.00029272999
-9.6176335e-05
0.00031161316
-9.2602138e-05
0.00032972147
-8.8802085e-05
0.00034701095
-8.4786481e-05
0.00036343987
-8.0566161e-05
0.0003789688
-7.6152454e-05
0.0003935607
-7.1557144e-05
0.00040718104
-6.6792434e-05
0.00041979784
-6.1870899e-05
0.00043138174
-5.6805452e-05
0.00044190611
-5.1609302e-05
0.00045134701
-4.629591e-05
0.00045968334
-4.0878952e-05
0.0004668968
-3.5372274e-05
0.00047297193
-2.9789858e-05
0.00047789615
-2.4145776e-05
0.00048165977
-1.8454154e-05
0.00048425596
-1.2729132e-05
0.00048568078
-6.9848269e-06
0.00048593316
-1.2352966e-06
0.00048501488
4.5054983e-06
0.00048293053
1.0223728e-05
0.00047968749
1.5905724e-05
0.00047529589
2.1538014e-05
0.00046976856
2.7107352e-05
0.00046312099
3.2600749e-05
0.00045537124
3.8005498e-05
0.00044653992
4.3309203e-05
0.00043665009
4.8499801e-05
0.0004257272
5.3565588e-05
0.00041379902
5.8495236e-05
0.00040089553
6.3277815e-05
0.00038704887
6.7902811e-05
0.00037229323
7.236014e-05
0.00035666477
7.6640165e-05
0.00034020153
8.0733709e-05
0.0003229433
8.4632062e-05
0.00030493158
8.8326998e-05
0.00028620943
9.1810778e-05
0.00026682139
9.5076157e-05
0.00024681336
9.8116396e-05
0.00022623255
0.00010092526
0.00020512729
0.00010349702
0.000183547
0.00010582648
0.00016154206
0.00010790894
0.00013916368
0.00010974023
0.00011646383
0.00011131669
9.3495112e-05
0.0001126352
7.0310659e-05
0.00011369314
4.6964034e-05
0.00011448842
2.3509117e-05
0.00011501948
2.1894489e-13
0.00011528527
-2.3509116e-05
0.00011528527
-4.6964034e-05
0.00011501948
-7.0310659e-05
0.00011448842
-9.3495111e-05
0.00011369314
-0.00011646383
0.0001126352
-0.00013916368
0.00011131669
-0.00016154206
0.00010974023
-0.000183547
0.00010790894
-0.00020512729
0.00010582648
-0.00022623255
0.00010349702
-0.00024681336
0.00010092526
-0.00026682139
9.8116396e-05
-0.00028620943
9.5076157e-05
-0.00030493158
9.1810778e-05
-0.0003229433
8.8326999e-05
-0.00034020153
8.4632062e-05
-0.00035666477
8.0733709e-05
-0.00037229323
7.6640165e-05
-0.00038704887
7.236014e-05
-0.00040089553
6.7902811e-05
-0.00041379902
6.3277815e-05
-0.0004257272
5.8495236e-05
-0.00043665009
5.3565589e-05
-0.00044653992
4.8499802e-05
-0.00045537124
4.3309203e-05
-0.00046312099
3.8005498e-05
-0.00046976856
3.2600749e-05
-0.00047529589
2.7107352e-05
-0.00047968749
2.1538014e-05
-0.00048293053
1.5905724e-05
-0.00048501488
1.0223728e-05
-0.00048593316
4.5054984e-06
-0.00048568078
-1.2352964e-06
-0.00048425596
-6.9848268e-06
-0.00048165977
-1.2729132e-05
-0.00047789615
-1.8454154e-05
-0.00047297193
-2.4145776e-05
-0.0004668968
-2.9789858e-05
-0.00045968334
-3.5372274e-05
-0.00045134701
-4.0878951e-05
-0.00044190611
-4.629591e-05
-0.00043138174
-5.1609302e-05
-0.00041979784
-5.6805452e-05
-0.00040718104
-6.1870899e-05
-0.0003935607
-6.6792434e-05
-0.0003789688
-7.1557144e-05
-0.00036343987
-7.6152454e-05
-0.00034701095
-8.0566161e-05
-0.00032972147
-8.4786481e-05
-0.00031161316
-8.8802085e-05
-0.00029272999
-9.2602138e-05
-0.00027311801
-9.6176335e-05
-0.00025282524
-9.9514942e-05
-0.0002319016
-0.00010260882
-0.00021039871
-0.00010544948
-0.00018836981
-0.00010802908
-0.00016586957
-0.00011034048
-0.00014295401
-0.00011237728
-0.00011968026
-0.0001141338
-9.6106482e-05
-0.00011560515
-7.2291664e-05
-0.0001167872
-4.8295471e-05
-0.00011767665
-2.4178078e-05
-0.00011827101
-0.00011856861
2.4546644e-05
-0.00014311525
4.9031684e-05
-0.00014275605
7.3393686e-05
-0.00014203865
9.7571566e-05
-0.00014096508
0.00012150475
-0.00013953833
0.00014513336
-0.00013776241
0.00016839836
-0.00013564228
0.00019124174
-0.00013318386
0.00021360664
-0.00013039398
0.00023543756
-0.0001272804
0.00025668046
-0.00012385172
0.00027728292
-0.0001201174
0.00029719428
-0.0001160877
0.00031636579
-0.00011177364
0.00033475069
-0.00010718698
0.00035230435
-0.00010234015
0.00036898442
-9.7246222e-05
0.00038475084
-9.1918877e-05
0.00039956603
-8.6372334e-05
0.00041339491
-8.0621319e-05
0.00042620502
-7.468101e-05
0.00043796656
-6.8566991e-05
0.00044865246
-6.2295201e-05
0.00045823844
-5.5881888e-05
0.00046670304
-4.9343556e-05
0.00047402769
-4.2696916e-05
0.00048019667
-3.5958841e-05
0.00048519721
-2.9146316e-05
0.00048901944
-2.2276388e-05
0.00049165644
-1.5366126e-05
0.00049310418
-8.4325677e-06
0.00049336156
-1.4926804e-06
0.00049243038
5.436684e-06
0.00049031527
1.2338831e-05
0.00048702373
1.9197262e-05
0.00048256603
2.5995714e-05
0.00047695519
3.2718199e-05
0.0004702069
3.9349034e-05
0.00046233952
4.5872882e-05
0.00045337394
5.2274777e-05
0.00044333359
5.8540157e-05
0.00043224429
6.4654891e-05
0.00042013422
7.0605303e-05
0.00040703383
7.63782e-05
0.00039297576
8.1960886e-05
0.00037799471
8.7341191e-05
0.00036212739
9.2507479e-05
0.00034541243
9.7448672e-05
0.00032789024
0.00010215426
0.00030960294
0.0001066143
0.00029059425
0.00011081946
0.00027090942
0.00011476099
0.00025059504
0.00011843077
0.00022969905
0.00012182125
0.00020827054
0.00012492554
0.00018635967
0.00012773735
0.00016401761
0.00013025101
0.00014129635
0.00013246149
0.00011824867
0.00013436438
9.4927974e-05
0.00013595589
7.1388222e-05
0.00013723289
4.76838e-05
0.00013819284
2.3869417e-05
0.00013883386
2.1896697e-13
0.00013915469
-2.3869417e-05
0.00013915469
-4.76838e-05
0.00013883386
-7.1388222e-05
0.00013819284
-9.4927973e-05
0.00013723289
-0.00011824867
0.00013595589
-0.00014129635
0.00013436438
-0.00016401761
0.00013246149
-0.00018635967
0.00013025101
-0.00020827054
0.00012773735
-0.00022969905
0.00012492554
-0.00025059504
0.00012182125
-0.00027090942
0.00011843077
-0.00029059425
0.000114761
-0.00030960294
0.00011081946
-0.00032789024
0.0001066143
-0.00034541243
0.00010215426
-0.00036212739
9.7448672e-05
-0.00037799471
9.2507479e-05
-0.00039297576
8.7341191e-05
-0.00040703383
8.1960887e-05
-0.00042013422
7.63782e-05
-0.00043224429
7.0605303e-05
-0.00044333359
6.4654891e-05
-0.00045337394
5.8540157e-05
-0.00046233952
5.2274777e-05
-0.0004702069
4.5872882e-05
-0.00047695519
3.9349034e-05
-0.00048256603
3.2718199e-05
-0.00048702373
2.5995715e-05
-0.00049031527
1.9197262e-05
-0.00049243038
1.2338831e-05
-0.00049336156
5.4366841e-06
-0.00049310418
-1.4926803e-06
-0.00049165644
-8.4325675e-06
-0.00048901944
-1.5366126e-05
-0.00048519721
-2.2276388e-05
-0.00048019667
-2.9146315e-05
-0.00047402769
-3.5958841e-05
-0.00046670304
-4.2696916e-05
-0.00045823844
-4.9343555e-05
-0.00044865246
-5.5881888e-05
-0.00043796656
-6.2295201e-05
-0.00042620502
-6.856699e-05
-0.00041339491
-7.4681009e-05
-0.00039956603
-8.0621319e-05
-0.00038475084
-8.6372334e-05
-0.00036898442
-9.1918877e-05
-0.00035230435
-9.7246222e-05
-0.00033475069
-0.00010234015
-0.00031636579
-0.00010718698
-0.00029719428
-0.00011177364
-0.00027728292
-0.0001160877
-0.00025668046
-0.0001201174
-0.00023543756
-0.00012385172
-0.00021360664
-0.0001272804
-0.00019124174
-0.00013039398
-0.00016839836
-0.00013318386
-0.00014513336
-0.00013564228
-0.00012150475
-0.00013776241
-9.7571566e-05
-0.00013953833
-7.3393687e-05
-0.00014096508
-4.9031684e-05
-0.00014203865
-2.4546645e-05
-0.00014275605
-0.00014311525
2.498452e-05
-0.00016809977
4.9906344e-05
-0.00016767787
7.4702953e-05
-0.00016683526
9.9312179e-05
-0.0001655743
0.00012367238
-0.00016389853
0.00014772261
-0.00016181264
0.00017140279
-0.00015932247
0.00019465389
-0.00015643495
0.00021741804
-0.00015315814
0.00023963875
-0.00014950111
0.00026126103
-0.000145474
0.00028223154
-0.00014108791
0.00030249871
-0.00013635488
0.00032201292
-0.00013128786
0.00034072659
-0.00012590065
0.0003585943
-0.00012020786
0.00037557293
-0.00011422485
0.00039162172
-0.00010796767
0.00040670241
-0.00010145303
0.00042077931
-9.4698209e-05
0.00043381934
-8.7721044e-05
0.00044579218
-8.0539833e-05
0.00045667027
-7.3173292e-05
0.00046642889
-6.5640503e-05
0.00047504618
-5.7960845e-05
0.00048250321
-5.0153946e-05
0.00048878399
-4.223962e-05
0.00049387549
-3.4237815e-05
0.00049776765
-2.6168553e-05
0.0005004534
-1.8051879e-05
0.00050192864
-9.9078061e-06
0.00050219222
-1.7562624e-06
0.00050124595
6.3829573e-06
0.00049909454
1.4490242e-05
0.00049574559
2.2546213e-05
0.00049120954
3.0531764e-05
0.00048549962
3.8428114e-05
0.00047863182
4.621684e-05
0.00047062478
5.3879923e-05
0.00046149977
6.139978e-05
0.00045128063
6.8759304e-05
0.00043999363
7.5941891e-05
0.00042766745
8.2931477e-05
0.0004143331
8.9712557e-05
0.00040002376
9.627022e-05
0.00038477479
0.00010259016
0.00036862355
0.00010865872
0.00035160935
0.00011446287
0.00033377333
0.00011999027
0.00031515838
0.00012522925
0.00029580902
0.00013016883
0.00027577128
0.00013479874
0.00025509262
0.00013910942
0.00023382184
0.00014309204
0.0002120089
0.00014673848
0.0001897049
0.00015004135
0.0001669619
0.00015299401
0.00014383286
0.00015559053
0.00012037149
0.00015782574
9.663218e-05
0.00015969521
7.2669852e-05
0.00016119522
4.8539876e-05
0.00016232282
2.4297953e-05
0.00016307579
2.1884817e-13
0.00016345264
-2.4297952e-05
0.00016345264
-4.8539876e-05
0.00016307579
-7.2669851e-05
0.00016232282
-9.663218e-05
0.00016119522
-0.00012037149
0.00015969521
-0.00014383286
0.00015782574
-0.0001669619
0.00015559053
-0.0001897049
0.00015299401
-0.0002120089
0.00015004135
-0.00023382184
0.00014673848
-0.00025509262
0.00014309204
-0.00027577128
0.00013910942
-0.00029580902
0.00013479874
-0.00031515838
0.00013016883
-0.00033377333
0.00012522925
-0.00035160935
0.00011999027
-0.00036862355
0.00011446287
-0.00038477479
0.00010865872
-0.00040002376
0.00010259016
-0.0004143331
9.627022e-05
-0.00042766745
8.9712558e-05
-0.00043999363
8.2931477e-05
-0.00045128063
7.5941892e-05
-0.00046149977
6.8759304e-05
-0.00047062478
6.139978e-05
-0.00047863182
5.3879923e-05
-0.00048549962
4.621684e-05
-0.00049120954
3.8428114e-05
-0.00049574559
3.0531764e-05
-0.00049909454
2.2546213e-05
-0.00050124595
1.4490243e-05
-0.00050219222
6.3829575e-06
-0.00050192864
-1.7562622e-06
-0.0005004534
-9.9078059e-06
-0.00049776765
-1.8051879e-05
-0.00049387549
-2.6168553e-05
-0.00048878399
-3.4237815e-05
-0.00048250321
-4.223962e-05
-0.00047504618
-5.0153946e-05
-0.00046642889
-5.7960845e-05
-0.00045667027
-6.5640502e-05
-0.00044579218
-7.3173292e-05
-0.00043381934
-8.0539832e-05
-0.00042077931
-8.7721044e-05
-0.00040670242
-9.4698209e-05
-0.00039162172
-0.00010145303
-0.00037557293
-0.00010796767
-0.0003585943
-0.00011422485
-0.00034072659
-0.00012020786
-0.00032201292
-0.00012590065
-0.00030249871
-0.00013128786
-0.00028223154
-0.00013635488
-0.00026126103
-0.00014108791
-0.00023963875
-0.000145474
-0.00021741804
-0.00014950111
-0.00019465389
-0.00015315814
-0.00017140279
-0.00015643495
-0.00014772261
-0.00015932247
-0.00012367238
-0.00016181264
-9.9312179e-05
-0.00016389853
-7.4702954e-05
-0.0001655743
-4.9906345e-05
-0.00016683526
-2.498452e-05
-0.00016767787
-0.00016809977
2.5492709e-05
-0.00019359248
5.0921458e-05
-0.00019310662
7.6222468e-05
-0.00019213627
0.00010133232
-0.00019068415
0.00012618812
-0.00018875433
0.0001507277
-0.00018635222
0.00017488977
-0.00018348454
0.0001986141
-0.00018015928
0.00022184167
-0.00017638571
0.00024451485
-0.00017217429
0.00026657752
-0.00016753668
0.00028797527
-0.00016248566
0.00030865551
-0.00015703511
0.00032856759
-0.00015119994
0.00034766298
-0.00014499604
0.00036589533
-0.00013844022
0.00038322065
-0.00013155017
0.00039959736
-0.00012434437
0.0004149864
-0.00011684207
0.00042935135
-0.00010906316
0.00044265847
-0.00010102817
0.0004548768
-9.2758161e-05
0.00046597821
-8.4274698e-05
0.00047593745
-7.5599743e-05
0.00048473221
-6.675561e-05
0.00049234316
-5.7764898e-05
0.00049875397
-4.8650424e-05
0.00050395131
-3.9435154e-05
0.0005079249
-3.0142146e-05
0.0005106675
-2.0794481e-05
0.0005121749
-1.1415206e-05
0.00051244591
-2.0272732e-06
0.00051148235
7.3465214e-06
0.000509289
1.6683591e-05
0.0005058736
2.5961614e-05
0.00050124678
3.5158585e-05
0.00049542202
4.4252871e-05
0.00048841561
5.3223249e-05
0.00048024657
6.2048962e-05
0.00047093659
7.0709757e-05
0.00046050997
7.9185925e-05
0.00044899353
8.7458339e-05
0.00043641651
9.5508491e-05
0.00042281055
0.00010331852
0.00040820952
0.00011087125
0.00039264948
0.0001181502
0.00037616857
0.00012513963
0.0003588069
0.00013182454
0.00034060647
0.00013819071
0.00032161103
0.00014422469
0.00030186602
0.00014991384
0.00028141842
0.00015524633
0.00026031669
0.00016021115
0.00023861061
0.00016479812
0.00021635118
0.0001689979
0.00019359055
0.00017280198
0.00017038187
0.00017620269
0.00014677918
0.00017919322
0.0001228373
0.00018176762
9.8611738e-05
0.00018392077
7.4158559e-05
0.0001856484
4.9534273e-05
0.0001869471
2.4795729e-05
0.00018781433
2.1856051e-13
0.00018824837
-2.4795729e-05
0.00018824837
-4.9534273e-05
0.00018781433
-7.4158559e-05
0.0001869471
-9.8611738e-05
0.0001856484
-0.0001228373
0.00018392077
-0.00014677918
0.00018176762
-0.00017038187
0.00017919322
-0.00019359055
0.00017620269
-0.00021635118
0.00017280198
-0.00023861061
0.0001689979
-0.00026031669
0.00016479812
-0.00028141842
0.00016021115
-0.00030186602
0.00015524633
-0.00032161103
0.00014991384
-0.00034060647
0.00014422469
-0.0003588069
0.00013819071
-0.00037616857
0.00013182454
-0.00039264948
0.00012513963
-0.00040820952
0.0001181502
-0.00042281055
0.00011087125
-0.00043641651
0.00010331852
-0.00044899353
9.5508491e-05
-0.00046050997
8.7458339e-05
-0.00047093659
7.9185925e-05
-0.00048024657
7.0709757e-05
-0.00048841561
6.2048963e-05
-0.00049542202
5.3223249e-05
-0.00050124677
4.4252871e-05
-0.0005058736
3.5158586e-05
-0.000509289
2.5961614e-05
-0.00051148235
1.6683591e-05
-0.00051244591
7.3465216e-06
-0.0005121749
-2.027273e-06
-0.0005106675
-1.1415206e-05
-0.0005079249
-2.0794481e-05
-0.00050395131
-3.0142145e-05
-0.00049875397
-3.9435154e-05
-0.00049234316
-4.8650424e-05
-0.00048473221
-5.7764898e-05
-0.00047593745
-6.675561e-05
-0.00046597821
-7.5599742e-05
-0.0004548768
-8.4274698e-05
-0.00044265847
-9.2758161e-05
-0.00042935135
-0.00010102816
-0.0004149864
-0.00010906316
-0.00039959736
-0.00011684207
-0.00038322065
-0.00012434437
-0.00036589533
-0.00013155017
-0.00034766298
-0.00013844022
-0.00032856759
-0.00014499604
-0.00030865551
-0.00015119994
-0.00028797527
-0.00015703511
-0.00026657752
-0.00016248566
-0.00024451485
-0.00016753668