/*--------------------------------*- C++ -*----------------------------------*\
| =========                 |                                                 |
| \\      /  F ield         | OpenFOAM: The Open Source CFD Toolbox           |
|  \\    /   O peration     | Version:  2106                                  |
|   \\  /    A nd           | Website:  www.openfoam.com                      |
|    \\/     M anipulation  |                                                 |
\*---------------------------------------------------------------------------*/
FoamFile
{
    version     2.0;
    format      ascii;
    arch        "LSB;label=32;scalar=64";
    class       surfaceScalarField;
    location    "0.033";
    object      phi_0;
}
// * * * * * * * * * * * * * * * * * * * * * * * * * * * * * * * * * * * * * //

dimensions      [0 3 -1 0 0 0 0];

oriented        oriented;

internalField   nonuniform List<scalar> 
480
(
0.0015979103
-0.0015968056
0.0029514764
-0.0013535661
0.0038558624
-0.00090438602
0.0041735015
-0.00031763907
0.0038574848
0.00031601665
0.0029535761
0.0009039087
0.0015984452
0.001355131
-1.0348277e-06
0.00159948
-0.0016004047
0.0015993699
-0.0029552037
0.001354799
-0.0038585279
0.00090332419
-0.0041735894
0.00031506149
-0.0038549659
-0.0003186235
-0.0029498081
-0.00090515785
-0.0015958266
-0.0013539815
-0.0015969312
0.0018713884
-0.0034669366
0.0034562933
-0.002938471
0.0045148554
-0.0019629482
0.0048862196
-0.0006890033
0.0045169803
0.000685256
0.0034590644
0.0019618246
0.0018722352
0.0029419602
-1.1594969e-06
0.0034728747
-0.0018744506
0.0034726611
-0.0034609661
0.0029413145
-0.0045182965
0.0019606545
-0.0048863797
0.00068314467
-0.004513749
-0.00069125412
-0.0034543027
-0.0019646042
-0.0018689849
-0.0029392992
-0.0034671735
0.0024907339
-0.005956141
0.0045997778
-0.0050475149
0.0060074691
-0.0033706394
0.0064995216
-0.0011810557
0.0060098942
0.0011748834
0.0046034645
0.0033682542
0.0024920131
0.0050534116
-1.391545e-06
0.0059662793
-0.0024947039
0.0059659734
-0.004605904
0.0050525146
-0.0060118126
0.0033665632
-0.0064998553
0.0011711874
-0.0060058568
-0.0011852526
-0.0045971253
-0.0033733357
-0.002487734
-0.0050486906
-0.005956437
0.0035038851
-0.0094580676
0.0064680221
-0.0080116519
0.0084433035
-0.0053459209
0.0091298323
-0.0018675845
0.0084456728
0.0018590429
0.0064716932
0.0053422338
0.0035042761
0.0080208286
-1.7067085e-06
0.0094722622
-0.003507653
0.0094719197
-0.006475059
0.0080199206
-0.0084488492
0.0053403534
-0.0091308097
0.0018531478
-0.0084405746
-0.0018754877
-0.0064640977
-0.0053498127
-0.0034998684
-0.0080129199
-0.0094582639
0.0054336632
-0.014889573
0.010032343
-0.012610332
0.0130945
-0.0084080776
0.014145652
-0.0029187364
0.0130919
0.002912795
0.010034115
0.0084000182
0.0054334425
0.012621501
-1.9333995e-06
0.014907638
-0.0054373285
0.014907315
-0.010038587
0.012621179
-0.01309742
0.0083991859
-0.014148369
0.0029040969
-0.013089052
-0.0029348046
-0.010026486
-0.0084123787
-0.0054287722
-0.012610634
-0.014889193
0.0081021862
-0.022989207
0.014950333
-0.019458478
0.01949892
-0.012956665
0.021041339
-0.0044611561
0.019482206
0.0044719279
0.01493017
0.012952055
0.0080828291
0.019468842
-2.1259971e-06
0.022992593
-0.0080872636
0.022992452
-0.014936229
0.019470145
-0.019491604
0.01295456
-0.021049393
0.0044618856
-0.019488914
-0.0044952832
-0.014941143
-0.01296015
-0.0080956316
-0.019456145
-0.022987378
0.010760403
-0.03374857
0.01991575
-0.028613825
0.026029855
-0.01907077
0.028037229
-0.0064685292
0.025998882
0.0065102744
0.019896875
0.019054062
0.010754024
0.028611693
-1.7320546e-06
0.033748349
-0.010757292
0.033748012
-0.019903609
0.028616462
-0.026019575
0.019070527
-0.028062633
0.0065049443
-0.026002261
-0.0065556552
-0.019899645
-0.019062766
-0.010754222
-0.028601568
-0.03374264
0.0068227662
-0.04056761
0.01266093
-0.034451989
0.016617734
-0.023027574
0.017904836
-0.0077556318
0.016588859
0.0078262514
0.012619862
0.023023059
0.0067807153
0.03445084
-3.2650573e-06
0.04053233
-0.0067874282
0.040532175
-0.012629541
0.034458575
-0.016612239
0.023053225
-0.017934594
0.0078272987
-0.016592013
-0.0078982359
-0.012640388
-0.023014391
-0.0068105137
-0.034431442
-0.04055688
-0.0067261601
-0.033845304
-0.012493466
-0.028684683
-0.0164151
-0.019105941
-0.017705192
-0.0064655391
-0.016422242
0.0065433011
-0.012505103
0.01910592
-0.0067244745
0.028670212
3.2989247e-06
0.033804556
0.0067312961
0.033804178
0.012514941
0.02867493
0.016445885
0.019122281
0.017735041
0.0065381424
0.016388718
-0.0065519121
0.012472185
-0.019097859
0.006713646
-0.028672903
-0.03383938
-0.010732581
-0.023113599
-0.019848671
-0.019568593
-0.025937073
-0.013017539
-0.027939473
-0.0044631389
-0.025912182
0.0045160098
-0.019827232
0.013020971
-0.010708419
0.019551398
1.6318306e-06
0.023094505
0.010711468
0.023094342
0.019833762
0.019552635
0.025932591
0.013023453
0.02796469
0.0045060424
0.025909896
-0.0044971179
0.019833136
-0.013021098
0.010726713
-0.01956648
-0.023111791
-0.0079281279
-0.015188007
-0.014639904
-0.012856817
-0.019103829
-0.0085536134
-0.020620194
-0.0029467741
-0.019098651
0.0029944675
-0.01464465
0.0085669689
-0.0079345872
0.012841336
2.1181584e-06
0.0151578
0.0079390094
0.015157451
0.014650716
0.012840928
0.019108031
0.008566138
0.020628297
0.0029857767
0.019094022
-0.0029628428
0.014630931
-0.0085580076
0.0079216474
-0.012857196
-0.015187608
-0.005417575
-0.0097724889
-0.010002527
-0.0082718651
-0.013051719
-0.0055044216
-0.014095672
-0.001902821
-0.013041844
0.0019406389
-0.0099917701
0.0055168954
-0.00540977
0.0082593358
1.8749338e-06
0.0097461551
0.005413542
0.0097457837
0.0099961365
0.008258334
0.013047333
0.0055149409
0.014098413
0.0019346975
0.013046346
-0.0019107758
0.0099967778
-0.0055084398
0.0054128416
-0.0082732598
-0.0097727093
-0.0030959237
-0.0066781774
-0.005714912
-0.0056528769
-0.0074569069
-0.0037624267
-0.0080570876
-0.0013026403
-0.0074495601
0.0013331114
-0.0057071782
0.0037745134
-0.0030908154
0.005642973
1.3565754e-06
0.0066539831
0.0030935436
0.0066535967
0.0057100173
0.0056418602
0.0074524376
0.0037725206
0.008058083
0.0013290521
0.0074545286
-0.0013072213
0.0057115303
-0.0037654415
0.0030925528
-0.0056542823
-0.0066785442
-0.0024860687
-0.0041940547
-0.0045893379
-0.0035496077
-0.0059897413
-0.0023620233
-0.0064747649
-0.00081761657
-0.0059817387
0.00084008516
-0.0045784087
0.0023711835
-0.0024772415
0.0035418058
1.8174363e-06
0.0041749242
0.0024807183
0.0041746958
0.0045814507
0.0035411279
0.0059839904
0.0023699808
0.006475111
0.00083793149
0.0059878059
-0.00081991619
0.004586092
-0.0023637276
0.002482292
-0.0035504823
-0.0041943062
-0.0012353236
-0.0029584957
-0.0022809279
-0.0025040033
-0.0029764707
-0.0016664806
-0.0032169891
-0.00057709818
-0.0029690764
0.00059217249
-0.0022711156
0.0016732227
-0.0012289247
0.0024996149
-2.8856339e-07
0.0029462881
0.0012284385
0.0029459687
0.0022708888
0.0024986775
0.0029691781
0.0016716916
0.003217103
0.00059000657
0.0029765127
-0.00057932597
0.0022810846
-0.0016682995
0.0012356929
-0.0025050906
-0.0029588487
-0.0029611332
-0.0054651161
-0.0071315843
-0.0077086809
-0.0071165132
-0.0054433011
-0.0029437109
2.5449634e-06
0.0029484824
0.0054471379
0.0071188226
0.0077088284
0.0071295091
0.0054612268
0.00295616
)
;

boundaryField
{
    leftWall
    {
        type            cyclic;
        value           nonuniform List<scalar> 
16
(
-1.1046238e-06
-1.2573838e-06
-1.5295049e-06
-1.9585545e-06
-2.1573852e-06
-2.5529116e-06
-1.0400003e-06
-3.7256426e-06
3.8534729e-06
8.7636311e-07
2.5354935e-06
2.0573248e-06
1.6123065e-06
1.9459449e-06
-2.35399e-07
2.6625257e-06
)
;
    }
    rightWall
    {
        type            cyclic;
        value           nonuniform List<scalar> 
16
(
1.1046238e-06
1.2573838e-06
1.5295049e-06
1.9585545e-06
2.1573852e-06
2.5529116e-06
1.0400003e-06
3.7256426e-06
-3.8534729e-06
-8.7636311e-07
-2.5354935e-06
-2.0573248e-06
-1.6123065e-06
-1.9459449e-06
2.35399e-07
-2.6625257e-06
)
;
    }
    lowerWall
    {
        type            calculated;
        value           uniform 0;
    }
    atmosphere
    {
        type            calculated;
        value           nonuniform List<scalar> 
16
(
-2.5013905e-08
-2.0462086e-08
-1.2387044e-08
-1.5618989e-09
4.7969689e-09
1.0531004e-08
2.4665662e-08
3.2232917e-08
3.126443e-08
2.2013839e-08
7.0179881e-09
7.4238553e-10
-6.6894953e-09
-1.7252463e-08
-2.3731839e-08
-2.6166464e-08
)
;
    }
    defaultFaces
    {
        type            empty;
        value           nonuniform List<scalar> 0();
    }
}


// ************************************************************************* //
