/*--------------------------------*- C++ -*----------------------------------*\
| =========                 |                                                 |
| \\      /  F ield         | OpenFOAM: The Open Source CFD Toolbox           |
|  \\    /   O peration     | Version:  2106                                  |
|   \\  /    A nd           | Website:  www.openfoam.com                      |
|    \\/     M anipulation  |                                                 |
\*---------------------------------------------------------------------------*/
FoamFile
{
    version     2.0;
    format      ascii;
    arch        "LSB;label=32;scalar=64";
    class       volVectorField;
    location    "0.033";
    object      U_0;
}
// * * * * * * * * * * * * * * * * * * * * * * * * * * * * * * * * * * * * * //

dimensions      [0 1 -1 0 0 0 0];

internalField   nonuniform List<vector> 
256
(
(0.013288779 -0.011759747 0)
(0.037806441 -0.0099673583 0)
(0.056571081 -0.006658279 0)
(0.066721048 -0.0023364099 0)
(0.066735634 0.0023331222 0)
(0.056611961 0.0066630672 0)
(0.037836561 0.0099877152 0)
(0.013279146 0.011787969 0)
(-0.013312204 0.011787075 0)
(-0.037865796 0.0099850084 0)
(-0.056634445 0.0066583251 0)
(-0.066745041 0.0023256747 0)
(-0.066714188 -0.0023441095 0)
(-0.056549895 -0.0066644403 0)
(-0.037775522 -0.0099707841 0)
(-0.013253488 -0.011760805 0)
(0.0155651 -0.039543992 0)
(0.044280582 -0.033522042 0)
(0.066251157 -0.022400015 0)
(0.078122155 -0.0078697767 0)
(0.078143076 0.0078195381 0)
(0.0663028 0.022378258 0)
(0.044322045 0.033550503 0)
(0.01555656 0.039600533 0)
(-0.015593578 0.039597898 0)
(-0.044355436 0.033542591 0)
(-0.066330238 0.022364354 0)
(-0.078155504 0.0077964693 0)
(-0.078113913 -0.007893592 0)
(-0.066225469 -0.022418434 0)
(-0.04424423 -0.03353182 0)
(-0.015524957 -0.039546924 0)
(0.020716603 -0.071017452 0)
(0.058936682 -0.06018471 0)
(0.088167152 -0.040196186 0)
(0.10392163 -0.014099183 0)
(0.10394396 0.014037951 0)
(0.088231033 0.040190829 0)
(0.058994371 0.060274454 0)
(0.020708999 0.071154399 0)
(-0.020753355 0.071150116 0)
(-0.059035525 0.060261489 0)
(-0.088269139 0.040167096 0)
(-0.10396339 0.013993457 0)
(-0.10390986 -0.014147744 0)
(-0.088131408 -0.040231123 0)
(-0.058889563 -0.060201907 0)
(-0.020667829 -0.071022308 0)
(0.02915067 -0.12018832 0)
(0.082908755 -0.10185928 0)
(0.12397107 -0.068021112 0)
(0.14600679 -0.023818541 0)
(0.14602571 0.023677718 0)
(0.12403693 0.067943096 0)
(0.082966574 0.10195416 0)
(0.029130931 0.12037555 0)
(-0.029185216 0.12037015 0)
(-0.083019408 0.10193888 0)
(-0.12409585 0.067913509 0)
(-0.14606287 0.02360416 0)
(-0.14598884 -0.023905707 0)
(-0.12391389 -0.068071507 0)
(-0.082842219 -0.10187865 0)
(-0.029088398 -0.12019248 0)
(0.045197181 -0.18138908 0)
(0.12859218 -0.1535818 0)
(0.19232298 -0.10241538 0)
(0.22628915 -0.035720276 0)
(0.22624186 0.035617496 0)
(0.19231569 0.10241502 0)
(0.12865 0.15380613 0)
(0.045173686 0.18166034 0)
(-0.045234988 0.18165401 0)
(-0.12871202 0.15379008 0)
(-0.19240961 0.10238206 0)
(-0.22631796 0.035505101 0)
(-0.22625483 -0.035880266 0)
(-0.19222139 -0.10248994 0)
(-0.1285019 -0.15360618 0)
(-0.045128649 -0.18139292 0)
(0.067405419 -0.29676239 0)
(0.19170572 -0.25143098 0)
(0.28663499 -0.16767464 0)
(0.33675899 -0.058025772 0)
(0.33656083 0.057935617 0)
(0.28627196 0.16740521 0)
(0.19144719 0.25156926 0)
(0.06721142 0.29710901 0)
(-0.067278605 0.2971062 0)
(-0.19151792 0.25157854 0)
(-0.28641992 0.16741598 0)
(-0.33672377 0.057768804 0)
(-0.33670626 -0.058406954 0)
(-0.28644639 -0.1677399 0)
(-0.19157629 -0.25141226 0)
(-0.067325156 -0.29674347 0)
(0.089328732 -0.43606461 0)
(0.25497364 -0.36877215 0)
(0.38249382 -0.24523853 0)
(0.44926042 -0.084170427 0)
(0.44877539 0.084687621 0)
(0.38196034 0.24543234 0)
(0.25492019 0.3689997 0)
(0.089376711 0.43581016 0)
(-0.089431284 0.43580595 0)
(-0.25496885 0.36902128 0)
(-0.38221901 0.24548754 0)
(-0.44924763 0.084539174 0)
(-0.44913908 -0.084805684 0)
(-0.38198921 -0.24527786 0)
(-0.25479522 -0.36872756 0)
(-0.089296388 -0.43603197 0)
(0.056648765 -0.64773403 0)
(0.16171888 -0.5503434 0)
(0.24402096 -0.36777474 0)
(0.2869784 -0.1239867 0)
(0.28652958 0.12439564 0)
(0.24342718 0.36688091 0)
(0.16117969 0.54997665 0)
(0.056196884 0.64786379 0)
(-0.056301734 0.64786072 0)
(-0.16127262 0.55010983 0)
(-0.24366124 0.3673655 0)
(-0.28716258 0.1243976 0)
(-0.28693441 -0.1262194 0)
(-0.24336553 -0.36752096 0)
(-0.16146827 -0.54999834 0)
(-0.056532604 -0.64756688 0)
(-0.055833248 -0.64646373 0)
(-0.1595974 -0.54842057 0)
(-0.24103533 -0.3658848 0)
(-0.28358575 -0.1227693 0)
(-0.28352546 0.12481539 0)
(-0.24101104 0.36648506 0)
(-0.15968402 0.54854277 0)
(-0.05574222 0.6452382 0)
(0.05584775 0.64523376 0)
(0.15977705 0.54867254 0)
(0.24124371 0.36696357 0)
(0.28416202 0.12480837 0)
(0.28354788 -0.12501646 0)
(0.2403845 -0.36563862 0)
(0.15934692 -0.54808338 0)
(0.055712747 -0.64629701 0)
(-0.089201666 -0.44058836 0)
(-0.25426613 -0.37300788 0)
(-0.38118811 -0.2481325 0)
(-0.4476477 -0.085032706 0)
(-0.44725263 0.08569901 0)
(-0.38063056 0.24785727 0)
(-0.25387951 0.37268043 0)
(-0.088884916 0.44059001 0)
(0.088936336 0.44058543 0)
(0.25392139 0.37270179 0)
(0.38088211 0.24791138 0)
(0.44772032 0.085547466 0)
(0.44753343 -0.085669972 0)
(0.38069698 -0.2481712 0)
(0.25409181 -0.3729687 0)
(0.089174414 -0.44055576 0)
(-0.065955757 -0.29568599 0)
(-0.18772593 -0.25032186 0)
(-0.28077652 -0.16652417 0)
(-0.33000575 -0.057219483 0)
(-0.32986326 0.058128602 0)
(-0.28071879 0.16681069 0)
(-0.18780561 0.25005341 0)
(-0.065984052 0.29508148 0)
(0.06605108 0.29507913 0)
(0.18787557 0.250064 0)
(0.28086581 0.16682677 0)
(0.3300252 0.057969659 0)
(0.32995512 -0.057588091 0)
(0.28059275 -0.16658645 0)
(0.18759758 -0.25030244 0)
(0.065876066 -0.29566623 0)
(-0.045059845 -0.19287965 0)
(-0.12822219 -0.16326811 0)
(-0.19172425 -0.10865572 0)
(-0.22550612 -0.037572316 0)
(-0.22538077 0.038212957 0)
(-0.19150742 0.10883073 0)
(-0.1280553 0.1630539 0)
(-0.044965755 0.19249169 0)
(0.045025236 0.19248258 0)
(0.12811485 0.16302968 0)
(0.1916004 0.10878643 0)
(0.22545779 0.038087008 0)
(0.22547278 -0.037744773 0)
(0.19162417 -0.10874217 0)
(0.12813389 -0.16330096 0)
(0.044994504 -0.19288595 0)
(-0.025765767 -0.11770881 0)
(-0.073292461 -0.099631836 0)
(-0.10955833 -0.066295719 0)
(-0.1289284 -0.022922196 0)
(-0.12884316 0.023448887 0)
(-0.1093979 0.066485259 0)
(-0.073172302 0.099428931 0)
(-0.025698967 0.11725586 0)
(0.025742271 0.1172544 0)
(0.073215711 0.09942476 0)
(0.10944981 0.066473079 0)
(0.12887756 0.023395445 0)
(0.12891362 -0.022989355 0)
(0.10950916 -0.066329173 0)
(0.073235837 -0.099639918 0)
(0.025714385 -0.11770868 0)
(-0.020676735 -0.097804499 0)
(-0.058801168 -0.082793103 0)
(-0.087916939 -0.055122112 0)
(-0.1035367 -0.019110677 0)
(-0.10345689 0.019577783 0)
(-0.087736465 0.05533357 0)
(-0.05862296 0.082684518 0)
(-0.020568686 0.097479729 0)
(0.020626557 0.097466801 0)
(0.058675267 0.082647396 0)
(0.087782506 0.055273419 0)
(0.1034796 0.019490214 0)
(0.10352226 -0.019202528 0)
(0.087873421 -0.055194429 0)
(0.058742701 -0.082835811 0)
(0.020614787 -0.097818374 0)
(-0.010287262 -0.034991512 0)
(-0.02928537 -0.029600118 0)
(-0.043779778 -0.019670733 0)
(-0.051551031 -0.0067830563 0)
(-0.051477509 0.0070182904 0)
(-0.043611474 0.019740377 0)
(-0.029130218 0.029453925 0)
(-0.010231474 0.034705471 0)
(0.010222327 0.034712936 0)
(0.02912432 0.029474623 0)
(0.043611468 0.019770136 0)
(0.051479609 0.0070471418 0)
(0.051551838 -0.006754372 0)
(0.043780982 -0.019644359 0)
(0.029289092 -0.029579915 0)
(0.010294719 -0.034983781 0)
(-0.024630097 -0.060752099 0)
(-0.070019749 -0.05143364 0)
(-0.10466572 -0.03425748 0)
(-0.12327663 -0.011888829 0)
(-0.12313506 0.012144469 0)
(-0.10432193 0.034410936 0)
(-0.069659757 0.051444988 0)
(-0.02442887 0.060650452 0)
(0.024510036 0.060631102 0)
(0.069730084 0.051389514 0)
(0.10437322 0.034324827 0)
(0.12315554 0.012037316 0)
(0.12326054 -0.011998186 0)
(0.10461647 -0.034349905 0)
(0.069946876 -0.051493723 0)
(0.024545192 -0.060772902 0)
)
;

boundaryField
{
    leftWall
    {
        type            cyclic;
    }
    rightWall
    {
        type            cyclic;
    }
    lowerWall
    {
        type            slip;
    }
    atmosphere
    {
        type            slip;
    }
    defaultFaces
    {
        type            empty;
    }
}


// ************************************************************************* //
