/*--------------------------------*- C++ -*----------------------------------*\
| =========                 |                                                 |
| \\      /  F ield         | OpenFOAM: The Open Source CFD Toolbox           |
|  \\    /   O peration     | Version:  2306                                  |
|   \\  /    A nd           | Website:  www.openfoam.com                      |
|    \\/     M anipulation  |                                                 |
\*---------------------------------------------------------------------------*/
FoamFile
{
    version     2.0;
    format      ascii;
    arch        "LSB;label=32;scalar=64";
    class       volVectorField;
    location    "0.04";
    object      U_0;
}
// * * * * * * * * * * * * * * * * * * * * * * * * * * * * * * * * * * * * * //

dimensions      [0 1 -1 0 0 0 0];

internalField   nonuniform List<vector> 
6400
(
(-2.7987978e-07 -4.917846e-06 2.6745017e-22)
(-6.1648681e-07 -4.8983233e-06 7.3453229e-22)
(-1.0101078e-06 -4.8459978e-06 -6.5922314e-21)
(-1.3911252e-06 -4.7673842e-06 -3.8730918e-22)
(-1.7763734e-06 -4.6593838e-06 -5.2251768e-21)
(-2.1550998e-06 -4.5235849e-06 2.8767525e-21)
(-2.5266182e-06 -4.3607795e-06 -4.3966532e-21)
(-2.8902637e-06 -4.1716194e-06 -4.5315328e-21)
(-3.2445835e-06 -3.9569852e-06 -8.4906274e-22)
(-3.5883558e-06 -3.7169845e-06 -3.0317495e-21)
(-3.9207159e-06 -3.4521655e-06 -3.6123928e-21)
(-4.2403395e-06 -3.1638169e-06 -4.0009561e-21)
(-4.5456602e-06 -2.8524702e-06 -3.3411329e-21)
(-4.8356866e-06 -2.5194675e-06 -2.61221e-21)
(-5.1096977e-06 -2.1659267e-06 -3.1164046e-21)
(-5.3678632e-06 -1.7924143e-06 -3.2371366e-21)
(-5.6083025e-06 -1.4010292e-06 -2.0677644e-21)
(-5.829286e-06 -9.9149553e-07 -1.8476471e-21)
(-6.0313733e-06 -5.6479379e-07 -1.3779837e-21)
(-6.2136917e-06 -1.2378422e-07 -1.0722999e-21)
(-6.3757138e-06 3.3084422e-07 -1.5033097e-21)
(-6.5166969e-06 7.9798158e-07 1.3147088e-22)
(-6.6357826e-06 1.2767403e-06 -4.3589701e-22)
(-6.7330465e-06 1.7656715e-06 -1.1150449e-21)
(-6.8081947e-06 2.2630973e-06 -3.6584978e-22)
(-6.8606414e-06 2.7679297e-06 6.9687618e-23)
(-6.8904895e-06 3.2785001e-06 8.5568296e-22)
(-6.8975786e-06 3.7936617e-06 -4.3567548e-22)
(-6.8818568e-06 4.3121193e-06 -1.1105755e-21)
(-6.8434395e-06 4.8323878e-06 2.0239327e-23)
(-6.7823076e-06 5.3528966e-06 6.8670742e-22)
(-6.6986253e-06 5.872411e-06 9.0774529e-22)
(-6.592668e-06 6.389858e-06 -3.0491588e-22)
(-6.4646838e-06 6.9039353e-06 -1.1072695e-21)
(-6.3149032e-06 7.4132726e-06 2.9931999e-22)
(-6.1436858e-06 7.9167936e-06 9.53944e-22)
(-5.9515382e-06 8.4128705e-06 1.2501233e-21)
(-5.7390896e-06 8.9007376e-06 -4.971974e-22)
(-5.5067657e-06 9.3787306e-06 -2.0482851e-22)
(-5.2551255e-06 9.846102e-06 1.1198457e-21)
(-4.9848916e-06 1.0301905e-05 1.4150169e-21)
(-4.696978e-06 1.0745032e-05 9.2061512e-22)
(-4.3918464e-06 1.1174411e-05 3.7724077e-22)
(-4.0702299e-06 1.1589296e-05 1.0796355e-23)
(-3.7327172e-06 1.1988769e-05 -1.3024228e-21)
(-3.3801665e-06 1.2372284e-05 -7.8381045e-23)
(-3.013779e-06 1.2738588e-05 3.7343565e-22)
(-2.6342571e-06 1.3087175e-05 1.6890499e-22)
(-2.242542e-06 1.3417275e-05 -2.1012875e-22)
(-1.8395089e-06 1.3728363e-05 -9.2150574e-22)
(-1.4262634e-06 1.4019894e-05 -1.0291936e-22)
(-1.0035201e-06 1.4291577e-05 7.8272531e-22)
(-5.7191549e-07 1.4543316e-05 -3.800685e-22)
(-1.3247932e-07 1.4773714e-05 2.1714786e-22)
(3.1385814e-07 1.4983623e-05 1.0547386e-21)
(7.6599431e-07 1.5172049e-05 5.9244618e-22)
(1.2228701e-06 1.5338807e-05 1.2543426e-22)
(1.6835302e-06 1.548359e-05 -6.3861386e-22)
(2.1470754e-06 1.5606475e-05 2.538921e-22)
(2.6126134e-06 1.5707401e-05 1.2425227e-21)
(3.0792761e-06 1.5786406e-05 -1.6293137e-22)
(3.5461738e-06 1.5843517e-05 -4.2959056e-22)
(4.0124158e-06 1.5878742e-05 -8.1435489e-22)
(4.4772045e-06 1.5892298e-05 5.0810306e-22)
(4.9397031e-06 1.5884418e-05 1.26852e-21)
(5.3990036e-06 1.5855122e-05 -3.7227823e-22)
(5.8543746e-06 1.580479e-05 -2.222844e-22)
(6.3051576e-06 1.5733676e-05 -2.5314063e-22)
(6.7505464e-06 1.5641834e-05 5.2418422e-22)
(7.18967e-06 1.5529866e-05 1.4758332e-21)
(7.6218543e-06 1.5398125e-05 -1.9040481e-22)
(8.0465943e-06 1.5247013e-05 -7.0100406e-22)
(8.4633166e-06 1.5077031e-05 -4.7762305e-22)
(8.8712004e-06 1.4888531e-05 4.8930705e-22)
(9.2695991e-06 1.4681959e-05 1.2675899e-21)
(9.6582264e-06 1.4457931e-05 -2.9409857e-22)
(1.0036453e-05 1.4216773e-05 -3.8017127e-22)
(1.040363e-05 1.3959155e-05 -9.4877442e-23)
(1.0759277e-05 1.3685557e-05 6.2493386e-22)
(1.1102972e-05 1.3396831e-05 1.2905536e-21)
(-2.6183177e-07 -4.1530227e-06 -1.7306638e-21)
(-5.7533542e-07 -4.1353661e-06 -4.9954344e-21)
(-9.415131e-07 -4.086413e-06 -1.9450799e-20)
(-1.2973583e-06 -4.01179e-06 1.3113818e-21)
(-1.6553096e-06 -3.9106872e-06 -8.5485209e-21)
(-2.0075159e-06 -3.7837255e-06 -4.7462675e-22)
(-2.3539541e-06 -3.6308274e-06 -3.6178852e-21)
(-2.6927703e-06 -3.4525299e-06 3.0798019e-21)
(-3.0226485e-06 -3.2498198e-06 1.2598251e-21)
(-3.3423647e-06 -3.0242531e-06 -7.983931e-22)
(-3.6513515e-06 -2.7759137e-06 1.7717818e-21)
(-3.9489178e-06 -2.5051391e-06 1.268367e-21)
(-4.2326617e-06 -2.2130375e-06 1.8212056e-21)
(-4.5022736e-06 -1.9011422e-06 1.2757484e-21)
(-4.7573742e-06 -1.5692647e-06 2.6703501e-21)
(-4.9965874e-06 -1.2186128e-06 1.4457412e-21)
(-5.2187157e-06 -8.4991956e-07 1.1003094e-21)
(-5.4233195e-06 -4.6524609e-07 1.6169005e-21)
(-5.6106108e-06 -6.5745125e-08 8.8685959e-22)
(-5.7794358e-06 3.4805526e-07 2.609722e-21)
(-5.9286893e-06 7.7495588e-07 7.305069e-22)
(-6.0577665e-06 1.2140411e-06 -6.3484843e-22)
(-6.1665849e-06 1.6639828e-06 1.1235495e-21)
(-6.2548825e-06 2.1234434e-06 -4.8184354e-23)
(-6.3223127e-06 2.5909265e-06 2.504121e-22)
(-6.3684022e-06 3.0651634e-06 1.3634129e-21)
(-6.3932579e-06 3.5449865e-06 -6.3042683e-22)
(-6.3966156e-06 4.0292298e-06 -5.1049701e-22)
(-6.3784354e-06 4.5165838e-06 -6.0308926e-22)
(-6.3389358e-06 5.0055994e-06 2.0461011e-22)
(-6.2779088e-06 5.4949917e-06 1.2801619e-21)
(-6.1956394e-06 5.9834723e-06 -5.6201069e-22)
(-6.0925003e-06 6.4699999e-06 -4.8501837e-22)
(-5.9685958e-06 6.953159e-06 -6.0151087e-22)
(-5.8240479e-06 7.4316774e-06 2.5370875e-22)
(-5.6592841e-06 7.9046152e-06 6.7665024e-22)
(-5.4746949e-06 8.3707245e-06 -7.7967967e-22)
(-5.2710166e-06 8.8290884e-06 -6.9945777e-22)
(-5.0485116e-06 9.278414e-06 -8.5512949e-22)
(-4.8076229e-06 9.7177287e-06 -1.1638065e-21)
(-4.5493976e-06 1.0146207e-05 -3.348147e-22)
(-4.2742771e-06 1.0562645e-05 -7.3612324e-22)
(-3.9828389e-06 1.0965996e-05 -1.5251814e-21)
(-3.6756546e-06 1.1355596e-05 -1.3605998e-21)
(-3.3534186e-06 1.1730927e-05 -7.4292609e-22)
(-3.0171502e-06 1.209085e-05 1.6127482e-22)
(-2.6676402e-06 1.2434721e-05 -9.7709683e-22)
(-2.3056633e-06 1.276179e-05 -1.4575776e-21)
(-1.9320836e-06 1.3071554e-05 -1.4351398e-21)
(-1.5478091e-06 1.3363445e-05 -4.3659439e-22)
(-1.1537058e-06 1.3636781e-05 -1.5580136e-22)
(-7.5047123e-07 1.3891143e-05 -6.9989542e-22)
(-3.3914813e-07 1.4126286e-05 -6.8773082e-22)
(8.0113682e-08 1.4341713e-05 -4.6631781e-23)
(5.0598688e-07 1.4537251e-05 9.5245697e-22)
(9.3686498e-07 1.471237e-05 -2.045167e-23)
(1.3725987e-06 1.4866971e-05 -8.8419534e-22)
(1.8120232e-06 1.5001044e-05 -7.9635418e-22)
(2.2542048e-06 1.5114515e-05 -4.2009781e-22)
(2.6984273e-06 1.5207072e-05 8.9675231e-22)
(3.1437032e-06 1.5278838e-05 1.2494379e-22)
(3.5892394e-06 1.5329763e-05 -7.8358002e-22)
(4.03426e-06 1.5359831e-05 -7.3779967e-22)
(4.4779599e-06 1.536916e-05 -6.3245525e-22)
(4.9195287e-06 1.5357937e-05 7.7575127e-22)
(5.3581125e-06 1.5326343e-05 3.0381016e-22)
(5.7930174e-06 1.5274665e-05 -4.3748799e-22)
(6.2236493e-06 1.5203138e-05 -3.8122194e-22)
(6.6491909e-06 1.511195e-05 -5.3386383e-22)
(7.0688221e-06 1.5001632e-05 8.3178425e-22)
(7.4819243e-06 1.4872339e-05 3.0618086e-22)
(7.8879173e-06 1.4724388e-05 -1.9398068e-22)
(8.2862882e-06 1.4558325e-05 -6.5064667e-22)
(8.676277e-06 1.4374793e-05 -9.8482279e-22)
(9.0573069e-06 1.4173868e-05 8.1276536e-22)
(9.4289943e-06 1.3956223e-05 5.5318996e-22)
(9.7908077e-06 1.372245e-05 -6.6206423e-23)
(1.0142202e-05 1.3472945e-05 -4.9713726e-22)
(1.0482607e-05 1.3208116e-05 -1.248071e-21)
(1.0811486e-05 1.2928691e-05 -4.1403986e-22)
(-2.4324305e-07 -3.4368729e-06 -2.3644128e-22)
(-5.3733311e-07 -3.4227241e-06 2.7346445e-21)
(-8.7824236e-07 -3.3785032e-06 -5.400105e-21)
(-1.2074261e-06 -3.3080527e-06 2.4571857e-22)
(-1.5416292e-06 -3.2125267e-06 -2.8983575e-21)
(-1.8700677e-06 -3.0935837e-06 -7.2826805e-21)
(-2.1917836e-06 -2.9503375e-06 -2.2757839e-21)
(-2.5066029e-06 -2.7830568e-06 -1.6603311e-21)
(-2.8138912e-06 -2.592878e-06 -3.9015266e-21)
(-3.1121438e-06 -2.3808062e-06 -4.7416505e-22)
(-3.3994731e-06 -2.1475637e-06 -2.9623481e-22)
(-3.675093e-06 -1.8937728e-06 1.3147151e-21)
(-3.9391635e-06 -1.6198555e-06 5.7516763e-24)
(-4.1899828e-06 -1.326702e-06 1.2653374e-21)
(-4.4260887e-06 -1.0144308e-06 1.5204586e-21)
(-4.6473782e-06 -6.849326e-07 -1.3775119e-22)
(-4.8533945e-06 -3.3878899e-07 1.5897399e-21)
(-5.0434012e-06 2.1823304e-08 6.7670462e-22)
(-5.2162167e-06 3.9687646e-07 6.111094e-22)
(-5.371343e-06 7.8560203e-07 1.0967014e-21)
(-5.5083419e-06 1.186911e-06 1.3268304e-22)
(-5.6266043e-06 1.5992999e-06 1.1515027e-21)
(-5.7258434e-06 2.0220089e-06 1.0103176e-21)
(-5.8057202e-06 2.4537433e-06 -3.1575737e-22)
(-5.8658891e-06 2.8930834e-06 6.2759813e-22)
(-5.9059129e-06 3.3385605e-06 1.2348828e-21)
(-5.9260144e-06 3.7893323e-06 1.258822e-21)
(-5.925972e-06 4.2442128e-06 2.7380488e-22)
(-5.9056143e-06 4.7020794e-06 -9.9431202e-22)
(-5.8650074e-06 5.1616115e-06 -1.2678904e-22)
(-5.8040755e-06 5.6214947e-06 3.2013982e-22)
(-5.7231863e-06 6.0805653e-06 3.6368924e-22)
(-5.6224407e-06 6.5377438e-06 -3.5875724e-22)
(-5.5021064e-06 6.9919273e-06 -1.4458857e-21)
(-5.3623456e-06 7.4417307e-06 -8.8908528e-22)
(-5.2036895e-06 7.886159e-06 -3.2113288e-22)
(-5.0264351e-06 8.3241151e-06 -3.0883364e-22)
(-4.8309e-06 8.7548098e-06 -6.2290548e-22)
(-4.6176695e-06 9.1772215e-06 -1.7292355e-21)
(-4.3872338e-06 9.589974e-06 -6.9877015e-22)
(-4.1401993e-06 9.9924772e-06 -4.0354752e-22)
(-3.8771457e-06 1.0383502e-05 -1.1407875e-21)
(-3.5985319e-06 1.0762406e-05 -9.2324412e-22)
(-3.3049108e-06 1.1128444e-05 -1.2408132e-21)
(-2.9973006e-06 1.1480814e-05 -6.5381966e-22)
(-2.6764384e-06 1.1818573e-05 -1.5665293e-21)
(-2.3430253e-06 1.2141167e-05 -1.9098754e-21)
(-1.9977628e-06 1.2447908e-05 -1.5024408e-21)
(-1.6413815e-06 1.2738107e-05 -1.5156169e-21)
(-1.2748479e-06 1.3011375e-05 -7.9155411e-22)
(-8.9888386e-07 1.3267253e-05 -1.1852673e-21)
(-5.1401653e-07 1.3505312e-05 -1.7154401e-21)
(-1.211939e-07 1.3724897e-05 -1.0865915e-21)
(2.7882076e-07 1.3926301e-05 -1.4888274e-21)
(6.8486085e-07 1.4108286e-05 -6.1579173e-22)
(1.0958089e-06 1.4271076e-05 -5.0172275e-22)
(1.5111972e-06 1.4414379e-05 -5.4861244e-22)
(1.9302441e-06 1.4538175e-05 -3.8737562e-22)
(2.3520839e-06 1.4642249e-05 -9.2714121e-22)
(2.7758141e-06 1.4726492e-05 -4.6024207e-22)
(3.2007663e-06 1.4790962e-05 -5.7291332e-22)
(3.6261515e-06 1.4835691e-05 -1.1408942e-21)
(4.0511639e-06 1.4860556e-05 -6.1977534e-22)
(4.4749274e-06 1.4865756e-05 -8.1456231e-22)
(4.8966028e-06 1.4851407e-05 -3.3747246e-22)
(5.3155109e-06 1.4817626e-05 -5.1500906e-22)
(5.7309795e-06 1.4764658e-05 -9.7732105e-22)
(6.1423578e-06 1.4692799e-05 -2.514204e-22)
(6.5489557e-06 1.4602245e-05 -5.435244e-22)
(6.9500203e-06 1.4493351e-05 -1.6227017e-22)
(7.3448643e-06 1.4366426e-05 -3.0286004e-22)
(7.7330048e-06 1.4221824e-05 -8.5898287e-22)
(8.1138267e-06 1.4059771e-05 -4.3525947e-22)
(8.4866419e-06 1.3880964e-05 -4.4836436e-22)
(8.8509987e-06 1.3685521e-05 -1.5709419e-22)
(9.2064198e-06 1.347405e-05 -5.3927841e-22)
(9.5524671e-06 1.3247208e-05 -8.6432799e-22)
(9.8887945e-06 1.3005254e-05 -3.0137606e-22)
(1.021457e-05 1.2748539e-05 1.0734531e-22)
(1.0529443e-05 1.2477833e-05 4.1330502e-22)
(-2.2607181e-07 -2.7711957e-06 -2.5555092e-21)
(-4.9838181e-07 -2.7595826e-06 -7.1586365e-21)
(-8.1679659e-07 -2.7194637e-06 -5.5459703e-22)
(-1.1238868e-06 -2.6535315e-06 2.6381995e-21)
(-1.4347523e-06 -2.5641979e-06 2.3887905e-21)
(-1.7401794e-06 -2.4508115e-06 -3.2096801e-21)
(-2.0395395e-06 -2.3155607e-06 -2.6894419e-21)
(-2.3325083e-06 -2.1593417e-06 -2.3462047e-21)
(-2.6182068e-06 -1.9823375e-06 -3.2973602e-21)
(-2.8950299e-06 -1.7839374e-06 -1.9753558e-21)
(-3.1621885e-06 -1.564708e-06 -9.4172789e-22)
(-3.4187759e-06 -1.3258203e-06 -1.2002081e-21)
(-3.6633199e-06 -1.0682372e-06 -2.0207844e-21)
(-3.895363e-06 -7.9262717e-07 -8.7027981e-22)
(-4.114819e-06 -4.9940893e-07 -2.1126695e-21)
(-4.3199557e-06 -1.9040454e-07 -5.048874e-22)
(-4.5106611e-06 1.3347798e-07 -1.8186475e-21)
(-4.6864006e-06 4.7241167e-07 -1.5948734e-21)
(-4.8456216e-06 8.2535154e-07 -9.3942657e-23)
(-4.9881096e-06 1.190893e-06 3.473569e-22)
(-5.113626e-06 1.5680005e-06 1.2039618e-21)
(-5.2216088e-06 1.9555128e-06 -4.443198e-24)
(-5.3116741e-06 2.3525389e-06 -1.5015898e-22)
(-5.3835714e-06 2.7579479e-06 -6.9093872e-22)
(-5.4368941e-06 3.1704686e-06 -4.2470976e-22)
(-5.4712208e-06 3.5891115e-06 1.0240586e-21)
(-5.4868295e-06 4.0128242e-06 -2.4089952e-23)
(-5.4835202e-06 4.4402512e-06 -7.3567002e-22)
(-5.4609957e-06 4.8702119e-06 -8.5556507e-22)
(-5.4193956e-06 5.3016763e-06 -1.2493892e-22)
(-5.3587435e-06 5.7337704e-06 1.0058334e-21)
(-5.2792019e-06 6.1651307e-06 2.9761876e-22)
(-5.1809584e-06 6.5947131e-06 -2.5787808e-22)
(-5.0641749e-06 7.0213114e-06 -5.6371185e-22)
(-4.9290229e-06 7.4439111e-06 -4.6767366e-22)
(-4.776117e-06 7.8615228e-06 9.4443127e-22)
(-4.6056057e-06 8.273392e-06 8.6717828e-22)
(-4.4176834e-06 8.6780952e-06 4.1460481e-22)
(-4.2132158e-06 9.074802e-06 -5.4930573e-22)
(-3.9924637e-06 9.4623966e-06 -4.1324504e-22)
(-3.7560102e-06 9.8402338e-06 1.3725107e-21)
(-3.5043033e-06 1.0207316e-05 8.0914614e-22)
(-3.2376336e-06 1.0563247e-05 1.1578559e-21)
(-2.9570532e-06 1.0906867e-05 1.9987521e-21)
(-2.6632907e-06 1.1237464e-05 2.0198317e-21)
(-2.3568409e-06 1.1554419e-05 1.1111383e-21)
(-2.0383999e-06 1.1856817e-05 7.598142e-22)
(-1.7088355e-06 1.2144367e-05 1.3052171e-21)
(-1.3689256e-06 1.2416049e-05 2.0115422e-21)
(-1.0191572e-06 1.2671809e-05 2.3096885e-21)
(-6.6027864e-07 1.2910778e-05 1.7328327e-21)
(-2.9316772e-07 1.3133324e-05 9.7880718e-22)
(8.1825621e-08 1.333834e-05 8.6177932e-22)
(4.6356189e-07 1.3526016e-05 -1.9187839e-22)
(8.5081361e-07 1.3695468e-05 -3.2309823e-22)
(1.2430694e-06 1.3846533e-05 1.0959017e-22)
(1.6395622e-06 1.3979155e-05 8.8168198e-22)
(2.0394657e-06 1.4093146e-05 1.0302224e-21)
(2.4420434e-06 1.4188476e-05 1.1942269e-22)
(2.8465217e-06 1.4264687e-05 -4.6711847e-22)
(3.2521291e-06 1.4322098e-05 -3.9701943e-22)
(3.6581667e-06 1.4360845e-05 1.9444139e-22)
(4.0638564e-06 1.4380693e-05 4.2718656e-22)
(4.4684029e-06 1.4381967e-05 4.3403312e-23)
(4.8710918e-06 1.4364608e-05 -1.9611478e-22)
(5.2712345e-06 1.4328799e-05 -3.9203906e-23)
(5.6681321e-06 1.4274638e-05 4.2127487e-22)
(6.061134e-06 1.4202371e-05 5.70028e-22)
(6.4495436e-06 1.4112408e-05 1.1165858e-22)
(6.832753e-06 1.4004913e-05 -4.5342526e-23)
(7.2102335e-06 1.3880162e-05 1.4210481e-22)
(7.5812767e-06 1.3738564e-05 5.0086827e-22)
(7.9453295e-06 1.3580385e-05 2.3768714e-22)
(8.3019136e-06 1.3406251e-05 -5.0436007e-23)
(8.6505365e-06 1.3216124e-05 9.6770342e-25)
(8.9904908e-06 1.3010499e-05 -9.1393588e-23)
(9.3214712e-06 1.2790092e-05 1.7440619e-22)
(9.6433278e-06 1.2555333e-05 1.0629659e-22)
(9.9551279e-06 1.2306544e-05 2.8812785e-22)
(1.0256317e-05 1.2044159e-05 7.2536879e-23)
(-2.0866897e-07 -2.1552818e-06 -2.0081314e-21)
(-4.6241919e-07 -2.1442066e-06 -1.4159321e-21)
(-7.596963e-07 -2.1053396e-06 1.0144825e-20)
(-1.0452537e-06 -2.043261e-06 2.5829022e-21)
(-1.3346362e-06 -1.9590481e-06 7.8789485e-21)
(-1.6180556e-06 -1.8531193e-06 3.1964913e-21)
(-1.8968108e-06 -1.7266015e-06 8.4903e-21)
(-2.1694435e-06 -1.5803796e-06 5.8360466e-21)
(-2.4346594e-06 -1.4139356e-06 5.8556189e-21)
(-2.6917377e-06 -1.2273364e-06 6.3780974e-21)
(-2.9395546e-06 -1.021285e-06 5.0618458e-21)
(-3.1771712e-06 -7.9709603e-07 2.6311224e-21)
(-3.4045773e-06 -5.5486222e-07 3.1152463e-21)
(-3.6196579e-06 -2.9598504e-07 2.0773556e-21)
(-3.8222037e-06 -2.1789677e-08 2.4330127e-21)
(-4.0127959e-06 2.6808515e-07 1.8996795e-21)
(-4.189237e-06 5.7229957e-07 2.4411897e-21)
(-4.3508453e-06 8.9082422e-07 2.1414681e-21)
(-4.4973776e-06 1.2223262e-06 1.4073866e-21)
(-4.6281822e-06 1.5655348e-06 2.9984135e-22)
(-4.7429101e-06 1.9196095e-06 -7.1895404e-22)
(-4.8411423e-06 2.283684e-06 -1.7506406e-22)
(-4.922599e-06 2.6566845e-06 -7.5557594e-22)
(-4.9869109e-06 3.0374876e-06 3.5111239e-22)
(-5.0337976e-06 3.4249252e-06 9.6621518e-22)
(-5.0629369e-06 3.8181476e-06 -4.8744636e-22)
(-5.0744061e-06 4.2161033e-06 -1.4924864e-22)
(-5.0679099e-06 4.6177026e-06 -5.1108672e-24)
(-5.0432241e-06 5.021617e-06 1.11908e-23)
(-5.0007129e-06 5.4270148e-06 5.288509e-22)
(-4.9403894e-06 5.8329526e-06 -3.7621625e-22)
(-4.862112e-06 6.2381372e-06 -2.0035196e-22)
(-4.7661036e-06 6.6416324e-06 8.2682658e-23)
(-4.6526715e-06 7.0422616e-06 2.0661189e-22)
(-4.5220825e-06 7.4392953e-06 2.8211624e-23)
(-4.3745386e-06 7.8314135e-06 -6.4274347e-22)
(-4.210251e-06 8.2182715e-06 -2.7291824e-23)
(-4.0296465e-06 8.5981831e-06 1.3305295e-22)
(-3.8333126e-06 8.970617e-06 -1.2499122e-22)
(-3.6216662e-06 9.3346344e-06 2.9067989e-22)
(-3.3951927e-06 9.6891847e-06 1.2075993e-21)
(-3.1540841e-06 1.0034036e-05 3.363274e-23)
(-2.8989511e-06 1.0367979e-05 -4.4820791e-22)
(-2.6309742e-06 1.0690299e-05 -2.3330994e-22)
(-2.3502045e-06 1.1000098e-05 -1.4908267e-22)
(-2.0572531e-06 1.1297185e-05 4.1311488e-22)
(-1.7530323e-06 1.1580546e-05 -4.5727657e-22)
(-1.4384353e-06 1.1849779e-05 -1.9053482e-22)
(-1.1137479e-06 1.2104214e-05 -5.6672991e-22)
(-7.7999375e-07 1.2343611e-05 9.6884696e-23)
(-4.3748499e-07 1.2566982e-05 5.2630277e-22)
(-8.6590539e-08 1.2774406e-05 1.2784759e-22)
(2.7123573e-07 1.2965804e-05 3.2235287e-22)
(6.3533168e-07 1.3140192e-05 -2.9764435e-22)
(1.0049157e-06 1.3297482e-05 -2.2108682e-22)
(1.3792901e-06 1.3437413e-05 -5.665787e-23)
(1.7577015e-06 1.3559776e-05 1.5026852e-22)
(2.1395054e-06 1.3664379e-05 7.064628e-22)
(2.5238427e-06 1.3751422e-05 -1.2575594e-22)
(2.9099992e-06 1.3820315e-05 -6.0810122e-22)
(3.2972191e-06 1.3871427e-05 -7.1532968e-22)
(3.6848861e-06 1.3904668e-05 -9.3288358e-23)
(4.0722448e-06 1.3919866e-05 4.7489751e-22)
(4.4584784e-06 1.3917337e-05 -2.3864799e-22)
(4.8430323e-06 1.3897029e-05 -2.0068869e-22)
(5.2252678e-06 1.3859196e-05 -3.7253718e-22)
(5.6045141e-06 1.3803885e-05 2.4766769e-23)
(5.9800372e-06 1.3731344e-05 5.5328826e-22)
(6.3511434e-06 1.364192e-05 4.6044918e-23)
(6.7173317e-06 1.3535664e-05 -2.3756232e-22)
(7.0781306e-06 1.3413015e-05 -3.2023006e-22)
(7.4328168e-06 1.3274185e-05 -9.2488638e-23)
(7.7808023e-06 1.3119587e-05 1.6050878e-22)
(8.1218054e-06 1.294958e-05 1.0061554e-22)
(8.4553785e-06 1.2764427e-05 1.0898094e-23)
(8.7806908e-06 1.2564537e-05 -6.2671746e-22)
(9.0972752e-06 1.2350492e-05 -1.6222882e-22)
(9.4050532e-06 1.2122679e-05 2.3021482e-22)
(9.7035543e-06 1.1881509e-05 -1.4112777e-22)
(9.9917528e-06 1.1627247e-05 -5.273413e-22)
(-1.9383907e-07 -1.58376e-06 -5.1930711e-22)
(-4.2842478e-07 -1.572416e-06 6.6974988e-21)
(-7.061581e-07 -1.5348366e-06 3.3813125e-21)
(-9.7148115e-07 -1.4767893e-06 -3.1410587e-21)
(-1.2401481e-06 -1.3979639e-06 -1.5384311e-21)
(-1.5040625e-06 -1.2992242e-06 3.2075983e-21)
(-1.7634648e-06 -1.1805192e-06 -5.6825988e-22)
(-2.0165277e-06 -1.0422863e-06 -1.5003979e-21)
(-2.2622281e-06 -8.8488831e-07 1.6253813e-21)
(-2.50006e-06 -7.0943908e-07 -2.4170866e-21)
(-2.7299975e-06 -5.1633058e-07 -3.357615e-21)
(-2.9506626e-06 -3.0627696e-07 -2.9052153e-21)
(-3.160875e-06 -7.9797793e-08 -2.8248515e-21)
(-3.3610221e-06 1.6306268e-07 -2.5534588e-21)
(-3.5492904e-06 4.2033684e-07 -2.1912248e-21)
(-3.7244906e-06 6.9244081e-07 -1.5030283e-21)
(-3.8867933e-06 9.7878754e-07 -1.4030624e-21)
(-4.0355818e-06 1.2780261e-06 -2.049946e-21)
(-4.1701803e-06 1.5893115e-06 -1.3241385e-21)
(-4.2899437e-06 1.9115447e-06 -9.7044832e-22)
(-4.3946745e-06 2.2439988e-06 -1.2238996e-21)
(-4.4839951e-06 2.5859864e-06 -4.7490079e-23)
(-4.5573663e-06 2.9362519e-06 3.6456197e-22)
(-4.6145166e-06 3.2938499e-06 -2.4730325e-22)
(-4.6553868e-06 3.6577887e-06 9.4593729e-22)
(-4.6795136e-06 4.02717e-06 7.5431124e-22)
(-4.6869871e-06 4.4008337e-06 1.8748644e-22)
(-4.677483e-06 4.7779825e-06 -5.0013767e-22)
(-4.650853e-06 5.1573559e-06 -7.1889506e-22)
(-4.6075142e-06 5.5382044e-06 6.1911675e-22)
(-4.5473496e-06 5.9193664e-06 6.2176887e-22)
(-4.4702485e-06 6.2999264e-06 9.692815e-23)
(-4.3764049e-06 6.6787368e-06 -3.2534154e-22)
(-4.2661204e-06 7.0550909e-06 -6.4256348e-22)
(-4.1397518e-06 7.4279499e-06 3.9878591e-22)
(-3.9972583e-06 7.796215e-06 5.3529358e-22)
(-3.8389085e-06 8.1591933e-06 3.2583537e-22)
(-3.6652868e-06 8.5158171e-06 -1.9892353e-22)
(-3.4767018e-06 8.865425e-06 -5.9518764e-22)
(-3.2737565e-06 9.2070033e-06 2.2084006e-22)
(-3.0564296e-06 9.539777e-06 2.5675534e-22)
(-2.8253083e-06 9.863435e-06 1.1181974e-21)
(-2.5813589e-06 1.0176532e-05 1.4942288e-21)
(-2.3252008e-06 1.0478718e-05 2.6438355e-23)
(-2.0566247e-06 1.0769257e-05 4.6331334e-22)
(-1.7764507e-06 1.1047337e-05 5.3952722e-22)
(-1.4858959e-06 1.1312684e-05 6.3933333e-22)
(-1.185354e-06 1.1564458e-05 1.1551456e-21)
(-8.7516487e-07 1.1802623e-05 -6.743436e-23)
(-5.5644523e-07 1.2026217e-05 5.2461834e-22)
(-2.295711e-07 1.2234695e-05 5.4123107e-22)
(1.057404e-07 1.2428426e-05 6.4578689e-22)
(4.4756789e-07 1.2606506e-05 8.2474767e-22)
(7.949099e-07 1.2768479e-05 3.3256845e-22)
(1.1476457e-06 1.2914226e-05 3.1664236e-22)
(1.5050374e-06 1.3043522e-05 1.875544e-22)
(1.8663359e-06 1.3156117e-05 9.6589505e-22)
(2.2308282e-06 1.3251933e-05 9.0859471e-22)
(2.5977656e-06 1.3330991e-05 9.2418308e-23)
(2.9664231e-06 1.3392925e-05 2.630091e-22)
(3.3362123e-06 1.3437908e-05 7.8731521e-23)
(3.7064464e-06 1.3465767e-05 6.8622418e-22)
(4.0764193e-06 1.3476552e-05 7.5467204e-22)
(4.4454138e-06 1.3470384e-05 1.8862159e-22)
(4.8127425e-06 1.344735e-05 2.2466456e-22)
(5.1778957e-06 1.3407535e-05 -7.339823e-23)
(5.5401568e-06 1.3351162e-05 5.4186325e-22)
(5.8988671e-06 1.3278347e-05 1.0038417e-21)
(6.253563e-06 1.3189405e-05 3.8619825e-22)
(6.6036494e-06 1.3084396e-05 1.1056523e-22)
(6.9485638e-06 1.2963713e-05 8.3405918e-23)
(7.2876309e-06 1.282765e-05 2.5397502e-22)
(7.6203737e-06 1.2676467e-05 5.0504431e-22)
(7.9464552e-06 1.2510407e-05 1.7702853e-22)
(8.2653285e-06 1.2329945e-05 1.6041496e-22)
(8.5764806e-06 1.2135522e-05 2.6318026e-22)
(8.8792479e-06 1.1927614e-05 3.6419067e-22)
(9.173791e-06 1.1706453e-05 4.8279437e-22)
(9.4593276e-06 1.1472363e-05 -2.2013905e-23)
(9.7353934e-06 1.1225743e-05 -1.9617218e-22)
(-1.8076525e-07 -1.0532352e-06 -8.9502202e-22)
(-3.9857754e-07 -1.0401034e-06 -1.8517551e-22)
(-6.5604204e-07 -1.0040586e-06 -6.6171567e-23)
(-9.0239971e-07 -9.4971603e-07 2.4263027e-21)
(-1.1519896e-06 -8.7603155e-07 4.0145519e-22)
(-1.3961405e-06 -7.834792e-07 -1.5677058e-22)
(-1.6362276e-06 -6.7229218e-07 -7.9296912e-22)
(-1.8710717e-06 -5.4198807e-07 2.9225279e-21)
(-2.0998379e-06 -3.9421046e-07 -1.2340372e-21)
(-2.3212889e-06 -2.2955011e-07 -6.6108839e-22)
(-2.534163e-06 -4.93184e-08 9.4130893e-22)
(-2.7386957e-06 1.4758386e-07 7.3762056e-22)
(-2.9337405e-06 3.6021385e-07 1.6220592e-21)
(-3.1182926e-06 5.8751882e-07 1.1807279e-21)
(-3.2917149e-06 8.2991106e-07 2.3333942e-21)
(-3.453335e-06 1.085835e-06 3.0974011e-23)
(-3.6027872e-06 1.3547626e-06 1.9755444e-22)
(-3.7394887e-06 1.635715e-06 6.6810993e-22)
(-3.8627808e-06 1.9279876e-06 1.2292608e-21)
(-3.9722647e-06 2.2305793e-06 2.7899649e-21)
(-4.0676325e-06 2.5428289e-06 1.273963e-21)
(-4.1484785e-06 2.8639746e-06 7.7594832e-23)
(-4.2142767e-06 3.1928206e-06 3.4632666e-22)
(-4.2647327e-06 3.5285175e-06 -1.7526334e-23)
(-4.2999087e-06 3.8702974e-06 -1.5234354e-23)
(-4.3193797e-06 4.2172573e-06 3.6939104e-22)
(-4.3230551e-06 4.5680798e-06 -2.3838336e-22)
(-4.310793e-06 4.9222032e-06 4.4661117e-23)
(-4.2824722e-06 5.2785014e-06 1.0767825e-22)
(-4.2383574e-06 5.6360623e-06 1.4142421e-22)
(-4.1782935e-06 5.9939214e-06 4.5391617e-22)
(-4.1023022e-06 6.3511867e-06 3.8091069e-23)
(-4.0105667e-06 6.7068245e-06 -9.6246872e-23)
(-3.903316e-06 7.0602439e-06 1.7324102e-22)
(-3.7808465e-06 7.4102513e-06 4.8244932e-22)
(-3.6430216e-06 7.7560544e-06 4.6367137e-22)
(-3.4903461e-06 8.0965595e-06 2.6782738e-22)
(-3.3232682e-06 8.4312114e-06 1.201621e-22)
(-3.1421376e-06 8.7593113e-06 6.0508376e-22)
(-2.9472643e-06 9.0797211e-06 8.4400287e-23)
(-2.7386945e-06 9.3920916e-06 3.8373987e-25)
(-2.5173444e-06 9.6953398e-06 1.7104892e-22)
(-2.2837791e-06 9.9888233e-06 -9.7897081e-22)
(-2.0384143e-06 1.0271975e-05 -5.0306815e-22)
(-1.7815784e-06 1.0544254e-05 4.5723949e-22)
(-1.513728e-06 1.0804518e-05 3.0572655e-22)
(-1.235935e-06 1.1052755e-05 5.2925558e-22)
(-9.4868273e-07 1.1288229e-05 -6.3833105e-22)
(-6.5226777e-07 1.1510747e-05 -3.7179284e-22)
(-3.4803095e-07 1.1719168e-05 1.7723892e-22)
(-3.5414846e-08 1.191371e-05 7.0675685e-23)
(2.8499784e-07 1.2094483e-05 3.1286271e-22)
(6.112001e-07 1.2259878e-05 2.2968389e-22)
(9.4300664e-07 1.2410108e-05 1.2622627e-22)
(1.27985e-06 1.2544948e-05 -5.2866962e-22)
(1.6210444e-06 1.2664178e-05 -1.7326818e-22)
(1.9659636e-06 1.2767521e-05 4.3669608e-22)
(2.3139719e-06 1.2855038e-05 4.9657485e-23)
(2.6643679e-06 1.2926492e-05 1.4360755e-22)
(3.0165072e-06 1.2981701e-05 -1.2346183e-22)
(3.3696753e-06 1.3020782e-05 -6.5876164e-23)
(3.7232361e-06 1.3043463e-05 2.3367687e-23)
(4.0765998e-06 1.3050038e-05 -2.9622523e-22)
(4.4290904e-06 1.304046e-05 1.7281942e-22)
(4.780084e-06 1.3014842e-05 -1.4539941e-22)
(5.1289504e-06 1.2973161e-05 -1.0749145e-22)
(5.4750804e-06 1.2915836e-05 -2.8768227e-23)
(5.8178955e-06 1.2842692e-05 2.0623853e-23)
(6.156888e-06 1.2754141e-05 1.0220713e-22)
(6.4915283e-06 1.2650307e-05 1.8780932e-22)
(6.8211673e-06 1.2531492e-05 2.6763053e-22)
(7.1453185e-06 1.2398104e-05 -1.2327623e-22)
(7.4636093e-06 1.2250174e-05 -5.0426047e-22)
(7.7754446e-06 1.2088052e-05 3.0055779e-23)
(8.0803627e-06 1.1912174e-05 3.1105128e-22)
(8.3779541e-06 1.1723036e-05 3.4918555e-22)
(8.6675792e-06 1.1520676e-05 -3.5772437e-22)
(8.9494355e-06 1.1305565e-05 -4.3808309e-22)
(9.2225457e-06 1.1078346e-05 -4.8199849e-23)
(9.4868225e-06 1.0838991e-05 4.6376233e-22)
(-1.6834631e-07 -5.603748e-07 -1.8451057e-21)
(-3.7011063e-07 -5.463436e-07 -4.1224565e-21)
(-6.0807363e-07 -5.1144655e-07 -1.6951914e-22)
(-8.3726687e-07 -4.6093237e-07 7.2588139e-23)
(-1.0686086e-06 -3.9131346e-07 2.7832785e-22)
(-1.2957944e-06 -3.0409663e-07 -2.4905876e-22)
(-1.5184622e-06 -2.0007633e-07 1.1495765e-21)
(-1.7358825e-06 -7.897958e-08 4.6417678e-23)
(-1.9477035e-06 5.8709108e-08 -7.5032234e-22)
(-2.153158e-06 2.1304843e-07 1.2747204e-21)
(-2.3507146e-06 3.8276081e-07 6.2710848e-22)
(-2.5395997e-06 5.6779883e-07 1.0486603e-21)
(-2.7196353e-06 7.6792239e-07 1.9598945e-22)
(-2.8898967e-06 9.8185382e-07 7.9319835e-22)
(-3.0497848e-06 1.2092341e-06 -4.5961054e-22)
(-3.1986046e-06 1.4494818e-06 -7.5637804e-22)
(-3.3360512e-06 1.7019992e-06 1.0432381e-21)
(-3.4614645e-06 1.9657918e-06 2.8319026e-22)
(-3.5742201e-06 2.2400964e-06 6.3412024e-22)
(-3.6740343e-06 2.5242856e-06 -2.8320207e-22)
(-3.7605832e-06 2.8175908e-06 -1.8770088e-21)
(-3.833367e-06 3.1189887e-06 -1.1891555e-21)
(-3.8919912e-06 3.4276407e-06 -5.1749588e-22)
(-3.936306e-06 3.7427798e-06 1.4400038e-22)
(-3.9662017e-06 4.0637376e-06 6.2328012e-22)
(-3.9812897e-06 4.3894904e-06 4.0139368e-23)
(-3.9814402e-06 4.7188736e-06 -6.9761561e-22)
(-3.9666014e-06 5.0513033e-06 -2.0617435e-22)
(-3.9366991e-06 5.3858342e-06 5.0481886e-22)
(-3.8918243e-06 5.7214e-06 8.9482613e-22)
(-3.8318498e-06 6.0573134e-06 3.3175515e-22)
(-3.7568971e-06 6.3926857e-06 -3.8719398e-22)
(-3.6671803e-06 6.7265855e-06 -2.5302124e-22)
(-3.5627374e-06 7.0583004e-06 6.5659337e-22)
(-3.4438071e-06 7.3866889e-06 1.1120676e-21)
(-3.310537e-06 7.7112005e-06 6.8199403e-22)
(-3.1632884e-06 8.0305714e-06 1.7279389e-22)
(-3.0024354e-06 8.3445229e-06 -3.8939251e-23)
(-2.828295e-06 8.6522314e-06 5.7118571e-22)
(-2.6409183e-06 8.9528621e-06 2.7587602e-22)
(-2.4407495e-06 9.2457008e-06 2.8513541e-22)
(-2.2286629e-06 9.5298865e-06 3.2413521e-22)
(-2.0048267e-06 9.8047573e-06 2.1665836e-22)
(-1.7697537e-06 1.0069898e-05 3.2366014e-23)
(-1.5239218e-06 1.0324601e-05 -9.8458943e-22)
(-1.2678682e-06 1.0568135e-05 -3.7565052e-22)
(-1.0022614e-06 1.0800217e-05 4.1572804e-22)
(-7.2750615e-07 1.1020456e-05 1.1417679e-22)
(-4.4450319e-07 1.1227644e-05 -8.0527575e-23)
(-1.5362673e-07 1.1422221e-05 -7.9900867e-22)
(1.4552736e-07 1.160414e-05 -1.4605332e-22)
(4.5151081e-07 1.1771686e-05 7.6265434e-22)
(7.6303492e-07 1.1925234e-05 6.5286838e-22)
(1.0799495e-06 1.206434e-05 6.5704219e-22)
(1.4016326e-06 1.2188878e-05 8.9195498e-22)
(1.7275757e-06 1.2298592e-05 7.3890818e-22)
(2.0571049e-06 1.2393206e-05 7.1217212e-22)
(2.3895421e-06 1.2472787e-05 3.5485782e-22)
(2.7242237e-06 1.2537049e-05 6.2767545e-22)
(3.0605148e-06 1.2585852e-05 6.6301932e-22)
(3.397824e-06 1.2619343e-05 3.6184423e-22)
(3.7355856e-06 1.2637206e-05 5.3675801e-22)
(4.073154e-06 1.2639811e-05 4.2455505e-22)
(4.4098824e-06 1.2627001e-05 4.4581293e-22)
(4.7452451e-06 1.2598869e-05 5.1889959e-22)
(5.0785681e-06 1.2555471e-05 2.9762658e-22)
(5.4093149e-06 1.2497125e-05 8.8100561e-22)
(5.7370008e-06 1.2423715e-05 5.1098143e-22)
(6.0610445e-06 1.2335599e-05 4.5372838e-22)
(6.3808846e-06 1.2232856e-05 5.8049124e-22)
(6.6960069e-06 1.2115873e-05 1.715145e-22)
(7.0059314e-06 1.1984944e-05 7.6037559e-22)
(7.3102678e-06 1.1840133e-05 3.6504818e-22)
(7.608469e-06 1.1681776e-05 4.0970018e-22)
(7.9001203e-06 1.1510244e-05 3.3740923e-22)
(8.1847676e-06 1.1326075e-05 -7.5321142e-23)
(8.4619906e-06 1.112917e-05 6.8474426e-22)
(8.7314011e-06 1.092006e-05 4.5982277e-22)
(8.9928603e-06 1.0699535e-05 3.238765e-22)
(9.2454297e-06 1.0467286e-05 7.0538618e-24)
(-1.5615511e-07 -1.0192423e-07 -2.676429e-21)
(-3.4412821e-07 -8.9243029e-08 -4.5349932e-21)
(-5.6388675e-07 -5.6381501e-08 -3.8183707e-22)
(-7.7621457e-07 -9.1178386e-09 -4.4046612e-22)
(-9.9037119e-07 5.6101875e-08 2.132085e-21)