/*--------------------------------*- C++ -*----------------------------------*\
| =========                 |                                                 |
| \\      /  F ield         | OpenFOAM: The Open Source CFD Toolbox           |
|  \\    /   O peration     | Version:  2106                                  |
|   \\  /    A nd           | Website:  www.openfoam.com                      |
|    \\/     M anipulation  |                                                 |
\*---------------------------------------------------------------------------*/
FoamFile
{
    version     2.0;
    format      ascii;
    arch        "LSB;label=32;scalar=64";
    class       volScalarField;
    location    "0.011";
    object      p;
}
// * * * * * * * * * * * * * * * * * * * * * * * * * * * * * * * * * * * * * //

dimensions      [1 -1 -2 0 0 0 0];

internalField   nonuniform List<scalar> 
16384
(
-24.304449
-24.245965
-24.129137
-23.954244
-23.721701
-23.432064
-23.086024
-22.684407
-22.22817
-21.718404
-21.156325
-20.543279
-19.88073
-19.170263
-18.41358
-17.612492
-16.76892
-15.884887
-14.962513
-14.004013
-13.011691
-11.98793
-10.935194
-9.856015
-8.7529919
-7.6287813
-6.4860924
-5.3276799
-4.1563374
-2.9748912
-1.7861933
-0.59310983
0.6014771
1.7946818
2.9836237
4.1654316
5.337251
6.496252
7.6396355
8.7646405
9.8685509
10.948702
12.002486
13.027361
14.020853
14.980568
15.904191
16.789495
17.634347
18.436712
19.194658
19.90636
20.570104
21.184295
21.747454
22.258228
22.715387
23.117835
23.464602
23.754857
23.987902
24.163177
24.280262
24.338874
24.338874
24.280262
24.163177
23.987902
23.754857
23.464602
23.117835
22.715387
22.258228
21.747454
21.184295
20.570105
19.90636
19.194658
18.436712
17.634347
16.789495
15.904191
14.980568
14.020853
13.027361
12.002486
10.948702
9.8685509
8.7646406
7.6396355
6.496252
5.3372511
4.1654316
2.9836238
1.7946819
0.60147721
-0.59310971
-1.7861931
-2.9748911
-4.1563373
-5.3276798
-6.4860923
-7.6287812
-8.7529918
-9.8560149
-10.935194
-11.98793
-13.011691
-14.004013
-14.962513
-15.884886
-16.76892
-17.612492
-18.413579
-19.170263
-19.880729
-20.543279
-21.156325
-21.718404
-22.22817
-22.684407
-23.086024
-23.432064
-23.721701
-23.954244
-24.129137
-24.245965
-24.304449
-24.36382
-24.305193
-24.188079
-24.012758
-23.779646
-23.489301
-23.142414
-22.739814
-22.282461
-21.771447
-21.207993
-20.593446
-19.929274
-19.217068
-18.458532
-17.655482
-16.809844
-15.923645
-14.999012
-14.038164
-13.04341
-12.017141
-10.961826
-9.8800036
-8.7742786
-7.6473147
-6.5018277
-5.3405793
-4.1663702
-2.9820332
-1.7904267
-0.59442772
0.60307741
1.7991961
2.9910398
4.1757301
5.3504056
6.5122292
7.6583951
8.7861356
9.8927277
10.9755
12.03184
13.059197
14.055094
15.017129
15.942983
16.830423
17.677312
18.48161
19.241379
19.954792
20.620131
21.235795
21.800305
22.312302
22.770557
23.173967
23.521564
23.812513
24.046115
24.221809
24.339173
24.397926
24.397926
24.339173
24.221809
24.046115
23.812513
23.521564
23.173967
22.770557
22.312302
21.800305
21.235795
20.620131
19.954792
19.241379
18.48161
17.677312
16.830423
15.942983
15.017129
14.055094
13.059197
12.03184
10.9755
9.8927277
8.7861356
7.6583951
6.5122292
5.3504056
4.1757301
2.9910399
1.7991962
0.60307751
-0.59442761
-1.7904266
-2.9820332
-4.1663701
-5.3405792
-6.5018276
-7.6473146
-8.7742785
-9.8800035
-10.961826
-12.017141
-13.04341
-14.038164
-14.999012
-15.923645
-16.809844
-17.655482
-18.458532
-19.217068
-19.929274
-20.593446
-21.207993
-21.771447
-22.282461
-22.739814
-23.142414
-23.489301
-23.779646
-24.012757
-24.188079
-24.305193
-24.36382
-24.481451
-24.422543
-24.304866
-24.128703
-23.894471
-23.60273
-23.254176
-22.84964
-22.390087
-21.876615
-21.310449
-20.692943
-20.025574
-19.309936
-18.547744
-17.740823
-16.891106
-16.000631
-15.071534
-14.106047
-13.106488
-12.07526
-11.014844
-9.9277915
-8.8167194
-7.6843046
-6.5332762
-5.3664094
-4.1865188
-2.9964513
-1.7990791
-0.59729301
0.60600547
1.8079101
3.0055179
4.1959362
5.3762896
6.5437272
7.6954294
8.8286149
9.9405476
11.028543
12.089976
13.122284
14.122978
15.089644
16.019952
16.911659
17.762618
18.570778
19.334195
20.05103
20.71956
21.338175
21.905389
22.419838
22.880286
23.285626
23.634886
23.927226
24.161945
24.338479
24.456404
24.515437
24.515437
24.456404
24.338479
24.161945
23.927226
23.634886
23.285626
22.880286
22.419838
21.905389
21.338175
20.71956
20.05103
19.334195
18.570778
17.762618
16.911659
16.019952
15.089644
14.122978
13.122284
12.089976
11.028543
9.9405476
8.8286149
7.6954294
6.5437272
5.3762896
4.1959362
3.0055179
1.8079101
0.60600553
-0.59729294
-1.799079
-2.9964512
-4.1865188
-5.3664093
-6.5332761
-7.6843045
-8.8167193
-9.9277914
-11.014844
-12.07526
-13.106488
-14.106047
-15.071534
-16.000631
-16.891106
-17.740823
-18.547744
-19.309936
-20.025574
-20.692943
-21.310449
-21.876615
-22.390087
-22.84964
-23.254176
-23.60273
-23.894471
-24.128703
-24.304866
-24.422543
-24.481451
-24.657843
-24.598513
-24.479994
-24.302569
-24.066661
-23.772831
-23.42178
-23.014346
-22.551499
-22.034346
-21.464119
-20.842183
-20.170022
-19.449246
-18.681578
-17.868856
-17.013029
-16.116147
-15.180363
-14.207923
-13.201163
-12.162504
-11.094442
-9.9995492
-8.880461
-7.7398736
-6.5805363
-5.4052444
-4.2168333
-3.0181706
-1.8121498
-0.60168272
0.6103074
1.8208931
3.0271501
4.2261644
5.4150395
6.5909037
7.7509165
8.8922766
10.012228
11.108066
12.177147
13.216891
14.22479
15.198412
16.135412
17.03353
17.890604
18.70457
19.473467
20.195447
20.868771
21.491822
22.063102
22.581237
23.044983
23.453226
23.804985
24.099418
24.335816
24.513613
24.632381
24.691837
24.691837
24.632381
24.513613
24.335816
24.099418
23.804985
23.453226
23.044983
22.581237
22.063102
21.491822
20.868771
20.195447
19.473467
18.704569
17.890604
17.03353
16.135412
15.198412
14.22479
13.216891
12.177147
11.108066
10.012228
8.8922766
7.7509165
6.5909037
5.4150395
4.2261644
3.0271501
1.8208931
0.61030742
-0.60168269
-1.8121497
-3.0181705
-4.2168332
-5.4052444
-6.5805362
-7.7398736
-8.8804609
-9.9995491
-11.094442
-12.162504
-13.201163
-14.207923
-15.180363
-16.116147
-17.013029
-17.868856
-18.681578
-19.449246
-20.170022
-20.842183
-21.464119
-22.034346
-22.551499
-23.014346
-23.42178
-23.772831
-24.066661
-24.302569
-24.479994
-24.598513
-24.657843
-24.893524
-24.833631
-24.713987
-24.534879
-24.296731
-24.000112
-23.645727
-23.234423
-22.767178
-22.245109
-21.66946
-21.041607
-20.363049
-19.635409
-18.860427
-18.039959
-17.17597
-16.270532
-15.325815
-14.344088
-13.327709
-12.279121
-11.200846
-10.095478
-8.9656799
-7.8141733
-6.643734
-5.4571846
-4.2573878
-3.0472395
-1.8296611
-0.60759311
0.61601278
1.8382005
3.0560173
4.2665207
5.466786
6.6539134
7.825035
8.9773222
10.107992
11.214315
12.293621
13.343305
14.360836
15.343759
16.289705
17.196395
18.061645
18.883372
19.659599
20.388457
21.068194
21.697176
22.273892
22.796956
23.265112
23.677236
24.032339
24.329569
24.568213
24.747699
24.867596
24.927616
24.927616
24.867596
24.747699
24.568213
24.329569
24.032339
23.677236
23.265112
22.796956
22.273892
21.697176
21.068194
20.388457
19.659598
18.883372
18.061645
17.196395
16.289705
15.343758
14.360836
13.343305
12.293621
11.214315
10.107992
8.9773222
7.825035
6.6539134
5.466786
4.2665207
3.0560173
1.8382006
0.6160128
-0.60759309
-1.8296611
-3.0472394
-4.2573878
-5.4571846
-6.643734
-7.8141733
-8.9656799
-10.095478
-11.200846
-12.279121
-13.327709
-14.344088
-15.325815
-16.270532
-17.17597
-18.039959
-18.860427
-19.635409
-20.363049
-21.041607
-21.66946
-22.245109
-22.767178
-23.234423
-23.645728
-24.000112
-24.296731
-24.534879
-24.713987
-24.833631
-24.893524
-25.189053
-25.128454
-25.007402
-24.826183
-24.585229
-24.285114
-23.926551
-23.510396
-23.037639
-22.509408
-21.926963
-21.291693
-20.605116
-19.868873
-19.084724
-18.254545
-17.380325
-16.464159
-15.508243
-14.514873
-13.486433
-12.425397
-11.334314
-10.215813
-9.0725853
-7.9073863
-6.723025
-5.5223582
-4.3082831
-3.0837306
-1.8516575
-0.61504009
0.62313416
1.8598734
3.0921888
4.3171025
5.5316541
6.7329089
7.9179643
9.0839577
10.228073
11.347547
12.439679
13.501832
14.531444
15.526034
16.483203
17.400646
18.276152
19.107616
19.893036
20.630523
21.318304
21.954727
22.538263
23.06751
23.541198
23.958191
24.317489
24.618229
24.859691
25.041295
25.162607
25.223336
25.223336
25.162607
25.041295
24.859691
24.618229
24.317489
23.958191
23.541198
23.06751
22.538262
21.954727
21.318304
20.630523
19.893036
19.107616
18.276152
17.400645
16.483203
15.526034
14.531444
13.501832
12.439679
11.347547
10.228073
9.0839577
7.9179644
6.7329089
5.5316542
4.3171025
3.0921889
1.8598734
0.62313421
-0.61504003
-1.8516575
-3.0837305
-4.3082831
-5.5223581
-6.723025
-7.9073862
-9.0725852
-10.215813
-11.334314
-12.425397
-13.486433
-14.514873
-15.508243
-16.464159
-17.380325
-18.254545
-19.084724
-19.868873
-20.605116
-21.291693
-21.926963
-22.509408
-23.037639
-23.510396
-23.926551
-24.285114
-24.585229
-24.826183
-25.007402
-25.128454
-25.189053
-25.545128
-25.48368
-25.36093
-25.17717
-24.932837
-24.628511
-24.264917
-23.84292
-23.363525
-22.827873
-22.237242
-21.59304
-20.896804
-20.150198
-19.355006
-18.51313
-17.626585
-16.697495
-15.728088
-14.720691
-13.677721
-12.601686
-11.495174
-10.360848
-9.201439
-8.0197415
-6.8186047
-5.6009265
-4.3696457
-3.1277354
-1.8781953
-0.62404453
0.63168617
1.8859616
3.13575
4.3780301
5.6097991
6.8280797
8.0299278
9.2124396
10.372759
11.508083
12.615672
13.692852
14.737026
15.745676
16.71637
17.646772
18.53464
19.377838
20.174338
20.922224
21.6197
22.26509
22.856844
23.393543
23.873899
24.29676
24.661112
24.966082
25.21094
25.395098
25.518115
25.579698
25.579698
25.518115
25.395098
25.21094
24.966082
24.661112
24.29676
23.873899
23.393543
22.856844
22.26509
21.6197
20.922224
20.174338
19.377838
18.53464
17.646772
16.71637
15.745676
14.737026
13.692852
12.615672
11.508083
10.372759
9.2124397
8.0299279
6.8280798
5.6097992
4.3780302
3.1357501
1.8859617
0.63168625
-0.62404444
-1.8781952
-3.1277353
-4.3696456
-5.6009264
-6.8186046
-8.0197414
-9.2014389
-10.360848
-11.495174
-12.601686
-13.677721
-14.720691
-15.728088
-16.697495
-17.626585
-18.51313
-19.355006
-20.150198
-20.896804
-21.59304
-22.237242
-22.827873
-23.363525
-23.84292
-24.264917
-24.628511
-24.932837
-25.17717
-25.36093
-25.48368
-25.545128
-25.9626
-25.900157
-25.775418
-25.58868
-25.340386
-25.031126
-24.661636
-24.232793
-23.745617
-23.201269
-22.601044
-21.946373
-21.238816
-20.480064
-19.671928
-18.81634
-17.915348
-16.97111
-15.985888
-14.962045
-13.902042
-12.808423
-11.683821
-10.53094
-9.352559
-8.1515167
-6.93071
-5.6930846
-4.4416285
-3.1793644
-1.9093419
-0.6346307
0.64168773
1.9165275
3.1868059
4.4494513
5.7014108
6.9396575
8.1611982
9.3630809
10.542402
11.696313
12.822028
13.91683
14.97808
16.003217
16.989773
17.93537
18.837733
19.69469
20.504182
21.264262
21.973106
22.62901
23.230402
23.775838
24.264012
24.693753
25.064032
25.373962
25.6228
25.809952
25.93497
25.997553
25.997553
25.93497
25.809952
25.6228
25.373962
25.064032
24.693753
24.264012
23.775838
23.230402
22.62901
21.973106
21.264262
20.504182
19.69469
18.837733
17.93537
16.989773
16.003217
14.97808
13.91683
12.822028
11.696313
10.542402
9.363081
8.1611984
6.9396576
5.701411
4.4494514
3.186806
1.9165275
0.64168781
-0.63463062
-1.9093418
-3.1793643
-4.4416285
-5.6930845
-6.9307099
-8.1515166
-9.3525589
-10.53094
-11.683821
-12.808423
-13.902042
-14.962045
-15.985888
-16.97111
-17.915348
-18.816341
-19.671928
-20.480064
-21.238816
-21.946373
-22.601044
-23.201269
-23.745617
-24.232793
-24.661636
-25.031126
-25.340386
-25.58868
-25.775418
-25.900156
-25.9626
-26.442465
-26.378877
-26.251853
-26.061694
-25.808851
-25.493923
-25.117658
-24.680949
-24.184834
-23.630493
-23.019245
-22.352544
-21.631979
-20.85927
-20.036259
-19.164914
-18.247319
-17.28567
-16.28227
-15.239528
-14.159945
-13.046115
-11.900718
-10.72651
-9.5263187
-8.3030383
-7.059619
-5.799062
-4.5244115
-3.2387472
-1.9451766
-0.64682727
0.65316091
1.9516436
3.2454797
4.5315395
5.8067124
7.0679142
8.3120956
9.5362489
10.737416
11.912696
13.05925
14.174312
15.255191
16.299283
17.304072
18.267138
19.186164
20.058939
20.883365
21.657463
22.379373
23.047364
23.659833
24.215313
24.712473
25.150122
25.527213
25.842844
26.096259
26.286852
26.414168
26.477902
26.477902
26.414168
26.286852
26.096259
25.842844
25.527213
25.150122
24.712473
24.215313
23.659833
23.047364
22.379373
21.657463
20.883365
20.058939
19.186164
18.267138
17.304072
16.299283
15.255191
14.174312
13.05925
11.912696
10.737416
9.536249
8.3120957
7.0679143
5.8067125
4.5315396
3.2454798
1.9516436
0.65316096
-0.64682723
-1.9451766
-3.2387472
-4.5244115
-5.799062
-7.0596189
-8.3030382
-9.5263187
-10.72651
-11.900718
-13.046115
-14.159945
-15.239528
-16.28227
-17.28567
-18.247319
-19.164914
-20.036259
-20.85927
-21.631979
-22.352544
-23.019245
-23.630493
-24.184834
-24.680949
-25.117657
-25.493923
-25.808851
-26.061694
-26.251853
-26.378877
-26.442465
-26.985866
-26.920985
-26.791375
-26.597343
-26.33935
-26.018007
-25.634074
-25.188463
-24.68223
-24.116578
-23.492852
-22.812533
-22.077243
-21.288733
-20.448883
-19.559698
-18.623305
-17.641943
-16.617962
-15.553817
-14.452063
-13.315347
-12.146401
-10.948039
-9.7231483
-8.474682
-7.2056523
-5.9191229
-4.618202
-3.3060338
-1.9857911
-0.66066762
0.66613075
1.9913933
3.3119128
4.6244937
5.9259598
7.2131623
8.4829878
9.7323659
10.958277
12.157759
13.327915
14.465922
15.569035
16.634593
17.660032
18.642881
19.580776
20.471464
21.312802
22.102773
22.83948
23.521157
24.14617
24.713022
25.220357
25.666961
26.051765
26.37385
26.632446
26.826936
26.956854
27.021891
27.021891
26.956854
26.826936
26.632446
26.37385
26.051765
25.666961
25.220357
24.713022
24.14617
23.521156
22.83948
22.102773
21.312802
20.471464
19.580776
18.642881
17.660032
16.634593
15.569034
14.465922
13.327915
12.157759
10.958277
9.7323659
8.4829878
7.2131623
5.9259598
4.6244937
3.3119129
1.9913933
0.66613073
-0.66066765
-1.9857912
-3.3060338
-4.6182021
-5.919123
-7.2056523
-8.4746821
-9.7231483
-10.948039
-12.146401
-13.315347
-14.452063
-15.553817
-16.617962
-17.641943
-18.623305
-19.559698
-20.448883
-21.288733
-22.077243
-22.812533
-23.492852
-24.116578
-24.68223
-25.188463
-25.634074
-26.018007
-26.33935
-26.597343
-26.791375
-26.920985
-26.985866
-27.594101
-27.527771
-27.395268
-27.196906
-26.933152
-26.604632
-26.212121
-25.75655
-25.238998
-24.660693
-24.023005
-23.327451
-22.575684
-21.769493
-20.9108
-20.001652
-19.044222
-18.040798
-16.993783
-15.905685
-14.779115
-13.61678
-12.421475
-11.196076
-9.9435354
-8.6668743
-7.3691736
-6.0535674
-4.7232353
-3.381394
-2.0312898
-0.67618995
0.68062525
2.0358708
3.3862653
4.7285393
6.0594431
7.3757555
8.6742915
9.9519102
11.205523
12.432099
13.628679
14.792372
15.920372
17.009961
18.058514
19.063508
20.022525
20.933262
21.79353
22.601266
23.354534
24.051528
24.69058
25.270159
25.788882
26.245506
26.638943
26.968251
27.232646
27.431496
27.564326
27.630821
27.630821
27.564326
27.431496
27.232646
26.968251
26.638943
26.245506
25.788882
25.270159
24.690579
24.051528
23.354534
22.601266
21.79353
20.933261
20.022525
19.063508
18.058514
17.009961
15.920372
14.792372
13.628678
12.432099
11.205522
9.9519101
8.6742914
7.3757555
6.059443
4.7285392
3.3862653
2.0358707
0.68062515
-0.67619007
-2.0312899
-3.3813942
-4.7232355
-6.0535676
-7.3691738
-8.6668745
-9.9435355
-11.196076
-12.421475
-13.616781
-14.779115
-15.905685
-16.993783
-18.040798
-19.044222
-20.001652
-20.9108
-21.769493
-22.575684
-23.327451
-24.023005
-24.660693
-25.238998
-25.75655
-26.212121
-26.604632
-26.933152
-27.196906
-27.395268
-27.527771
-27.594101
-28.268618
-28.200683
-28.064975
-27.861812
-27.591674
-27.2552
-26.853183
-26.386573
-25.856475
-25.264144
-24.610982
-23.898539
-23.128507
-22.302716
-21.423132
-20.491852
-19.511097
-18.483211
-17.410654
-16.295994
-15.141906
-13.95116
-12.726621
-11.471235
-10.188027
-8.8800936
-7.5505912
-6.2027323
-4.8397758
-3.4650192
-2.0817899
-0.69343747
0.69667546
2.0851813
3.4687162
4.8439285
6.2074872
7.5560904
8.8864735
10.195417
11.479757
12.736387
13.962273
15.154455
16.310059
17.426299
18.500487
19.530039
20.512479
21.445449
22.326708
23.154144
23.925775
24.639753
25.29437
25.888062
26.41941
26.887145
27.290151
27.627468
27.898292
28.101975
28.238035
28.306146
28.306146
28.238035
28.101975
27.898291
27.627468
27.290151
26.887145
26.419409
25.888062
25.29437
24.639753
23.925775
23.154144
22.326708
21.445448
20.512479
19.530038
18.500487
17.426299
16.310059
15.154455
13.962272
12.736387
11.479756
10.195417
8.8864733
7.5560902
6.207487
4.8439283
3.468716
2.0851811
0.69667527
-0.69343765
-2.0817901
-3.4650194
-4.839776
-6.2027325
-7.5505914
-8.8800938
-10.188028
-11.471235
-12.726621
-13.95116
-15.141906
-16.295994
-17.410654
-18.483211
-19.511097
-20.491852
-21.423132
-22.302716
-23.128507
-23.898539
-24.610982
-25.264144
-25.856475
-26.386573
-26.853183
-27.2552
-27.591674
-27.861812
-28.064975
-28.200683
-28.268618
-29.011023
-28.941324
-28.802089
-28.593647
-28.316488
-27.971265
-27.558792
-27.080041
-26.536143
-25.928383
-25.258197
-24.527175
-23.737048
-22.889693
-21.987124
-21.03149
-20.025069
-18.970264
-17.869598
-16.725705
-15.541328
-14.319312
-13.062594
-11.774199
-10.457232
-9.1148718
-7.7503589
-6.366992
-4.9681176
-3.5571219
-2.1374223
-0.71245859
0.71431543
2.1394411
3.5594638
4.9709411
6.3704523
7.7546066
9.1200517
10.463482
11.781649
13.071363
14.329511
15.553054
16.739043
17.884618
18.987022
20.043604
21.051824
22.009263
22.913624
23.76274
24.554579
25.287246
25.958992
26.568212
27.113452
27.593412
28.006949
28.353077
28.630973
28.839976
28.979588
29.049477
29.049477
28.979588
28.839976
28.630973
28.353077
28.006949
27.593412
27.113452
26.568211
25.958992
25.287246
24.554579
23.76274
22.913623
22.009263
21.051824
20.043603
18.987022
17.884618
16.739042
15.553054
14.329511
13.071363
11.781648
10.463482
9.1200515
7.7546063
6.3704521
4.9709408
3.5594635
2.1394409
0.71431519
-0.71245882
-2.1374225
-3.5571221
-4.9681179
-6.3669922
-7.7503591
-9.114872
-10.457233
-11.774199
-13.062594
-14.319312
-15.541328
-16.725705
-17.869598
-18.970265
-20.025069
-21.03149
-21.987124
-22.889693
-23.737048
-24.527175
-25.258198
-25.928383
-26.536143
-27.080041
-27.558792
-27.971265
-28.316488
-28.593647
-28.802089
-28.941324
-29.011023
-29.823084
-29.751456
-29.608368
-29.394156
-29.109324
-28.754539
-28.330637
-27.838615
-27.279632
-26.655006
-25.966212
-25.214877
-24.402781
-23.531848
-22.604147
-21.621882
-20.587394
-19.503151
-18.371741
-17.195875
-15.978369
-14.722146
-13.430227
-12.105721
-10.751822
-9.3717958
-7.9689778
-6.5467603
-5.1085856
-3.6579375
-2.1983316
-0.73330725
0.73358224
2.1987783
3.6587265
5.1098853
6.5487355
7.9717888
9.375597
10.75676
12.111936
13.437847
14.73129
15.989141
17.208368
18.386033
19.519301
20.605448
21.641866
22.626067
23.555693
24.428519
25.242458
25.995564
26.68604
27.312239
27.87267
28.365998
28.791048
29.146811
29.432441
29.647259
29.790755
29.862588
29.862588
29.790755
29.647259
29.432441
29.146811
28.791048
28.365998
27.87267
27.312239
26.68604
25.995564
25.242458
24.428519
23.555693
22.626067
21.641866
20.605448
19.519301
18.386033
17.208368
15.989141
14.731289
13.437847
12.111936
10.75676
9.3755967
7.9717886
6.5487353
5.1098851
3.6587263
2.1987781
0.733582
-0.73330748
-2.1983318
-3.6579377
-5.1085858
-6.5467604
-7.968978
-9.371796
-10.751822
-12.105721
-13.430227
-14.722146
-15.978369
-17.195875
-18.371742
-19.503151
-20.587394
-21.621882
-22.604147
-23.531848
-24.402781
-25.214877
-25.966212
-26.655006
-27.279632
-27.838615
-28.330637
-28.754539
-29.109324
-29.394156
-29.608368
-29.751456
-29.823084
-30.706733
-30.633008
-30.485731
-30.265247
-29.972071
-29.606891
-29.170563
-28.664112
-28.088726
-27.445761
-26.73673
-25.963306
-25.127317
-24.23074
-23.275702
-22.264469
-21.199448
-20.083176
-18.91832
-17.707663
-16.454108
-15.160662
-13.830435
-12.466628
-11.072532
-9.6515099
-8.2069979
-6.7424911
-5.2615366
-3.7677242
-2.2646773
-0.75604315
0.75451596
2.2633325
3.7667433
5.2610985
6.7427714
8.2081677
9.6537342
11.075968
12.471427
13.836734
15.16859
16.463779
17.719179
18.931764
20.098617
21.216935
22.284033
23.297352
24.254467
25.153088
25.991068
26.766408
27.477259
28.121928
28.698883
29.20675
29.644324
30.010566
30.304607
30.52575
30.673471
30.747418
30.747418
30.673471
30.52575
30.304607
30.010566
29.644324
29.20675
28.698883
28.121928
27.477259
26.766407
25.991068
25.153088
24.254467
23.297352
22.284033
21.216935
20.098617
18.931764
17.719178
16.463779
15.168589
13.836734
12.471427
11.075968
9.653734
8.2081675
6.7427712
5.2610983
3.7667431
2.2633324
0.75451578
-0.75604331
-2.2646774
-3.7677244
-5.2615367
-6.7424912
-8.206998
-9.65151
-11.072532
-12.466629
-13.830435
-15.160662
-16.454108
-17.707663
-18.91832
-20.083176
-21.199448
-22.264469
-23.275702
-24.23074
-25.127317
-25.963306
-26.73673
-27.445761
-28.088726
-28.664112
-29.170563
-29.606891
-29.972071
-30.265247
-30.485731
-30.633008
-30.706733
-31.664071
-31.588077
-31.436266
-31.208992
-30.906787
-30.530356
-30.080578
-29.558508
-28.965367
-28.302549
-27.571609
-26.77427
-25.91241
-24.988066
-24.003424
-22.960819
-21.862729
-20.711767
-19.510679
-18.262334
-16.969724
-15.635949
-14.264214
-12.857822
-11.420166
-9.9547173
-8.4650198
-6.9546806
-5.4273606
-3.886765
-2.3366338
-0.78073209
0.77715966
2.3332556
3.8837741
5.4249478
6.9530335
8.4643213
9.9551444
11.421889
12.861001
14.268999
15.64248
16.978127
18.272719
19.523139
20.726379
21.879548
22.979881
24.024742
25.011632
25.938191
26.80221
27.60163
28.334547
28.999219
29.594067
30.117679
30.568814
30.946403
31.249552
31.477543
31.629838
31.706075
31.706075
31.629838
31.477543
31.249552
30.946403
30.568814
30.117679
29.594067
28.999219
28.334547
27.60163
26.80221
25.938191
25.011631
24.024742
22.979881
21.879548
20.726379
19.523139
18.272719
16.978127
15.64248
14.268999
12.861001
11.421888
9.9551442
8.4643211
6.9530333
5.4249477
3.8837739
2.3332554
0.77715956
-0.78073219
-2.3366339
-3.8867651
-5.4273607
-6.9546807
-8.4650199
-9.9547174
-11.420166
-12.857823
-14.264214
-15.635949
-16.969724
-18.262335
-19.510679
-20.711767
-21.862729
-22.960819
-24.003424
-24.988066
-25.91241
-26.77427
-27.57161
-28.302549
-28.965367
-29.558508
-30.080578
-30.530356
-30.906787
-31.208992
-31.436266
-31.588077
-31.664071
-32.697371
-32.618931
-32.462232
-32.227639
-31.915699
-31.527136
-31.062857
-30.523945
-29.911658
-29.22743
-28.472863
-27.649729
-26.759964
-25.805666
-24.789088
-23.712636
-22.578865
-21.390469
-20.150281
-18.861262
-17.526498
-16.14919
-14.732648
-13.280284
-11.795599
-10.282183
-8.7436969
-7.1838687
-5.6064822
-4.0153677
-2.4143916
-0.8074464
0.80155937
2.4087115
4.0101005
5.6018317
7.1800353
8.7408767
10.280566
11.795369
13.281614
14.735703
16.15412
17.533442
18.870341
20.161599
21.404112
22.594896
23.731097
24.809996
25.829015
26.785722
27.677837
28.503237
29.259961
29.946212
30.560363
31.10096
31.566724
31.956553
32.269526
32.504905
32.662133
32.74084
32.74084
32.662133
32.504905
32.269526
31.956553
31.566724
31.10096
30.560363
29.946212
29.259961
28.503237
27.677837
26.785722
25.829015
24.809996
23.731097
22.594896
21.404111
20.161599
18.870341
17.533442
16.15412
14.735703
13.281614
11.795369
10.280566
8.7408766
7.1800352
5.6018316
4.0101004
2.4087115
0.80155931
-0.80744645
-2.4143917
-4.0153678
-5.6064823
-7.1838688
-8.7436971
-10.282183
-11.7956
-13.280284
-14.732649
-16.14919
-17.526498
-18.861262
-20.150281
-21.390469
-22.578865
-23.712636
-24.789088
-25.805666
-26.759964
-27.649729
-28.472863
-29.22743
-29.911658
-30.523945
-31.062857
-31.527136
-31.915699
-32.227639
-32.462232
-32.618931
-32.697371
-33.809087
-33.728018
-33.566067
-33.32361
-33.001208
-32.59961
-32.119746
-31.562734
-30.929869
-30.222628
-29.442663
-28.5918
-27.672035
-26.68553
-25.634611
-24.52176
-23.349614
-22.120955
-20.838708
-19.505932
-18.125816
-16.701669
-15.236913
-13.735074
-12.199779
-10.634737
-9.043738
-7.430641
-5.7993623
-4.153867
-2.4981579
-0.8362653
0.82776397
2.4898772
4.1460267
5.7921802
7.4243318
9.0385121
10.630799
12.197327
13.734297
15.237988
16.704764
18.131081
19.513503
20.8487
22.133465
23.364714
24.5395
25.655013
26.70859
27.697722
28.620053
29.473393
30.255718
30.965173
31.600082
32.158942
32.640434
33.043423
33.366959
33.610279
33.772812
33.854174
33.854174
33.772812
33.610279
33.366959
33.043423
32.640434
32.158942
31.600082
30.965174
30.255718
29.473393
28.620053
27.697722
26.708591
25.655013
24.5395
23.364714
22.133465
20.8487
19.513503
18.131081
16.704764
15.237988
13.734297
12.197326
10.630799
9.038512
7.4243317
5.7921802
4.1460267
2.4898772
0.82776394
-0.83626534
-2.4981579
-4.153867
-5.7993624
-7.4306411
-9.0437382
-10.634737
-12.199779
-13.735075
-15.236913
-16.701669
-18.125817
-19.505932
-20.838708
-22.120955
-23.349614
-24.521761
-25.634611
-26.68553
-27.672035
-28.5918
-29.442664
-30.222629
-30.92987
-31.562734
-32.119746
-32.59961
-33.001208
-33.32361
-33.566067
-33.728018
-33.809087
-35.001856
-34.917971
-34.750393
-34.49951
-34.165899
-33.750332
-33.25377
-32.677361
-32.022444
-31.290539
-30.483351
-29.602763
-28.650836
-27.629802
-26.54206
-25.390177
-24.176875
-22.90503
-21.577667
-20.197949
-18.769175
-17.294769
-15.778274
-14.223343
-12.633728
-11.013274
-9.3659092
-7.6956311
-6.0064996
-4.3026251
-2.5881575
-0.86727544
0.85582524
2.5769426
4.2918801
5.9964572
7.6865213
9.3579581
11.006703
12.628749
14.220163
15.777089
17.29576
18.772509
20.203777
21.586118
22.916214
24.190875
25.407051
26.561838
27.652482
28.676388
29.631125
30.514427
31.324204
32.058542
32.715705
33.294146
33.792502
34.2096
34.544459
34.796294
34.964513
35.048721
35.048721
34.964513
34.796294
34.544459
34.2096
33.792502
33.294146
32.715705
32.058542
31.324204
30.514427
29.631125
28.676388
27.652482
26.561838
25.407051
24.190875
22.916214
21.586118
20.203777
18.772509
17.29576
15.777089
14.220163
12.628749
11.006703
9.3579581
7.6865212
5.9964571
4.29188
2.5769426
0.85582521
-0.86727549
-2.5881576
-4.3026252
-6.0064997
-7.6956312
-9.3659094
-11.013274
-12.633728
-14.223343
-15.778275
-17.29477
-18.769175
-20.197949
-21.577667
-22.90503
-24.176875
-25.390177
-26.54206
-27.629802
-28.650836
-29.602763
-30.483351
-31.290539
-32.022444
-32.677361
-33.25377
-33.750332
-34.165899
-34.49951
-34.750393
-34.917971
-35.001856
-36.278505
-36.19161
-36.018019
-35.75813
-35.412541
-34.982046
-34.467635
-33.870494
-33.192002
-32.43373
-31.597437
-30.685066
-29.698746
-28.640783
-27.513657
-26.32002
-25.062687
-23.744636
-22.368994
-20.939039
-19.458186
-17.929982
-16.3581
-14.746325
-13.09855
-11.418763
-9.7110372
-7.9795226
-6.2284326
-4.4620337
-2.6846339
-0.90057139
0.88579776
2.6701111
4.4480119
6.2151606
7.9672468
9.7000005
11.409204
13.0907
14.740409
16.354331
17.928561
19.459298
20.942852
22.375654
23.754266
25.075385
26.335853
27.532664
28.662967
29.724079
30.713483
31.628837
32.467979
33.22893
33.909897
34.509279
35.02567
35.457856
35.804825
36.065765
36.240065
36.327317
36.327317
36.240065
36.065765
35.804825
35.457856
35.02567
34.509279
33.909897
33.22893
32.467979
31.628837
30.713483
29.724079
28.662967
27.532664
26.335853
25.075385
23.754266
22.375654
20.942852
19.459298
17.928561
16.354331
14.740409
13.0907
11.409203
9.7000004
7.9672467
6.2151605
4.4480119
2.6701111
0.88579773
-0.90057144
-2.684634
-4.4620338
-6.2284328
-7.9795228
-9.7110374
-11.418763
-13.09855
-14.746325
-16.3581
-17.929983
-19.458186
-20.93904
-22.368995
-23.744636
-25.062687
-26.32002
-27.513657
-28.640783
-29.698746
-30.685066
-31.597437
-32.43373
-33.192002
-33.870494
-34.467635
-34.982046
-35.412541
-35.758131
-36.018019
-36.19161
-36.278505
-37.642054
-37.551951
-37.371949
-37.102459
-36.744097
-36.297683
-35.764238
-35.144986
-34.441351
-33.654954
-32.787611
-31.841332
-30.818314
-29.720943
-28.551783
-27.313577
-26.009241
-24.641856
-23.214664
-21.731058
-20.194581
-18.608912
-16.977859
-15.305353
-13.595434
-11.852243
-10.080012
-8.2830523
-6.465742
-4.6325154
-2.7878503
-0.93625613
0.9177389
2.7696001
4.6147987
6.4488245
8.2671979
10.065482
11.839295
13.584319
15.296317
16.971135
18.604722
20.193132
21.732538
23.219237
24.649665
26.020397
27.328161
28.569841
29.742487
30.843317
31.869728
32.819294
33.689778
34.479132
35.185503
35.807234
36.342869
36.791156
37.151047
37.421702
37.60249
37.692989
37.692989
37.60249
37.421702
37.151047
36.791156
36.342869
35.807234
35.185503
34.479132
33.689778
32.819294
31.869728
30.843317
29.742487
28.569841
27.328161
26.020397
24.649665
23.219237
21.732538
20.193133
18.604722
16.971135
15.296317
13.584319
11.839295
10.065482
8.2671979
6.4488245
4.6147987
2.7696
0.91773886
-0.93625619
-2.7878504
-4.6325155
-6.4657421
-8.2830525
-10.080012
-11.852243
-13.595434
-15.305353
-16.977859
-18.608912
-20.194581
-21.731058
-23.214664
-24.641856
-26.009241
-27.313577
-28.551783
-29.720943
-30.818314
-31.841332
-32.787611
-33.654954
-34.441351
-35.144986
-35.764238
-36.297683
-36.744097
-37.102459
-37.371949
-37.551951
-37.642054
-39.09573
-39.002212
-38.815388
-38.535682
-38.163728
-37.700373
-37.146672
-36.503886
-35.773488
-34.95715
-34.05675
-33.074365
-32.012267
-30.872923
-29.658988
-28.373301
-27.018883
-25.598925
-24.116789
-22.575996
-20.980219
-19.333278
-17.63913
-15.901855
-14.125655
-12.314833
-10.473791
-8.6070124
-6.7190525
-4.8145253
-2.8980907
-0.97444174
0.95170877
2.8756414
4.7926431
6.6980206
8.5871133
10.455306
12.298039
14.110827
15.88926
17.629025
19.32591
20.975817
22.574772
24.118931
25.604594
27.028209
28.386381
29.67588
30.893646
32.036798
33.102636
34.088651
34.992523
35.812134
36.545563
37.191096
37.747228
38.212661
38.586313
38.867314
39.055011
39.148969
39.148969
39.055011
38.867314
38.586313
38.212661
37.747228
37.191096
36.545563
35.812134
34.992523
34.088651
33.102636
32.036798
30.893646
29.67588
28.386381
27.028209
25.604594
24.118931
22.574772
20.975817
19.32591
17.629025
15.88926
14.110827
12.298039
10.455306
8.5871133
6.6980206
4.792643
2.8756413
0.95170873
-0.97444178
-2.8980908
-4.8145254
-6.7190526
-8.6070125
-10.473791
-12.314833
-14.125655
-15.901856
-17.63913