/*--------------------------------*- C++ -*----------------------------------*\
| =========                 |                                                 |
| \\      /  F ield         | OpenFOAM: The Open Source CFD Toolbox           |
|  \\    /   O peration     | Version:  2106                                  |
|   \\  /    A nd           | Website:  www.openfoam.com                      |
|    \\/     M anipulation  |                                                 |
\*---------------------------------------------------------------------------*/
FoamFile
{
    version     2.0;
    format      ascii;
    arch        "LSB;label=32;scalar=64";
    class       surfaceScalarField;
    location    "0.011";
    object      phi_0;
}
// * * * * * * * * * * * * * * * * * * * * * * * * * * * * * * * * * * * * * //

dimensions      [0 3 -1 0 0 0 0];

oriented        oriented;

internalField   nonuniform List<scalar> 
32512
(
2.2745543e-05
-2.2745544e-05
4.5423683e-05
-2.267814e-05
6.7967299e-05
-2.2543615e-05
9.0309835e-05
-2.2342537e-05
0.00011238558
-2.2075747e-05
0.00013412995
-2.1744363e-05
0.00015547971
-2.1349762e-05
0.00017637329
-2.0893581e-05
0.00019675099
-2.0377697e-05
0.0002165552
-1.9804218e-05
0.00023573067
-1.9175469e-05
0.00025422465
-1.8493978e-05
0.00027198711
-1.7762456e-05
0.00028897089
-1.6983785e-05
0.00030513189
-1.6160995e-05
0.00032042914
-1.5297251e-05
0.00033482497
-1.4395829e-05
0.00034828507
-1.3460105e-05
0.0003607786
-1.2493527e-05
0.0003722782
-1.1499604e-05
0.00038276008
-1.0481882e-05
0.00039220402
-9.4439327e-06
0.00040059334
-8.3893277e-06
0.00040791497
-7.321627e-06
0.00041415933
-6.2443601e-06
0.00041932034
-5.1610101e-06
0.00042339534
-4.074998e-06
0.00042638501
-2.9896675e-06
0.00042829328
-1.908272e-06
0.00042912724
-8.3396434e-07
0.00042889697
2.3027171e-07
0.00042761556
1.2814062e-06
0.00042529873
2.3168377e-06
0.00042196486
3.3338698e-06
0.0004176348
4.3300617e-06
0.00041233166
5.3031335e-06
0.00040608069
6.250975e-06
0.00039890903
7.1716548e-06
0.00039084561
8.0634241e-06
0.00038192089
8.9247189e-06
0.00037216673
9.7541613e-06
0.00036161617
1.0550557e-05
0.00035030327
1.1312896e-05
0.00033826293
1.2040342e-05
0.0003255307
1.2732235e-05
0.00031214262
1.3388075e-05
0.0002981351
1.4007519e-05
0.00028354474
1.4590366e-05
0.00026840819
1.5136548e-05
0.00025276208
1.5646115e-05
0.00023664286
1.611922e-05
0.00022008675
1.6556106e-05
0.00020312966
1.6957087e-05
0.00018580713
1.7322534e-05
0.00016815427
1.7652859e-05
0.00015020577
1.7948497e-05
0.00013199588
1.8209893e-05
0.0001135584
1.8437482e-05
9.4926717e-05
1.8631681e-05
7.6133845e-05
1.8792872e-05
5.7212451e-05
1.8921393e-05
3.8194925e-05
1.9017527e-05
1.9113435e-05
1.908149e-05
2.5970207e-13
1.9113434e-05
-1.9113434e-05
1.9113434e-05
-3.8194924e-05
1.908149e-05
-5.7212451e-05
1.9017527e-05
-7.6133844e-05
1.8921393e-05
-9.4926717e-05
1.8792872e-05
-0.0001135584
1.8631681e-05
-0.00013199588
1.8437482e-05
-0.00015020577
1.8209893e-05
-0.00016815427
1.7948497e-05
-0.00018580713
1.7652859e-05
-0.00020312966
1.7322534e-05
-0.00022008675
1.6957087e-05
-0.00023664286
1.6556106e-05
-0.00025276208
1.611922e-05
-0.00026840819
1.5646115e-05
-0.00028354474
1.5136548e-05
-0.0002981351
1.4590366e-05
-0.00031214262
1.4007519e-05
-0.0003255307
1.3388075e-05
-0.00033826293
1.2732235e-05
-0.00035030327
1.2040342e-05
-0.00036161617
1.1312896e-05
-0.00037216673
1.0550557e-05
-0.00038192089
9.7541613e-06
-0.00039084561
8.924719e-06
-0.00039890903
8.0634241e-06
-0.00040608069
7.1716548e-06
-0.00041233166
6.2509751e-06
-0.0004176348
5.3031335e-06
-0.00042196486
4.3300617e-06
-0.00042529873
3.3338698e-06
-0.00042761556
2.3168377e-06
-0.00042889697
1.2814062e-06
-0.00042912724
2.3027174e-07
-0.00042829328
-8.3396432e-07
-0.00042638501
-1.908272e-06
-0.00042339534
-2.9896675e-06
-0.00041932034
-4.074998e-06
-0.00041415933
-5.1610101e-06
-0.00040791497
-6.24436e-06
-0.00040059334
-7.3216269e-06
-0.00039220402
-8.3893276e-06
-0.00038276008
-9.4439327e-06
-0.0003722782
-1.0481882e-05
-0.0003607786
-1.1499604e-05
-0.00034828507
-1.2493527e-05
-0.00033482497
-1.3460105e-05
-0.00032042914
-1.4395829e-05
-0.00030513189
-1.529725e-05
-0.00028897089
-1.6160995e-05
-0.00027198711
-1.6983785e-05
-0.00025422465
-1.7762456e-05
-0.00023573067
-1.8493978e-05
-0.0002165552
-1.9175469e-05
-0.00019675099
-1.9804218e-05
-0.00017637329
-2.0377697e-05
-0.00015547971
-2.0893581e-05
-0.00013412995
-2.1349762e-05
-0.00011238558
-2.1744363e-05
-9.0309836e-05
-2.2075747e-05
-6.7967299e-05
-2.2342537e-05
-4.5423684e-05
-2.2543615e-05
-2.2745544e-05
-2.267814e-05
-2.2745544e-05
2.2906436e-05
-4.565198e-05
4.5744939e-05
-4.5516643e-05
6.8447862e-05
-4.5246539e-05
9.0948132e-05
-4.4842806e-05
0.00011317952
-4.4307139e-05
0.00013507694
-4.364178e-05
0.00015657668
-4.2849501e-05
0.00017761668
-4.1933587e-05
0.0001981368
-4.0897812e-05
0.00021807899
-3.9746411e-05
0.00023738758
-3.8484058e-05
0.00025600943
-3.7115828e-05
0.00027389415
-3.5647171e-05
0.00029099424
-3.4083874e-05
0.00030726527
-3.2432026e-05
0.000322666
-3.0697983e-05
0.0003371585
-2.8888327e-05
0.00035070823
-2.7009835e-05
0.00036328414
-2.5069435e-05
0.00037485871
-2.3074172e-05
0.00038540799
-2.1031171e-05
0.00039491166
-1.8947599e-05
0.00040335296
-1.6830632e-05
0.00041071875
-1.4687417e-05
0.00041699944
-1.2525042e-05
0.00042218893
-1.03505e-05
0.00042628459
-8.1706623e-06
0.00042928717
-5.992242e-06
0.00043120066
-3.8217712e-06
0.00043203227
-1.6655708e-06
0.00043179227
4.7027593e-07
0.00043049375
2.5799205e-06
0.00042815273
4.6578615e-06
0.00042478776
6.6988354e-06
0.00042041991
8.6979168e-06
0.00041507252
1.0650522e-05
0.00040877108
1.2552414e-05
0.00040154302
1.4399715e-05
0.00039341753
1.6188917e-05
0.00038442537
1.791688e-05
0.00037459869
1.9580841e-05
0.00036397084
2.1178405e-05
0.00035257619
2.2707547e-05
0.00034044993
2.4166597e-05
0.00032762794
2.5554232e-05
0.00031414655
2.6869459e-05
0.00030004247
2.8111596e-05
0.00028535259
2.9280249e-05
0.00027011385
3.0375293e-05
0.00025436312
3.1396838e-05
0.00023813714
3.2345204e-05
0.00022147235
3.3220889e-05
0.0002044049
3.4024538e-05
0.00018697053
3.4756908e-05
0.00016920455
3.5418837e-05
0.00015114184
3.6011212e-05
0.00013281679
3.6534935e-05
0.00011426338
3.6990895e-05
9.5515127e-05
3.7379936e-05
7.6605164e-05
3.7702835e-05
5.7566279e-05
3.7960278e-05
3.8430969e-05
3.8152837e-05
1.9231504e-05
3.8280956e-05
2.6098073e-13
3.8344938e-05
-1.9231504e-05
3.8344938e-05
-3.8430969e-05
3.8280956e-05
-5.7566279e-05
3.8152837e-05
-7.6605163e-05
3.7960278e-05
-9.5515126e-05
3.7702835e-05
-0.00011426338
3.7379936e-05
-0.00013281679
3.6990895e-05
-0.00015114184
3.6534935e-05
-0.00016920455
3.6011212e-05
-0.00018697053
3.5418837e-05
-0.0002044049
3.4756908e-05
-0.00022147235
3.4024538e-05
-0.00023813714
3.3220889e-05
-0.00025436312
3.2345204e-05
-0.00027011385
3.1396838e-05
-0.00028535259
3.0375293e-05
-0.00030004247
2.9280249e-05
-0.00031414655
2.8111596e-05
-0.00032762794
2.6869459e-05
-0.00034044993
2.5554232e-05
-0.00035257619
2.4166597e-05
-0.00036397084
2.2707547e-05
-0.00037459869
2.1178405e-05
-0.00038442537
1.9580841e-05
-0.00039341753
1.791688e-05
-0.00040154302
1.6188917e-05
-0.00040877108
1.4399715e-05
-0.00041507252
1.2552414e-05
-0.00042041991
1.0650522e-05
-0.00042478776
8.6979169e-06
-0.00042815273
6.6988354e-06
-0.00043049375
4.6578616e-06
-0.00043179227
2.5799205e-06
-0.00043203227
4.7027598e-07
-0.00043120066
-1.6655708e-06
-0.00042928717
-3.8217712e-06
-0.00042628459
-5.9922419e-06
-0.00042218893
-8.1706622e-06
-0.00041699944
-1.03505e-05
-0.00041071875
-1.2525042e-05
-0.00040335296
-1.4687417e-05
-0.00039491166
-1.6830632e-05
-0.00038540799
-1.8947599e-05
-0.00037485871
-2.1031171e-05
-0.00036328414
-2.3074172e-05
-0.00035070823
-2.5069435e-05
-0.0003371585
-2.7009835e-05
-0.000322666
-2.8888327e-05
-0.00030726527
-3.0697983e-05
-0.00029099424
-3.2432026e-05
-0.00027389415
-3.4083874e-05
-0.00025600943
-3.5647171e-05
-0.00023738758
-3.7115828e-05
-0.00021807899
-3.8484058e-05
-0.0001981368
-3.9746411e-05
-0.00017761669
-4.0897812e-05
-0.00015657668
-4.1933587e-05
-0.00013507694
-4.2849501e-05
-0.00011317952
-4.364178e-05
-9.0948132e-05
-4.4307139e-05
-6.8447863e-05
-4.4842806e-05
-4.5744939e-05
-4.5246539e-05
-2.2906436e-05
-4.5516643e-05
-4.565198e-05
2.319314e-05
-6.884512e-05
4.6317433e-05
-6.8640935e-05
6.9304321e-05
-6.8233427e-05
9.2085827e-05
-6.7624312e-05
0.00011459484
-6.6816153e-05
0.0001367654
-6.5812334e-05
0.00015853294
-6.4617044e-05
0.00017983459
-6.3235242e-05
0.00020060941
-6.1672627e-05
0.00022079859
-5.9935596e-05
0.00024034574
-5.8031203e-05
0.00025919703
-5.5967115e-05
0.00027730141
-5.3751556e-05
0.0002946108
-5.1393264e-05
0.00031108021
-4.8901429e-05
0.00032666787
-4.6285645e-05
0.00034133539
-4.3555848e-05
0.00035504782
-4.0722263e-05
0.00036777373
-3.7795347e-05
0.00037948529
-3.4785729e-05
0.00039015828
-3.1704162e-05
0.00039977214
-2.856146e-05
0.00040830995
-2.5368449e-05
0.00041575845
-2.2135914e-05
0.00042210796
-1.887455e-05
0.00042735237
-1.5594908e-05
0.00043148906
-1.2307353e-05
0.00043451883
-9.0220189e-06
0.00043644582
-5.7487602e-06
0.00043727737
-2.4971165e-06
0.00043702392
7.2372629e-07
0.00043569886
3.9049764e-06
0.00043331845
7.0382779e-06
0.00042990157
1.0115714e-05
0.00042546963
1.3129854e-05
0.00042004638
1.6073776e-05
0.0004136577
1.8941086e-05
0.00040633148
2.1725935e-05
0.00039809737
2.4423027e-05
0.00038898663
2.7027629e-05
0.00037903189
2.9535574e-05
0.00036826704
3.1943257e-05
0.00035672696
3.4247625e-05
0.00034444739
3.6446172e-05
0.00033146471
3.853691e-05
0.00031781581
4.0518354e-05
0.00030353792
4.2389492e-05
0.00028866842
4.4149749e-05
0.00027324476
4.5798951e-05
0.00025730431
4.7337288e-05
0.00024088425
4.8765263e-05
0.00022402149
5.0083652e-05
0.00020675258
5.129345e-05
0.00018911366
5.2395825e-05
0.00017114043
5.3392066e-05
0.00015286811
5.4283534e-05
0.00013433143
5.5071611e-05
0.00011556467
5.575766e-05
9.6601627e-05
5.6342975e-05
7.7475716e-05
5.6828746e-05
5.8219972e-05
5.7216021e-05
3.8867132e-05
5.7505677e-05
1.9449695e-05
5.7698393e-05
2.6337069e-13
5.7794633e-05
-1.9449695e-05
5.7794633e-05
-3.8867132e-05
5.7698393e-05
-5.8219972e-05
5.7505677e-05
-7.7475715e-05
5.7216021e-05
-9.6601626e-05
5.6828746e-05
-0.00011556467
5.6342975e-05
-0.00013433143
5.575766e-05
-0.00015286811
5.5071611e-05
-0.00017114043
5.4283534e-05
-0.00018911366
5.3392067e-05
-0.00020675258
5.2395825e-05
-0.00022402149
5.129345e-05
-0.00024088425
5.0083652e-05
-0.00025730431
4.8765263e-05
-0.00027324476
4.7337288e-05
-0.00028866842
4.5798951e-05
-0.00030353792
4.4149749e-05
-0.00031781581
4.2389492e-05
-0.00033146471
4.0518355e-05
-0.00034444739
3.853691e-05
-0.00035672696
3.6446172e-05
-0.00036826704
3.4247625e-05
-0.00037903189
3.1943257e-05
-0.00038898662
2.9535574e-05
-0.00039809737
2.702763e-05
-0.00040633148
2.4423027e-05
-0.0004136577
2.1725935e-05
-0.00042004638
1.8941086e-05
-0.00042546963
1.6073776e-05
-0.00042990157
1.3129854e-05
-0.00043331845
1.0115714e-05
-0.00043569886
7.038278e-06
-0.00043702392
3.9049764e-06
-0.00043727737
7.2372637e-07
-0.00043644582
-2.4971164e-06
-0.00043451883
-5.7487601e-06
-0.00043148906
-9.0220188e-06
-0.00042735237
-1.2307353e-05
-0.00042210796
-1.5594908e-05
-0.00041575845
-1.887455e-05
-0.00040830995
-2.2135914e-05
-0.00039977214
-2.5368449e-05
-0.00039015828
-2.856146e-05
-0.00037948529
-3.1704162e-05
-0.00036777373
-3.4785729e-05
-0.00035504782
-3.7795346e-05
-0.00034133539
-4.0722263e-05
-0.00032666787
-4.3555848e-05
-0.00031108021
-4.6285645e-05
-0.0002946108
-4.8901429e-05
-0.00027730141
-5.1393264e-05
-0.00025919703
-5.3751556e-05
-0.00024034574
-5.5967115e-05
-0.0002207986
-5.8031203e-05
-0.00020060941
-5.9935596e-05
-0.00017983459
-6.1672627e-05
-0.00015853294
-6.3235242e-05
-0.0001367654
-6.4617044e-05
-0.00011459484
-6.5812334e-05
-9.2085828e-05
-6.6816153e-05
-6.9304321e-05
-6.7624312e-05
-4.6317433e-05
-6.8233427e-05
-2.3193141e-05
-6.8640935e-05
-6.884512e-05
2.3606615e-05
-9.2451736e-05
4.7143077e-05
-9.2177397e-05
7.0539531e-05
-9.162988e-05
9.3726713e-05
-9.0811495e-05
0.00011663625
-8.9725686e-05
0.00013920092
-8.8377009e-05
0.00016135497
-8.6771097e-05
0.00018303435
-8.4914622e-05
0.00020417697
-8.2815247e-05
0.00022472295
-8.0481577e-05
0.00024461485
-7.7923099e-05
0.00026379786
-7.5150121e-05
0.00028222
-7.2173702e-05
0.00029983233
-6.9005589e-05
0.00031658904
-6.5658138e-05
0.00033244763
-6.2144243e-05
0.00034736905
-5.847726e-05
0.00036131771
-5.4670931e-05
0.00037426167
-5.0739308e-05
0.00038617262
-4.6696677e-05
0.00039702595
-4.2557484e-05
0.00040680075
-3.8336261e-05
0.00041547985
-3.4047555e-05
0.0004230498
-2.9705857e-05
0.00042950078
-2.5325534e-05
0.00043482664
-2.0920768e-05
0.00043902477
-1.6505484e-05
0.00044209605
-1.2093299e-05
0.00044404475
-7.6974587e-06
0.00044487842
-3.3307824e-06
0.00044460776
9.9438647e-07
0.0004432465
5.2662286e-06
0.00044081128
9.4735052e-06
0.00043732141
1.3605578e-05
0.00043279881
1.7652459e-05
0.00042726774
2.1604844e-05
0.00042075469
2.5454137e-05
0.00041328815
2.9192475e-05
0.00040489843
3.2812742e-05
0.00039561748
3.6308579e-05
0.00038547867
3.9674391e-05
0.00037451658
4.290534e-05
0.00036276687
4.5997337e-05
0.00035026602
4.8947023e-05
0.00033705118
5.1751747e-05
0.00032316
5.4409535e-05
0.00030863045
5.6919049e-05
0.00029350065
5.9279544e-05
0.00027780878
6.1490818e-05
0.00026159291
6.355316e-05
0.00024489089
6.5467282e-05
0.00022774028
6.7234263e-05
0.00021017825
6.8855481e-05
0.00019224153
7.0332543e-05
0.00017396638
7.1667222e-05
0.00015538853
7.2861383e-05
0.00013654322
7.3916925e-05
0.00011746517
7.483571e-05
9.8188629e-05
7.5619511e-05
7.8747419e-05
7.6269956e-05
5.9174963e-05
7.6788478e-05
3.9504365e-05
7.7176274e-05
1.9768483e-05
7.7434275e-05
2.6645536e-13
7.7563115e-05
-1.9768482e-05
7.7563115e-05
-3.9504365e-05
7.7434276e-05
-5.9174962e-05
7.7176274e-05
-7.8747419e-05
7.6788478e-05
-9.8188629e-05
7.6269956e-05
-0.00011746516
7.5619511e-05
-0.00013654321
7.483571e-05
-0.00015538853
7.3916925e-05
-0.00017396638
7.2861383e-05
-0.00019224153
7.1667222e-05
-0.00021017825
7.0332543e-05
-0.00022774028
6.8855481e-05
-0.00024489089
6.7234263e-05
-0.00026159291
6.5467282e-05
-0.00027780878
6.355316e-05
-0.00029350065
6.1490819e-05
-0.00030863044
5.9279544e-05
-0.00032316
5.6919049e-05
-0.00033705118
5.4409535e-05
-0.00035026602
5.1751747e-05
-0.00036276687
4.8947023e-05
-0.00037451658
4.5997337e-05
-0.00038547867
4.2905341e-05
-0.00039561748
3.9674392e-05
-0.00040489843
3.6308579e-05
-0.00041328815
3.2812742e-05
-0.00042075469
2.9192475e-05
-0.00042726774
2.5454137e-05
-0.00043279881
2.1604844e-05
-0.00043732141
1.7652459e-05
-0.00044081128
1.3605578e-05
-0.0004432465
9.4735053e-06
-0.00044460776
5.2662287e-06
-0.00044487842
9.9438657e-07
-0.00044404475
-3.3307823e-06
-0.00044209605
-7.6974586e-06
-0.00043902477
-1.2093299e-05
-0.00043482664
-1.6505484e-05
-0.00042950078
-2.0920768e-05
-0.0004230498
-2.5325534e-05
-0.00041547985
-2.9705857e-05
-0.00040680075
-3.4047555e-05
-0.00039702595
-3.8336261e-05
-0.00038617262
-4.2557484e-05
-0.00037426168
-4.6696677e-05
-0.00036131771
-5.0739308e-05
-0.00034736905
-5.4670931e-05
-0.00033244763
-5.847726e-05
-0.00031658904
-6.2144243e-05
-0.00029983233
-6.5658138e-05
-0.00028222
-6.9005589e-05
-0.00026379786
-7.2173702e-05
-0.00024461485
-7.5150121e-05
-0.00022472295
-7.7923099e-05
-0.00020417697
-8.0481577e-05
-0.00018303435
-8.2815247e-05
-0.00016135497
-8.4914622e-05
-0.00013920092
-8.6771097e-05
-0.00011663625
-8.8377009e-05
-9.3726714e-05
-8.9725686e-05
-7.0539531e-05
-9.0811495e-05
-4.7143078e-05
-9.162988e-05
-2.3606616e-05
-9.2177397e-05
-9.2451736e-05
2.4150091e-05
-0.00011660183
4.8228325e-05
-0.00011625563
7.2163149e-05
-0.0001155647
9.588362e-05
-0.00011453197
0.00011931971
-0.00011316177
0.00014240257
-0.00011145988
0.00016506488
-0.0001094334
0.00018724103
-0.00010709077
0.00020886746
-0.00010444168
0.00022988286
-0.00010149698
0.00025022844
-9.8268674e-05
0.00026984809
-9.4769771e-05
0.00028868863
-9.1014244e-05
0.00030669996
-8.7016923e-05
0.00032383523
-8.2793412e-05
0.00034005098
-7.8359989e-05
0.00035530724
-7.3733516e-05
0.00036956764
-6.8931339e-05
0.00038279953
-6.3971193e-05
0.00039497396
-5.887111e-05
0.0004060658
-5.364932e-05
0.0004160537
-4.8324162e-05
0.00042492014
-4.2913992e-05
0.00043265138
-3.7437099e-05
0.00043923746
-3.1911613e-05
0.00044467212
-2.6355428e-05
0.00044895276
-2.0786124e-05
0.00045208034
-1.5220885e-05
0.00045405931
-9.6764285e-06
0.00045489747
-4.1689401e-06
0.00045460586
1.2859982e-06
0.00045319862
6.6734618e-06
0.00045069287
1.1979255e-05
0.00044710851
1.7189946e-05
0.00044246805
2.229292e-05
0.00043679646
2.7276427e-05
0.00043012099
3.2129611e-05
0.00042247092
3.6842541e-05
0.00041387743
4.1406233e-05
0.00040437335
4.5812663e-05
0.00039399297
5.005477e-05
0.00038277185
5.4126458e-05
0.00037074661
5.8022577e-05
0.00035795472
6.1738908e-05
0.00034443434
6.5272128e-05
0.0003302241
6.8619774e-05
0.00031536296
7.1780191e-05
0.00029989002
7.4752481e-05
0.00028384441
7.7536434e-05
0.00026726511
8.013246e-05
0.00025019088
8.2541515e-05
0.00023266012
8.4765015e-05
0.00021471085
8.6804757e-05
0.00019638056
8.8662829e-05
0.00017770626
9.0341526e-05
0.00015872438
9.1843262e-05
0.00013947082
9.3170486e-05
0.00011998092
9.4325605e-05
0.00010028953
9.5310903e-05
8.0431008e-05
9.6128477e-05
6.0439311e-05
9.6780175e-05
4.0348047e-05
9.7267539e-05
2.0190557e-05
9.7591765e-05
2.7012179e-13
9.7753672e-05
-2.0190556e-05
9.7753672e-05
-4.0348046e-05
9.7591765e-05
-6.043931e-05
9.7267539e-05
-8.0431007e-05
9.6780175e-05
-0.00010028953
9.6128477e-05
-0.00011998092
9.5310903e-05
-0.00013947081
9.4325605e-05
-0.00015872438
9.3170486e-05
-0.00017770626
9.1843262e-05
-0.00019638056
9.0341526e-05
-0.00021471085
8.8662829e-05
-0.00023266012
8.6804757e-05
-0.00025019087
8.4765015e-05
-0.00026726511
8.2541515e-05
-0.00028384441
8.013246e-05
-0.00029989002
7.7536434e-05
-0.00031536296
7.4752481e-05
-0.0003302241
7.1780192e-05
-0.00034443434
6.8619774e-05
-0.00035795472
6.5272129e-05
-0.00037074661
6.1738908e-05
-0.00038277185
5.8022577e-05
-0.00039399297
5.4126458e-05
-0.00040437335
5.0054771e-05
-0.00041387743
4.5812663e-05
-0.00042247092
4.1406233e-05
-0.00043012099
3.6842541e-05
-0.00043679646
3.2129611e-05
-0.00044246805
2.7276427e-05
-0.00044710851
2.229292e-05
-0.00045069287
1.7189946e-05
-0.00045319862
1.1979256e-05
-0.00045460586
6.673462e-06
-0.00045489747
1.2859983e-06
-0.00045405931
-4.16894e-06
-0.00045208034
-9.6764284e-06
-0.00044895276
-1.5220884e-05
-0.00044467212
-2.0786124e-05
-0.00043923746
-2.6355428e-05
-0.00043265138
-3.1911612e-05
-0.00042492014
-3.7437099e-05
-0.0004160537
-4.2913992e-05
-0.0004060658
-4.8324162e-05
-0.00039497396
-5.364932e-05
-0.00038279953
-5.887111e-05
-0.00036956764
-6.3971193e-05
-0.00035530724
-6.8931339e-05
-0.00034005098
-7.3733516e-05
-0.00032383523
-7.8359989e-05
-0.00030669996
-8.2793412e-05
-0.00028868863
-8.7016923e-05
-0.00026984809
-9.1014244e-05
-0.00025022844
-9.4769771e-05
-0.00022988286
-9.8268674e-05
-0.00020886746
-0.00010149698
-0.00018724103
-0.00010444168
-0.00016506488
-0.00010709077
-0.00014240257
-0.0001094334
-0.00011931971
-0.00011145988
-9.5883621e-05
-0.00011316177
-7.2163149e-05
-0.00011453197
-4.8228325e-05
-0.0001155647
-2.4150092e-05
-0.00011625563
-0.00011660183
2.4829101e-05
-0.00014143093
4.9584225e-05
-0.00014101076
7.419171e-05
-0.00014017219
9.8578526e-05
-0.00013891878
0.00012267258
-0.00013725583
0.00014640302
-0.00013519032
0.00016970054
-0.00013273092
0.00019249763
-0.00012988786
0.00021472887
-0.00012667292
0.0002363312
-0.00012309931
0.00025724412
-0.00011918159
0.00027740992
-0.00011493558
0.00029677392
-0.00011037824
0.00031528458
-0.00010552759
0.00033289374
-0.00010040257
0.00034955672
-9.502297e-05
0.00036523245
-8.9409241e-05
0.00037988356
-8.3582448e-05
0.00039347648
-7.7564119e-05
0.00040598151
-7.1376139e-05
0.00041737283
-6.5040634e-05
0.00042762853
-5.8579862e-05
0.00043673063
-5.2016099e-05
0.00044466507
-4.537154e-05
0.00045142165
-3.866819e-05
0.00045699399
-3.1927767e-05
0.00046137947
-2.5171607e-05
0.00046457916
-1.842057e-05
0.00046659769
-1.1694956e-05
0.00046744316
-5.0144144e-06
0.00046712703
1.6021317e-06
0.00046566393
8.1365552e-06
0.00046307158
1.4571611e-05
0.00045937054
2.0890979e-05
0.00045458413
2.7079336e-05
0.00044873815
3.3122404e-05
0.00044186077
3.9006991e-05
0.00043398228
4.4721034e-05
0.00042513489
5.0253618e-05
0.00041535256
5.5594998e-05
0.00040467072
6.0736609e-05
0.00039312612
6.5671054e-05
0.0003807566
7.0392101e-05
0.00036760086
7.4894648e-05
0.0003536983
7.9174693e-05
0.00033908879
8.3229283e-05
0.00032381252
8.7056458e-05
0.00030790982
9.065518e-05
0.000291421
9.4025256e-05
0.00027438621
9.7167251e-05
0.00025684533
0.0001000824
0.00023883784
0.0001027725
0.0002204028
0.00010523981
0.00020157868
0.00010748694
0.00018240343
0.00010951678
0.00016291438
0.00011133232
0.00014314825
0.00011293662
0.00012314119
0.00011433267
0.00010292877
0.00011552332
8.2546082e-05
0.00011651117
6.2027742e-05
0.00011729851
4.1408005e-05
0.00011788728
2.0720836e-05
0.00011827893
2.742034e-13
0.00011847451
-2.0720835e-05
0.00011847451
-4.1408005e-05
0.00011827893
-6.2027741e-05
0.00011788728
-8.2546081e-05
0.00011729851
-0.00010292877
0.00011651117
-0.00012314119
0.00011552332
-0.00014314825
0.00011433267
-0.00016291438
0.00011293662
-0.00018240343
0.00011133232
-0.00020157868
0.00010951678
-0.00022040279
0.00010748694
-0.00023883784
0.00010523981
-0.00025684532
0.0001027725
-0.00027438621
0.0001000824
-0.000291421
9.7167251e-05
-0.00030790982
9.4025256e-05
-0.00032381252
9.065518e-05
-0.00033908879
8.7056458e-05
-0.0003536983
8.3229283e-05
-0.00036760086
7.9174693e-05
-0.0003807566
7.4894648e-05
-0.00039312612
7.0392101e-05
-0.00040467072
6.5671054e-05
-0.00041535256
6.0736609e-05
-0.00042513489
5.5594999e-05
-0.00043398228
5.0253618e-05
-0.00044186077
4.4721034e-05
-0.00044873815
3.9006991e-05
-0.00045458413
3.3122404e-05
-0.00045937054
2.7079336e-05
-0.00046307158
2.0890979e-05
-0.00046566393
1.4571611e-05
-0.00046712703
8.1365554e-06
-0.00046744316
1.6021319e-06
-0.00046659769
-5.0144142e-06
-0.00046457916
-1.1694956e-05
-0.00046137947
-1.842057e-05
-0.00045699399
-2.5171606e-05
-0.00045142165
-3.1927766e-05
-0.00044466507
-3.8668189e-05
-0.00043673063
-4.537154e-05
-0.00042762853
-5.2016099e-05
-0.00041737283
-5.8579862e-05
-0.00040598151
-6.5040634e-05
-0.00039347648
-7.1376139e-05
-0.00037988356
-7.7564119e-05
-0.00036523245
-8.3582448e-05
-0.00034955672
-8.9409241e-05
-0.00033289374
-9.5022969e-05
-0.00031528458
-0.00010040257
-0.00029677392
-0.00010552759
-0.00027740992
-0.00011037824
-0.00025724412
-0.00011493558
-0.0002363312
-0.00011918159
-0.00021472887
-0.00012309931
-0.00019249763
-0.00012667292
-0.00016970054
-0.00012988786
-0.00014640302
-0.00013273092
-0.00012267258
-0.00013519032
-9.8578527e-05
-0.00013725583
-7.4191711e-05
-0.00013891878
-4.9584226e-05
-0.00014017219
-2.4829102e-05
-0.00014101076
-0.00014143093
2.565145e-05
-0.00016708238
5.1226367e-05
-0.00016658567
7.6648549e-05
-0.00016559437
0.00010184245
-0.00016411268
0.00012673348
-0.00016214686
0.00015124838
-0.00015970522
0.00017531545
-0.00015679798
0.00019886488
-0.00015343729
0.00022182903
-0.00014963708
0.00024414269
-0.00014541298
0.00026574333
-0.00014078223
0.0002865713
-0.00013576355
0.00030657008
-0.00013037701
0.00032568643
-0.00012464394
0.00034387059
-0.00011858674
0.00036107641
-0.00011222879
0.00037726147
-0.0001055943
0.00039238718
-9.8708162e-05
0.0004064189
-9.1595838e-05
0.00041932596
-8.4283196e-05
0.00043108171
-7.6796388e-05
0.00044166357
-6.9161723e-05
0.000451053
-6.1405531e-05
0.00045923551
-5.3554045e-05
0.00046620059
-4.5633275e-05
0.00047194172
-3.7668895e-05
0.00047645624
-2.9686128e-05
0.00047974531
-2.1709639e-05
0.00048181379
-1.3763432e-05
0.00048267012
-5.8707477e-06
0.00048232623
1.9460273e-06
0.00048079734
9.6654458e-06
0.00047810185
1.7267098e-05
0.00047426116
2.4731669e-05
0.00046929947
3.204102e-05
0.00046324363
3.9178244e-05
0.0004561229
4.6127728e-05
0.00044796874
5.2875186e-05
0.00043881466
5.9407701e-05
0.00042869592
6.5713742e-05
0.00041764935
7.1783179e-05
0.00040571313
7.7607275e-05
0.00039292655
8.3178675e-05
0.00037932983
8.8491374e-05
0.00036496384
9.3540677e-05
0.00034986999
9.832314e-05
0.00033408994
0.00010283651
0.0003176655
0.00010707961
0.00030063844
0.00011105232
0.00028305032
0.00011475538
0.00026494237
0.00011819034
0.00024635543
0.00012135944
0.00022732978
0.00012426545
0.00020790514
0.00012691159
0.00018812057
0.00012930134
0.00016801451
0.00013143838
0.00014762471
0.00013332642
0.00012698828
0.0001349691
0.00010614173
0.00013636987
8.5121012e-05
0.00013753189
6.3961575e-05
0.00013845795
4.2698474e-05
0.00013915038
2.1366442e-05
0.00013961097
2.7908755e-13
0.00013984095
-2.1366442e-05
0.00013984095
-4.2698473e-05
0.00013961097
-6.3961575e-05
0.00013915038
-8.5121012e-05
0.00013845795
-0.00010614173
0.00013753189
-0.00012698828
0.00013636987
-0.00014762471
0.0001349691
-0.00016801451
0.00013332642
-0.00018812057
0.00013143838
-0.00020790514
0.00012930134
-0.00022732978
0.00012691159
-0.00024635543
0.00012426545
-0.00026494237
0.00012135944
-0.00028305032
0.00011819034
-0.00030063844
0.00011475538
-0.0003176655
0.00011105232
-0.00033408994
0.00010707961
-0.00034986999
0.00010283651
-0.00036496384
9.832314e-05
-0.00037932983
9.3540677e-05
-0.00039292655
8.8491374e-05
-0.00040571313
8.3178675e-05
-0.00041764935
7.7607275e-05
-0.00042869592
7.1783179e-05
-0.00043881466
6.5713743e-05
-0.00044796874
5.9407701e-05
-0.0004561229
5.2875186e-05
-0.00046324363
4.6127728e-05
-0.00046929947
3.9178245e-05
-0.00047426116
3.204102e-05
-0.00047810185
2.4731669e-05
-0.00048079734
1.7267098e-05
-0.00048232623
9.665446e-06
-0.00048267012
1.9460275e-06
-0.00048181379
-5.8707475e-06
-0.00047974531
-1.3763431e-05
-0.00047645624
-2.1709639e-05
-0.00047194172
-2.9686127e-05
-0.0004662006
-3.7668895e-05
-0.00045923551
-4.5633275e-05
-0.000451053
-5.3554045e-05
-0.00044166357
-6.1405531e-05
-0.00043108171
-6.9161723e-05
-0.00041932596
-7.6796388e-05
-0.0004064189
-8.4283196e-05
-0.00039238718
-9.1595838e-05
-0.00037726147
-9.8708161e-05
-0.00036107641
-0.00010559429
-0.0003438706
-0.00011222879
-0.00032568643
-0.00011858674
-0.00030657008
-0.00012464394
-0.0002865713
-0.00013037701
-0.00026574333
-0.00013576355
-0.00024414269
-0.00014078223
-0.00022182903
-0.00014541298
-0.00019886488
-0.00014963708
-0.00017531545
-0.00015343729
-0.00015124838
-0.00015679798
-0.00012673349
-0.00015970522
-0.00010184245
-0.00016214686
-7.6648549e-05
-0.00016411268
-5.1226368e-05
-0.00016559437
-2.565145e-05
-0.00016658567
-0.00016708238
2.6627196e-05
-0.00019370957
5.3174843e-05
-0.00019313332
7.9563737e-05
-0.00019198326
0.00010571535
-0.0001902643
0.00013155219
-0.0001879837
0.00015699809
-0.00018515112
0.00018197856
-0.00018177845
0.00020642108
-0.0001778798
0.00023025537
-0.00017347136
0.00025341369
-0.0001685713
0.00027583109
-0.00016319963
0.00029744565
-0.0001573781
0.00031819866
-0.00015113003
0.00033803488
-0.00014448015
0.00035690264
-0.0001374545
0.00037475404
-0.00013008019
0.00039154507
-0.00012238533
0.00040723571
-0.0001143988
0.00042179
-0.00010615013
0.00043517614
-9.7669334e-05
0.00044736649
-8.8986747e-05
0.00045833765
-8.013288e-05
0.00046807039
-7.1138274e-05
0.0004765497
-6.2033355e-05
0.00048376472
-5.2848292e-05
0.00048970869
-4.3612868e-05
0.00049437891
-3.4356346e-05
0.00049777662
-2.5107347e-05
0.00049990692
-1.5893728e-05
0.00050077864
-6.7424681e-06
0.00050040423
2.3204389e-06
0.00049879959
1.1270086e-05
0.00049598392
2.0082762e-05
0.00049197956
2.8736026e-05
0.00048681179
3.7208796e-05
0.00048050861
4.5481424e-05
0.00047310058
5.3535758e-05
0.00046462057
6.1355194e-05
0.00045510355
6.8924718e-05
0.00044458636
7.6230934e-05
0.00043310746
8.3262077e-05
0.00042070672
9.0008014e-05
0.00040742518
9.6460224e-05
0.00039330478
0.00010261177
0.00037838822
0.00010845724
0.00036271866
0.0001139927
0.00034633956
0.0001192156
0.00032929449
0.00012412469
0.00031162693
0.00012871988
0.00029338013
0.00013300218
0.00027459697
0.0001369735
0.00025531985
0.00014063656
0.00023559057
0.00014399473
0.00021545031
0.00014705185
0.0001949395
0.00014981214
0.00017409788
0.00015227999
0.00015296445
0.00015445985
0.0001315775
0.00015635605
0.00010997464
0.00015797273
8.8192878e-05
0.00015931365
6.6268677e-05
0.00016038215
4.4238056e-05
0.000161181
2.2136685e-05
0.00016171234
2.8483535e-13
0.00016197763
-2.2136685e-05
0.00016197763
-4.4238055e-05
0.00016171234
-6.6268677e-05
0.000161181
-8.8192878e-05
0.00016038215
-0.00010997464
0.00015931365
-0.0001315775
0.00015797273
-0.00015296445
0.00015635605
-0.00017409788
0.00015445985
-0.0001949395
0.00015227999
-0.0002154503
0.00014981214
-0.00023559057
0.00014705185
-0.00025531985
0.00014399473
-0.00027459697
0.00014063656
-0.00029338013
0.0001369735
-0.00031162693
0.00013300218
-0.00032929449
0.00012871988
-0.00034633956
0.00012412469
-0.00036271866
0.0001192156
-0.00037838822
0.0001139927
-0.00039330478
0.00010845724
-0.00040742518
0.00010261177
-0.00042070672
9.6460224e-05
-0.00043310746
9.0008014e-05
-0.00044458636
8.3262077e-05
-0.00045510355
7.6230934e-05
-0.00046462057
6.8924718e-05
-0.00047310058
6.1355194e-05
-0.00048050861
5.3535758e-05
-0.00048681179
4.5481424e-05
-0.00049197956
3.7208796e-05
-0.00049598392
2.8736026e-05
-0.00049879959
2.0082762e-05
-0.00050040423
1.1270086e-05
-0.00050077864
2.3204391e-06
-0.00049990692
-6.7424679e-06
-0.00049777662
-1.5893727e-05
-0.00049437891
-2.5107347e-05
-0.00048970869
-3.4356346e-05
-0.00048376472
-4.3612868e-05
-0.0004765497
-5.2848292e-05
-0.00046807039
-6.2033355e-05
-0.00045833765
-7.1138274e-05
-0.00044736649
-8.013288e-05
-0.00043517614
-8.8986746e-05
-0.00042179
-9.7669334e-05
-0.00040723571
-0.00010615013
-0.00039154507
-0.0001143988
-0.00037475404
-0.00012238533
-0.00035690264
-0.00013008019
-0.00033803488
-0.0001374545
-0.00031819866
-0.00014448015
-0.00029744565
-0.00015113003
-0.00027583109
-0.0001573781
-0.00025341369
-0.00016319963