/*--------------------------------*- C++ -*----------------------------------*\
| =========                 |                                                 |
| \\      /  F ield         | OpenFOAM: The Open Source CFD Toolbox           |
|  \\    /   O peration     | Version:  2306                                  |
|   \\  /    A nd           | Website:  www.openfoam.com                      |
|    \\/     M anipulation  |                                                 |
\*---------------------------------------------------------------------------*/
FoamFile
{
    version     2.0;
    format      ascii;
    arch        "LSB;label=32;scalar=64";
    class       volVectorField;
    location    "0.48";
    object      U;
}
// * * * * * * * * * * * * * * * * * * * * * * * * * * * * * * * * * * * * * //

dimensions      [0 1 -1 0 0 0 0];

internalField   nonuniform List<vector> 
51200
(
(2.6503201e-05 -2.6008897e-05 -6.1744208e-20)
(5.9592993e-05 -2.7716695e-05 -1.7801996e-21)
(9.5711414e-05 -2.6833865e-05 1.1217719e-20)
(0.00012977434 -2.6215128e-05 2.6911169e-21)
(0.00016347658 -2.5768847e-05 -8.8099226e-21)
(0.00019636968 -2.5407073e-05 3.1056539e-21)
(0.00022861186 -2.509898e-05 4.2500335e-21)
(0.00026026789 -2.4798806e-05 -8.9506854e-21)
(0.00029131679 -2.448571e-05 -2.5636504e-21)
(0.00032170357 -2.4150091e-05 2.1265715e-20)
(0.00035136032 -2.3787996e-05 3.103643e-20)
(0.00038021343 -2.3397825e-05 1.871041e-20)
(0.00040818814 -2.2980021e-05 3.1874102e-20)
(0.00043521315 -2.2535248e-05 1.8234789e-20)
(0.0004612206 -2.2064164e-05 5.0293789e-21)
(0.0004861493 -2.1568866e-05 1.918349e-20)
(0.00050994317 -2.1049914e-05 2.2042523e-20)
(0.00053254984 -2.0509228e-05 1.045173e-20)
(0.00055392116 -1.9947624e-05 -1.0570716e-20)
(0.00057401481 -1.9368253e-05 -8.3884212e-21)
(0.00059279644 -1.8772837e-05 1.4796084e-20)
(0.00061023324 -1.816191e-05 2.5900966e-20)
(0.00062630026 -1.7541432e-05 3.7334006e-20)
(0.00064097804 -1.6911198e-05 2.7433705e-20)
(0.00065425005 -1.6274613e-05 -3.1276574e-20)
(0.00066610559 -1.5633337e-05 -8.1750714e-20)
(0.00067653715 -1.4988293e-05 -7.0803447e-20)
(0.00068554379 -1.4341909e-05 -4.5433043e-20)
(0.00069313232 -1.3696967e-05 -7.9913382e-21)
(0.0006993133 -1.3053462e-05 8.3371309e-20)
(0.00070409404 -1.2411278e-05 7.0607654e-20)
(0.00070749331 -1.1775081e-05 -6.1782986e-20)
(0.00070953219 -1.114647e-05 -1.0668928e-19)
(0.00071024026 -1.0529376e-05 -2.9869761e-20)
(0.00070964772 -9.916915e-06 7.6086845e-20)
(0.00070778704 -9.3089784e-06 4.8714894e-20)
(0.00070470869 -8.6906065e-06 -1.0691072e-19)
(0.00070044457 -8.0939732e-06 -1.6501986e-19)
(0.00069502347 -7.5349134e-06 3.6154981e-20)
(0.00068849196 -7.0030271e-06 1.5593749e-19)
(0.00068091089 -6.4911907e-06 2.454483e-20)
(0.00067232739 -5.9652975e-06 -9.6133693e-21)
(0.00066277487 -5.4640407e-06 1.5182228e-19)
(0.00065230969 -4.9848805e-06 1.7652495e-19)
(0.00064099112 -4.5249483e-06 -1.9134246e-20)
(0.00062887465 -4.0915769e-06 -1.6144267e-19)
(0.00061599162 -3.6706303e-06 -2.2135201e-19)
(0.00060243751 -3.203895e-06 1.4596043e-20)
(0.00058829748 -2.7462816e-06 4.9627734e-20)
(0.00057360076 -2.3235877e-06 -2.5832283e-19)
(0.00055840138 -1.9147102e-06 7.4422816e-20)
(0.00054275226 -1.5352328e-06 3.0338589e-19)
(0.00052671454 -1.1768548e-06 1.4367476e-19)
(0.00051034167 -8.3658352e-07 1.2732458e-20)
(0.00049368485 -5.1105118e-07 -3.3144422e-19)
(0.00047680151 -2.1692126e-07 -2.5298115e-19)
(0.0004597435 6.9011615e-08 1.2097115e-19)
(0.00044256013 3.2530923e-07 8.7231525e-20)
(0.00042530593 5.6258518e-07 2.1124331e-20)
(0.00040801524 8.1017802e-07 2.4733545e-20)
(0.00039073332 1.0122709e-06 -2.3804782e-20)
(0.00037350833 1.2006501e-06 9.1344283e-20)
(0.0003563822 1.3696478e-06 -3.0434897e-20)
(0.00033939922 1.5257842e-06 -3.4419906e-19)
(0.00032258962 1.6659592e-06 -3.4920218e-19)
(0.0003059858 1.7926324e-06 1.4421855e-19)
(0.00028962193 1.9056293e-06 5.3737829e-19)
(0.00027352733 2.003751e-06 4.6455425e-21)
(0.00025772511 2.0869377e-06 -2.4321677e-19)
(0.0002422412 2.1593015e-06 8.1538237e-20)
(0.00022710164 2.2190438e-06 -5.5212272e-21)
(0.00021232169 2.2652979e-06 5.0377109e-21)
(0.00019791871 2.3021126e-06 9.0832741e-20)
(0.00018391151 2.3293223e-06 6.2686631e-20)
(0.00017031206 2.3468238e-06 9.4086533e-20)
(0.00015713068 2.3560911e-06 -9.4078207e-20)
(0.00014437734 2.3584071e-06 -1.4436131e-19)
(0.00013206286 2.3545427e-06 3.3018884e-20)
(0.00012018579 2.3421721e-06 9.3197188e-20)
(0.00010875156 2.3296823e-06 -1.1314444e-19)
(9.776961e-05 2.3131335e-06 -3.4064315e-19)
(8.7237013e-05 2.2928353e-06 1.8234267e-19)
(7.7153013e-05 2.2688328e-06 3.0498234e-19)
(6.7513347e-05 2.2416374e-06 -2.3528035e-20)
(5.8316768e-05 2.2135077e-06 6.2133448e-20)
(4.9560663e-05 2.1829707e-06 -1.0655582e-19)
(4.1239473e-05 2.1504989e-06 6.8981314e-20)
(3.334342e-05 2.1148015e-06 4.4212553e-20)
(2.586587e-05 2.0794077e-06 -2.8428043e-19)
(1.880154e-05 2.0424117e-06 -4.7255415e-20)
(1.2139664e-05 2.0046469e-06 -1.8161466e-19)
(5.8715643e-06 1.9661496e-06 -9.2613684e-20)
(-1.4002303e-08 1.9269834e-06 2.6180221e-19)
(-5.5268782e-06 1.8881175e-06 1.5784327e-19)
(-1.0676953e-05 1.8490958e-06 -3.722108e-20)
(-1.547605e-05 1.8100817e-06 -2.4897047e-19)
(-1.9935266e-05 1.7710826e-06 9.6983535e-20)
(-2.4065662e-05 1.7320066e-06 2.7065892e-19)
(-2.787824e-05 1.6927966e-06 3.9921649e-20)
(-3.1384084e-05 1.65353e-06 -1.4653586e-19)
(-3.4594451e-05 1.6142674e-06 -2.8081343e-19)
(-3.7520831e-05 1.5749541e-06 1.1284314e-19)
(-4.0175352e-05 1.5354175e-06 1.8718182e-19)
(-4.2570387e-05 1.4969424e-06 4.8549513e-20)
(-4.4717261e-05 1.4596158e-06 -6.4430234e-20)
(-4.6626473e-05 1.4238267e-06 -3.0720082e-19)
(-4.8308212e-05 1.3908563e-06 9.3551837e-20)
(-4.9770678e-05 1.3637888e-06 2.550761e-19)
(-5.1026388e-05 1.3484187e-06 5.2067225e-20)
(-5.2089223e-05 1.3333708e-06 3.837451e-20)
(-5.2968308e-05 1.3175015e-06 -2.4005022e-19)
(-5.3672599e-05 1.3010489e-06 -1.5923459e-19)
(-5.4211053e-05 1.2844014e-06 1.6629878e-19)
(-5.4592528e-05 1.2678686e-06 8.0109313e-20)
(-5.4825691e-05 1.251669e-06 1.0291649e-20)
(-5.4918943e-05 1.2359045e-06 -5.2096905e-20)
(-5.4880324e-05 1.2206079e-06 -1.6136397e-21)
(-5.4717367e-05 1.2056737e-06 9.8668086e-20)
(-5.4436673e-05 1.1907345e-06 -1.7982342e-20)
(-5.4040499e-05 1.1745596e-06 -3.9302928e-20)
(-5.3542262e-05 1.1485046e-06 -4.9077457e-20)
(-5.29546e-05 1.1227954e-06 2.4636735e-20)
(-5.2278497e-05 1.0986933e-06 7.8586815e-20)
(-5.1519062e-05 1.0762302e-06 -1.1573817e-20)
(-5.0681831e-05 1.0552306e-06 -4.990475e-20)
(-4.9772239e-05 1.0355167e-06 -8.9078599e-20)
(-4.8795492e-05 1.0169467e-06 2.4209914e-20)
(-4.7756543e-05 9.9941507e-07 1.0581625e-19)
(-4.6660089e-05 9.8283662e-07 2.2327889e-20)
(-4.5510576e-05 9.6714787e-07 -3.1439125e-20)
(-4.4312214e-05 9.52292e-07 -5.9527874e-20)
(-4.3068982e-05 9.3821992e-07 2.5369442e-20)
(-4.1784641e-05 9.2489347e-07 7.8989419e-20)
(-4.0462743e-05 9.122712e-07 -3.8151363e-21)
(-3.910664e-05 9.0032093e-07 -6.4336437e-20)
(-3.7719487e-05 8.8901374e-07 -3.5516822e-20)
(-3.6304271e-05 8.7830817e-07 3.4122352e-20)
(-3.4863797e-05 8.6818828e-07 2.7369629e-20)
(-3.3400707e-05 8.5861555e-07 8.3681852e-21)
(-3.1917501e-05 8.4957087e-07 8.4540238e-22)
(-3.0416523e-05 8.4102334e-07 -2.5593413e-20)
(-2.8899984e-05 8.3295009e-07 1.5695961e-20)
(-2.7369983e-05 8.2532863e-07 2.0039918e-20)
(-2.5828503e-05 8.1813148e-07 -1.3926082e-20)
(-2.4277427e-05 8.1133808e-07 -8.5407755e-21)
(-2.2718559e-05 8.0492842e-07 -3.6277095e-20)
(-2.1153651e-05 7.9888584e-07 2.3291155e-22)
(-1.9584442e-05 7.9320816e-07 4.948348e-20)
(-1.8012708e-05 7.8791789e-07 7.549089e-21)
(-1.6440383e-05 7.8308837e-07 -1.8803265e-20)
(-1.4869773e-05 7.789166e-07 -2.1164307e-20)
(-1.3303937e-05 7.7583281e-07 1.8719579e-21)
(-1.1747406e-05 7.7473391e-07 2.0939688e-20)
(-1.0207376e-05 7.7733066e-07 5.4462322e-21)
(-8.69538e-06 7.866562e-07 -1.4102227e-21)
(-7.2285081e-06 8.0727359e-07 -6.1327601e-21)
(-5.8261991e-06 8.4132333e-07 -3.5289196e-21)
(-4.4901278e-06 8.679346e-07 4.4934382e-21)
(-3.1568274e-06 7.5042144e-07 3.0740756e-21)
(-1.2758953e-06 2.0228897e-07 6.5282125e-22)
(3.7664336e-05 -0.00012961411 1.6291454e-20)
(8.1970403e-05 -0.00012619336 -6.2826206e-21)
(0.00013060968 -0.00012249271 -1.4237877e-20)
(0.00017624194 -0.00011899076 -2.2471316e-20)
(0.00022100263 -0.00011613406 -2.3825218e-20)
(0.00026431057 -0.00011382924 -9.6189432e-21)
(0.00030639017 -0.00011183985 -1.4178491e-20)
(0.00034734707 -0.00010997098 -6.1720489e-21)
(0.0003871615 -0.00010810264 2.2347028e-20)
(0.00042575883 -0.00010616433 6.5523522e-20)
(0.00046303861 -0.00010411931 7.138393e-20)
(0.00049888645 -0.00010194775 8.6490187e-20)
(0.00053318305 -9.9642865e-05 8.4805224e-20)
(0.00056581341 -9.7202921e-05 1.6446765e-20)
(0.00059666675 -9.4629948e-05 3.8601565e-20)
(0.00062564479 -9.1935298e-05 6.3208095e-20)
(0.00065265805 -8.9121891e-05 4.831704e-20)
(0.00067762377 -8.6197802e-05 2.8060485e-20)
(0.00070046642 -8.3169642e-05 -3.216428e-20)
(0.00072112141 -8.0052463e-05 -1.0938812e-20)
(0.00073954038 -7.6855898e-05 2.8971517e-20)
(0.00075567419 -7.3583718e-05 4.6164286e-20)
(0.00076949203 -7.025632e-05 9.7698975e-20)
(0.00078097394 -6.6874368e-05 1.2849229e-19)
(0.00079010366 -6.3449771e-05 -7.002769e-20)
(0.00079687887 -5.9988829e-05 -3.1575751e-19)
(0.00080130032 -5.6504332e-05 -2.0567017e-19)
(0.00080338085 -5.3008075e-05 -9.1071687e-20)
(0.00080314956 -4.9518894e-05 -4.7777852e-20)
(0.00080064275 -4.6032544e-05 2.8832292e-19)
(0.00079588507 -4.2560694e-05 2.361209e-19)
(0.0007889245 -3.9112352e-05 -2.6208351e-19)
(0.0007798175 -3.5699185e-05 -3.9460942e-19)
(0.00076863649 -3.2351178e-05 -4.049556e-20)
(0.00075545472 -2.9028611e-05 3.8986204e-19)
(0.00074035523 -2.5781476e-05 1.8310244e-19)
(0.00072339947 -2.2537813e-05 -3.0366571e-19)
(0.00070462937 -1.9385968e-05 -4.1922966e-19)
(0.00068416651 -1.6327619e-05 2.4327358e-20)
(0.00066213455 -1.3387017e-05 1.6059224e-19)
(0.00063866406 -1.0565177e-05 -1.8812137e-19)
(0.00061380394 -7.9180229e-06 9.4809574e-20)
(0.00058761237 -5.3334724e-06 8.1771484e-19)
(0.00056023938 -2.9037445e-06 1.1469e-18)
(0.0005317853 -5.6421632e-07 -1.6265711e-19)
(0.00050237363 1.6278779e-06 -1.7053669e-18)
(0.0004721564 3.7159257e-06 -8.6687555e-19)
(0.00044120943 5.7271253e-06 5.7364802e-19)
(0.00040957889 7.6208446e-06 6.8923903e-19)
(0.00037742382 9.3943238e-06 -2.9691531e-19)
(0.00034486005 1.1043867e-05 -5.8591491e-19)
(0.00031197386 1.2571217e-05 8.2714934e-19)
(0.00027889377 1.3976349e-05 9.2685495e-19)
(0.00024570959 1.5259731e-05 -2.6116293e-19)
(0.0002124917 1.6424753e-05 -6.4048492e-19)
(0.00017936175 1.7474695e-05 -6.3811414e-19)
(0.00014640541 1.8410286e-05 -1.469691e-19)
(0.00011369512 1.9235081e-05 4.9698651e-19)
(8.1371339e-05 1.9951624e-05 2.2214662e-19)
(4.9429309e-05 2.0563956e-05 -4.9966671e-19)
(1.7948218e-05 2.1075557e-05 -1.9468648e-19)
(-1.2946692e-05 2.148904e-05 6.4223369e-19)
(-4.3214612e-05 2.1812422e-05 8.0892669e-20)
(-7.2785928e-05 2.204729e-05 -9.6755109e-19)
(-0.000101618 2.219539e-05 -6.0359425e-19)
(-0.00012965915 2.2265278e-05 6.0814999e-19)
(-0.00015686184 2.2260579e-05 9.1116835e-19)
(-0.0001831848 2.2183454e-05 1.1339763e-19)
(-0.00020859294 2.2037479e-05 -5.7152412e-19)
(-0.00023305387 2.1832475e-05 -9.4505033e-19)
(-0.00025653872 2.1569338e-05 3.9735987e-20)
(-0.00027902626 2.1250446e-05 7.9294682e-19)
(-0.00030049771 2.0885033e-05 1.8361307e-19)
(-0.00032093722 2.0475966e-05 1.5767416e-19)
(-0.00034033456 2.0026384e-05 1.5189596e-19)
(-0.00035868296 1.9541395e-05 1.3810662e-19)
(-0.00037597901 1.9025662e-05 -2.1658369e-19)
(-0.00039222205 1.848318e-05 -6.6903557e-19)
(-0.00040741737 1.7913537e-05 -1.0764039e-19)
(-0.00042157119 1.7330164e-05 2.7604978e-19)
(-0.00043469111 1.6730628e-05 5.3203812e-20)
(-0.00044679002 1.6118305e-05 1.0385708e-19)
(-0.00045788211 1.5495919e-05 4.8633564e-20)
(-0.00046798426 1.4866398e-05 -5.0514977e-19)
(-0.00047711439 1.4234609e-05 -6.7661544e-20)
(-0.00048529229 1.3600896e-05 4.2029769e-19)
(-0.00049253988 1.2967797e-05 -6.4840936e-20)
(-0.00049888102 1.2335613e-05 3.3005133e-19)
(-0.00050434012 1.1709947e-05 1.2336972e-19)
(-0.00050894219 1.1090102e-05 -6.7308279e-19)
(-0.00051271394 1.0478332e-05 -4.6085535e-19)
(-0.00051568251 9.8758163e-06 4.5721766e-20)
(-0.00051787595 9.2836395e-06 3.557155e-19)
(-0.00051932234 8.7038213e-06 -1.7282928e-20)
(-0.00052004996 8.1365475e-06 -9.4097876e-20)
(-0.00052008761 7.582646e-06 8.7870505e-20)
(-0.0005194639 7.0426795e-06 2.1458744e-19)
(-0.00051820701 6.5170316e-06 2.9211745e-19)
(-0.00051634463 6.0060055e-06 -3.0495097e-19)
(-0.00051390439 5.510596e-06 -4.6718334e-19)
(-0.00051091404 5.0310594e-06 2.1745482e-21)
(-0.00050740126 4.5686343e-06 3.6231662e-19)
(-0.00050339234 4.1257933e-06 2.8304935e-19)
(-0.0004989145 3.7029727e-06 -1.4316357e-19)
(-0.00049399456 3.2946637e-06 -2.7670066e-19)
(-0.00048865592 2.9014147e-06 -1.449877e-19)
(-0.00048291991 2.5233096e-06 2.1194992e-19)
(-0.00047680403 2.158172e-06 4.7318608e-19)
(-0.00047034832 1.7954623e-06 4.4206369e-20)
(-0.00046358502 1.4474374e-06 -2.9269668e-19)
(-0.00045652275 1.1159137e-06 -1.6387553e-19)
(-0.00044917993 8.009088e-07 -1.4659667e-19)
(-0.00044157616 5.0200515e-07 2.5728033e-19)
(-0.00043373065 2.1867782e-07 3.8772131e-19)
(-0.00042566195 -4.9574709e-08 -1.5012122e-19)
(-0.00041738785 -3.0322761e-07 -3.689197e-19)
(-0.0004089253 -5.4274188e-07 -9.358347e-20)
(-0.0004002905 -7.6860115e-07 3.282041e-19)
(-0.00039149896 -9.8156905e-07 8.8209885e-20)
(-0.00038256867 -1.1834142e-06 -4.0629321e-19)
(-0.00037350846 -1.3808994e-06 -1.2073702e-19)
(-0.00036432767 -1.5682482e-06 3.9236801e-19)
(-0.00035504354 -1.7447429e-06 3.1318469e-19)
(-0.0003456683 -1.9106012e-06 -2.2734691e-19)
(-0.00033621305 -2.0662867e-06 -4.7818744e-19)
(-0.00032668813 -2.2123076e-06 -3.133726e-20)
(-0.00031710332 -2.3491561e-06 3.6074005e-19)
(-0.00030746779 -2.4773098e-06 1.9429455e-19)
(-0.00029779017 -2.5972125e-06 -7.2279078e-20)
(-0.00028807854 -2.7092872e-06 -1.9153368e-19)
(-0.00027834045 -2.8139369e-06 -8.67479e-20)
(-0.00026858296 -2.9115465e-06 2.1299439e-19)
(-0.00025881265 -3.0024832e-06 2.4577908e-19)
(-0.00024903561 -3.087092e-06 -2.5858281e-20)
(-0.00023925754 -3.1657069e-06 -2.2983089e-19)
(-0.00022948368 -3.2386389e-06 -6.7724736e-20)
(-0.00021971891 -3.3061984e-06 1.2045929e-19)
(-0.00020996773 -3.3686516e-06 5.6389652e-20)
(-0.00020023427 -3.4262824e-06 1.4717044e-21)
(-0.00019052236 -3.4793253e-06 -2.7612905e-20)
(-0.00018083551 -3.5280269e-06 -3.5131423e-20)
(-0.00017117694 -3.5725904e-06 -7.0665512e-21)
(-0.00016154965 -3.6132062e-06 3.8532912e-20)
(-0.00015195636 -3.6500467e-06 -1.796241e-20)
(-0.00014239962 -3.6832433e-06 -8.3030265e-20)
(-0.00013288181 -3.7128969e-06 -2.3807952e-20)
(-0.00012340519 -3.7390454e-06 7.3129314e-20)
(-0.00011397197 -3.7616302e-06 8.2592672e-20)
(-0.00010458443 -3.7804489e-06 -2.7260743e-20)
(-9.5245078e-05 -3.7950321e-06 -8.0428202e-20)
(-8.5956895e-05 -3.8044335e-06 -5.0472239e-21)
(-7.672381e-05 -3.8068956e-06 5.4890641e-20)
(-6.7551297e-05 -3.7993275e-06 3.2167075e-20)
(-5.844696e-05 -3.7767298e-06 -9.7548569e-21)
(-4.9420133e-05 -3.7324032e-06 -1.8871783e-20)
(-4.0478637e-05 -3.6619947e-06 -2.4844807e-21)
(-3.1617875e-05 -3.5799287e-06 1.2358938e-20)
(-2.2794204e-05 -3.5674983e-06 1.3767721e-20)
(-1.3908272e-05 -3.8676576e-06 8.2574172e-21)
(-4.7115984e-06 -4.8491258e-06 7.8887945e-21)
(2.9237842e-05 -0.00023461121 2.9774031e-20)
(6.334155e-05 -0.00022710739 -1.125234e-20)
(0.00010148398 -0.00022034409 -6.2691441e-20)
(0.00013715522 -0.00021342864 -6.1946858e-20)
(0.0001719958 -0.00020760484 -1.4554643e-20)
(0.00020538317 -0.00020274303 -3.1620744e-20)
(0.00023742108 -0.00019843973 -4.0792925e-20)
(0.00026815615 -0.00019436045 5.4126955e-21)
(0.00029754556 -0.00019028251 4.3965711e-20)
(0.00032551482 -0.00018606853 7.7461131e-20)
(0.00035197001 -0.00018164392 1.0528707e-19)
(0.00037680297 -0.00017696552 1.072755e-19)
(0.00039989888 -0.00017201656 9.0669791e-20)
(0.00042114596 -0.00016678951 7.9925248e-20)
(0.00044042878 -0.00016130381 1.031607e-19)
(0.00045765405 -0.00015556179 8.5902452e-20)
(0.00047274102 -0.00014958271 6.2609218e-20)
(0.00048560809 -0.00014337864 2.852281e-20)
(0.00049617738 -0.00013698486 -1.9291731e-20)
(0.00050439069 -0.00013038923 8.8753386e-21)
(0.00051021582 -0.00012365221 5.7771489e-20)
(0.00051360348 -0.00011679287 6.5944888e-20)
(0.00051453572 -0.0001098132 9.4519108e-20)
(0.00051300986 -0.00010274581 4.6878822e-20)
(0.00050901811 -9.5620269e-05 -1.503987e-19)
(0.00050256759 -8.8421322e-05 -1.5818219e-19)
(0.00049366851 -8.1228378e-05 -6.7370793e-20)
(0.00048234634 -7.4000366e-05 -1.13156e-19)
(0.00046866156 -6.6843178e-05 -1.4906431e-19)
(0.00045267077 -5.9715149e-05 1.0648982e-19)
(0.00043441162 -5.2662576e-05 1.8735201e-19)
(0.00041395295 -4.5624144e-05 -2.0427525e-19)
(0.00039135038 -3.8782033e-05 -3.0972047e-19)
(0.00036674039 -3.2047652e-05 -9.384366e-20)
(0.00034019058 -2.5455653e-05 2.3015333e-19)
(0.00031183321 -1.9039305e-05 3.0260967e-19)
(0.00028174706 -1.2879938e-05 -7.194825e-20)
(0.00024996095 -6.9192942e-06 -1.8838272e-19)
(0.0002166346 -1.139443e-06 -1.6554834e-19)
(0.00018189149 4.431534e-06 -3.7659435e-19)
(0.00014583114 9.7727045e-06 -2.4265106e-19)
(0.00010868848 1.4821518e-05 4.8674287e-19)
(7.0530901e-05 1.9628269e-05 8.1858012e-19)
(3.1444808e-05 2.4176234e-05 6.2040852e-19)
(-8.406325e-06 2.8467545e-05 -1.7043517e-19)
(-4.8908996e-05 3.2498285e-05 -1.4174863e-18)
(-8.9874315e-05 3.6260538e-05 -6.0265289e-19)
(-0.00013121874 3.9724253e-05 3.913815e-19)
(-0.00017282271 4.2905353e-05 6.2041547e-19)
(-0.00021455382 4.5836152e-05 6.9933764e-19)
(-0.00025628659 4.8485321e-05 -6.4368479e-19)
(-0.00029790377 5.0877633e-05 -2.1724251e-19)
(-0.00033928431 5.3004727e-05 6.5432146e-19)
(-0.00038031768 5.486662e-05 -8.4873948e-20)
(-0.00042089844 5.646699e-05 -1.7494096e-19)
(-0.00046091912 5.7833666e-05 -2.5538177e-19)
(-0.00050028089 5.8944231e-05 -2.6076145e-19)
(-0.00053889068 5.9832346e-05 2.8518076e-19)
(-0.00057665367 6.049279e-05 4.7739204e-20)
(-0.00061350015 6.0902091e-05 -5.5283017e-19)
(-0.00064935292 6.113475e-05 -1.2563713e-19)
(-0.0006841327 6.1164044e-05 3.8020821e-19)
(-0.00071777403 6.1011312e-05 -1.227266e-19)
(-0.00075021431 6.0676168e-05 -2.602738e-19)
(-0.00078140395 6.0170107e-05 3.8250082e-19)
(-0.00081129619 5.9506129e-05 3.4118041e-19)
(-0.00083984856 5.8694946e-05 -2.5353026e-19)
(-0.00086702535 5.7746576e-05 -2.768479e-19)
(-0.00089279752 5.6671535e-05 -1.0170064e-19)
(-0.00091714021 5.548218e-05 -4.5576367e-19)
(-0.00094003334 5.4187826e-05 -1.3827878e-19)
(-0.00096146417 5.2798133e-05 2.6463833e-19)
(-0.00098142389 5.1324538e-05 4.7077303e-20)
(-0.00099990768 4.9776329e-05 2.9095033e-19)
(-0.0010169163 4.816252e-05 2.1131847e-19)
(-0.0010324549 4.6492368e-05 3.439715e-19)
(-0.0010465324 4.4774658e-05 2.2239562e-20)
(-0.0010591613 4.3017573e-05 -8.2961893e-19)
(-0.0010703594 4.1228177e-05 -2.5157674e-19)
(-0.0010801464 3.941616e-05 5.9488831e-19)
(-0.0010885443 3.7587644e-05 2.4567202e-19)
(-0.0010955795 3.5749539e-05 -5.4560315e-19)
(-0.0011012806 3.3908374e-05 -4.0763146e-19)
(-0.0011056786 3.2070312e-05 -2.2032234e-19)
(-0.0011088058 3.024136e-05 -1.4698718e-19)
(-0.0011106967 2.8426362e-05 2.1216649e-19)
(-0.0011113874 2.6630016e-05 -3.5771908e-20)
(-0.0011109158 2.4856454e-05 2.5678268e-19)
(-0.0011093203 2.3110139e-05 5.5538412e-19)
(-0.0011066402 2.1394313e-05 -2.6947683e-19)
(-0.001102916 1.9712169e-05 -5.0500555e-19)
(-0.0010981882 1.8066506e-05 -1.7884094e-20)
(-0.0010924981 1.6459798e-05 1.4370961e-19)
(-0.0010858867 1.4894388e-05 -1.8266009e-19)
(-0.001078395 1.3371926e-05 2.4013174e-20)
(-0.0010700639 1.1893775e-05 4.6018916e-19)
(-0.0010609342 1.0460682e-05 1.4255962e-20)
(-0.0010510458 9.0725816e-06 -2.5169213e-19)
(-0.0010404373 7.7286922e-06 -3.4812331e-19)
(-0.0010291469 6.430998e-06 -1.2593458e-19)
(-0.0010172125 5.1801163e-06 3.8504099e-19)
(-0.0010046692 3.9783121e-06 2.5583876e-19)
(-0.00099155539 2.8227402e-06 1.8562985e-20)
(-0.0009779156 1.7109942e-06 -2.9112193e-19)
(-0.00096378409 6.4794675e-07 -7.9822372e-20)
(-0.00094918816 -3.683401e-07 3.509654e-19)
(-0.00093416231 -1.3413902e-06 9.0319615e-20)
(-0.00091874626 -2.2774199e-06 1.3985646e-20)
(-0.000902958 -3.1872996e-06 -7.9115012e-20)
(-0.00088681824 -4.0564092e-06 -2.6704987e-19)
(-0.00087036642 -4.8826622e-06 2.6818184e-20)
(-0.00085363096 -5.6666568e-06 1.0430534e-19)
(-0.00083663774 -6.4097023e-06 9.8289591e-20)
(-0.00081941125 -7.1132656e-06 2.3493591e-19)
(-0.00080197486 -7.7787953e-06 -9.098994e-20)
(-0.00078435083 -8.4076612e-06 -3.6518336e-19)
(-0.00076656038 -9.0011999e-06 -1.7187558e-19)
(-0.00074862371 -9.5606593e-06 1.3997287e-19)
(-0.00073056036 -1.0087322e-05 1.1175573e-19)
(-0.0007123896 -1.0582421e-05 -9.1470368e-20)
(-0.0006941275 -1.1044091e-05 3.1236548e-20)
(-0.00067578868 -1.1478175e-05 1.7154454e-19)
(-0.00065738884 -1.188617e-05 6.9896051e-20)
(-0.00063894248 -1.2269148e-05 -1.8489526e-19)
(-0.00062046301 -1.2628158e-05 -2.1586127e-19)
(-0.00060196292 -1.2964267e-05 9.1279386e-20)
(-0.00058345382 -1.327854e-05 2.0345514e-19)
(-0.00056494653 -1.3572062e-05 1.0217634e-19)
(-0.00054645108 -1.3845869e-05 -8.1834685e-20)
(-0.00052797679 -1.4100985e-05 -8.9324526e-20)
(-0.00050953224 -1.4338403e-05 3.453578e-20)
(-0.00049112538 -1.4559067e-05 6.435851e-20)
(-0.00047276349 -1.4763905e-05 1.1595708e-19)
(-0.00045445326 -1.4953792e-05 7.9735541e-20)
(-0.0004362008 -1.5129568e-05 -4.7754568e-20)
(-0.00041801167 -1.5292042e-05 -8.3426414e-20)
(-0.00039989092 -1.5441968e-05 -6.5778017e-21)
(-0.00038184311 -1.5580076e-05 3.064482e-20)
(-0.00036387234 -1.5707052e-05 -8.6949804e-21)
(-0.0003459823 -1.5823528e-05 -1.6851658e-20)
(-0.00032817629 -1.5930111e-05 -9.5765161e-21)
(-0.00031045722 -1.6027343e-05 -4.9023519e-20)
(-0.00029282768 -1.6115728e-05 8.7352077e-21)
(-0.00027528996 -1.6195705e-05 1.9355623e-20)
(-0.0002578461 -1.6267632e-05 -2.7759591e-20)
(-0.0002404979 -1.6331801e-05 1.7820293e-20)
(-0.00022324703 -1.6388353e-05 1.6841789e-20)
(-0.00020609503 -1.6437252e-05 2.104101e-21)
(-0.00018904346 -1.6478173e-05 2.1217332e-21)
(-0.00017209401 -1.6510342e-05 -1.9316086e-21)
(-0.00015524861 -1.6532256e-05 3.4245953e-20)
(-0.0001385096 -1.6541368e-05 3.111189e-20)
(-0.00012187962 -1.6533789e-05 4.8913842e-21)
(-0.000105361 -1.6504574e-05 -1.7433628e-20)
(-8.8954305e-05 -1.6450187e-05 -5.3106336e-21)
(-7.2654696e-05 -1.6377241e-05 1.9986004e-20)
(-5.6444275e-05 -1.6325634e-05 1.1190858e-20)
(-4.0279344e-05 -1.6418745e-05 1.3148031e-20)
(-2.4102245e-05 -1.6931553e-05 2.173555e-20)
(-7.9773464e-06 -1.8178607e-05 2.881035e-20)
(1.6322345e-05 -0.00029692308 6.0250272e-20)
(3.6121914e-05 -0.00028823919 -1.004296e-19)
(5.9031293e-05 -0.00027995719 -1.3492194e-19)
(8.056771e-05 -0.00027120801 -1.2421531e-19)
(0.00010159907 -0.00026347969 -1.518163e-19)
(0.00012149196 -0.00025666879 -1.346134e-19)
(0.0001401377 -0.00025039096 -9.2484899e-20)
(0.00015748746 -0.00024429042 -1.9787237e-21)
(0.00017345125 -0.00023811803 5.5917244e-20)
(0.00018794488 -0.00023170854 1.0360244e-19)
(0.00020088584 -0.00022497431 1.3179993e-19)
(0.00021218224 -0.000217857 9.8667254e-20)
(0.00022173693 -0.00021034602 7.4773057e-20)
(0.00022944052 -0.00020241602 1.2391102e-19)
(0.00023520465 -0.00019411886 9.9715685e-20)
(0.00023895465 -0.00018543986 5.6175352e-20)
(0.00024061535 -0.00017641924 7.6432406e-20)
(0.0002401084 -0.00016706085 6.6499796e-20)
(0.00023740103 -0.00015745526 5.6375014e-20)
(0.00023241983 -0.00014756584 3.6424668e-20)
(0.00022511127 -0.00013746404 6.504349e-20)
(0.00021550248 -0.00012720684 7.2263705e-20)
(0.00020357198 -0.00011679566 -3.7472796e-20)
(0.00018929732 -0.00010628251 -7.8445531e-20)
(0.00017273284 -9.570356e-05 7.2035457e-20)
(0.00015385168 -8.5096672e-05 3.6187684e-20)
(0.00013271035 -7.4496209e-05 -2.2836161e-19)
(0.00010931844 -6.3934773e-05 -1.0983133e-19)
(8.3742251e-05 -5.3452407e-05 9.0087219e-20)
(5.6102891e-05 -4.3079413e-05 4.1005035e-20)
(2.6477904e-05 -3.2852073e-05 -1.7583113e-19)
(-5.1934515e-06 -2.2788528e-05 -2.1848699e-19)
(-3.8785597e-05 -1.2948476e-05 1.2088312e-19)
(-7.405337e-05 -3.325198e-06 1.8430741e-19)
(-0.00011100986 6.0030361e-06 -1.5151217e-19)
(-0.00014958564 1.5051263e-05 -3.0954536e-19)
(-0.00018958865 2.3701194e-05 4.6011178e-20)
(-0.00023085032 3.2012923e-05 2.2134471e-19)
(-0.00027330275 3.9974859e-05 -2.2312712e-19)
(-0.000316827 4.758902e-05 -2.6878259e-19)
(-0.00036129914 5.4835193e-05 -2.0990206e-20)
(-0.00040656643 6.1740547e-05 1.4731539e-19)
(-0.00045249623 6.8184723e-05 2.7008781e-19)
(-0.00049895788 7.4253022e-05 1.5272371e-19)
(-0.00054581233 7.9874282e-05 4.2005112e-20)
(-0.00059291915 8.5101142e-05 -3.1517397e-19)
(-0.00064012765 8.9888373e-05 -2.6178869e-19)
(-0.0006873129 9.4234731e-05 1.2353503e-19)
(-0.00073434914 9.8142572e-05 2.7499788e-19)
(-0.00078110478 0.00010162171 4.9809097e-19)
(-0.00082745222 0.00010467 -4.5206593e-21)
(-0.00087327055 0.00010729758 -5.3468376e-19)
(-0.00091843944 0.00010950963 4.9186314e-21)
(-0.00096284686 0.00011131414 2.7938937e-19)
(-0.0010063861 0.00011272139 -6.2743273e-20)
(-0.0010489527 0.00011374553 -2.7715315e-19)
(-0.0010904491 0.00011439502 -2.0539378e-19)
(-0.0011307847 0.00011468637 6.4877029e-20)
(-0.0011698727 0.00011463131 9.6532928e-21)
(-0.001207639 0.000114241 -2.5810056e-19)
(-0.0012440111 0.00011354113 -9.3620823e-21)
(-0.0012789206 0.00011254434 2.546328e-19)
(-0.0013123077 0.00011126952 1.4526331e-20)
(-0.0013441185 0.00010973099 -1.1548402e-19)
(-0.0013743083 0.00010794551 5.8949715e-20)
(-0.0014028378 0.0001059314 1.5005539e-19)
(-0.0014296736 0.0001037063 -1.8727232e-19)
(-0.001454789 0.00010128745 -2.920159e-19)
(-0.0014781637 9.8692343e-05 -1.116656e-19)
(-0.0014997829 9.5938957e-05 -1.0267782e-19)
(-0.001519637 9.3043862e-05 3.8993047e-20)
(-0.0015377231 9.002344e-05 5.5310568e-20)
(-0.0015540429 8.6894469e-05 -1.1388037e-19)
(-0.001568603 8.3672536e-05 -8.9379882e-20)
(-0.0015814148 8.0372565e-05 2.2509583e-19)
(-0.0015924947 7.7009148e-05 3.9385393e-19)
(-0.0016018629 7.3596196e-05 -2.5674694e-19)
(-0.0016095434 7.014681e-05 -6.0285301e-19)
(-0.0016155646 6.6673284e-05 2.3027878e-22)
(-0.0016199577 6.3188362e-05 1.5501972e-19)
(-0.0016227565 5.9702826e-05 -2.170293e-19)
(-0.0016239982 5.6227042e-05 -2.9807742e-19)
(-0.0016237223 5.2770801e-05 -2.3586321e-20)
(-0.0016219707 4.9343249e-05 1.6624435e-19)
(-0.0016187866 4.5952939e-05 5.3690802e-20)
(-0.0016142152 4.2607355e-05 -1.0390198e-19)
(-0.0016083029 3.9313357e-05 -2.9440364e-19)
(-0.0016010975 3.6077136e-05 -1.2781187e-19)
(-0.0015926475 3.2904561e-05 3.5108853e-19)
(-0.001583002 2.9800493e-05 3.4568011e-19)
(-0.0015722105 2.6769311e-05 -1.1080979e-19)
(-0.0015603229 2.381481e-05 -3.8419231e-19)
(-0.0015473889 2.0940179e-05 -1.4303557e-19)
(-0.0015334584 1.8148042e-05 1.8306197e-19)
(-0.0015185809 1.5440183e-05 2.2331467e-19)
(-0.001502806 1.2817847e-05 7.7779319e-20)
(-0.0014861827 1.0281849e-05 -2.2088127e-19)
(-0.0014687594 7.8326459e-06 -1.7858397e-19)
(-0.0014505793 5.4624007e-06 -1.3306616e-20)
(-0.0014316858 3.1871685e-06 1.6396243e-21)
(-0.0014121226 1.0051448e-06 2.0371903e-19)
(-0.0013919368 -1.0900373e-06 1.000027e-19)
(-0.0013711746 -3.1027036e-06 -1.21135e-19)
(-0.00134987 -5.0345529e-06 1.6766188e-20)
(-0.0013280631 -6.8795807e-06 2.29454e-19)
(-0.0013057988 -8.6397778e-06 1.4150768e-19)
(-0.001283115 -1.0317761e-05 -8.6805204e-20)
(-0.0012600484 -1.191479e-05 -1.1318707e-19)
(-0.0012366291 -1.3425615e-05 -8.105725e-20)
(-0.0012128872 -1.4862658e-05 -1.3601289e-19)
(-0.0011888567 -1.6228633e-05 -2.4509092e-20)
(-0.0011645688 -1.7525301e-05 1.0884376e-19)
(-0.0011400525 -1.8754493e-05 7.5552126e-20)
(-0.0011153356 -1.9918228e-05 9.9159177e-20)
(-0.001090444 -2.1018674e-05 1.8086611e-21)
(-0.0010654026 -2.2058098e-05 -1.4710249e-19)
(-0.0010402346 -2.3038848e-05 -1.7679e-19)
(-0.0010149625 -2.3963288e-05 -5.2952163e-20)
(-0.0009896072 -2.4833783e-05 6.6877094e-20)
(-0.0009641888 -2.5652386e-05 1.1349694e-19)
(-0.00093872547 -2.6420303e-05 5.6896585e-20)
(-0.00091323412 -2.7140443e-05 -6.4671089e-20)
(-0.00088773102 -2.7815229e-05 -2.9374462e-20)
(-0.00086223145 -2.8446897e-05 6.6864009e-20)
(-0.00083674958 -2.9037545e-05 9.0269357e-20)
(-0.00081129859 -2.9589224e-05 3.1602445e-20)
(-0.00078589062 -3.0103905e-05 -3.6311749e-20)
(-0.00076053693 -3.0583545e-05 -5.7180488e-21)
(-0.00073524788 -3.103e-05 -5.0027391e-21)
(-0.00071003298 -3.1445088e-05 4.0630888e-20)
(-0.00068490094 -3.1830562e-05 6.6653437e-20)
(-0.00065985969 -3.2188102e-05 7.3124486e-21)
(-0.00063491647 -3.251932e-05 3.2510982e-20)
(-0.00061007779 -3.2825779e-05 4.6000337e-20)
(-0.00058534954 -3.3108947e-05 -4.3044935e-21)
(-0.00056073696 -3.3370247e-05 -5.6061896e-20)
(-0.00053624473 -3.3611015e-05 -2.7704726e-20)
(-0.00051187699 -3.3832539e-05 -1.084422e-20)
(-0.00048763735 -3.4036018e-05 -1.8175101e-20)
(-0.00046352895 -3.42226e-05 -5.7516105e-21)
(-0.00043955449 -3.4393335e-05 1.358348e-20)
(-0.00041571626 -3.4549221e-05 -3.2343939e-21)
(-0.00039201617 -3.4691166e-05 4.7551e-21)
(-0.0003684558 -3.4819988e-05 6.9031961e-21)
(-0.00034503639 -3.4936382e-05 9.0806546e-21)
(-0.00032175897 -3.5040937e-05 2.6562388e-20)
(-0.00029862431 -3.513404e-05 -1.5920528e-20)
(-0.00027563299 -3.5215847e-05 -7.9749415e-21)
(-0.00025278545 -3.5286129e-05 3.3052616e-20)
(-0.00023008203 -3.5344138e-05 4.316355e-20)
(-0.00020752287 -3.5388343e-05 2.7921855e-20)
(-0.0001851078 -3.5416246e-05 7.6900301e-21)
(-0.00016283587 -3.5424463e-05 9.0377589e-21)
(-0.00014070434 -3.5409905e-05 -1.6859944e-20)
(-0.00011870721 -3.5373521e-05 2.9808906e-21)
(-9.6833481e-05 -3.5329709e-05 2.6112102e-20)
(-7.5065646e-05 -3.5326738e-05 1.1638249e-20)
(-5.3378854e-05 -3.5481735e-05 2.0448892e-20)
(-3.1765297e-05 -3.601416e-05 2.8432152e-20)
(-1.0452863e-05 -3.7105766e-05 3.9138406e-20)
(6.3314852e-06 -0.00032601921 -5.3579322e-20)
(1.4520847e-05 -0.00031839129 -3.0280174e-19)
(2.4932601e-05 -0.00031011124 -3.2385321e-19)
(3.4961728e-05 -0.00030092577 -2.7217826e-19)