/*--------------------------------*- C++ -*----------------------------------*\
| =========                 |                                                 |
| \\      /  F ield         | OpenFOAM: The Open Source CFD Toolbox           |
|  \\    /   O peration     | Version:  2306                                  |
|   \\  /    A nd           | Website:  www.openfoam.com                      |
|    \\/     M anipulation  |                                                 |
\*---------------------------------------------------------------------------*/
FoamFile
{
    version     2.0;
    format      ascii;
    arch        "LSB;label=32;scalar=64";
    class       surfaceScalarField;
    location    "0.26";
    object      phi;
}
// * * * * * * * * * * * * * * * * * * * * * * * * * * * * * * * * * * * * * //

dimensions      [0 3 -1 0 0 0 0];

oriented        oriented;

internalField   nonuniform List<scalar> 
12640
(
1.5579466e-07
-3.2928806e-07
6.2121482e-07
-9.7146749e-07
1.380911e-06
-1.5008691e-06
2.4078905e-06
-1.832281e-06
3.6617482e-06
-1.8728867e-06
5.0887044e-06
-1.5436319e-06
6.6327885e-06
-7.8159082e-07
8.222687e-06
4.6597356e-07
9.7868714e-06
2.2337004e-06
1.1249615e-05
4.5450461e-06
1.2533667e-05
7.4078964e-06
1.3562381e-05
1.0814638e-05
1.4261749e-05
1.474226e-05
1.4562236e-05
1.9152892e-05
1.4400619e-05
2.3994389e-05
1.3721445e-05
2.920181e-05
1.2478492e-05
3.4698434e-05
1.0635335e-05
4.0397899e-05
8.1662844e-06
4.6205059e-05
5.0576052e-06
5.2017863e-05
1.3064885e-06
5.7728294e-05
-3.069091e-06
6.322783e-05
-8.0550349e-06
6.8404649e-05
-1.3609249e-05
7.3132991e-05
-1.9678352e-05
7.7300372e-05
-2.6193538e-05
8.0792948e-05
-3.3069883e-05
8.3501442e-05
-4.0206254e-05
8.5324436e-05
-4.7485688e-05
8.6172067e-05
-5.4776648e-05
8.5970572e-05
-6.1935361e-05
8.4667207e-05
-6.8809409e-05
8.2235295e-05
-7.5242643e-05
7.8678946e-05
-8.1081329e-05
7.4036831e-05
-8.6181204e-05
6.8384327e-05
-9.0414907e-05
6.1833431e-05
-9.3679107e-05
5.4530104e-05
-9.5900715e-05
4.6649358e-05
-9.7041528e-05
3.8387819e-05
-9.7100706e-05
2.995424e-05
-9.6114713e-05
2.155893e-05
-9.4154875e-05
1.3403048e-05
-9.1323386e-05
5.6695975e-06
-8.7741971e-05
-1.4905226e-06
-8.3556218e-05
-7.9460141e-06
-7.891556e-05
-1.3614558e-05
-7.3971238e-05
-1.8445746e-05
-6.8868583e-05
-2.2424897e-05
-6.3741307e-05
-2.5569358e-05
-5.8707019e-05
-2.7923874e-05
-5.3864155e-05
-2.9555052e-05
-4.9290291e-05
-3.0545403e-05
-4.5041574e-05
-3.0987573e-05
-4.1153364e-05
-3.0978779e-05
-3.7641918e-05
-3.0615507e-05
-3.4506812e-05
-2.9989062e-05
-3.173392e-05
-2.9182054e-05
-2.9298678e-05
-2.826592e-05
-2.7169385e-05
-2.7299516e-05
-2.5310337e-05
-2.6328713e-05
-2.3684581e-05
-2.538689e-05
-2.2256132e-05
-2.4496163e-05
-2.0991745e-05
-2.3668966e-05
-1.9862075e-05
-2.2909965e-05
-1.8842246e-05
-2.2218096e-05
-1.7911962e-05
-2.1588484e-05
-1.7055236e-05
-2.1014102e-05
-1.6259889e-05
-2.0487103e-05
-1.5516899e-05
-1.9999797e-05
-1.4819718e-05
-1.9545284e-05
-1.4163622e-05
-1.9117782e-05
-1.354515e-05
-1.8712726e-05
-1.296165e-05
-1.8326695e-05
-1.2410954e-05
-1.7957248e-05
-1.1891146e-05
-1.7602704e-05
-1.1400432e-05
-1.7261938e-05
-1.0937074e-05
-1.6934182e-05
-1.0499369e-05
-1.6618886e-05
-1.008565e-05
-1.6315605e-05
-1.6023934e-05
1.8593896e-07
-5.1522702e-07
7.4145367e-07
-1.5269822e-06
1.6479604e-06
-2.4073757e-06
2.8733676e-06
-3.0576883e-06
4.3696805e-06
-3.3691996e-06
6.0766514e-06
-3.2506028e-06
7.924861e-06
-2.6298004e-06
9.8381839e-06
-1.4473494e-06
1.1730658e-05
3.4122605e-07
1.3515824e-05
2.7598805e-06
1.5104862e-05
5.8188586e-06
1.6409577e-05
9.5099226e-06
1.7344871e-05
1.3806966e-05
1.7830999e-05
1.8666763e-05
1.7795527e-05
2.4029861e-05
1.7175115e-05
2.9822222e-05
1.5916679e-05
3.595687e-05
1.3978528e-05
4.233605e-05
1.1331362e-05
4.8852226e-05
7.9584518e-06
5.5390773e-05
3.8562905e-06
6.1830455e-05
-9.6154896e-07
6.8045669e-05
-6.478379e-06
7.3921479e-05
-1.264912e-05
7.9303732e-05
-1.9417699e-05
8.4068952e-05
-2.6709556e-05
8.8084804e-05
-3.4431229e-05
9.1223115e-05
-4.2469722e-05
9.3362928e-05
-5.0692431e-05
9.4394777e-05
-5.8948061e-05
9.4226202e-05
-6.7068925e-05
9.2788072e-05
-7.4874921e-05
9.004129e-05
-8.2179333e-05
8.5983358e-05
-8.8796437e-05
8.0653936e-05
-9.4550531e-05
7.4138421e-05
-9.9285673e-05
6.6568573e-05
-0.00010287518
5.8119611e-05
-0.00010522996
4.9004138e-05
-0.0001063048
3.9462661e-05
-0.00010610171
2.9751145e-05
-0.00010466973
2.0126948e-05
-0.00010210199
1.0835309e-05
-9.8527907e-05
2.0955173e-06
-9.4102952e-05
-5.9154772e-06
-8.9009427e-05
-1.3039539e-05
-8.3432853e-05
-1.9191132e-05
-7.7558241e-05
-2.4320358e-05
-7.1561202e-05
-2.8421935e-05
-6.5600872e-05
-3.1529688e-05
-5.9814662e-05
-3.3710084e-05
-5.4314877e-05
-3.5054837e-05
-4.9187048e-05
-3.5673232e-05
-4.4489623e-05
-3.5684997e-05
-4.0255301e-05
-3.5213102e-05
-3.6493496e-05
-3.4377312e-05
-3.319372e-05
-3.3288838e-05
-3.0329593e-05
-3.204618e-05
-2.786314e-05
-3.0732374e-05
-2.5749049e-05
-2.9413607e-05
-2.3938631e-05
-2.8139131e-05
-2.2383156e-05
-2.6942364e-05
-2.1036661e-05
-2.5842658e-05
-1.9857997e-05
-2.4847629e-05
-1.8812007e-05
-2.3955955e-05
-1.7869964e-05
-2.3160139e-05
-1.7009416e-05
-2.2449032e-05
-1.6213588e-05
-2.180993e-05
-1.5470508e-05
-2.1230182e-05
-1.4772012e-05
-2.0698293e-05
-1.4112749e-05
-2.0204547e-05
-1.348929e-05
-1.9741242e-05
-1.2899393e-05
-1.9302623e-05
-1.2341453e-05
-1.8884635e-05
-1.1814123e-05
-1.8484578e-05
-1.1316089e-05
-1.8100738e-05
-1.0845964e-05
-1.7732062e-05
-1.040226e-05
-1.7377887e-05
-9.9834081e-06
-1.7037738e-05
-9.5878099e-06
-1.6711203e-05
-1.6397862e-05
2.2152482e-07
-7.3675184e-07
8.8324021e-07
-2.1886976e-06
1.9621645e-06
-3.4863e-06
3.420144e-06
-4.5156678e-06
5.1995554e-06
-5.148611e-06
7.231073e-06
-5.2821203e-06
9.4337481e-06
-4.8324756e-06
1.1719026e-05
-3.7326273e-06
1.3992785e-05
-1.9325325e-06
1.6152533e-05
6.0013248e-07
1.8096152e-05
3.8752387e-06
1.9722294e-05
7.8837816e-06
2.0933177e-05
1.2596083e-05
2.1637393e-05
1.7962547e-05
2.1752188e-05
2.3915066e-05
2.120538e-05
3.036903e-05
1.9936844e-05
3.7225407e-05
1.7899376e-05
4.4373518e-05
1.5058901e-05
5.16927e-05
1.1395484e-05
5.9054189e-05
6.9025981e-06
6.6323341e-05
1.5876971e-06
7.336057e-05
-4.5112347e-06
8.0020411e-05
-1.1370732e-05
8.6163229e-05
-1.8925125e-05
9.1623344e-05
-2.709433e-05
9.625401e-05
-3.5776724e-05
9.9905509e-05
-4.484714e-05
0.00010243334
-5.4156119e-05
0.00010370376
-6.3530181e-05
0.00010360026
-7.2773859e-05
0.00010203175
-8.1673938e-05
9.8941369e-05
-9.000623e-05
9.4315649e-05
-9.7544958e-05
8.8192664e-05
-0.00010407437
8.0667829e-05
-0.00010940161
7.1895815e-05
-0.00011336955
6.2087556e-05
-0.00011586812
5.1502706e-05
-0.00011684294
4.0437482e-05
-0.00011629992
2.9208124e-05
-0.00011430535
1.8132377e-05
-0.00011098388
7.5138386e-06
-0.0001064837
-2.4046619e-06
-0.00010102856
-1.1370618e-05
-9.4834516e-05
-1.9233581e-05
-8.8133523e-05
-2.5892126e-05
-8.1152766e-05
-3.1301114e-05
-7.4104696e-05
-3.5470006e-05
-6.7178592e-05
-3.8455791e-05
-6.0534584e-05
-4.0354092e-05
-5.4300069e-05
-4.1289353e-05
-4.8568122e-05
-4.1405179e-05
-4.3397763e-05
-4.0855356e-05
-3.8816187e-05
-3.9794677e-05
-3.4822333e-05
-3.8371167e-05
-3.1391492e-05
-3.6719679e-05
-2.8480688e-05
-3.4956985e-05
-2.6034283e-05
-3.3178778e-05
-2.3989443e-05
-3.1458448e-05
-2.2281e-05
-2.9847573e-05
-2.08457e-05
-2.8377664e-05
-1.9625708e-05
-2.706265e-05
-1.8570859e-05
-2.5902479e-05
-1.7639788e-05
-2.4887025e-05
-1.6800115e-05
-2.3999813e-05
-1.602787e-05
-2.3221277e-05
-1.5306407e-05
-2.2531394e-05
-1.4625004e-05
-2.1911585e-05
-1.3977397e-05
-2.13459e-05
-1.3360367e-05
-2.0821577e-05
-1.2772547e-05
-2.0329062e-05
-1.2213496e-05
-1.9861674e-05
-1.168305e-05
-1.9415081e-05
-1.1180928e-05
-1.8986699e-05
-1.070654e-05
-1.8575126e-05
-1.0258936e-05
-1.8179666e-05
-9.8368604e-06
-1.7799963e-05
-9.4388419e-06
-1.7435756e-05
-9.0632996e-06
-1.7086745e-05
-1.6752526e-05
2.6383723e-07
-1.0005891e-06
1.0516903e-06
-2.9765507e-06
2.3336974e-06
-4.7683072e-06
4.064513e-06
-6.2464833e-06
6.1735841e-06
-7.2576821e-06
8.5809352e-06
-7.6894715e-06
1.1194315e-05
-7.4458551e-06
1.3911663e-05
-6.4499755e-06
1.6623716e-05
-4.6445852e-06
1.9218414e-05
-1.9945661e-06
2.1572969e-05
1.5206839e-06
2.357248e-05
5.8842707e-06
2.5104125e-05
1.1064437e-05
2.6063126e-05
1.7003547e-05
2.6355161e-05
2.3623031e-05
2.5898524e-05
3.0825667e-05
2.4625324e-05
3.8498606e-05
2.2482419e-05
4.6516423e-05
1.9431782e-05
5.4743338e-05
1.5449877e-05
6.3036094e-05
1.0528486e-05
7.1244732e-05
4.6775124e-06
7.9211544e-05
-2.0784336e-06
8.6776357e-05
-9.7094682e-06
9.3794264e-05
-1.8144301e-05
0.00010005818
-2.7302084e-05
0.00010541179
-3.7074393e-05
0.00010967782
-4.7324278e-05
0.00011268323
-5.7884627e-05
0.0001142641
-6.8557452e-05
0.00011427309
-7.9115254e-05
0.00011258955
-8.9305283e-05
0.0001091314
-9.8857287e-05
0.00010386765
-0.00010749503
9.6830411e-05
-0.00011495128
8.812408e-05
-0.00012098501
7.7929537e-05
-0.00012539888
6.6501424e-05
-0.00012805492
5.4158747e-05
-0.00012888657
4.1269136e-05
-0.00012790506
2.8226613e-05
-0.00012519823
1.5425543e-05
-0.00012092579
3.2413981e-06
-0.00011529029
-8.0401592e-06
-0.00010856683
-1.809408e-05
-0.00010103356
-2.6766848e-05
-9.2978348e-05
-3.3947338e-05
-8.4680262e-05
-3.9599199e-05
-7.6396268e-05
-4.3754001e-05
-6.8351146e-05
-4.6500913e-05
-6.073079e-05
-4.7974449e-05
-5.3678586e-05
-4.8341557e-05
-4.7294063e-05
-4.7789701e-05
-4.163409e-05
-4.6515329e-05
-3.6716366e-05
-4.4712402e-05
-3.252445e-05
-4.2563082e-05
-2.9013925e-05
-4.0230204e-05
-2.6119611e-05
-3.7851299e-05
-2.3762828e-05
-3.5535561e-05
-2.1858239e-05
-3.3363038e-05
-2.0319852e-05
-3.138596e-05
-1.9066693e-05
-2.9630823e-05
-1.8026925e-05
-2.8102419e-05
-1.7140295e-05
-2.6789108e-05
-1.6359099e-05
-2.5668221e-05
-1.5647901e-05
-2.471101e-05
-1.4982334e-05
-2.3886844e-05
-1.4347337e-05
-2.3166391e-05
-1.3735021e-05
-2.25239e-05
-1.3142478e-05
-2.1938444e-05
-1.2569849e-05
-2.1394206e-05
-1.2018788e-05
-2.0880123e-05
-1.1491332e-05
-2.0389131e-05
-1.0989182e-05
-1.9917232e-05
-1.0513334e-05
-1.9462547e-05
-1.0063976e-05
-1.9024485e-05
-9.6405565e-06
-1.8603085e-05
-9.241962e-06
-1.8198557e-05
-8.8667147e-06
-1.7811004e-05
-8.5131607e-06
-1.7440299e-05
-1.7086069e-05
3.1463284e-07
-1.3152219e-06
1.2535558e-06
-3.9154736e-06
2.7754841e-06
-6.2902355e-06
4.8274722e-06
-8.2984714e-06
7.3196768e-06
-9.7498866e-06
1.0161912e-05
-1.0531707e-05
1.3248672e-05
-1.0532615e-05
1.6464525e-05
-9.6658287e-06
1.9685521e-05
-7.8655815e-06
2.2778306e-05
-5.0873511e-06
2.56108e-05
-1.3118102e-06
2.8043161e-05
3.4519106e-06
2.9947019e-05
9.1605787e-06
3.1202077e-05
1.5748489e-05
3.170119e-05
2.3123917e-05
3.1352309e-05
3.1174549e-05
3.0079768e-05
3.9771147e-05
2.7824724e-05
4.8771467e-05
2.4544722e-05
5.802334e-05
2.0213503e-05
6.7367313e-05
1.482115e-05
7.6637086e-05
8.3695959e-06
8.5663098e-05
8.7918009e-07
9.4266773e-05
-7.5925832e-06
0.00010226603
-1.7006959e-05
0.00010947255
-2.727432e-05
0.00011567915
-3.8279771e-05
0.00012068327
-4.9875743e-05
0.0001242792
-6.1877409e-05
0.00012626577
-7.4060328e-05
0.00012645601
-8.6160481e-05
0.0001246897
-9.7878098e-05
0.00012084902
-0.00010888623
0.00011487578
-0.00011884472
0.0001067889
-0.00012741955
9.6698916e-05
-0.00013430602
8.4816006e-05
-0.00013925294
7.1448341e-05
-0.00014208452
5.6990333e-05
-0.00014271776
4.1902372e-05
-0.00014117205
2.668091e-05
-0.00013757349
1.1826974e-05
-0.00013208928
-2.2428085e-06
-0.00012504582
-1.5083619e-05
-0.00011676214
-2.6377755e-05
-0.00010759542
-3.5933573e-05
-9.790582e-05
-4.3636936e-05
-8.8036772e-05
-4.9468247e-05
-7.8298959e-05
-5.3491814e-05
-6.8958657e-05
-5.5841216e-05
-6.0230516e-05
-5.670259e-05
-5.2274168e-05
-5.6297904e-05
-4.5193528e-05
-5.4870342e-05
-3.9039225e-05
-5.2669632e-05
-3.3813919e-05
-4.9937708e-05
-2.9479292e-05
-4.6897709e-05
-2.5963979e-05
-4.3745517e-05
-2.3173414e-05
-4.0641863e-05
-2.0999073e-05
-3.7709902e-05
-1.932672e-05
-3.5035391e-05
-1.8044346e-05
-3.2668334e-05
-1.7049429e-05
-3.062574e-05
-1.6253809e-05
-2.8898039e-05
-1.5586234e-05
-2.7456683e-05
-1.4992905e-05
-2.626155e-05
-1.4436489e-05
-2.5267427e-05
-1.3894201e-05
-2.4429131e-05
-1.3354867e-05
-2.3705726e-05
-1.2815612e-05
-2.3063154e-05
-1.2278835e-05
-2.2475221e-05
-1.1749635e-05
-2.1923406e-05
-1.1233859e-05
-2.1395899e-05
-1.0736781e-05
-2.0886209e-05
-1.0262367e-05
-2.0391645e-05
-9.8130144e-06
-1.99119e-05
-9.3896204e-06
-1.9447879e-05
-8.9918676e-06
-1.9000838e-05
-8.6185834e-06
-1.8571841e-05
-8.2680957e-06
-1.8161491e-05
-7.9385281e-06
-1.7769867e-05
-1.7396584e-05
3.7656874e-07
-1.6917906e-06
1.4992181e-06
-5.038123e-06
3.3056955e-06
-8.0967129e-06
5.7377974e-06
-1.0730573e-05
8.6732482e-06
-1.2685337e-05
1.2015783e-05
-1.3874241e-05
1.5646367e-05
-1.4163199e-05
1.9435389e-05
-1.3454851e-05
2.3242586e-05
-1.1672778e-05
2.6915505e-05
-8.7602693e-06
3.0297434e-05
-4.6937392e-06
3.3230847e-05
5.184971e-07
3.5565291e-05
6.8261346e-06
3.7162512e-05
1.4151268e-05
3.7901061e-05
2.2385369e-05
3.7678102e-05
3.1397507e-05
3.6410271e-05
4.1038978e-05
3.4033738e-05
5.1148e-05
3.0502861e-05
6.1554217e-05
2.5788969e-05
7.2081204e-05
1.9878715e-05
8.254734e-05
1.2775823e-05
9.2765989e-05
4.4962707e-06
0.00010254633
-4.921537e-06
0.00011168383
-1.5427798e-05
0.00011997881
-2.6936053e-05
0.00012718741
-3.933173e-05
0.00013307895
-5.2460274e-05
0.00013740774
-6.6120653e-05
0.00013992615
-8.0060873e-05
0.00014039623
-9.3975979e-05
0.00013860481
-0.00010751066
0.00013438369
-0.00012026818
0.0001276333
-0.00013182706
0.00011834779
-0.00014176592
0.00010663778
-0.00014969491
9.2744991e-05
-0.00015528967
7.7043106e-05
-0.00015832252
6.0023177e-05
-0.00015868707
4.2266924e-05
-0.00015641135
2.4405187e-05
-0.00015166582
7.0814508e-06
-0.00014468025
-9.2283787e-06
-0.00013587013
-2.389374e-05
-0.0001256558
-3.6592089e-05
-0.00011449007
-4.7099302e-05
-0.00010282362
-5.5303382e-05
-9.1079019e-05
-6.121285e-05
-7.963127e-05
-6.4939563e-05
-6.8794539e-05
-6.6677947e-05
-5.8814837e-05
-6.6682291e-05
-4.9867235e-05
-6.5245507e-05
-4.2056549e-05
-6.2681027e-05
-3.5421227e-05
-5.9304954e-05
-2.9941269e-05
-5.5417667e-05
-2.554809e-05
-5.1290887e-05
-2.2133753e-05
-4.7159854e-05
-1.9565194e-05
-4.3210423e-05
-1.7695309e-05
-3.9579786e-05
-1.6373142e-05
-3.6357559e-05
-1.5454257e-05
-3.3587218e-05
-1.481005e-05
-3.1269947e-05
-1.4333564e-05
-2.9374526e-05
-1.3941879e-05
-2.7848368e-05
-1.3575904e-05
-2.6627526e-05
-1.3198818e-05
-2.5644513e-05
-1.2792542e-05
-2.4835407e-05
-1.235297e-05
-2.4145298e-05
-1.1885306e-05
-2.3530818e-05
-1.139988e-05
-2.2960647e-05
-1.0908776e-05
-2.241451e-05
-1.0423418e-05
-2.1881257e-05
-9.9531084e-06
-2.1356518e-05
-9.5043736e-06
-2.084038e-05
-9.0809465e-06
-2.0335327e-05
-8.6841631e-06
-1.9844662e-05
-8.3135754e-06
-1.9371426e-05
-7.9675954e-06
-1.8917821e-05
-7.6440573e-06
-1.8485029e-05
-7.340645e-06
-1.8073279e-05
-1.768206e-05
4.5366586e-07
-2.1454565e-06
1.8050974e-06
-6.3895545e-06
3.949473e-06
-1.0241089e-05
6.8350717e-06
-1.3616172e-05
1.0280106e-05
-1.6130371e-05
1.4194947e-05
-1.7789083e-05
1.8445536e-05
-1.8413788e-05
2.2890485e-05
-1.7899799e-05
2.73731e-05
-1.6155394e-05
3.1716154e-05
-1.3103323e-05
3.5734944e-05
-8.7125289e-06
3.9248856e-05
-2.9954155e-06
4.2079279e-05
3.9957122e-06
4.406959e-05
1.2160957e-05
4.5081893e-05
2.1373066e-05
4.5002332e-05
3.1477069e-05
4.3740802e-05
4.2300509e-05
4.122967e-05
5.3659132e-05
3.7421735e-05
6.5362152e-05
3.2287306e-05
7.7215633e-05
2.5811585e-05
8.902306e-05
1.7993169e-05
0.00010058441
8.8458396e-06
0.00011169365
-1.6008046e-06
0.00012213048
-1.3307926e-05
0.00013168593
-2.6192979e-05
0.00014007246
-4.014739e-05
0.00014703336
-5.5014438e-05
0.00015227479
-7.0580421e-05
0.00015549213
-8.6566157e-05
0.00015638196
-0.00010262195
0.0001546606
-0.00011832757
0.00015008931
-0.00013320067
0.0001425064
-0.00014671597
0.00013186308
-0.00015833684
0.00011825865
-0.00016755809
0.00010196624
-0.0001739544
8.3439415e-05
-0.0001772256
6.329438e-05
-0.00017723247
4.2273795e-05
-0.00017401649
2.1189204e-05
-0.00016780346
8.6842726e-07
-0.00015891141
-1.8120437e-05
-0.00014788766
-3.4917482e-05
-0.0001352774
-4.9202353e-05
-0.00012165858
-6.0718119e-05
-0.00010759657
-6.9365394e-05
-9.3611157e-05
-7.5198264e-05
-8.0153704e-05
-7.8397016e-05
-6.7592686e-05
-7.9238965e-05
-5.6207108e-05
-7.8067869e-05
-4.6184976e-05
-7.5267638e-05
-3.76266e-05
-7.1239403e-05
-3.0549872e-05
-6.6381682e-05
-2.4901618e-05
-6.106592e-05
-2.0572603e-05
-5.5619902e-05
-1.7405251e-05
-5.0327206e-05
-1.5216549e-05
-4.5399125e-05
-1.3809565e-05
-4.0986771e-05
-1.2987419e-05
-3.7179705e-05
-1.2565204e-05
-3.4009434e-05
-1.2382835e-05
-3.1452316e-05
-1.2311953e-05
-2.9445407e-05
-1.2257653e-05
-2.7902668e-05
-1.2157765e-05
-2.6727413e-05
-1.1979969e-05
-2.5822309e-05
-1.1715331e-05
-2.5100045e-05
-1.1371437e-05
-2.4489191e-05
-1.0965783e-05
-2.3936472e-05
-1.0520083e-05
-2.3406346e-05
-1.0055932e-05
-2.2878661e-05
-9.5919123e-06
-2.2345277e-05
-9.142053e-06
-2.1806377e-05
-8.7154882e-06
-2.1266944e-05
-8.3168954e-06
-2.073392e-05
-7.9474378e-06
-2.021412e-05
-7.6058898e-06
-1.9712974e-05
-7.2896763e-06
-1.9234035e-05
-6.9957015e-06
-1.8779004e-05
-6.7209223e-06
-1.8348058e-05
-1.7940306e-05
5.5232341e-07
-2.6977799e-06
2.1974198e-06
-8.0346509e-06
4.7423842e-06
-1.2786053e-05
8.1749596e-06
-1.7048747e-05
1.2198084e-05
-2.0153496e-05
1.6761821e-05
-2.235282e-05
2.1713126e-05
-2.3365093e-05
2.6906259e-05
-2.3092933e-05
3.2165894e-05
-2.1415029e-05
3.728529e-05
-1.8222719e-05
4.2045099e-05
-1.3472338e-05
4.6228159e-05
-7.1784757e-06
4.9629477e-05
5.9439414e-07
5.2068783e-05
9.7216512e-06
5.3389975e-05
2.0051874e-05
5.3468689e-05
3.1398354e-05
5.2209844e-05
4.3559353e-05
4.9544947e-05
5.632403e-05
4.5427887e-05
6.9479211e-05
3.9830497e-05
8.2813024e-05
3.2737512e-05
9.6116045e-05
2.4143793e-05
0.00010917812
1.4054689e-05
0.00012178276
2.4822179e-06
0.00013370295
-1.0526139e-05
0.00014469429
-2.4925193e-05
0.00015447152
-4.0615013e-05
0.00016272318
-5.7444133e-05
0.00016910391
-7.519301e-05
0.00017324101
-9.3558529e-05
0.00017474748
-0.00011214387
0.00017324595
-0.00013045425
0.00016839969
-0.00014790289
0.00015995504
-0.0001638319
0.00014779208
-0.00017755161
0.00013197836
-0.00018839878
0.00011281341
-0.00019580642
9.0847055e-05
-0.00019937176
6.6859721e-05
-0.00019891298
4.1815013e-05
-0.0001945085
1.6784722e-05
-0.00018633395
-7.306121e-06
-0.00017504209
-2.9412297e-05
-0.00016123352
-4.8726049e-05
-0.00014563794
-6.4797933e-05
-0.00012899994
-7.7356119e-05
-0.00011203023
-8.6335104e-05
-9.536719e-05
-9.1861307e-05
-7.9551423e-05
-9.4212783e-05
-6.5011384e-05
-9.3779005e-05
-5.2058857e-05
-9.1020395e-05
-4.0889669e-05
-8.6436827e-05
-3.159134e-05
-8.0537732e-05
-2.4150427e-05
-7.3822595e-05
-1.8465513e-05
-6.6750834e-05
-1.4374776e-05
-5.9710639e-05
-1.1652653e-05
-5.304933e-05
-1.0051982e-05
-4.6999796e-05
-9.3113696e-06
-4.1727383e-05
-9.1776542e-06
-3.731342e-05
-9.415648e-06
-3.377144e-05
-9.8271641e-06
-3.10408e-05
-1.0259546e-05
-2.9013025e-05
-1.060646e-05
-2.7555754e-05
-1.0807188e-05
-2.6526686e-05
-1.0839604e-05
-2.5789893e-05
-1.0710549e-05
-2.52291e-05
-1.0445822e-05
-2.4753918e-05
-1.008093e-05
-2.4301364e-05
-9.6535148e-06
-2.3833762e-05
-9.197785e-06
-2.3334391e-05
-8.7410655e-06
-2.2801997e-05
-8.3025558e-06
-2.2244887e-05
-7.893578e-06
-2.1675922e-05
-7.5188014e-06
-2.1108696e-05
-7.1780992e-06
-2.0554822e-05
-6.8684178e-06
-2.0022655e-05
-6.5853471e-06
-1.9517106e-05
-6.3242696e-06
-1.9040082e-05
-6.0810713e-06
-1.8591257e-05
-1.8168904e-05
6.8354994e-07
-3.3813299e-06
2.7152409e-06
-1.0066342e-05
5.7365976e-06
-1.580741e-05
9.8368388e-06
-2.1148989e-05
1.4502623e-05
-2.481928e-05
1.9790055e-05
-2.7640252e-05
2.5522084e-05
-2.9097122e-05
3.156628e-05
-2.9137129e-05
3.7724947e-05
-2.7573696e-05
4.3745807e-05
-2.4243578e-05
4.9366535e-05
-1.9093067e-05
5.4325366e-05
-1.2137307e-05
5.838398e-05
-3.4642196e-06
6.1331192e-05
6.7744392e-06
6.299475e-05
1.8388316e-05
6.3240722e-05
3.1152382e-05
6.1972406e-05
4.4827669e-05
5.9124587e-05
5.9171849e-05
5.4657185e-05
7.3946613e-05
4.8547392e-05
8.8922816e-05
4.0782315e-05
0.00010388112
3.1354351e-05
0.00011860609
2.0257199e-05
0.00013287991
7.4917192e-06
0.00014646843
-6.9298761e-06
0.00015911589
-2.2980619e-05
0.00017052226
-4.0585357e-05
0.00018032792
-5.9613467e-05
0.00018813202
-7.9851828e-05
0.00019347937
-0.00010098162
0.00019587727
-0.00012255951
0.00019482384
-0.00014400731
0.00018984749
-0.00016461234
0.00018056007
-0.00018354775
0.00016672749
-0.00019991974
0.00014835035
-0.00021284583
0.00012573951
-0.00022155633
9.9557549e-05
-0.00022549667
7.0800066e-05
-0.0002244107
4.0729044e-05
-0.00021842202
1.0796036e-05
-0.00020781107
-1.7917069e-05
-0.00019339949
-4.3823871e-05
-0.00017605094
-6.6074598e-05
-0.00015671617
-8.413271e-05
-0.00013635126
-9.7721026e-05
-0.00011584816
-0.00010683821
-9.5987628e-05
-0.00011172184
-7.7412044e-05
-0.00011278837
-6.0613288e-05
-0.00011057776
-4.5932679e-05
-0.000105701
-3.3565307e-05
-9.8804198e-05
-2.3572463e-05
-9.0530576e-05
-1.5897866e-05
-8.1497193e-05
-1.036796e-05
-7.228074e-05
-6.7597013e-06
-6.3318898e-05
-4.7497541e-06
-5.5059277e-05
-4.0084376e-06
-4.7741113e-05
-4.191821e-06
-4.1543999e-05
-4.9797459e-06
-3.6525495e-05
-6.0764836e-06
-3.2674702e-05
-7.2367856e-06
-2.9880498e-05
-8.2797683e-06
-2.7970043e-05
-9.0906473e-06
-2.6744875e-05
-9.6166503e-06
-2.6000682e-05
-9.854679e-06
-2.5551864e-05
-9.8369678e-06
-2.5246811e-05
-9.6166128e-06
-2.4974273e-05
-9.254957e-06
-2.466302e-05
-8.8115305e-06
-2.4277188e-05
-8.336601e-06
-2.380932e-05
-7.8676903e-06
-2.3270907e-05
-7.4290655e-06
-2.2683512e-05
-7.0329236e-06
-2.2072064e-05
-6.6821139e-06
-2.1459506e-05
-6.3733607e-06
-2.0863575e-05
-6.1001842e-06
-2.0295832e-05
-5.8551545e-06
-1.9762135e-05
-5.6313893e-06
-1.9263847e-05
-5.4233446e-06
-1.8799301e-05
-1.8365195e-05
8.6933978e-07
-4.2506697e-06
3.4330403e-06
-1.2630042e-05
7.0119962e-06
-1.9386366e-05
1.1933292e-05
-2.6070284e-05
1.7288951e-05
-3.0174939e-05
2.3357129e-05
-3.370843e-05
2.9944082e-05
-3.5684075e-05
3.6960498e-05
-3.6153545e-05
4.416802e-05
-3.4781218e-05
5.1247679e-05
-3.1323237e-05
5.7874819e-05
-2.5720207e-05
6.373593e-05
-1.7998417e-05
6.8546393e-05
-8.2746834e-06
7.2060593e-05
3.2602398e-06
7.4094698e-05
1.6354211e-05
7.4506098e-05
3.0740982e-05
7.3201715e-05
4.6132052e-05
7.0126729e-05
6.2246834e-05
6.52541e-05
7.8819243e-05
5.857274e-05
9.5604177e-05
5.0076625e-05
0.00011237724
3.9755728e-05
0.00012892698
2.7592938e-05
0.0001450427
1.3561819e-05
0.00016049955
-2.3518721e-06
0.00017502958
-2.0172718e-05
0.00018834311
-3.9862058e-05
0.00020001726
-6.1330555e-05
0.00020960052
-8.4389891e-05
0.00021653871
-0.00010872067
0.00022020806
-0.00013383976
0.00021994293
-0.00015907924
0.00021508697
-0.0001835774
0.00020505823
-0.00020629348
0.00018944357
-0.00022606084
0.00016811771
-0.00024169012
0.00014136879
-0.00025211817
0.00010998561
-0.00025656662
7.5248507e-05
-0.00025466935
3.8831776e-05
-0.00024658253
2.7092223e-06
-0.0002327635
-3.1736107e-05
-0.00021433296
-6.2254409e-05
-0.00019246996
-8.7937599e-05
-0.00016843421
-0.00010816846
-0.0001434585
-0.00012269674
-0.00011866034
-0.00013163636
-9.4988542e-05
-0.00013539364
-7.31974e-05
-0.00013457951
-5.3840961e-05
-0.0001299342
-3.7281705e-05
-0.00012226026
-2.3701436e-05
-0.00011238447
-1.3114122e-05
-0.00010111789
-5.4163935e-06
-8.9194922e-05
-3.4250545e-07
-7.7354628e-05
2.5008237e-06
-6.6162227e-05
3.4584369e-06
-5.601689e-05
2.983733e-06
-4.7266409e-05
1.5238002e-06
-4.0084067e-05
-4.7721862e-07
-3.4524476e-05
-2.6632468e-06
-3.0488674e-05
-4.752125e-06
-2.779162e-05
-6.5203598e-06
-2.6201808e-05
-7.8506559e-06
-2.5414579e-05
-8.7082196e-06
-2.5143119e-05
-9.1222653e-06
-2.5137819e-05
-9.1642206e-06
-2.5204856e-05
-8.9271793e-06
-2.5211314e-05
-8.5092495e-06
-2.508095e-05
-7.9990333e-06
-2.4787405e-05
-7.4666223e-06
-2.4341731e-05
-6.9607444e-06
-2.3776785e-05
-6.509371e-06
-2.3134885e-05
-6.1228703e-06
-2.2458565e-05
-5.7991644e-06
-2.1783212e-05
-5.5289151e-06
-2.1133824e-05
-5.2998966e-06
-2.052485e-05
-5.1001001e-06
-1.9961932e-05
-4.9195296e-06
-1.9444417e-05
-4.7509239e-06
-1.8967907e-05
-1.8526388e-05
1.164012e-06
-5.4146817e-06
4.5035106e-06
-1.5969541e-05
8.7049026e-06
-2.3587758e-05
1.4625579e-05
-3.199096e-05
2.0661151e-05
-3.6210512e-05
2.7516595e-05
-4.0563873e-05
3.502484e-05
-4.3192321e-05
4.3172708e-05
-4.4301413e-05
5.1634152e-05
-4.3242662e-05
5.9978467e-05
-3.9667553e-05
6.7794613e-05
-3.3536352e-05
7.4702895e-05
-2.49067e-05
8.0365565e-05
-1.3937353e-05
8.4505148e-05
-8.7934346e-07
8.6928674e-05
1.3930685e-05
8.7485015e-05
3.018464e-05
8.6094932e-05
4.7522136e-05
8.2724714e-05
6.5617053e-05
7.7371026e-05
8.4172931e-05
7.0044543e-05
0.00010293066
6.0753263e-05
0.00012166852
4.9487979e-05
0.00014019227
3.6215472e-05
0.00015831521
2.0879735e-05
0.00017583529
3.4041477e-06
0.00019250516
-1.6267929e-05
0.00020801518
-3.8186991e-05
0.00022193632
-6.2328572e-05
0.0002337421
-8.8556163e-05
0.0002427663
-0.0001165751
0.00024822699
-0.0001458801
0.00024924793
-0.00017571338
0.00024492025
-0.00020504203
0.00023438688
-0.0002325582
0.00021695973
-0.00025673184
0.00019229135
-0.00027594012
0.00016057707
-0.00028868581
0.00012273129
-0.0002938559
8.0418597e-05
-0.00029095149
3.5927368e-05
-0.00027992868
-8.3135877e-06
-0.00026192049
-4.9744298e-05
-0.00023825645
-8.5918449e-05
-0.00021059553
-0.00011559852
-0.00018062457
-0.00013813941
-0.00014993479
-0.00015338652
-0.00011991995
-0.0001616512
-9.1720866e-05
-0.00016359272
-6.6207772e-05
-0.0001600926
-4.3987067e-05
-0.0001521549
-2.5425105e-05
-0.00014082222
-1.0681454e-05
-0.00012712812
3.1285816e-07
-0.0001121122
7.8255296e-06
-9.6707593e-05
1.2150505e-05
-8.1679603e-05
1.3746326e-05
-6.7758047e-05
1.3176025e-05
-5.5446589e-05
1.1020568e-05
-4.5110952e-05
7.8660805e-06
-3.6929579e-05
4.2489171e-06
-3.0907313e-05
6.4183239e-07
-2.6881589e-05
-2.5762443e-06
-2.4573543e-05
-5.1877277e-06
-2.3590324e-05
-7.0761711e-06
-2.3526135e-05
-8.2404311e-06
-2.3978859e-05
-8.7620677e-06
-2.4616182e-05
-8.771428e-06
-2.5195495e-05
-8.4200189e-06
-2.5562723e-05
-7.8570216e-06
-2.5643947e-05
-7.2087803e-06
-2.5435646e-05
-6.5690287e-06
-2.4981483e-05
-5.9974166e-06
-2.4348397e-05
-5.5219378e-06
-2.3610364e-05
-5.1463835e-06
-2.2834119e-05
-4.8587444e-06
-2.2070851e-05
-4.6392226e-06
-2.1353346e-05
-4.4666223e-06
-2.0697451e-05
-4.3224464e-06
-2.0106108e-05
-4.1927404e-06
-1.9574123e-05
-4.0684763e-06
-1.9092171e-05
-1.8649862e-05
1.7163564e-06
-7.131038e-06
6.2832274e-06
-2.0536412e-05
1.1073605e-05
-2.8378135e-05
1.8130011e-05
-3.9047366e-05
2.46812e-05
-4.2761701e-05
3.222348e-05
-4.8106153e-05
4.0716287e-05
-5.1685128e-05
5.0241521e-05
-5.3826647e-05
6.027622e-05
-5.3277361e-05
7.0187315e-05
-4.9578648e-05
7.9435106e-05
-4.2784142e-05
8.7561414e-05
-3.3033008e-05
9.418729e-05
-2.0563229e-05
9.9006801e-05
-5.698854e-06
0.00010180529
1.1132197e-05
0.00010245185
2.9538081e-05
0.00010088943
4.9084551e-05
9.7119389e-05
6.9387096e-05
9.1177744e-05
9.0114576e-05
8.311094e-05
0.00011099746
7.2951194e-05
0.00013182826
6.069592e-05
0.00015244754
4.6294447e-05
0.00017271668
2.9646869e-05
0.00019248286
1.0614179e-05
0.00021153786
-1.0960416e-05
0.00022958978
-3.5216633e-05
0.00024619253
-6.2237024e-05
0.00026076249
-9.1981618e-05
0.00027251089
-0.00012422145
0.00028046683
-0.00015846267
0.00028348914
-0.00019387143
0.00028032901
-0.00022922567
0.00026974112
-0.00026289005
0.00025062412
-0.00029285488
0.00022225618
-0.00031688411
0.00018460629
-0.00033282467
0.00013867186
-0.00033902512
8.6619045e-05
-0.00033473902
3.1641269e-05
-0.00031995995
-2.3092659e-05
-0.00029623777
-7.3466478e-05
-0.00026564344
-0.00011651278
-0.00023047252
-0.00015076944
-0.00019297676
-0.00017563517
-0.0001551997
-0.00019116358
-0.00011886349
-0.00019798741
-8.5316936e-05
-0.00019713928
-5.5538067e-05
-0.00018987147
-3.016292e-05
-0.00017753005
-9.5397255e-06
-0.00016144542
6.3207401e-06
-0.00014298858
1.7522777e-05
-0.00012331424
2.4370368e-05
-0.00010355518
2.7379861e-05
-8.4689096e-05
2.7169943e-05
-6.754813e-05
2.4467738e-05
-5.2744384e-05
2.0040244e-05
-4.0683458e-05
1.4643004e-05
-3.1532339e-05
8.970091e-06
-2.5234399e-05
3.6123213e-06
-2.152382e-05
-9.9066856e-07
-1.9970553e-05
-4.5650791e-06
-2.0015914e-05
-7.0199696e-06
-2.1071245e-05
-8.4159959e-06
-2.2582833e-05
-8.9178728e-06
-2.4114305e-05
-8.7436782e-06
-2.536969e-05
-8.1298444e-06
-2.6176557e-05
-7.2947988e-06
-2.6478993e-05
-6.412985e-06
-2.631746e-05
-5.6050876e-06
-2.578938e-05
-4.9379781e-06
-2.5015507e-05
-4.4327418e-06
-2.4115601e-05
-4.0786867e-06
-2.3188174e-05
-3.8461662e-06
-2.2303371e-05
-3.6984419e-06
-2.1501071e-05
-3.601112e-06
-2.0794781e-05
-3.5270626e-06
-2.0180157e-05
-3.4577403e-06
-1.9643445e-05
-3.3829075e-06
-1.9167004e-05
-1.8733815e-05
2.8574337e-06
-9.9884717e-06
9.5107309e-06
-2.7189709e-05
1.4502599e-05
-3.3370003e-05
2.2555746e-05
-4.7100513e-05
2.9153529e-05
-4.9359484e-05
3.7131678e-05
-5.6084303e-05
4.6710276e-05
-6.1263725e-05
5.8049152e-05
-6.5165523e-05
7.0208011e-05
-6.543622e-05
8.2188176e-05
-6.1558814e-05
9.3238037e-05
-5.3834004e-05
0.00010281285
-4.2607822e-05
0.00011051329
-2.8263667e-05
0.00011603158
-1.1217142e-05
0.00011915537
8.0084015e-06
0.00011978724
2.8906218e-05
0.00011790991
5.0961882e-05
0.00011358043
7.3716576e-05
0.00010689615
9.6798852e-05
9.7960232e-05
0.00011993338
8.6845427e-05
0.00014294307
7.3563457e-05
0.00016572951
5.8044615e-05
0.00018823552
4.0131956e-05
0.00021039552
1.9592823e-05
0.00023207699
-3.8434081e-06
0.00025302601
-3.0466716e-05
0.00027281584
-6.0513588e-05
0.00029080937
-9.410159e-05
0.00030609889
-0.000131129
0.00031749424
-0.00017117076
0.0003235309
-0.00021335982
0.00032251807
-0.00025628396
0.00031266526
-0.00029791779
0.00029225795
-0.00033562474
0.00025996313
-0.00036630071
0.00021528226
-0.00038677494
0.00015914609
-0.00039451232
9.4356423e-05
-0.00038831797
2.5446922e-05
-0.00036834772
-4.3062912e-05
-0.0003368715
-0.0001049427
-0.0002970109
-0.00015637337
-0.00025203586
-0.00019574448
-0.00020496349
-0.00022270754
-0.0001583959
-0.00023773117
-0.00011443216
-0.00024195116