/*--------------------------------*- C++ -*----------------------------------*\
| =========                 |                                                 |
| \\      /  F ield         | OpenFOAM: The Open Source CFD Toolbox           |
|  \\    /   O peration     | Version:  2106                                  |
|   \\  /    A nd           | Website:  www.openfoam.com                      |
|    \\/     M anipulation  |                                                 |
\*---------------------------------------------------------------------------*/
FoamFile
{
    version     2.0;
    format      ascii;
    arch        "LSB;label=32;scalar=64";
    class       surfaceScalarField;
    location    "0.041";
    object      phi_0;
}
// * * * * * * * * * * * * * * * * * * * * * * * * * * * * * * * * * * * * * //

dimensions      [0 3 -1 0 0 0 0];

oriented        oriented;

internalField   nonuniform List<scalar> 
8064
(
-1.2602946e-05
1.2602946e-05
-2.5091045e-05
1.2488099e-05
-3.7350282e-05
1.2259236e-05
-4.9268308e-05
1.1918026e-05
-6.073529e-05
1.1466982e-05
-7.1644774e-05
1.0909484e-05
-8.1894557e-05
1.0249783e-05
-9.1387575e-05
9.4930182e-06
-0.0001000328
8.6452204e-06
-0.0001077461
7.7133055e-06
-0.00011445116
6.7050585e-06
-0.00012008026
5.6291007e-06
-0.0001245751
4.4948431e-06
-0.00012788753
3.3124223e-06
-0.00012998015
2.0926206e-06
-0.00013082695
8.4680048e-07
-0.00013041369
-4.1325662e-07
-0.00012873829
-1.6753952e-06
-0.00012581105
-2.9272428e-06
-0.00012165473
-4.1563244e-06
-0.00011630454
-5.3501884e-06
-0.00010980799
-6.4965445e-06
-0.00010222459
-7.5834024e-06
-9.3625378e-05
-8.5992142e-06
-8.4092358e-05
-9.53302e-06
-7.3717763e-05
-1.0374595e-05
-6.2603168e-05
-1.1114595e-05
-5.0858471e-05
-1.1744698e-05
-3.8600735e-05
-1.2257736e-05
-2.5952919e-05
-1.2647816e-05
-1.3042497e-05
-1.2910422e-05
1.1902276e-14
-1.3042497e-05
1.3042497e-05
-1.3042497e-05
2.5952919e-05
-1.2910422e-05
3.8600735e-05
-1.2647816e-05
5.0858471e-05
-1.2257736e-05
6.2603168e-05
-1.1744698e-05
7.3717763e-05
-1.1114595e-05
8.4092358e-05
-1.0374595e-05
9.3625378e-05
-9.53302e-06
0.00010222459
-8.5992142e-06
0.00010980799
-7.5834024e-06
0.00011630454
-6.4965445e-06
0.00012165473
-5.3501884e-06
0.00012581105
-4.1563244e-06
0.00012873829
-2.9272428e-06
0.00013041369
-1.6753952e-06
0.00013082695
-4.1325662e-07
0.00012998015
8.4680048e-07
0.00012788753
2.0926206e-06
0.0001245751
3.3124223e-06
0.00012008026
4.4948431e-06
0.00011445116
5.6291007e-06
0.0001077461
6.7050585e-06
0.0001000328
7.7133055e-06
9.1387575e-05
8.6452204e-06
8.1894557e-05
9.4930182e-06
7.1644774e-05
1.0249783e-05
6.073529e-05
1.0909484e-05
4.9268307e-05
1.1466982e-05
3.7350282e-05
1.1918026e-05
2.5091045e-05
1.2259236e-05
1.2602946e-05
1.2488099e-05
1.2602946e-05
-1.2659469e-05
2.5262415e-05
-2.5203723e-05
2.5032353e-05
-3.751837e-05
2.4573883e-05
-4.9490672e-05
2.3890328e-05
-6.1010389e-05
2.2986699e-05
-7.1970638e-05
2.1869733e-05
-8.226877e-05
2.0547915e-05
-9.180726e-05
1.9031509e-05
-0.00010049461
1.7332568e-05
-0.00010824623
1.5464927e-05
-0.00011498534
1.344417e-05
-0.00012064381
1.1287564e-05
-0.00012516293
9.0139677e-06
-0.00012849421
6.6437016e-06
-0.00013059998
4.1983922e-06
-0.00013145398
1.7007978e-06
-0.00013104182
-8.2541868e-07
-0.0001293613
-3.3559068e-06
-0.0001264227
-5.8658493e-06
-0.00012224879
-8.3302275e-06
-0.00011687491
-1.0724075e-05
-0.00011034871
-1.3022745e-05
-0.00010272992
-1.5202191e-05
-9.4089884e-05
-1.723925e-05
-8.4510972e-05
-1.9111932e-05
-7.4085849e-05
-2.0799717e-05
-6.2916594e-05
-2.228385e-05
-5.1113673e-05
-2.3547619e-05
-3.879478e-05
-2.4576629e-05
-2.6083556e-05
-2.535904e-05
-1.3108201e-05
-2.5885778e-05
1.1743415e-14
-2.6150698e-05
1.3108201e-05
-2.6150698e-05
2.6083556e-05
-2.5885778e-05
3.879478e-05
-2.535904e-05
5.1113673e-05
-2.4576629e-05
6.2916594e-05
-2.3547619e-05
7.4085849e-05
-2.228385e-05
8.4510972e-05
-2.0799717e-05
9.4089884e-05
-1.9111932e-05
0.00010272992
-1.723925e-05
0.00011034871
-1.5202191e-05
0.00011687491
-1.3022745e-05
0.00012224879
-1.0724075e-05
0.0001264227
-8.3302275e-06
0.0001293613
-5.8658493e-06
0.00013104182
-3.3559068e-06
0.00013145398
-8.2541868e-07
0.00013059998
1.7007978e-06
0.00012849421
4.1983922e-06
0.00012516293
6.6437016e-06
0.00012064381
9.0139677e-06
0.00011498534
1.1287564e-05
0.00010824623
1.344417e-05
0.00010049461
1.5464927e-05
9.180726e-05
1.7332568e-05
8.226877e-05
1.9031509e-05
7.1970638e-05
2.0547915e-05
6.1010389e-05
2.1869733e-05
4.9490672e-05
2.2986699e-05
3.751837e-05
2.3890328e-05
2.5203723e-05
2.4573883e-05
1.2659469e-05
2.5032353e-05
2.5262415e-05
-1.2692781e-05
3.7955197e-05
-2.5270254e-05
3.7609827e-05
-3.7617921e-05
3.6921549e-05
-4.9622906e-05
3.5895313e-05
-6.1174796e-05
3.4538589e-05
-7.2166485e-05
3.2861423e-05
-8.2495059e-05
3.0876489e-05
-9.2062682e-05
2.8599132e-05
-0.00010077751
2.6047396e-05
-0.0001085546
2.3242013e-05
-0.00011531678
2.0206358e-05
-0.00012099558
1.6966356e-05
-0.00012553194
1.3550337e-05
-0.00012887709
9.9888432e-06
-0.00013099308
6.3143897e-06
-0.00013185347
2.5611858e-06
-0.00013144371
-1.2351821e-06
-0.00012976151
-5.038107e-06
-0.00012681708
-8.8102813e-06
-0.0001226332
-1.25141e-05
-0.00011724524
-1.611204e-05
-0.00011070093
-1.9567058e-05
-0.00010306011
-2.2843008e-05
-9.4394293e-05
-2.5905065e-05
-8.4786061e-05
-2.8720164e-05
-7.4328344e-05
-3.1257435e-05
-6.312354e-05
-3.3488653e-05
-5.1282497e-05
-3.5388662e-05
-3.8923345e-05
-3.6935782e-05
-2.6170208e-05
-3.8112177e-05
-1.3151812e-05
-3.8904173e-05
1.1406085e-14
-3.9302509e-05
1.3151812e-05
-3.9302509e-05
2.6170208e-05
-3.8904173e-05
3.8923345e-05
-3.8112177e-05
5.1282497e-05
-3.6935782e-05
6.312354e-05
-3.5388662e-05
7.4328344e-05
-3.3488653e-05
8.4786061e-05
-3.1257435e-05
9.4394293e-05
-2.8720164e-05
0.00010306011
-2.5905065e-05
0.00011070093
-2.2843008e-05
0.00011724524
-1.9567058e-05
0.0001226332
-1.611204e-05
0.00012681708
-1.25141e-05
0.00012976151
-8.8102813e-06
0.00013144371
-5.038107e-06
0.00013185347
-1.2351821e-06
0.00013099308
2.5611858e-06
0.00012887709
6.3143897e-06
0.00012553194
9.9888432e-06
0.00012099558
1.3550337e-05
0.00011531678
1.6966356e-05
0.0001085546
2.0206358e-05
0.00010077751
2.3242013e-05
9.2062682e-05
2.6047396e-05
8.2495059e-05
2.8599132e-05
7.2166485e-05
3.0876488e-05
6.1174796e-05
3.2861423e-05
4.9622906e-05
3.4538589e-05
3.7617921e-05
3.5895313e-05
2.5270254e-05
3.6921549e-05
1.2692781e-05
3.7609827e-05
3.7955197e-05
-1.2701252e-05
5.0656448e-05
-2.5287408e-05
5.0195983e-05
-3.7644158e-05
4.9278299e-05
-4.9658769e-05
4.7909924e-05
-6.1220902e-05
4.6100722e-05
-7.2223455e-05
4.3863976e-05
-8.2563435e-05
4.1216469e-05
-9.2142855e-05
3.8178552e-05
-0.00010086965
3.4774193e-05
-0.00010865861
3.1030974e-05
-0.00011543229
2.6980036e-05
-0.00012112189
2.2655954e-05
-0.0001256681
1.8096545e-05
-0.00012902185
1.3342601e-05
-0.00013114503
8.4375633e-06
-0.00013201098
3.4271393e-06
-0.00013160504
-1.641122e-06
-0.00012992483
-6.7183187e-06
-0.00012698049
-1.1754624e-05
-0.00012279476
-1.6699826e-05
-0.00011740297
-2.1503829e-05
-0.00011085285
-2.611718e-05
-0.00010320424
-3.0491621e-05
-9.4528656e-05
-3.4580645e-05
-8.490874e-05
-3.834008e-05
-7.4437501e-05
-4.1728674e-05
-6.3217466e-05
-4.4708688e-05
-5.1359658e-05
-4.724647e-05
-3.8982434e-05
-4.9313005e-05
-2.6210196e-05
-5.0884414e-05
-1.3171988e-05
-5.1942381e-05
1.0932343e-14
-5.2474498e-05
1.3171988e-05
-5.2474498e-05
2.6210196e-05
-5.1942381e-05
3.8982434e-05
-5.0884414e-05
5.1359658e-05
-4.9313005e-05
6.3217466e-05
-4.724647e-05
7.4437501e-05
-4.4708688e-05
8.490874e-05
-4.1728674e-05
9.4528656e-05
-3.834008e-05
0.00010320424
-3.4580645e-05
0.00011085285
-3.0491621e-05
0.00011740297
-2.611718e-05
0.00012279476
-2.1503829e-05
0.00012698049
-1.6699826e-05
0.00012992483
-1.1754624e-05
0.00013160504
-6.7183187e-06
0.00013201098
-1.641122e-06
0.00013114503
3.4271393e-06
0.00012902185
8.4375633e-06
0.0001256681
1.3342601e-05
0.00012112189
1.8096545e-05
0.00011543229
2.2655954e-05
0.00010865861
2.6980036e-05
0.00010086965
3.1030974e-05
9.2142854e-05
3.4774193e-05
8.2563435e-05
3.8178552e-05
7.2223455e-05
4.1216469e-05
6.1220902e-05
4.3863976e-05
4.9658769e-05
4.6100722e-05
3.7644158e-05
4.7909924e-05
2.5287408e-05
4.9278299e-05
1.2701252e-05
5.0195983e-05
5.0656448e-05
-1.2701404e-05
6.3357853e-05
-2.5288088e-05
6.2782667e-05
-3.764608e-05
6.1636291e-05
-4.9662922e-05
5.9926766e-05
-6.1228463e-05
5.7666262e-05
-7.2235679e-05
5.4871193e-05
-8.2581548e-05
5.1562337e-05
-9.2167946e-05
4.776495e-05
-0.00010090259
4.3508835e-05
-0.00010869997
3.8828358e-05
-0.00011548232
3.3762388e-05
-0.00012118051
2.8354143e-05
-0.00012573492
2.2650947e-05
-0.0001290962
1.6703882e-05
-0.00013122601
1.0567371e-05
-0.00013209754
4.2986751e-06
-0.00013169602
-2.0426436e-06
-0.00013001899
-8.395348e-06
-0.00012707655
-1.4697066e-05
-0.00012289141
-2.0884967e-05
-0.00011749886
-2.6896379e-05
-0.00011094659
-3.2669445e-05
-0.00010329442
-3.8143792e-05
-9.4613838e-05
-4.3261229e-05
-8.4987457e-05
-4.796646e-05
-7.4508311e-05
-5.2207821e-05
-6.3278984e-05
-5.5938015e-05
-5.1410608e-05
-5.9114846e-05
-3.9021707e-05
-6.1701907e-05
-2.6236901e-05
-6.366922e-05
-1.3185501e-05
-6.4993781e-05
1.0370832e-14
-6.5659998e-05
1.3185501e-05
-6.5659998e-05
2.6236901e-05
-6.4993781e-05
3.9021707e-05
-6.366922e-05
5.1410608e-05
-6.1701907e-05
6.3278984e-05
-5.9114846e-05
7.4508311e-05
-5.5938015e-05
8.4987458e-05
-5.2207821e-05
9.4613838e-05
-4.796646e-05
0.00010329442
-4.3261229e-05
0.00011094659
-3.8143792e-05
0.00011749886
-3.2669445e-05
0.00012289141
-2.6896379e-05
0.00012707655
-2.0884967e-05
0.00013001899
-1.4697066e-05
0.00013169602
-8.395348e-06
0.00013209754
-2.0426436e-06
0.00013122601
4.2986752e-06
0.0001290962
1.0567371e-05
0.00012573492
1.6703882e-05
0.00012118051
2.2650947e-05
0.00011548232
2.8354143e-05
0.00010869997
3.3762388e-05
0.00010090259
3.8828358e-05
9.2167946e-05
4.3508835e-05
8.2581548e-05
4.776495e-05
7.2235679e-05
5.1562337e-05
6.1228463e-05
5.4871193e-05
4.9662922e-05
5.7666262e-05
3.764608e-05
5.9926766e-05
2.5288088e-05
6.1636291e-05
1.2701404e-05
6.2782667e-05
6.3357853e-05
-1.2727507e-05
7.608536e-05
-2.5340521e-05
7.539568e-05
-3.7725254e-05
7.4021024e-05
-4.9769351e-05
7.1970864e-05
-6.1362651e-05
6.9259561e-05
-7.239799e-05
6.5906532e-05
-8.2772073e-05
6.193642e-05
-9.238638e-05
5.7379257e-05
-0.00010114813
5.2270584e-05
-0.00010897126
4.6651489e-05
-0.00011577742
4.0568546e-05
-0.00012149691
3.4073639e-05
-0.00012606962
2.7223657e-05
-0.0001294458
2.0080063e-05
-0.0001315868
1.2708364e-05
-0.00013246561
5.1774839e-06
-0.00013206735
-2.4409026e-06
-0.00013038955
-1.0073146e-05
-0.00012744234
-1.7644272e-05
-0.00012324851
-2.5078798e-05
-0.00011784343
-3.2301461e-05
-0.00011127488
-3.923799e-05
-0.00010360278
-4.5815891e-05
-9.4898743e-05
-5.1965271e-05
-8.5245521e-05
-5.7619682e-05
-7.4736341e-05
-6.2717001e-05
-6.3474039e-05
-6.7200316e-05
-5.1570072e-05
-7.1018813e-05
-3.9143363e-05
-7.4128616e-05
-2.631901e-05
-7.6493574e-05
-1.3226862e-05
-7.8085929e-05
9.7518952e-15
-7.888686e-05
1.3226862e-05
-7.888686e-05
2.631901e-05
-7.8085929e-05
3.9143363e-05
-7.6493574e-05
5.1570072e-05
-7.4128616e-05
6.3474039e-05
-7.1018813e-05
7.4736341e-05
-6.7200316e-05
8.5245521e-05
-6.2717001e-05
9.4898743e-05
-5.7619682e-05
0.00010360278
-5.1965271e-05
0.00011127488
-4.5815891e-05
0.00011784343
-3.923799e-05
0.00012324851
-3.2301461e-05
0.00012744234
-2.5078798e-05
0.00013038955
-1.7644272e-05
0.00013206735
-1.0073146e-05
0.00013246561
-2.4409026e-06
0.0001315868
5.177484e-06
0.0001294458
1.2708364e-05
0.00012606962
2.0080063e-05
0.00012149691
2.7223657e-05
0.00011577742
3.4073639e-05
0.00010897126
4.0568546e-05
0.00010114813
4.6651489e-05
9.238638e-05
5.2270584e-05
8.2772073e-05
5.7379257e-05
7.239799e-05
6.193642e-05
6.1362651e-05
6.5906532e-05
4.9769351e-05
6.9259561e-05
3.7725254e-05
7.1970864e-05
2.5340521e-05
7.4021024e-05
1.2727507e-05
7.539568e-05
7.608536e-05
-1.2830569e-05
8.8915928e-05
-2.5546258e-05
8.8111369e-05
-3.8032844e-05
8.6507611e-05
-5.0177442e-05
8.4115461e-05
-6.1869228e-05
8.0951347e-05
-7.3000236e-05
7.7037541e-05
-8.346622e-05
7.2402403e-05
-9.3167588e-05
6.7080625e-05
-0.0001020104
6.1113398e-05
-0.00010990741
5.4548501e-05
-0.00011677912
4.7440247e-05
-0.00012255475
3.9849277e-05
-0.00012717329
3.1842195e-05
-0.00013058426
2.3491035e-05
-0.0001327485
1.4872603e-05
-0.00013363872
6.0677018e-06
-0.00013323994
-2.8396844e-06
-0.00013154976
-1.1763324e-05
-0.00012857852
-2.0615509e-05
-0.00012434932
-2.9308005e-05
-0.00011889789
-3.7752885e-05
-0.00011227248
-4.5863404e-05
-0.00010453347
-5.3554895e-05
-9.5753046e-05
-6.07457e-05
-8.6014586e-05
-6.7358142e-05
-7.5412042e-05
-7.3319545e-05
-6.4049087e-05
-7.8563271e-05
-5.2038134e-05
-8.3029766e-05
-3.9499186e-05
-8.6667565e-05
-2.6558535e-05
-8.9434225e-05
-1.3347325e-05
-9.1297139e-05
9.1972633e-15
-9.2234185e-05
1.3347325e-05
-9.2234185e-05
2.6558535e-05
-9.1297139e-05
3.9499186e-05
-8.9434225e-05
5.2038134e-05
-8.6667565e-05
6.4049087e-05
-8.3029766e-05
7.5412042e-05
-7.8563271e-05
8.6014586e-05
-7.3319545e-05
9.5753046e-05
-6.7358142e-05
0.00010453347
-6.07457e-05
0.00011227248
-5.3554895e-05
0.00011889789
-4.5863404e-05
0.00012434932
-3.7752885e-05
0.00012857852
-2.9308005e-05
0.00013154976
-2.0615509e-05
0.00013323994
-1.1763324e-05
0.00013363872
-2.8396844e-06
0.0001327485
6.0677018e-06
0.00013058426
1.4872603e-05
0.00012717329
2.3491035e-05
0.00012255475
3.1842195e-05
0.00011677912
3.9849277e-05
0.00010990741
4.7440247e-05
0.0001020104
5.4548502e-05
9.3167588e-05
6.1113398e-05
8.346622e-05
6.7080625e-05
7.3000236e-05
7.2402403e-05
6.1869228e-05
7.7037541e-05
5.0177442e-05
8.0951347e-05
3.8032844e-05
8.4115461e-05
2.5546258e-05
8.6507611e-05
1.2830569e-05
8.8111369e-05
8.8915928e-05
-1.3076789e-05
0.00010199272
-2.6037091e-05
0.00010107167
-3.8765021e-05
9.9235541e-05
-5.1145926e-05
9.6496366e-05
-6.3067084e-05
9.2872505e-05
-7.4418477e-05
8.8388934e-05
-8.5093674e-05
8.30776e-05
-9.4990799e-05
7.697775e-05
-0.00010401359
7.0136191e-05
-0.00011207253
6.2607435e-05
-0.00011908594
5.4453665e-05
-0.00012498117
4.5744506e-05
-0.00012969556
3.6556579e-05
-0.00013317738
2.6972855e-05
-0.0001353866
1.7081831e-05
-0.00013629549
6.976584e-06
-0.00013588895
-3.2462224e-06
-0.00013416482
-1.3487452e-05
-0.00013113394
-2.3646392e-05
-0.00012682011
-3.3621835e-05
-0.00012125998
-4.331301e-05
-0.00011450284
-5.2620542e-05
-0.0001066103
-6.1447437e-05
-9.7655886e-05
-6.9700116e-05
-8.7724526e-05
-7.7289503e-05
-7.6911893e-05
-8.4132178e-05
-6.5323585e-05
-9.0151579e-05
-5.3074148e-05
-9.5279203e-05
-4.0285919e-05
-9.9455794e-05
-2.7087708e-05
-0.00010263244
-1.3613328e-05
-0.00010477152
8.7853192e-15
-0.00010584751
1.3613328e-05
-0.00010584751
2.7087708e-05
-0.00010477152
4.0285919e-05
-0.00010263244
5.3074148e-05
-9.9455794e-05
6.5323585e-05
-9.5279203e-05
7.6911893e-05
-9.0151579e-05
8.7724526e-05
-8.4132178e-05
9.7655886e-05
-7.7289502e-05
0.0001066103
-6.9700116e-05
0.00011450284
-6.1447437e-05
0.00012125998
-5.2620542e-05
0.00012682011
-4.331301e-05
0.00013113394
-3.3621835e-05
0.00013416482
-2.3646392e-05
0.00013588895
-1.3487452e-05
0.00013629549
-3.2462224e-06
0.0001353866
6.976584e-06
0.00013317738
1.7081831e-05
0.00012969556
2.6972855e-05
0.00012498117
3.6556579e-05
0.00011908594
4.5744506e-05
0.00011207253
5.4453665e-05
0.00010401359
6.2607435e-05
9.4990799e-05
7.0136191e-05
8.5093674e-05
7.697775e-05
7.4418477e-05
8.30776e-05
6.3067083e-05
8.8388934e-05
5.1145926e-05
9.2872505e-05
3.8765021e-05
9.6496366e-05
2.6037091e-05
9.9235541e-05
1.3076789e-05
0.00010107167
0.00010199272
-1.3544771e-05
0.00011553749
-2.6969502e-05
0.0001144964
-4.0154697e-05
0.00011242074
-5.2981989e-05
0.00010932366
-6.5334807e-05
0.00010522532
-7.7099153e-05
0.00010015328
-8.8164504e-05
9.4142951e-05
-9.8424849e-05
8.7238095e-05
-0.00010777984
7.9491183e-05
-0.00011613603
7.0963624e-05
-0.00012340813
6.1725766e-05
-0.00012952027
5.1856642e-05
-0.00013440712
4.1443432e-05
-0.00013801493
3.058066e-05
-0.00014030227
1.9369179e-05
-0.00014124069
7.9150033e-06
-0.00014081501
-3.6719046e-06
-0.00013902351
-1.5278951e-05
-0.00013587796
-2.6791942e-05
-0.0001314035
-3.8096295e-05
-0.00012563847
-4.9078044e-05
-0.00011863414
-5.9624869e-05
-0.00011045444
-6.9627145e-05
-0.00010117549
-7.8979062e-05
-9.0885168e-05
-8.7579823e-05
-7.9682416e-05
-9.5334931e-05
-6.7676443e-05
-0.00010215755
-5.4985748e-05
-0.0001079699
-4.173694e-05
-0.0001127046
-2.8063386e-05
-0.00011630599
-1.4103683e-05
-0.00011873122
8.4860433e-15
-0.0001199512
1.4103683e-05
-0.0001199512
2.8063386e-05
-0.00011873122
4.173694e-05
-0.00011630599
5.4985748e-05
-0.0001127046
6.7676443e-05
-0.0001079699
7.9682416e-05
-0.00010215755
9.0885168e-05
-9.5334931e-05
0.00010117549
-8.7579823e-05
0.00011045444
-7.8979062e-05
0.00011863414
-6.9627145e-05
0.00012563847
-5.9624869e-05
0.0001314035
-4.9078044e-05
0.00013587796
-3.8096295e-05
0.00013902351
-2.6791942e-05
0.00014081501
-1.5278951e-05
0.00014124069
-3.6719046e-06
0.00014030227
7.9150033e-06
0.00013801493
1.9369179e-05
0.00013440712
3.058066e-05
0.00012952027
4.1443432e-05
0.00012340813
5.1856642e-05
0.00011613603
6.1725766e-05
0.00010777984
7.0963624e-05
9.8424849e-05
7.9491183e-05
8.8164504e-05
8.7238095e-05
7.7099153e-05
9.4142951e-05
6.5334807e-05
0.00010015328
5.2981989e-05
0.00010522532
4.0154697e-05
0.00010932366
2.6969502e-05
0.00011242074
1.3544771e-05
0.0001144964
0.00011553749
-1.432058e-05
0.00012985807
-2.8514825e-05
0.00012869065
-4.2456888e-05
0.0001263628
-5.6021955e-05
0.00012288872
-6.9086885e-05
0.00011829025
-8.1531007e-05
0.0001125974
-9.3237071e-05
0.00010584902
-0.00010409238
9.8093403e-05
-0.00011399007
8.9388875e-05
-0.00012283052
7.9804076e-05
-0.0001305228
6.9418046e-05
-0.00013698609
5.831993e-05
-0.00014215098
4.6608326e-05
-0.00014596062
3.4390294e-05
-0.00014837152
2.1780075e-05
-0.00014935415
8.8976421e-06
-0.00014889328
-4.1327809e-06
-0.00014698795
-1.7184282e-05
-0.00014365145
-3.0128438e-05
-0.0001389111
-4.2836644e-05
-0.00013280798
-5.5181163e-05
-0.00012539666
-6.7036195e-05
-0.00011674484
-7.8278963e-05
-0.000106933
-8.8790902e-05
-9.6053866e-05
-9.8458954e-05
-8.4211796e-05
-0.000107177
-7.1521953e-05
-0.00011484739
-5.8109313e-05
-0.00012138254
-4.4107444e-05
-0.00012670647
-2.9657093e-05
-0.00013075634
-1.4904572e-05
-0.00013348374
8.2304827e-15
-0.00013485577
1.4904572e-05
-0.00013485577
2.9657093e-05
-0.00013348374
4.4107444e-05
-0.00013075634
5.8109313e-05
-0.00012670647
7.1521953e-05
-0.00012138254
8.4211796e-05
-0.00011484739
9.6053866e-05
-0.000107177
0.000106933
-9.8458954e-05
0.00011674484
-8.8790902e-05
0.00012539666
-7.8278963e-05
0.00013280798
-6.7036195e-05
0.0001389111
-5.5181163e-05
0.00014365145
-4.2836644e-05
0.00014698795
-3.0128438e-05
0.00014889328
-1.7184282e-05
0.00014935415
-4.1327809e-06
0.00014837152
8.8976421e-06
0.00014596062
2.1780075e-05
0.00014215098
3.4390294e-05
0.00013698609
4.6608326e-05
0.0001305228
5.831993e-05
0.00012283052
6.9418046e-05
0.00011399007
7.9804076e-05
0.00010409238
8.9388875e-05
9.3237071e-05
9.8093403e-05
8.1531007e-05
0.00010584902
6.9086885e-05
0.0001125974
5.6021955e-05
0.00011829025
4.2456888e-05
0.00012288872
2.8514825e-05
0.0001263628
1.432058e-05
0.00012869065
0.00012985807
-1.5489578e-05
0.00014534765
-3.0842991e-05
0.00014404406
-4.5924516e-05
0.00014144432
-6.059937e-05
0.00013756358
-7.4734356e-05
0.00013242524
-8.8198682e-05
0.00012606173
-0.000100865
0.00011851533
-0.00011261067
0.00010983907
-0.00012331922
0.00010009743
-0.00013288202
8.9366871e-05
-0.00014119991
7.7735938e-05
-0.00014818494
6.530496e-05
-0.00015376186
5.2185243e-05
-0.00015786938
3.8497817e-05
-0.00016046113
2.4371823e-05
-0.00016150616
9.9426796e-06
-0.0001609892
-4.6497401e-06
-0.00015891052
-1.9262969e-05
-0.00015528568
-3.3753277e-05
-0.00015014523
-4.7977096e-05
-0.00014353432
-6.179207e-05
-0.0001355124
-7.505811e-05
-0.00012615288
-8.7638492e-05
-0.00011554269
-9.9401086e-05
-0.00010378189
-0.00011021976
-9.0982954e-05
-0.00011997594
-7.7269988e-05
-0.00012856036
-6.2777666e-05
-0.00013587486
-4.7649948e-05
-0.00014183419
-3.2038564e-05
-0.00014636773
-1.6101281e-05
-0.00014942103
7.9842086e-15
-0.00015095705
1.6101281e-05
-0.00015095705
3.2038564e-05
-0.00014942103
4.7649948e-05
-0.00014636773
6.2777666e-05
-0.00014183419
7.7269988e-05
-0.00013587486
9.0982954e-05
-0.00012856036
0.00010378189
-0.00011997594
0.00011554269
-0.00011021976
0.00012615288
-9.9401086e-05
0.0001355124
-8.7638492e-05
0.00014353432
-7.505811e-05
0.00015014523
-6.179207e-05
0.00015528568
-4.7977096e-05
0.00015891052
-3.3753277e-05
0.0001609892
-1.9262969e-05
0.00016150616
-4.6497401e-06
0.00016046113
9.9426797e-06
0.00015786938
2.4371823e-05
0.00015376186
3.8497817e-05
0.00014818494
5.2185243e-05
0.00014119991
6.530496e-05
0.00013288202
7.7735938e-05
0.00012331922
8.9366871e-05
0.00011261067
0.00010009743
0.000100865
0.00010983907
8.8198682e-05
0.00011851533
7.4734356e-05
0.00012606173
6.059937e-05
0.00013242524
4.5924516e-05
0.00013756358
3.0842991e-05
0.00014144432
1.5489578e-05
0.00014404406
0.00014534765
-1.7123901e-05
0.00016247155
-3.4097602e-05
0.00016101776
-5.0771299e-05
0.00015811802
-6.6996064e-05
0.00015378834
-8.2624492e-05
0.00014805367
-9.7511576e-05
0.00014094881
-0.00011151587
0.00013251962
-0.00012450092
0.00012282412
-0.00013633701
0.00011193352
-0.00014690307
9.9932931e-05
-0.00015608873
8.6921598e-05
-0.00016379631
7.3012547e-05
-0.00016994267
5.8331595e-05
-0.0001744606
4.3015754e-05
-0.00017729993
2.7211154e-05
-0.00017842796
1.1070709e-05
-0.00017782952
-5.2481792e-06
-0.00017550667
-2.1585825e-05
-0.00017147818
-3.7781768e-05
-0.00016577905
-5.3676225e-05
-0.00015846004
-6.9111076e-05
-0.00014958732
-8.3930834e-05
-0.0001392421
-9.7983705e-05
-0.00012752035
-0.00011112284
-0.00011453224
-0.00012320786
-0.00010040159
-0.00013410658
-8.5264963e-05
-0.00014369699
-6.9270531e-05
-0.00015186929
-5.2576712e-05
-0.00015852801
-3.5350488e-05
-0.00016359395
-1.7765512e-05
-0.000167006
7.670622e-15
-0.00016872256
1.7765512e-05
-0.00016872256
3.5350488e-05
-0.000167006
5.2576712e-05
-0.00016359395
6.9270531e-05
-0.00015852801
8.5264963e-05
-0.00015186929
0.00010040159
-0.00014369699
0.00011453224
-0.00013410658
0.00012752035
-0.00012320786
0.0001392421
-0.00011112284
0.00014958732
-9.7983705e-05
0.00015846004
-8.3930834e-05
0.00016577905
-6.9111076e-05
0.00017147818
-5.3676225e-05
0.00017550667
-3.7781768e-05
0.00017782952
-2.1585825e-05
0.00017842796
-5.2481792e-06
0.00017729993
1.1070709e-05
0.0001744606
2.7211154e-05
0.00016994267
4.3015754e-05
0.00016379631
5.8331595e-05
0.00015608873
7.3012547e-05
0.00014690307
8.6921598e-05
0.00013633701
9.9932931e-05
0.00012450092
0.00011193352
0.00011151587
0.00012282412
9.7511576e-05
0.00013251962
8.2624492e-05
0.00014094881
6.6996064e-05
0.00014805367
5.0771299e-05
0.00015378834
3.4097602e-05
0.00015811802
1.7123901e-05
0.00016101776
0.00016247155
-1.9264554e-05
0.0001817361
-3.8360276e-05
0.00018011348
-5.7118693e-05
0.00017687644
-7.5372161e-05
0.00017204181
-9.2954531e-05
0.00016563604
-0.00010970211
0.00015769639
-0.00012545495
0.00014827247
-0.00014005858
0.00013742775
-0.00015336598
0.00012524092
-0.00016523996
0.00011180691
-0.00017555561
9.7237246e-05
-0.00018420274
8.1659675e-05
-0.00019108809
6.5216941e-05
-0.00019613704
4.8064714e-05
-0.00019929478
3.0368887e-05
-0.00020052662
1.2302549e-05
-0.00019981785
-5.9569505e-06
-0.00019717304
-2.4230633e-05
-0.00019261524
-4.2339566e-05
-0.00018618522
-6.0106243e-05
-0.00017794092
-7.7355376e-05
-0.00016795709
-9.3914669e-05
-0.00015632501
-0.00010961578
-0.00014315224
-0.00012429561
-0.00012856216
-0.00013779794
-0.00011269333
-0.00014997541
-9.5698565e-05
-0.00016069176
-7.7743693e-05
-0.00016982417
-5.9006007e-05
-0.00017726569
-3.9672401e-05
-0.00018292755
-1.993724e-05
-0.00018674116
7.1245614e-15
-0.0001886598
1.993724e-05
-0.0001886598
3.9672401e-05
-0.00018674116
5.9006007e-05
-0.00018292755
7.7743693e-05
-0.00017726569
9.5698565e-05
-0.00016982417
0.00011269333
-0.00016069176
0.00012856216
-0.00014997541
0.00014315224
-0.00013779794
0.00015632501
-0.00012429561
0.00016795709
-0.00010961578
0.00017794092
-9.3914669e-05
0.00018618522
-7.7355376e-05
0.00019261524
-6.0106243e-05
0.00019717304
-4.2339566e-05
0.00019981785
-2.4230633e-05
0.00020052662
-5.9569505e-06
0.00019929478
1.2302549e-05
0.00019613704
3.0368887e-05
0.00019108809
4.8064714e-05
0.00018420274
6.5216941e-05
0.00017555561
8.1659675e-05
0.00016523996
9.7237246e-05
0.00015336598
0.00011180691
0.00014005858
0.00012524092
0.00012545495
0.00013742775
0.00010970211
0.00014827247
9.2954531e-05
0.00015769639
7.5372161e-05
0.00016563604
5.7118693e-05
0.00017204181
3.8360276e-05
0.00017687644
1.9264554e-05
0.00018011348
0.0001817361
-2.1897408e-05
0.00020363351
-4.3602869e-05
0.00020181895
-6.4924769e-05
0.00019819834
-8.5672284e-05
0.00019278933
-0.00010565609
0.00018561984
-0.0001246894
0.0001767297
-0.00014258948
0.00016617255
-0.00015917961
0.00015401788
-0.0001742915
0.00014035281
-0.00018776812
0.00012528354
-0.00019946674
0.00010893587
-0.00020926192
9.1454855e-05
-0.00021704823
7.3003247e-05
-0.00022274231
5.3758797e-05
-0.00022628413
3.39107e-05
-0.00022763715
1.3655572e-05
-0.00022678775
-6.8063493e-06
-0.00022374399
-2.7274393e-05
-0.00021853431
-4.7549248e-05
-0.00021120648
-6.743407e-05
-0.000201827
-8.6734854e-05
-0.00019048082
-0.00010526085
-0.00017727125
-0.00012282536
-0.00016231979
-0.00013924707
-0.00014576584
-0.0001543519
-0.00012776596
-0.0001679753
-0.00010849289
-0.00017996483
-8.813412e-05
-0.00019018293
-6.6890146e-05
-0.00019850967
-4.4972311e-05
-0.00020484539
-2.2600407e-05
-0.00020911307
6.1121855e-15
-0.00021126021
2.2600407e-05
-0.00021126021
4.4972311e-05
-0.00020911307
6.6890146e-05
-0.00020484539
8.813412e-05
-0.00019850967
0.00010849289
-0.00019018293
0.00012776596
-0.00017996483
0.00014576584
-0.0001679753
0.00016231979
-0.0001543519
0.00017727125
-0.00013924707
0.00019048082
-0.00012282536
0.000201827
-0.00010526085
0.00021120648
-8.6734853e-05
0.00021853431
-6.743407e-05
0.00022374399
-4.7549248e-05
0.00022678775
-2.7274393e-05
0.00022763715
-6.8063493e-06
0.00022628413
1.3655572e-05
0.00022274231
3.39107e-05
0.00021704823
5.3758797e-05
0.00020926192
7.3003247e-05
0.00019946674
9.1454855e-05
0.00018776812
0.00010893587
0.0001742915
0.00012528354
0.00015917961
0.00014035281
0.00014258948
0.00015401788
0.0001246894
0.00016617255
0.00010565609
0.0001767297
8.5672284e-05
0.00018561984
6.4924769e-05
0.00019278933
4.3602869e-05
0.00019819834
2.1897408e-05
0.00020181895
0.00020363351
-2.4923053e-05
0.00022855656
-4.9627465e-05
0.00022652336
-7.3894897e-05
0.00022246577
-9.7507767e-05
0.0002164022
-0.00012024999
0.00020836206
-0.00014190813
0.00019838784
-0.00016227309
0.00018653751
-0.00018114242
0.0001728872
-0.00019832317
0.00015753357
-0.00021363535
0.00014059572
-0.0002269156
0.00012221612
-0.00023802098
0.00010256023
-0.00024683231
8.1814577e-05
-0.00025325674
6.0183224e-05
-0.00025722905
3.7883015e-05
-0.00025871162
1.5138144e-05
-0.00025769306
-7.824912e-06
-0.00025418616
-3.0781291e-05
-0.00024822588
-5.3509535e-05
-0.00023986788
-7.5792066e-05
-0.000229188
-9.7414729e-05
-0.00021628226
-0.00011816659
-0.00020126712
-0.0001378405
-0.0001842796
-0.00015623458
-0.0001654771
-0.00017315439
-0.00014503667
-0.00018841573
-0.00012315382
-0.00020184767
-0.00010004095
-0.0002132958
-7.5925193e-05
-0.00022262543
-5.1046016e-05
-0.00022972457
-2.5652436e-05
-0.00023450665
4.6354146e-15
-0.00023691264
2.5652436e-05
-0.00023691264
5.1046016e-05
-0.00023450665
7.5925193e-05
-0.00022972457
0.00010004095
-0.00022262543
0.00012315382
-0.0002132958
0.00014503667
-0.00020184767
0.0001654771
-0.00018841573
0.0001842796
-0.00017315439
0.00020126712
-0.00015623458
0.00021628226
-0.0001378405
0.000229188
-0.00011816659
0.00023986788
-9.7414729e-05
0.00024822588
-7.5792066e-05
0.00025418616
-5.3509535e-05
0.00025769306
-3.0781291e-05
0.00025871162
-7.824912e-06
0.00025722905
1.5138144e-05
0.00025325674
3.7883015e-05
0.00024683231
6.0183224e-05
0.00023802098
8.1814577e-05
0.0002269156
0.00010256023
0.00021363535
0.00012221612
0.00019832317
0.00014059572
0.00018114242
0.00015753357
0.00016227309
0.0001728872
0.00014190813
0.00018653751
0.00012024999
0.00019838784
9.7507767e-05
0.00020836206
7.3894897e-05
0.0002164022
4.9627465e-05
0.00022246577
2.4923053e-05
0.00022652336
0.00022855656
-2.8121532e-05
0.00025667809
-5.5996165e-05
0.00025439799
-8.3377262e-05
0.00024984687
-0.00011001888
0.00024304381
-0.00013567653
0.00023401971
-0.0001601084
0.00022281971
-0.00018307725
0.00020950637
-0.00020435302
0.00019416297
-0.00022371619
0.00017689675
-0.00024096195
0.00015784147
-0.00025590469
0.00013715886
-0.00026838274
0.00011503829
-0.00027826265
9.1694482e-05
-0.00028544229
6.7362868e-05
-0.00028985243
4.2293154e-05
-0.0002914561
1.6741816e-05
-0.00029024616
-9.0348552e-06
-0.00028624181
-3.478564e-05
-0.00027948546
-6.0265881e-05
-0.00027004087
-8.523666e-05
-0.0002579928
-0.0001094628
-0.00024344775
-0.00013271164
-0.00022653491
-0.00015475334
-0.00020740679
-0.0001753627
-0.00018623918
-0.00019432201
-0.0001632304
-0.0002114245
-0.00013859997
-0.00022647811
-0.00011258655
-0.00023930922
-8.5445551e-05
-0.00024976643
-5.7446245e-05
-0.00025772387
-2.8868627e-05
-0.00026308427
2.7634776e-15
-0.00026578127
2.8868627e-05
-0.00026578127
5.7446245e-05
-0.00026308427
8.5445551e-05
-0.00025772387
0.00011258655
-0.00024976643
0.00013859997
-0.00023930922
0.0001632304
-0.00022647811
0.00018623918
-0.0002114245
0.00020740679
-0.00019432201
0.00022653491
-0.0001753627
0.00024344775
-0.00015475334
0.0002579928
-0.00013271164
0.00027004087
-0.0001094628
0.00027948546
-8.523666e-05
0.00028624181
-6.0265881e-05
0.00029024616
-3.478564e-05
0.0002914561
-9.0348552e-06
0.00028985243
1.6741816e-05
0.00028544229
4.2293154e-05
0.00027826265
6.7362868e-05
0.00026838274
9.1694482e-05
0.00025590469
0.00011503829
0.00024096195
0.00013715886
0.00022371619
0.00015784147
0.00020435302
0.00017689675
0.00018307725
0.00019416297
0.0001601084
0.00020950637