/*--------------------------------*- C++ -*----------------------------------*\
| =========                 |                                                 |
| \\      /  F ield         | OpenFOAM: The Open Source CFD Toolbox           |
|  \\    /   O peration     | Version:  2106                                  |
|   \\  /    A nd           | Website:  www.openfoam.com                      |
|    \\/     M anipulation  |                                                 |
\*---------------------------------------------------------------------------*/
FoamFile
{
    version     2.0;
    format      ascii;
    arch        "LSB;label=32;scalar=64";
    class       volVectorField;
    location    "0.041";
    object      U;
}
// * * * * * * * * * * * * * * * * * * * * * * * * * * * * * * * * * * * * * //

dimensions      [0 1 -1 0 0 0 0];

internalField   nonuniform List<vector> 
4096
(
(-0.00040320365 0.00040178472 0)
(-0.0012059389 0.00039812335 0)
(-0.0019976846 0.00039082711 0)
(-0.0027712025 0.00037994922 0)
(-0.0035193879 0.00036556991 0)
(-0.0042353237 0.0003477969 0)
(-0.0049123357 0.0003267658 0)
(-0.0055440495 0.00030264048 0)
(-0.0061244467 0.00027561318 0)
(-0.0066479222 0.00024590439 0)
(-0.0071093402 0.00021376224 0)
(-0.0075040893 0.00017946151 0)
(-0.0078281341 0.00014330213 0)
(-0.008078064 0.00010560712 0)
(-0.0082511389 6.6720068e-05 0)
(-0.0083453224 2.7003559e-05 0)
(-0.0083593262 -1.3167032e-05 0)
(-0.0082926207 -5.3404671e-05 0)
(-0.0081454648 -9.331473e-05 0)
(-0.0079189121 -0.00013249935 0)
(-0.0076148139 -0.00017056153 0)
(-0.0072358137 -0.00020710938 0)
(-0.0067853325 -0.00024176056 0)
(-0.0062675452 -0.00027414683 0)
(-0.0056873476 -0.0003039187 0)
(-0.0050503146 -0.00033075011 0)
(-0.004362648 -0.00035434311 0)
(-0.0036311164 -0.00037443235 0)
(-0.0028629845 -0.00039078927 0)
(-0.0020659365 -0.00040322599 0)
(-0.0012479902 -0.00041159853 0)
(-0.0004174064 -0.0004158094 0)
(0.00041740641 -0.0004158094 0)
(0.0012479902 -0.00041159853 0)
(0.0020659365 -0.00040322599 0)
(0.0028629845 -0.00039078927 0)
(0.0036311164 -0.00037443235 0)
(0.004362648 -0.00035434311 0)
(0.0050503146 -0.00033075011 0)
(0.0056873476 -0.0003039187 0)
(0.0062675452 -0.00027414683 0)
(0.0067853325 -0.00024176056 0)
(0.0072358137 -0.00020710938 0)
(0.0076148139 -0.00017056153 0)
(0.0079189121 -0.00013249935 0)
(0.0081454648 -9.331473e-05 0)
(0.0082926207 -5.3404671e-05 0)
(0.0083593262 -1.3167032e-05 0)
(0.0083453224 2.7003559e-05 0)
(0.0082511389 6.6720068e-05 0)
(0.008078064 0.00010560712 0)
(0.0078281341 0.00014330213 0)
(0.0075040893 0.00017946151 0)
(0.0071093402 0.00021376224 0)
(0.0066479222 0.00024590439 0)
(0.0061244467 0.00027561318 0)
(0.0055440495 0.00030264048 0)
(0.0049123357 0.0003267658 0)
(0.0042353237 0.0003477969 0)
(0.0035193879 0.00036556991 0)
(0.0027712025 0.00037994922 0)
(0.0019976846 0.00039082711 0)
(0.0012059389 0.00039812335 0)
(0.00040320364 0.00040178472 0)
(-0.00040498834 0.0012068555 0)
(-0.0012112815 0.0011958616 0)
(-0.0020065504 0.0011739531 0)
(-0.002783533 0.0011412892 0)
(-0.0035350996 0.0010981103 0)
(-0.0042543067 0.001044739 0)
(-0.0049344527 0.00098158168 0)
(-0.0055691345 0.00090912957 0)
(-0.0061523041 0.00082795925 0)
(-0.0066783269 0.00073873218 0)
(-0.0071420378 0.00064219312 0)
(-0.0075387972 0.00053916705 0)
(-0.0078645438 0.00043055468 0)
(-0.0081158436 0.00031732637 0)
(-0.0082899356 0.00020051469 0)
(-0.0083847691 8.1206638e-05 0)
(-0.0083990397 -3.9467677e-05 0)
(-0.0083322118 -0.00016034565 0)
(-0.0081845391 -0.00028024204 0)
(-0.0079570749 -0.00039796157 0)
(-0.0076516745 -0.00051231149 0)
(-0.0072709893 -0.00062211435 0)
(-0.0068184526 -0.00072622128 0)
(-0.0062982556 -0.00082352569 0)
(-0.0057153151 -0.00091297721 0)
(-0.005075231 -0.00099359579 0)
(-0.0043842348 -0.0010644857 0)
(-0.0036491289 -0.001124849 0)
(-0.0028772164 -0.0011739985 0)
(-0.0020762227 -0.0012113691 0)
(-0.0012542107 -0.0012365276 0)
(-0.00041948806 -0.0012491809 0)
(0.00041948806 -0.0012491809 0)
(0.0012542107 -0.0012365276 0)
(0.0020762227 -0.0012113691 0)
(0.0028772164 -0.0011739985 0)
(0.0036491289 -0.001124849 0)
(0.0043842348 -0.0010644857 0)
(0.005075231 -0.00099359578 0)
(0.0057153151 -0.00091297721 0)
(0.0062982556 -0.00082352569 0)
(0.0068184526 -0.00072622128 0)
(0.0072709893 -0.00062211435 0)
(0.0076516745 -0.00051231149 0)
(0.0079570749 -0.00039796157 0)
(0.0081845391 -0.00028024204 0)
(0.0083322118 -0.00016034564 0)
(0.0083990397 -3.9467676e-05 0)
(0.0083847691 8.1206639e-05 0)
(0.0082899356 0.00020051469 0)
(0.0081158436 0.00031732637 0)
(0.0078645438 0.00043055468 0)
(0.0075387972 0.00053916705 0)
(0.0071420378 0.00064219312 0)
(0.0066783269 0.00073873218 0)
(0.0061523041 0.00082795925 0)
(0.0055691345 0.00090912957 0)
(0.0049344527 0.00098158168 0)
(0.0042543067 0.001044739 0)
(0.0035350996 0.0010981103 0)
(0.002783533 0.0011412892 0)
(0.0020065504 0.0011739531 0)
(0.0012112815 0.0011958616 0)
(0.00040498833 0.0012068555 0)
(-0.00040603514 0.0020157542 0)
(-0.0012144193 0.0019974052 0)
(-0.0020117707 0.0019608388 0)
(-0.0027908202 0.001906319 0)
(-0.0035444286 0.0018342441 0)
(-0.0042656402 0.0017451498 0)
(-0.004947738 0.0016397112 0)
(-0.0055843007 0.0015187452 0)
(-0.0061692595 0.0013832117 0)
(-0.0066969572 0.0012342127 0)
(-0.0071622052 0.0010729903 0)
(-0.0075603404 0.00090092134 0)
(-0.0078872792 0.00071950984 0)
(-0.0081395673 0.0005303769 0)
(-0.0083144258 0.00033524817 0)
(-0.0084097902 0.00013593948 0)
(-0.0084243439 -6.566062e-05 0)
(-0.0083575438 -0.00026760832 0)
(-0.0082096388 -0.0004679231 0)
(-0.0079816804 -0.00066460792 0)
(-0.0076755247 -0.00085566982 0)
(-0.0072938266 -0.0010391413 0)
(-0.0068400253 -0.0012131025 0)
(-0.0063183207 -0.0013757037 0)
(-0.0057336413 -0.0015251889 0)
(-0.0050916019 -0.0016599191 0)
(-0.0043984526 -0.0017783957 0)
(-0.0036610179 -0.0018792836 0)
(-0.0028866266 -0.0019614322 0)
(-0.0020830334 -0.0020238954 0)
(-0.0012583332 -0.0020659477 0)
(-0.00042086829 -0.0020870978 0)
(0.0004208683 -0.0020870978 0)
(0.0012583332 -0.0020659477 0)
(0.0020830334 -0.0020238954 0)
(0.0028866266 -0.0019614322 0)
(0.0036610179 -0.0018792836 0)
(0.0043984526 -0.0017783957 0)
(0.0050916019 -0.0016599191 0)
(0.0057336413 -0.0015251889 0)
(0.0063183207 -0.0013757037 0)
(0.0068400253 -0.0012131025 0)
(0.0072938266 -0.0010391413 0)
(0.0076755247 -0.00085566982 0)
(0.0079816804 -0.00066460792 0)
(0.0082096388 -0.0004679231 0)
(0.0083575438 -0.00026760832 0)
(0.0084243439 -6.5660619e-05 0)
(0.0084097902 0.00013593948 0)
(0.0083144258 0.00033524817 0)
(0.0081395673 0.0005303769 0)
(0.0078872792 0.00071950984 0)
(0.0075603404 0.00090092134 0)
(0.0071622052 0.0010729903 0)
(0.0066969572 0.0012342127 0)
(0.0061692595 0.0013832117 0)
(0.0055843007 0.0015187452 0)
(0.004947738 0.0016397112 0)
(0.0042656402 0.0017451498 0)
(0.0035444286 0.0018342441 0)
(0.0027908202 0.001906319 0)
(0.0020117707 0.0019608388 0)
(0.0012144193 0.0019974052 0)
(0.00040603514 0.0020157542 0)
(-0.00040627703 0.002825926 0)
(-0.0012151522 0.0028002264 0)
(-0.0020130157 0.0027490096 0)
(-0.0027926096 0.0026726419 0)
(-0.0035468024 0.0025716767 0)
(-0.0042686417 0.0024468586 0)
(-0.0049514084 0.0022991276 0)
(-0.0055886742 0.0021296223 0)
(-0.0061743586 0.0019396828 0)
(-0.006702789 0.0017308498 0)
(-0.007168759 0.0015048612 0)
(-0.0075675866 0.0012636458 0)
(-0.0078951694 0.001009312 0)
(-0.0081480359 0.00074413386 0)
(-0.0083233922 0.00047053242 0)
(-0.0084191613 0.00019105539 0)
(-0.0084340171 -9.1647133e-05 0)
(-0.0083674095 -0.00037484773 0)
(-0.0082195826 -0.00065576823 0)
(-0.0079915842 -0.00093160765 0)
(-0.0076852681 -0.001199571 0)
(-0.0073032876 -0.0014568991 0)
(-0.0068490812 -0.0017008992 0)
(-0.0063268489 -0.0019289764 0)
(-0.0057415209 -0.0021386665 0)
(-0.0050987157 -0.0023276688 0)
(-0.0044046896 -0.0024938787 0)
(-0.0036662761 -0.0026354203 0)
(-0.0028908167 -0.0027506766 0)
(-0.0020860818 -0.0028383168 0)
(-0.0012601849 -0.0028973207 0)
(-0.00042148939 -0.0029269971 0)
(0.00042148939 -0.0029269971 0)
(0.0012601849 -0.0028973207 0)
(0.0020860819 -0.0028383168 0)
(0.0028908167 -0.0027506766 0)
(0.0036662761 -0.0026354203 0)
(0.0044046896 -0.0024938787 0)
(0.0050987157 -0.0023276688 0)
(0.0057415209 -0.0021386665 0)
(0.0063268489 -0.0019289764 0)
(0.0068490812 -0.0017008992 0)
(0.0073032876 -0.0014568991 0)
(0.0076852681 -0.001199571 0)
(0.0079915842 -0.00093160765 0)
(0.0082195826 -0.00065576822 0)
(0.0083674095 -0.00037484773 0)
(0.0084340171 -9.1647132e-05 0)
(0.0084191613 0.00019105539 0)
(0.0083233922 0.00047053242 0)
(0.0081480359 0.00074413386 0)
(0.0078951694 0.001009312 0)
(0.0075675866 0.0012636458 0)
(0.007168759 0.0015048612 0)
(0.006702789 0.0017308498 0)
(0.0061743586 0.0019396828 0)
(0.0055886742 0.0021296223 0)
(0.0049514084 0.0022991276 0)
(0.0042686417 0.0024468586 0)
(0.0035468024 0.0025716767 0)
(0.0027926096 0.0026726419 0)
(0.0020130157 0.0027490096 0)
(0.0012151522 0.0028002264 0)
(0.00040627703 0.002825926 0)
(-0.00040624348 0.0036358343 0)
(-0.0012150642 0.0036028076 0)
(-0.0020129098 0.0035369857 0)
(-0.0027925434 0.0034388336 0)
(-0.0035468492 0.0033090546 0)
(-0.0042688838 0.0031485965 0)
(-0.0049519307 0.0029586578 0)
(-0.0055895565 0.0027406934 0)
(-0.0061756695 0.0024964181 0)
(-0.0067045806 0.0022278071 0)
(-0.0071710637 0.0019370922 0)
(-0.0075704157 0.0016267531 0)
(-0.0078985132 0.0012995033 0)
(-0.0081518662 0.00095827106 0)
(-0.0083276647 0.00060617553 0)
(-0.0084238199 0.00024649888 0)
(-0.0084389971 -0.00011734484 0)
(-0.0083726406 -0.00048184276 0)
(-0.0082249906 -0.00084341781 0)
(-0.0079970927 -0.0011984645 0)
(-0.0076907986 -0.0015433858 0)
(-0.0073087591 -0.0018746308 0)
(-0.00685441 -0.0021887339 0)
(-0.006331949 -0.0024823546 0)
(-0.005746304 -0.0027523197 0)
(-0.0051030931 -0.0029956647 0)
(-0.0044085742 -0.0032096768 0)
(-0.0036695855 -0.0033919364 0)
(-0.0028934766 -0.0035403566 0)
(-0.0020880298 -0.0036532195 0)
(-0.0012613735 -0.003729207 0)
(-0.00042188894 -0.0037674263 0)
(0.00042188894 -0.0037674263 0)
(0.0012613735 -0.003729207 0)
(0.0020880298 -0.0036532195 0)
(0.0028934766 -0.0035403566 0)
(0.0036695855 -0.0033919364 0)
(0.0044085742 -0.0032096768 0)
(0.0051030931 -0.0029956647 0)
(0.005746304 -0.0027523197 0)
(0.006331949 -0.0024823546 0)
(0.00685441 -0.0021887338 0)
(0.0073087591 -0.0018746308 0)
(0.0076907986 -0.0015433858 0)
(0.0079970927 -0.0011984645 0)
(0.0082249906 -0.00084341781 0)
(0.0083726406 -0.00048184276 0)
(0.0084389971 -0.00011734484 0)
(0.0084238199 0.00024649888 0)
(0.0083276647 0.00060617553 0)
(0.0081518662 0.00095827106 0)
(0.0078985132 0.0012995033 0)
(0.0075704157 0.0016267531 0)
(0.0071710637 0.0019370922 0)
(0.0067045806 0.0022278071 0)
(0.0061756695 0.0024964181 0)
(0.0055895565 0.0027406934 0)
(0.0049519307 0.0029586578 0)
(0.0042688838 0.0031485965 0)
(0.0035468491 0.0033090546 0)
(0.0027925434 0.0034388336 0)
(0.0020129098 0.0035369857 0)
(0.0012150642 0.0036028076 0)
(0.00040624348 0.0036358343 0)
(-0.00040703297 0.0044457764 0)
(-0.0012174407 0.0044054494 0)
(-0.0020168961 0.0043250731 0)
(-0.0027981728 0.0042052065 0)
(-0.003554159 0.0040466965 0)
(-0.0042779078 0.0038506864 0)
(-0.0049626899 0.0036186253 0)
(-0.0056020509 0.0033522763 0)
(-0.0061898708 0.0030537228 0)
(-0.0067204268 0.0027253701 0)
(-0.0071884561 0.0023699412 0)
(-0.0075892189 0.0019904664 0)
(-0.0079185579 0.0015902662 0)
(-0.0081729537 0.0011729266 0)
(-0.0083495737 0.00074226874 0)
(-0.0084463133 0.00030231381 0)
(-0.0084618285 -0.0001427563 0)
(-0.00839556 -0.00058864032 0)
(-0.0082477491 -0.0010309604 0)
(-0.0080194448 -0.0014653059 0)
(-0.0077125035 -0.0018872776 0)
(-0.0073295818 -0.0022925335 0)
(-0.0068741211 -0.0026768356 0)
(-0.0063503253 -0.0030360978 0)
(-0.0057631301 -0.0033664366 0)
(-0.0051181636 -0.0036642222 0)
(-0.0044216968 -0.0039261306 0)
(-0.0036805858 -0.0041491951 0)
(-0.0029022024 -0.0043308552 0)
(-0.0020943562 -0.0044690016 0)
(-0.0012652076 -0.0045620156 0)
(-0.00042317344 -0.0046087997 0)
(0.00042317344 -0.0046087997 0)
(0.0012652076 -0.0045620156 0)
(0.0020943562 -0.0044690016 0)
(0.0029022024 -0.0043308552 0)
(0.0036805858 -0.0041491951 0)
(0.0044216968 -0.0039261306 0)
(0.0051181636 -0.0036642222 0)
(0.0057631301 -0.0033664366 0)
(0.0063503253 -0.0030360978 0)
(0.0068741211 -0.0026768356 0)
(0.0073295818 -0.0022925335 0)
(0.0077125035 -0.0018872776 0)
(0.0080194448 -0.0014653059 0)
(0.0082477491 -0.0010309604 0)
(0.00839556 -0.00058864032 0)
(0.0084618285 -0.0001427563 0)
(0.0084463133 0.00030231381 0)
(0.0083495737 0.00074226874 0)
(0.0081729537 0.0011729266 0)
(0.0079185579 0.0015902662 0)
(0.0075892189 0.0019904664 0)
(0.0071884561 0.0023699412 0)
(0.0067204268 0.0027253701 0)
(0.0061898708 0.0030537228 0)
(0.0056020509 0.0033522763 0)
(0.0049626899 0.0036186253 0)
(0.0042779078 0.0038506864 0)
(0.003554159 0.0040466965 0)
(0.0027981728 0.0042052065 0)
(0.0020168961 0.0043250731 0)
(0.0012174407 0.0044054494 0)
(0.00040703297 0.0044457764 0)
(-0.00041028081 0.0052587771 0)
(-0.0012271728 0.0052111544 0)
(-0.0020330765 0.0051162303 0)
(-0.0028207362 0.004974652 0)
(-0.0035830035 0.0047874018 0)
(-0.0043128855 0.0045558096 0)
(-0.0050035978 0.0042815658 0)
(-0.0056486213 0.0039667337 0)
(-0.0062417651 0.003613759 0)
(-0.0067772309 0.003225473 0)
(-0.0072496806 0.0028050896 0)
(-0.0076543031 0.0023561928 0)
(-0.0079868776 0.0018827153 0)
(-0.0082438323 0.0013889088 0)
(-0.0084222951 0.00087930553 0)
(-0.0085201362 0.00035867495 0)
(-0.0085359997 -0.0001680249 0)
(-0.0084693264 -0.00069569752 0)
(-0.0083203667 -0.0012191593 0)
(-0.0080901865 -0.0017331909 0)
(-0.0077806643 -0.0022325893 0)
(-0.0073944824 -0.00271222 0)
(-0.0069351116 -0.0031670713 0)
(-0.0064067884 -0.0035923099 0)
(-0.0058144856 -0.0039833393 0)
(-0.0051638735 -0.0043358607 0)
(-0.0044612724 -0.0046459341 0)
(-0.0037135944 -0.0049100399 0)
(-0.0029282759 -0.0051251382 0)
(-0.0021131984 -0.005288723 0)
(-0.0012766015 -0.0053988696 0)
(-0.00042698626 -0.0054542726 0)
(0.00042698626 -0.0054542726 0)
(0.0012766015 -0.0053988696 0)
(0.0021131984 -0.005288723 0)
(0.0029282759 -0.0051251382 0)
(0.0037135944 -0.0049100399 0)
(0.0044612724 -0.0046459341 0)
(0.0051638735 -0.0043358607 0)
(0.0058144856 -0.0039833393 0)
(0.0064067884 -0.0035923099 0)
(0.0069351116 -0.0031670713 0)
(0.0073944824 -0.00271222 0)
(0.0077806643 -0.0022325893 0)
(0.0080901865 -0.0017331909 0)
(0.0083203667 -0.0012191593 0)
(0.0084693264 -0.00069569752 0)
(0.0085359997 -0.0001680249 0)
(0.0085201362 0.00035867495 0)
(0.0084222951 0.00087930553 0)
(0.0082438323 0.0013889088 0)
(0.0079868776 0.0018827153 0)
(0.0076543031 0.0023561928 0)
(0.0072496806 0.0028050896 0)
(0.0067772309 0.003225473 0)
(0.0062417651 0.003613759 0)
(0.0056486213 0.0039667337 0)
(0.0050035978 0.0042815658 0)
(0.0043128855 0.0045558096 0)
(0.0035830035 0.0047874018 0)
(0.0028207362 0.004974652 0)
(0.0020330765 0.0051162303 0)
(0.0012271728 0.0052111544 0)
(0.0004102808 0.0052587771 0)
(-0.00041810923 0.0060816247 0)
(-0.0012506077 0.0060266549 0)
(-0.0020719649 0.0059170766 0)
(-0.0028748174 0.0057536186 0)
(-0.0036519009 0.0055373903 0)
(-0.0043960972 0.0052698984 0)
(-0.0051004871 0.0049530652 0)
(-0.0057584087 0.0045892467 0)
(-0.0063635234 0.004181246 0)
(-0.0069098852 0.0037323205 0)
(-0.0073920137 0.003246179 0)
(-0.0078049667 0.002726968 0)
(-0.0081444098 0.0021792461 0)
(-0.0084066787 0.0016079466 0)
(-0.0085888341 0.0010183312 0)
(-0.008688704 0.00041593551 0)
(-0.0087049153 -0.00019348949 0)
(-0.0086369137 -0.00080403758 0)
(-0.0084849737 -0.0014097076 0)
(-0.0082502006 -0.0020044627 0)
(-0.0079345246 -0.0025822888 0)
(-0.0075406906 -0.0031372531 0)
(-0.0070722412 -0.0036635645 0)
(-0.0065334944 -0.0041556364 0)
(-0.0059295149 -0.0046081526 0)
(-0.005266076 -0.0050161369 0)
(-0.0045496138 -0.0053750242 0)
(-0.0037871693 -0.0056807324 0)
(-0.0029863207 -0.0059297324 0)
(-0.0021551043 -0.0061191121 0)
(-0.0013019249 -0.0062466336 0)
(-0.00043545758 -0.0063107781 0)
(0.00043545758 -0.0063107781 0)
(0.0013019249 -0.0062466336 0)
(0.0021551043 -0.0061191121 0)
(0.0029863207 -0.0059297324 0)
(0.0037871693 -0.0056807324 0)
(0.0045496138 -0.0053750242 0)
(0.005266076 -0.0050161369 0)
(0.0059295149 -0.0046081526 0)
(0.0065334944 -0.0041556364 0)
(0.0070722412 -0.0036635645 0)
(0.0075406906 -0.0031372531 0)
(0.0079345246 -0.0025822888 0)
(0.0082502006 -0.0020044627 0)
(0.0084849737 -0.0014097076 0)
(0.0086369137 -0.00080403758 0)
(0.0087049153 -0.00019348949 0)
(0.008688704 0.00041593551 0)
(0.0085888341 0.0010183312 0)
(0.0084066787 0.0016079466 0)
(0.0081444098 0.0021792461 0)
(0.0078049667 0.002726968 0)
(0.0073920137 0.003246179 0)
(0.0069098852 0.0037323205 0)
(0.0063635234 0.004181246 0)
(0.0057584087 0.0045892467 0)
(0.0051004871 0.0049530652 0)
(0.0043960972 0.0052698984 0)
(0.0036519008 0.0055373903 0)
(0.0028748174 0.0057536186 0)
(0.0020719649 0.0059170766 0)
(0.0012506077 0.0060266549 0)
(0.00041810923 0.0060816247 0)
(-0.00043303795 0.0069257966 0)
(-0.0012952813 0.0068633287 0)
(-0.0021460441 0.0067387905 0)
(-0.0029777302 0.0065529857 0)
(-0.0037828351 0.0063071421 0)
(-0.0045539914 0.0060029336 0)
(-0.0052840218 0.0056425062 0)
(-0.0059660014 0.0052285034 0)
(-0.0065933277 0.0047640854 0)
(-0.0071597975 0.0042529413 0)
(-0.0076596876 0.0036992873 0)
(-0.008087836 0.003107852 0)
(-0.0084397194 0.0024838449 0)
(-0.0087115227 0.0018329114 0)
(-0.0089001968 0.0011610744 0)
(-0.0090035033 0.00047466772 0)
(-0.009020044 -0.00021973438 0)
(-0.0089492771 -0.00091538948 0)
(-0.0087915228 -0.0016054564 0)
(-0.0085479593 -0.0022830619 0)
(-0.0082206139 -0.002941365 0)
(-0.007812349 -0.0035736206 0)
(-0.0073268442 -0.0041732451 0)
(-0.0067685739 -0.0047338845 0)
(-0.0061427792 -0.0052494884 0)
(-0.0054554309 -0.0057143873 0)
(-0.0047131839 -0.0061233746 0)
(-0.0039233205 -0.0064717892 0)
(-0.0030936814 -0.0067555966 0)
(-0.0022325846 -0.0069714647 0)
(-0.0013487334 -0.0071168304 0)
(-0.00045111405 -0.0071899532 0)
(0.00045111405 -0.0071899532 0)
(0.0013487334 -0.0071168304 0)
(0.0022325846 -0.0069714647 0)
(0.0030936814 -0.0067555966 0)
(0.0039233205 -0.0064717892 0)
(0.0047131839 -0.0061233746 0)
(0.0054554309 -0.0057143873 0)
(0.0061427792 -0.0052494884 0)
(0.0067685739 -0.0047338845 0)
(0.0073268442 -0.0041732451 0)
(0.007812349 -0.0035736206 0)
(0.0082206139 -0.002941365 0)
(0.0085479593 -0.0022830619 0)
(0.0087915228 -0.0016054564 0)
(0.0089492771 -0.00091538948 0)
(0.009020044 -0.00021973438 0)
(0.0090035033 0.00047466772 0)
(0.0089001968 0.0011610744 0)
(0.0087115227 0.0018329114 0)
(0.0084397194 0.0024838449 0)
(0.008087836 0.003107852 0)
(0.0076596876 0.0036992873 0)
(0.0071597975 0.0042529413 0)
(0.0065933277 0.0047640854 0)
(0.0059660014 0.0052285034 0)
(0.0052840218 0.0056425062 0)
(0.0045539914 0.0060029336 0)
(0.0037828351 0.0063071421 0)
(0.0029777302 0.0065529857 0)
(0.002146044 0.0067387905 0)
(0.0012952813 0.0068633287 0)
(0.00043303795 0.0069257966 0)
(-0.00045782549 0.0078081372 0)
(-0.0013694438 0.0077378712 0)
(-0.0022689792 0.0075977693 0)
(-0.0031484283 0.0073887038 0)
(-0.0039998717 0.0071120122 0)
(-0.0048155194 0.0067695276 0)
(-0.0055877656 0.0063636146 0)
(-0.0063092556 0.0058972029 0)
(-0.0069729635 0.0053738163 0)
(-0.0075722786 0.0047975906 0)
(-0.0081010974 0.0041732745 0)
(-0.0085539172 0.0035062133 0)
(-0.0089259245 0.0028023108 0)
(-0.0092130735 0.0020679732 0)
(-0.0094121498 0.0013100373 0)
(-0.0095208161 0.00053568757 0)
(-0.0095376396 -0.00024762994 0)
(-0.0094621024 -0.0010322927 0)
(-0.0092945997 -0.0018105816 0)
(-0.0090364292 -0.0025747546 0)
(-0.0086897759 -0.0033171154 0)
(-0.008257695 -0.0040300807 0)
(-0.007744092 -0.0047062487 0)
(-0.0071537006 -0.005338473 0)
(-0.0064920546 -0.0059199423 0)
(-0.0057654524 -0.0064442672 0)
(-0.0049809115 -0.0069055722 0)
(-0.0041461111 -0.0072985905 0)
(-0.0032693211 -0.0076187574 0)
(-0.0023593179 -0.0078622989 0)
(-0.0014252878 -0.0080263092 0)
(-0.00047671832 -0.0081088137 0)
(0.00047671832 -0.0081088137 0)
(0.0014252878 -0.0080263092 0)
(0.0023593179 -0.0078622989 0)
(0.0032693211 -0.0076187574 0)
(0.0041461111 -0.0072985905 0)
(0.0049809115 -0.0069055722 0)
(0.0057654524 -0.0064442672 0)
(0.0064920546 -0.0059199423 0)
(0.0071537006 -0.005338473 0)
(0.007744092 -0.0047062487 0)
(0.008257695 -0.0040300807 0)
(0.0086897759 -0.0033171154 0)
(0.0090364292 -0.0025747546 0)
(0.0092945997 -0.0018105816 0)
(0.0094621024 -0.0010322927 0)
(0.0095376396 -0.00024762994 0)
(0.0095208161 0.00053568757 0)
(0.0094121498 0.0013100373 0)
(0.0092130735 0.0020679732 0)
(0.0089259245 0.0028023108 0)
(0.0085539172 0.0035062133 0)
(0.0081010974 0.0041732745 0)
(0.0075722786 0.0047975906 0)
(0.0069729635 0.0053738163 0)
(0.0063092556 0.0058972029 0)
(0.0055877656 0.0063636146 0)
(0.0048155194 0.0067695276 0)
(0.0039998717 0.0071120122 0)
(0.0031484283 0.0073887038 0)
(0.0022689792 0.0075977693 0)
(0.0013694438 0.0077378712 0)
(0.00045782549 0.0078081372 0)
(-0.0004952071 0.0087511322 0)
(-0.0014812755 0.0086725667 0)
(-0.00245432 0.0085158952 0)
(-0.0034057045 0.0082820522 0)
(-0.0043268706 0.007972478 0)
(-0.0052093835 0.0075891595 0)
(-0.0060449904 0.0071346779 0)
(-0.0068256945 0.0066122551 0)
(-0.0075438427 0.0060257945 0)
(-0.0081922256 0.0053799064 0)
(-0.0087641855 0.0046799141 0)
(-0.0092537259 0.0039318346 0)
(-0.0096556156 0.0031423329 0)
(-0.0099654792 0.0023186519 0)
(-0.010179868 0.0014685212 0)
(-0.010296309 0.00060005442 0)
(-0.010313325 -0.00027835684 0)
(-0.010230437 -0.0011581442 0)
(-0.010048157 -0.0020306532 0)
(-0.0097679578 -0.0028872231 0)
(-0.0093922603 -0.0037192575 0)
(-0.0089244056 -0.004518293 0)
(-0.0083686362 -0.0052760687 0)
(-0.0077300738 -0.0059846042 0)
(-0.0070146922 -0.0066362853 0)
(-0.0062292826 -0.00722396 0)
(-0.0053814077 -0.007741042 0)
(-0.0044793421 -0.0081816184 0)
(-0.0035319981 -0.0085405579 0)
(-0.0025488363 -0.0088136127 0)
(-0.0015397609 -0.0089975089 0)
(-0.00051500356 -0.0090900202 0)
(0.00051500356 -0.0090900202 0)
(0.0015397609 -0.0089975089 0)
(0.0025488363 -0.0088136127 0)
(0.0035319981 -0.0085405579 0)
(0.0044793421 -0.0081816184 0)
(0.0053814077 -0.007741042 0)
(0.0062292826 -0.00722396 0)
(0.0070146922 -0.0066362853 0)
(0.0077300738 -0.0059846042 0)
(0.0083686362 -0.0052760687 0)
(0.0089244056 -0.004518293 0)
(0.0093922603 -0.0037192575 0)
(0.0097679578 -0.0028872231 0)
(0.010048157 -0.0020306532 0)
(0.010230437 -0.0011581442 0)
(0.010313325 -0.00027835683 0)
(0.010296309 0.00060005442 0)
(0.010179868 0.0014685212 0)
(0.0099654792 0.0023186519 0)
(0.0096556156 0.0031423329 0)
(0.0092537259 0.0039318346 0)
(0.0087641855 0.0046799141 0)
(0.0081922256 0.0053799064 0)
(0.0075438427 0.0060257945 0)
(0.0068256945 0.0066122551 0)
(0.0060449904 0.0071346779 0)
(0.0052093835 0.0075891595 0)
(0.0043268706 0.007972478 0)
(0.0034057045 0.0082820522 0)
(0.00245432 0.0085158952 0)
(0.0014812755 0.0086725667 0)
(0.0004952071 0.0087511322 0)
(-0.00054749307 0.0097825402 0)
(-0.0016376859 0.0096949238 0)
(-0.0027135104 0.0095201764 0)
(-0.0037654299 0.0092592901 0)
(-0.0047839804 0.0089138026 0)
(-0.0057598185 0.0084858525 0)
(-0.0066837851 0.0079782415 0)
(-0.0075469888 0.0073944978 0)
(-0.0083409079 0.006738932 0)
(-0.0090575078 0.0060166737 0)
(-0.0096893703 0.0052336836 0)
(-0.010229825 0.0043967318 0)
(-0.010673073 0.0035133419 0)
(-0.011014297 0.0025917014 0)
(-0.011249738 0.0016405464 0)
(-0.011376745 0.00066903105 0)
(-0.011393792 -0.00031340428 0)
(-0.011300468 -0.0012971534 0)
(-0.011097444 -0.0022725469 0)
(-0.010786442 -0.0032299352 0)
(-0.010370204 -0.0041597587 0)
(-0.009852465 -0.0050526127 0)
(-0.0092379317 -0.0058993172 0)
(-0.0085322621 -0.0066909959 0)
(-0.0077420409 -0.0074191692 0)
(-0.0068747455 -0.0080758601 0)
(-0.0059386985 -0.0086537105 0)
(-0.0049430046 -0.0091461045 0)
(-0.0038974709 -0.0095472924 0)
(-0.0028125088 -0.0098525084 0)
(-0.0016990196 -0.010058076 0)
(-0.00056826641 -0.010161493 0)
(0.00056826641 -0.010161493 0)
(0.0016990196 -0.010058076 0)
(0.0028125088 -0.0098525084 0)
(0.0038974709 -0.0095472924 0)
(0.0049430046 -0.0091461045 0)
(0.0059386985 -0.0086537105 0)
(0.0068747455 -0.0080758601 0)
(0.0077420409 -0.0074191692 0)
(0.0085322621 -0.0066909959 0)
(0.0092379317 -0.0058993172 0)
(0.009852465 -0.0050526127 0)
(0.010370204 -0.0041597587 0)
(0.010786442 -0.0032299352 0)
(0.011097444 -0.0022725469 0)
(0.011300468 -0.0012971534 0)
(0.011393792 -0.00031340428 0)
(0.011376745 0.00066903105 0)
(0.011249738 0.0016405464 0)
(0.011014297 0.0025917014 0)
(0.010673073 0.0035133419 0)
(0.010229825 0.0043967318 0)
(0.0096893703 0.0052336836 0)
(0.0090575078 0.0060166737 0)
(0.0083409079 0.006738932 0)
(0.0075469888 0.0073944978 0)
(0.0066837851 0.0079782415 0)
(0.0057598185 0.0084858525 0)
(0.0047839804 0.0089138026 0)
(0.0037654299 0.0092592901 0)
(0.0027135104 0.0095201764 0)
(0.0016376859 0.0096949238 0)
(0.00054749307 0.0097825402 0)
(-0.00061599424 0.010934065 0)
(-0.0018425948 0.010836359 0)
(-0.0030530422 0.010641455 0)
(-0.0042366062 0.0103504 0)
(-0.0053826261 0.0099648259 0)
(-0.0064805611 0.0094870242 0)
(-0.0075200621 0.0089200273 0)
(-0.008491067 0.0082676935 0)
(-0.0093839198 0.0075347817 0)
(-0.010189512 0.0067270049 0)
(-0.010899439 0.0058510487 0)
(-0.01150616 0.0049145488 0)
(-0.012003148 0.0039260208 0)
(-0.012385022 0.0028947452 0)
(-0.012647638 0.0018306184 0)
(-0.012788137 0.00074398469 0)
(-0.012804951 -0.00035452943 0)
(-0.012697767 -0.0014541604 0)
(-0.01246748 -0.0025441217 0)
(-0.012116134 -0.0036136858 0)
(-0.011646885 -0.0046522475 0)
(-0.011063973 -0.0056493802 0)
(-0.010372696 -0.0065949018 0)
(-0.0095794052 -0.0074789551 0)
(-0.0086914758 -0.0082921081 0)
(-0.0077172776 -0.0090254721 0)
(-0.0066661249 -0.009670834 0)
(-0.0055482073 -0.010220797 0)
(-0.0043745011 -0.010668924 0)
(-0.0031566594 -0.011009874 0)
(-0.0019068849 -0.01123952 0)
(-0.00063778487 -0.011355055 0)
(0.00063778487 -0.011355055 0)
(0.0019068849 -0.01123952 0)
(0.0031566594 -0.011009874 0)
(0.0043745011 -0.010668924 0)
(0.0055482073 -0.010220797 0)
(0.0066661249 -0.009670834 0)
(0.0077172776 -0.0090254721 0)
(0.0086914758 -0.0082921081 0)
(0.0095794052 -0.0074789551 0)
(0.010372696 -0.0065949018 0)
(0.011063973 -0.0056493802 0)
(0.011646885 -0.0046522475 0)
(0.012116134 -0.0036136858 0)
(0.01246748 -0.0025441217 0)
(0.012697767 -0.0014541604 0)
(0.012804951 -0.00035452942 0)
(0.012788137 0.00074398469 0)
(0.012647638 0.0018306184 0)
(0.012385022 0.0028947452 0)
(0.012003148 0.0039260208 0)
(0.01150616 0.0049145488 0)
(0.010899439 0.0058510487 0)
(0.010189512 0.0067270049 0)
(0.0093839198 0.0075347817 0)
(0.008491067 0.0082676935 0)
(0.0075200621 0.0089200273 0)
(0.0064805611 0.0094870242 0)
(0.0053826261 0.0099648259 0)
(0.0042366062 0.0103504 0)
(0.0030530422 0.010641455 0)
(0.0018425948 0.010836359 0)
(0.00061599424 0.010934065 0)
(-0.00070025218 0.012238695 0)
(-0.0020946309 0.012129559 0)
(-0.0034706423 0.01191182 0)
(-0.0048160768 0.011586573 0)
(-0.0061187926 0.011155544 0)
(-0.0073667695 0.010621184 0)
(-0.0085481895 0.0099867713 0)
(-0.0096515466 0.0092565267 0)
(-0.010665788 0.0084357134 0)
(-0.011580484 0.0075307105 0)
(-0.012386018 0.0065490442 0)
(-0.013073783 0.0054993626 0)
(-0.01363637 0.0043913476 0)
(-0.014067726 0.0032355667 0)
(-0.014363262 0.0020432771 0)
(-0.014519899 0.00082620574 0)
(-0.014536052 -0.00040366309 0)
(-0.014411564 -0.0016342637 0)
(-0.014147619 -0.0028535726 0)
(-0.013746661 -0.0040496818 0)
(-0.013212344 -0.0052108434 0)
(-0.012549501 -0.0063255103 0)
(-0.01176414 -0.0073823925 0)
(-0.010863438 -0.0083705407 0)
(-0.0098557268 -0.0092794555 0)
(-0.0087504638 -0.010099223 0)
(-0.0075581761 -0.010820665 0)
(-0.0062903847 -0.011435506 0)
(-0.0049595018 -0.011936532 0)
(-0.0035787069 -0.012317751 0)
(-0.0021617999 -0.012574533 0)
(-0.00072303873 -0.012703724 0)
(0.00072303873 -0.012703724 0)
(0.0021617999 -0.012574533 0)
(0.0035787069 -0.012317751 0)
(0.0049595018 -0.011936532 0)
(0.0062903847 -0.011435506 0)
(0.0075581761 -0.010820665 0)
(0.0087504638 -0.010099223 0)
(0.0098557268 -0.0092794555 0)
(0.010863438 -0.0083705407 0)
(0.01176414 -0.0073823925 0)
(0.012549501 -0.0063255102 0)
(0.013212344 -0.0052108434 0)
(0.013746661 -0.0040496818 0)
(0.014147619 -0.0028535726 0)
(0.014411564 -0.0016342637 0)
(0.014536052 -0.00040366309 0)
(0.014519899 0.00082620574 0)
(0.014363262 0.0020432771 0)
(0.014067726 0.0032355667 0)
(0.01363637 0.0043913476 0)
(0.013073783 0.0054993626 0)
(0.012386018 0.0065490442 0)
(0.011580484 0.0075307105 0)
(0.010665788 0.0084357134 0)
(0.0096515466 0.0092565267 0)
(0.0085481895 0.0099867713 0)
(0.0073667695 0.010621184 0)
(0.0061187926 0.011155544 0)
(0.0048160768 0.011586573 0)
(0.0034706423 0.01191182 0)
(0.0020946309 0.012129559 0)
(0.00070025218 0.012238695 0)
(-0.00079707243 0.013726301 0)
(-0.0023842397 0.013604126 0)
(-0.0039504826 0.013360327 0)
(-0.0054818841 0.012996048 0)
(-0.0069645925 0.012513111 0)
(-0.0083848799 0.011914131 0)
(-0.0097292313 0.011202654 0)
(-0.010984471 0.010383301 0)
(-0.012137929 0.0094619063 0)
(-0.013177645 0.0084456175 0)
(-0.014092596 0.0073429418 0)
(-0.014872948 0.0061637219 0)
(-0.015510283 0.0049190251 0)
(-0.015997803 0.00362095 0)
(-0.016330451 0.0022823657 0)
(-0.016504956 0.00091661841 0)
(-0.016519783 -0.0004627464 0)
(-0.016375012 -0.0018422003 0)
(-0.016072194 -0.0032083591 0)
(-0.015614237 -0.0045480321 0)
(-0.015005342 -0.0058482288 0)
(-0.014250989 -0.0070961703 0)
(-0.013357952 -0.0082793336 0)
(-0.012334322 -0.0093855382 0)
(-0.011189499 -0.010403074 0)
(-0.0099341697 -0.011320856 0)
(-0.0085802471 -0.01212861 0)
(-0.0071407779 -0.012817054 0)
(-0.005629825 -0.013378092 0)
(-0.0040623223 -0.013804996 0)
(-0.0024539065 -0.014092562 0)
(-0.00082073169 -0.014237244 0)
(0.00082073169 -0.014237244 0)
(0.0024539065 -0.014092562 0)
(0.0040623223 -0.013804996 0)
(0.005629825 -0.013378092 0)
(0.0071407779 -0.012817054 0)
(0.0085802471 -0.01212861 0)
(0.0099341697 -0.011320856 0)
(0.011189499 -0.010403074 0)
(0.012334322 -0.0093855382 0)
(0.013357952 -0.0082793336 0)
(0.014250989 -0.0070961703 0)
(0.015005342 -0.0058482288 0)