/*--------------------------------*- C++ -*----------------------------------*\
| =========                 |                                                 |
| \\      /  F ield         | OpenFOAM: The Open Source CFD Toolbox           |
|  \\    /   O peration     | Version:  2306                                  |
|   \\  /    A nd           | Website:  www.openfoam.com                      |
|    \\/     M anipulation  |                                                 |
\*---------------------------------------------------------------------------*/
FoamFile
{
    version     2.0;
    format      ascii;
    arch        "LSB;label=32;scalar=64";
    class       volVectorField;
    location    "0.12";
    object      U;
}
// * * * * * * * * * * * * * * * * * * * * * * * * * * * * * * * * * * * * * //

dimensions      [0 1 -1 0 0 0 0];

internalField   nonuniform List<vector> 
6400
(
(-8.2128427e-07 -8.3295951e-06 1.9468166e-20)
(-1.8748037e-06 -8.2897075e-06 1.4515484e-20)
(-3.0749767e-06 -8.1395687e-06 -4.090903e-20)
(-4.2307703e-06 -7.9001444e-06 -7.7997547e-21)
(-5.4076837e-06 -7.5660932e-06 -3.2219687e-20)
(-6.5648054e-06 -7.1397969e-06 1.1786802e-20)
(-7.6988754e-06 -6.6242298e-06 -3.086152e-20)
(-8.8063526e-06 -6.0218345e-06 -2.7977979e-20)
(-9.8832758e-06 -5.3350563e-06 -8.3160918e-21)
(-1.0925699e-05 -4.5663196e-06 -2.1867678e-20)
(-1.192965e-05 -3.7182296e-06 -2.63097e-20)
(-1.28913e-05 -2.7937058e-06 -2.9316648e-20)
(-1.3807238e-05 -1.7952127e-06 -2.4368429e-20)
(-1.4673843e-05 -7.2591808e-07 -2.023703e-20)
(-1.5487384e-05 4.1070783e-07 -2.245926e-20)
(-1.6246211e-05 1.6105549e-06 -2.303935e-20)
(-1.69479e-05 2.8698337e-06 -1.4996022e-20)
(-1.7588956e-05 4.185212e-06 -1.278335e-20)
(-1.8166754e-05 5.5530712e-06 -8.9333927e-21)
(-1.8679275e-05 6.969485e-06 -7.1985539e-21)
(-1.9124765e-05 8.4302663e-06 -1.1261579e-20)
(-1.9501356e-05 9.931303e-06 -1.6438109e-21)
(-1.9807436e-05 1.1467916e-05 -2.6165648e-21)
(-2.0041887e-05 1.3035954e-05 -7.1960967e-21)
(-2.0203774e-05 1.4630765e-05 -2.9545923e-21)
(-2.0291994e-05 1.6248071e-05 6.7833111e-22)
(-2.0306126e-05 1.7883376e-05 5.0873508e-21)
(-2.0245929e-05 1.9531942e-05 -3.1567913e-21)
(-2.011106e-05 2.1189505e-05 -8.3194247e-21)
(-1.9901751e-05 2.2851431e-05 -1.0637822e-21)
(-1.9618314e-05 2.4513197e-05 4.0102373e-21)
(-1.9261192e-05 2.6170524e-05 4.920619e-21)
(-1.8831224e-05 2.7818854e-05 -3.1279962e-21)
(-1.8329271e-05 2.9454251e-05 -8.336362e-21)
(-1.775647e-05 3.1072332e-05 6.4098079e-22)
(-1.7114176e-05 3.2669028e-05 5.855084e-21)
(-1.6403862e-05 3.4240374e-05 6.6658456e-21)
(-1.5627185e-05 3.5782351e-05 -3.1349601e-21)
(-1.4786049e-05 3.7291404e-05 -3.0471701e-21)
(-1.3882477e-05 3.8763775e-05 6.285223e-21)
(-1.2918531e-05 4.0196034e-05 9.300336e-21)
(-1.1896495e-05 4.1584993e-05 5.3665315e-21)
(-1.0818842e-05 4.2927299e-05 2.0132229e-21)
(-9.6880644e-06 4.4220026e-05 -6.7656861e-22)
(-8.5067211e-06 4.5460315e-05 -8.1989532e-21)
(-7.2775909e-06 4.6645632e-05 -1.8887433e-21)
(-6.0035443e-06 4.7773324e-05 -2.545778e-23)
(-4.6874051e-06 4.8841088e-05 -4.8301526e-22)
(-3.3321029e-06 4.9846913e-05 -2.3057167e-21)
(-1.9405772e-06 5.078869e-05 -7.217842e-21)
(-5.1665952e-07 5.166488e-05 -2.5357323e-21)
(9.372105e-07 5.24733e-05 1.9120638e-21)
(2.4188421e-06 5.3213495e-05 -3.818781e-21)
(3.9240647e-06 5.3884094e-05 -5.8772946e-22)
(5.4496156e-06 5.4483383e-05 4.1569919e-21)
(6.9926631e-06 5.5010869e-05 3.8491094e-21)
(8.5500607e-06 5.5465913e-05 1.1922723e-21)
(1.0118627e-05 5.5847818e-05 -3.8066003e-21)
(1.1695181e-05 5.6156435e-05 8.7992562e-23)
(1.3276651e-05 5.6391475e-05 5.0853505e-21)
(1.4860068e-05 5.6552859e-05 -7.3591515e-22)
(1.6442529e-05 5.6640789e-05 -2.719455e-21)
(1.8021099e-05 5.6655661e-05 -5.5086957e-21)
(1.9592934e-05 5.6597859e-05 9.4553274e-22)
(2.115518e-05 5.6467856e-05 5.8709015e-21)
(2.2705094e-05 5.626637e-05 -1.282148e-21)
(2.4240097e-05 5.5994303e-05 -1.5531306e-21)
(2.5757582e-05 5.5652489e-05 -1.756129e-21)
(2.7255043e-05 5.5242233e-05 2.0796343e-21)
(2.8730083e-05 5.4764572e-05 7.1023738e-21)
(3.0180356e-05 5.4220828e-05 -3.0313061e-22)
(3.1603669e-05 5.3612386e-05 -3.8947928e-21)
(3.2997826e-05 5.2940714e-05 -3.9197913e-21)
(3.4360799e-05 5.2207414e-05 1.9870141e-21)
(3.5690659e-05 5.141412e-05 6.7345059e-21)
(3.6985566e-05 5.0562598e-05 -1.0666343e-21)
(3.8243815e-05 4.9654449e-05 -2.5264374e-21)
(3.9463655e-05 4.8691753e-05 -1.3663004e-21)
(4.0643558e-05 4.7676334e-05 2.3923418e-21)
(4.1782064e-05 4.6610215e-05 6.1341329e-21)
(-7.619493e-07 -6.0038612e-06 -8.1188969e-21)
(-1.7398444e-06 -5.9666435e-06 -5.1013182e-20)
(-2.853393e-06 -5.8259767e-06 -1.4440299e-19)
(-3.9255761e-06 -5.6014135e-06 -1.1197725e-20)
(-5.0173204e-06 -5.2881075e-06 -7.0091047e-20)
(-6.0904945e-06 -4.8883731e-06 -1.8896113e-20)
(-7.1419886e-06 -4.4048123e-06 -2.9928076e-20)
(-8.1685607e-06 -3.8397588e-06 1.3371723e-20)
(-9.1665021e-06 -3.1954984e-06 5.5433121e-21)
(-1.0131978e-05 -2.4743982e-06 -5.071341e-21)
(-1.10615e-05 -1.6786471e-06 1.0889401e-20)
(-1.1951001e-05 -8.1081318e-07 9.795894e-21)
(-1.2797086e-05 1.2591826e-07 1.3486254e-20)
(-1.3597263e-05 1.1292341e-06 1.2155407e-20)
(-1.4348882e-05 2.1950933e-06 1.9445933e-20)
(-1.5049012e-05 3.3194652e-06 1.2287899e-20)
(-1.5694636e-05 4.5004528e-06 1.2017338e-20)
(-1.6283234e-05 5.7345772e-06 1.5918019e-20)
(-1.6812587e-05 7.018137e-06 1.3270956e-20)
(-1.7280525e-05 8.3471649e-06 2.307924e-20)
(-1.7685151e-05 9.717872e-06 9.6444844e-21)
(-1.8025031e-05 1.1126253e-05 1.1893007e-21)
(-1.8298931e-05 1.2568217e-05 9.7467345e-21)
(-1.8505522e-05 1.4039579e-05 2.5447244e-21)
(-1.8643576e-05 1.5536321e-05 5.8689666e-21)
(-1.8712456e-05 1.7054101e-05 1.3138137e-20)
(-1.8711674e-05 1.8588856e-05 3.7246389e-22)
(-1.864078e-05 2.013606e-05 -1.6863502e-21)
(-1.8499693e-05 2.1691674e-05 -3.1114972e-21)
(-1.8288436e-05 2.3251394e-05 3.7168762e-21)
(-1.8007299e-05 2.4811096e-05 1.0854171e-20)
(-1.7656845e-05 2.6366549e-05 -9.3743478e-22)
(-1.7237701e-05 2.7913537e-05 -3.3741707e-21)
(-1.67507e-05 2.9448256e-05 -4.5906727e-21)
(-1.6196903e-05 3.0966712e-05 3.0599855e-21)
(-1.557747e-05 3.2464958e-05 7.2268557e-21)
(-1.4893823e-05 3.3939318e-05 -2.1040647e-21)
(-1.4147595e-05 3.5386071e-05 -4.112907e-21)
(-1.3340435e-05 3.6801711e-05 -5.6717139e-21)
(-1.2474222e-05 3.8182778e-05 -4.899764e-21)
(-1.155098e-05 3.9526016e-05 1.8636942e-21)
(-1.0572823e-05 4.0828304e-05 -1.8334531e-21)
(-9.5420029e-06 4.2086518e-05 -7.6976655e-21)
(-8.4608951e-06 4.3297909e-05 -6.7905743e-21)
(-7.3319303e-06 4.4459739e-05 -2.8901262e-21)
(-6.1576836e-06 4.5569638e-05 1.7308008e-21)
(-4.9408028e-06 4.6624997e-05 -5.5118824e-21)
(-3.6840084e-06 4.762369e-05 -8.9248436e-21)
(-2.3901235e-06 4.8563728e-05 -7.731003e-21)
(-1.0620363e-06 4.944314e-05 -2.488953e-21)
(2.9710812e-07 5.0260167e-05 -5.8775088e-22)
(1.685068e-06 5.1013767e-05 -4.519769e-21)
(3.0991501e-06 5.1702376e-05 -4.0386547e-21)
(4.535667e-06 5.2324602e-05 8.7544485e-22)
(5.9916034e-06 5.2879464e-05 4.6309326e-21)
(7.464269e-06 5.3366184e-05 -7.9194387e-22)
(8.9507144e-06 5.3784058e-05 -5.0180933e-21)
(1.0447811e-05 5.4132599e-05 -4.1739639e-21)
(1.1952632e-05 5.4411517e-05 -1.0885101e-21)
(1.3462386e-05 5.462054e-05 4.1477825e-21)
(1.497415e-05 5.475962e-05 -9.9207153e-22)
(1.6485076e-05 5.482867e-05 -6.0323606e-21)
(1.7992471e-05 5.4828342e-05 -5.7258671e-21)
(1.9493578e-05 5.4758705e-05 -3.3608299e-21)
(2.0985753e-05 5.4620402e-05 3.5659528e-21)
(2.2466353e-05 5.4414049e-05 1.2470311e-22)
(2.3932888e-05 5.414033e-05 -4.1529152e-21)
(2.5382851e-05 5.380014e-05 -3.1275855e-21)
(2.6813825e-05 5.3394699e-05 -2.2526538e-21)
(2.8223611e-05 5.2924953e-05 4.3213016e-21)
(2.9610001e-05 5.2392072e-05 9.4722384e-22)
(3.0970787e-05 5.1797449e-05 -2.5487183e-21)
(3.2303875e-05 5.1142396e-05 -4.682177e-21)
(3.3607349e-05 5.0428342e-05 -4.5636074e-21)
(3.4879374e-05 4.9656994e-05 4.3463965e-21)
(3.6118116e-05 4.8829943e-05 1.9521655e-21)
(3.7321889e-05 4.7948705e-05 -1.7210807e-21)
(3.8489207e-05 4.701513e-05 -3.5545788e-21)
(3.9618442e-05 4.6031188e-05 -6.2471843e-21)
(4.07082e-05 4.4998511e-05 -1.8896231e-21)
(-7.0616981e-07 -3.8461619e-06 3.0445863e-21)
(-1.6129643e-06 -3.8117027e-06 2.9975843e-21)
(-2.6454475e-06 -3.6800459e-06 -5.1762608e-20)
(-3.6392695e-06 -3.4695343e-06 -7.9927262e-21)
(-4.6511331e-06 -3.1756261e-06 -3.7313469e-20)
(-5.6457076e-06 -2.8007464e-06 -6.3805352e-20)
(-6.6197226e-06 -2.3475082e-06 -3.378722e-20)
(-7.570386e-06 -1.8172345e-06 -2.3648096e-20)
(-8.4942868e-06 -1.2129033e-06 -3.1743483e-20)
(-9.3873598e-06 -5.3592411e-07 -1.018479e-20)
(-1.0246288e-05 2.1058812e-07 -3.80505e-21)
(-1.1068378e-05 1.0247967e-06 8.0735887e-21)
(-1.1850034e-05 1.9032759e-06 2.916489e-22)
(-1.2588649e-05 2.8430726e-06 1.0079613e-20)
(-1.3281958e-05 3.8417148e-06 1.119614e-20)
(-1.3926336e-05 4.8967097e-06 2.1402178e-21)
(-1.4519069e-05 6.0046705e-06 1.1828105e-20)
(-1.5058221e-05 7.1626092e-06 7.2012805e-21)
(-1.5541751e-05 8.366814e-06 8.4409884e-21)
(-1.5967594e-05 9.6140313e-06 1.3264668e-20)
(-1.6334116e-05 1.090016e-05 8.2021843e-21)
(-1.6639937e-05 1.22215e-05 1.177979e-20)
(-1.6883605e-05 1.357436e-05 1.0439196e-20)
(-1.7063804e-05 1.4955054e-05 3.067769e-21)
(-1.7179592e-05 1.6359388e-05 1.0268476e-20)
(-1.7230338e-05 1.7783604e-05 1.6728726e-20)
(-1.7215413e-05 1.9223637e-05 1.3526163e-20)
(-1.7134536e-05 2.0675495e-05 4.3430181e-21)
(-1.6987604e-05 2.2135186e-05 -3.3540151e-21)
(-1.6774587e-05 2.3598635e-05 4.2076803e-21)
(-1.6495729e-05 2.5062221e-05 9.8951077e-21)
(-1.6151483e-05 2.6521626e-05 7.4013867e-21)
(-1.5742486e-05 2.797315e-05 -2.3755253e-22)
(-1.5269502e-05 2.9413025e-05 -7.009403e-21)
(-1.4733487e-05 3.0837621e-05 -1.3631203e-21)
(-1.413563e-05 3.2243088e-05 4.2165223e-21)
(-1.3477197e-05 3.3626002e-05 2.4862865e-21)
(-1.2759617e-05 3.4982932e-05 -2.7354127e-21)
(-1.1984501e-05 3.6310406e-05 -8.7830661e-21)
(-1.1153609e-05 3.7605295e-05 -2.3903561e-21)
(-1.0268857e-05 3.8864426e-05 3.7857436e-22)
(-9.3321723e-06 4.0084816e-05 -4.2824035e-21)
(-8.345604e-06 4.1263638e-05 -4.2808966e-21)
(-7.311417e-06 4.2398128e-05 -4.7227845e-21)
(-6.2319473e-06 4.3485849e-05 -1.8831122e-21)
(-5.1096161e-06 4.4524375e-05 -8.4057031e-21)
(-3.9469063e-06 4.5511269e-05 -1.0679856e-20)
(-2.7463694e-06 4.6444662e-05 -8.3853976e-21)
(-1.5105596e-06 4.7322391e-05 -7.1267501e-21)
(-2.4241755e-07 4.8142778e-05 -2.7627942e-21)
(1.0553346e-06 4.8903994e-05 -6.4953081e-21)
(2.380784e-06 4.9605322e-05 -1.0164857e-20)
(3.7308227e-06 5.024487e-05 -7.4099672e-21)
(5.102046e-06 5.0821489e-05 -9.6217267e-21)
(6.4919579e-06 5.1334134e-05 -4.4444648e-21)
(7.8979211e-06 5.1782272e-05 -2.7140207e-21)
(9.316994e-06 5.2164946e-05 -1.9282812e-21)
(1.0746261e-05 5.2481733e-05 -2.4558594e-21)
(1.2182996e-05 5.2732414e-05 -6.1520962e-21)
(1.3624477e-05 5.2916599e-05 -3.9830487e-21)
(1.5068068e-05 5.30344e-05 -4.0577532e-21)
(1.6510994e-05 5.3085583e-05 -5.8237523e-21)
(1.7950622e-05 5.3070732e-05 -4.4172747e-21)
(1.938444e-05 5.2989812e-05 -5.9925336e-21)
(2.0809844e-05 5.284364e-05 -3.019153e-21)
(2.2224347e-05 5.2632558e-05 -3.4193163e-21)
(2.3625612e-05 5.2357341e-05 -4.7873932e-21)
(2.501123e-05 5.2018735e-05 -1.9239583e-21)
(2.6378874e-05 5.1617841e-05 -3.7634576e-21)
(2.7726436e-05 5.1155553e-05 -1.3422972e-21)
(2.9051769e-05 5.0633108e-05 -1.7708976e-21)
(3.0352754e-05 5.0051652e-05 -4.2087974e-21)
(3.1627472e-05 4.9412374e-05 -2.9873428e-21)
(3.2874084e-05 4.8716808e-05 -3.4722234e-21)
(3.409071e-05 4.7966412e-05 -1.33545e-21)
(3.527576e-05 4.7162657e-05 -3.3217613e-21)
(3.6427557e-05 4.6307139e-05 -4.6551815e-21)
(3.7544453e-05 4.5401507e-05 -2.1836578e-21)
(3.8625085e-05 4.4447453e-05 -4.7248974e-22)
(3.9668122e-05 4.3446832e-05 1.4592239e-21)
(-6.5366198e-07 -1.8467154e-06 -6.244641e-21)
(-1.4937244e-06 -1.8147675e-06 -3.4451245e-20)
(-2.4500732e-06 -1.691414e-06 5.4952707e-21)
(-3.3704882e-06 -1.4940198e-06 2.4647224e-20)
(-4.3076772e-06 -1.2181876e-06 1.7508828e-20)
(-5.2287004e-06 -8.6588767e-07 -2.2764189e-20)
(-6.1297184e-06 -4.3992535e-07 -1.6029702e-20)
(-7.008947e-06 5.6868732e-08 -1.7751436e-20)
(-7.8629143e-06 6.239788e-07 -2.2368617e-20)
(-8.68838e-06 1.2583162e-06 -1.1505373e-20)
(-9.482303e-06 1.9581151e-06 -5.1594611e-21)
(-1.0241137e-05 2.7206317e-06 -5.6783432e-21)
(-1.0962716e-05 3.5439218e-06 -1.0893588e-20)
(-1.1643735e-05 4.4250539e-06 -4.4994754e-21)
(-1.228108e-05 5.3618062e-06 -1.0378108e-20)
(-1.287257e-05 6.3516156e-06 -2.650991e-21)
(-1.3415938e-05 7.3912127e-06 -9.1890657e-21)
(-1.3908938e-05 8.4776076e-06 -8.232389e-21)
(-1.4349544e-05 9.6073135e-06 3.4988159e-22)
(-1.4735984e-05 1.0777306e-05 4.425677e-21)
(-1.506685e-05 1.1983641e-05 8.0808319e-21)
(-1.5340591e-05 1.3223126e-05 3.2979964e-23)
(-1.5555663e-05 1.4492332e-05 -3.614002e-21)
(-1.5711092e-05 1.5787616e-05 -5.6520991e-21)
(-1.5806022e-05 1.7105029e-05 -5.8599567e-22)
(-1.5839676e-05 1.8441225e-05 8.3067784e-21)
(-1.5811568e-05 1.9792111e-05 -8.1383096e-24)
(-1.5721354e-05 2.1154287e-05 -7.9407931e-21)
(-1.5568896e-05 2.2523608e-05 -7.6008284e-21)
(-1.5354229e-05 2.3896535e-05 -2.0734857e-22)
(-1.507748e-05 2.5269414e-05 7.4649428e-21)
(-1.4739122e-05 2.6638411e-05 1.606004e-21)
(-1.4339791e-05 2.8000025e-05 -4.7449629e-21)
(-1.3880135e-05 2.9350479e-05 -5.7988421e-21)
(-1.3361009e-05 3.068655e-05 -2.3620985e-21)
(-1.2783508e-05 3.2004567e-05 6.8799323e-21)
(-1.2148823e-05 3.3301344e-05 4.0823098e-21)
(-1.145831e-05 3.4573424e-05 -1.8648314e-21)
(-1.0713504e-05 3.5817787e-05 -6.3563992e-21)
(-9.9159971e-06 3.7031322e-05 -4.0105672e-21)
(-9.0675496e-06 3.8211009e-05 5.8572847e-21)
(-8.1699584e-06 3.9354051e-05 3.388622e-21)
(-7.2251888e-06 4.0457856e-05 4.2268266e-21)
(-6.2354373e-06 4.1519728e-05 8.6914391e-21)
(-5.2028734e-06 4.2537379e-05 9.0543796e-21)
(-4.1297031e-06 4.3508408e-05 3.9098404e-21)
(-3.0182172e-06 4.4430632e-05 2.1152115e-21)
(-1.8708743e-06 4.5302116e-05 5.0181988e-21)
(-6.9012868e-07 4.6120924e-05 9.2549061e-21)
(5.2120181e-07 4.6885307e-05 1.1709896e-20)
(1.7610764e-06 4.759397e-05 8.2288103e-21)
(3.0271716e-06 4.8245679e-05 4.1574948e-21)
(4.316209e-06 4.8838675e-05 3.2649433e-21)
(5.6256281e-06 4.9372017e-05 -2.5276169e-21)
(6.9530299e-06 4.9844731e-05 -2.5272319e-21)
(8.2956498e-06 5.0256159e-05 3.1904991e-22)
(9.6506238e-06 5.060552e-05 4.7505809e-21)
(1.1015389e-05 5.0892218e-05 5.3226434e-21)
(1.2387435e-05 5.1116066e-05 -5.1101216e-22)
(1.37641e-05 5.1276676e-05 -3.6479027e-21)
(1.5142795e-05 5.1374146e-05 -2.6395852e-21)
(1.6521019e-05 5.1408387e-05 7.1536667e-22)
(1.7896235e-05 5.1379694e-05 2.0181958e-21)
(1.9265969e-05 5.1288151e-05 -7.5974727e-22)
(2.0627762e-05 5.1134482e-05 -1.6538927e-21)
(2.1979331e-05 5.091888e-05 -6.009683e-22)
(2.3318374e-05 5.064225e-05 2.4133279e-21)
(2.4642574e-05 5.0305138e-05 3.494278e-21)
(2.5949805e-05 4.9908636e-05 3.2284425e-22)
(2.7237935e-05 4.9453505e-05 -4.1346803e-22)
(2.8504936e-05 4.8940988e-05 7.1667315e-22)
(2.9748929e-05 4.8372073e-05 2.5958117e-21)
(3.0967957e-05 4.7747924e-05 1.3300369e-21)
(3.2160156e-05 4.7070044e-05 -6.6508373e-22)
(3.3323867e-05 4.633961e-05 -4.3590723e-22)
(3.4457467e-05 4.5558194e-05 -1.1947681e-21)
(3.5559363e-05 4.472718e-05 4.7162495e-22)
(3.6628094e-05 4.3848287e-05 8.661914e-22)
(3.7662251e-05 4.2922857e-05 1.1911803e-21)
(3.866048e-05 4.1952823e-05 -2.3521399e-22)
(-6.0453822e-07 4.5787545e-09 1.2882271e-20)
(-1.3817671e-06 3.4699283e-08 2.6347438e-20)
(-2.2667445e-06 1.5054868e-07 8.6756902e-20)
(-3.1182312e-06 3.3593933e-07 3.5540388e-20)
(-3.9847733e-06 5.9460017e-07 6.7811571e-20)
(-4.835897e-06 9.2482998e-07 4.0100412e-20)
(-5.6699515e-06 1.3242491e-06 7.1078973e-20)
(-6.4827748e-06 1.7901854e-06 5.3045661e-20)
(-7.2717618e-06 2.3213319e-06 5.0978583e-20)
(-8.034181e-06 2.9153965e-06 5.0503328e-20)
(-8.766649e-06 3.5709777e-06 3.8134766e-20)
(-9.4665228e-06 4.285666e-06 2.0983734e-20)
(-1.0130648e-05 5.0573587e-06 2.3771288e-20)
(-1.0756641e-05 5.8843232e-06 1.6759793e-20)
(-1.1342078e-05 6.7633117e-06 1.85497e-20)
(-1.1884335e-05 7.6917607e-06 1.602182e-20)
(-1.2381031e-05 8.6670212e-06 1.8367123e-20)
(-1.2830666e-05 9.6858892e-06 1.6806351e-20)
(-1.3231268e-05 1.0745579e-05 1.2592056e-20)
(-1.3580939e-05 1.1842749e-05 5.7533224e-21)
(-1.3878219e-05 1.2974178e-05 -2.0162064e-21)
(-1.4121589e-05 1.413689e-05 -1.0339833e-21)
(-1.4309897e-05 1.532741e-05 -5.0436595e-21)
(-1.4442128e-05 1.6542328e-05 1.6708485e-21)
(-1.4517425e-05 1.777804e-05 7.3698182e-21)
(-1.4535106e-05 1.9031395e-05 -3.9711483e-22)
(-1.4494663e-05 2.0298489e-05 -1.4114636e-21)
(-1.4395738e-05 2.1576119e-05 -2.3727789e-21)
(-1.4238124e-05 2.2860385e-05 -2.8754662e-22)
(-1.4021946e-05 2.414808e-05 4.6622028e-21)
(-1.3747364e-05 2.5435565e-05 -3.012223e-22)
(-1.341463e-05 2.6719451e-05 -1.3004219e-21)
(-1.3024412e-05 2.7996283e-05 -1.4642031e-21)
(-1.2577342e-05 2.9262533e-05 5.5519422e-22)
(-1.2074164e-05 3.0515113e-05 2.1396803e-21)
(-1.1515925e-05 3.1750683e-05 -1.5132859e-21)
(-1.0903747e-05 3.2966104e-05 -5.896728e-22)
(-1.0238836e-05 3.4158177e-05 -7.7590189e-22)
(-9.5226165e-06 3.5324098e-05 -7.9112544e-22)
(-8.7566239e-06 3.64608e-05 3.3111004e-21)
(-7.9424458e-06 3.7565506e-05 8.3338015e-21)
(-7.0818269e-06 3.8635556e-05 1.8356935e-21)
(-6.1766783e-06 3.9668508e-05 -1.3815765e-21)
(-5.2289761e-06 4.0661809e-05 -2.0185729e-22)
(-4.240692e-06 4.1613165e-05 1.9770079e-22)
(-3.2139619e-06 4.252043e-05 3.066951e-21)
(-2.1510186e-06 4.3381527e-05 -1.4019055e-21)
(-1.0541833e-06 4.4194527e-05 -4.4848115e-22)
(7.4214042e-08 4.4957281e-05 -2.0886359e-21)
(1.232029e-06 4.5668874e-05 1.4080431e-21)
(2.4170901e-06 4.6327893e-05 4.489285e-21)
(3.626661e-06 4.6932437e-05 2.5319769e-21)
(4.8579864e-06 4.748141e-05 2.1694881e-21)
(6.1086992e-06 4.7973737e-05 -2.2744015e-21)
(7.3766449e-06 4.8408657e-05 -1.6933316e-21)
(8.6591468e-06 4.878524e-05 1.5782775e-22)
(9.9533971e-06 4.9102939e-05 2.0441879e-21)
(1.1256993e-05 4.9361104e-05 4.7710383e-21)
(1.2567524e-05 4.9559539e-05 -6.8753456e-22)
(1.3882521e-05 4.969785e-05 -3.6516095e-21)
(1.5199496e-05 4.9776078e-05 -3.6325771e-21)
(1.6516073e-05 4.9794162e-05 -8.2263739e-23)
(1.7829876e-05 4.9752359e-05 3.1469894e-21)
(1.9138566e-05 4.9650788e-05 -1.4749122e-21)
(2.0439855e-05 4.9489917e-05 -1.5793188e-21)
(2.1731438e-05 4.9270113e-05 -1.7833122e-21)
(2.3011094e-05 4.8992148e-05 1.1613615e-21)
(2.4276703e-05 4.8656529e-05 4.0916469e-21)
(2.5526259e-05 4.8264189e-05 2.4951413e-22)
(2.6757731e-05 4.7815946e-05 -1.354436e-21)
(2.7969092e-05 4.7312945e-05 -1.4523492e-21)
(2.9158553e-05 4.6755969e-05 7.5223467e-23)
(3.0324276e-05 4.6146323e-05 1.3930126e-21)
(3.1464504e-05 4.548527e-05 3.4036558e-22)
(3.2577627e-05 4.4773985e-05 -2.002023e-22)
(3.3662044e-05 4.4013912e-05 -3.1694649e-21)
(3.4716205e-05 4.3206364e-05 -7.2031952e-22)
(3.5738756e-05 4.2352994e-05 1.5256441e-21)
(3.6728341e-05 4.1455138e-05 -8.0134945e-22)
(3.7683616e-05 4.0514353e-05 -3.3539619e-21)
(-5.5806738e-07 1.7171742e-06 2.9059605e-20)
(-1.2766712e-06 1.745786e-06 7.5237724e-20)
(-2.0946424e-06 1.8543597e-06 4.5055841e-20)
(-2.8816407e-06 2.0279825e-06 -1.036744e-20)
(-3.6827347e-06 2.2699907e-06 2.7671818e-21)
(-4.4692311e-06 2.5788268e-06 3.0426092e-20)
(-5.2389249e-06 2.9521279e-06 7.5672622e-21)
(-5.98959e-06 3.3891419e-06 -1.2632711e-22)
(-6.7178498e-06 3.8865384e-06 1.381084e-20)
(-7.4207784e-06 4.4439956e-06 -1.2637383e-20)
(-8.0956624e-06 5.0587307e-06 -2.2430218e-20)
(-8.7396982e-06 5.7294317e-06 -2.3327273e-20)
(-9.3502317e-06 6.4535476e-06 -2.2157878e-20)
(-9.9246987e-06 7.2289398e-06 -2.067385e-20)
(-1.0461075e-05 8.0530492e-06 -1.7539824e-20)
(-1.0957092e-05 8.9238829e-06 -1.3812785e-20)
(-1.1410602e-05 9.8384991e-06 -1.3412144e-20)
(-1.1819656e-05 1.0794003e-05 -1.7840732e-20)
(-1.2182483e-05 1.1787662e-05 -1.2539226e-20)
(-1.2497558e-05 1.2816515e-05 -9.083358e-21)
(-1.2763254e-05 1.3877746e-05 -9.678837e-21)
(-1.2978247e-05 1.4968239e-05 -1.1869521e-21)
(-1.3141472e-05 1.6084736e-05 1.8816721e-21)
(-1.3251967e-05 1.7224095e-05 -5.4348222e-22)
(-1.3308841e-05 1.8383067e-05 7.1689024e-21)
(-1.3311503e-05 1.9558303e-05 5.0722067e-21)
(-1.325951e-05 2.0746614e-05 8.4596867e-23)
(-1.3152418e-05 2.1944578e-05 -4.4291952e-21)
(-1.2990069e-05 2.3148845e-05 -4.5013565e-21)
(-1.2772523e-05 2.4356209e-05 4.8686109e-21)
(-1.2499966e-05 2.5563332e-05 4.3775136e-21)
(-1.2172692e-05 2.6766986e-05 -5.1839262e-22)
(-1.1791171e-05 2.7963864e-05 -3.7018575e-21)
(-1.135601e-05 2.9150843e-05 -4.1718294e-21)
(-1.0867962e-05 3.0324735e-05 3.8964002e-21)
(-1.0327943e-05 3.148254e-05 3.9807906e-21)
(-9.7369696e-06 3.262117e-05 1.0961893e-21)
(-9.096251e-06 3.3737877e-05 -2.4466749e-21)
(-8.4071365e-06 3.4829798e-05 -4.9755354e-21)
(-7.6709637e-06 3.5893939e-05 1.0953287e-21)
(-6.88925e-06 3.6927843e-05 1.9118186e-21)
(-6.0637089e-06 3.7928988e-05 6.2083011e-21)
(-5.1960754e-06 3.8895055e-05 8.4767962e-21)
(-4.2881469e-06 3.9823512e-05 3.288173e-22)
(-3.3418242e-06 4.0712251e-05 1.0182081e-21)
(-2.3590876e-06 4.1559213e-05 1.4040098e-21)
(-1.3419486e-06 4.2362405e-05 3.5601303e-21)
(-2.9321167e-07 4.3119952e-05 6.5776561e-21)
(7.8567392e-07 4.3830173e-05 -1.6570086e-22)
(1.893036e-06 4.4491915e-05 1.8812967e-21)
(3.0258626e-06 4.5103543e-05 1.9999317e-21)
(4.181767e-06 4.5663575e-05 3.9863852e-21)
(5.3584057e-06 4.6170772e-05 4.47032e-21)
(6.5535931e-06 4.6624442e-05 1.6188081e-21)
(7.7650558e-06 4.7023412e-05 1.2495462e-21)
(8.990268e-06 4.7367043e-05 7.5605667e-22)
(1.0226788e-05 4.7654658e-05 6.3156962e-21)
(1.1472255e-05 4.7885869e-05 5.8818729e-21)
(1.2724273e-05 4.8060113e-05 1.1024541e-21)
(1.3980643e-05 4.8177332e-05 9.6065676e-22)
(1.5238985e-05 4.8237384e-05 -5.0795071e-22)
(1.6496956e-05 4.8240141e-05 3.866343e-21)
(1.7752313e-05 4.8185916e-05 4.5567079e-21)
(1.9002831e-05 4.8074835e-05 1.1882384e-21)
(2.0246357e-05 4.7907161e-05 9.114475e-22)
(2.1480757e-05 4.7683424e-05 -7.7577549e-22)
(2.2703899e-05 4.7404215e-05 3.7029881e-21)
(2.3913675e-05 4.707005e-05 6.4864882e-21)
(2.5108209e-05 4.668174e-05 2.5457786e-21)
(2.6285523e-05 4.6240108e-05 6.5378745e-22)
(2.7443775e-05 4.5746136e-05 3.8979879e-22)
(2.8581208e-05 4.5200729e-05 1.8445457e-21)
(2.9695964e-05 4.4604928e-05 2.9506083e-21)
(3.0786501e-05 4.3959964e-05 1.3525999e-21)
(3.1851273e-05 4.326705e-05 1.1915605e-21)
(3.2888647e-05 4.252739e-05 1.1249132e-21)
(3.3897089e-05 4.1742411e-05 2.2696913e-21)
(3.4875364e-05 4.0913454e-05 2.6580763e-21)
(3.5822256e-05 4.004186e-05 -4.8398551e-23)
(3.6736417e-05 3.9129225e-05 -1.2335516e-21)
(-5.1480187e-07 3.2969316e-06 8.7861148e-21)
(-1.1788702e-06 3.3239786e-06 8.9316063e-21)
(-1.9343611e-06 3.426047e-06 1.0277859e-20)
(-2.6607532e-06 3.5887086e-06 1.9376398e-20)
(-3.3997849e-06 3.8154915e-06 7.2134601e-21)
(-4.1254045e-06 4.104916e-06 4.8051449e-21)
(-4.835466e-06 4.4549542e-06 1.4681779e-21)
(-5.5273973e-06 4.8641419e-06 2.2654502e-20)
(-6.1981825e-06 5.330954e-06 -4.6859043e-21)
(-6.8451776e-06 5.8536705e-06 -3.5535349e-21)
(-7.4657905e-06 6.4304304e-06 8.0659803e-21)
(-8.0575581e-06 7.0593735e-06 7.5755114e-21)
(-8.6180619e-06 7.738586e-06 1.1768535e-20)
(-9.144768e-06 8.4657041e-06 1.0726457e-20)
(-9.6353671e-06 9.2384115e-06 1.6756418e-20)
(-1.0087799e-05 1.0054955e-05 2.0409625e-21)
(-1.0500407e-05 1.0912374e-05 2.4136368e-21)
(-1.087148e-05 1.1808336e-05 4.8328924e-21)
(-1.1199022e-05 1.2739936e-05 9.7384781e-21)
(-1.148148e-05 1.3704768e-05 1.9076513e-20)
(-1.1717611e-05 1.469981e-05 7.3962292e-21)
(-1.1906099e-05 1.5722349e-05 7.5996335e-22)
(-1.2045858e-05 1.6769152e-05 1.6345945e-21)
(-1.2135965e-05 1.7837465e-05 -1.7584121e-21)
(-1.2175665e-05 1.8924137e-05 -2.5122166e-23)
(-1.2164326e-05 2.0025949e-05 9.4117437e-22)
(-1.2101453e-05 2.1140033e-05 -4.3969313e-21)
(-1.1986721e-05 2.2263123e-05 -2.7788963e-21)
(-1.1820016e-05 2.3391997e-05 -1.897049e-21)
(-1.1601306e-05 2.4523724e-05 7.3343367e-22)
(-1.1330729e-05 2.5655176e-05 1.6557054e-21)
(-1.1008609e-05 2.6783209e-05 -2.5637293e-21)
(-1.0635338e-05 2.7904805e-05 -2.7107302e-21)
(-1.021149e-05 2.9017035e-05 -6.2594659e-22)
(-9.737778e-06 3.0116765e-05 3.0676632e-21)
(-9.2150252e-06 3.1201201e-05 2.4610672e-21)
(-8.6441875e-06 3.2267457e-05 -5.9600909e-22)
(-8.0263958e-06 3.331306e-05 -1.0714726e-21)
(-7.3628749e-06 3.4335068e-05 9.4681111e-22)
(-6.6549593e-06 3.533083e-05 3.431061e-22)
(-5.9040354e-06 3.6297922e-05 3.6718898e-22)
(-5.1116924e-06 3.7234037e-05 7.4318971e-22)
(-4.2795542e-06 3.8136895e-05 -5.7512352e-21)
(-3.4092641e-06 3.9004052e-05 -3.5075524e-21)
(-2.5026823e-06 3.9833669e-05 2.7195057e-21)
(-1.5616933e-06 4.0623634e-05 2.209573e-21)
(-5.8828841e-07 4.1372087e-05 2.8704962e-21)
(4.1536109e-07 4.2077099e-05 -4.0547433e-21)
(1.4477212e-06 4.2737947e-05 -2.5147679e-21)
(2.5066895e-06 4.3352414e-05 1.778779e-21)
(3.5897826e-06 4.3919133e-05 1.2070132e-21)
(4.6947439e-06 4.4436994e-05 2.9672508e-21)
(5.8195172e-06 4.4904693e-05 2.5979358e-21)
(6.9621252e-06 4.5321752e-05 8.6750805e-22)
(8.1200243e-06 4.5686723e-05 -3.5035608e-21)
(9.2908442e-06 4.5999103e-05 -1.0372957e-21)
(1.0472404e-05 4.6258327e-05 4.1141038e-21)
(1.1662544e-05 4.6463966e-05 2.1422473e-21)
(1.2858988e-05 4.6615349e-05 9.0914165e-22)
(1.4059552e-05 4.6712537e-05 -1.478698e-21)
(1.5262052e-05 4.675537e-05 -9.3642383e-22)
(1.6464263e-05 4.6743664e-05 1.3190589e-21)
(1.7663991e-05 4.6677712e-05 -4.2831522e-22)
(1.88592e-05 4.6557562e-05 8.4539613e-22)
(2.0047815e-05 4.6383544e-05 -1.1146358e-21)
(2.1227668e-05 4.6156146e-05 -6.9724802e-22)
(2.2396771e-05 4.587575e-05 1.2340178e-21)
(2.3553325e-05 4.5543027e-05 1.6630419e-21)
(2.4695395e-05 4.5158662e-05 1.2148477e-21)
(2.582111e-05 4.4723379e-05 7.7345312e-22)
(2.6928641e-05 4.4238068e-05 1.3593666e-21)
(2.8016257e-05 4.3703812e-05 5.7511536e-22)
(2.9082386e-05 4.3121297e-05 -1.5687578e-21)
(3.0125448e-05 4.2491742e-05 3.1056759e-22)
(3.1143896e-05 4.1816387e-05 1.4632973e-21)
(3.213617e-05 4.1096406e-05 1.5740546e-21)
(3.3100933e-05 4.033302e-05 -7.3720668e-22)
(3.4036945e-05 3.9527397e-05 -1.7030267e-21)
(3.4942903e-05 3.8681008e-05 -5.2702647e-22)
(3.5817568e-05 3.7795348e-05 1.6689569e-21)
(-4.7453795e-07 4.7533347e-06 -1.0828795e-20)
(-1.0869274e-06 4.7790422e-06 -3.4421701e-20)
(-1.7833514e-06 4.8749801e-06 -3.2444138e-21)
(-2.452959e-06 5.0276942e-06 3.1534141e-21)
(-3.1343818e-06 5.240404e-06 5.2503899e-21)
(-3.8031753e-06 5.5118126e-06 1.5847616e-21)
(-4.4571098e-06 5.8402471e-06 7.5423129e-21)
(-5.0938141e-06 6.2242e-06 2.7248455e-21)
(-5.7108021e-06 6.6619914e-06 -2.3786282e-21)
(-6.3056057e-06 7.151974e-06 7.1210677e-21)
(-6.8755799e-06 7.6926866e-06 4.9693884e-21)
(-7.4182986e-06 8.2822359e-06 7.9443217e-21)
(-7.9315373e-06 8.9189366e-06 1.8260058e-21)
(-8.4130819e-06 9.6007855e-06 5.650612e-21)
(-8.8608107e-06 1.0325415e-05 -2.5176036e-21)
(-9.2728091e-06 1.1090857e-05 -6.5555919e-21)
(-9.6473337e-06 1.1894627e-05 3.7786298e-21)
(-9.9825776e-06 1.2734557e-05 1.9540225e-22)
(-1.0276901e-05 1.3608001e-05 2.8989855e-21)
(-1.0528889e-05 1.4512604e-05 -3.4169975e-21)
(-1.07373e-05 1.5445387e-05 -1.4301441e-20)
(-1.0900933e-05 1.6404007e-05 -9.6694093e-21)
(-1.1018633e-05 1.738528e-05 -5.0678772e-21)
(-1.1089665e-05 1.8386713e-05 -2.2031989e-21)
(-1.111328e-05 1.9405265e-05 5.959853e-22)
(-1.1088807e-05 2.0438086e-05 -4.0656276e-21)
(-1.1015866e-05 2.1482259e-05 -8.0399807e-21)
(-1.0894154e-05 2.2534882e-05 -3.7430417e-21)
(-1.0723411e-05 2.3592776e-05 9.986555e-22)
(-1.0503699e-05 2.4653287e-05 3.1527256e-21)
(-1.0235149e-05 2.5713409e-05 -1.466162e-21)
(-9.9179296e-06 2.6770278e-05 -5.2449853e-21)
(-9.5524842e-06 2.7820944e-05 -3.0404795e-21)
(-9.1393722e-06 2.8862645e-05 2.6816002e-21)
(-8.6792664e-06 2.9892452e-05 5.3255174e-21)
(-8.1728769e-06 3.0907759e-05 1.8784224e-21)
(-7.6211703e-06 3.1905869e-05 -1.5422322e-21)
(-7.025137e-06 3.2884249e-05 -1.7230788e-21)
(-6.3858534e-06 3.3840292e-05 2.3751667e-21)
(-5.7046651e-06 3.477156e-05 1.4830109e-21)
(-4.9829143e-06 3.5675614e-05 1.7514954e-21)
(-4.2220265e-06 3.6550335e-05 2.0390335e-21)
(-3.4234993e-06 3.7393459e-05 1.5483241e-21)
(-2.5889533e-06 3.8202789e-05 -3.5171398e-22)
(-1.720104e-06 3.8976548e-05 -5.8902773e-21)
(-8.1868171e-07 3.9712601e-05 -2.635023e-21)
(1.1331341e-07 4.0409293e-05 1.8387648e-21)
(1.0742135e-06 4.106502e-05 8.1647033e-22)
(2.0623791e-06 4.1678774e-05 -7.7389808e-22)
(3.0755071e-06 4.2248505e-05 -4.8444159e-21)
(4.1114942e-06 4.2772909e-05 -1.1929985e-21)
(5.1682188e-06 4.3250782e-05 3.376732e-21)
(6.2438191e-06 4.3681304e-05 3.3827238e-21)
(7.3362633e-06 4.4063477e-05 3.1330786e-21)
(8.4431166e-06 4.4396399e-05 4.3920045e-21)
(9.5623345e-06 4.4679247e-05 3.7746683e-21)
(1.0691744e-05 4.4911585e-05 3.1383453e-21)
(1.1829289e-05 4.5092956e-05 1.8469536e-21)
(1.2972875e-05 4.5222793e-05 2.8942817e-21)
(1.4120393e-05 4.5301026e-05 3.3779162e-21)
(1.5269762e-05 4.5327531e-05 1.8864379e-21)
(1.6418891e-05 4.530216e-05 2.0074322e-21)
(1.7565689e-05 4.5225121e-05 1.5710168e-21)
(1.8708117e-05 4.5096441e-05 2.0353116e-21)
(1.9844244e-05 4.4916469e-05 2.950471e-21)
(2.0972141e-05 4.4685685e-05 1.9959925e-21)
(2.2089916e-05 4.440425e-05 3.9779161e-21)
(2.3195686e-05 4.407301e-05 2.8041069e-21)
(2.4287632e-05 4.3692449e-05 2.3498832e-21)
(2.5364021e-05 4.326328e-05 3.4512955e-21)
(2.642307e-05 4.2786424e-05 1.7470308e-21)
(2.7463239e-05 4.2262746e-05 3.5948384e-21)
(2.8482956e-05 4.1692981e-05 1.5052301e-21)
(2.9480556e-05 4.1078274e-05 1.9400089e-21)
(3.0454675e-05 4.0419785e-05 2.1638077e-21)
(3.1403881e-05 3.9718624e-05 8.3764302e-23)
(3.232688e-05 3.8975863e-05 2.9412041e-21)
(3.3222371e-05 3.8192692e-05 1.752817e-21)
(3.4089063e-05 3.7370647e-05 9.8109627e-22)
(3.4925861e-05 3.6510875e-05 -6.5406329e-24)
(-4.3672724e-07 6.0965839e-06 -1.6306891e-20)
(-1.0011114e-06 6.1207612e-06 -3.6536619e-20)
(-1.6424255e-06 6.2106938e-06 -6.8222747e-21)
(-2.2586595e-06 6.3539382e-06 -1.1299055e-21)
(-2.8856596e-06 6.5533384e-06 1.6269386e-20)
(-3.5007939e-06 6.807868e-06 -2.7674307e-22)
(-4.1020487e-06 7.1158813e-06 -6.3572254e-21)
(-4.6872619e-06 7.4758365e-06 -7.8577435e-21)
(-5.2540093e-06 7.8861836e-06 -3.1744727e-21)