/*--------------------------------*- C++ -*----------------------------------*\
| =========                 |                                                 |
| \\      /  F ield         | OpenFOAM: The Open Source CFD Toolbox           |
|  \\    /   O peration     | Version:  2306                                  |
|   \\  /    A nd           | Website:  www.openfoam.com                      |
|    \\/     M anipulation  |                                                 |
\*---------------------------------------------------------------------------*/
FoamFile
{
    version     2.0;
    format      ascii;
    arch        "LSB;label=32;scalar=64";
    class       surfaceScalarField;
    location    "0.02";
    object      phi;
}
// * * * * * * * * * * * * * * * * * * * * * * * * * * * * * * * * * * * * * //

dimensions      [0 3 -1 0 0 0 0];

oriented        oriented;

internalField   nonuniform List<scalar> 
12640
(
-6.6571338e-07
-1.1687651e-06
-6.4352645e-07
-1.1532718e-06
-6.2229747e-07
-1.1382182e-06
-6.0197312e-07
-1.1235955e-06
-5.8250336e-07
-1.1093952e-06
-5.6384124e-07
-1.0956087e-06
-5.4594267e-07
-1.0822272e-06
-5.2876626e-07
-1.0692422e-06
-5.1227309e-07
-1.0566451e-06
-4.9642656e-07
-1.0444275e-06
-4.8119225e-07
-1.0325812e-06
-4.6653772e-07
-1.0210981e-06
-4.5243246e-07
-1.0099703e-06
-4.3884768e-07
-9.9919022e-07
-4.2575625e-07
-9.887503e-07
-4.1313261e-07
-9.786433e-07
-4.0095261e-07
-9.688622e-07
-3.8919346e-07
-9.5940022e-07
-3.7783357e-07
-9.502508e-07
-3.6685263e-07
-9.4140761e-07
-3.5623137e-07
-9.3286459e-07
-3.459516e-07
-9.2461585e-07
-3.3599603e-07
-9.1665581e-07
-3.2634835e-07
-9.0897908e-07
-3.1699305e-07
-9.0158051e-07
-3.0791551e-07
-8.9445517e-07
-2.9910178e-07
-8.8759833e-07
-2.9053865e-07
-8.8100553e-07
-2.8221361e-07
-8.7467246e-07
-2.7411467e-07
-8.685951e-07
-2.6623055e-07
-8.6276959e-07
-2.5855047e-07
-8.5719223e-07
-2.5106415e-07
-8.5185962e-07
-2.4376189e-07
-8.467684e-07
-2.3663433e-07
-8.4191558e-07
-2.2967263e-07
-8.3729819e-07
-2.2286835e-07
-8.3291357e-07
-2.1621338e-07
-8.2875914e-07
-2.0970001e-07
-8.2483253e-07
-2.0332086e-07
-8.2113153e-07
-1.9706892e-07
-8.1765409e-07
-1.9093739e-07
-8.1439834e-07
-1.8491989e-07
-8.1136248e-07
-1.7901015e-07
-8.0854503e-07
-1.7320228e-07
-8.0594447e-07
-1.6749055e-07
-8.0355955e-07
-1.6186952e-07
-8.0138908e-07
-1.5633391e-07
-7.9943213e-07
-1.5087865e-07
-7.9768776e-07
-1.4549884e-07
-7.9615523e-07
-1.4018978e-07
-7.9483397e-07
-1.3494692e-07
-7.9372348e-07
-1.2976589e-07
-7.9282337e-07
-1.2464243e-07
-7.9213349e-07
-1.1957244e-07
-7.9165365e-07
-1.145519e-07
-7.9138392e-07
-1.0957701e-07
-7.9132436e-07
-1.0464392e-07
-7.9147532e-07
-9.9749007e-08
-7.9183713e-07
-9.4888686e-08
-7.9241031e-07
-9.0059513e-08
-7.9319539e-07
-8.5258034e-08
-7.9419311e-07
-8.0480961e-08
-7.9540432e-07
-7.5724999e-08
-7.9682997e-07
-7.0986974e-08
-7.9847108e-07
-6.6263719e-08
-8.0032887e-07
-6.155212e-08
-8.0240459e-07
-5.6849137e-08
-8.0469967e-07
-5.2151764e-08
-8.0721562e-07
-4.7456968e-08
-8.0995408e-07
-4.2761769e-08
-8.129168e-07
-3.8063236e-08
-8.161057e-07
-3.3358415e-08
-8.1952275e-07
-2.8644353e-08
-8.2317005e-07
-2.3918098e-08
-8.2704992e-07
-1.9176687e-08
-8.3116471e-07
-1.4417164e-08
-8.3551689e-07
-9.6364994e-09
-8.4010896e-07
-4.8317205e-09
-8.449416e-07
-8.5000923e-07
-6.3587354e-07
-1.1911428e-06
-6.1448771e-07
-1.1746577e-06
-5.9403734e-07
-1.1586685e-06
-5.7446962e-07
-1.1431632e-06
-5.5573502e-07
-1.1281298e-06
-5.3778716e-07
-1.1135566e-06
-5.2058251e-07
-1.0994319e-06
-5.040803e-07
-1.0857444e-06
-4.8824218e-07
-1.0724832e-06
-4.7303216e-07
-1.0596375e-06
-4.5841641e-07
-1.0471969e-06
-4.4436311e-07
-1.0351514e-06
-4.3084231e-07
-1.0234911e-06
-4.1782581e-07
-1.0122067e-06
-4.0528708e-07
-1.001289e-06
-3.9320109e-07
-9.9072929e-07
-3.8154427e-07
-9.8051903e-07
-3.7029433e-07
-9.7065016e-07
-3.5943027e-07
-9.6111486e-07
-3.4893221e-07
-9.5190567e-07
-3.3878144e-07
-9.4301535e-07
-3.2896017e-07
-9.344371e-07
-3.1945168e-07
-9.261643e-07
-3.1024004e-07
-9.1819071e-07
-3.0131026e-07
-9.105103e-07
-2.9264807e-07
-9.0311736e-07
-2.8423997e-07
-8.9600642e-07
-2.7607315e-07
-8.8917234e-07
-2.6813545e-07
-8.8261016e-07
-2.6041533e-07
-8.7631523e-07
-2.5290181e-07
-8.702831e-07
-2.4558449e-07
-8.6450956e-07
-2.3845346e-07
-8.5899065e-07
-2.3149924e-07
-8.5372262e-07
-2.2471288e-07
-8.4870193e-07
-2.1808579e-07
-8.4392528e-07
-2.1160983e-07
-8.3938955e-07
-2.0527718e-07
-8.3509177e-07
-1.9908047e-07
-8.3102925e-07
-1.9301255e-07
-8.2719947e-07
-1.8706663e-07
-8.236e-07
-1.8123624e-07
-8.2022872e-07
-1.7551515e-07
-8.170836e-07
-1.6989739e-07
-8.1416279e-07
-1.6437727e-07
-8.1146461e-07
-1.589493e-07
-8.0898753e-07
-1.5360821e-07
-8.0673019e-07
-1.4834896e-07
-8.0469137e-07
-1.4316668e-07
-8.0287005e-07
-1.3805669e-07
-8.0126522e-07
-1.3301448e-07
-7.9987619e-07
-1.2803567e-07
-7.9870227e-07
-1.2311605e-07
-7.97743e-07
-1.1825157e-07
-7.9699796e-07
-1.1343829e-07
-7.9646693e-07
-1.0867239e-07
-7.961498e-07
-1.0395015e-07
-7.960466e-07
-9.9267969e-08
-7.9615749e-07
-9.4622341e-08
-7.9648277e-07
-9.0009891e-08
-7.9702276e-07
-8.5427259e-08
-7.9777801e-07
-8.0871204e-08
-7.9874918e-07
-7.6338533e-08
-7.9993699e-07
-7.1826149e-08
-8.0134237e-07
-6.7330962e-08
-8.0296627e-07
-6.2850007e-08
-8.0480984e-07
-5.8380289e-08
-8.0687431e-07
-5.3918919e-08
-8.0916105e-07
-4.9463003e-08
-8.1167153e-07
-4.5009689e-08
-8.1440738e-07
-4.0556123e-08
-8.1737038e-07
-3.6099542e-08
-8.2056229e-07
-3.1637123e-08
-8.2398515e-07
-2.7166053e-08
-8.2764113e-07
-2.2683549e-08
-8.3153245e-07
-1.8186742e-08
-8.356615e-07
-1.3672825e-08
-8.4003079e-07
-9.1389624e-09
-8.4464282e-07
-4.5822813e-09
-8.4949829e-07
-8.5459151e-07
-6.0477009e-07
-1.2126198e-06
-5.8425698e-07
-1.1951708e-06
-5.6465221e-07
-1.1782733e-06
-5.4590378e-07
-1.1619117e-06
-5.2796303e-07
-1.1460706e-06
-5.1078441e-07
-1.1307352e-06
-4.9432525e-07
-1.115891e-06
-4.785456e-07
-1.1015241e-06
-4.6340792e-07
-1.0876208e-06
-4.4887704e-07
-1.0741684e-06
-4.3491992e-07
-1.061154e-06
-4.2150547e-07
-1.0485658e-06
-4.0860454e-07
-1.0363921e-06
-3.9618967e-07
-1.0246216e-06
-3.8423503e-07
-1.0132437e-06
-3.7271629e-07
-1.002248e-06
-3.6161052e-07
-9.9162482e-07
-3.508961e-07
-9.8136457e-07
-3.4055264e-07
-9.7145833e-07
-3.3056089e-07
-9.6189741e-07
-3.2090269e-07
-9.5267355e-07
-3.1156089e-07
-9.4377891e-07
-3.0251923e-07
-9.3520597e-07
-2.9376237e-07
-9.2694757e-07
-2.8527581e-07
-9.1899687e-07
-2.7704575e-07
-9.113474e-07
-2.6905917e-07
-9.03993e-07
-2.6130374e-07
-8.9692778e-07
-2.5376769e-07
-8.9014621e-07
-2.4643993e-07
-8.8364299e-07
-2.3930989e-07
-8.7741315e-07
-2.3236755e-07
-8.714519e-07
-2.2560337e-07
-8.6575481e-07
-2.190083e-07
-8.603177e-07
-2.1257362e-07
-8.551366e-07
-2.0629117e-07
-8.5020773e-07
-2.0015311e-07
-8.4552761e-07
-1.9415192e-07
-8.4109296e-07
-1.8828051e-07
-8.3690066e-07
-1.8253208e-07
-8.3294789e-07
-1.7690009e-07
-8.2923198e-07
-1.7137835e-07
-8.2575047e-07
-1.6596087e-07
-8.2250107e-07
-1.60642e-07
-8.1948165e-07
-1.5541622e-07
-8.1669038e-07
-1.5027831e-07
-8.1412543e-07
-1.4522326e-07
-8.1178525e-07
-1.4024619e-07
-8.0966844e-07
-1.353425e-07
-8.0777372e-07
-1.3050771e-07
-8.0610003e-07
-1.2573748e-07
-8.0464642e-07
-1.2102766e-07
-8.034121e-07
-1.1637425e-07
-8.0239641e-07
-1.1177338e-07
-8.0159883e-07
-1.0722128e-07
-8.0101904e-07
-1.0271427e-07
-8.006568e-07
-9.8248853e-08
-8.0051201e-07
-9.382162e-08
-8.0058475e-07
-8.94292e-08
-8.0087518e-07
-8.5068391e-08
-8.0138358e-07
-8.0736012e-08
-8.021104e-07
-7.6428937e-08
-8.0305623e-07
-7.2144173e-08
-8.0422175e-07
-6.7878735e-08
-8.0560779e-07
-6.362975e-08
-8.0721526e-07
-5.9394336e-08
-8.0904524e-07
-5.5169701e-08
-8.1109894e-07
-5.0953061e-08
-8.1337768e-07
-4.6741695e-08
-8.1588289e-07
-4.2532894e-08
-8.1861618e-07
-3.8324005e-08
-8.2157926e-07
-3.4112341e-08
-8.2477394e-07
-2.9895252e-08
-8.2820225e-07
-2.5670107e-08
-8.3186628e-07
-2.1434237e-08
-8.3576832e-07
-1.7184966e-08
-8.3991076e-07
-1.2919629e-08
-8.4429613e-07
-8.6355228e-09
-8.4892694e-07
-4.329879e-09
-8.5380392e-07
-8.589214e-07
-5.7244194e-07
-1.2331209e-06
-5.5287187e-07
-1.2147409e-06
-5.3417837e-07
-1.1969668e-06
-5.1631065e-07
-1.1797794e-06
-4.9922118e-07
-1.1631601e-06
-4.8286557e-07
-1.1470908e-06
-4.6720227e-07
-1.1315543e-06
-4.5219235e-07
-1.116534e-06
-4.3779937e-07
-1.1020138e-06
-4.2398914e-07
-1.0879786e-06
-4.107296e-07
-1.0744136e-06
-3.9799064e-07
-1.0613048e-06
-3.85744e-07
-1.0486387e-06
-3.7396314e-07
-1.0364025e-06
-3.6262305e-07
-1.0245838e-06
-3.5170021e-07
-1.0131709e-06
-3.4117248e-07
-1.0021525e-06
-3.3101904e-07
-9.9151803e-07
-3.2122016e-07
-9.8125719e-07
-3.1175738e-07
-9.7136019e-07
-3.0261317e-07
-9.6181776e-07
-2.93771e-07
-9.5262108e-07
-2.8521529e-07
-9.4376167e-07
-2.7693128e-07
-9.3523159e-07
-2.6890499e-07
-9.2702315e-07
-2.6112322e-07
-9.1912916e-07
-2.5357349e-07
-9.1154275e-07
-2.462439e-07
-9.0425737e-07
-2.3912327e-07
-8.9726685e-07
-2.322009e-07
-8.9056537e-07
-2.2546674e-07
-8.841473e-07
-2.1891113e-07
-8.7800751e-07
-2.1252497e-07
-8.7214098e-07
-2.0629956e-07
-8.6654311e-07
-2.0022671e-07
-8.6120946e-07
-1.9429849e-07
-8.5613596e-07
-1.8850745e-07
-8.5131866e-07
-1.8284643e-07
-8.4675396e-07
-1.7730867e-07
-8.4243843e-07
-1.7188764e-07
-8.3836891e-07
-1.6657715e-07
-8.3454248e-07
-1.6137127e-07
-8.3095635e-07
-1.5626432e-07
-8.2760801e-07
-1.5125088e-07
-8.2449511e-07
-1.4632575e-07
-8.2161551e-07
-1.4148397e-07
-8.1896723e-07
-1.3672069e-07
-8.1654851e-07
-1.320314e-07
-8.1435774e-07
-1.2741163e-07
-8.1239351e-07
-1.2285714e-07
-8.106545e-07
-1.1836383e-07
-8.0913975e-07
-1.1392775e-07
-8.0784816e-07
-1.095451e-07
-8.0677907e-07
-1.0521221e-07
-8.0593173e-07
-1.0092549e-07
-8.0530576e-07
-9.6681502e-08
-8.049008e-07
-9.2476909e-08
-8.0471661e-07
-8.8308444e-08
-8.0475323e-07
-8.4172983e-08
-8.0501063e-07
-8.0067424e-08
-8.0548914e-07
-7.5988764e-08
-8.0618905e-07
-7.1934091e-08
-8.0711092e-07
-6.7900529e-08
-8.0825532e-07
-6.3885317e-08
-8.0962302e-07
-5.9885647e-08
-8.1121492e-07
-5.5898873e-08
-8.1303202e-07
-5.1922328e-08
-8.1507551e-07
-4.7953388e-08
-8.1734661e-07
-4.3989502e-08
-8.1984678e-07
-4.0028116e-08
-8.2257759e-07
-3.6066723e-08
-8.2554065e-07
-3.2102806e-08
-8.2873786e-07
-2.8133864e-08
-8.3217118e-07
-2.4157419e-08
-8.3584273e-07
-2.0170977e-08
-8.3975476e-07
-1.617203e-08
-8.4390972e-07
-1.2158033e-08
-8.4831012e-07
-8.1264367e-09
-8.5295853e-07
-4.0746033e-09
-8.5785574e-07
-8.6299602e-07
-5.3893396e-07
-1.2525725e-06
-5.2037549e-07
-1.2332993e-06
-5.0265727e-07
-1.214685e-06
-4.8573e-07
-1.1967067e-06
-4.6954767e-07
-1.1793424e-06
-4.5406729e-07
-1.1625712e-06
-4.3924869e-07
-1.1463729e-06
-4.2505426e-07
-1.1307284e-06
-4.1144882e-07
-1.1156193e-06
-3.9839941e-07
-1.101028e-06
-3.8587515e-07
-1.0869379e-06
-3.7384706e-07
-1.0733329e-06
-3.6228795e-07
-1.0601978e-06
-3.5117231e-07
-1.0475181e-06
-3.4047611e-07
-1.03528e-06
-3.301768e-07
-1.0234702e-06
-3.2025312e-07
-1.0120762e-06
-3.1068513e-07
-1.001086e-06
-3.0145398e-07
-9.9048834e-07
-2.9254191e-07
-9.8027226e-07
-2.8393221e-07
-9.7042746e-07
-2.7560911e-07
-9.6094418e-07
-2.6755765e-07
-9.5181314e-07
-2.5976376e-07
-9.4302548e-07
-2.5221411e-07
-9.3457281e-07
-2.448961e-07
-9.2644718e-07
-2.3779786e-07
-9.18641e-07
-2.3090802e-07
-9.1114719e-07
-2.2421594e-07
-9.0395893e-07
-2.1771148e-07
-8.9706983e-07
-2.1138498e-07
-8.904738e-07
-2.0522733e-07
-8.8416517e-07
-1.9922982e-07
-8.7813848e-07
-1.9338427e-07
-8.7238865e-07
-1.876828e-07
-8.6691093e-07
-1.8211796e-07
-8.617008e-07
-1.7668266e-07
-8.5675396e-07
-1.7137013e-07
-8.5206647e-07
-1.6617389e-07
-8.4763467e-07
-1.6108783e-07
-8.4345498e-07
-1.5610602e-07
-8.3952428e-07
-1.5122287e-07
-8.358395e-07
-1.4643302e-07
-8.3239787e-07
-1.417313e-07
-8.2919682e-07
-1.3711284e-07
-8.2623397e-07
-1.3257289e-07
-8.2350719e-07
-1.2810696e-07
-8.2101445e-07
-1.2371068e-07
-8.1875403e-07
-1.1937987e-07
-8.167243e-07
-1.1511054e-07
-8.1492385e-07
-1.108988e-07
-8.1335147e-07
-1.0674096e-07
-8.12006e-07
-1.0263342e-07
-8.1088662e-07
-9.8572643e-08
-8.0999248e-07
-9.4555369e-08
-8.0932305e-07
-9.0578268e-08
-8.0887788e-07
-8.6638229e-08
-8.0865665e-07
-8.2732192e-08
-8.0865924e-07
-7.8857172e-08
-8.0888567e-07
-7.501028e-08
-8.0933604e-07
-7.1188686e-08
-8.1001067e-07
-6.7389635e-08
-8.1090996e-07
-6.3610442e-08
-8.1203453e-07
-5.9848453e-08
-8.13385e-07
-5.6101119e-08
-8.1496224e-07
-5.2365877e-08
-8.1676726e-07
-4.8640288e-08
-8.1880109e-07
-4.492189e-08
-8.2106503e-07
-4.1208214e-08
-8.2356045e-07
-3.7496944e-08
-8.2628885e-07
-3.3785715e-08
-8.2925189e-07
-3.0072179e-08
-8.324514e-07
-2.6354004e-08
-8.3588934e-07
-2.2628885e-08
-8.3956786e-07
-1.8894478e-08
-8.4348917e-07
-1.5148472e-08
-8.4765573e-07
-1.1388424e-08
-8.5207016e-07
-7.6119485e-09
-8.56735e-07
-3.8166327e-09
-8.6165107e-07
-8.6681264e-07
-5.0429677e-07
-1.2709033e-06
-4.868163e-07
-1.2507798e-06
-4.7013525e-07
-1.2313661e-06
-4.542062e-07
-1.2126357e-06
-4.3898491e-07
-1.1945637e-06
-4.2443013e-07
-1.177126e-06
-4.1050329e-07
-1.1602997e-06
-3.9716838e-07
-1.1440633e-06
-3.8439171e-07
-1.1283959e-06
-3.7214175e-07
-1.113278e-06
-3.6038896e-07
-1.0986906e-06
-3.491057e-07
-1.0846161e-06
-3.3826599e-07
-1.0710375e-06
-3.2784548e-07
-1.0579386e-06
-3.1782129e-07
-1.0453042e-06
-3.0817193e-07
-1.0331195e-06
-2.9887719e-07
-1.0213709e-06
-2.8991806e-07
-1.0100452e-06
-2.8127666e-07
-9.9912973e-07
-2.7293612e-07
-9.8861278e-07
-2.6488055e-07
-9.7848302e-07
-2.5709497e-07
-9.6872976e-07
-2.4956521e-07
-9.593429e-07
-2.4227793e-07
-9.5031276e-07
-2.3522052e-07
-9.4163021e-07
-2.2838104e-07
-9.3328667e-07
-2.2174819e-07
-9.2527385e-07
-2.1531132e-07
-9.1758406e-07
-2.0906031e-07
-9.1020994e-07
-2.0298555e-07
-9.0314458e-07
-1.9707796e-07
-8.963814e-07
-1.9132891e-07
-8.8991422e-07
-1.8573023e-07
-8.8373716e-07
-1.802741e-07
-8.7784478e-07
-1.7495317e-07
-8.7223185e-07
-1.6976043e-07
-8.6689355e-07
-1.6468912e-07
-8.6182525e-07
-1.5973291e-07
-8.5702271e-07
-1.5488571e-07
-8.5248186e-07
-1.5014169e-07
-8.48199e-07
-1.4549538e-07
-8.441706e-07
-1.4094146e-07
-8.4039342e-07
-1.364749e-07
-8.3686442e-07
-1.3209084e-07
-8.3358087e-07
-1.277847e-07
-8.3054012e-07
-1.2355203e-07
-8.2773984e-07
-1.1938858e-07
-8.2517789e-07
-1.1529029e-07
-8.2285233e-07
-1.1125324e-07
-8.2076137e-07
-1.0727366e-07
-8.1890343e-07
-1.0334792e-07
-8.1727721e-07
-9.9472531e-08
-8.158814e-07
-9.5644143e-08
-8.1471501e-07
-9.1859483e-08
-8.1377715e-07
-8.8115395e-08
-8.1306712e-07
-8.4408874e-08
-8.1258441e-07
-8.0736912e-08
-8.123286e-07
-7.7096724e-08
-8.1229945e-07
-7.348546e-08
-8.1249692e-07
-6.9900431e-08
-8.1292108e-07
-6.6339012e-08
-8.1357211e-07
-6.2798595e-08
-8.1445038e-07
-5.9276708e-08
-8.1555642e-07
-5.5770865e-08
-8.1689084e-07
-5.2278656e-08
-8.1845446e-07
-4.8797724e-08
-8.2024819e-07
-4.5325743e-08
-8.2227308e-07
-4.1860455e-08
-8.2453032e-07
-3.8399611e-08
-8.2702129e-07
-3.4941008e-08
-8.2974747e-07
-3.148242e-08
-8.3271046e-07
-2.8021723e-08
-8.359121e-07
-2.4556761e-08
-8.3935431e-07
-2.1085398e-08
-8.4303922e-07
-1.760549e-08
-8.4696909e-07
-1.4114824e-08
-8.511464e-07
-1.0611213e-08
-8.5557376e-07
-7.0924103e-09
-8.6025381e-07
-3.5561083e-09
-8.6518738e-07
-8.7036873e-07
-4.6858675e-07
-1.2880448e-06
-4.5224805e-07
-1.2671185e-06
-4.3666356e-07
-1.2469506e-06
-4.2178807e-07
-1.2275112e-06
-4.0757946e-07
-1.2087723e-06
-3.9399845e-07
-1.190707e-06
-3.810084e-07
-1.1732898e-06
-3.6857509e-07
-1.1564966e-06
-3.5666655e-07
-1.1403045e-06
-3.4525286e-07
-1.1246916e-06
-3.3430607e-07
-1.1096374e-06
-3.2379996e-07
-1.0951223e-06
-3.1370997e-07
-1.0811275e-06
-3.0401306e-07
-1.0676355e-06
-2.946876e-07
-1.0546296e-06
-2.8571332e-07
-1.0420938e-06
-2.7707114e-07
-1.0300131e-06
-2.6874309e-07
-1.0183732e-06
-2.6071236e-07
-1.0071605e-06
-2.5296306e-07
-9.9636209e-07
-2.4548018e-07
-9.8596589e-07
-2.3824963e-07
-9.7596033e-07
-2.312581e-07
-9.6633442e-07
-2.2449304e-07
-9.570778e-07
-2.179426e-07
-9.4818067e-07
-2.1159555e-07
-9.396337e-07
-2.054413e-07
-9.3142809e-07
-1.9946984e-07
-9.2355551e-07
-1.9367167e-07
-9.1600811e-07
-1.8803779e-07
-9.0877845e-07
-1.825597e-07
-9.0185949e-07
-1.7722931e-07
-8.952446e-07
-1.7203895e-07
-8.8892752e-07
-1.6698135e-07
-8.8290239e-07
-1.6204957e-07
-8.7716363e-07
-1.5723705e-07
-8.7170606e-07
-1.5253753e-07
-8.6652478e-07
-1.4794504e-07
-8.616152e-07
-1.4345387e-07
-8.5697303e-07
-1.3905866e-07
-8.525942e-07
-1.3475423e-07
-8.4847503e-07
-1.3053565e-07
-8.44612e-07
-1.2639818e-07
-8.4100189e-07
-1.2233737e-07
-8.3764168e-07
-1.1834887e-07
-8.3452862e-07
-1.1442856e-07
-8.3166015e-07
-1.1057248e-07
-8.2903396e-07
-1.0677686e-07
-8.2664797e-07
-1.0303802e-07
-8.245002e-07
-9.9352486e-08
-8.2258898e-07
-9.5716862e-08
-8.2091282e-07
-9.2127895e-08
-8.1947038e-07
-8.8582478e-08
-8.1826043e-07
-8.5077553e-08
-8.1728206e-07
-8.1610241e-08
-8.1653444e-07
-7.8177704e-08
-8.1601696e-07
-7.4777158e-08
-8.1572914e-07
-7.1405979e-08
-8.1567064e-07
-6.8061577e-08
-8.1584131e-07
-6.4741434e-08
-8.1624122e-07
-6.144309e-08
-8.1687043e-07
-5.8164164e-08
-8.1772931e-07
-5.490233e-08
-8.1881824e-07
-5.16553e-08
-8.2013788e-07
-4.8420822e-08
-8.2168894e-07
-4.5196745e-08
-8.2347226e-07
-4.1980918e-08
-8.254889e-07
-3.8771219e-08
-8.2774003e-07
-3.556556e-08
-8.3022696e-07
-3.2361939e-08
-8.3295109e-07
-2.9158335e-08
-8.3591407e-07
-2.5952756e-08
-8.3911767e-07
-2.2743255e-08
-8.4256382e-07
-1.9527914e-08
-8.4625458e-07
-1.6304715e-08
-8.5019227e-07
-1.3071719e-08
-8.5437941e-07
-9.8268534e-09
-8.5881863e-07
-6.5680573e-09
-8.635126e-07
-3.2931546e-09
-8.684623e-07
-8.7366189e-07
-4.3186592e-07
-1.3039316e-06
-4.167297e-07
-1.2822547e-06
-4.0229824e-07
-1.261382e-06
-3.8852889e-07
-1.2412805e-06
-3.7538196e-07
-1.2219192e-06
-3.6282043e-07
-1.2032685e-06
-3.5080982e-07
-1.1853004e-06
-3.3931795e-07
-1.1679885e-06
-3.2831478e-07
-1.1513076e-06
-3.1777222e-07
-1.1352342e-06
-3.0766403e-07
-1.1197456e-06
-2.9796561e-07
-1.1048207e-06
-2.8865395e-07
-1.0904392e-06
-2.7970748e-07
-1.076582e-06
-2.7110597e-07
-1.0632311e-06
-2.6283043e-07
-1.0503694e-06
-2.5486302e-07
-1.0379805e-06
-2.4718703e-07
-1.0260492e-06
-2.3978665e-07
-1.0145609e-06
-2.3264709e-07
-1.0035017e-06
-2.2575435e-07
-9.9285862e-07
-2.1909528e-07
-9.8261938e-07
-2.1265752e-07
-9.727722e-07
-2.064293e-07
-9.6330601e-07
-2.0039962e-07
-9.5421032e-07
-1.9455809e-07
-9.4547525e-07
-1.8889479e-07
-9.3709139e-07
-1.8340041e-07
-9.2904989e-07
-1.7806613e-07
-9.2134239e-07
-1.7288361e-07
-9.1396097e-07
-1.6784493e-07
-9.0689819e-07
-1.6294258e-07
-9.0014693e-07
-1.5816947e-07
-8.9370064e-07
-1.5351883e-07
-8.8755304e-07
-1.4898423e-07
-8.8169823e-07
-1.4455958e-07
-8.7613072e-07
-1.4023907e-07
-8.7084529e-07
-1.3601719e-07
-8.6583707e-07
-1.3188869e-07
-8.6110152e-07
-1.2784854e-07
-8.5663437e-07
-1.2389195e-07
-8.5243161e-07
-1.2001438e-07
-8.4848958e-07
-1.1621146e-07
-8.448048e-07
-1.1247904e-07
-8.413741e-07
-1.0881315e-07
-8.3819451e-07
-1.0520994e-07
-8.3526336e-07
-1.0166576e-07
-8.3257813e-07
-9.8177144e-08
-8.3013658e-07
-9.4740694e-08
-8.2793665e-07
-9.1353165e-08
-8.2597651e-07
-8.8011481e-08
-8.2425451e-07
-8.4712647e-08
-8.227692e-07
-8.1453753e-08
-8.2151933e-07
-7.8232023e-08
-8.2050379e-07
-7.504475e-08
-8.1972172e-07
-7.1889344e-08
-8.1917236e-07
-6.8763294e-08
-8.1885519e-07
-6.5664116e-08
-8.1876982e-07
-6.2589428e-08
-8.1891601e-07
-5.9536956e-08
-8.192937e-07
-5.6504399e-08
-8.1990298e-07
-5.3489603e-08
-8.207441e-07
-5.0490376e-08
-8.2181747e-07
-4.7504661e-08
-8.231236e-07
-4.4530371e-08
-8.2466322e-07
-4.1565492e-08
-8.2643713e-07
-3.8608094e-08
-8.2844632e-07
-3.5656215e-08
-8.3069189e-07
-3.2707972e-08
-8.3317519e-07
-2.9761497e-08
-8.3589757e-07
-2.681496e-08
-8.388606e-07
-2.3866593e-08
-8.4206604e-07
-2.0914649e-08
-8.4551576e-07
-1.795734e-08
-8.4921187e-07
-1.4992962e-08
-8.5315667e-07
-1.2019682e-08
-8.5735266e-07
-9.0357219e-09
-8.6180259e-07
-6.0391224e-09
-8.6650919e-07
-3.0278925e-09
-8.7147352e-07
-8.7668979e-07
-3.9420167e-07
-1.3185023e-06
-3.8032509e-07
-1.2961313e-06
-3.6709983e-07
-1.2746073e-06
-3.544861e-07
-1.2538943e-06
-3.4244689e-07
-1.2339584e-06
-3.3094778e-07
-1.2147676e-06
-3.1995665e-07
-1.1962915e-06
-3.0944359e-07
-1.1785015e-06
-2.9938069e-07
-1.1613705e-06
-2.8974189e-07
-1.144873e-06
-2.805028e-07
-1.1289847e-06
-2.7164063e-07
-1.1136828e-06
-2.6313408e-07
-1.0989457e-06
-2.5496315e-07
-1.0847529e-06
-2.4710911e-07
-1.0710851e-06
-2.395544e-07
-1.0579241e-06
-2.3228257e-07
-1.0452524e-06
-2.2527807e-07
-1.0330537e-06
-2.1852638e-07
-1.0213125e-06
-2.120138e-07
-1.0100142e-06
-2.0572745e-07
-9.9914497e-07
-1.996552e-07
-9.8869164e-07
-1.9378558e-07
-9.786418e-07
-1.8810785e-07
-9.6898376e-07
-1.8261184e-07
-9.5970636e-07
-1.7728791e-07
-9.5079917e-07
-1.7212701e-07
-9.422523e-07
-1.6712056e-07
-9.3405635e-07
-1.6226043e-07
-9.2620251e-07
-1.5753897e-07
-9.1868244e-07
-1.5294889e-07
-9.1148825e-07
-1.4848332e-07
-9.0461252e-07
-1.441357e-07
-8.9804824e-07
-1.3989986e-07
-8.9178889e-07
-1.3576987e-07
-8.8582822e-07
-1.3174018e-07
-8.8016041e-07
-1.2780541e-07
-8.7478005e-07
-1.2396055e-07
-8.6968193e-07
-1.2020077e-07
-8.648613e-07
-1.1652144e-07
-8.603137e-07
-1.1291821e-07
-8.5603483e-07
-1.0938693e-07
-8.5202086e-07
-1.0592358e-07
-8.4826816e-07
-1.0252435e-07
-8.4477333e-07
-9.9185588e-08
-8.4153326e-07
-9.5903846e-08
-8.385451e-07
-9.2675768e-08
-8.3580622e-07
-8.9498133e-08
-8.333142e-07
-8.6367898e-08
-8.3106688e-07
-8.3282116e-08
-8.2906229e-07
-8.023791e-08
-8.272987e-07
-7.7232583e-08
-8.2577453e-07
-7.4263484e-08
-8.2448842e-07
-7.1328059e-08
-8.2343921e-07
-6.8423881e-08
-8.226259e-07
-6.5548549e-08
-8.2204769e-07
-6.2699767e-08
-8.2170398e-07
-5.9875317e-08
-8.2159426e-07
-5.7073013e-08
-8.2171832e-07
-5.4290775e-08
-8.2207595e-07
-5.1526517e-08
-8.2266724e-07
-4.877824e-08
-8.2349238e-07
-4.6043992e-08
-8.2455173e-07
-4.3321851e-08
-8.2584574e-07
-4.0609975e-08
-8.273751e-07
-3.7906481e-08
-8.2914062e-07
-3.520962e-08
-8.3114317e-07
-3.2517626e-08
-8.3338389e-07
-2.9828799e-08
-8.3586402e-07
-2.714144e-08
-8.3858493e-07
-2.4453892e-08
-8.4154813e-07
-2.1764628e-08
-8.4475529e-07
-1.9072048e-08
-8.4820834e-07
-1.6374645e-08
-8.5190928e-07
-1.3670896e-08
-8.558604e-07
-1.0959278e-08
-8.6006428e-07
-8.2381642e-09
-8.6452371e-07
-5.5058379e-09
-8.6924152e-07
-2.7604268e-09
-8.7421891e-07
-8.7945022e-07
-3.5566644e-07
-1.3316994e-06
-3.431028e-07
-1.308695e-06
-3.3113321e-07
-1.2865768e-06
-3.197211e-07
-1.2653064e-06
-3.0883243e-07
-1.2448471e-06
-2.9843558e-07
-1.2251645e-06
-2.8850109e-07
-1.206226e-06
-2.7900149e-07
-1.1880011e-06
-2.6991122e-07
-1.1704608e-06
-2.6120637e-07
-1.1535779e-06
-2.5286464e-07
-1.1373265e-06
-2.4486518e-07
-1.1216823e-06
-2.3718847e-07
-1.1066224e-06
-2.2981627e-07
-1.0921251e-06
-2.2273144e-07
-1.07817e-06
-2.1591797e-07
-1.0647375e-06
-2.0936081e-07
-1.0518095e-06
-2.0304582e-07
-1.0393687e-06
-1.9695973e-07
-1.0273986e-06
-1.9109004e-07
-1.0158839e-06
-1.8542505e-07
-1.00481e-06
-1.7995367e-07
-9.9416301e-07
-1.7466552e-07
-9.8392995e-07
-1.695508e-07
-9.7409848e-07
-1.6460022e-07
-9.6465693e-07
-1.5980508e-07
-9.5559433e-07
-1.5515711e-07
-9.4690027e-07
-1.5064853e-07
-9.3856493e-07
-1.4627197e-07
-9.3057907e-07
-1.4202049e-07
-9.2293393e-07
-1.3788745e-07
-9.1562129e-07
-1.3386662e-07
-9.0863335e-07
-1.2995209e-07
-9.0196278e-07
-1.2613821e-07
-8.9560276e-07
-1.2241967e-07
-8.8954676e-07
-1.1879138e-07
-8.837887e-07
-1.1524853e-07
-8.7832289e-07
-1.1178653e-07
-8.7314394e-07
-1.0840101e-07
-8.6824683e-07
-1.0508783e-07
-8.6362688e-07
-1.0184302e-07
-8.5927963e-07
-9.8662794e-08
-8.5520109e-07
-9.5543571e-08
-8.5138739e-07
-9.2481918e-08
-8.47835e-07
-8.9474499e-08
-8.4454067e-07
-8.6518206e-08
-8.415014e-07
-8.3610027e-08
-8.3871439e-07
-8.0747074e-08
-8.3617716e-07
-7.7926566e-08
-8.338874e-07
-7.5145831e-08
-8.3184302e-07
-7.2402326e-08
-8.3004222e-07
-6.9693617e-08
-8.2848324e-07
-6.7017277e-08
-8.2716477e-07
-6.4371043e-08
-8.2608543e-07
-6.1752713e-08
-8.2524423e-07
-5.9160131e-08
-8.2464029e-07
-5.6591221e-08
-8.2427287e-07
-5.4043991e-08
-8.2414149e-07
-5.1516487e-08
-8.2424582e-07
-4.9006801e-08
-8.2458565e-07
-4.651309e-08
-8.2516095e-07
-4.4033537e-08
-8.2597194e-07
-4.156639e-08
-8.2701887e-07
-3.9109921e-08
-8.2830222e-07
-3.6662442e-08
-8.2982258e-07
-3.422234e-08
-8.3158071e-07
-3.1787955e-08
-8.3357756e-07
-2.9357709e-08
-8.3581413e-07
-2.6930093e-08
-8.3829165e-07
-2.4503581e-08
-8.4101143e-07
-2.2076782e-08
-8.4397494e-07
-1.964825e-08
-8.4718383e-07
-1.7216664e-08
-8.5063992e-07
-1.4780736e-08
-8.5434519e-07
-1.2339238e-08
-8.5830191e-07
-9.8909321e-09
-8.6251261e-07
-7.4344486e-09
-8.6698016e-07
-4.9683216e-09
-8.7170765e-07
-2.4907998e-09
-8.7669645e-07
-8.8194103e-07
-3.1633759e-07
-1.3434703e-06
-3.0513581e-07
-1.3198967e-06
-2.9446734e-07
-1.2972453e-06
-2.8429903e-07
-1.2754747e-06
-2.7460016e-07
-1.254546e-06
-2.6534208e-07
-1.2344225e-06
-2.5649824e-07
-1.2150699e-06
-2.4804383e-07
-1.1964555e-06
-2.3995575e-07
-1.1785489e-06
-2.3221249e-07
-1.1613211e-06
-2.2479393e-07
-1.144745e-06
-2.1768131e-07
-1.1287949e-06
-2.1085703e-07
-1.1134467e-06
-2.0430472e-07
-1.0986775e-06
-1.9800894e-07
-1.0844657e-06
-1.9195529e-07
-1.0707912e-06
-1.8613023e-07
-1.0576346e-06
-1.8052112e-07
-1.0449778e-06
-1.75116e-07
-1.0328038e-06
-1.6990369e-07
-1.0210962e-06
-1.6487366e-07
-1.00984e-06
-1.6001599e-07
-9.9902068e-07
-1.5532138e-07
-9.8862458e-07
-1.5078099e-07
-9.7863886e-07
-1.463866e-07
-9.6905133e-07
-1.4213035e-07
-9.5985058e-07
-1.3800488e-07
-9.5102574e-07
-1.3400321e-07
-9.425666e-07
-1.3011876e-07
-9.3446353e-07
-1.2634531e-07
-9.2670739e-07
-1.2267694e-07
-9.1928964e-07
-1.191081e-07
-9.122022e-07
-1.156335e-07
-9.0543738e-07
-1.1224812e-07
-8.9898813e-07
-1.0894717e-07
-8.928477e-07
-1.0572616e-07
-8.8700972e-07
-1.0258079e-07
-8.8146827e-07
-9.9506921e-08
-8.762178e-07
-9.6500722e-08
-8.7125304e-07
-9.3558469e-08
-8.6656912e-07
-9.0676597e-08
-8.6216151e-07
-8.7851794e-08
-8.5802589e-07
-8.5080851e-08
-8.5415832e-07
-8.236068e-08
-8.5055516e-07
-7.9688384e-08
-8.4721297e-07
-7.7061158e-08
-8.4412863e-07
-7.4476303e-08
-8.4129923e-07
-7.1931307e-08
-8.3872216e-07
-6.9423683e-08
-8.3639501e-07
-6.6951062e-08
-8.3431565e-07
-6.4511165e-08
-8.3248209e-07
-6.210183e-08
-8.3089259e-07
-5.9720951e-08
-8.2954564e-07
-5.7366469e-08
-8.2843991e-07
-5.5036456e-08
-8.2757426e-07
-5.2729002e-08
-8.2694773e-07
-5.0442272e-08
-8.265596e-07
-4.8174493e-08
-8.2640927e-07
-4.5923943e-08
-8.2649637e-07
-4.3688931e-08
-8.2682066e-07
-4.1467809e-08
-8.2738206e-07
-3.9258989e-08
-8.2818076e-07
-3.7060886e-08
-8.2921697e-07
-3.4871963e-08
-8.3049113e-07
-3.2690746e-08
-8.3200379e-07
-3.0515747e-08
-8.3375572e-07
-2.8345559e-08
-8.3574776e-07
-2.6178738e-08
-8.3798095e-07
-2.4013975e-08
-8.4045642e-07
-2.1849904e-08
-8.431755e-07
-1.9685267e-08
-8.4613956e-07
-1.7518895e-08
-8.4935021e-07
-1.5349641e-08
-8.5280917e-07
-1.3176547e-08
-8.5651832e-07
-1.0998638e-08
-8.6047982e-07
-8.8150445e-09
-8.6469622e-07
-6.6247751e-09
-8.6917044e-07
-4.4265947e-09
-8.7390582e-07
-2.2189986e-09
-8.7890405e-07
-8.8416002e-07
-2.7629688e-07
-1.353767e-06
-2.665012e-07
-1.3296924e-06
-2.5717489e-07
-1.3065716e-06
-2.4828849e-07
-1.2843611e-06
-2.398148e-07
-1.2630197e-06
-2.3172846e-07
-1.2425089e-06
-2.2400593e-07
-1.2227924e-06
-2.1662526e-07
-1.2038362e-06
-2.0956602e-07
-1.1856081e-06
-2.028092e-07
-1.1680779e-06
-1.9633703e-07
-1.1512172e-06
-1.9013293e-07
-1.134999e-06
-1.841814e-07
-1.1193982e-06
-1.7846794e-07
-1.1043909e-06
-1.7297898e-07
-1.0899547e-06
-1.6770181e-07
-1.0760684e-06
-1.6262454e-07
-1.0627119e-06
-1.5773595e-07
-1.0498664e-06
-1.5302561e-07
-1.0375141e-06
-1.4848364e-07
-1.0256382e-06
-1.4410073e-07
-1.0142229e-06
-1.3986826e-07
-1.0032532e-06
-1.3577794e-07
-9.9271488e-07
-1.3182213e-07
-9.8259467e-07
-1.2799348e-07
-9.7287997e-07
-1.2428518e-07
-9.6355889e-07
-1.2069073e-07
-9.5462019e-07
-1.1720403e-07
-9.460533e-07
-1.1381929e-07
-9.3784826e-07
-1.1053108e-07
-9.299956e-07
-1.0733422e-07
-9.224865e-07
-1.0422383e-07
-9.1531258e-07
-1.0119528e-07
-9.0846594e-07
-9.8244154e-08
-9.0193925e-07
-9.5366316e-08
-8.9572553e-07
-9.25578e-08
-8.8981824e-07
-8.9814825e-08
-8.8421123e-07
-8.7133847e-08
-8.7889879e-07
-8.4511428e-08
-8.7387546e-07
-8.1944318e-08
-8.6913622e-07
-7.9429498e-08
-8.6467634e-07
-7.6963986e-08
-8.6049141e-07
-7.4544962e-08
-8.5657734e-07
-7.2169808e-08
-8.5293032e-07
-6.9835946e-08
-8.4954684e-07
-6.7540976e-08
-8.464236e-07
-6.5282545e-08
-8.4355767e-07
-6.3058426e-08
-8.4094629e-07
-6.0866461e-08
-8.3858698e-07
-5.8704611e-08
-8.364775e-07
-5.657092e-08
-8.3461579e-07
-5.446344e-08
-8.3300007e-07
-5.2380365e-08
-8.3162873e-07
-5.0319932e-08
-8.3050035e-07
-4.8280437e-08
-8.2961375e-07
-4.6260236e-08
-8.2896794e-07
-4.4257739e-08
-8.285621e-07
-4.2271415e-08
-8.2839559e-07
-4.0299741e-08
-8.2846803e-07
-3.8341272e-08
-8.2877912e-07
-3.6394555e-08
-8.293288e-07
-3.4458203e-08
-8.3011711e-07
-3.2530834e-08
-8.3114435e-07
-3.0611134e-08
-8.3241083e-07
-2.8697758e-08
-8.3391716e-07
-2.6789467e-08
-8.35664e-07
-2.4885e-08
-8.3765223e-07
-2.2983105e-08
-8.3988283e-07
-2.1082617e-08
-8.4235691e-07
-1.9182368e-08
-8.4507576e-07
-1.7281193e-08
-8.4804073e-07
-1.5378143e-08
-8.5125326e-07
-1.3472311e-08
-8.54715e-07
-1.1563028e-08
-8.5842761e-07
-9.6496712e-09
-8.6239317e-07
-7.7318509e-09
-8.6661403e-07
-5.8090314e-09
-8.7109324e-07
-3.8804675e-09
-8.7583437e-07
-1.9448508e-09
-8.8083967e-07
-8.8610486e-07
-2.3563015e-07
-1.3625474e-06
-2.2727976e-07
-1.3380428e-06
-2.1933191e-07
-1.3145195e-06
-2.1176117e-07
-1.2919318e-06
-2.0454401e-07
-1.2702369e-06
-1.9765852e-07
-1.2493944e-06
-1.9108437e-07
-1.2293666e-06
-1.8480264e-07
-1.2101179e-06
-1.7879576e-07
-1.191615e-06
-1.730473e-07
-1.1738264e-06
-1.6754198e-07
-1.1567225e-06
-1.6226554e-07
-1.1402755e-06
-1.5720461e-07
-1.1244591e-06
-1.5234674e-07
-1.1092488e-06
-1.4768027e-07
-1.0946212e-06
-1.4319425e-07
-1.0805544e-06
-1.3887848e-07
-1.0670276e-06
-1.3472336e-07
-1.0540215e-06
-1.307199e-07
-1.0415176e-06
-1.268596e-07
-1.0294985e-06
-1.2313456e-07
-1.0179479e-06
-1.195373e-07
-1.0068504e-06
-1.1606083e-07