/*--------------------------------*- C++ -*----------------------------------*\
| =========                 |                                                 |
| \\      /  F ield         | OpenFOAM: The Open Source CFD Toolbox           |
|  \\    /   O peration     | Version:  2106                                  |
|   \\  /    A nd           | Website:  www.openfoam.com                      |
|    \\/     M anipulation  |                                                 |
\*---------------------------------------------------------------------------*/
FoamFile
{
    version     2.0;
    format      ascii;
    arch        "LSB;label=32;scalar=64";
    class       surfaceScalarField;
    location    "0.006";
    object      phi;
}
// * * * * * * * * * * * * * * * * * * * * * * * * * * * * * * * * * * * * * //

dimensions      [0 3 -1 0 0 0 0];

oriented        oriented;

internalField   nonuniform List<scalar> 
32512
(
-2.9097724e-05
2.9097724e-05
-5.813438e-05
2.9036656e-05
-8.7048959e-05
2.8914579e-05
-0.00011578057
2.873161e-05
-0.0001442685
2.8487929e-05
-0.00017245228
2.8183777e-05
-0.00020027174
2.7819465e-05
-0.00022766711
2.7395371e-05
-0.00025457906
2.691195e-05
-0.0002809488
2.6369739e-05
-0.00030671816
2.5769359e-05
-0.00033182968
2.5111521e-05
-0.00035622672
2.4397037e-05
-0.00037985354
2.3626818e-05
-0.00040265542
2.2801889e-05
-0.00042457881
2.1923387e-05
-0.00044557138
2.099257e-05
-0.0004655822
2.0010821e-05
-0.00048456186
1.8979653e-05
-0.00050246257
1.7900714e-05
-0.00051923836
1.6775788e-05
-0.00053484515
1.5606796e-05
-0.00054924096
1.4395804e-05
-0.00056238598
1.3145018e-05
-0.00057424276
1.1856785e-05
-0.00058477636
1.0533596e-05
-0.00059395444
9.1780787e-06
-0.00060174744
7.7930013e-06
-0.0006081287
6.3812657e-06
-0.00061307461
4.9459049e-06
-0.00061656468
3.4900745e-06
-0.00061858171
2.0170307e-06
-0.00061911198
5.3026621e-07
-0.00061814518
-9.6679894e-07
-0.00061567465
-2.4705318e-06
-0.00061169742
-3.9772284e-06
-0.00060621433
-5.4830916e-06
-0.00059923008
-6.9842477e-06
-0.00059075333
-8.4767553e-06
-0.00058079671
-9.9566143e-06
-0.00056937693
-1.1419778e-05
-0.00055651477
-1.2862164e-05
-0.0005422351
-1.427967e-05
-0.00052656692
-1.5668184e-05
-0.00050954331
-1.7023603e-05
-0.00049120147
-1.8341846e-05
-0.00047158259
-1.9618874e-05
-0.00045073189
-2.0850702e-05
-0.00042869846
-2.2033426e-05
-0.00040553523
-2.316323e-05
-0.00038129882
-2.4236418e-05
-0.00035604939
-2.5249422e-05
-0.00032985056
-2.6198831e-05
-0.00030276916
-2.7081403e-05
-0.00027487507
-2.7894089e-05
-0.00024624102
-2.8634048e-05
-0.00021694235
-2.9298668e-05
-0.00018705677
-2.9885581e-05
-0.0001566641
-3.0392678e-05
-0.00012584597
-3.0818123e-05
-9.4685607e-05
-3.1160367e-05
-6.326745e-05
-3.1418157e-05
-3.1676902e-05
-3.1590548e-05
-1.9897196e-13
-3.1676902e-05
3.1676902e-05
-3.1676902e-05
6.3267449e-05
-3.1590548e-05
9.4685607e-05
-3.1418157e-05
0.00012584597
-3.1160367e-05
0.0001566641
-3.0818123e-05
0.00018705677
-3.0392678e-05
0.00021694235
-2.9885581e-05
0.00024624102
-2.9298668e-05
0.00027487507
-2.8634048e-05
0.00030276916
-2.7894089e-05
0.00032985056
-2.7081403e-05
0.00035604939
-2.6198831e-05
0.00038129882
-2.5249422e-05
0.00040553523
-2.4236418e-05
0.00042869846
-2.316323e-05
0.00045073189
-2.2033426e-05
0.00047158259
-2.0850702e-05
0.00049120147
-1.9618874e-05
0.00050954331
-1.8341846e-05
0.00052656691
-1.7023603e-05
0.0005422351
-1.5668184e-05
0.00055651477
-1.427967e-05
0.00056937693
-1.2862164e-05
0.00058079671
-1.1419778e-05
0.00059075333
-9.9566143e-06
0.00059923008
-8.4767553e-06
0.00060621433
-6.9842477e-06
0.00061169742
-5.4830916e-06
0.00061567465
-3.9772284e-06
0.00061814518
-2.4705318e-06
0.00061911198
-9.6679895e-07
0.00061858171
5.302662e-07
0.00061656468
2.0170307e-06
0.00061307461
3.4900745e-06
0.0006081287
4.9459049e-06
0.00060174744
6.3812657e-06
0.00059395444
7.7930013e-06
0.00058477636
9.1780786e-06
0.00057424276
1.0533596e-05
0.00056238598
1.1856785e-05
0.00054924096
1.3145018e-05
0.00053484515
1.4395804e-05
0.00051923836
1.5606796e-05
0.00050246257
1.6775788e-05
0.00048456186
1.7900714e-05
0.0004655822
1.8979653e-05
0.00044557138
2.0010821e-05
0.00042457881
2.099257e-05
0.00040265542
2.1923387e-05
0.00037985354
2.2801889e-05
0.00035622672
2.3626818e-05
0.00033182968
2.4397037e-05
0.00030671816
2.5111521e-05
0.0002809488
2.5769359e-05
0.00025457906
2.6369739e-05
0.00022766711
2.691195e-05
0.00020027174
2.739537e-05
0.00017245228
2.7819465e-05
0.0001442685
2.8183777e-05
0.00011578057
2.8487929e-05
8.704896e-05
2.873161e-05
5.813438e-05
2.8914579e-05
2.9097724e-05
2.9036656e-05
2.9097724e-05
-2.9211685e-05
5.830941e-05
-5.8362153e-05
5.8187124e-05
-8.7390244e-05
5.7942669e-05
-0.00011623491
5.7576278e-05
-0.00014483529
5.7088306e-05
-0.00017313075
5.6479234e-05
-0.00020106096
5.5749675e-05
-0.00022856597
5.4900383e-05
-0.00025558628
5.3932264e-05
-0.00028206292
5.284638e-05
-0.00030793753
5.1643969e-05
-0.00033315246
5.0326448e-05
-0.00035765085
4.8895431e-05
-0.00038137677
4.7352738e-05
-0.00040427529
4.5700409e-05
-0.00042629262
4.3940713e-05
-0.00044737621
4.2076163e-05
-0.00046747491
4.010952e-05
-0.00048653907
3.8043808e-05
-0.00050452067
3.5882319e-05
-0.0005213735
3.362862e-05
-0.00053705326
3.1286557e-05
-0.00055151772
2.8860259e-05
-0.00056472684
2.6354142e-05
-0.00057664296
2.3772906e-05
-0.0005872309
2.1121534e-05
-0.00059645811
1.8405291e-05
-0.00060429483
1.5629719e-05
-0.0006107142
1.2800629e-05
-0.00061569239
9.924095e-06
-0.00061920876
7.0064438e-06
-0.00062124597
4.0542463e-06
-0.00062179006
1.0743538e-06
-0.00062083062
-1.926237e-06
-0.00061836085
-4.9402985e-06
-0.00061437768
-7.9603997e-06
-0.00060888184
-1.0978934e-05
-0.00060187795
-1.3988137e-05
-0.0005933746
-1.6980108e-05
-0.00058338439
-1.9946826e-05
-0.00057192399
-2.2880178e-05
-0.00055901417
-2.5771978e-05
-0.00054467985
-2.8613997e-05
-0.00052895004
-3.1397988e-05
-0.00051185793
-3.4115718e-05
-0.00049344077
-3.6759001e-05
-0.00047373992
-3.9319728e-05
-0.00045280072
-4.1789905e-05
-0.00043067245
-4.416169e-05
-0.00040740825
-4.6427428e-05
-0.00038306498
-4.8579691e-05
-0.00035770308
-5.061132e-05
-0.00033138645
-5.2515458e-05
-0.00030418226
-5.4285596e-05
-0.00027616074
-5.5915607e-05
-0.00024739501
-5.7399784e-05
-0.0002179608
-5.8732878e-05
-0.00018793625
-5.9910129e-05
-0.00015740163
-6.0927299e-05
-0.00012643905
-6.1780698e-05
-9.5132208e-05
-6.2467213e-05
-6.3566039e-05
-6.2984326e-05
-3.1826454e-05
-6.3330132e-05
-1.9873064e-13
-6.3503356e-05
3.1826454e-05
-6.3503356e-05
6.3566039e-05
-6.3330132e-05
9.5132207e-05
-6.2984326e-05
0.00012643905
-6.2467213e-05
0.00015740163
-6.1780698e-05
0.00018793625
-6.0927299e-05
0.0002179608
-5.9910129e-05
0.00024739501
-5.8732878e-05
0.00027616074
-5.7399784e-05
0.00030418226
-5.5915607e-05
0.00033138645
-5.4285596e-05
0.00035770308
-5.2515458e-05
0.00038306498
-5.061132e-05
0.00040740825
-4.8579691e-05
0.00043067245
-4.6427428e-05
0.00045280072
-4.416169e-05
0.00047373992
-4.1789905e-05
0.00049344077
-3.9319728e-05
0.00051185793
-3.6759001e-05
0.00052895004
-3.4115718e-05
0.00054467984
-3.1397988e-05
0.00055901417
-2.8613997e-05
0.00057192399
-2.5771979e-05
0.00058338439
-2.2880178e-05
0.0005933746
-1.9946826e-05
0.00060187795
-1.6980108e-05
0.00060888184
-1.3988137e-05
0.00061437768
-1.0978934e-05
0.00061836085
-7.9603998e-06
0.00062083062
-4.9402985e-06
0.00062179006
-1.926237e-06
0.00062124597
1.0743537e-06
0.00061920876
4.0542462e-06
0.00061569239
7.0064438e-06
0.0006107142
9.9240949e-06
0.00060429483
1.2800629e-05
0.00059645812
1.5629719e-05
0.0005872309
1.8405291e-05
0.00057664296
2.1121534e-05
0.00056472684
2.3772906e-05
0.00055151772
2.6354142e-05
0.00053705326
2.8860259e-05
0.0005213735
3.1286557e-05
0.00050452067
3.362862e-05
0.00048653907
3.5882319e-05
0.00046747491
3.8043808e-05
0.00044737621
4.010952e-05
0.00042629262
4.2076163e-05
0.00040427529
4.3940714e-05
0.00038137677
4.5700409e-05
0.00035765085
4.7352738e-05
0.00033315246
4.8895431e-05
0.00030793753
5.0326448e-05
0.00028206292
5.1643969e-05
0.00025558628
5.284638e-05
0.00022856597
5.3932264e-05
0.00020106096
5.4900383e-05
0.00017313075
5.5749675e-05
0.00014483529
5.6479234e-05
0.00011623491
5.7088306e-05
8.7390244e-05
5.7576278e-05
5.8362154e-05
5.7942669e-05
2.9211686e-05
5.8187124e-05
5.830941e-05
-2.9403171e-05
8.7712581e-05
-5.8744871e-05
8.7528824e-05
-8.7963684e-05
8.7161482e-05
-0.00011699831
8.6610901e-05
-0.00014578761
8.5877606e-05
-0.00017427068
8.496231e-05
-0.00020238693
8.3865924e-05
-0.00023007611
8.2589567e-05
-0.00025727843
8.1134583e-05
-0.00028393461
7.9502555e-05
-0.00030998596
7.7695323e-05
-0.00033537451
7.5714998e-05
-0.00036004307
7.3563988e-05
-0.00038393534
7.1245009e-05
-0.00040699604
6.8761107e-05
-0.000429171
6.6115675e-05
-0.00045040731
6.3312471e-05
-0.00047065342
6.0355629e-05
-0.00048985929
5.724968e-05
-0.00050797653
5.3999556e-05
-0.00052495851
5.0610605e-05
-0.00054076056
4.70886e-05
-0.00055534003
4.3439736e-05
-0.00056865653
3.9670643e-05
-0.000580672
3.5788378e-05
-0.0005913509
3.1800428e-05
-0.00060066031
2.7714705e-05
-0.00060857013
2.3539535e-05
-0.00061505315
1.9283654e-05
-0.00062008525
1.4956195e-05
-0.00062364548
1.0566674e-05
-0.00062571622
6.1249798e-06
-0.00062628323
1.6413686e-06
-0.00062533587
-2.8735978e-06
-0.00062286712
-7.409046e-06
-0.00061887372
-1.19538e-05
-0.00061335624
-1.6496418e-05
-0.00060631916
-2.1025217e-05
-0.00059777096
-2.5528305e-05
-0.00058772418
-2.9993611e-05
-0.00057619544
-3.4408919e-05
-0.00056320551
-3.8761903e-05
-0.00054877934
-4.3040168e-05
-0.00053294604
-4.7231293e-05
-0.00051573888
-5.1322874e-05
-0.00049719531
-5.5302573e-05
-0.00047735687
-5.9158168e-05
-0.00045626917
-6.2877607e-05
-0.00043398179
-6.6449063e-05
-0.00041054823
-6.9860991e-05
-0.00038602574
-7.3102185e-05
-0.00036047522
-7.6161841e-05
-0.00033396106
-7.9029612e-05
-0.00030655098
-8.1695673e-05
-0.00027831582
-8.4150772e-05
-0.00024932931
-8.6386293e-05
-0.00021966788
-8.8394308e-05
-0.00018941038
-9.0167629e-05
-0.00015863783
-9.1699851e-05
-0.00012743312
-9.2985403e-05
-9.5880755e-05
-9.401958e-05
-6.4066503e-05
-9.4798578e-05
-3.2077117e-05
-9.5319518e-05
-1.9486107e-13
-9.5580473e-05
3.2077117e-05
-9.5580473e-05
6.4066503e-05
-9.5319518e-05
9.5880755e-05
-9.4798578e-05
0.00012743312
-9.401958e-05
0.00015863783
-9.2985403e-05
0.00018941038
-9.1699851e-05
0.00021966788
-9.0167629e-05
0.00024932931
-8.8394308e-05
0.00027831582
-8.6386293e-05
0.00030655098
-8.4150772e-05
0.00033396106
-8.1695673e-05
0.00036047521
-7.9029612e-05
0.00038602574
-7.6161841e-05
0.00041054823
-7.3102185e-05
0.00043398179
-6.9860991e-05
0.00045626917
-6.6449063e-05
0.00047735687
-6.2877607e-05
0.00049719531
-5.9158168e-05
0.00051573888
-5.5302573e-05
0.00053294604
-5.1322874e-05
0.00054877934
-4.7231293e-05
0.00056320551
-4.3040168e-05
0.00057619544
-3.8761903e-05
0.00058772418
-3.4408919e-05
0.00059777096
-2.9993611e-05
0.00060631916
-2.5528305e-05
0.00061335624
-2.1025217e-05
0.00061887372
-1.6496418e-05
0.00062286712
-1.19538e-05
0.00062533587
-7.4090461e-06
0.00062628323
-2.8735978e-06
0.00062571622
1.6413685e-06
0.00062364548
6.1249797e-06
0.00062008525
1.0566674e-05
0.00061505315
1.4956195e-05
0.00060857013
1.9283654e-05
0.00060066031
2.3539535e-05
0.0005913509
2.7714705e-05
0.000580672
3.1800428e-05
0.00056865653
3.5788378e-05
0.00055534003
3.9670642e-05
0.00054076056
4.3439736e-05
0.00052495851
4.70886e-05
0.00050797653
5.0610605e-05
0.00048985929
5.3999556e-05
0.00047065342
5.724968e-05
0.00045040731
6.0355629e-05
0.000429171
6.3312471e-05
0.00040699604
6.6115675e-05
0.00038393534
6.8761107e-05
0.00036004307
7.1245009e-05
0.00033537451
7.3563988e-05
0.00030998596
7.5714998e-05
0.00028393461
7.7695323e-05
0.00025727843
7.9502555e-05
0.00023007612
8.1134583e-05
0.00020238693
8.2589567e-05
0.00017427068
8.3865924e-05
0.00014578761
8.496231e-05
0.00011699831
8.5877606e-05
8.7963684e-05
8.6610901e-05
5.8744871e-05
8.7161482e-05
2.9403172e-05
8.7528824e-05
8.7712581e-05
-2.9667292e-05
0.00011737987
-5.927277e-05
0.0001171343
-8.8754671e-05
0.00011664338
-0.00011805134
0.00011590757
-0.00014710129
0.00011492755
-0.00017584325
0.00011370427
-0.00020421623
0.00011223891
-0.00023215961
0.00011053295
-0.00025961319
0.00010858816
-0.00028651726
0.00010640662
-0.00031281271
0.00010399077
-0.0003384411
0.00010134339
-0.00036334477
9.8467663e-05
-0.00038746695
9.5367192e-05
-0.00041075186
9.2046012e-05
-0.00043314481
8.8508629e-05
-0.00045459237
8.4760032e-05
-0.00047504247
8.0805721e-05
-0.00049444451
7.6651724e-05
-0.00051274957
7.2304611e-05
-0.00052991047
6.7771509e-05
-0.00054588198
6.3060115e-05
-0.00056062094
5.8178696e-05
-0.0005740864
5.3136102e-05
-0.00058623978
4.7941757e-05
-0.00059704502
4.2605662e-05
-0.0006064687
3.7138389e-05
-0.00061448023
3.1551068e-05
-0.00062105196
2.5855378e-05
-0.00062615929
2.0063531e-05
-0.00062978087
1.4188255e-05
-0.00063189867
8.2427778e-06
-0.00063249811
2.2408033e-06
-0.00063156818
-3.8035276e-06
-0.00062910157
-9.875657e-06
-0.00062509474
-1.5960629e-05
-0.00061954803
-2.2043129e-05
-0.00061246573
-2.8107516e-05
-0.00060385617
-3.4137867e-05
-0.00059373176
-4.0118015e-05
-0.00058210909
-4.6031592e-05
-0.00056900891
-5.1862085e-05
-0.00055445619
-5.759288e-05
-0.00053848016
-6.3207323e-05
-0.00052111426
-6.8688781e-05
-0.00050239613
-7.4020702e-05
-0.00048236761
-7.9186689e-05
-0.00046107465
-8.4170563e-05
-0.00043856726
-8.8956448e-05
-0.00041489942
-9.3528837e-05
-0.00039012892
-9.787268e-05
-0.00036431731
-0.00010197346
-0.00033752966
-0.00010581726
-0.00030983444
-0.00010939089
-0.00028130332
-0.00011268189
-0.00025201092
-0.00011567869
-0.0002220346
-0.00011837062
-0.00019145423
-0.000120748
-0.00016035186
-0.00012280222
-0.00012881148
-0.00012452579
-9.6918699e-05
-0.00012591236
-6.4760464e-05
-0.00012695681
-3.2424699e-05
-0.00012765528
-1.9116774e-13
-0.00012800517
3.2424698e-05
-0.00012800517
6.4760464e-05
-0.00012765528
9.6918699e-05
-0.00012695681
0.00012881147
-0.00012591236
0.00016035186
-0.00012452579
0.00019145423
-0.00012280222
0.0002220346
-0.000120748
0.00025201092
-0.00011837062
0.00028130332
-0.00011567869
0.00030983444
-0.00011268189
0.00033752966
-0.00010939089
0.00036431731
-0.00010581726
0.00039012892
-0.00010197346
0.00041489942
-9.787268e-05
0.00043856726
-9.3528837e-05
0.00046107465
-8.8956448e-05
0.00048236761
-8.4170563e-05
0.00050239613
-7.9186689e-05
0.00052111426
-7.4020703e-05
0.00053848016
-6.8688781e-05
0.00055445619
-6.3207324e-05
0.00056900891
-5.759288e-05
0.00058210909
-5.1862085e-05
0.00059373176
-4.6031593e-05
0.00060385617
-4.0118015e-05
0.00061246573
-3.4137867e-05
0.00061954803
-2.8107516e-05
0.00062509474
-2.2043129e-05
0.00062910157
-1.5960629e-05
0.00063156818
-9.8756571e-06
0.00063249811
-3.8035277e-06
0.00063189867
2.2408032e-06
0.00062978087
8.2427777e-06
0.00062615929
1.4188255e-05
0.00062105196
2.0063531e-05
0.00061448023
2.5855378e-05
0.0006064687
3.1551068e-05
0.00059704502
3.7138389e-05
0.00058623978
4.2605662e-05
0.0005740864
4.7941757e-05
0.00056062094
5.3136102e-05
0.00054588198
5.8178696e-05
0.00052991047
6.3060115e-05
0.00051274957
6.7771509e-05
0.00049444451
7.2304611e-05
0.00047504247
7.6651724e-05
0.00045459237
8.0805721e-05
0.00043314481
8.4760032e-05
0.00041075186
8.8508629e-05
0.00038746695
9.2046012e-05
0.00036334477
9.5367192e-05
0.0003384411
9.8467663e-05
0.00031281271
0.00010134339
0.00028651726
0.00010399077
0.00025961319
0.00010640662
0.00023215961
0.00010858816
0.00020421623
0.00011053295
0.00017584325
0.00011223891
0.00014710129
0.00011370427
0.00011805134
0.00011492755
8.8754671e-05
0.00011590757
5.9272771e-05
0.00011664338
2.9667293e-05
0.0001171343
0.00011737987
-2.9999849e-05
0.00014737972
-5.9937462e-05
0.00014707192
-8.9750655e-05
0.00014645658
-0.00011937734
0.00014553426
-0.00014875559
0.00014430581
-0.00017782369
0.00014277236
-0.00020652018
0.0001409354
-0.00023478395
0.00013879672
-0.00026255429
0.0001363585
-0.00028977098
0.00013362331
-0.00031637436
0.00013059415
-0.00034230542
0.00012727445
-0.00036750593
0.00012366817
-0.00039191848
0.00011977975
-0.00041548668
0.00011561421
-0.0004381552
0.00011117715
-0.00045986994
0.00010647477
-0.00048057814
0.00010151392
-0.00050022854
9.6302129e-05
-0.00051877152
9.0847585e-05
-0.0005361592
8.5159196e-05
-0.00055234567
7.9246581e-05
-0.00056728706
7.3120085e-05
-0.00058094174
6.6790782e-05
-0.00059327046
6.0270475e-05
-0.00060423649
5.3571694e-05
-0.00061380579
4.6707688e-05
-0.00062194713
3.9692411e-05
-0.00062863226
3.2540509e-05
-0.00063383603
2.52673e-05
-0.00063753653
1.7888753e-05
-0.00063971522
1.0421463e-05
-0.00064035704
2.8826244e-06
-0.00063945055
-4.7100108e-06
-0.00063698805
-1.233816e-05
-0.00063296564
-1.9983044e-05
-0.00062738334
-2.7625427e-05
-0.00062024519
-3.5245664e-05
-0.00061155931
-4.2823745e-05
-0.00060133797
-5.0339351e-05
-0.00058959766
-5.7771907e-05
-0.0005763591
-6.5100642e-05
-0.00056164732
-7.2304658e-05
-0.00054549165
-7.9362999e-05
-0.00052792571
-8.6254724e-05
-0.00050898742
-9.2958992e-05
-0.00048871896
-9.9455144e-05
-0.00046716673
-0.0001057228
-0.00044438125
-0.00011174193
-0.00042041709
-0.00011749299
-0.00039533278
-0.00012295699
-0.00036919062
-0.00012811562
-0.00034205658
-0.00013295131
-0.00031400009
-0.00013744738
-0.00028509385
-0.00014158813
-0.00025541363
-0.00014535891
-0.000225038
-0.00014874625
-0.00019404807
-0.00015173793
-0.00016252725
-0.00015432304
-0.00013056092
-0.00015649212
-9.823614e-05
-0.00015823714
-6.5641318e-05
-0.00015955164
-3.2865895e-05
-0.00016043071
-1.9060421e-13
-0.00016087107
3.2865895e-05
-0.00016087107
6.5641317e-05
-0.00016043071
9.823614e-05
-0.00015955164
0.00013056092
-0.00015823714
0.00016252725
-0.00015649212
0.00019404807
-0.00015432304
0.000225038
-0.00015173793
0.00025541363
-0.00014874625
0.00028509385
-0.00014535891
0.00031400009
-0.00014158813
0.00034205658
-0.00013744738
0.00036919062
-0.00013295131
0.00039533278
-0.00012811562
0.00042041709
-0.00012295699
0.00044438125
-0.00011749299
0.00046716673
-0.00011174193
0.00048871896
-0.0001057228
0.00050898742
-9.9455144e-05
0.00052792571
-9.2958992e-05
0.00054549165
-8.6254724e-05
0.00056164732
-7.9362999e-05
0.0005763591
-7.2304658e-05
0.00058959766
-6.5100642e-05
0.00060133797
-5.7771907e-05
0.00061155931
-5.0339351e-05
0.00062024519
-4.2823745e-05
0.00062738334
-3.5245664e-05
0.00063296564
-2.7625427e-05
0.00063698805
-1.9983044e-05
0.00063945055
-1.233816e-05
0.00064035704
-4.7100109e-06
0.00063971522
2.8826243e-06
0.00063753653
1.0421463e-05
0.00063383603
1.7888753e-05
0.00062863226
2.52673e-05
0.00062194713
3.2540509e-05
0.00061380579
3.9692411e-05
0.00060423649
4.6707688e-05
0.00059327046
5.3571694e-05
0.00058094174
6.0270475e-05
0.00056728706
6.6790782e-05
0.00055234567
7.3120085e-05
0.0005361592
7.9246581e-05
0.00051877152
8.5159196e-05
0.00050022854
9.0847585e-05
0.00048057814
9.6302129e-05
0.00045986994
0.00010151392
0.0004381552
0.00010647477
0.00041548668
0.00011117715
0.00039191848
0.00011561421
0.00036750593
0.00011977975
0.00034230542
0.00012366817
0.00031637436
0.00012727445
0.00028977098
0.00013059415
0.00026255429
0.00013362331
0.00023478395
0.0001363585
0.00020652018
0.00013879672
0.00017782369
0.0001409354
0.00014875559
0.00014277236
0.00011937734
0.00014430581
8.9750655e-05
0.00014553426
5.9937462e-05
0.00014645658
2.9999849e-05
0.00014707192
0.00014737972
-3.0397332e-05
0.00017777705
-6.0731943e-05
0.00017740653
-9.0941161e-05
0.00017666579
-0.0001209624
0.0001755555
-0.00015073323
0.00017407663
-0.00018019139
0.00017223053
-0.0002092749
0.00017001891
-0.00023792207
0.00016744389
-0.00026607161
0.00016450804
-0.00029366267
0.00016121437
-0.00032063494
0.00015756642
-0.00034692876
0.00015356827
-0.00037248517
0.00014922458
-0.00039724607
0.00014454065
-0.00042115428
0.00013952243
-0.00044415372
0.00013417658
-0.00046618948
0.00012851053
-0.000487208
0.00012253244
-0.00050715719
0.00011625132
-0.00052598658
0.00010967697
-0.00054364747
0.00010282009
-0.00056009309
9.5692197e-05
-0.00057527873
8.8305729e-05
-0.00058916194
8.0673992e-05
-0.00060170265
7.2811178e-05
-0.00061286331
6.4732364e-05
-0.00062260912
5.6453495e-05
-0.00063090808
4.7991373e-05
-0.00063773122
3.936364e-05
-0.00064305267
3.0588751e-05
-0.00064684986
2.1685949e-05
-0.00064910363
1.2675236e-05
-0.00064979835
3.5773371e-06
-0.00064892202
-5.5863386e-06
-0.00064646644
-1.4793739e-05
-0.00064242728
-2.4022209e-05
-0.00063680417
-3.3248538e-05
-0.00062960081
-4.2449015e-05
-0.00062082508
-5.1599484e-05
-0.00061048902
-6.0675405e-05
-0.00059860901
-6.9651921e-05
-0.00058520572
-7.8503933e-05
-0.0005703042
-8.7206173e-05
-0.00055393391
-9.5733295e-05
-0.00053612867
-0.00010405996
-0.00051692671
-0.00011216095
-0.00049637063
-0.00012001123
-0.00047450732
-0.00012758611
-0.00045138792
-0.00013486133
-0.00042706774
-0.00014181317
-0.00040160612
-0.00014841861
-0.00037506633
-0.00015465541
-0.00034751538
-0.00016050225
-0.00031902387
-0.00016593889
-0.00028966578
-0.00017094622
-0.00025951822
-0.00017550647
-0.00022866123
-0.00017960324
-0.00019717748
-0.00018322168
-0.000165152
-0.00018634853
-0.00013267186
-0.00018897226
-9.9825875e-05
-0.00019108312
-6.6704264e-05
-0.00019267325
-3.3398308e-05
-0.00019373666
-1.9208494e-13
-0.00019426937
3.3398308e-05
-0.00019426937
6.6704264e-05
-0.00019373666
9.9825874e-05
-0.00019267325
0.00013267186
-0.00019108312
0.000165152
-0.00018897226
0.00019717748
-0.00018634853
0.00022866123
-0.00018322168
0.00025951822
-0.00017960324
0.00028966578
-0.00017550647
0.00031902387
-0.00017094622
0.00034751538
-0.00016593889
0.00037506633
-0.00016050225
0.00040160612
-0.00015465541
0.00042706774
-0.00014841861
0.00045138792
-0.00014181317
0.00047450732
-0.00013486133
0.00049637063
-0.00012758611
0.00051692671
-0.00012001123
0.00053612867
-0.00011216095
0.00055393391
-0.00010405996
0.0005703042
-9.5733295e-05
0.00058520572
-8.7206173e-05
0.00059860901
-7.8503933e-05
0.00061048902
-6.9651922e-05
0.00062082508
-6.0675405e-05
0.00062960081
-5.1599484e-05
0.00063680417
-4.2449015e-05
0.00064242728
-3.3248538e-05
0.00064646644
-2.4022209e-05
0.00064892202
-1.4793739e-05
0.00064979835
-5.5863388e-06
0.00064910363
3.577337e-06
0.00064684986
1.2675236e-05
0.00064305267
2.1685949e-05
0.00063773122
3.0588751e-05
0.00063090808
3.936364e-05
0.00062260912
4.7991373e-05
0.00061286332
5.6453495e-05
0.00060170265
6.4732364e-05
0.00058916194
7.2811178e-05
0.00057527873
8.0673992e-05
0.00056009309
8.8305729e-05
0.00054364747
9.5692197e-05
0.00052598658
0.00010282009
0.00050715719
0.00010967697
0.000487208
0.00011625132
0.00046618948
0.00012253244
0.00044415372
0.00012851053
0.00042115428
0.00013417658
0.00039724607
0.00013952243
0.00037248517
0.00014454065
0.00034692876
0.00014922458
0.00032063494
0.00015356827
0.00029366267
0.00015756642
0.00026607161
0.00016121437
0.00023792208
0.00016450804
0.0002092749
0.00016744389
0.00018019139
0.00017001891
0.00015073323
0.00017223053
0.0001209624
0.00017407663
9.0941161e-05
0.0001755555
6.0731944e-05
0.00017666579
3.0397332e-05
0.00017740653
0.00017777705
-3.085683e-05
0.00020863388
-6.1650403e-05
0.0002082001
-9.2317503e-05
0.00020733289
-0.00012279499
0.00020603299
-0.00015301987
0.00020430151
-0.00018292929
0.00020213995
-0.00021246066
0.00019955028
-0.00024155165
0.00019653489
-0.0002701403
0.00019309668
-0.00029816505
0.00018923912
-0.00032556487
0.00018496624
-0.00035227932
0.00018028271
-0.00037824863
0.00017519389
-0.00040341386
0.00016970587
-0.00042771696
0.00016382553
-0.00045110095
0.00015756057
-0.00047351
0.00015091958
-0.00049488959
0.00014391203
-0.00051518667
0.0001365484
-0.00053434979
0.00012884009
-0.00055232926
0.00012079956
-0.00056907732
0.00011244026
-0.00058454828
0.00010377669
-0.0005986987
9.4824417e-05
-0.00061148755
8.5600029e-05
-0.00062287636
7.6121167e-05
-0.00063282936
6.6406497e-05
-0.00064131368
5.6475697e-05
-0.00064829948
4.6349435e-05
-0.00065376007
3.6049339e-05
-0.00065767208
2.5597966e-05
-0.00066001561
1.5018767e-05
-0.00066077433
4.3360486e-06
-0.00065993559
-6.4250756e-06
-0.0006574906
-1.723873e-05
-0.00065343448
-2.8078323e-05
-0.00064776641
-3.891661e-05
-0.00064048968
-4.9725745e-05
-0.00063161181
-6.0477352e-05
-0.00062114462
-7.1142594e-05
-0.0006091043
-8.1692249e-05
-0.00059551143
-9.2096797e-05
-0.0005803911
-0.00010232651
-0.00056377284
-0.00011235155
-0.00054569074
-0.00012214207
-0.00052618334
-0.00013166834
-0.0005052937
-0.00014090087
-0.00048306927
-0.00014981053
-0.00045956192
-0.00015836868
-0.00043482778
-0.00016654731
-0.00040892716
-0.00017431923
-0.00038192443
-0.00018165814
-0.00035388782
-0.00018853886
-0.00032488931
-0.00019493741
-0.00029500433
-0.0002008312
-0.00026431163
-0.00020619917
-0.00023289295
-0.00021102193
-0.00020083277
-0.00021528185
-0.00016821806
-0.00021896324
-0.00013513787
-0.00022205244
-0.00010168311
-0.00022453789
-6.7946113e-05
-0.00022641024
-3.4020344e-05
-0.00022766243
-1.9623034e-13
-0.00022828972
3.4020343e-05
-0.00022828972
6.7946113e-05
-0.00022766243
0.00010168311
-0.00022641024
0.00013513787
-0.00022453789
0.00016821806
-0.00022205244
0.00020083277
-0.00021896324
0.00023289295
-0.00021528185
0.00026431163
-0.00021102193
0.00029500433
-0.00020619917
0.00032488931
-0.0002008312
0.00035388782
-0.00019493741
0.00038192443
-0.00018853886
0.00040892716
-0.00018165814
0.00043482778
-0.00017431923
0.00045956192
-0.00016654731
0.00048306927
-0.00015836868
0.0005052937
-0.00014981053
0.00052618334
-0.00014090087
0.00054569074
-0.00013166834
0.00056377284
-0.00012214207
0.0005803911
-0.00011235155
0.00059551143
-0.00010232651
0.0006091043
-9.2096797e-05
0.00062114462
-8.1692249e-05
0.00063161181
-7.1142594e-05
0.00064048968
-6.0477352e-05
0.00064776641
-4.9725745e-05
0.00065343448
-3.891661e-05
0.0006574906
-2.8078324e-05
0.00065993559
-1.723873e-05
0.00066077433
-6.4250758e-06
0.00066001561
4.3360485e-06
0.00065767208
1.5018767e-05
0.00065376007
2.5597965e-05
0.00064829948
3.6049339e-05
0.00064131368
4.6349435e-05
0.00063282936
5.6475697e-05
0.00062287636
6.6406497e-05
0.00061148755
7.6121167e-05
0.0005986987
8.5600029e-05
0.00058454828
9.4824417e-05
0.00056907732
0.00010377669
0.00055232926
0.00011244025
0.00053434979
0.00012079956
0.00051518667
0.00012884009
0.00049488959
0.0001365484
0.00047351
0.00014391203
0.00045110095
0.00015091958
0.00042771696
0.00015756057
0.00040341386
0.00016382553
0.00037824863
0.00016970587
0.00035227932
0.00017519389
0.00032556487
0.00018028271
0.00029816505
0.00018496624
0.0002701403
0.00018923912
0.00024155165
0.00019309668
0.00021246066
0.00019653489
0.00018292929
0.00019955028
0.00015301987
0.00020213995
0.00012279499
0.00020430151
9.2317503e-05
0.00020603299
6.1650404e-05
0.00020733289
3.085683e-05
0.0002082001
0.00020863388
-3.1375915e-05
0.0002400098
-6.2687995e-05
0.00023951218
-9.3872438e-05
0.00023851734
-0.00012486551
0.00023702606
-0.00015560359
0.00023503959
-0.00018602321
0.00023255957
-0.00021606108
0.00022958815
-0.00024565418
0.00022612799
-0.00027473981
0.00022218231
-0.00030325563
0.00021775495
-0.00033113979
0.0002128504
-0.00035833098
0.0002074739
-0.00038476853
0.00020163144
-0.00041039254
0.00019532988
-0.00043514398
0.00018857698
-0.00045896485
0.00018138144
-0.00048179825
0.00017375298
-0.0005035886
0.00016570238
-0.00052428172
0.00015724152
-0.00054382505
0.00014838342
-0.00056216777
0.00013914228
-0.00057926098
0.00012953346
-0.00059505786
0.00011957357
-0.00060951384
0.0001092804
-0.00062258677
9.8672963e-05
-0.00063423709
8.7771489e-05
-0.00064442798
7.6597388e-05
-0.00065312553
6.5173246e-05
-0.00066029889
5.3522791e-05
-0.00066592041
4.1670864e-05
-0.00066996583
2.9643381e-05
-0.00067241435
1.7467291e-05
-0.00067324884
5.1705309e-06
-0.00067245589
-7.2180221e-06
-0.00067002601
-1.9668609e-05
-0.00066595369
-3.215064e-05
-0.00066023754
-4.4632761e-05
-0.00065288037
-5.7082919e-05
-0.00064388928
-6.9468438e-05
-0.00063327578
-8.1756094e-05
-0.00062105583
-9.3912207e-05
-0.00060724989
-0.00010590273
-0.00059188302
-0.00011769338
-0.00057498488
-0.00012924969
-0.00055658976
-0.00014053719
-0.00053673656
-0.00015152154
-0.00051546883
-0.00016216861
-0.00049283467
-0.00017244469
-0.00046888672
-0.00018231662
-0.00044368205
-0.00019175198
-0.00041728207
-0.00020071921
-0.00038975238
-0.00020918784
-0.00036116263
-0.00021712861
-0.00033158632
-0.00022451371
-0.00030110061
-0.0002313169
-0.00026978608
-0.00023751371
-0.00023772644
-0.00024308157
-0.00020500829
-0.000248
-0.00017172077
-0.00025225076
-0.00013795528
-0.00025581793
-0.00010380511
-0.00025868807
-6.9365053e-05
-0.00026085029
-3.47311e-05
-0.00026229639
-2.0297223e-13
-0.00026302082
3.4731099e-05
-0.00026302082
6.9365053e-05
-0.00026229639
0.00010380511
-0.00026085029
0.00013795528
-0.00025868807
0.00017172077
-0.00025581793
0.00020500829
-0.00025225076
0.00023772644
-0.000248
0.00026978608
-0.00024308157
0.00030110061
-0.00023751371
0.00033158632
-0.0002313169
0.00036116262
-0.00022451371
0.00038975238
-0.00021712861
0.00041728207
-0.00020918784
0.00044368205
-0.00020071921
0.00046888672
-0.00019175198
0.00049283467
-0.00018231663
0.00051546883
-0.00017244469
0.00053673656
-0.00016216861
0.00055658975
-0.00015152154
0.00057498488
-0.00014053719
0.00059188302
-0.00012924969
0.00060724989
-0.00011769338
0.00062105583
-0.00010590273
0.00063327578
-9.3912207e-05
0.00064388928
-8.1756094e-05
0.00065288037
-6.9468438e-05
0.00066023754
-5.708292e-05
0.00066595369
-4.4632761e-05
0.00067002601
-3.215064e-05
0.00067245589
-1.9668609e-05
0.00067324884
-7.2180222e-06
0.00067241435
5.1705308e-06
0.00066996583
1.746729e-05
0.00066592041
2.9643381e-05
0.00066029889
4.1670864e-05
0.00065312553
5.3522791e-05
0.00064442798
6.5173246e-05
0.00063423709
7.6597388e-05
0.00062258677
8.7771489e-05
0.00060951384
9.8672963e-05
0.00059505786
0.0001092804
0.00057926098
0.00011957357
0.00056216777
0.00012953346
0.00054382505
0.00013914228
0.00052428172
0.00014838342
0.0005035886
0.00015724152
0.00048179825
0.00016570238
0.00045896485
0.00017375298
0.00043514398
0.00018138144
0.00041039254
0.00018857698
0.00038476853
0.00019532988
0.00035833098
0.00020163144
0.00033113979