"Points:0","Points:1","Points:2"
0.2578125,0.49959221,0
0.25000101,0.5,1
0.2578125,0.49959221,1
0.25000101,0.5,0
0.265625,0.4992055,1
0.265625,0.4992055,0
0.2734375,0.49883541,1
0.2734375,0.49883541,0
0.28125,0.49847999,1
0.28125,0.49847999,0
0.2890625,0.4981356,1
0.2890625,0.4981356,0
0.296875,0.49780267,1
0.296875,0.49780267,0
0.3046875,0.49747935,1
0.3046875,0.49747935,0
0.3125,0.49716625,1
0.3125,0.49716625,0
0.3203125,0.49686241,1
0.3203125,0.49686241,0
0.328125,0.49656835,1
0.328125,0.49656835,0
0.3359375,0.49628362,1
0.3359375,0.49628362,0
0.34375,0.49600869,1
0.34375,0.49600869,0
0.3515625,0.49574351,1
0.3515625,0.49574351,0
0.359375,0.49548841,1
0.359375,0.49548841,0
0.3671875,0.49524361,1
0.3671875,0.49524361,0
0.375,0.49500939,1
0.375,0.49500939,0
0.3828125,0.4947862,1
0.3828125,0.4947862,0
0.390625,0.49457431,1
0.390625,0.49457431,0
0.3984375,0.49437422,1
0.3984375,0.49437422,0
0.40625,0.49418622,1
0.40625,0.49418622,0
0.4140625,0.49401096,1
0.4140625,0.49401096,0
0.421875,0.49384865,1
0.421875,0.49384865,0
0.4296875,0.49370006,1
0.4296875,0.49370006,0
0.4375,0.49356535,1
0.4375,0.49356535,0
0.4453125,0.49344531,1
0.4453125,0.49344531,0
0.453125,0.49334005,1
0.453125,0.49334005,0
0.4609375,0.49325031,1
0.4609375,0.49325031,0
0.46875,0.49317619,1
0.46875,0.49317619,0
0.4765625,0.49311829,1
0.4765625,0.49311829,0
0.484375,0.49307662,1
0.484375,0.49307662,0
0.4921875,0.49305165,1
0.4921875,0.49305165,0
0.5,0.49304321,1
0.5,0.49304321,0
0.5078125,0.49305165,1
0.5078125,0.49305165,0
0.515625,0.49307662,1
0.515625,0.49307662,0
0.5234375,0.49311829,1
0.5234375,0.49311829,0
0.53125,0.49317619,1
0.53125,0.49317619,0
0.5390625,0.49325031,1
0.5390625,0.49325031,0
0.546875,0.49334005,1
0.546875,0.49334005,0
0.5546875,0.49344531,1
0.5546875,0.49344531,0
0.5625,0.49356535,1
0.5625,0.49356535,0
0.5703125,0.49370006,1
0.5703125,0.49370006,0
0.578125,0.49384865,1
0.578125,0.49384865,0
0.5859375,0.49401096,1
0.5859375,0.49401096,0
0.59375,0.49418622,1
0.59375,0.49418622,0
0.6015625,0.49437422,1
0.6015625,0.49437422,0
0.609375,0.49457431,1
0.609375,0.49457431,0
0.6171875,0.4947862,1
0.6171875,0.4947862,0
0.625,0.49500939,1
0.625,0.49500939,0
0.6328125,0.49524361,1
0.6328125,0.49524361,0
0.640625,0.49548841,1
0.640625,0.49548841,0
0.6484375,0.49574351,1
0.6484375,0.49574351,0
0.65625,0.49600869,1
0.65625,0.49600869,0
0.6640625,0.49628362,1
0.6640625,0.49628362,0
0.671875,0.49656835,1
0.671875,0.49656835,0
0.6796875,0.49686241,1
0.6796875,0.49686241,0
0.6875,0.49716625,1
0.6875,0.49716625,0
0.6953125,0.49747935,1
0.6953125,0.49747935,0
0.703125,0.49780267,1
0.703125,0.49780267,0
0.7109375,0.4981356,1
0.7109375,0.4981356,0
0.71875,0.49847999,1
0.71875,0.49847999,0
0.7265625,0.49883541,1
0.7265625,0.49883541,0
0.734375,0.4992055,1
0.734375,0.4992055,0
0.7421875,0.49959221,1
0.7421875,0.49959221,0
0.74999899,0.5,0
0.74999899,0.5,1
0,0.5069567,1
0.0078125,0.50694829,1
0,0.5069567,0
0.0078125,0.50694829,0
0.015625,0.50692332,1
0.015625,0.50692332,0
0.0234375,0.50688159,1
0.0234375,0.50688159,0
0.03125,0.50682372,1
0.03125,0.50682372,0
0.0390625,0.50674963,1
0.0390625,0.50674963,0
0.046875,0.50665987,1
0.046875,0.50665987,0
0.0546875,0.50655466,1
0.0546875,0.50655466,0
0.0625,0.50643462,1
0.0625,0.50643462,0
0.0703125,0.50629991,1
0.0703125,0.50629991,0
0.078125,0.50615132,1
0.078125,0.50615132,0
0.0859375,0.50598902,1
0.0859375,0.50598902,0
0.09375,0.50581378,1
0.09375,0.50581378,0
0.1015625,0.50562578,1
0.1015625,0.50562578,0
0.109375,0.50542569,1
0.109375,0.50542569,0
0.1171875,0.5052138,1
0.1171875,0.5052138,0
0.125,0.50499058,1
0.125,0.50499058,0
0.1328125,0.50475639,1
0.1328125,0.50475639,0
0.140625,0.50451159,1
0.140625,0.50451159,0
0.1484375,0.50425649,1
0.1484375,0.50425649,0
0.15625,0.50399131,1
0.15625,0.50399131,0
0.1640625,0.50371641,1
0.1640625,0.50371641,0
0.171875,0.50343168,1
0.171875,0.50343168,0
0.1796875,0.50313765,1
0.1796875,0.50313765,0
0.1875,0.50283378,1
0.1875,0.50283378,0
0.1953125,0.50252074,1
0.1953125,0.50252074,0
0.203125,0.50219738,1
0.203125,0.50219738,0
0.2109375,0.50186449,1
0.2109375,0.50186449,0
0.21875,0.5015201,1
0.21875,0.5015201,0
0.2265625,0.50116467,1
0.2265625,0.50116467,0
0.234375,0.50079459,1
0.234375,0.50079459,0
0.2421875,0.50040787,1
0.2421875,0.50040787,0
0.25,0.50000006,1
0.25,0.50000006,0
0.75,0.50000006,1
0.75,0.50000006,0
0.7578125,0.50040787,1
0.7578125,0.50040787,0
0.765625,0.50079459,1
0.765625,0.50079459,0
0.7734375,0.50116467,1
0.7734375,0.50116467,0
0.78125,0.5015201,1
0.78125,0.5015201,0
0.7890625,0.50186449,1
0.7890625,0.50186449,0
0.796875,0.50219738,1
0.796875,0.50219738,0
0.8046875,0.50252074,1
0.8046875,0.50252074,0
0.8125,0.50283378,1
0.8125,0.50283378,0
0.8203125,0.50313765,1
0.8203125,0.50313765,0
0.828125,0.50343168,1
0.828125,0.50343168,0
0.8359375,0.50371641,1
0.8359375,0.50371641,0
0.84375,0.50399131,1
0.84375,0.50399131,0
0.8515625,0.50425649,1
0.8515625,0.50425649,0
0.859375,0.50451159,1
0.859375,0.50451159,0
0.8671875,0.50475639,1
0.8671875,0.50475639,0
0.875,0.50499058,1
0.875,0.50499058,0
0.8828125,0.5052138,1
0.8828125,0.5052138,0
0.890625,0.50542569,1
0.890625,0.50542569,0
0.8984375,0.50562578,1
0.8984375,0.50562578,0
0.90625,0.50581378,1
0.90625,0.50581378,0
0.9140625,0.50598902,1
0.9140625,0.50598902,0
0.921875,0.50615132,1
0.921875,0.50615132,0
0.9296875,0.50629991,1
0.9296875,0.50629991,0
0.9375,0.50643462,1
0.9375,0.50643462,0
0.9453125,0.50655466,1
0.9453125,0.50655466,0
0.953125,0.50665987,1
0.953125,0.50665987,0
0.9609375,0.50674963,1
0.9609375,0.50674963,0
0.96875,0.50682372,1
0.96875,0.50682372,0
0.9765625,0.50688159,1
0.9765625,0.50688159,0
0.984375,0.50692332,1
0.984375,0.50692332,0
0.9921875,0.50694829,1
0.9921875,0.50694829,0
1,0.5069567,1
1,0.5069567,0
