/*--------------------------------*- C++ -*----------------------------------*\
| =========                 |                                                 |
| \\      /  F ield         | OpenFOAM: The Open Source CFD Toolbox           |
|  \\    /   O peration     | Version:  2306                                  |
|   \\  /    A nd           | Website:  www.openfoam.com                      |
|    \\/     M anipulation  |                                                 |
\*---------------------------------------------------------------------------*/
FoamFile
{
    version     2.0;
    format      ascii;
    arch        "LSB;label=32;scalar=64";
    class       surfaceScalarField;
    location    "0.42";
    object      phi;
}
// * * * * * * * * * * * * * * * * * * * * * * * * * * * * * * * * * * * * * //

dimensions      [0 3 -1 0 0 0 0];

oriented        oriented;

internalField   nonuniform List<scalar> 
101920
(
5.7134818e-10
-5.7134815e-10
2.0876732e-09
-1.516325e-09
4.4055223e-09
-2.3178493e-09
7.365848e-09
-2.9603255e-09
1.0923531e-08
-3.5576826e-09
1.5063398e-08
-4.1398674e-09
1.9769679e-08
-4.7062806e-09
2.5016141e-08
-5.2464631e-09
3.0763387e-08
-5.7472462e-09
3.6965806e-08
-6.2024193e-09
4.3569476e-08
-6.6036695e-09
5.0513841e-08
-6.9443656e-09
5.7733336e-08
-7.2194949e-09
6.515837e-08
-7.4250327e-09
7.2716766e-08
-7.5583957e-09
8.0334996e-08
-7.6182299e-09
8.7926782e-08
-7.5917847e-09
9.5413315e-08
-7.4865348e-09
1.0271504e-07
-7.3017219e-09
1.0975107e-07
-7.0360292e-09
1.1644127e-07
-6.6902035e-09
1.2270503e-07
-6.2637614e-09
1.2846404e-07
-5.7590116e-09
1.336419e-07
-5.1778555e-09
1.3816403e-07
-4.5221326e-09
1.4196044e-07
-3.7964067e-09
1.44965e-07
-3.0045628e-09
1.4711382e-07
-2.1488124e-09
1.483556e-07
-1.2417881e-09
1.4866666e-07
-3.1106114e-10
1.4793057e-07
7.3608779e-10
1.4611287e-07
1.8177057e-09
1.4319292e-07
2.919948e-09
1.391359e-07
4.0570185e-09
1.3392417e-07
5.2117336e-09
1.2753646e-07
6.387711e-09
1.1996036e-07
7.5760936e-09
1.1118721e-07
8.773152e-09
1.0121243e-07
9.97478e-09
9.004033e-08
1.1172105e-08
7.7685885e-08
1.2354441e-08
6.4167108e-08
1.3518778e-08
4.9501831e-08
1.4665275e-08
3.3730131e-08
1.5771701e-08
1.6888892e-08
1.6841238e-08
-9.7926105e-10
1.7868155e-08
-1.9847842e-08
1.8868579e-08
-3.9673007e-08
1.9825162e-08
-6.0398712e-08
2.0725708e-08
-8.1966582e-08
2.1567872e-08
-1.0431576e-07
2.2349175e-08
-1.2738283e-07
2.3067078e-08
-1.5110208e-07
2.3719249e-08
-1.7540567e-07
2.430359e-08
-2.0022409e-07
2.4818418e-08
-2.2548646e-07
2.5262369e-08
-2.5112097e-07
2.5634506e-08
-2.7705523e-07
2.5934257e-08
-3.0321665e-07
2.6161417e-08
-3.2953284e-07
2.6316184e-08
-3.5593189e-07
2.6399061e-08
-3.8234283e-07
2.6410931e-08
-4.0869578e-07
2.6352963e-08
-4.3492246e-07
2.6226664e-08
-4.6095623e-07
2.6033783e-08
-4.8673257e-07
2.5776337e-08
-5.1218915e-07
2.545658e-08
-5.372661e-07
2.5076956e-08
-5.6190623e-07
2.4640133e-08
-5.8605514e-07
2.4148904e-08
-6.0966136e-07
2.3606212e-08
-6.3267646e-07
2.3015114e-08
-6.5505522e-07
2.2378751e-08
-6.7675552e-07
2.1700306e-08
-6.9773854e-07
2.0983028e-08
-7.1796869e-07
2.0230151e-08
-7.3741362e-07
1.9444927e-08
-7.5604421e-07
1.8630588e-08
-7.7383457e-07
1.7790358e-08
-7.90762e-07
1.6927427e-08
-8.0680694e-07
1.6044949e-08
-8.2195301e-07
1.5146061e-08
-8.3618687e-07
1.4233865e-08
-8.4949829e-07
1.3311421e-08
-8.6187999e-07
1.2381695e-08
-8.7332751e-07
1.1447531e-08
-8.8383902e-07
1.0511504e-08
-8.934148e-07
9.5757736e-09
-9.0205679e-07
8.6419886e-09
-9.0976837e-07
7.7115715e-09
-9.1655124e-07
6.7828705e-09
-9.2240753e-07
5.8562971e-09
-9.2734269e-07
4.9351691e-09
-9.3136142e-07
4.0187182e-09
-9.3449082e-07
3.1294022e-09
-9.3674411e-07
2.2532933e-09
-9.381269e-07
1.3827936e-09
-9.3861928e-07
4.9237682e-10
-9.3827307e-07
-3.4621204e-10
-9.3716045e-07
-1.112606e-09
-9.3526426e-07
-1.8961945e-09
-9.3259283e-07
-2.6714273e-09
-9.2916198e-07
-3.4308484e-09
-9.249901e-07
-4.1718751e-09
-9.2009652e-07
-4.8935819e-09
-9.1450089e-07
-5.5956268e-09
-9.0822301e-07
-6.2778812e-09
-9.0128269e-07
-6.9403234e-09
-8.9369964e-07
-7.5830482e-09
-8.854935e-07
-8.2061348e-09
-8.7668373e-07
-8.8097706e-09
-8.6728954e-07
-9.3941927e-09
-8.573299e-07
-9.9596335e-09
-8.468235e-07
-1.0506395e-08
-8.3578867e-07
-1.1034837e-08
-8.2424335e-07
-1.1545326e-08
-8.1220508e-07
-1.2038259e-08
-7.9969104e-07
-1.2514049e-08
-7.8671786e-07
-1.2973179e-08
-7.7330177e-07
-1.3416093e-08
-7.5945852e-07
-1.3843259e-08
-7.4520331e-07
-1.4255199e-08
-7.3055091e-07
-1.4652402e-08
-7.155155e-07
-1.5035407e-08
-7.001108e-07
-1.5404695e-08
-6.8435e-07
-1.5760793e-08
-6.6824577e-07
-1.6104239e-08
-6.5181026e-07
-1.6435529e-08
-6.3505505e-07
-1.6755192e-08
-6.1799136e-07
-1.7063701e-08
-6.0062975e-07
-1.7361595e-08
-5.829804e-07
-1.7649369e-08
-5.6505291e-07
-1.7927479e-08
-5.4685651e-07
-1.8196408e-08
-5.283999e-07
-1.8456614e-08
-5.0969134e-07
-1.8708557e-08
-4.9073868e-07
-1.895267e-08
-4.7154933e-07
-1.9189359e-08
-4.521303e-07
-1.941903e-08
-4.3248821e-07
-1.9642079e-08
-4.1262936e-07
-1.9858851e-08
-3.9255966e-07
-2.0069699e-08
-3.7228471e-07
-2.027496e-08
-3.5180982e-07
-2.0474887e-08
-3.3114013e-07
-2.066969e-08
-3.1028061e-07
-2.0859517e-08
-2.8923626e-07
-2.1044357e-08
-2.6801229e-07
-2.1223976e-08
-2.4661447e-07
-2.1397821e-08
-2.2504975e-07
-2.1564717e-08
-2.033276e-07
-2.1722143e-08
-1.8146259e-07
-2.1865015e-08
-1.5947907e-07
-2.1983519e-08
-1.3741934e-07
-2.2059729e-08
-1.1535533e-07
-2.2064006e-08
-9.3396037e-08
-2.1959292e-08
-7.1649077e-08
-2.1746968e-08
-4.9996134e-08
-2.1652929e-08
-2.7274566e-08
-2.2721579e-08
-2.7274552e-08
2.1124639e-10
-7.8259454e-10
6.2448955e-10
-1.929568e-09
1.0617251e-09
-2.7550849e-09
1.3247002e-09
-3.2233006e-09
1.3060036e-09
-3.5389858e-09
9.6448613e-10
-3.7983499e-09
2.5728114e-10
-3.9990757e-09
-8.5914051e-10
-4.1300412e-09
-2.4330913e-09
-4.1732949e-09
-4.5319432e-09
-4.1035677e-09
-7.2327816e-09
-3.9028316e-09
-1.0620417e-08
-3.55673e-09
-1.4788238e-08
-3.0516754e-09
-1.983079e-08
-2.3824795e-09
-2.5842901e-08
-1.5462861e-09
-3.2925547e-08
-5.355848e-10
-4.1210615e-08
6.9328357e-10
-5.0788661e-08
2.0915132e-09
-6.176238e-08
3.6719965e-09
-7.4235612e-08
5.4372026e-09
-8.8309625e-08
7.383811e-09
-1.0408171e-07
9.5083222e-09
-1.2164463e-07
1.1803912e-08
-1.4108564e-07
1.4263147e-08
-1.6248549e-07
1.6877716e-08
-1.8591805e-07
1.9636163e-08
-2.1144935e-07
2.2526731e-08
-2.3913647e-07
2.5538308e-08
-2.690307e-07
2.865245e-08
-3.0119178e-07
3.1850019e-08
-3.3559428e-07
3.5138588e-08
-3.7227171e-07
3.8495133e-08
-4.1124238e-07
4.1890617e-08
-4.5250089e-07
4.5315525e-08
-4.9603364e-07
4.8744488e-08
-5.418126e-07
5.2166666e-08
-5.8979963e-07
5.5563126e-08
-6.399446e-07
5.8918122e-08
-6.9218557e-07
6.2215751e-08
-7.4645094e-07
6.5437472e-08
-8.0266084e-07
6.8564347e-08
-8.6072424e-07
7.1582185e-08
-9.2053704e-07
7.4478075e-08
-9.8199581e-07
7.7230459e-08
-1.0449848e-06
7.9830194e-08
-1.1093831e-06
8.2266511e-08
-1.1750472e-06
8.4532617e-08
-1.2418365e-06
8.6614518e-08
-1.3096108e-06
8.8500023e-08
-1.3782232e-06
9.0180273e-08
-1.4475221e-06
9.164808e-08
-1.5173526e-06
9.2897577e-08
-1.5875574e-06
9.3924035e-08
-1.6579777e-06
9.4723914e-08
-1.7284541e-06
9.5294807e-08
-1.7988273e-06
9.5635504e-08
-1.8689386e-06
9.574588e-08
-1.9386313e-06
9.5626956e-08
-2.0077507e-06
9.5280819e-08
-2.0761451e-06
9.4710594e-08
-2.1436664e-06
9.3920321e-08
-2.2101705e-06
9.2915036e-08
-2.2755181e-06
9.1700545e-08
-2.339575e-06
9.0283526e-08
-2.4022125e-06
8.8671318e-08
-2.4633081e-06
8.6871915e-08
-2.5227454e-06
8.4893905e-08
-2.5804148e-06
8.274636e-08
-2.6362135e-06
8.0438801e-08
-2.6900456e-06
7.7981083e-08
-2.7418228e-06
7.538338e-08
-2.7914638e-06
7.2656062e-08
-2.8388946e-06
6.980962e-08
-2.884049e-06
6.6854623e-08
-2.9268676e-06
6.3801638e-08
-2.9672986e-06
6.0661157e-08
-3.0052972e-06
5.7443576e-08
-3.0408258e-06
5.4159162e-08
-3.0738534e-06
5.0818018e-08
-3.1043561e-06
4.7430053e-08
-3.1323161e-06
4.4004936e-08
-3.1577221e-06
4.0552129e-08
-3.1805691e-06
3.7080787e-08
-3.2008574e-06
3.3599791e-08
-3.2185933e-06
3.0117602e-08
-3.233788e-06
2.6642214e-08
-3.2464574e-06
2.3180883e-08
-3.2566213e-06
1.9739686e-08
-3.2643023e-06
1.6322953e-08
-3.2695236e-06
1.2932918e-08
-3.2723015e-06
9.5607047e-09
-3.2726709e-06
6.2257517e-09
-3.2706472e-06
2.9114706e-09
-3.2662393e-06
-3.8919281e-10
-3.2596653e-06
-3.4446434e-09
-3.2508866e-06
-6.5253788e-09
-3.2399398e-06
-9.5640508e-09
-3.2268981e-06
-1.2549268e-08
-3.2117604e-06
-1.5483958e-08
-3.194538e-06
-1.8334946e-08
-3.1753194e-06
-2.1114874e-08
-3.1541653e-06
-2.3825499e-08
-3.1311299e-06
-2.6466247e-08
-3.1062654e-06
-2.9036352e-08
-3.0796236e-06
-3.1535382e-08
-3.0512561e-06
-3.3963133e-08
-3.0212142e-06
-3.6319773e-08
-2.9895489e-06
-3.8605645e-08
-2.9563106e-06
-4.0821366e-08
-2.921549e-06
-4.296773e-08
-2.8853131e-06
-4.5045666e-08
-2.847651e-06
-4.7056304e-08
-2.8086098e-06
-4.9000856e-08
-2.7682355e-06
-5.0880661e-08
-2.7265731e-06
-5.2697214e-08
-2.6836664e-06
-5.4452058e-08
-2.6395579e-06
-5.6146804e-08
-2.5942887e-06
-5.7783174e-08
-2.547899e-06
-5.9362923e-08
-2.5004273e-06
-6.0887825e-08
-2.4519108e-06
-6.235974e-08
-2.4023855e-06
-6.3780517e-08
-2.3518858e-06
-6.5152031e-08
-2.300445e-06
-6.6476199e-08
-2.2480948e-06
-6.7754912e-08
-2.1948656e-06
-6.8990039e-08
-2.1407863e-06
-7.0183486e-08
-2.0858848e-06
-7.1337108e-08
-2.0301872e-06
-7.2452751e-08
-1.9737186e-06
-7.3532243e-08
-1.9165029e-06
-7.4577371e-08
-1.8585623e-06
-7.5589904e-08
-1.7999183e-06
-7.6571557e-08
-1.7405907e-06
-7.752399e-08
-1.6805984e-06
-7.8448866e-08
-1.6199593e-06
-7.9347727e-08
-1.5586898e-06
-8.0222159e-08
-1.4968055e-06
-8.1073622e-08
-1.434321e-06
-8.1903559e-08
-1.3712497e-06
-8.2713353e-08
-1.3076043e-06
-8.3504277e-08
-1.2433964e-06
-8.4277581e-08
-1.1786369e-06
-8.5034448e-08
-1.1133359e-06
-8.5775852e-08
-1.047503e-06
-8.6502654e-08
-9.8114725e-07
-8.7215235e-08
-9.1427831e-07
-8.791331e-08
-8.4690565e-07
-8.8596628e-08
-7.7903922e-07
-8.926424e-08
-7.1069052e-07
-8.9913434e-08
-6.4187405e-07
-9.0538627e-08
-5.7260952e-07
-9.1129534e-08
-5.0292453e-07
-9.1668501e-08
-4.3285612e-07
-9.2128158e-08
-3.6244559e-07
-9.2474528e-08
-2.9171217e-07
-9.2692717e-08
-2.2057503e-07
-9.2884107e-08
-1.4868855e-07
-9.3539396e-08
-7.5354842e-08
-9.6055299e-08
-1.026294e-07
-5.7238097e-10
-2.1021349e-10
-2.3496703e-09
-1.522787e-10
-5.4429556e-09
3.3820058e-10
-9.9716024e-09
1.3053464e-09
-1.6032099e-08
2.5215104e-09
-2.369298e-08
3.862531e-09
-3.3007798e-08
5.3157418e-09
-4.4029788e-08
6.8919497e-09
-5.6818449e-08
8.6153657e-09
-7.1436094e-08
1.0514077e-08
-8.795186e-08
1.2612935e-08
-1.0644103e-07
1.4932438e-08
-1.2698193e-07
1.7489233e-08
-1.496596e-07
2.0295184e-08
-1.7456482e-07
2.3358932e-08
-2.0178951e-07
2.6689111e-08
-2.313944e-07
3.0298173e-08
-2.6347833e-07
3.4175441e-08
-2.9812523e-07
3.8318898e-08
-3.3541257e-07
4.2724546e-08
-3.7541347e-07
4.7384706e-08
-4.1819459e-07
5.2289444e-08
-4.638162e-07
5.7425524e-08
-5.1233063e-07
6.2777574e-08
-5.6378099e-07
6.8328077e-08
-6.1820147e-07
7.405664e-08
-6.7561602e-07
7.9941283e-08
-7.3603654e-07
8.5958824e-08
-7.9946651e-07
9.2082413e-08
-8.6590166e-07
9.8285172e-08
-9.3530884e-07
1.0454577e-07
-1.0076484e-06
1.1083467e-07
-1.0828757e-06
1.1711798e-07
-1.1609272e-06
1.2336702e-07
-1.2417315e-06
1.2954879e-07
-1.3251998e-06
1.3563496e-07
-1.411232e-06
1.4159535e-07
-1.4997148e-06
1.4740086e-07
-1.5905218e-06
1.5302275e-07
-1.6835163e-06
1.5843195e-07
-1.7785521e-06
1.636002e-07
-1.8754717e-06
1.6850175e-07
-1.9741058e-06
1.7311223e-07
-2.0742819e-06
1.7740656e-07
-2.1758162e-06
1.813645e-07
-2.2785173e-06
1.8496757e-07
-2.3821839e-06
1.8819925e-07
-2.4866122e-06
1.910428e-07
-2.5915954e-06
1.9348323e-07
-2.6969235e-06
1.9550832e-07
-2.8023836e-06
1.9710826e-07
-2.9077617e-06
1.9827565e-07
-3.0128429e-06
1.9900525e-07
-3.117413e-06
1.9929402e-07
-3.2212593e-06
1.9914104e-07
-3.3241713e-06
1.9854748e-07
-3.4259419e-06
1.9751653e-07
-3.5263683e-06
1.9605331e-07
-3.6252523e-06
1.9416483e-07
-3.7224016e-06
1.9185988e-07
-3.8176301e-06
1.8914886e-07
-3.9107588e-06
1.8604377e-07
-4.0016163e-06
1.8255802e-07
-4.0900391e-06
1.7870632e-07
-4.1758724e-06
1.7450456e-07
-4.2589701e-06
1.6996964e-07
-4.3391956e-06
1.6511939e-07
-4.4164216e-06
1.599724e-07
-4.4905307e-06
1.5454788e-07
-4.5614152e-06
1.4886556e-07
-4.6289773e-06
1.4294554e-07
-4.6931294e-06
1.3680817e-07
-4.7537937e-06
1.3047388e-07
-4.8109021e-06
1.2396307e-07
-4.8643965e-06
1.1729604e-07
-4.9142282e-06
1.1049282e-07
-4.9603577e-06
1.0357311e-07
-5.0027548e-06
9.6556289e-08
-5.0413981e-06
8.946125e-08
-5.0762745e-06
8.2306436e-08
-5.1073792e-06
7.510969e-08
-5.1347154e-06
6.7888302e-08
-5.1582935e-06
6.0658899e-08
-5.1781311e-06
5.3437439e-08
-5.1942526e-06
4.6239113e-08
-5.2066887e-06
3.9078225e-08
-5.2154758e-06
3.1967975e-08
-5.2206557e-06
2.491964e-08
-5.2222743e-06
1.794155e-08
-5.2203938e-06
1.1052459e-08
-5.2150681e-06
4.2349711e-09
-5.2063264e-06
-2.5159987e-09
-5.1942484e-06
-9.166544e-09
-5.1789333e-06
-1.5704275e-08
-5.160312e-06
-2.206593e-08
-5.138545e-06
-2.8292332e-08
-5.113719e-06
-3.4390054e-08
-5.0859082e-06
-4.0360065e-08
-5.0551924e-06
-4.6199778e-08
-5.0216314e-06
-5.1895947e-08
-4.9852992e-06
-5.7447116e-08
-4.9462718e-06
-6.2852871e-08
-4.9046252e-06
-6.8112843e-08
-4.8604349e-06
-7.322669e-08
-4.8137758e-06
-7.8194451e-08
-4.7647223e-06
-8.3016675e-08
-4.7133478e-06
-8.7694288e-08
-4.6597248e-06
-9.2228612e-08
-4.6039248e-06
-9.6621364e-08
-4.5460179e-06
-1.0087458e-07
-4.486073e-06
-1.0499059e-07
-4.4241573e-06
-1.0897199e-07
-4.3603366e-06
-1.1282159e-07
-4.2946748e-06
-1.165424e-07
-4.2272344e-06
-1.201377e-07
-4.1580756e-06
-1.2361079e-07
-4.0872572e-06
-1.2696521e-07
-4.0148358e-06
-1.3020455e-07
-3.9408662e-06
-1.3333254e-07
-3.8654011e-06
-1.3635293e-07
-3.7884913e-06
-1.3926952e-07
-3.7101856e-06
-1.4208625e-07
-3.6305307e-06
-1.4480696e-07
-3.5495713e-06
-1.4743552e-07
-3.4673504e-06
-1.4997588e-07
-3.3839086e-06
-1.5243181e-07
-3.2992848e-06
-1.5480725e-07
-3.213516e-06
-1.5710591e-07
-3.1266372e-06
-1.5933159e-07
-3.0386815e-06
-1.6148797e-07
-2.9496802e-06
-1.6357864e-07
-2.8596629e-06
-1.656072e-07
-2.7686574e-06
-1.6757709e-07
-2.6766897e-06
-1.694917e-07
-2.5837842e-06
-1.7135429e-07
-2.4899639e-06
-1.7316808e-07
-2.3952499e-06
-1.7493616e-07
-2.2996621e-06
-1.7666145e-07
-2.2032187e-06
-1.7834691e-07
-2.1059369e-06
-1.799952e-07
-2.0078322e-06
-1.8160892e-07
-1.9089193e-06
-1.8319052e-07
-1.8092115e-06
-1.8474228e-07
-1.7087211e-06
-1.8626619e-07
-1.6074598e-06
-1.8776397e-07
-1.5054382e-06
-1.8923685e-07
-1.4026661e-06
-1.9068547e-07
-1.2991529e-06
-1.9210976e-07
-1.1949086e-06
-1.9350853e-07
-1.0899436e-06
-1.9487843e-07
-9.8426939e-07
-1.9621287e-07
-8.778986e-07
-1.9750033e-07
-7.7084427e-07
-1.9872281e-07
-6.6311516e-07
-1.9985726e-07
-5.5470364e-07
-2.0088606e-07
-4.4556075e-07
-2.0183561e-07
-3.3556345e-07
-2.0288139e-07
-2.245302e-07
-2.0457266e-07
-1.1243471e-07
-2.0815078e-07
-2.1506411e-07
-1.2569591e-09
1.0467456e-09
-4.9591023e-09
3.5498647e-09
-1.1122046e-08
6.5011441e-09
-1.9775055e-08
9.9583555e-09
-3.0985046e-08
1.3731501e-08
-4.4825684e-08
1.7703168e-08
-6.1360021e-08
2.1850079e-08
-8.0646689e-08
2.6178618e-08
-1.0274262e-07
3.0711291e-08
-1.2770449e-07
3.5475956e-08
-1.5559075e-07
4.0499189e-08
-1.8646206e-07
4.5803747e-08
-2.2038078e-07
5.1407957e-08
-2.5741108e-07
5.732548e-08
-2.9761805e-07
6.3565901e-08
-3.4106464e-07
7.0135707e-08
-3.8780473e-07
7.7038254e-08
-4.3789737e-07
8.4268085e-08
-4.9139624e-07
9.1817772e-08
-5.4834849e-07
9.9676794e-08
-6.0879462e-07
1.0783084e-07
-6.7276728e-07
1.162621e-07
-7.4029081e-07
1.2494905e-07
-8.1138016e-07
1.3386693e-07
-8.8603992e-07
1.4298785e-07
-9.6426412e-07
1.5228084e-07
-1.0460352e-06
1.617124e-07
-1.1313233e-06
1.7124685e-07
-1.2200868e-06
1.8084595e-07
-1.312272e-06
1.9047043e-07
-1.4078074e-06
2.0008111e-07
-1.5066084e-06
2.0963568e-07
-1.6085801e-06
2.1908969e-07
-1.7136126e-06
2.2839952e-07
-1.8215845e-06
2.3752064e-07
-1.9323595e-06
2.4640998e-07
-2.0457888e-06
2.5502471e-07
-2.1617109e-06
2.633229e-07
-2.2799518e-06
2.7126367e-07
-2.4003269e-06
2.788071e-07
-2.5226417e-06
2.8591494e-07
-2.6466912e-06
2.9255126e-07
-2.7722613e-06
2.9868236e-07
-2.8991313e-06
3.0427654e-07
-3.0270724e-06
3.0930557e-07
-3.155849e-06
3.137442e-07
-3.2852197e-06
3.1756994e-07
-3.4149395e-06
3.207626e-07
-3.5447612e-06
3.233049e-07
-3.6744357e-06
3.2518286e-07
-3.8037134e-06
3.2638591e-07
-3.9323445e-06
3.2690684e-07
-4.0600809e-06
3.2674165e-07
-4.1866766e-06
3.2588967e-07
-4.3118888e-06
3.2435328e-07
-4.4354793e-06
3.2213798e-07
-4.557215e-06
3.1925217e-07
-4.6768687e-06
3.1570709e-07
-4.7942206e-06
3.1151666e-07
-4.909058e-06
3.0669732e-07
-5.021177e-06
3.0126788e-07
-5.1303826e-06
2.9524932e-07
-5.2364892e-06
2.886646e-07
-5.3393213e-06
2.8153849e-07
-5.4387141e-06
2.7389733e-07
-5.5345133e-06
2.6576887e-07
-5.6265759e-06
2.5718202e-07
-5.7147702e-06
2.481667e-07
-5.798976e-06
2.3875359e-07
-5.8790844e-06
2.2897396e-07
-5.9549983e-06
2.1885946e-07
-6.0266321e-06
2.0844196e-07
-6.0939115e-06
1.9775331e-07
-6.1567736e-06
1.8682516e-07
-6.2151664e-06
1.7568884e-07
-6.2690487e-06
1.6437518e-07
-6.31839e-06
1.5291439e-07
-6.3631697e-06
1.41336e-07
-6.4033772e-06
1.2966872e-07
-6.4390112e-06
1.1794042e-07
-6.4700795e-06
1.0617797e-07
-6.4965984e-06
9.4407233e-08
-6.5185925e-06
8.2653013e-08
-6.5360941e-06
7.0939009e-08
-6.5491427e-06
5.928778e-08
-6.5577853e-06
4.7720754e-08
-6.5620753e-06
3.6258052e-08
-6.5620738e-06
2.491805e-08
-6.5578486e-06
1.3716439e-08
-6.5495045e-06
2.7083119e-09
-6.5369569e-06
-8.3126677e-09
-6.5203872e-06
-1.9085648e-08
-6.4998961e-06
-2.9657644e-08
-6.4755752e-06
-4.0025143e-08
-6.4474685e-06
-5.0172652e-08
-6.4156584e-06
-6.010247e-08
-6.3802365e-06
-6.9811917e-08
-6.3412985e-06
-7.9298063e-08
-6.2989411e-06
-8.8557167e-08
-6.253253e-06
-9.7584124e-08
-6.2043238e-06
-1.0637632e-07
-6.1522442e-06
-1.1493237e-07
-6.0971052e-06
-1.2325184e-07
-6.038997e-06
-1.3133491e-07
-5.9780091e-06
-1.391824e-07
-5.9142298e-06
-1.467959e-07
-5.8477466e-06
-1.541775e-07
-5.7786453e-06
-1.6132993e-07
-5.7070103e-06
-1.682564e-07
-5.6329242e-06
-1.7496066e-07
-5.556468e-06
-1.8144679e-07
-5.4777206e-06
-1.8771937e-07
-5.396759e-06
-1.9378319e-07
-5.3136581e-06
-1.9964339e-07
-5.2284903e-06
-2.0530541e-07
-5.1413263e-06
-2.1077483e-07
-5.052234e-06
-2.1605747e-07
-4.9612793e-06
-2.2115928e-07
-4.8685255e-06
-2.2608632e-07
-4.7740337e-06
-2.3084479e-07
-4.6778623e-06
-2.3544087e-07
-4.5800677e-06
-2.398809e-07
-4.4807035e-06
-2.4417109e-07
-4.3798213e-06
-2.4831778e-07
-4.27747e-06
-2.523272e-07
-4.1736962e-06
-2.5620558e-07
-4.0685443e-06
-2.599591e-07
-3.9620564e-06
-2.635938e-07
-3.8542723e-06
-2.6711572e-07
-3.7452295e-06
-2.7053076e-07
-3.6349635e-06
-2.7384468e-07
-3.5235075e-06
-2.7706315e-07
-3.4108929e-06
-2.8019174e-07
-3.2971487e-06
-2.8323581e-07
-3.1823025e-06
-2.8620058e-07
-3.0663794e-06
-2.8909115e-07
-2.9494031e-06
-2.9191245e-07
-2.8313954e-06
-2.9466917e-07
-2.7123764e-06
-2.9736591e-07
-2.5923646e-06
-3.00007e-07
-2.4713769e-06
-3.0259653e-07
-2.349429e-06
-3.0513844e-07
-2.2265349e-06
-3.0763635e-07
-2.1027076e-06
-3.1009356e-07
-1.9779586e-06
-3.125129e-07
-1.8522987e-06
-3.1489675e-07
-1.7257374e-06
-3.1724679e-07
-1.5982833e-06
-3.1956385e-07
-1.4699445e-06
-3.218474e-07
-1.3407279e-06
-3.2409498e-07
-1.2106395e-06
-3.2630131e-07
-1.0796823e-06
-3.2845753e-07
-9.4785361e-07
-3.3055148e-07
-8.1513927e-07
-3.3257161e-07
-6.8150422e-07
-3.3452111e-07
-5.4688439e-07
-3.3645545e-07
-4.1120041e-07
-3.3856537e-07
-2.7445533e-07
-3.4131773e-07
-1.3701521e-07
-3.455909e-07
-3.5207931e-07
-1.6944239e-09
2.7411695e-09
-6.6646229e-09
8.5200635e-09
-1.4869439e-08
1.470596e-08
-2.6276503e-08
2.1365419e-08
-4.0921452e-08
2.837645e-08
-5.8868045e-08
3.5649762e-08
-8.0179017e-08
4.3161051e-08
-1.0491349e-07
5.0913085e-08
-1.3312682e-07
5.8924631e-08
-1.6487168e-07
6.7220814e-08
-2.0019936e-07
7.5826863e-08
-2.3916058e-07
8.4764969e-08
-2.8180557e-07
9.4052949e-08
-3.2818379e-07
1.037037e-07
-3.7834312e-07
1.1372524e-07
-4.3232826e-07
1.2412085e-07
-4.9017873e-07
1.3488872e-07
-5.5193139e-07
1.4602074e-07
-6.1761776e-07
1.5750414e-07
-6.8726254e-07
1.6932157e-07
-7.6088271e-07
1.8145101e-07
-8.3848657e-07
1.9386597e-07
-9.2007303e-07
2.0653551e-07
-1.0056307e-06
2.1942459e-07
-1.0951371e-06
2.3249427e-07
-1.1885583e-06
2.4570201e-07
-1.2858479e-06
2.5900205e-07
-1.386947e-06
2.7234587e-07
-1.4917834e-06
2.8568237e-07
-1.6002716e-06
2.9895865e-07
-1.7123111e-06
3.1212056e-07
-1.8277875e-06
3.2511208e-07
-1.9465736e-06
3.3787583e-07
-2.0685284e-06
3.5035435e-07
-2.1934979e-06
3.624901e-07
-2.3213144e-06
3.7422651e-07
-2.4517976e-06
3.8550789e-07
-2.5847547e-06
3.9627996e-07
-2.7199811e-06
4.0649011e-07
-2.8572617e-06
4.160877e-07
-2.9963713e-06
4.2502452e-07
-3.1370754e-06
4.3325535e-07
-3.2791311e-06
4.4073809e-07
-3.4222885e-06
4.4743398e-07
-3.5662912e-06
4.5330822e-07
-3.7108769e-06
4.583299e-07
-3.855779e-06
4.6247208e-07
-4.0007281e-06
4.6571167e-07
-4.1454529e-06
4.6802972e-07
-4.2896817e-06
4.694116e-07
-4.4331429e-06
4.6984712e-07
-4.5755665e-06
4.6933049e-07
-4.7166852e-06
4.6786031e-07
-4.856235e-06
4.6543944e-07
-4.9939566e-06
4.6207494e-07
-5.1295965e-06
4.5777786e-07
-5.2629075e-06
4.525632e-07
-5.39365e-06
4.4644959e-07
-5.5215926e-06
4.3945922e-07
-5.6465128e-06
4.3161751e-07
-5.7681979e-06
4.2295298e-07
-5.8864454e-06
4.1349685e-07
-6.0010638e-06
4.0328296e-07
-6.1118726e-06
3.9234735e-07
-6.2187034e-06
3.8072807e-07
-6.3213993e-06
3.6846485e-07
-6.4198162e-06
3.5559887e-07
-6.5138219e-06
3.4217246e-07
-6.6032972e-06
3.2822882e-07
-6.688135e-06
3.1381177e-07
-6.768241e-06
2.9896548e-07
-6.8435333e-06
2.8373421e-07
-6.913942e-06
2.6816207e-07
-6.9794096e-06
2.5229275e-07
-7.0398902e-06
2.361694e-07
-7.0953493e-06
2.1983427e-07
-7.1457636e-06
2.0332876e-07
-7.1911208e-06
1.8669311e-07
-7.2314184e-06
1.699664e-07
-7.2666644e-06
1.5318637e-07
-7.2968757e-06
1.3638931e-07
-7.3220785e-06
1.1961003e-07
-7.3423073e-06
1.0288184e-07
-7.3576048e-06
8.6236448e-08
-7.3680212e-06
6.9704192e-08
-7.3736147e-06
5.3314239e-08
-7.3744514e-06
3.7094715e-08
-7.3706067e-06
2.1073439e-08
-7.3622055e-06
5.3151968e-09
-7.3491059e-06
-1.0391265e-08
-7.3316082e-06
-2.58104e-08
-7.3097446e-06
-4.0949285e-08
-7.2836022e-06
-5.5799994e-08
-7.2532748e-06
-7.0352549e-08
-7.218851e-06
-8.4596466e-08
-7.1804265e-06
-9.852692e-08
-7.1380998e-06
-1.1213865e-07
-7.0919713e-06
-1.2542661e-07
-7.0421424e-06
-1.3838603e-07
-6.9887137e-06
-1.5101286e-07
-6.9317855e-06
-1.6330452e-07
-6.871458e-06
-1.7525979e-07
-6.8078312e-06
-1.8687867e-07
-6.7410041e-06
-1.9816207e-07
-6.6710745e-06
-2.0911197e-07
-6.5981393e-06
-2.197311e-07
-6.5222937e-06
-2.3002312e-07
-6.4436313e-06
-2.3999234e-07
-6.3622439e-06
-2.4964382e-07
-6.2782213e-06
-2.5898324e-07
-6.1916513e-06
-2.680168e-07
-6.1026194e-06
-2.7675124e-07
-6.0112089e-06
-2.8519371e-07
-5.9175006e-06
-2.9335169e-07
-5.8215729e-06
-3.0123308e-07
-5.7235017e-06
-3.0884601e-07
-5.6233604e-06
-3.1619883e-07
-5.5212195e-06
-3.2330013e-07
-5.4171472e-06
-3.301586e-07
-5.311209e-06
-3.3678304e-07
-5.2034675e-06
-3.4318235e-07
-5.0939829e-06
-3.4936545e-07
-4.9828128e-06
-3.5534127e-07
-4.8700119e-06
-3.611187e-07
-4.7556324e-06
-3.6670663e-07
-4.6397242e-06
-3.7211383e-07
-4.5223342e-06
-3.7734902e-07
-4.4035073e-06
-3.8242077e-07
-4.2832854e-06
-3.8733755e-07
-4.1617085e-06
-3.9210768e-07
-4.0388139e-06
-3.9673928e-07
-3.9146368e-06
-4.0124033e-07
-3.7892099e-06
-4.0561858e-07
-3.6625641e-06
-4.0988164e-07
-3.5347278e-06
-4.1403688e-07
-3.4057276e-06
-4.1809137e-07
-3.2755879e-06
-4.2205207e-07
-3.1443315e-06
-4.2592559e-07
-3.0119791e-06
-4.2971836e-07
-2.8785496e-06
-4.3343645e-07
-2.7440605e-06
-4.3708569e-07
-2.6085273e-06
-4.4067158e-07
-2.4719644e-06
-4.4419932e-07
-2.3343843e-06
-4.4767358e-07
-2.1957986e-06
-4.5109864e-07
-2.0562171e-06
-4.5447823e-07
-1.9156486e-06
-4.578153e-07
-1.7741004e-06
-4.6111205e-07
-1.6315783e-06
-4.6436949e-07
-1.4880862e-06
-4.6758706e-07
-1.3436251e-06
-4.7076243e-07
-1.1981912e-06
-4.7389145e-07
-1.0517729e-06
-4.7696971e-07
-9.0434706e-07
-4.7999748e-07
-7.5587539e-07
-4.8299279e-07
-6.0631089e-07
-4.8601994e-07
-4.5563436e-07
-4.8924189e-07
-3.0396476e-07
-4.9298734e-07
-1.5177513e-07
-4.9778052e-07
-5.0385445e-07
-1.9184778e-09
4.6596474e-09
-7.5737585e-09
1.4175344e-08
-1.6904007e-08
2.4036209e-08
-2.9856481e-08
3.4317894e-08
-4.6444578e-08
4.4964547e-08
-6.6717228e-08
5.5922412e-08
-9.073046e-08
6.7174284e-08
-1.185404e-07
7.872303e-08
-1.5020065e-07
9.0584875e-08
-1.8576186e-07
1.0278203e-07
-2.2527232e-07
1.1533733e-07
-2.6877841e-07
1.2827105e-07
-3.1632464e-07
1.4159918e-07
-3.6795341e-07
1.5533247e-07
-4.2370432e-07
1.6947615e-07
-4.8361309e-07
1.8402962e-07
-5.4771064e-07
1.9898627e-07
-6.1602299e-07
2.1433309e-07
-6.8856999e-07
2.3005114e-07
-7.6536417e-07
2.4611575e-07
-8.4640977e-07
2.624966e-07
-9.3170175e-07
2.7915795e-07
-1.0212251e-06
2.9605881e-07
-1.1149537e-06
3.1315326e-07
-1.2128503e-06
3.303908e-07
-1.3148649e-06
3.477167e-07
-1.4209353e-06
3.6507243e-07
-1.5309857e-06
3.8239622e-07
-1.6449267e-06
3.9962339e-07
-1.7626551e-06
4.1668705e-07
-1.8840531e-06
4.3351858e-07
-2.0089889e-06
4.5004782e-07
-2.1373167e-06
4.6620364e-07
-2.2688771e-06
4.8191476e-07
-2.4034971e-06
4.9711019e-07
-2.5409906e-06
5.1172e-07
-2.6811585e-06
5.2567572e-07
-2.8237893e-06
5.389108e-07
-2.9686603e-06
5.5136107e-07
-3.1155378e-06
5.6296522e-07
-3.2641785e-06
5.7366524e-07
-3.41433e-06
5.8340687e-07
-3.565732e-06
5.9214003e-07
-3.718117e-06
5.9981905e-07
-3.8712119e-06
6.064031e-07
-4.0247383e-06
6.1185634e-07
-4.1784143e-06
6.1614807e-07
-4.3319554e-06
6.1925278e-07
-4.485076e-06
6.2115033e-07
-4.6374905e-06
6.2182607e-07
-4.7889143e-06
6.2127089e-07
-4.939065e-06
6.1948123e-07
-5.0876638e-06
6.1645903e-07
-5.2344358e-06
6.1221152e-07
-5.3791121e-06
6.0675123e-07
-5.5214299e-06
6.0009567e-07
-5.661134e-06
5.9226723e-07
-5.7979772e-06
5.8329285e-07
-5.9317218e-06
5.7320378e-07
-6.0621396e-06
5.6203533e-07
-6.1890132e-06
5.4982652e-07
-6.3121361e-06
5.3661976e-07
-6.4313136e-06
5.2246049e-07
-6.5463631e-06
5.0739689e-07
-6.6571145e-06
4.9147949e-07
-6.7634105e-06
4.7476078e-07
-6.8651065e-06
4.5729493e-07
-6.9620715e-06
4.391374e-07
-7.0541873e-06
4.203446e-07
-7.141349e-06
4.0097349e-07
-7.2234649e-06
3.8108137e-07
-7.3004561e-06
3.6072547e-07
-7.3722568e-06
3.399627e-07
-7.4388133e-06
3.1884927e-07
-7.5000844e-06
2.9744054e-07
-7.5560409e-06
2.7579073e-07
-7.6066648e-06
2.5395269e-07
-7.6519495e-06
2.3197778e-07
-7.6918988e-06
2.0991575e-07
-7.7265269e-06
1.8781445e-07
-7.7558574e-06
1.6571984e-07
-7.7799233e-06
1.4367589e-07
-7.7987659e-06
1.2172448e-07
-7.812435e-06
9.990555e-08
-7.820988e-06
7.8257175e-08
-7.8244904e-06
5.6816663e-08
-7.8230189e-06
3.5623194e-08
-7.8166807e-06
1.4735179e-08
-7.8054097e-06
-5.9557221e-09
-7.7894259e-06
-2.6375086e-08
-7.7688048e-06
-4.6431545e-08
-7.7436349e-06
-6.611918e-08
-7.7140087e-06
-8.542611e-08
-7.6800227e-06
-1.0433857e-07
-7.6417751e-06
-1.2284409e-07
-7.5993685e-06
-1.4093349e-07
-7.552908e-06
-1.5859922e-07
-7.5024996e-06
-1.7583497e-07
-7.4482501e-06
-1.9263549e-07
-7.390266e-06
-2.08997e-07
-7.3286534e-06
-2.2491715e-07
-7.263518e-06
-2.4039516e-07
-7.1949649e-06
-2.5543173e-07
-7.1230982e-06
-2.7002879e-07
-7.0480207e-06
-2.8418946e-07
-6.9698338e-06
-2.9791801e-07
-6.8886372e-06
-3.1121971e-07
-6.8045288e-06
-3.2410073e-07
-6.7176045e-06
-3.3656815e-07
-6.627958e-06
-3.4862976e-07
-6.5356807e-06
-3.6029409e-07
-6.4408617e-06
-3.715702e-07
-6.3435877e-06
-3.8246775e-07
-6.2439425e-06
-3.9299683e-07
-6.1420077e-06
-4.0316791e-07
-6.0378619e-06
-4.1299183e-07
-5.931581e-06
-4.2247972e-07
-5.8232383e-06
-4.3164287e-07
-5.7129041e-06
-4.4049278e-07
-5.6006461e-06
-4.4904106e-07
-5.486529e-06
-4.572994e-07
-5.370615e-06
-4.6527952e-07
-5.2529631e-06
-4.7299311e-07
-5.1336299e-06
-4.804519e-07
-5.0126692e-06
-4.8766739e-07
-4.8901319e-06
-4.9465114e-07
-4.7660664e-06
-5.0141448e-07
-4.6405185e-06
-5.0796865e-07
-4.5135314e-06
-5.1432467e-07
-4.3851458e-06
-5.2049335e-07
-4.2553998e-06
-5.2648527e-07
-4.1243293e-06
-5.3231082e-07
-3.9919677e-06
-5.3798018e-07
-3.8583462e-06
-5.4350312e-07
-3.7234938e-06
-5.4888926e-07
-3.5874374e-06
-5.5414783e-07
-3.4502016e-06
-5.5928784e-07
-3.3118093e-06
-5.6431793e-07
-3.1722812e-06
-5.6924641e-07
-3.0316364e-06
-5.7408124e-07
-2.8898921e-06
-5.7883002e-07
-2.7470638e-06
-5.8349994e-07
-2.6031653e-06
-5.8809778e-07
-2.458209e-06
-5.926299e-07
-2.3122056e-06
-5.9710201e-07
-2.1651645e-06
-6.0151937e-07
-2.0170932e-06
-6.0588656e-07
-1.8679979e-06
-6.1020733e-07
-1.7178828e-06
-6.1448463e-07
-1.5667494e-06
-6.1872041e-07
-1.4145963e-06
-6.2291561e-07
-1.2614167e-06
-6.2707097e-07
-1.1071977e-06
-6.3118877e-07
-9.5191779e-07
-6.3527734e-07
-7.9554958e-07
-6.39361e-07
-6.3807173e-07
-6.4349781e-07
-4.7950669e-07
-6.4780693e-07
-3.2000321e-07
-6.524908e-07
-1.5996063e-07
-6.5782311e-07
-6.6381507e-07
-2.0068395e-09
6.6664868e-09
-7.958375e-09
2.012688e-08
-1.7798713e-08
3.3876546e-08
-3.1479825e-08
4.7999006e-08
-4.9004944e-08
6.2489665e-08
-7.0410566e-08
7.7328035e-08
-9.5744735e-08
9.2508452e-08
-1.2505928e-07
1.0803758e-07
-1.5840593e-07
1.2393152e-07
-1.9583478e-07
1.4021087e-07
-2.3739396e-07
1.5689651e-07
-2.8312955e-07
1.7400665e-07
-3.3308536e-07
1.9155499e-07
-3.8730254e-07
2.0954965e-07
-4.4581887e-07
2.2799248e-07
-5.0866796e-07
2.4687871e-07
-5.7587835e-07
2.6619666e-07
-6.4747287e-07
2.8592761e-07
-7.2346763e-07
3.0604589e-07
-8.0387094e-07
3.2651906e-07
-8.8868239e-07
3.4730807e-07
-9.7789192e-07
3.6836748e-07
-1.0714789e-06
3.8964581e-07
-1.1694115e-06
4.1108581e-07
-1.2716456e-06
4.3262493e-07
-1.3781247e-06
4.5419577e-07
-1.4887788e-06
4.7572658e-07
-1.6035244e-06
4.9714184e-07
-1.7222639e-06
5.1836283e-07
-1.8448851e-06
5.3930825e-07
-1.9712614e-06
5.5989488e-07
-2.1012516e-06
5.8003805e-07
-2.2347003e-06
5.9965233e-07
-2.3714378e-06
6.1865227e-07
-2.5112807e-06
6.3695307e-07
-2.654032e-06
6.5447129e-07
-2.7994817e-06
6.7112544e-07
-2.9474075e-06
6.8683659e-07
-3.0975754e-06
7.0152896e-07