/*--------------------------------*- C++ -*----------------------------------*\
| =========                 |                                                 |
| \\      /  F ield         | OpenFOAM: The Open Source CFD Toolbox           |
|  \\    /   O peration     | Version:  2306                                  |
|   \\  /    A nd           | Website:  www.openfoam.com                      |
|    \\/     M anipulation  |                                                 |
\*---------------------------------------------------------------------------*/
FoamFile
{
    version     2.0;
    format      ascii;
    arch        "LSB;label=32;scalar=64";
    class       surfaceScalarField;
    location    "0.33";
    object      phi;
}
// * * * * * * * * * * * * * * * * * * * * * * * * * * * * * * * * * * * * * //

dimensions      [0 3 -1 0 0 0 0];

oriented        oriented;

internalField   nonuniform List<scalar> 
12640
(
1.3753855e-07
6.4514319e-07
5.4550565e-07
1.9170152e-06
1.1979747e-06
3.0855124e-06
2.0533538e-06
4.0852455e-06
3.0561413e-06
4.8541223e-06
4.1426449e-06
5.3490937e-06
5.2465791e-06
5.5463634e-06
6.3038268e-06
5.4394657e-06
7.256491e-06
5.0382356e-06
8.0559042e-06
4.3665155e-06
8.664459e-06
3.4592031e-06
9.0560672e-06
2.3586152e-06
9.2164422e-06
1.1110788e-06
9.1423521e-06
-2.3687871e-07
8.8415063e-06
-1.6283262e-06
8.3278285e-06
-3.0254159e-06
7.6217517e-06
-4.3871223e-06
6.7480686e-06
-5.6783106e-06
5.7343939e-06
-6.8699333e-06
4.6096781e-06
-7.9390107e-06
3.4029675e-06
-8.8685267e-06
2.142424e-06
-9.6471064e-06
8.5460154e-07
-1.0268492e-05
-4.3599709e-07
-1.0730987e-05
-1.7080949e-06
-1.1035851e-05
-2.9423368e-06
-1.1189884e-05
-4.1224741e-06
-1.1200325e-05
-5.234865e-06
-1.1076178e-05
-6.2686415e-06
-1.0828867e-05
-7.2154239e-06
-1.0470457e-05
-8.0691397e-06
-1.0013549e-05
-8.8258226e-06
-9.4710037e-06
-9.4833835e-06
-8.8556149e-06
-1.0041385e-05
-8.1798807e-06
-1.0500823e-05
-7.4558225e-06
-1.0863908e-05
-6.6948444e-06
-1.1133865e-05
-5.9076274e-06
-1.1314753e-05
-5.1040495e-06
-1.1411276e-05
-4.2931537e-06
-1.1428648e-05
-3.4831091e-06
-1.1372437e-05
-2.6812151e-06
-1.1248452e-05
-1.8939011e-06
-1.1062632e-05
-1.1267549e-06
-1.0820786e-05
-3.8446708e-07
-1.0529515e-05
3.2833504e-07
-1.0194046e-05
1.008429e-06
-9.8201268e-06
1.6537126e-06
-9.4132084e-06
2.2619903e-06
-8.9784811e-06
2.8317402e-06
-8.5208525e-06
3.3619759e-06
-8.0449284e-06
3.8521748e-06
-7.555001e-06
4.302223e-06
-7.0550412e-06
4.7123626e-06
-6.5486935e-06
5.0831444e-06
-6.0392809e-06
5.4153847e-06
-5.5298091e-06
5.7101217e-06
-5.0229749e-06
5.9685749e-06
-4.5211779e-06
6.1921139e-06
-4.0265341e-06
6.382223e-06
-3.5408916e-06
6.5404705e-06
-3.0658443e-06
6.6684861e-06
-2.602753e-06
6.7679361e-06
-2.152756e-06
6.8405006e-06
-1.7167935e-06
6.8878609e-06
-1.2956354e-06
6.9116796e-06
-8.8983379e-07
6.9135524e-06
-4.9988336e-07
6.8951443e-06
-1.2607814e-07
6.8579455e-06
2.31594e-07
6.8035232e-06
5.728005e-07
6.7333674e-06
8.9764598e-07
6.6486388e-06
1.2062299e-06
6.5507268e-06
1.4987165e-06
6.4408688e-06
1.7753292e-06
6.3202305e-06
2.0363428e-06
6.1899084e-06
2.2820729e-06
6.050934e-06
2.5128697e-06
5.9042725e-06
2.7291115e-06
5.7508272e-06
2.9311971e-06
5.5914405e-06
5.4268955e-06
1.1276949e-07
5.323737e-07
4.4745663e-07
1.582328e-06
9.8385192e-07
2.5491171e-06
1.6893807e-06
3.3797167e-06
2.5202861e-06
4.0232168e-06
3.4258954e-06
4.4434844e-06
4.3528609e-06
4.619398e-06
5.2488377e-06
4.5434889e-06
6.0657096e-06
4.2213637e-06
6.7620924e-06
3.6701327e-06
7.305018e-06
2.9162774e-06
7.6705734e-06
1.9930599e-06
7.8441389e-06
9.3751333e-07
7.8198189e-06
-2.1255873e-07
7.6017769e-06
-1.4102843e-06
7.1990895e-06
-2.6227284e-06
6.6267827e-06
-3.8148155e-06
5.9040511e-06
-4.955579e-06
5.0529589e-06
-6.0188411e-06
4.0972466e-06
-6.9832984e-06
3.0612556e-06
-7.8325358e-06
1.9690233e-06
-8.5548741e-06
8.4357678e-07
-9.1430458e-06
-2.9364225e-07
-9.5937678e-06
-1.4227444e-06
-9.906749e-06
-2.5266968e-06
-1.0085932e-05
-3.5902766e-06
-1.0136746e-05
-4.6004277e-06
-1.0066027e-05
-5.5465454e-06
-9.8827496e-06
-6.4201682e-06
-9.5968342e-06
-7.2148689e-06
-9.2188482e-06
-7.9261136e-06
-8.759759e-06
-8.5510802e-06
-8.2306484e-06
-9.0884747e-06
-7.6424862e-06
-9.5383486e-06
-7.0059485e-06
-9.9019196e-06
-6.3312735e-06
-1.0181398e-05
-5.6281494e-06
-1.0379813e-05
-4.9056345e-06
-1.0500871e-05
-4.1720955e-06
-1.0548811e-05
-3.4351694e-06
-1.0528269e-05
-2.7017564e-06
-1.0444169e-05
-1.9780011e-06
-1.0301608e-05
-1.2693156e-06
-1.010572e-05
-5.8035583e-07
-9.862224e-06
8.4839072e-08
-9.5758046e-06
7.2200965e-07
-9.2516589e-06
1.3295668e-06
-8.8947044e-06
1.9050358e-06
-8.5096718e-06
2.4467076e-06
-8.1010692e-06
2.9533734e-06
-7.6731598e-06
3.4242655e-06
-7.2299442e-06
3.8590071e-06
-6.7751497e-06
4.2575681e-06
-6.3122253e-06
4.6202198e-06
-5.8443373e-06
4.9474966e-06
-5.3743726e-06
5.2401572e-06
-4.9049452e-06
5.4991474e-06
-4.4383999e-06
5.7255686e-06
-3.976826e-06
5.9206492e-06
-3.5220689e-06
6.0857133e-06
-3.0757401e-06
6.2221575e-06
-2.6392316e-06
6.3314276e-06
-2.21373e-06
6.4149987e-06
-1.8002402e-06
6.4743711e-06
-1.3995891e-06
6.5110286e-06
-1.012447e-06
6.5264104e-06
-6.3936317e-07
6.5220605e-06
-2.8066109e-07
6.4992436e-06
6.345409e-08
6.4594081e-06
3.925808e-07
6.4042407e-06
7.068225e-07
6.334397e-06
1.0061464e-06
6.2514027e-06
1.2906224e-06
6.1563928e-06
1.5603884e-06
6.0504647e-06
1.815635e-06
5.9346618e-06
2.0565991e-06
5.8099699e-06
2.2835538e-06
5.6773176e-06
2.4968041e-06
5.5375769e-06
2.6966803e-06
5.3915642e-06
5.2400433e-06
9.2818382e-08
4.3955532e-07
3.6843192e-07
1.3067145e-06
8.1096611e-07
2.106583e-06
1.3947252e-06
2.7959576e-06
2.0849895e-06
3.3329525e-06
2.8412292e-06
3.6872447e-06
3.6203394e-06
3.8402877e-06
4.3794905e-06
3.7843378e-06
5.0786931e-06
3.5221611e-06
5.6828641e-06
3.0659617e-06
6.1633032e-06
2.4358383e-06
6.4984468e-06
1.6579163e-06
6.6740065e-06
7.6195356e-07
6.6830329e-06
-2.2158502e-07
6.5264005e-06
-1.2536519e-06
6.2101215e-06
-2.3064495e-06
5.7449718e-06
-3.3496659e-06
5.1456848e-06
-4.3562919e-06
4.4297885e-06
-5.3029448e-06
3.6166432e-06
-6.1701531e-06
2.7265296e-06
-6.9424222e-06
1.7798547e-06
-7.6081992e-06
7.9648327e-07
-8.1596744e-06
-2.0480262e-07
-8.5924818e-06
-1.2061448e-06
-8.9054068e-06
-2.1922377e-06
-9.0998391e-06
-3.1490253e-06
-9.179958e-06
-4.0642572e-06
-9.1507951e-06
-4.9277601e-06
-9.0192468e-06
-5.7312005e-06
-8.7933937e-06
-6.4680202e-06
-8.4820285e-06
-7.1333413e-06
-8.094438e-06
-7.7238293e-06
-7.6401603e-06
-8.2375487e-06
-7.1287668e-06
-8.6738118e-06
-6.5696854e-06
-9.0330309e-06
-5.9720544e-06
-9.316567e-06
-5.3446134e-06
-9.5265892e-06
-4.6956122e-06
-9.6659395e-06
-4.0327453e-06
-9.7380064e-06
-3.3631025e-06
-9.7466035e-06
-2.6931593e-06
-9.6958637e-06
-2.0287408e-06
-9.5901515e-06
-1.3750279e-06
-9.4339362e-06
-7.3657106e-07
-9.232034e-06
-1.170631e-07
-8.9888968e-06
4.7887237e-07
-8.7089968e-06
1.0496668e-06
-8.3967836e-06
1.5928226e-06
-8.0565553e-06
2.1064793e-06
-7.692435e-06
2.589253e-06
-7.3083485e-06
3.040179e-06
-6.9080071e-06
3.4586659e-06
-6.4948927e-06
3.8444538e-06
-6.0722489e-06
4.1975761e-06
-5.6430762e-06
4.5183238e-06
-5.2101306e-06
4.8072116e-06
-4.7759262e-06
5.0649432e-06
-4.3427389e-06
5.2923812e-06
-3.9126129e-06
5.490523e-06
-3.4873723e-06
5.6604726e-06
-3.0686266e-06
5.8034119e-06
-2.6577837e-06
5.9205846e-06
-2.2560679e-06
6.0132831e-06
-1.8645285e-06
6.0828314e-06
-1.4840199e-06
6.1305201e-06
-1.1153185e-06
6.157709e-06
-7.5893646e-07
6.1656784e-06
-4.1545845e-07
6.1557655e-06
-8.5242575e-08
6.1291922e-06
2.318568e-07
6.0871414e-06
5.3525631e-07
6.0309976e-06
8.2498498e-07
5.9616741e-06
1.1010575e-06
5.8803201e-06
1.3635385e-06
5.7879835e-06
1.6125451e-06
5.6856552e-06
1.8482406e-06
5.5742744e-06
2.0708291e-06
5.4547293e-06
2.2805482e-06
5.3278577e-06
2.4776642e-06
5.194448e-06
5.0552404e-06
7.6659086e-08
3.6289623e-07
3.0439153e-07
1.0789821e-06
6.7063986e-07
1.7403346e-06
1.1550003e-06
2.3115972e-06
1.7297571e-06
2.7581957e-06
2.3623293e-06
3.0546726e-06
3.0177521e-06
3.1848649e-06
3.6608963e-06
3.1411936e-06
4.2585072e-06
2.9245502e-06
4.7809023e-06
2.5435666e-06
5.2032395e-06
2.0135011e-06
5.5062971e-06
1.3548587e-06
5.6766757e-06
5.9157491e-07
5.7063665e-06
-2.5127573e-07
5.59515e-06
-1.1424355e-06
5.3459643e-06
-2.0572638e-06
4.9665409e-06
-2.9702424e-06
4.4680928e-06
-3.8578438e-06
3.8644792e-06
-4.6993312e-06
3.1714135e-06
-5.4770873e-06
2.4057166e-06
-6.1767253e-06
1.5846279e-06
-6.7871106e-06
7.2524572e-07
-7.3002921e-06
-1.5592313e-07
-7.711313e-06
-1.043702e-06
-8.017628e-06
-1.9237062e-06
-8.2198349e-06
-2.7832244e-06
-8.3204397e-06
-3.6109519e-06
-8.3230676e-06
-4.397264e-06
-8.2329346e-06
-5.1341082e-06
-8.0565495e-06
-5.8149665e-06
-7.8011701e-06
-6.4347953e-06
-7.4746091e-06
-6.9899287e-06
-7.085027e-06
-7.477968e-06
-6.6407275e-06
-7.8976611e-06
-6.1499922e-06
-8.2487786e-06
-5.6209368e-06
-8.531991e-06
-5.0614011e-06
-8.748745e-06
-4.4788582e-06
-8.9011475e-06
-3.8803427e-06
-8.9918459e-06
-3.2724041e-06
-9.0239367e-06
-2.6610686e-06
-9.0008622e-06
-2.0518153e-06
-8.9263198e-06
-1.4495702e-06
-8.8041931e-06
-8.5869787e-07
-8.6383269e-06
-2.8292915e-07
-8.4332407e-06
2.7378617e-07
-8.1925484e-06
8.0897446e-07
-7.9202846e-06
1.3205589e-06
-7.62034e-06
1.8065347e-06
-7.2964699e-06
2.2653829e-06
-6.9522752e-06
2.6959843e-06
-6.5911823e-06
3.0975729e-06
-6.216428e-06
3.4696994e-06
-5.8310485e-06
3.8121966e-06
-5.4378719e-06
4.1251473e-06
-5.0395142e-06
4.4088539e-06
-4.6383793e-06
4.6638083e-06
-4.2366603e-06
4.8906622e-06
-3.8363437e-06
5.0902063e-06
-3.4392146e-06
5.2633436e-06
-3.0468667e-06
5.4110637e-06
-2.6607116e-06
5.5344296e-06
-2.2819866e-06
5.6345583e-06
-1.911745e-06
5.7125897e-06
-1.5509342e-06
5.7697094e-06
-1.2003185e-06
5.8070932e-06
-8.6053691e-07
5.8258968e-06
-5.3207017e-07
5.8272988e-06
-2.153701e-07
5.8124921e-06
8.9256102e-08
5.782515e-06
3.8154968e-07
5.738704e-06
6.6142457e-07
5.6817994e-06
9.2879152e-07
5.612953e-06
1.1836403e-06
5.5331347e-06
1.4260199e-06
5.4432759e-06
1.656028e-06
5.3442662e-06
1.8738051e-06
5.2369522e-06
2.0795284e-06
5.1221348e-06
2.2734045e-06
5.0005718e-06
4.8729777e-06
6.3504838e-08
2.9939139e-07
2.522347e-07
8.9025221e-07
5.5619121e-07
1.4363781e-06
9.5907312e-07
1.9087153e-06
1.438632e-06
2.2786368e-06
1.9685501e-06
2.5247546e-06
2.5203573e-06
2.6330576e-06
3.0651667e-06
2.5963842e-06
3.5752981e-06
2.4144188e-06
4.0256648e-06
2.0931999e-06
4.3948486e-06
1.6443173e-06
4.6658294e-06
1.0838779e-06
4.8262315e-06
4.3117281e-07
4.8682321e-06
-2.9327625e-07
4.7898649e-06
-1.0640683e-06
4.592568e-06
-1.8599668e-06
4.2816437e-06
-2.6593181e-06
3.8655197e-06
-3.4417198e-06
3.3550928e-06
-4.1889043e-06
2.7630635e-06
-4.8850581e-06
2.1033217e-06
-5.5169835e-06
1.3903739e-06
-6.0741627e-06
6.3884268e-07
-6.5487609e-06
-1.3690431e-07
-6.935566e-06
-9.2372926e-07
-7.230803e-06
-1.7084868e-06
-7.4350774e-06
-2.479808e-06
-7.5491185e-06
-3.2273281e-06
-7.5755475e-06
-3.9420305e-06
-7.5182323e-06
-4.6162438e-06
-7.3823362e-06
-5.2436147e-06
-7.1737992e-06
-5.819073e-06
-6.8991509e-06
-6.3387675e-06
-6.5653324e-06
-6.799984e-06
-6.1795111e-06
-7.2010523e-06
-5.748924e-06
-7.5412441e-06
-5.280745e-06
-7.8206726e-06
-4.7819725e-06
-8.0401869e-06
-4.259344e-06
-8.2012715e-06
-3.7192581e-06
-8.3059469e-06
-3.1677286e-06
-8.3566857e-06
-2.6103296e-06
-8.3563107e-06
-2.0521903e-06
-8.3079185e-06
-1.4979625e-06
-8.2148131e-06
-9.5180319e-07
-8.0803747e-06
-4.1736767e-07
-7.9085063e-06
1.0191784e-07
-7.7024018e-06
6.0286988e-07
-7.4656881e-06
1.0838452e-06
-7.2018587e-06
1.5427052e-06
-6.9143144e-06
1.9778388e-06
-6.6063411e-06
2.388011e-06
-6.2810886e-06
2.7723203e-06
-5.9415522e-06
3.130163e-06
-5.5905602e-06
3.4612048e-06
-5.2307658e-06
3.7653527e-06
-4.8646391e-06
4.0427272e-06
-4.4944658e-06
4.293635e-06
-4.1223463e-06
4.518543e-06
-3.7501981e-06
4.718058e-06
-3.379758e-06
4.8929034e-06
-3.0125891e-06
5.0438951e-06
-2.6500881e-06
5.1719288e-06
-2.2934877e-06
5.2779576e-06
-1.9438792e-06
5.3629814e-06
-1.6021967e-06
5.4280266e-06
-1.2692447e-06
5.4741411e-06
-9.457288e-07
5.5023813e-06
-6.3221183e-07
5.5137818e-06
-3.291631e-07
5.5094433e-06
-3.6918043e-08
5.4902701e-06
2.4429915e-07
5.4574867e-06
5.1418495e-07
5.4119135e-06
7.7263525e-07
5.3545028e-06
1.0195879e-06
5.2861823e-06
1.2550337e-06
5.2078299e-06
1.4790125e-06
5.1202875e-06
1.6916073e-06
5.0243573e-06
1.892939e-06
4.920803e-06
2.0831614e-06
4.8103493e-06
4.6936828e-06
5.274722e-08
2.4664417e-07
2.0956161e-07
7.3343782e-07
4.6243425e-07
1.1835055e-06
7.9826726e-07
1.5728823e-06
1.1991074e-06
1.8777966e-06
1.6436004e-06
2.0802616e-06
2.1084797e-06
2.1681783e-06
2.5699281e-06
2.1349359e-06
3.0048744e-06
1.9794724e-06
3.3921253e-06
1.705949e-06
3.7132746e-06
1.323168e-06
3.9533543e-06
8.4379817e-07
4.1011281e-06
2.8339892e-07
4.1490453e-06
-3.4119341e-07
4.0942086e-06
-1.0092317e-06
3.9369644e-06
-1.7027226e-06
3.6807417e-06
-2.4030954e-06
3.3318152e-06
-3.0927933e-06
2.8987049e-06
-3.755794e-06
2.391639e-06
-4.3779922e-06
1.8220485e-06
-4.947393e-06
1.2020836e-06
-5.4541978e-06
5.4416242e-07
-5.8908397e-06
-1.3947271e-07
-6.2519308e-06
-8.365116e-07
-6.5337641e-06
-1.5360759e-06
-6.735513e-06
-2.2277793e-06
-6.8574152e-06
-2.9021453e-06
-6.9011814e-06
-3.5508154e-06
-6.8695623e-06
-4.1665637e-06
-6.7665878e-06
-4.7432901e-06
-6.5970729e-06
-5.2760037e-06
-6.3664373e-06
-5.7607834e-06
-6.0805528e-06
-6.1947203e-06
-5.7455742e-06
-6.5758472e-06
-5.3677971e-06
-6.903058e-06
-4.9535343e-06
-7.1760244e-06
-4.5090061e-06
-7.3951087e-06
-4.0402598e-06
-7.5612783e-06
-3.5530885e-06
-7.6760235e-06
-3.0529835e-06
-7.7412713e-06
-2.5450819e-06
-7.7593064e-06
-2.0341552e-06
-7.732704e-06
-1.5245649e-06
-7.6642496e-06
-1.0202576e-06
-7.5568499e-06
-5.247674e-07
-7.4140011e-06
-4.0930805e-08
-7.2383134e-06
4.2718206e-07
-7.0331526e-06
8.7868448e-07
-6.80162e-06
1.3111726e-06
-6.5467798e-06
1.7229984e-06
-6.2716179e-06
2.1128493e-06
-5.9790174e-06
2.4797196e-06
-5.6717385e-06
2.822884e-06
-5.3524055e-06
3.1418719e-06
-5.0234954e-06
3.4364426e-06
-4.6873301e-06
3.7065619e-06
-4.346072e-06
3.9523768e-06
-4.0017221e-06
4.1741932e-06
-3.6561192e-06
4.3724552e-06
-3.3109429e-06
4.5477271e-06
-2.9677151e-06
4.7006673e-06
-2.6278067e-06
4.8320203e-06
-2.2924453e-06
4.9425964e-06
-1.9627138e-06
5.0332499e-06
-1.6395705e-06
5.1048835e-06
-1.3238479e-06
5.1584184e-06
-1.0162418e-06
5.1947751e-06
-7.1740111e-07
5.2149411e-06
-4.2773228e-07
5.2197745e-06
-1.4777191e-07
5.2103096e-06
1.222641e-07
5.1874509e-06
3.8205913e-07
5.1521183e-06
6.3144935e-07
5.1051126e-06
8.7031492e-07
5.0473165e-06
1.0985926e-06
4.9795524e-06
1.31627e-06
4.9026101e-06
1.5233782e-06
4.8172491e-06
1.7199886e-06
4.7241928e-06
1.9062049e-06
4.6241327e-06
4.5177254e-06
4.391232e-08
2.0273185e-07
1.7450161e-07
6.0284853e-07
3.8531669e-07
9.7269039e-07
6.6577774e-07
1.2924212e-06
1.0013268e-06
1.5422476e-06
1.374562e-06
1.7070263e-06
1.7664014e-06
1.7763389e-06
2.1571563e-06
1.744181e-06
2.5275695e-06
1.6090593e-06
2.8597377e-06
1.3737808e-06
3.1378747e-06
1.045031e-06
3.3488826e-06
6.3279029e-07
3.4826851e-06
1.4959641e-07
3.5320619e-06
-3.905702e-07
3.4938577e-06
-9.7102749e-07
3.3673842e-06
-1.576249e-06
3.1548182e-06
-2.1905294e-06
2.86075e-06
-2.7987252e-06
2.491799e-06
-3.3868431e-06
2.0561746e-06
-3.9423677e-06
1.5632595e-06
-4.454478e-06
1.023207e-06
-4.9141453e-06
4.4656574e-07
-5.3141984e-06
-1.5609704e-07
-5.6492681e-06
-7.7412223e-07
-5.915739e-06
-1.3978414e-06
-6.1117938e-06
-2.0179307e-06
-6.237326e-06
-2.6258645e-06
-6.2932476e-06
-3.2139556e-06
-6.2814711e-06
-3.7754661e-06
-6.2050775e-06
-4.3046106e-06
-6.0679283e-06
-4.7965557e-06
-5.8744922e-06
-5.2474005e-06
-5.629708e-06
-5.6541382e-06
-5.3388365e-06
-6.0146043e-06
-5.0073309e-06
-6.3274163e-06
-4.6407222e-06
-6.5919035e-06
-4.2445189e-06
-6.8080385e-06
-3.8241247e-06
-6.9763642e-06
-3.3847628e-06
-7.0979194e-06
-2.9314283e-06
-7.1741635e-06
-2.4688377e-06
-7.2069273e-06
-2.0013913e-06
-7.1983245e-06
-1.5331678e-06
-7.1507147e-06
-1.0678673e-06
-7.0666412e-06
-6.0884112e-07
-6.948617e-06
-1.5895499e-07
-6.7997676e-06
2.7833272e-07
-6.6225719e-06
7.0148884e-07
-6.4198588e-06
1.1084596e-06
-6.1943961e-06
1.4975358e-06
-5.9488912e-06
1.8673442e-06
-5.6859732e-06
2.2168017e-06
-5.4081773e-06
2.545088e-06
-5.1179278e-06
2.8516224e-06
-4.8175283e-06
3.1360432e-06
-4.5091515e-06
3.3981853e-06
-4.1948344e-06
3.6380595e-06
-3.8764733e-06
3.8558319e-06
-3.5558229e-06
4.0518049e-06
-3.2344955e-06
4.2263996e-06
-2.9139689e-06
4.3801407e-06
-2.5955783e-06
4.5136298e-06
-2.2805269e-06
4.6275447e-06
-1.9698944e-06
4.7226175e-06
-1.6646361e-06
4.7996252e-06
-1.3655898e-06
4.8593722e-06
-1.0735001e-06
4.9026853e-06
-7.8897423e-07
4.9304152e-06
-5.1259453e-07
4.9433946e-06
-2.4478249e-07
4.942498e-06
1.4178115e-08
4.9284899e-06
2.6387963e-07
4.9024167e-06
5.0414104e-07
4.8648511e-06
7.3479699e-07
4.8166606e-06
9.5573776e-07
4.7586116e-06
1.1669048e-06
4.6914432e-06
1.3682843e-06
4.6158696e-06
1.5599014e-06
4.5325756e-06
1.7418174e-06
4.442217e-06
4.34542e-06
3.662828e-08
1.6610357e-07
1.4558553e-07
4.9389128e-07
3.2164835e-07
7.9662757e-07
5.5622885e-07
1.0578407e-06
8.3746826e-07
1.2610082e-06
1.1511279e-06
1.3933667e-06
1.481505e-06
1.4459617e-06
1.8122817e-06
1.4134044e-06
2.1273574e-06
1.2939835e-06
2.4116019e-06
1.0895363e-06
2.6514936e-06
8.0513929e-07
2.8356084e-06
4.4867554e-07
2.9549473e-06
3.0257506e-08
3.0030008e-06
-4.3862371e-07
2.9761207e-06
-9.4414744e-07
2.8732238e-06
-1.4733521e-06
2.6954979e-06
-2.0128036e-06
2.4462416e-06
-2.5494689e-06
2.1305616e-06
-3.0711631e-06
1.7550263e-06
-3.5668324e-06
1.3273209e-06
-4.0267725e-06
8.5591543e-07
-4.4427398e-06
3.4975865e-07
-4.8080416e-06
-1.8198061e-07
-5.1175288e-06
-7.3043363e-07
-5.367286e-06
-1.2867236e-06
-5.5555037e-06
-1.842609e-06
-5.6814406e-06
-2.3904264e-06
-5.7454302e-06
-2.9231784e-06
-5.7487191e-06
-3.434635e-06
-5.6936209e-06
-3.919364e-06
-5.5831993e-06
-4.3727453e-06
-5.4211109e-06
-4.7909658e-06
-5.2114875e-06
-5.170997e-06
-4.9588054e-06
-5.5105588e-06
-4.6677691e-06
-5.8080744e-06
-4.3432067e-06
-6.0626163e-06
-3.989977e-06
-6.2738481e-06
-3.6128929e-06
-6.4419645e-06
-3.2166464e-06
-6.5676348e-06
-2.805758e-06
-6.651933e-06
-2.3845395e-06
-6.6962784e-06
-1.957046e-06
-6.7023952e-06
-1.5270509e-06
-6.6722282e-06
-1.0980343e-06
-6.6079158e-06
-6.7315335e-07
-6.5116836e-06
-2.5518735e-07
-6.3861989e-06
1.5284808e-07
-6.2336664e-06
5.4895622e-07
-6.0565946e-06
9.3138776e-07
-5.8574593e-06
1.2984004e-06
-5.6387023e-06
1.6485873e-06
-5.4027129e-06
1.9808123e-06
-5.1518092e-06
2.2941843e-06
-4.8882237e-06
2.5880368e-06
-4.6140897e-06
2.8619093e-06
-4.331433e-06
3.1155284e-06
-4.0421634e-06
3.3487899e-06
-3.7480709e-06
3.5617395e-06
-3.4508221e-06
3.7545561e-06
-3.1519593e-06
3.927537e-06
-2.8529e-06
4.0810812e-06
-2.5549425e-06
4.2156722e-06
-2.2592619e-06
4.3318642e-06
-1.96692e-06
4.4302756e-06
-1.6788661e-06
4.5115714e-06
-1.3959448e-06
4.5764507e-06
-1.1188992e-06
4.6256396e-06
-8.4837197e-07
4.659888e-06
-5.8493077e-07
4.6799536e-06
-3.2904313e-07
4.6866102e-06
-8.1143331e-08
4.6805904e-06
1.5854483e-07
4.6627286e-06
3.896712e-07
4.6337249e-06
6.1205382e-07
4.594278e-06
8.2554745e-07
4.5451178e-06
1.0300534e-06
4.4869373e-06
1.2255175e-06
4.4204056e-06
1.4119249e-06
4.346168e-06
1.5892968e-06
4.2648453e-06
4.1770316e-06
3.0601624e-08
1.3550195e-07
1.2165317e-07
4.0283973e-07
2.6890464e-07
6.493761e-07
4.6535287e-07
8.6139249e-07
7.0129671e-07
1.0250643e-06
9.6504155e-07
1.1296219e-06
1.2436227e-06
1.1673806e-06
1.523481e-06
1.133546e-06
1.7911336e-06
1.026331e-06
2.0337891e-06
8.4688084e-07
2.2398782e-06
5.9905007e-07
2.3994746e-06
2.8907918e-07
2.5046474e-06
-7.4915234e-08
2.549205e-06
-4.8318137e-07
2.5298448e-06
-9.2478719e-07
2.4449861e-06
-1.3884934e-06
2.2950904e-06
-1.8629079e-06
2.0824832e-06
-2.3368617e-06
1.8110792e-06
-2.7997592e-06
1.4861185e-06
-3.2418717e-06
1.1138813e-06
-3.6545353e-06
7.0142047e-07
-4.0302789e-06
2.5629243e-07
-4.3629137e-06
-2.1366085e-07
-4.6475755e-06
-7.0072765e-07
-4.8802192e-06
-1.1970759e-06
-5.0591555e-06
-1.6954854e-06
-5.1830311e-06
-2.1890517e-06
-5.2518639e-06
-2.6714288e-06
-5.266342e-06
-3.1368935e-06
-5.2281561e-06
-3.5803871e-06
-5.1397057e-06
-3.9975388e-06
-5.0039592e-06
-4.3846726e-06
-4.8243537e-06
-4.7387963e-06
-4.6046815e-06
-5.0575799e-06
-4.3489856e-06
-5.3393208e-06
-4.0614659e-06
-5.5829044e-06
-3.7463933e-06
-5.7877578e-06
-3.4080395e-06
-5.9537991e-06
-3.0506052e-06
-6.0813852e-06
-2.6781719e-06
-6.1712637e-06
-2.294661e-06
-6.2245152e-06
-1.9037946e-06
-6.2425133e-06
-1.5090527e-06
-6.2268585e-06
-1.113689e-06
-6.1793486e-06
-7.2066342e-07
-6.1018878e-06
-3.3264803e-07
-5.9967967e-06
4.7757169e-08
-5.8659696e-06
4.1812894e-07
-5.7116575e-06
7.7707579e-07
-5.5360651e-06
1.122808e-06
-5.3413843e-06
1.4539067e-06
-5.129778e-06
1.7692058e-06
-4.9033582e-06
2.0677646e-06
-4.6641724e-06
2.3488512e-06
-4.4141903e-06
2.6119271e-06
-4.1552929e-06
2.8566309e-06
-3.8892643e-06
3.0827614e-06
-3.6177871e-06
3.2902621e-06
-3.3424366e-06
3.4792057e-06
-3.0646822e-06
3.6497826e-06
-2.7858808e-06
3.8022798e-06
-2.5072808e-06
3.9370724e-06
-2.2300262e-06
4.0546096e-06
-1.955153e-06
4.1554025e-06
-1.6835987e-06
4.2400171e-06
-1.4162009e-06
4.309053e-06
-1.1537072e-06
4.3631459e-06
-8.9677394e-07
4.402955e-06
-6.4598628e-07
4.429166e-06
-4.0181056e-07
4.4424343e-06
-1.6471288e-07
4.4434928e-06
6.5038308e-08
4.4329774e-06
2.8705428e-07
4.4117088e-06
5.0115099e-07
4.3801813e-06
7.0713944e-07
4.3391293e-06
9.0488498e-07
4.2891917e-06
1.0942979e-06
4.2309927e-06
1.2753282e-06
4.1651377e-06
1.4479615e-06
4.0922119e-06
4.0127784e-06
2.5598983e-08
1.0990297e-07
1.017814e-07
3.2665731e-07
2.250738e-07
5.2608371e-07
3.8974083e-07
6.9672546e-07
5.878147e-07
8.2699046e-07
8.09655e-07
9.0778161e-07
1.0445257e-06
9.3250994e-07
1.2811325e-06
8.9693918e-07
1.5081637e-06
7.9929976e-07
1.7147956e-06
6.4024897e-07
1.8911344e-06
4.227113e-07
2.0285797e-06
1.5163386e-07
2.1200406e-06
-1.6637618e-07
2.160151e-06
-5.2329171e-07
2.1454894e-06
-9.1012554e-07
2.0743243e-06
-1.3173283e-06
1.9466553e-06
-1.735239e-06
1.7640546e-06
-2.1542609e-06
1.5294969e-06
-2.5652014e-06
1.247145e-06
-2.9595197e-06
9.221232e-07
-3.3295136e-06
5.6028802e-07
-3.6684438e-06
1.6800414e-07
-3.9706297e-06
-2.4805316e-07
-4.2315182e-06
-6.8101637e-07
-4.447256e-06
-1.1242626e-06
-4.6159093e-06
-1.5713179e-06
-4.7359758e-06
-2.0160449e-06
-4.8071369e-06
-2.4527038e-06
-4.8296831e-06
-2.876065e-06
-4.8047948e-06
-3.2814503e-06
-4.7343204e-06
-3.6647603e-06
-4.6206491e-06
-4.0224902e-06
-4.4666239e-06
-4.3517287e-06
-4.2754432e-06
-4.6501451e-06
-4.0505691e-06
-4.9159679e-06
-3.7956431e-06
-5.1479534e-06
-3.5144078e-06
-5.3453503e-06
-3.2106426e-06
-5.5078574e-06
-2.888098e-06
-5.6355803e-06
-2.550449e-06
-5.7289955e-06
-2.2012458e-06
-5.7888991e-06
-1.8438911e-06
-5.8163565e-06
-1.4815953e-06
-5.8126773e-06
-1.1173684e-06
-5.7793473e-06
-7.5399341e-07
-5.7179902e-06
-3.9400499e-07
-5.6306525e-06
-3.9580703e-08
-5.5188745e-06
3.0635086e-07
-5.3847235e-06
6.4292482e-07
-5.2301431e-06
9.6822759e-07
-5.0570945e-06
1.280858e-06
-4.8675266e-06
1.5796381e-06
-4.6633589e-06
1.8635967e-06
-4.4464628e-06
2.1319551e-06
-4.2186502e-06
2.3841147e-06
-3.9816622e-06
2.6196427e-06
-3.7371595e-06
2.8382588e-06
-3.4867172e-06
3.0398199e-06
-3.2318213e-06
3.2243095e-06
-2.9738602e-06
3.3918218e-06
-2.7141296e-06
3.542549e-06
-2.4538277e-06
3.6767703e-06
-2.1940582e-06
3.7948399e-06
-1.9358268e-06
3.8971715e-06
-1.6800518e-06
3.984242e-06
-1.4275621e-06
4.0565631e-06
-1.1791008e-06
4.1146847e-06
-9.3532938e-07
4.1591834e-06
-6.9680954e-07
4.1906462e-06
-4.6410392e-07
4.2097288e-06
-2.3759356e-07
4.2169823e-06
-1.7691252e-08
4.2130751e-06
1.9534589e-07
4.1986715e-06
4.0119923e-07
4.174328e-06
5.9967175e-07
4.1406566e-06
7.9060348e-07
4.0982604e-06
9.7387483e-07
4.0477211e-06
1.1494056e-06
3.9896074e-06
1.3171491e-06
3.9244684e-06
3.8528355e-06
2.1434199e-08
8.8468768e-08
8.5233308e-08
2.6285821e-07
1.8854618e-07
4.2277082e-07
3.2665674e-07
5.586149e-07
4.9299651e-07
6.6065068e-07
6.7959233e-07
7.2118579e-07
8.7752646e-07
7.345758e-07
1.0773683e-06
6.9709732e-07
1.2696125e-06
6.070556e-07
1.445092e-06
4.6476943e-07
1.5953459e-06
2.7245738e-07
1.7129249e-06
3.4054846e-08
1.7916035e-06
-2.4505469e-07
1.8265776e-06
-5.5826587e-07
1.8145707e-06
-8.9811864e-07
1.7538045e-06
-1.2565621e-06
1.6439226e-06
-1.6253571e-06
1.4859417e-06
-1.9962799e-06
1.2821005e-06
-2.3613603e-06
1.0356987e-06
-2.7131178e-06
7.5090712e-07
-3.044722e-06
4.3258885e-07
-3.3501255e-06
8.6097931e-08
-3.6241388e-06
-2.8283366e-07
-3.8625866e-06
-6.6826676e-07
-4.0618229e-06
-1.0645169e-06
-4.2196592e-06
-1.465789e-06
-4.3347037e-06
-1.8666387e-06
-4.4062872e-06
-2.2619102e-06
-4.4344116e-06
-2.6468483e-06
-4.4198567e-06
-3.0171514e-06
-4.3640175e-06
-3.3690026e-06
-4.2687978e-06
-3.6990911e-06
-4.1365355e-06
-4.0046177e-06
-3.9699165e-06
-4.2832911e-06
-3.7718957e-06
-4.5333146e-06
-3.5456195e-06
-4.7533616e-06
-3.2943608e-06
-4.9425513e-06
-3.0214529e-06
-5.1004147e-06
-2.7302348e-06
-5.226859e-06
-2.4240046e-06
-5.322136e-06
-2.1059686e-06
-5.3867962e-06
-1.779231e-06
-5.4216555e-06
-1.4467359e-06
-5.4277614e-06
-1.1112624e-06
-5.4063486e-06
-7.7540621e-07
-5.3588125e-06
-4.4154106e-07
-5.2866771e-06
-1.1171604e-07
-5.191658e-06
2.1133184e-07
-5.0753461e-06
5.2661299e-07
-4.9394889e-06
8.3237024e-07
-4.7858426e-06
1.1272117e-06
-4.6161621e-06
1.4099576e-06
-4.4321854e-06
1.6796199e-06
-4.2356188e-06
1.9353885e-06
-4.0281236e-06
2.1766195e-06
-3.811306e-06
2.4028252e-06
-3.5867072e-06
2.6136599e-06
-3.3557971e-06
2.8089098e-06
-3.1199696e-06
2.988482e-06
-2.8805363e-06
3.1523884e-06
-2.638726e-06
3.3007389e-06
-2.3956825e-06
3.4337269e-06
-2.1524653e-06
3.5516227e-06
-1.9100552e-06
3.6547614e-06
-1.669336e-06
3.7435226e-06
-1.4311226e-06
3.8183498e-06
-1.1961491e-06
3.8797109e-06
-9.6507384e-07
3.9281084e-06
-7.384963e-07
3.9640686e-06
-5.1687621e-07
3.9881086e-06
-3.0073961e-07
4.0008457e-06
-9.0437487e-08
4.0027728e-06
1.1369079e-07
3.9945434e-06
3.1136315e-07
3.9766558e-06
5.0234578e-07
3.9496741e-06
6.864503e-07
3.9141556e-06
8.6353068e-07
3.870641e-06
1.0334785e-06
3.8196594e-06
1.1962211e-06
3.7617258e-06
3.6973403e-06
1.7957373e-08
7.0511395e-08
7.1415271e-08
2.0940031e-07
1.580246e-07
3.3616149e-07
2.7389308e-07
4.4274644e-07
4.1358647e-07
5.2095729e-07
5.7048923e-07
5.6428303e-07
7.3717368e-07
5.6789137e-07
9.0574731e-07
5.2852366e-07
1.0682076e-06
4.4459531e-07
1.2167828e-06
3.1619423e-07
1.3442385e-06
1.4500164e-07
1.444123e-06
-6.5829661e-08
1.5110115e-06
-3.1194319e-07
1.540601e-06
-5.8785528e-07
1.5298278e-06
-8.8734549e-07
1.4769152e-06
-1.2036496e-06
1.3812957e-06
-1.5297375e-06
1.2435628e-06
-1.858547e-06
1.0653852e-06
-2.1831827e-06
8.4936701e-07
-2.4970996e-06
5.9890391e-07
-2.7942589e-06
3.1803279e-07
-3.0692544e-06
1.1253223e-08
-3.3173593e-06
-3.1650828e-07
-3.5348251e-06
-6.6027427e-07
-3.7180568e-06
-1.014889e-06
-3.8650445e-06
-1.3753725e-06
-3.9742202e-06
-1.7368629e-06
-4.0447968e-06
-2.0947418e-06
-4.0765328e-06
-2.4447049e-06
-4.0698936e-06
-2.782816e-06
-4.0259064e-06
-3.1055426e-06
-3.9460712e-06
-3.4097805e-06
-3.8322976e-06
-3.6928649e-06
-3.6868322e-06
-3.9525726e-06
-3.5121879e-06
-4.1871144e-06
-3.3110777e-06
-4.3951209e-06
-3.0863544e-06
-4.5756239e-06
-2.8409498e-06
-4.7280259e-06
-2.5778326e-06
-4.8520847e-06
-2.299946e-06
-4.9478582e-06
-2.0101951e-06
-5.0157013e-06
-1.7113879e-06
-5.0562169e-06
-1.4062202e-06
-5.0702254e-06
-1.0972539e-06
-5.058737e-06
-7.8689453e-07
-5.0229177e-06
-4.7736029e-07
-4.963996e-06
-1.7063787e-07
-4.8835871e-06
1.3092286e-07
-4.7830038e-06
4.2602959e-07
-4.6637934e-06
7.1315996e-07
-4.5275195e-06
9.9093776e-07
-4.3757565e-06
1.2581945e-06
-4.2100735e-06
1.513937e-06
-4.0320211e-06
1.7573361e-06
-3.8431187e-06
1.9877171e-06
-3.6448431e-06
2.2045496e-06
-3.4386203e-06
2.407437e-06
-3.2258176e-06
2.5961073e-06
-3.0077379e-06
2.7704023e-06
-2.7856173e-06
2.9302677e-06
-2.5606153e-06
3.0757368e-06
-2.3338225e-06
3.2069341e-06
-2.1062511e-06
3.3240512e-06
-1.8788367e-06
3.4273469e-06
-1.6524518e-06
3.5171376e-06
-1.4278787e-06
3.5937769e-06
-1.2058404e-06
3.6576726e-06
-9.8698613e-07
3.709254e-06
-7.7190135e-07
3.7489839e-06
-5.6111664e-07
3.7773241e-06
-3.5506858e-07
3.7947978e-06
-1.5419698e-07
3.8019012e-06
4.124093e-08
3.7991055e-06
2.308441e-07
3.7870526e-06
4.144012e-07
3.7661169e-06
5.9170215e-07
3.7368546e-06
7.6257749e-07
3.6997654e-06
9.2689686e-07
3.6553403e-06
1.0845623e-06
3.60406e-06
3.5463941e-06
1.5048105e-08
5.546329e-08
5.9849683e-08
1.6459873e-07
1.3246212e-07
2.6354905e-07
2.2966177e-07
3.4554677e-07
3.4693827e-07
4.036808e-07
4.7878587e-07
4.324354e-07
6.1900141e-07
4.2767585e-07
7.6096503e-07
3.8656006e-07
8.9792912e-07
3.0763123e-07
1.023297e-06
1.9082636e-07
1.1308772e-06
3.7421408e-08
1.2151113e-06
-1.5006369e-07
1.2712446e-06
-3.6807654e-07
1.2954557e-06
-6.1206635e-07
1.2849428e-06
-8.7683262e-07
1.2379571e-06
-1.1566639e-06
1.1538019e-06
-1.4455824e-06
1.0327699e-06
-1.7375149e-06
8.7608482e-07
-2.0264977e-06
6.8579863e-07
-2.3068134e-06
4.6467369e-07
-2.573134e-06
2.1606944e-07
-2.8206502e-06
-5.6163559e-08
-3.0451262e-06
-3.4810115e-07
-3.2428876e-06
-6.5519616e-07
-3.4109619e-06
-9.7301808e-07
-3.5472225e-06
-1.2971862e-06
-3.650052e-06
-1.6234113e-06
-3.7185718e-06
-1.9475632e-06
-3.7523808e-06
-2.2657583e-06
-3.7516984e-06
-2.5744099e-06
-3.7172547e-06
-2.8702652e-06
-3.6502158e-06
-3.150432e-06
-3.5521309e-06
-3.4123933e-06
-3.4248707e-06
-3.6540156e-06
-3.2705657e-06
-3.8735447e-06
-3.0915486e-06
-4.0696e-06
-2.8902991e-06
-4.2411554e-06
-2.6693945e-06
-4.3875258e-06
-2.4314621e-06
-4.5083395e-06
-2.1791323e-06
-4.6035152e-06
-1.9150194e-06
-4.6732414e-06
-1.6416618e-06
-4.7179359e-06
-1.3615257e-06
-4.7382345e-06
-1.0769554e-06
-4.7349448e-06
-7.9018426e-07
-4.7090269e-06
-5.0327812e-07
-4.6615414e-06
-2.1812341e-07
-4.5938516e-06
6.3233e-08
-4.5071025e-06
3.3928062e-07
-4.4026631e-06
6.0872054e-07
-4.2819183e-06
8.7019304e-07
-4.146274e-06
1.1225501e-06
-3.9971424e-06
1.3648055e-06
-3.8359283e-06
1.5961223e-06
-3.6640173e-06
1.8158058e-06