/*--------------------------------*- C++ -*----------------------------------*\
| =========                 |                                                 |
| \\      /  F ield         | OpenFOAM: The Open Source CFD Toolbox           |
|  \\    /   O peration     | Version:  2306                                  |
|   \\  /    A nd           | Website:  www.openfoam.com                      |
|    \\/     M anipulation  |                                                 |
\*---------------------------------------------------------------------------*/
FoamFile
{
    version     2.0;
    format      ascii;
    arch        "LSB;label=32;scalar=64";
    class       surfaceScalarField;
    location    "0.23";
    object      phi_0;
}
// * * * * * * * * * * * * * * * * * * * * * * * * * * * * * * * * * * * * * //

dimensions      [0 3 -1 0 0 0 0];

oriented        oriented;

internalField   nonuniform List<scalar> 
12640
(
-2.4525024e-06
-1.9789204e-09
-2.4492082e-06
-3.2942345e-09
-2.444611e-06
-4.5971981e-09
-2.4387346e-06
-5.8763757e-09
-2.4316068e-06
-7.1278063e-09
-2.4232566e-06
-8.3501715e-09
-2.4137136e-06
-9.543e-09
-2.4030075e-06
-1.0706073e-08
-2.3911683e-06
-1.1839281e-08
-2.3782257e-06
-1.2942581e-08
-2.3642097e-06
-1.4015996e-08
-2.3491501e-06
-1.5059597e-08
-2.3330766e-06
-1.6073515e-08
-2.3160186e-06
-1.7057979e-08
-2.2980054e-06
-1.8013229e-08
-2.2790658e-06
-1.8939585e-08
-2.2592284e-06
-1.9837431e-08
-2.2385212e-06
-2.0707152e-08
-2.216972e-06
-2.1549241e-08
-2.1946078e-06
-2.2364191e-08
-2.1714552e-06
-2.3152537e-08
-2.1475404e-06
-2.3914859e-08
-2.1228886e-06
-2.4651742e-08
-2.0975248e-06
-2.5363836e-08
-2.071473e-06
-2.6051777e-08
-2.0447567e-06
-2.6716244e-08
-2.0173988e-06
-2.7357919e-08
-1.9894213e-06
-2.797749e-08
-1.9608456e-06
-2.85757e-08
-1.9316924e-06
-2.9153246e-08
-1.9019815e-06
-2.9710843e-08
-1.8717323e-06
-3.0249225e-08
-1.8409632e-06
-3.0769149e-08
-1.8096919e-06
-3.1271307e-08
-1.7779354e-06
-3.1756443e-08
-1.7457101e-06
-3.2225302e-08
-1.7130315e-06
-3.2678574e-08
-1.6799145e-06
-3.3117001e-08
-1.6463733e-06
-3.354126e-08
-1.6124212e-06
-3.3952083e-08
-1.5780711e-06
-3.4350128e-08
-1.543335e-06
-3.4736103e-08
-1.5082243e-06
-3.511063e-08
-1.4727499e-06
-3.5474415e-08
-1.4369219e-06
-3.5828071e-08
-1.4007496e-06
-3.6172229e-08
-1.3642421e-06
-3.6507514e-08
-1.3274076e-06
-3.6834521e-08
-1.2902538e-06
-3.7153834e-08
-1.2527877e-06
-3.7466027e-08
-1.2150161e-06
-3.7771653e-08
-1.1769448e-06
-3.807123e-08
-1.1385795e-06
-3.8365349e-08
-1.099925e-06
-3.8654463e-08
-1.060986e-06
-3.8939047e-08
-1.0217664e-06
-3.9219629e-08
-9.8226973e-07
-3.9496638e-08
-9.4249922e-07
-3.9770501e-08
-9.0245755e-07
-4.0041694e-08
-8.6214699e-07
-4.0310569e-08
-8.2156946e-07
-4.057753e-08
-7.8072649e-07
-4.0842936e-08
-7.3961932e-07
-4.110719e-08
-6.982488e-07
-4.137053e-08
-6.5661553e-07
-4.1633274e-08
-6.1471982e-07
-4.1895699e-08
-5.7256182e-07
-4.2157994e-08
-5.3014155e-07
-4.2420264e-08
-4.874591e-07
-4.2682446e-08
-4.4451488e-07
-4.2944225e-08
-4.0131022e-07
-4.3204657e-08
-3.5784875e-07
-4.3461483e-08
-3.1413909e-07
-4.3709647e-08
-2.7020106e-07
-4.3938027e-08
-2.2607732e-07
-4.412373e-08
-1.8185122e-07
-4.4226111e-08
-1.3764852e-07
-4.4202699e-08
-9.3516863e-08
-4.4131652e-08
-4.8730849e-08
-4.478601e-08
-4.873086e-08
-5.3558301e-06
-8.6275564e-09
-5.3463209e-06
-1.280339e-08
-5.3340326e-06
-1.6885483e-08
-5.3190336e-06
-2.0875394e-08
-5.3013884e-06
-2.477298e-08
-5.2811611e-06
-2.8577487e-08
-5.2584159e-06
-3.228821e-08
-5.2332174e-06
-3.5904547e-08
-5.2056305e-06
-3.9426194e-08
-5.1757201e-06
-4.2853061e-08
-5.1435508e-06
-4.6185286e-08
-5.1091871e-06
-4.9423236e-08
-5.0726932e-06
-5.2567474e-08
-5.0341324e-06
-5.5618778e-08
-4.9935675e-06
-5.8578079e-08
-4.9510606e-06
-6.1446517e-08
-4.9066726e-06
-6.4225384e-08
-4.8604637e-06
-6.691609e-08
-4.8124928e-06
-6.9520186e-08
-4.7628176e-06
-7.2039389e-08
-4.7114947e-06
-7.4475461e-08
-4.6585792e-06
-7.6830272e-08
-4.6041252e-06
-7.9105824e-08
-4.5481849e-06
-8.1304133e-08
-4.4908093e-06
-8.3427326e-08
-4.4320481e-06
-8.5477504e-08
-4.3719491e-06
-8.7456928e-08
-4.3105588e-06
-8.93678e-08
-4.247922e-06
-9.1212423e-08
-4.1840822e-06
-9.2993074e-08
-4.119081e-06
-9.4712018e-08
-4.0529587e-06
-9.6371593e-08
-3.9857537e-06
-9.7974101e-08
-3.9175032e-06
-9.9521833e-08
-3.8482425e-06
-1.0101712e-07
-3.7780055e-06
-1.0246222e-07
-3.7068247e-06
-1.0385939e-07
-3.6347309e-06
-1.0521088e-07
-3.5617532e-06
-1.0651892e-07
-3.4879196e-06
-1.0778566e-07
-3.4132564e-06
-1.0901329e-07
-3.3377886e-06
-1.1020392e-07
-3.2615396e-06
-1.1135961e-07
-3.1845316e-06
-1.1248242e-07
-3.1067853e-06
-1.1357435e-07
-3.0283202e-06
-1.1463738e-07
-2.9491543e-06
-1.156734e-07
-2.8693045e-06
-1.1668427e-07
-2.7887865e-06
-1.1767185e-07
-2.7076146e-06
-1.186379e-07
-2.6258022e-06
-1.1958412e-07
-2.5433612e-06
-1.2051223e-07
-2.4603027e-06
-1.2142382e-07
-2.3766366e-06
-1.2232051e-07
-2.2923719e-06
-1.2320381e-07
-2.2075163e-06
-1.240752e-07
-2.1220769e-06
-1.2493609e-07
-2.0360595e-06
-1.2578783e-07
-1.9494694e-06
-1.2663181e-07
-1.8623107e-06
-1.2746923e-07
-1.7745869e-06
-1.2830135e-07
-1.6863006e-06
-1.2912925e-07
-1.5974538e-06
-1.2995402e-07
-1.5080476e-06
-1.3077672e-07
-1.4180826e-06
-1.3159822e-07
-1.327559e-06
-1.3241935e-07
-1.2364762e-06
-1.3324081e-07
-1.1448334e-06
-1.3406304e-07
-1.0526297e-06
-1.348862e-07
-9.5986412e-07
-1.3570979e-07
-8.6653637e-07
-1.3653237e-07
-7.7264739e-07
-1.3735049e-07
-6.782002e-07
-1.3815685e-07
-5.8320077e-07
-1.3893746e-07
-4.8765648e-07
-1.3966803e-07
-3.91566e-07
-1.4031657e-07
-2.9488243e-07
-1.4088629e-07
-1.9742956e-07
-1.4158452e-07
-9.896466e-08
-1.4325093e-07
-1.476955e-07
-6.8334186e-06
-1.8500838e-08
-6.8199718e-06
-2.6250197e-08
-6.8030314e-06
-3.3825921e-08
-6.7826781e-06
-4.1228687e-08
-6.7589935e-06
-4.8457587e-08
-6.7320597e-06
-5.551128e-08
-6.7019593e-06
-6.2388581e-08
-6.6687753e-06
-6.90886e-08
-6.6325906e-06
-7.561089e-08
-6.5934882e-06
-8.1955479e-08
-6.5515507e-06
-8.8122784e-08
-6.5068603e-06
-9.411365e-08
-6.4594984e-06
-9.9929325e-08
-6.4095458e-06
-1.0557137e-07
-6.3570821e-06
-1.1104175e-07
-6.302186e-06
-1.1634268e-07
-6.2449346e-06
-1.2147672e-07
-6.1854041e-06
-1.2644661e-07
-6.1236689e-06
-1.3125542e-07
-6.0598019e-06
-1.3590634e-07
-5.9938746e-06
-1.4040283e-07
-5.9259564e-06
-1.4474847e-07
-5.8561152e-06
-1.4894703e-07
-5.784417e-06
-1.5300234e-07
-5.7109259e-06
-1.5691842e-07
-5.6357041e-06
-1.6069927e-07
-5.5588119e-06
-1.6434913e-07
-5.4803075e-06
-1.6787215e-07
-5.4002473e-06
-1.7127265e-07
-5.3186855e-06
-1.7455488e-07
-5.2356744e-06
-1.7772311e-07
-5.1512643e-06
-1.807817e-07
-5.0655035e-06
-1.8373496e-07
-4.9784381e-06
-1.8658722e-07
-4.8901125e-06
-1.8934273e-07
-4.800569e-06
-1.9200572e-07
-4.7098479e-06
-1.9458049e-07
-4.6179876e-06
-1.9707115e-07
-4.5250247e-06
-1.9948182e-07
-4.4309938e-06
-2.018166e-07
-4.3359276e-06
-2.0407948e-07
-4.2398572e-06
-2.0627438e-07
-4.1428116e-06
-2.0840516e-07
-4.0448184e-06
-2.1047563e-07
-3.9459032e-06
-2.1248951e-07
-3.8460902e-06
-2.1445045e-07
-3.7454016e-06
-2.1636196e-07
-3.6438583e-06
-2.1822756e-07
-3.5414796e-06
-2.2005058e-07
-3.4382831e-06
-2.2183433e-07
-3.3342852e-06
-2.23582e-07
-3.2295007e-06
-2.2529671e-07
-3.1239431e-06
-2.2698151e-07
-3.0176243e-06
-2.2863927e-07
-2.9105553e-06
-2.3027282e-07
-2.8027455e-06
-2.3188496e-07
-2.6942033e-06
-2.334783e-07
-2.5849359e-06
-2.3505529e-07
-2.4749492e-06
-2.366185e-07
-2.3642482e-06
-2.3817022e-07
-2.2528368e-06
-2.3971267e-07
-2.1407181e-06
-2.4124801e-07
-2.0278939e-06
-2.427782e-07
-1.9143655e-06
-2.4430519e-07
-1.800133e-06
-2.4583066e-07
-1.6851962e-06
-2.4735619e-07
-1.5695538e-06
-2.488832e-07
-1.4532042e-06
-2.5041267e-07
-1.3361451e-06
-2.5194525e-07
-1.218374e-06
-2.5348091e-07
-1.0998879e-06
-2.5501844e-07
-9.8068345e-07
-2.5655493e-07
-8.6075599e-07
-2.580843e-07
-7.4009731e-07
-2.5959612e-07
-6.1868892e-07
-2.6107642e-07
-4.9648947e-07
-2.6251603e-07
-3.7342212e-07
-2.6395366e-07
-2.4940964e-07
-2.65597e-07
-1.2459852e-07
-2.6806204e-07
-2.7229404e-07
-7.4964037e-06
-3.016856e-08
-7.4808369e-06
-4.1816981e-08
-7.4614607e-06
-5.3202171e-08
-7.4383648e-06
-6.4324513e-08
-7.4116398e-06
-7.5182581e-08
-7.3813766e-06
-8.5774501e-08
-7.3476665e-06
-9.6098695e-08
-7.310601e-06
-1.061541e-07
-7.2702716e-06
-1.1594028e-07
-7.2267696e-06
-1.2545749e-07
-7.1801858e-06
-1.3470655e-07
-7.1306105e-06
-1.4368895e-07
-7.0781331e-06
-1.5240672e-07
-7.0228421e-06
-1.6086243e-07
-6.9648246e-06
-1.6905917e-07
-6.9041669e-06
-1.7700043e-07
-6.8409534e-06
-1.8469022e-07
-6.7752672e-06
-1.9213279e-07
-6.7071897e-06
-1.9933289e-07
-6.6368006e-06
-2.0629545e-07
-6.5641777e-06
-2.1302573e-07
-6.4893969e-06
-2.1952928e-07
-6.4125322e-06
-2.2581179e-07
-6.3336554e-06
-2.3187914e-07
-6.2528363e-06
-2.3773743e-07
-6.1701428e-06
-2.4339283e-07
-6.0856403e-06
-2.4885163e-07
-5.9993922e-06
-2.5412026e-07
-5.9114597e-06
-2.5920514e-07
-5.8219018e-06
-2.6411277e-07
-5.7307752e-06
-2.6884966e-07
-5.6381346e-06
-2.7342234e-07
-5.5440323e-06
-2.7783731e-07
-5.4485184e-06
-2.8210109e-07
-5.351641e-06
-2.8622014e-07
-5.2534458e-06
-2.9020087e-07
-5.1539767e-06
-2.9404964e-07
-5.0532751e-06
-2.9777272e-07
-4.9513806e-06
-3.0137633e-07
-4.8483306e-06
-3.0486656e-07
-4.7441607e-06
-3.0824947e-07
-4.6389041e-06
-3.1153095e-07
-4.5325924e-06
-3.1471683e-07
-4.4252552e-06
-3.178128e-07
-4.3169203e-06
-3.2082446e-07
-4.2076135e-06
-3.2375725e-07
-4.0973589e-06
-3.2661653e-07
-3.986179e-06
-3.294075e-07
-3.8740943e-06
-3.321352e-07
-3.761124e-06
-3.3480464e-07
-3.6472855e-06
-3.3742052e-07
-3.5325946e-06
-3.3998761e-07
-3.4170657e-06
-3.4251038e-07
-3.3007117e-06
-3.4499325e-07
-3.1835441e-06
-3.4744047e-07
-3.065573e-06
-3.4985611e-07
-2.9468071e-06
-3.5224416e-07
-2.827254e-06
-3.5460838e-07
-2.70692e-06
-3.5695251e-07
-2.5858102e-06
-3.5928001e-07
-2.4639286e-06
-3.615943e-07
-2.3412781e-06
-3.6389852e-07
-2.2178606e-06
-3.661957e-07
-2.093677e-06
-3.6848878e-07
-1.9687273e-06
-3.7078036e-07
-1.8430106e-06
-3.7307288e-07
-1.7165253e-06
-3.7536852e-07
-1.5892688e-06
-3.7766911e-07
-1.461238e-06
-3.7997605e-07
-1.3324288e-06
-3.8229015e-07
-1.2028359e-06
-3.8461131e-07
-1.0724527e-06
-3.869382e-07
-9.4126903e-07
-3.8926795e-07
-8.09269e-07
-3.9159616e-07
-6.7642601e-07
-3.9391942e-07
-5.4269714e-07
-3.9624489e-07
-4.0802963e-07
-3.9862115e-07
-2.7242233e-07
-4.0120427e-07
-1.361303e-07
-4.0435408e-07
-4.0842433e-07
-7.7675413e-06
-4.2897485e-08
-7.7507947e-06
-5.8563622e-08
-7.7301191e-06
-7.3877836e-08
-7.7056065e-06
-8.8837125e-08
-7.6773507e-06
-1.0343833e-07
-7.6454465e-06
-1.1767867e-07
-7.6099891e-06
-1.315561e-07
-7.5710738e-06
-1.4506938e-07
-7.528796e-06
-1.5821815e-07
-7.4832505e-06
-1.7100295e-07
-7.4345319e-06
-1.8342515e-07
-7.3827339e-06
-1.9548693e-07
-7.3279494e-06
-2.0719126e-07
-7.2702701e-06
-2.1854175e-07
-7.2097865e-06
-2.2954275e-07
-7.1465878e-06
-2.4019917e-07
-7.0807615e-06
-2.5051646e-07
-7.0123937e-06
-2.6050059e-07
-6.9415686e-06
-2.7015801e-07
-6.8683685e-06
-2.7949554e-07
-6.7928739e-06
-2.8852038e-07
-6.7151632e-06
-2.9723999e-07
-6.6353128e-06
-3.0566222e-07
-6.5533968e-06
-3.1379509e-07
-6.4694874e-06
-3.2164687e-07
-6.3836543e-06
-3.292259e-07
-6.2959652e-06
-3.3654077e-07
-6.2064853e-06
-3.4360013e-07
-6.1152777e-06
-3.5041272e-07
-6.0224032e-06
-3.5698732e-07
-5.9279201e-06
-3.6333273e-07
-5.8318846e-06
-3.694578e-07
-5.7343506e-06
-3.7537132e-07
-5.6353697e-06
-3.8108204e-07
-5.5349911e-06
-3.8659872e-07
-5.433262e-06
-3.9192997e-07
-5.3302272e-06
-3.9708438e-07
-5.2259295e-06
-4.0207044e-07
-5.1204094e-06
-4.0689648e-07
-5.0137052e-06
-4.1157074e-07
-4.9058533e-06
-4.1610137e-07
-4.7968879e-06
-4.204963e-07
-4.6868414e-06
-4.2476335e-07
-4.575744e-06
-4.2891021e-07
-4.4636241e-06
-4.3294441e-07
-4.350508e-06
-4.3687327e-07
-4.2364206e-06
-4.40704e-07
-4.1213845e-06
-4.4444358e-07
-4.0054209e-06
-4.4809878e-07
-3.8885492e-06
-4.516763e-07
-3.7707871e-06
-4.5518263e-07
-3.6521508e-06
-4.5862396e-07
-3.5326547e-06
-4.6200646e-07
-3.412312e-06
-4.6533597e-07
-3.2911343e-06
-4.6861821e-07
-3.1691317e-06
-4.7185872e-07
-3.046313e-06
-4.7506277e-07
-2.9226859e-06
-4.7823553e-07
-2.7982564e-06
-4.8138193e-07
-2.6730298e-06
-4.8450669e-07
-2.5470097e-06
-4.8761434e-07
-2.4201991e-06
-4.9070917e-07
-2.2925994e-06
-4.9379536e-07
-2.1642116e-06
-4.9687667e-07
-2.0350351e-06
-4.9995685e-07
-1.9050687e-06
-5.0303921e-07
-1.7743104e-06
-5.0612686e-07
-1.642757e-06
-5.0922252e-07
-1.5104044e-06
-5.123286e-07
-1.3772477e-06
-5.1544692e-07
-1.2432801e-06
-5.1857882e-07
-1.1084933e-06
-5.2172507e-07
-9.7287523e-07
-5.2488598e-07
-8.3640914e-07
-5.2806224e-07
-6.9907095e-07
-5.3125762e-07
-5.608299e-07
-5.3448596e-07
-4.216627e-07
-5.3778834e-07
-2.8160765e-07
-5.4125936e-07
-1.4088966e-07
-5.4507206e-07
-5.4931399e-07
-7.8756129e-06
-5.6413044e-08
-7.8580384e-06
-7.6138153e-08
-7.8364956e-06
-9.5420606e-08
-7.8110781e-06
-1.1425458e-07
-7.7818813e-06
-1.3263514e-07
-7.7490016e-06
-1.5055841e-07
-7.7125359e-06
-1.6802179e-07
-7.6725814e-06
-1.8502385e-07
-7.6292353e-06
-2.0156431e-07
-7.5825941e-06
-2.1764407e-07
-7.5327542e-06
-2.3326506e-07
-7.4798109e-06
-2.4843027e-07
-7.4238585e-06
-2.6314363e-07
-7.3649903e-06
-2.7740992e-07
-7.3032983e-06
-2.9123478e-07
-7.2388729e-06
-3.0462457e-07
-7.171803e-06
-3.1758635e-07
-7.1021758e-06
-3.3012784e-07
-7.0300766e-06
-3.4225722e-07
-6.9555888e-06
-3.5398325e-07
-6.878794e-06
-3.6531519e-07
-6.7997715e-06
-3.7626252e-07
-6.7185985e-06
-3.8683519e-07
-6.6353501e-06
-3.9704352e-07
-6.550099e-06
-4.0689789e-07
-6.4629159e-06
-4.16409e-07
-6.3738691e-06
-4.2558767e-07
-6.2830243e-06
-4.3444493e-07
-6.1904452e-06
-4.4299181e-07
-6.0961931e-06
-4.5123943e-07
-6.0003268e-06
-4.5919896e-07
-5.9029031e-06
-4.6688156e-07
-5.8039761e-06
-4.7429834e-07
-5.7035977e-06
-4.814604e-07
-5.6018176e-06
-4.8837877e-07
-5.4986833e-06
-4.9506433e-07
-5.3942397e-06
-5.01528e-07
-5.2885298e-06
-5.0778032e-07
-5.1815943e-06
-5.1383192e-07
-5.0734719e-06
-5.1969321e-07
-4.9641989e-06
-5.2537436e-07
-4.8538097e-06
-5.3088548e-07
-4.7423367e-06
-5.3623637e-07
-4.6298101e-06
-5.4143677e-07
-4.5162585e-06
-5.4649605e-07
-4.4017082e-06
-5.5142355e-07
-4.2861839e-06
-5.5622826e-07
-4.1697085e-06
-5.60919e-07
-4.0523029e-06
-5.6550438e-07
-3.9339865e-06
-5.6999271e-07
-3.8147769e-06
-5.7439222e-07
-3.6946902e-06
-5.7871069e-07
-3.5737408e-06
-5.8295586e-07
-3.4519416e-06
-5.8713513e-07
-3.3293041e-06
-5.9125568e-07
-3.2058384e-06
-5.9532443e-07
-3.0815531e-06
-5.9934811e-07
-2.9564555e-06
-6.0333315e-07
-2.8305516e-06
-6.0728576e-07
-2.7038464e-06
-6.1121193e-07
-2.5763434e-06
-6.1511734e-07
-2.4480451e-06
-6.1900743e-07
-2.318953e-06
-6.2288742e-07
-2.1890675e-06
-6.2676223e-07
-2.0583878e-06
-6.306365e-07
-1.9269125e-06
-6.3451454e-07
-1.7946389e-06
-6.3840045e-07
-1.6615635e-06
-6.4229792e-07
-1.5276818e-06
-6.4621036e-07
-1.3929879e-06
-6.5014077e-07
-1.2574749e-06
-6.5409185e-07
-1.1211337e-06
-6.5806618e-07
-9.8395316e-07
-6.6206656e-07
-8.459187e-07
-6.6609671e-07
-7.0701283e-07
-6.701635e-07
-5.6721791e-07
-6.7428086e-07
-4.2652896e-07
-6.7847731e-07
-2.8498588e-07
-6.8280241e-07
-1.4273079e-07
-6.8732714e-07
-6.9204479e-07
-7.9248253e-06
-7.0680437e-08
-7.9064847e-06
-9.4478775e-08
-7.8841642e-06
-1.1774104e-07
-7.8579597e-06
-1.4045908e-07
-7.8279683e-06
-1.6262655e-07
-7.7942879e-06
-1.8423881e-07
-7.757017e-06
-2.0529276e-07
-7.7162539e-06
-2.257869e-07
-7.6720971e-06
-2.4572112e-07
-7.6246445e-06
-2.6509671e-07
-7.5739932e-06
-2.8391633e-07
-7.5202397e-06
-3.0218378e-07
-7.4634793e-06
-3.1990402e-07
-7.4038061e-06
-3.3708311e-07
-7.3413129e-06
-3.5372803e-07
-7.2760908e-06
-3.6984667e-07
-7.2082293e-06
-3.8544778e-07
-7.1378164e-06
-4.0054079e-07
-7.0649378e-06
-4.1513582e-07
-6.9896774e-06
-4.2924365e-07
-6.9121171e-06
-4.4287543e-07
-6.8323368e-06
-4.560429e-07
-6.7504138e-06
-4.6875817e-07
-6.6664236e-06
-4.8103374e-07
-6.5804391e-06
-4.9288234e-07
-6.4925312e-06
-5.0431693e-07
-6.4027681e-06
-5.1535073e-07
-6.311216e-06
-5.2599706e-07
-6.2179385e-06
-5.3626934e-07
-6.1229968e-06
-5.4618104e-07
-6.0264501e-06
-5.5574575e-07
-5.9283546e-06
-5.6497697e-07
-5.8287648e-06
-5.7388816e-07
-5.7277325e-06
-5.8249276e-07
-5.6253072e-06
-5.908041e-07
-5.5215361e-06
-5.988354e-07
-5.4164644e-06
-6.0659975e-07
-5.3101346e-06
-6.1411006e-07
-5.2025875e-06
-6.2137904e-07
-5.0938614e-06
-6.2841932e-07
-4.9839926e-06
-6.3524322e-07
-4.8730151e-06
-6.418629e-07
-4.7609613e-06
-6.4829026e-07
-4.6478611e-06
-6.5453693e-07
-4.5337428e-06
-6.6061438e-07
-4.4186325e-06
-6.6653376e-07
-4.3025548e-06
-6.7230598e-07
-4.1855322e-06
-6.7794168e-07
-4.0675854e-06
-6.8345121e-07
-3.9487335e-06
-6.8884463e-07
-3.8289939e-06
-6.9413179e-07
-3.7083824e-06
-6.9932221e-07
-3.5869131e-06
-7.044251e-07
-3.4645988e-06
-7.0944944e-07
-3.3414506e-06
-7.1440388e-07
-3.2174783e-06
-7.1929676e-07
-3.0926902e-06
-7.2413619e-07
-2.9670934e-06
-7.2892995e-07
-2.8406936e-06
-7.3368551e-07
-2.7134955e-06
-7.3841007e-07
-2.5855023e-06
-7.4311056e-07
-2.4567163e-06
-7.4779349e-07
-2.3271385e-06
-7.5246523e-07
-2.196769e-06
-7.571317e-07
-2.0656069e-06
-7.6179859e-07
-1.9336502e-06
-7.6647126e-07
-1.800896e-06
-7.7115469e-07
-1.6673403e-06
-7.7585361e-07
-1.5329783e-06
-7.8057239e-07
-1.3978038e-06
-7.8531517e-07
-1.2618098e-06
-7.9008589e-07
-1.1249876e-06
-7.9488845e-07
-9.8732692e-07
-7.997272e-07
-8.488163e-07
-8.0460733e-07
-7.0944345e-07
-8.0953633e-07
-5.6919868e-07
-8.1452564e-07
-4.2808318e-07
-8.1959281e-07
-2.8612457e-07
-8.2476107e-07
-1.4339807e-07
-8.3005361e-07
-8.3544285e-07
-7.9566817e-06
-8.5788726e-08
-7.9374985e-06
-1.1366193e-07
-7.9143362e-06
-1.409034e-07
-7.887292e-06
-1.6750324e-07
-7.8564646e-06
-1.9345392e-07
-7.8219534e-06
-2.1875004e-07
-7.783858e-06
-2.4338821e-07
-7.742278e-06
-2.6736687e-07
-7.6973129e-06
-2.9068617e-07
-7.6490617e-06
-3.1334793e-07
-7.5976226e-06
-3.353555e-07
-7.5430927e-06
-3.5671365e-07
-7.4855682e-06
-3.7742847e-07
-7.425144e-06
-3.9750732e-07
-7.3619134e-06
-4.1695864e-07
-7.2959682e-06
-4.3579193e-07
-7.2273983e-06
-4.5401766e-07
-7.156292e-06
-4.7164711e-07
-7.0827355e-06
-4.8869234e-07
-7.006813e-06
-5.0516611e-07
-6.9286066e-06
-5.2108178e-07
-6.8481963e-06
-5.3645321e-07
-6.7656597e-06
-5.5129482e-07
-6.6810721e-06
-5.6562127e-07
-6.5945068e-06
-5.7944768e-07
-6.5060343e-06
-5.927894e-07
-6.4157231e-06
-6.0566198e-07
-6.323639e-06
-6.1808113e-07
-6.2298457e-06
-6.3006269e-07
-6.1344042e-06
-6.4162255e-07
-6.0373733e-06
-6.5277662e-07
-5.9388095e-06
-6.6354083e-07
-5.8387665e-06
-6.7393107e-07
-5.7372962e-06
-6.8396308e-07
-5.6344477e-06
-6.9365256e-07
-5.5302681e-06
-7.0301501e-07
-5.4248021e-06
-7.1206578e-07
-5.318092e-06
-7.2082009e-07
-5.2101782e-06
-7.2929284e-07
-5.1010988e-06
-7.374988e-07
-4.9908895e-06
-7.4545247e-07
-4.8795844e-06
-7.5316808e-07
-4.767215e-06
-7.6065957e-07
-4.6538113e-06
-7.6794063e-07
-4.5394011e-06
-7.7502463e-07
-4.4240101e-06
-7.8192471e-07
-4.3076625e-06
-7.8865359e-07
-4.1903805e-06
-7.952237e-07
-4.0721844e-06
-8.0164726e-07
-3.953093e-06
-8.0793602e-07
-3.8331233e-06
-8.1410147e-07
-3.7122908e-06
-8.2015476e-07
-3.5906092e-06
-8.2610671e-07
-3.4680908e-06
-8.3196779e-07
-3.3447466e-06
-8.3774815e-07
-3.2205858e-06
-8.4345756e-07
-3.0956165e-06
-8.4910547e-07
-2.9698454e-06
-8.5470103e-07
-2.8432779e-06
-8.60253e-07
-2.7159182e-06
-8.6576975e-07
-2.5877694e-06
-8.7125944e-07
-2.4588331e-06
-8.7672972e-07
-2.3291103e-06
-8.8218805e-07
-2.1986005e-06
-8.8764143e-07
-2.0673026e-06
-8.9309653e-07
-1.9352141e-06
-8.9855971e-07
-1.8023318e-06
-9.0403697e-07
-1.6686515e-06
-9.0953392e-07
-1.5341679e-06
-9.1505598e-07
-1.3988749e-06
-9.2060821e-07
-1.2627652e-06
-9.2619558e-07
-1.1258307e-06
-9.3182299e-07
-9.8806218e-07
-9.3749568e-07
-8.4945009e-07
-9.4321941e-07
-7.0998522e-07
-9.4900122e-07
-5.6966111e-07
-9.5484975e-07
-4.2847859e-07
-9.6077534e-07
-2.8645208e-07
-9.6678756e-07
-1.436156e-07
-9.7289011e-07
-9.7905846e-07
-7.9858631e-06
-1.0186283e-07
-7.9657161e-06
-1.3380891e-07
-7.9415944e-06
-1.6502512e-07
-7.9135973e-06
-1.9550032e-07
-7.8818252e-06
-2.2522603e-07
-7.8463789e-06
-2.5419637e-07
-7.8073594e-06
-2.8240765e-07
-7.7648679e-06
-3.0985841e-07
-7.7190049e-06
-3.3654919e-07
-7.6698704e-06
-3.6248238e-07
-7.6175637e-06
-3.8766217e-07
-7.562183e-06
-4.1209438e-07
-7.5038251e-06
-4.3578633e-07
-7.4425857e-06
-4.5874676e-07
-7.3785587e-06
-4.8098567e-07
-7.3118364e-06
-5.0251423e-07
-7.2425093e-06
-5.2334472e-07
-7.1706661e-06
-5.4349039e-07
-7.0963932e-06
-5.6296525e-07
-7.0197751e-06
-5.8178418e-07
-6.9408941e-06
-5.9996278e-07
-6.8598302e-06
-6.175171e-07
-6.7766612e-06
-6.3446384e-07
-6.6914624e-06
-6.5082003e-07
-6.604307e-06
-6.6660316e-07
-6.5152654e-06
-6.8183096e-07
-6.424406e-06
-6.9652144e-07
-6.3317944e-06
-7.1069267e-07
-6.2374941e-06
-7.24363e-07
-6.1415659e-06
-7.3755071e-07
-6.0440683e-06
-7.5027418e-07
-5.9450575e-06
-7.6255171e-07
-5.8445869e-06
-7.744016e-07
-5.742708e-06
-7.8584201e-07
-5.6394696e-06
-7.9689094e-07
-5.5349184e-06
-8.0756623e-07
-5.4290987e-06
-8.1788553e-07
-5.3220524e-06
-8.2786632e-07
-5.2138195e-06
-8.3752574e-07
-5.1044376e-06
-8.4688073e-07
-4.9939422e-06
-8.5594792e-07
-4.8823666e-06
-8.6474365e-07
-4.7697422e-06
-8.7328392e-07
-4.6560984e-06
-8.8158446e-07
-4.5414625e-06
-8.8966056e-07
-4.4258599e-06
-8.9752727e-07
-4.3093143e-06
-9.051992e-07
-4.1918473e-06
-9.1269067e-07
-4.0734791e-06
-9.2001554e-07
-3.9542277e-06
-9.2718738e-07
-3.8341099e-06
-9.3421929e-07
-3.7131406e-06
-9.4112407e-07
-3.5913332e-06
-9.4791414e-07
-3.4686995e-06
-9.5460145e-07
-3.34525e-06
-9.6119763e-07
-3.2209937e-06
-9.677139e-07
-3.0959381e-06
-9.7416106e-07
-2.9700895e-06
-9.8054958e-07
-2.843453e-06
-9.8688948e-07
-2.7160323e-06
-9.9319047e-07
-2.58783e-06
-9.9946173e-07
-2.4588476e-06
-1.0057122e-06
-2.3290853e-06
-1.0119503e-06
-2.1985426e-06
-1.0181842e-06
-2.0672176e-06
-1.0244215e-06
-1.9351078e-06
-1.0306696e-06
-1.8022094e-06
-1.0369353e-06
-1.6685179e-06
-1.0432254e-06
-1.5340278e-06
-1.0495461e-06
-1.3987327e-06
-1.0559033e-06
-1.2626255e-06
-1.0623028e-06
-1.1256983e-06
-1.0687503e-06
-9.8794242e-07
-1.0752515e-06
-8.4934937e-07
-1.0818125e-06
-7.0991113e-07
-1.0884395e-06
-5.6962174e-07
-1.0951391e-06
-4.2847947e-07
-1.1019176e-06
-2.8648884e-07
-1.1087782e-06
-1.4366109e-07
-1.1157178e-06
-1.1227195e-06
-8.0170529e-06
-1.1904278e-07
-7.995804e-06
-1.5505788e-07
-7.9705866e-06
-1.9024251e-07
-7.9415024e-06
-2.2458451e-07
-7.9086536e-06
-2.5807479e-07
-7.8721429e-06
-2.9070701e-07
-7.8320731e-06
-3.2247746e-07
-7.7885467e-06
-3.533849e-07
-7.7416655e-06
-3.8343033e-07
-7.691531e-06
-4.126169e-07
-7.6382434e-06
-4.4094973e-07
-7.581902e-06
-4.6843581e-07
-7.5226045e-06
-4.9508379e-07
-7.4604474e-06
-5.2090393e-07
-7.3955252e-06
-5.4590783e-07
-7.3279309e-06
-5.7010852e-07
-7.2577555e-06
-5.9352014e-07
-7.185088e-06
-6.161579e-07
-7.1100152e-06
-6.3803803e-07
-7.0326218e-06
-6.5917754e-07
-6.9529904e-06
-6.7959422e-07
-6.871201e-06
-6.9930651e-07
-6.7873314e-06
-7.1833344e-07
-6.7014569e-06
-7.3669449e-07
-6.6136506e-06
-7.5440953e-07
-6.5239828e-06
-7.7149871e-07
-6.4325217e-06
-7.8798253e-07
-6.3393328e-06
-8.0388161e-07
-6.2444791e-06
-8.1921667e-07
-6.1480213e-06
-8.3400852e-07
-6.0500175e-06
-8.48278e-07
-5.9505234e-06
-8.6204585e-07
-5.8495922e-06
-8.7533277e-07
-5.7472749e-06
-8.8815934e-07
-5.6436199e-06
-9.0054592e-07
-5.5386734e-06
-9.1251273e-07
-5.4324792e-06
-9.2407971e-07
-5.3250789e-06
-9.352666e-07
-5.2165119e-06
-9.460928e-07
-5.1068152e-06
-9.565774e-07
-4.9960239e-06
-9.6673922e-07
-4.8841709e-06
-9.7659669e-07
-4.7712869e-06
-9.861679e-07
-4.6574008e-06
-9.9547055e-07
-4.5425394e-06
-1.0045219e-06
-4.4267277e-06
-1.013339e-06
-4.3099887e-06
-1.0219382e-06
-4.1923437e-06
-1.0303357e-06
-4.0738121e-06
-1.0385471e-06
-3.9544117e-06
-1.0465878e-06
-3.8341585e-06
-1.0544724e-06
-3.7130671e-06
-1.0622155e-06
-3.5911503e-06
-1.0698309e-06
-3.4684195e-06
-1.0773322e-06
-3.3448846e-06
-1.0847325e-06
-3.2205542e-06
-1.0920443e-06
-3.0954353e-06
-1.0992799e-06
-2.9695338e-06
-1.1064511e-06
-2.8428541e-06
-1.1135692e-06
-2.7153996e-06
-1.1206449e-06
-2.5871724e-06
-1.1276889e-06
-2.4581735e-06
-1.1347111e-06
-2.3284029e-06
-1.141721e-06
-2.1978593e-06
-1.1487277e-06
-2.0665407e-06
-1.1557401e-06
-1.9344439e-06
-1.1627664e-06
-1.8015649e-06
-1.1698144e-06
-1.6678988e-06
-1.1768916e-06
-1.5334397e-06
-1.1840052e-06
-1.3981811e-06
-1.1911619e-06
-1.2621156e-06
-1.1983682e-06
-1.1252355e-06
-1.2056304e-06
-9.8753234e-07
-1.2129547e-06
-8.4899779e-07
-1.220347e-06
-7.0962391e-07
-1.2278133e-06
-5.6940411e-07
-1.2353589e-06
-4.2833382e-07
-1.2429879e-06
-2.8641099e-07
-1.250701e-06
-1.4363522e-07
-1.2584936e-06
-1.2663548e-06
-8.0516027e-06
-1.3747536e-07
-8.0291063e-06
-1.7755423e-07
-8.0026495e-06
-2.1669937e-07
-7.9723361e-06
-2.5489789e-07
-7.9382707e-06
-2.9214019e-07
-7.900558e-06
-3.2841973e-07
-7.8593025e-06
-3.6373295e-07
-7.8146085e-06
-3.9807895e-07
-7.7665794e-06
-4.3145942e-07
-7.7153179e-06
-4.6387834e-07
-7.6609257e-06
-4.9534197e-07
-7.6035029e-06
-5.2585855e-07
-7.5431486e-06
-5.5543821e-07
-7.4799597e-06
-5.8409277e-07
-7.4140318e-06
-6.1183572e-07
-7.3454584e-06
-6.3868189e-07
-7.2743311e-06
-6.6464746e-07
-7.2007392e-06
-6.8974978e-07
-7.12477e-06
-7.1400722e-07
-7.0465085e-06
-7.3743909e-07
-6.9660372e-06
-7.6006555e-07
-6.8834363e-06
-7.8190737e-07
-6.7987837e-06
-8.0298606e-07
-6.7121546e-06
-8.2332355e-07
-6.623622e-06
-8.4294214e-07
-6.5332561e-06
-8.6186463e-07
-6.4411247e-06
-8.8011395e-07
-6.3472931e-06
-8.9771323e-07
-6.251824e-06
-9.1468574e-07
-6.1547777e-06
-9.3105479e-07
-6.056212e-06
-9.4684372e-07
-5.9561821e-06
-9.6207576e-07
-5.8547408e-06
-9.7677407e-07
-5.7519385e-06
-9.9096161e-07
-5.6478233e-06
-1.0046612e-06
-5.5424407e-06
-1.0178953e-06
-5.435834e-06
-1.0306863e-06
-5.3280443e-06
-1.0430563e-06
-5.2191104e-06
-1.0550267e-06
-5.1090688e-06
-1.066619e-06
-4.997954e-06
-1.0778541e-06
-4.8857981e-06
-1.0887525e-06
-4.7726316e-06
-1.0993344e-06
-4.6584825e-06
-1.1096196e-06
-4.5433772e-06
-1.1196273e-06
-4.4273399e-06
-1.1293762e-06
-4.3103932e-06
-1.1388849e-06
-4.1925578e-06
-1.1481712e-06
-4.0738524e-06
-1.1572525e-06
-3.9542943e-06
-1.1661459e-06
-3.833899e-06
-1.1748678e-06
-3.7126803e-06
-1.1834341e-06
-3.5906507e-06
-1.1918605e-06
-3.4678209e-06
-1.200162e-06
-3.3442003e-06
-1.2083531e-06
-3.2197969e-06
-1.2164478e-06
-3.0946171e-06
-1.2244597e-06
-2.9686664e-06
-1.2324019e-06
-2.8419487e-06
-1.2402869e-06
-2.7144668e-06
-1.2481269e-06
-2.5862223e-06
-1.2559334e-06
-2.4572157e-06
-1.2637177e-06
-2.3274464e-06
-1.2714902e-06
-2.1969128e-06
-1.2792613e-06
-2.0656122e-06
-1.2870407e-06
-1.9335412e-06
-1.2948374e-06
-1.8006951e-06
-1.3026604e-06
-1.6670687e-06
-1.310518e-06
-1.5326558e-06
-1.3184181e-06
-1.3974495e-06
-1.3263681e-06
-1.2614423e-06
-1.3343754e-06
-1.1246261e-06
-1.3424466e-06
-9.8699242e-07
-1.3505884e-06
-8.4853264e-07
-1.3588068e-06
-7.0923849e-07
-1.3671075e-06
-5.6910207e-07
-1.3754954e-06
-4.2811657e-07
-1.3839734e-06
-2.8627586e-07
-1.3925417e-06
-1.4357371e-07
-1.4011958e-06
-1.4099285e-06
-8.0898568e-06
-1.5731111e-07
-8.0659639e-06
-2.0144704e-07
-8.0381202e-06
-2.4454316e-07
-8.0064321e-06
-2.8658599e-07
-7.9710066e-06
-3.2756566e-07
-7.9319506e-06
-3.6747569e-07
-7.8893708e-06
-4.0631276e-07
-7.8433732e-06
-4.4407658e-07
-7.794063e-06
-4.8076961e-07
-7.7415444e-06
-5.1639694e-07
-7.6859204e-06
-5.5096601e-07
-7.6272924e-06
-5.8448651e-07
-7.5657604e-06
-6.1697018e-07
-7.5014226e-06
-6.4843064e-07
-7.4343751e-06
-6.7888322e-07
-7.3647122e-06
-7.083448e-07
-7.292526e-06
-7.3683367e-07
-7.2179063e-06
-7.6436941e-07
-7.1409408e-06
-7.9097272e-07
-7.0617147e-06
-8.1666525e-07
-6.9803106e-06
-8.414696e-07
-6.896809e-06
-8.6540901e-07
-6.8112875e-06
-8.8850749e-07
-6.7238215e-06
-9.1078955e-07
-6.6344836e-06
-9.3228005e-07
-6.5433439e-06
-9.5300434e-07
-6.45047e-06
-9.7298791e-07
-6.3559267e-06
-9.922565e-07
-6.2597765e-06
-1.0108359e-06
-6.1620793e-06
-1.0287521e-06
-6.0628922e-06
-1.0460308e-06
-5.9622702e-06
-1.0626978e-06
-5.8602654e-06
-1.0787788e-06
-5.7569277e-06
-1.0942993e-06
-5.6523047e-06
-1.1092842e-06
-5.5464412e-06
-1.1237588e-06
-5.43938e-06
-1.1377475e-06
-5.3311615e-06
-1.1512748e-06
-5.2218239e-06
-1.1643643e-06
-5.111403e-06
-1.1770399e-06
-4.9999326e-06
-1.1893244e-06
-4.8874445e-06
-1.2012407e-06
-4.7739681e-06
-1.2128109e-06
-4.659531e-06
-1.2240567e-06
-4.5441588e-06
-1.2349994e-06
-4.4278751e-06
-1.2456599e-06
-4.3107019e-06
-1.2560581e-06
-4.1926591e-06
-1.266214e-06
-4.0737649e-06
-1.2761467e-06
-3.9540358e-06
-1.2858749e-06
-3.8334868e-06
-1.2954168e-06
-3.7121311e-06
-1.3047899e-06
-3.5899804e-06
-1.3140113e-06
-3.4670449e-06
-1.3230975e-06
-3.3433333e-06
-1.3320647e-06
-3.218853e-06
-1.340928e-06
-3.09361e-06
-1.3497027e-06
-2.967609e-06
-1.3584029e-06
-2.8408533e-06
-1.3670426e-06
-2.7133452e-06
-1.375635e-06
-2.5850857e-06
-1.3841929e-06
-2.4560749e-06
-1.3927286e-06
-2.3263114e-06
-1.4012537e-06
-2.1957932e-06
-1.4097796e-06
-2.064517e-06
-1.4183168e-06
-1.932479e-06
-1.4268755e-06
-1.7996739e-06
-1.4354655e-06
-1.6660961e-06
-1.4440958e-06
-1.531739e-06
-1.4527752e-06
-1.3965952e-06
-1.4615119e-06
-1.2606568e-06
-1.4703138e-06
-1.1239154e-06
-1.479188e-06
-9.8636213e-07
-1.4881417e-06
-8.4798791e-07
-1.497181e-06
-7.0878366e-07
-1.5063117e-06
-5.6874045e-07
-1.5155386e-06
-4.2784953e-07
-1.5248643e-06
-2.8610226e-07
-1.534289e-06
-1.4348953e-07
-1.5438085e-06
-1.553418e-06
-8.1318809e-06
-1.7870356e-07
-8.1064398e-06
-2.2688824e-07
-8.077059e-06
-2.7392394e-07
-8.0438481e-06
-3.1979682e-07
-8.0069168e-06
-3.6449698e-07
-7.9663744e-06
-4.0801814e-07
-7.9223296e-06
-4.5035754e-07
-7.8748906e-06
-4.9151558e-07
-7.8241644e-06
-5.314958e-07
-7.7702569e-06
-5.7030444e-07
-7.7132725e-06
-6.079504e-07
-7.6533141e-06
-6.4444496e-07
-7.5904826e-06
-6.7980162e-07
-7.5248774e-06
-7.1403591e-07
-7.4565954e-06
-7.4716522e-07
-7.3857316e-06
-7.7920858e-07
-7.3123787e-06
-8.1018653e-07
-7.2366271e-06
-8.4012103e-07
-7.1585647e-06
-8.6903514e-07
-7.078277e-06
-8.9695301e-07
-6.9958467e-06
-9.238998e-07
-6.9113545e-06
-9.499013e-07