/*--------------------------------*- C++ -*----------------------------------*\
| =========                 |                                                 |
| \\      /  F ield         | OpenFOAM: The Open Source CFD Toolbox           |
|  \\    /   O peration     | Version:  2306                                  |
|   \\  /    A nd           | Website:  www.openfoam.com                      |
|    \\/     M anipulation  |                                                 |
\*---------------------------------------------------------------------------*/
FoamFile
{
    version     2.0;
    format      ascii;
    arch        "LSB;label=32;scalar=64";
    class       volVectorField;
    location    "0.04";
    object      U;
}
// * * * * * * * * * * * * * * * * * * * * * * * * * * * * * * * * * * * * * //

dimensions      [0 1 -1 0 0 0 0];

internalField   nonuniform List<vector> 
6400
(
(0.00026247151 0.00019629545 1.4049736e-20)
(0.00026258107 0.00018424101 7.0339868e-23)
(0.00026225807 0.00017250512 -2.9084889e-21)
(0.00026153553 0.0001610905 5.5907615e-21)
(0.00026044482 0.00014999821 -4.148388e-21)
(0.00025901549 0.00013922828 5.0158204e-21)
(0.00025727529 0.00012877966 5.0580735e-22)
(0.00025525039 0.0001186504 3.0811772e-21)
(0.00025296533 0.00010883758 1.3567921e-21)
(0.00025044314 9.9337634e-05 1.790481e-21)
(0.0002477054 9.0146376e-05 -7.3739177e-22)
(0.00024477234 8.125899e-05 4.4912711e-21)
(0.00024166295 7.2670216e-05 1.4702072e-21)
(0.00023839484 6.4374574e-05 -2.106109e-21)
(0.00023498453 5.6366077e-05 -8.9501367e-22)
(0.00023144736 4.8638428e-05 1.4979559e-21)
(0.00022779755 4.1185266e-05 -7.5085914e-22)
(0.00022404858 3.3999995e-05 3.392625e-21)
(0.00022021272 2.7075858e-05 -1.2727159e-21)
(0.00021630111 2.0406101e-05 -1.1369942e-21)
(0.00021232391 1.3984152e-05 1.8197371e-21)
(0.00020829293 7.803534e-06 -1.6902199e-21)
(0.00020421684 1.8563186e-06 1.2588976e-21)
(0.00020010355 -3.8671309e-06 -8.2259963e-22)
(0.00019596116 -9.368935e-06 -1.5050358e-21)
(0.00019179548 -1.4657214e-05 1.3943903e-21)
(0.00018761358 -1.9738634e-05 3.7867036e-22)
(0.00018342145 -2.4619807e-05 1.3703862e-21)
(0.00017922466 -2.9307247e-05 6.6341273e-22)
(0.00017502819 -3.3807015e-05 -1.7222862e-21)
(0.00017083665 -3.8125635e-05 -9.0098221e-22)
(0.00016665415 -4.2268945e-05 2.9065941e-21)
(0.00016248442 -4.6242877e-05 2.824417e-21)
(0.00015833084 -5.0053036e-05 -8.4018379e-22)
(0.00015419648 -5.3704928e-05 -9.9698897e-22)
(0.0001500841 -5.7204261e-05 5.005359e-22)
(0.0001459961 -6.0556285e-05 3.014622e-22)
(0.00014193465 -6.3765828e-05 1.811897e-21)
(0.00013790164 -6.6838157e-05 3.3985764e-22)
(0.00013389878 -6.9778067e-05 -2.6512179e-21)
(0.00012992748 -7.2590004e-05 -3.3303366e-22)
(0.00012598898 -7.5278715e-05 1.6801581e-21)
(0.0001220844 -7.7848253e-05 4.7862682e-22)
(0.00011821461 -8.0303016e-05 1.7269601e-22)
(0.00011438028 -8.2646924e-05 -6.8827215e-22)
(0.00011058202 -8.4883974e-05 -4.9197625e-22)
(0.00010682036 -8.7017829e-05 1.2911564e-21)
(0.00010309558 -8.9052114e-05 2.1011172e-21)
(9.9407777e-05 -9.0990467e-05 -1.0398239e-21)
(9.5757161e-05 -9.2835938e-05 -9.8825693e-22)
(9.2143638e-05 -9.4591881e-05 -8.4346088e-23)
(8.8567064e-05 -9.6261356e-05 -3.2146728e-23)
(8.5027315e-05 -9.7847188e-05 1.4193248e-21)
(8.1524211e-05 -9.9352326e-05 9.4816273e-22)
(7.8057457e-05 -0.00010077932 -8.7297669e-22)
(7.4626515e-05 -0.00010213088 3.3731414e-23)
(7.1230961e-05 -0.00010340919 3.4086549e-22)
(6.7870359e-05 -0.00010461675 6.820826e-22)
(6.4544135e-05 -0.00010575599 6.2395642e-23)
(6.1251679e-05 -0.00010682884 -1.4333773e-21)
(5.7992391e-05 -0.00010783727 -9.0134318e-23)
(5.4765615e-05 -0.0001087832 1.9533684e-22)
(5.1570647e-05 -0.00010966848 7.1416799e-22)
(4.840677e-05 -0.00011049476 5.6557408e-23)
(4.5273232e-05 -0.00011126366 -5.3544572e-22)
(4.2169316e-05 -0.00011197678 3.3191945e-23)
(3.9094256e-05 -0.00011263545 1.0307622e-22)
(3.6047219e-05 -0.000113241 7.1941769e-22)
(3.3027482e-05 -0.0001137947 3.2372278e-22)
(3.0034194e-05 -0.00011429769 -7.7876377e-22)
(2.7066531e-05 -0.0001147511 5.890808e-22)
(2.4123746e-05 -0.000115156 3.4438513e-22)
(2.1204937e-05 -0.00011551329 -8.4196391e-23)
(1.8309314e-05 -0.00011582367 1.4270543e-22)
(1.5436068e-05 -0.00011608799 3.1628859e-22)
(1.2584393e-05 -0.00011630694 1.0202325e-21)
(9.7535387e-06 -0.00011648119 -1.4338369e-22)
(6.9420853e-06 -0.00011661137 -3.0321601e-22)
(4.1479325e-06 -0.00011669829 -2.1034883e-22)
(1.3743756e-06 -0.00011674461 -4.7208087e-22)
(0.00025051131 0.00019261686 5.3574796e-22)
(0.00025092218 0.00018104607 1.6205074e-21)
(0.00025090445 0.00016976485 1.6984845e-21)
(0.00025048993 0.00015877711 -5.6286843e-21)
(0.00024970847 0.0001480852 -6.001798e-21)
(0.00024858846 0.00013769041 8.5828969e-22)
(0.00024715665 0.00012759285 -2.7262342e-22)
(0.00024543825 0.00011779177 3.2600897e-21)
(0.00024345711 0.00010828551 -4.3892763e-21)
(0.0002412355 9.9071505e-05 -1.1900081e-21)
(0.00023879443 9.0146768e-05 -3.185375e-22)
(0.00023615362 8.1507394e-05 4.1602924e-21)
(0.0002333315 7.3149179e-05 9.2681577e-22)
(0.00023034542 6.506756e-05 -5.642027e-21)
(0.00022721148 5.7257553e-05 -1.5076903e-21)
(0.00022394483 4.971369e-05 7.2844912e-22)
(0.00022055955 4.2430467e-05 3.8372621e-22)
(0.00021706867 3.5402332e-05 1.8645691e-22)
(0.00021348446 2.8623055e-05 -3.1138751e-21)
(0.00020981857 2.208661e-05 -1.6554501e-22)
(0.00020608135 1.5787116e-05 6.8090126e-22)
(0.00020228183 9.7190559e-06 5.1963069e-22)
(0.00019842944 3.8739411e-06 1.0336519e-21)
(0.00019453554 -1.7536136e-06 -1.0728441e-21)
(0.0001906066 -7.1686657e-06 -5.044241e-22)
(0.00018664729 -1.2378258e-05 1.0231558e-21)
(0.00018266536 -1.7388201e-05 -7.257808e-23)
(0.00017866701 -2.2204638e-05 1.059782e-21)
(0.00017465782 -2.6833581e-05 -1.4822099e-22)
(0.00017064304 -3.1280689e-05 8.9412434e-22)
(0.00016662735 -3.5551861e-05 1.7058164e-21)
(0.00016261489 -3.9652756e-05 9.9012129e-22)
(0.00015860952 -4.3588871e-05 1.44712e-21)
(0.00015461479 -4.7365452e-05 -5.3848821e-22)
(0.0001506339 -5.0987882e-05 -3.6955429e-22)
(0.0001466698 -5.4461482e-05 7.5272937e-22)
(0.00014272509 -5.779103e-05 6.860492e-22)
(0.00013880201 -6.0981214e-05 1.1336751e-21)
(0.0001349026 -6.403694e-05 -2.929037e-22)
(0.00013102864 -6.6962792e-05 -6.5497528e-22)
(0.00012718185 -6.9763025e-05 2.0133441e-22)
(0.00012336354 -7.2442179e-05 7.4349712e-22)
(0.0001195749 -7.5004228e-05 3.9770021e-22)
(0.00011581703 -7.7453316e-05 5.8168367e-23)
(0.00011209085 -7.9793194e-05 4.2361332e-22)
(0.00010839702 -8.2027684e-05 6.3711169e-22)
(0.00010473609 -8.4160328e-05 1.2319853e-21)
(0.00010110858 -8.6194469e-05 1.1517286e-21)
(9.7514796e-05 -8.8133683e-05 4.9888941e-22)
(9.3954899e-05 -8.9980875e-05 6.3815521e-22)
(9.0429029e-05 -9.1739299e-05 -7.9812293e-23)
(8.6937204e-05 -9.3412025e-05 -6.4381207e-22)
(8.3479431e-05 -9.500179e-05 4.2702102e-22)
(8.0055576e-05 -9.6511369e-05 1.006877e-21)
(7.6665398e-05 -9.7943294e-05 7.3312917e-22)
(7.3308634e-05 -9.9300037e-05 1.0586979e-21)
(6.9984856e-05 -0.00010058379 3.5614677e-22)
(6.6693747e-05 -0.00010179703 1.1158677e-21)
(6.3434942e-05 -0.00010294196 4.58644e-22)
(6.0207909e-05 -0.00010402058 8.574859e-23)
(5.7012076e-05 -0.00010503475 6.6679112e-22)
(5.3846912e-05 -0.00010598644 -3.1493226e-22)
(5.0711845e-05 -0.00010687733 5.2389484e-22)
(4.7606208e-05 -0.00010770913 8.0188061e-22)
(4.4529388e-05 -0.00010848346 7.6659793e-22)
(4.1480712e-05 -0.00010920182 2.4367237e-22)
(3.8459547e-05 -0.00010986555 -9.7267753e-23)
(3.5465177e-05 -0.00011047586 5.0516786e-22)
(3.249681e-05 -0.0001110341 -9.1064335e-24)
(2.9553776e-05 -0.00011154128 5.0140279e-22)
(2.6635415e-05 -0.00011199864 5.8667062e-22)
(2.3740973e-05 -0.00011240707 2.2110795e-22)
(2.0869621e-05 -0.00011276751 5.1301625e-22)
(1.8020608e-05 -0.00011308067 2.1486039e-22)
(1.5193257e-05 -0.00011334741 6.8085761e-22)
(1.2386864e-05 -0.0001135684 4.4000786e-22)
(9.6007016e-06 -0.00011374419 2.0380494e-22)
(6.8334617e-06 -0.00011387555 5.6651019e-22)
(4.0830733e-06 -0.00011396331 5.5413405e-22)
(1.3528723e-06 -0.00011401009 -3.6900429e-22)
(0.00023904423 0.00018880011 7.7225357e-22)
(0.00023972761 0.00017770226 -3.3111665e-22)
(0.00023998761 0.00016686646 -4.4656903e-21)
(0.0002398547 0.00015629783 -3.3639521e-21)
(0.00023935719 0.00014600005 -5.7570628e-22)
(0.00023852243 0.00013597532 -8.8934576e-22)
(0.00023737612 0.00012622493 -2.2309326e-21)
(0.00023594246 0.0001167491 -4.2256817e-21)
(0.00023424445 0.00010754723 -3.785448e-21)
(0.00023230372 9.8617812e-05 6.7062381e-22)
(0.00023014064 8.9958854e-05 1.0525691e-21)
(0.00022777438 8.1567484e-05 -2.023525e-21)
(0.00022522287 7.3440419e-05 -8.5541582e-21)
(0.00022250299 6.5573998e-05 -5.6152002e-21)
(0.00021963056 5.7964054e-05 3.8471912e-21)
(0.00021662039 5.0606017e-05 1.0423992e-21)
(0.00021348623 4.3495208e-05 -3.5043186e-21)
(0.00021024108 3.6626702e-05 -4.6182192e-21)
(0.00020689708 2.9995149e-05 -3.4031186e-21)
(0.00020346547 2.3595249e-05 9.3867728e-22)
(0.00019995662 1.7421442e-05 1.5311832e-21)
(0.00019637987 1.1468183e-05 -1.5042769e-21)
(0.00019274436 5.7301168e-06 -3.5357674e-21)
(0.00018906101 2.0254853e-07 2.8987468e-22)
(0.00018533663 -5.1230907e-06 -4.1727511e-22)
(0.00018157617 -1.0250455e-05 2.926861e-22)
(0.00017778732 -1.5185229e-05 -1.2745324e-21)
(0.00017397632 -1.9933159e-05 -2.5467627e-21)
(0.00017014881 -2.4499837e-05 -1.2430031e-21)
(0.00016631003 -2.8890587e-05 8.9984528e-22)
(0.0001624648 -3.3110725e-05 8.2347875e-22)
(0.00015861751 -3.7165551e-05 -2.2163963e-21)
(0.00015477202 -4.106022e-05 -1.9816574e-21)
(0.000150932 -4.4799692e-05 5.2306628e-22)
(0.00014710089 -4.8389135e-05 4.4230859e-22)
(0.00014328163 -5.1833306e-05 -1.2740638e-21)
(0.00013947684 -5.5136936e-05 -2.2182565e-21)
(0.00013568902 -5.8304382e-05 -6.3004267e-22)
(0.00013192036 -6.1340271e-05 -4.1799467e-22)
(0.0001281728 -6.4248926e-05 -1.1112343e-21)
(0.00012444812 -6.7034542e-05 1.1582444e-21)
(0.00012074793 -6.9701216e-05 -4.0149128e-22)
(0.00011707353 -7.2252897e-05 -9.893496e-22)
(0.00011342598 -7.4693455e-05 2.4966874e-22)
(0.00010980629 -7.7026589e-05 -2.5688102e-22)
(0.00010621535 -7.9255775e-05 -3.3136245e-23)
(0.00010265385 -8.1384565e-05 -4.6431692e-22)
(9.9122408e-05 -8.341615e-05 -1.2205228e-21)
(9.5621518e-05 -8.5353872e-05 1.5090523e-22)
(9.2151492e-05 -8.7200638e-05 1.4271088e-21)
(8.8712555e-05 -8.8959494e-05 3.5149565e-22)
(8.5304809e-05 -9.0633409e-05 -1.3495478e-21)
(8.1928406e-05 -9.2225094e-05 -1.0004647e-21)
(7.8583339e-05 -9.3737078e-05 -1.1564204e-22)
(7.5269404e-05 -9.517199e-05 1.0903224e-22)
(7.1986364e-05 -9.6532056e-05 6.8980115e-22)
(6.8734042e-05 -9.7819483e-05 -2.9382239e-22)
(6.5512306e-05 -9.9036822e-05 2.7561734e-22)
(6.2320781e-05 -0.00010018598 -1.3194918e-22)
(5.9158975e-05 -0.00010126898 -1.2726323e-22)
(5.6026536e-05 -0.00010228767 9.1904899e-22)
(5.2923026e-05 -0.00010324391 -8.130644e-22)
(4.9847863e-05 -0.00010413934 9.4586133e-23)
(4.6800601e-05 -0.00010497565 -2.5398178e-23)
(4.3780674e-05 -0.00010575433 1.1388619e-22)
(4.0787465e-05 -0.00010647689 1.9821663e-22)
(3.7820402e-05 -0.00010714477 -5.3046694e-22)
(3.4878844e-05 -0.00010775898 -9.7253033e-23)
(3.1962188e-05 -0.00010832091 2.7267172e-23)
(2.9069819e-05 -0.00010883162 1.1862722e-22)
(2.6201042e-05 -0.00010929222 1.2823673e-22)
(2.3355173e-05 -0.00010970357 -2.5368216e-22)
(2.0531564e-05 -0.00011006668 2.0922547e-22)
(1.7729536e-05 -0.00011038218 -3.2366939e-22)
(1.4948419e-05 -0.00011065096 -1.7530602e-22)
(1.2187634e-05 -0.00011087368 -1.2595067e-22)
(9.4465435e-06 -0.00011105085 5.8772742e-23)
(6.7238914e-06 -0.00011118322 2.1934412e-23)
(4.0177133e-06 -0.00011127166 9.3046966e-23)
(1.3312535e-06 -0.00011131883 7.4914923e-23)
(0.0002280582 0.00018486737 3.3379546e-21)
(0.00022898715 0.00017423105 -3.3604221e-21)
(0.00022949886 0.00016383094 3.5802265e-23)
(0.00022962237 0.0001536731 9.9760512e-22)
(0.00022938489 0.0001437623 2.3121397e-21)
(0.00022881244 0.00013410166 -2.7294413e-21)
(0.00022792968 0.00012469367 -4.3278783e-21)
(0.00022675993 0.00011553937 -2.7845345e-21)
(0.00022532526 0.0001066391 1.2487038e-21)
(0.00022364658 9.7992241e-05 -1.2652897e-21)
(0.00022174357 8.9597688e-05 -2.8722373e-21)
(0.00021963478 8.1453595e-05 -3.5986171e-21)
(0.00021733767 7.3557575e-05 4.5391721e-22)
(0.00021486872 6.5906778e-05 3.185393e-22)
(0.00021224333 5.8497869e-05 -3.1763104e-22)
(0.00020947593 5.1327009e-05 -9.6447815e-22)
(0.0002065801 4.4390292e-05 -4.7007775e-22)
(0.00020356854 3.7683421e-05 2.2383014e-21)
(0.00020045314 3.1201859e-05 -2.8766608e-22)
(0.00019724497 2.4941031e-05 1.6571647e-21)
(0.00019395426 1.8896102e-05 -1.3249794e-21)
(0.00019059047 1.3062196e-05 -1.4828919e-21)
(0.00018716398 7.4347086e-06 9.6668661e-22)
(0.00018368247 2.0072073e-06 5.3906669e-22)
(0.00018015371 -3.2256799e-06 -1.1480711e-22)
(0.00017658534 -8.2674441e-06 -6.4208377e-22)
(0.00017298277 -1.3123737e-05 -1.7710316e-21)
(0.00016935271 -1.7799839e-05 4.9459917e-22)
(0.00016570086 -2.2300756e-05 6.7256172e-22)
(0.00016203254 -2.6631636e-05 7.8562356e-22)
(0.00015835264 -3.0797349e-05 2.2550073e-21)
(0.00015466556 -3.4802781e-05 -1.0525856e-21)
(0.00015097543 -3.8652774e-05 -1.5016482e-21)
(0.00014728599 -4.2351944e-05 5.0212335e-22)
(0.00014360067 -4.590515e-05 4.4228371e-22)
(0.00013992256 -4.9316621e-05 8.0710178e-22)
(0.00013625443 -5.2591084e-05 -1.4745463e-21)
(0.00013259888 -5.5732707e-05 -6.1026138e-23)
(0.00012895818 -5.8745666e-05 -2.9742365e-22)
(0.00012533445 -6.1634272e-05 -4.7484186e-23)
(0.0001217296 -6.4402398e-05 7.2895607e-22)
(0.00011814524 -6.7053895e-05 -2.063221e-22)
(0.00011458285 -6.9592533e-05 9.5389865e-22)
(0.0001110437 -7.2021857e-05 -3.3870562e-24)
(0.0001075289 -7.434562e-05 6.0050833e-22)
(0.00010403937 -7.6566998e-05 3.6521823e-22)
(0.000100576 -7.868949e-05 -3.3838084e-22)
(9.7139515e-05 -8.0716173e-05 -5.8715644e-22)
(9.3730461e-05 -8.2650141e-05 -6.2557408e-22)
(9.0349276e-05 -8.4494383e-05 1.7384302e-21)
(8.6996286e-05 -8.6251619e-05 1.2778274e-21)
(8.3671827e-05 -8.7924814e-05 -9.4324352e-23)
(8.0376092e-05 -8.9516437e-05 4.8880816e-22)
(7.7109137e-05 -9.102906e-05 -6.1412733e-24)
(7.3870871e-05 -9.246507e-05 9.6582305e-23)
(7.0661181e-05 -9.3826753e-05 1.99521e-22)
(6.7480089e-05 -9.5116317e-05 -3.3773232e-22)
(6.4327443e-05 -9.6336172e-05 4.8270187e-22)
(6.1202981e-05 -9.7488171e-05 1.1286144e-23)
(5.8106381e-05 -9.8574087e-05 1.7290095e-22)
(5.5037265e-05 -9.9596024e-05 6.6680455e-22)
(5.1995284e-05 -0.00010055561 -3.3578933e-22)
(4.898008e-05 -0.00010145444 8.3699628e-22)
(4.5991203e-05 -0.00010229417 7.4354187e-22)
(4.3028155e-05 -0.00010307621 4.9231573e-23)
(4.0090497e-05 -0.0001038021 -1.3771781e-22)
(3.7177638e-05 -0.00010447314 -3.247239e-22)
(3.4289092e-05 -0.00010509054 7.2460498e-22)
(3.1424321e-05 -0.00010565539 2.5503636e-22)
(2.8582675e-05 -0.00010616895 -1.1555375e-25)
(2.576369e-05 -0.00010663215 2.5130827e-22)
(2.2966757e-05 -0.00010704585 8.1923031e-23)
(2.0191183e-05 -0.00010741113 3.1133396e-22)
(1.7436411e-05 -0.00010772854 6.0739266e-22)
(1.4701897e-05 -0.00010799899 -2.9660732e-22)
(1.1987048e-05 -0.00010822317 -2.2311957e-22)
(9.2912792e-06 -0.00010840145 6.8780538e-22)
(6.6134764e-06 -0.0001085347 6.5853545e-22)
(3.951748e-06 -0.00010862372 -3.3374684e-22)
(1.309382e-06 -0.00010867118 1.331753e-22)
(0.00021754072 0.00018083957 1.0434166e-20)
(0.00021868963 0.00017065276 5.0697044e-21)
(0.00021942858 0.00016067786 -4.1057809e-21)
(0.0002197849 0.00015092185 3.8593367e-21)
(0.00021978476 0.00014139032 6.1021083e-21)
(0.00021945285 0.00013208734 4.1298462e-22)
(0.00021881277 0.00012301621 2.5138052e-21)
(0.00021788699 0.00011417885 -2.7173183e-22)
(0.00021669668 0.00010557651 4.1641054e-21)
(0.00021526195 9.7209519e-05 1.543609e-21)
(0.00021360175 8.9077542e-05 -1.8077219e-22)
(0.00021173401 8.1179547e-05 4.5548455e-21)
(0.00020967571 7.3513861e-05 3.4076751e-21)
(0.00020744285 6.6078485e-05 1.455603e-21)
(0.00020505043 5.8870785e-05 -6.4089929e-22)
(0.0002025126 5.188773e-05 2.0723349e-22)
(0.00019984253 4.5126099e-05 6.7867012e-21)
(0.00019705268 3.8582258e-05 3.0420072e-21)
(0.00019415482 3.2252575e-05 -3.3822226e-21)
(0.00019115984 2.6132689e-05 1.0365535e-21)
(0.00018807781 2.0218731e-05 -5.3386381e-22)
(0.00018491824 1.4506273e-05 9.0018304e-22)
(0.00018168926 8.9911385e-06 2.8678954e-21)
(0.0001784007 3.66719e-06 -1.0437754e-21)
(0.00017506216 -1.4697324e-06 4.2743739e-22)
(0.00017167835 -6.4227826e-06 -4.3721364e-22)
(0.00016825505 -1.1197664e-05 9.6071823e-22)
(0.0001647994 -1.5798985e-05 5.3228877e-22)
(0.00016131719 -2.023116e-05 -3.6755463e-22)
(0.00015781374 -2.4499109e-05 5.2010116e-22)
(0.000154294 -2.8607253e-05 -6.8696512e-22)
(0.00015076241 -3.2560224e-05 7.0059013e-22)
(0.00014722304 -3.6362373e-05 1.8950313e-21)
(0.00014367982 -4.001819e-05 7.9115978e-22)
(0.00014013631 -4.3532117e-05 5.3549257e-22)
(0.00013659572 -4.6908151e-05 -1.973487e-22)
(0.00013306094 -5.0150621e-05 3.274056e-23)
(0.0001295345 -5.3263546e-05 2.0553809e-21)
(0.00012601887 -5.6250815e-05 -3.0850577e-22)
(0.00012251633 -5.9116536e-05 1.0718523e-21)
(0.00011902882 -6.18644e-05 9.1788562e-22)
(0.0001155581 -6.4498045e-05 -6.4999828e-22)
(0.00011210568 -6.7021024e-05 1.0389013e-21)
(0.00010867299 -6.9436689e-05 3.6988622e-22)
(0.00010526124 -7.1748647e-05 6.8474308e-23)
(0.00010187154 -7.3959979e-05 -9.9964861e-23)
(9.8504885e-05 -7.607399e-05 3.9685134e-22)
(9.5162044e-05 -7.8093532e-05 1.5023729e-21)
(9.1843641e-05 -8.002162e-05 -4.9192244e-22)
(8.8550201e-05 -8.1861176e-05 3.8250071e-22)
(8.5282291e-05 -8.3614772e-05 2.9290173e-22)
(8.2040281e-05 -8.5285264e-05 -5.4444908e-22)
(7.8824418e-05 -8.6875022e-05 1.7719212e-21)
(7.563486e-05 -8.8386556e-05 3.2730654e-22)
(7.247164e-05 -8.9822033e-05 4.254288e-22)
(6.9334857e-05 -9.1183849e-05 8.2455542e-23)
(6.6224592e-05 -9.2474115e-05 -3.9223177e-22)
(6.3140746e-05 -9.3695013e-05 9.6636303e-22)
(6.0083058e-05 -9.4848413e-05 -2.7016945e-22)
(5.7051338e-05 -9.5935979e-05 -3.7041509e-23)
(5.4045384e-05 -9.6959774e-05 6.2976206e-22)
(5.1064876e-05 -9.7921447e-05 -5.3155568e-22)
(4.8109529e-05 -9.8822508e-05 1.0202837e-21)
(4.5178982e-05 -9.9664534e-05 7.2472266e-22)
(4.227286e-05 -0.00010044899 2.5055378e-22)
(3.939078e-05 -0.00010117735 3.9387964e-22)
(3.6532235e-05 -0.00010185076 -4.371363e-22)
(3.3696747e-05 -0.00010247053 9.7203048e-22)
(3.0883879e-05 -0.00010303764 6.224746e-23)
(2.8093203e-05 -0.00010355334 -2.0477311e-22)
(2.5324194e-05 -0.0001040186 2.6738429e-22)
(2.2576302e-05 -0.00010443419 2.0398363e-23)
(1.9848975e-05 -0.0001048011 3.9708887e-22)
(1.7141699e-05 -0.00010512005 5.5650719e-22)
(1.4454021e-05 -0.00010539184 8.0456339e-22)
(1.1785351e-05 -0.00010561711 3.8973739e-22)
(9.1351572e-06 -0.00010579629 -2.0550782e-22)
(6.5024732e-06 -0.00010593026 3.1258137e-22)
(3.8854525e-06 -0.00010601977 -5.4835511e-22)
(1.2874133e-06 -0.00010606749 -4.9025012e-22)
(0.00020747863 0.00017673623 3.2984247e-21)
(0.00020882356 0.00016698643 9.7039444e-21)
(0.00020976662 0.00015742579 -1.1342976e-21)
(0.0002103335 0.00014806199 -7.768704e-24)
(0.00021054923 0.00013890138 2.1072725e-21)
(0.00021043731 0.00012994898 5.8989278e-21)
(0.0002100202 0.00012120862 5.709694e-21)
(0.0002093194 0.0001126832 -2.1352053e-21)
(0.00020835525 0.00010437464 -2.9071922e-21)
(0.00020714704 9.6284151e-05 1.2988234e-21)
(0.00020571309 8.8412125e-05 3.5735361e-21)
(0.00020407071 8.0758274e-05 3.4722828e-21)
(0.0002022363 7.3321567e-05 5.7921315e-22)
(0.0002002253 6.6100856e-05 2.0269095e-21)
(0.00019805231 5.9094117e-05 8.0622594e-24)
(0.00019573109 5.2299114e-05 1.7946031e-21)
(0.00019327453 4.5713201e-05 3.5888868e-21)
(0.00019069484 3.9333429e-05 -5.5657639e-22)
(0.0001880035 3.3156719e-05 4.2274856e-22)
(0.00018521124 2.7179216e-05 2.2874696e-22)
(0.00018232793 2.139778e-05 -2.1500922e-22)
(0.00017936281 1.5808323e-05 7.8829498e-22)
(0.00017632481 1.0406864e-05 2.8820603e-22)
(0.0001732217 5.1899091e-06 -1.0279429e-21)
(0.00017006389 1.5284967e-07 1.1187459e-21)
(0.00016685764 -4.710158e-06 9.3070263e-22)
(0.00016360687 -9.4011616e-06 -3.6236405e-22)
(0.00016031929 -1.3925045e-05 2.4356329e-22)
(0.0001570008 -1.8285838e-05 7.8732304e-22)
(0.0001536567 -2.2488141e-05 -9.1343301e-22)
(0.00015029181 -2.6536003e-05 -8.9734822e-22)
(0.00014691071 -3.0433724e-05 2.5787719e-21)
(0.00014351764 -3.4185281e-05 2.0501012e-21)
(0.0001401165 -3.779487e-05 -7.6500883e-22)
(0.00013671092 -4.1266755e-05 -7.5845013e-22)
(0.00013330415 -4.4604628e-05 -5.2474939e-22)
(0.00012989911 -4.7812391e-05 2.040751e-21)
(0.00012649856 -5.0893938e-05 2.4038444e-21)
(0.00012310513 -5.3853006e-05 -1.2985851e-21)
(0.00011972112 -5.6693279e-05 -2.25524e-21)
(0.00011634847 -5.9418356e-05 3.6418973e-22)
(0.00011298899 -6.2031661e-05 2.5466973e-21)
(0.00010964437 -6.4536539e-05 4.9851674e-22)
(0.00010631621 -6.6936258e-05 -4.9575396e-22)
(0.00010300578 -6.9234085e-05 -7.8343957e-22)
(9.9714265e-05 -7.1433159e-05 -2.3482563e-22)
(9.6442731e-05 -7.3536512e-05 1.1533391e-21)
(9.3192062e-05 -7.554682e-05 1.051652e-21)
(8.9963022e-05 -7.7467065e-05 -8.0740104e-23)
(8.6756263e-05 -7.9299987e-05 -3.8855835e-22)
(8.3572404e-05 -8.104811e-05 -7.0741661e-22)
(8.0411909e-05 -8.2714029e-05 -1.6692047e-23)
(7.7275088e-05 -8.4300169e-05 8.75421e-22)
(7.4162202e-05 -8.5808912e-05 -4.6136291e-23)
(7.107348e-05 -8.7242321e-05 -4.2643157e-22)
(6.8009118e-05 -8.8602752e-05 4.9144126e-22)
(6.496915e-05 -8.9892182e-05 6.1963468e-22)
(6.195359e-05 -9.1112718e-05 8.5758803e-22)
(5.8962283e-05 -9.2266095e-05 -7.2510775e-22)
(5.5995133e-05 -9.3354138e-05 -6.9141591e-22)
(5.3052073e-05 -9.4378661e-05 3.3562263e-22)
(5.0132803e-05 -9.5341238e-05 -4.9339346e-22)
(4.7237138e-05 -9.6243501e-05 2.1112157e-22)
(4.4364835e-05 -9.7086874e-05 1.5099354e-22)
(4.1515585e-05 -9.7872823e-05 -3.5765859e-22)
(3.8689014e-05 -9.8602716e-05 3.9346088e-22)
(3.5884736e-05 -9.92777e-05 -3.9188219e-22)
(3.3102374e-05 -9.9899013e-05 3.9421975e-22)
(3.0341587e-05 -0.00010046772 5.9184943e-22)
(2.7601966e-05 -0.00010098494 -1.3056734e-22)
(2.4883032e-05 -0.00010145164 3.809323e-22)
(2.2184327e-05 -0.00010186864 2.4067987e-22)
(1.950535e-05 -0.00010223675 4.4328111e-22)
(1.6845728e-05 -0.00010255687 1.5931682e-23)
(1.4205022e-05 -0.00010282965 4.4020227e-22)
(1.1582708e-05 -0.00010305575 4.820299e-22)
(8.9783498e-06 -0.00010323562 -5.8765948e-23)
(6.3909885e-06 -0.00010337011 -1.0738994e-22)
(3.8189148e-06 -0.00010346001 -3.0239068e-22)
(1.2654053e-06 -0.0001035079 -5.3455784e-22)
(0.00019785844 0.00017257529 -1.5100823e-21)
(0.00019937707 0.00016324957 4.4185453e-21)
(0.00020050261 0.00015409178 -1.0681447e-21)
(0.00020125923 0.00014511012 -9.8118735e-21)
(0.00020167054 0.00013631166 -2.9912267e-21)
(0.00020175902 0.00012770218 3.8195895e-21)
(0.0002015461 0.00011928607 1.3113224e-21)
(0.00020105225 0.00011106699 -2.8235795e-22)
(0.00020029695 0.0001030476 -6.8273134e-21)
(0.00019929872 9.5229713e-05 -2.9378148e-23)
(0.00019807519 8.7614443e-05 2.9112782e-21)
(0.00019664303 8.0202238e-05 2.3497355e-21)
(0.00019501801 7.2992712e-05 -1.5075719e-21)
(0.00019321511 6.598534e-05 -5.066466e-21)
(0.00019124848 5.9178832e-05 -3.2934632e-22)
(0.00018913148 5.2571564e-05 2.9997345e-21)
(0.00018687671 4.6161435e-05 1.7648997e-21)
(0.00018449603 3.99462e-05 -3.6364764e-21)
(0.00018200054 3.3923154e-05 -3.2624093e-21)
(0.00017940076 2.8089215e-05 1.1991438e-22)
(0.00017670658 2.2441602e-05 2.504827e-21)
(0.00017392718 1.6976924e-05 1.0214364e-21)
(0.00017107097 1.1691896e-05 -1.585838e-21)
(0.00016814704 6.582741e-06 -1.2483535e-21)
(0.00016516235 1.6463086e-06 5.3237906e-22)
(0.00016212442 -3.1239693e-06 2.8029761e-21)
(0.00015904034 -7.7286769e-06 1.6048e-22)
(0.00015591491 -1.2172645e-05 -7.1466734e-22)
(0.00015275424 -1.645968e-05 -7.6462779e-22)
(0.0001495638 -2.0593949e-05 -2.4263383e-22)
(0.00014634862 -2.4579016e-05 2.2699036e-21)
(0.00014311323 -2.8418951e-05 1.3619891e-21)
(0.00013986192 -3.2117505e-05 6.6596623e-22)
(0.00013659867 -3.567833e-05 -1.3914992e-22)
(0.00013332703 -3.9105674e-05 1.7984652e-22)
(0.00013005035 -4.2402764e-05 5.448957e-22)
(0.00012677167 -4.5573354e-05 1.2828675e-21)
(0.00012349394 -4.8621198e-05 4.5869767e-22)
(0.00012021972 -5.1549526e-05 -2.9764194e-22)
(0.00011695123 -5.4362002e-05 -1.0870117e-21)
(0.00011369075 -5.7061983e-05 1.9656606e-22)
(0.0001104402 -5.9652638e-05 1.4676107e-21)
(0.00010720126 -6.2137167e-05 -5.6293578e-24)
(0.00010397555 -6.4518745e-05 5.3410318e-22)
(0.00010076455 -6.680035e-05 4.5178675e-22)
(9.7569491e-05 -6.8984996e-05 8.9777783e-22)
(9.4391482e-05 -7.1075637e-05 1.4489686e-21)
(9.1231618e-05 -7.3074832e-05 -5.2529132e-22)
(8.8090694e-05 -7.4985306e-05 1.6242317e-22)
(8.4969382e-05 -7.6809743e-05 9.2516478e-22)
(8.1868447e-05 -7.8550582e-05 6.8978974e-22)
(7.878848e-05 -8.0210255e-05 -1.8067872e-22)
(7.5729845e-05 -8.1791098e-05 -2.4372146e-22)
(7.2692874e-05 -8.3295438e-05 4.929562e-22)
(6.9677915e-05 -8.4725313e-05 -3.9154617e-23)
(6.6685216e-05 -8.6082868e-05 1.2638994e-21)
(6.371493e-05 -8.7370035e-05 8.3744954e-22)
(6.0767123e-05 -8.8588867e-05 7.1217203e-22)
(5.7841762e-05 -8.9740935e-05 4.5926987e-24)
(5.4938894e-05 -9.082823e-05 -7.4192882e-23)
(5.2058402e-05 -9.1852351e-05 1.1556862e-21)
(4.9200126e-05 -9.2814837e-05 -3.2929489e-22)
(4.6363987e-05 -9.371727e-05 -6.1144657e-22)
(4.3549784e-05 -9.4561063e-05 4.8024317e-22)
(4.075724e-05 -9.5347575e-05 5.5941203e-22)
(3.79861e-05 -9.6078117e-05 8.4820442e-22)
(3.5236054e-05 -9.6753902e-05 -1.612281e-22)
(3.250683e-05 -9.7376077e-05 -2.9916714e-22)
(2.9798125e-05 -9.7945692e-05 6.9333982e-22)
(2.7109536e-05 -9.8463833e-05 6.4657289e-22)
(2.4440702e-05 -9.893143e-05 9.4200999e-22)
(2.1791233e-05 -9.934928e-05 5.8009079e-22)
(1.9160771e-05 -9.9718229e-05 -8.3671841e-23)
(1.6548903e-05 -0.0001000391 4.8992318e-22)
(1.3955216e-05 -0.00010031257 1.1114822e-22)
(1.1379389e-05 -0.00010053926 -6.6863581e-23)
(8.8210061e-06 -0.00010071965 4.7111342e-22)
(6.2791598e-06 -0.0001008544 4.6847373e-22)
(3.7521722e-06 -0.00010094457 3.0212379e-22)
(1.2432931e-06 -0.00010099257 -3.731108e-22)
(0.00018866644 0.0001683731 -1.194081e-21)
(0.00019033803 0.0001594583 -1.2833604e-20)
(0.00019162573 0.0001506916 9.7604432e-22)
(0.0001925524 0.00014208174 2.8557758e-21)
(0.00019314015 0.00013363631 2.0128484e-21)
(0.00019341061 0.00012536164 8.4068805e-22)
(0.00019338409 0.00011726285 -1.2035829e-20)
(0.00019308009 0.00010934402 -1.6590569e-21)
(0.00019251725 0.00010160865 1.5497142e-21)
(0.00019171323 9.4059022e-05 1.6206784e-21)
(0.00019068499 8.6696899e-05 8.9583307e-22)
(0.00018944855 7.9523379e-05 -9.5848755e-21)
(0.00018801908 7.2538743e-05 -3.9503283e-21)
(0.00018641109 6.5742957e-05 2.54801e-22)
(0.00018463825 5.9135431e-05 4.7001176e-21)
(0.00018271348 5.271503e-05 3.2302336e-22)
(0.00018064903 4.6480322e-05 -9.7163454e-21)
(0.00017845643 4.0429542e-05 -2.8120566e-21)
(0.00017614656 3.4560458e-05 7.6212801e-22)
(0.00017372969 2.8870785e-05 2.3573081e-21)
(0.00017121552 2.335794e-05 6.7051451e-22)
(0.00016861305 1.8019105e-05 -6.6934899e-21)
(0.00016593072 1.2851328e-05 -1.7983146e-21)
(0.0001631763 7.8518451e-06 2.8437e-21)
(0.00016035727 3.0158817e-06 9.5882981e-23)
(0.00015748266 -1.6588003e-06 -5.5650927e-22)
(0.00015455826 -6.1745709e-06 -5.4200602e-21)
(0.00015158843 -1.0536489e-05 -1.1227305e-21)
(0.00014857973 -1.474768e-05 8.8775672e-22)
(0.00014553758 -1.881171e-05 -2.6813127e-22)
(0.00014246693 -2.2731838e-05 6.5009913e-22)
(0.00013937239 -2.6511728e-05 -4.6461965e-21)
(0.00013625823 -3.0154957e-05 -2.5198468e-21)
(0.00013312852 -3.3664888e-05 1.6857422e-21)
(0.0001299869 -3.7045354e-05 -5.9048986e-23)
(0.00012683664 -4.0299386e-05 -1.4434618e-21)
(0.00012368098 -4.3430594e-05 -3.74592e-21)
(0.00012052277 -4.6442408e-05 -8.9780903e-22)
(0.00011736461 -4.9337736e-05 7.1904896e-22)
(0.00011420902 -5.2120257e-05 -1.2287513e-21)
(0.00011105814 -5.4792912e-05 2.3481785e-22)
(0.00010791397 -5.7358803e-05 -3.1850211e-21)
(0.00010477842 -5.9820912e-05 -1.5007927e-21)
(0.00010165313 -6.2182305e-05 1.0270998e-21)
(9.8539628e-05 -6.4445729e-05 -7.8053356e-22)
(9.5439249e-05 -6.6613966e-05 -5.7934807e-22)
(9.2353209e-05 -6.8690002e-05 -1.8964425e-21)
(8.9282586e-05 -7.0676237e-05 -1.451012e-21)
(8.6228286e-05 -7.2575118e-05 4.8185564e-22)
(8.3191188e-05 -7.4389317e-05 -9.8573022e-23)
(8.0172057e-05 -7.6121153e-05 1.3014818e-22)
(7.7171512e-05 -7.7773006e-05 -1.7050009e-21)
(7.4190086e-05 -7.9347018e-05 -1.3846417e-21)
(7.1228238e-05 -8.0845451e-05 1.9856288e-22)
(6.8286319e-05 -8.2270342e-05 -5.8081046e-22)
(6.536462e-05 -8.3623541e-05 -1.7295273e-22)
(6.2463424e-05 -8.4907191e-05 -1.4585607e-21)
(5.9582825e-05 -8.6122996e-05 -5.4467707e-22)
(5.6722936e-05 -8.7272643e-05 1.2456081e-24)
(5.3883882e-05 -8.8358021e-05 -6.6556222e-22)
(5.1065578e-05 -8.9380598e-05 1.6355811e-22)
(4.8268015e-05 -9.034199e-05 -1.619008e-21)
(4.5491124e-05 -9.1243568e-05 -7.5420559e-22)
(4.2734742e-05 -9.2086857e-05 -2.1200865e-22)
(3.9998718e-05 -9.2873041e-05 -3.5340251e-22)
(3.7282832e-05 -9.3603465e-05 -2.0137094e-22)
(3.4586944e-05 -9.4279327e-05 -8.2951122e-22)
(3.1910764e-05 -9.4901641e-05 -5.0891546e-22)
(2.9254025e-05 -9.5471549e-05 -1.2934514e-22)
(2.6616491e-05 -9.5989996e-05 -4.9064814e-22)
(2.3997761e-05 -9.645798e-05 -2.2093501e-22)
(2.1397573e-05 -9.6876228e-05 -5.5248473e-22)
(1.8815644e-05 -9.7245612e-05 -8.2517716e-22)
(1.6251585e-05 -9.7566849e-05 -5.7630362e-22)
(1.3705087e-05 -9.7840712e-05 -5.1559332e-22)
(1.1175798e-05 -9.8067716e-05 -4.446396e-22)
(8.6633637e-06 -9.8248376e-05 -1.847706e-22)
(6.1670822e-06 -9.8383323e-05 -2.5512031e-22)
(3.6852547e-06 -9.8473565e-05 9.2463285e-23)
(1.2211058e-06 -9.8521675e-05 -1.6531704e-22)
(0.00017988872 0.00016414467 1.111853e-20)
(0.00018169382 0.0001556275 -1.1084817e-21)
(0.00018312467 0.00014723994 2.5829006e-21)
(0.000184203 0.00013899133 -2.51763e-21)
(0.00018494936 0.00013088948 -5.4982033e-21)
(0.0001853844 0.00012294123 -3.0704006e-21)
(0.00018552749 0.00011515231 -1.8628188e-21)
(0.00018539715 0.00010752739 1.0851482e-21)
(0.00018501111 0.00010007038 -1.9634079e-21)