/*--------------------------------*- C++ -*----------------------------------*\
| =========                 |                                                 |
| \\      /  F ield         | OpenFOAM: The Open Source CFD Toolbox           |
|  \\    /   O peration     | Version:  2306                                  |
|   \\  /    A nd           | Website:  www.openfoam.com                      |
|    \\/     M anipulation  |                                                 |
\*---------------------------------------------------------------------------*/
FoamFile
{
    version     2.0;
    format      ascii;
    arch        "LSB;label=32;scalar=64";
    class       volVectorField;
    location    "0.35";
    object      U_0;
}
// * * * * * * * * * * * * * * * * * * * * * * * * * * * * * * * * * * * * * //

dimensions      [0 1 -1 0 0 0 0];

internalField   nonuniform List<vector> 
51200
(
(-4.5508046e-07 -1.2390447e-05 1.2028721e-20)
(-6.6625869e-06 -8.2577989e-06 -1.6864673e-21)
(-1.5544343e-05 -7.2900472e-06 -7.6401784e-21)
(-2.5223027e-05 -6.1610288e-06 1.5253015e-20)
(-3.6620137e-05 -5.4834475e-06 2.1165691e-20)
(-4.8418207e-05 -5.1618387e-06 -8.8696816e-21)
(-6.0383929e-05 -4.9566836e-06 -6.5697116e-21)
(-7.2426082e-05 -4.8040671e-06 1.0141034e-20)
(-8.4523598e-05 -4.6721673e-06 1.5737515e-20)
(-9.6683258e-05 -4.5445674e-06 -4.794778e-21)
(-0.00010892316 -4.4135106e-06 -4.7866586e-21)
(-0.00012126407 -4.2755601e-06 4.1060853e-20)
(-0.00013372488 -4.1292621e-06 2.5693875e-20)
(-0.00014632133 -3.9741733e-06 -2.2382154e-20)
(-0.0001590659 -3.8104297e-06 -1.866767e-20)
(-0.0001719679 -3.6385291e-06 2.2884149e-20)
(-0.00018503365 -3.4592051e-06 5.2565118e-20)
(-0.00019826664 -3.2733097e-06 -4.7358189e-21)
(-0.00021166766 -3.0817552e-06 -4.0462854e-20)
(-0.00022523492 -2.8854789e-06 3.5327364e-21)
(-0.00023896424 -2.685402e-06 1.0297247e-20)
(-0.00025284912 -2.4824213e-06 1.3261086e-20)
(-0.00026688091 -2.2774072e-06 6.8165089e-20)
(-0.0002810489 -2.0712254e-06 1.1467362e-19)
(-0.00029534037 -1.8647351e-06 1.1332864e-19)
(-0.00030974071 -1.6587575e-06 -1.2823461e-19)
(-0.00032423353 -1.4541016e-06 -3.3305942e-19)
(-0.00033880078 -1.2515495e-06 -9.753262e-20)
(-0.00035342287 -1.0518284e-06 1.1523693e-19)
(-0.00036807883 -8.5564479e-07 1.9807367e-19)
(-0.00038274645 -6.6366387e-07 1.5996202e-19)
(-0.00039740242 -4.7650135e-07 -6.803481e-20)
(-0.00041202248 -2.9473296e-07 -6.7913974e-20)
(-0.00042658156 -1.1889046e-07 -1.6514009e-19)
(-0.00044105397 5.0535668e-08 -1.2104262e-19)
(-0.00045541354 2.1311271e-07 2.3040569e-19)
(-0.00046963374 3.6845424e-07 -5.0904621e-20)
(-0.00048368788 5.1621206e-07 -4.8617748e-19)
(-0.00049754926 6.5610518e-07 1.5359197e-19)
(-0.00051119132 7.8788297e-07 6.4677194e-19)
(-0.00052458773 9.1135997e-07 1.1068653e-19)
(-0.00053771264 1.0263822e-06 -2.8476705e-19)
(-0.00055054071 1.1328578e-06 -2.2068421e-19)
(-0.00056304729 1.2307276e-06 -9.1105372e-20)
(-0.00057520856 1.3199857e-06 2.1247657e-19)
(-0.0005870016 1.4006611e-06 5.7618563e-19)
(-0.00059840451 1.4728272e-06 -1.8744222e-19)
(-0.00060939652 1.5365905e-06 -2.6952807e-19)
(-0.00061995806 1.5921019e-06 -1.9176991e-19)
(-0.00063007085 1.6395251e-06 -8.4214903e-19)
(-0.00063971797 1.6790857e-06 3.9887243e-19)
(-0.0006488839 1.711014e-06 6.6740412e-19)
(-0.00065755457 1.7355694e-06 7.6041619e-20)
(-0.00066571743 1.7530325e-06 2.4807687e-19)
(-0.00067336141 1.763709e-06 -7.5387914e-19)
(-0.00068047702 1.7679221e-06 -5.9492663e-19)
(-0.00068705628 1.766005e-06 5.5393762e-19)
(-0.00069309277 1.7582954e-06 2.1916456e-19)
(-0.00069858159 1.7451591e-06 -5.9099419e-20)
(-0.00070351938 1.7269513e-06 9.7754456e-20)
(-0.00070790424 1.7040364e-06 -4.9873461e-20)
(-0.00071173571 1.6767812e-06 5.9476914e-20)
(-0.00071501478 1.6455525e-06 -4.2856982e-20)
(-0.00071774376 1.6107175e-06 -4.0892308e-19)
(-0.00071992631 1.5726314e-06 -5.3941771e-19)
(-0.0007215673 1.5316495e-06 8.5817442e-20)
(-0.00072267282 1.4881149e-06 9.2128614e-19)
(-0.00072325007 1.4423703e-06 6.6133847e-21)
(-0.00072330731 1.39474e-06 -3.7723415e-19)
(-0.00072285378 1.3455379e-06 5.029329e-19)
(-0.00072189965 1.2950679e-06 -7.8049056e-20)
(-0.00072045592 1.2436263e-06 -3.3168604e-19)
(-0.00071853439 1.1914835e-06 1.3727781e-19)
(-0.00071614752 1.1389031e-06 1.773174e-19)
(-0.00071330842 1.0861257e-06 2.1245437e-19)
(-0.00071003073 1.0333797e-06 -3.7431401e-19)
(-0.00070632856 9.8088377e-07 -3.9172129e-19)
(-0.0007022165 9.2886945e-07 2.9032263e-19)
(-0.00069770957 8.7760486e-07 3.9823784e-19)
(-0.00069282329 8.2742471e-07 -2.1080711e-19)
(-0.00068757372 7.7877457e-07 -7.1304732e-19)
(-0.00068197743 7.322707e-07 3.1278406e-19)
(-0.00067605105 6.8875977e-07 5.7337561e-19)
(-0.00066980986 6.4955344e-07 -5.687309e-21)
(-0.00066326539 6.1701214e-07 1.538379e-19)
(-0.00065642623 5.9935738e-07 -2.2899069e-19)
(-0.00064929598 5.917652e-07 3.7571663e-20)
(-0.00064189238 5.5649644e-07 1.7945317e-20)
(-0.00063425709 4.8853793e-07 -4.3665455e-19)
(-0.00062641113 4.1504354e-07 7.9587226e-20)
(-0.0006183564 3.4326397e-07 -2.8603701e-19)
(-0.00061010357 2.7506191e-07 -1.7964157e-19)
(-0.0006016656 2.1067601e-07 4.3687593e-19)
(-0.00059305582 1.4986505e-07 2.4057894e-19)
(-0.00058428737 9.2310466e-08 -6.2134754e-20)
(-0.00057537309 3.7747682e-08 -4.3289783e-19)
(-0.00056632539 -1.4037694e-08 7.1390717e-20)
(-0.00055715629 -6.3219753e-08 3.7533799e-19)
(-0.00054787736 -1.0992834e-07 1.7356918e-19)
(-0.00053849976 -1.5427677e-07 -1.4284486e-19)
(-0.00052903419 -1.9637205e-07 -4.9029171e-19)
(-0.00051949094 -2.3629508e-07 1.3870821e-19)
(-0.00050987986 -2.7413665e-07 2.4974487e-19)
(-0.00050021036 -3.0996941e-07 1.1884737e-19)
(-0.00049049142 -3.4387104e-07 -5.0390442e-20)
(-0.00048073161 -3.7591181e-07 -4.9842485e-19)
(-0.00047093907 -4.0616404e-07 1.2239715e-19)
(-0.00046112152 -4.3469213e-07 3.4740361e-19)
(-0.00045128627 -4.6157812e-07 6.6272326e-20)
(-0.00044144024 -4.8687402e-07 4.0821442e-20)
(-0.00043158995 -5.1065385e-07 -3.6514378e-19)
(-0.00042174155 -5.3297684e-07 -1.7054012e-19)
(-0.0004119008 -5.5391454e-07 2.3835075e-19)
(-0.00040207311 -5.7351617e-07 8.354388e-20)
(-0.00039226353 -5.918547e-07 3.4077581e-20)
(-0.00038247677 -6.0898607e-07 -7.2241038e-20)
(-0.00037271722 -6.2496479e-07 6.821004e-21)
(-0.00036298894 -6.3985638e-07 1.1441755e-19)
(-0.00035329567 -6.5370509e-07 -1.5096473e-20)
(-0.00034364089 -6.6657387e-07 3.4805957e-22)
(-0.00033402776 -6.7851287e-07 -8.4733542e-20)
(-0.0003244592 -6.8956683e-07 -6.0747001e-21)
(-0.00031493783 -6.9979291e-07 1.0041525e-19)
(-0.00030546606 -7.0923269e-07 3.7480643e-20)
(-0.00029604604 -7.1793243e-07 -2.9789605e-20)
(-0.00028667969 -7.2593871e-07 -1.6908943e-19)
(-0.00027736871 -7.3328226e-07 -1.858523e-20)
(-0.00026811462 -7.4001073e-07 1.403555e-19)
(-0.00025891872 -7.4616019e-07 5.1706303e-20)
(-0.00024978213 -7.5175487e-07 -4.3082333e-20)
(-0.0002407058 -7.5683222e-07 -8.8056959e-20)
(-0.0002316905 -7.6141222e-07 2.0290649e-20)
(-0.00022273687 -7.6551555e-07 6.6614629e-20)
(-0.00021384537 -7.6915435e-07 -2.4043708e-20)
(-0.00020501636 -7.7234272e-07 -8.3309187e-20)
(-0.00019625003 -7.7508328e-07 -2.2188775e-20)
(-0.0001875465 -7.7738891e-07 7.4351269e-20)
(-0.00017890575 -7.7928578e-07 3.6010062e-20)
(-0.00017032766 -7.8080603e-07 6.0848835e-21)
(-0.00016181203 -7.8196708e-07 -3.7062324e-21)
(-0.00015335856 -7.8280596e-07 -3.4988492e-20)
(-0.00014496687 -7.8333701e-07 2.699891e-20)
(-0.00013663651 -7.8358448e-07 2.0115882e-20)
(-0.00012836697 -7.8356892e-07 -1.2084657e-20)
(-0.00012015769 -7.8329975e-07 6.9273534e-21)
(-0.00011200807 -7.8279437e-07 -5.5135119e-20)
(-0.00010391751 -7.820561e-07 -1.487589e-20)
(-9.5885378e-05 -7.8108261e-07 6.2823894e-20)
(-8.7911125e-05 -7.7985623e-07 2.2518736e-20)
(-7.9994319e-05 -7.783147e-07 -2.078726e-20)
(-7.2134816e-05 -7.7631413e-07 -3.7735601e-20)
(-6.4333088e-05 -7.7350677e-07 -5.9336568e-21)
(-5.6590876e-05 -7.6909311e-07 2.8710884e-20)
(-4.8912521e-05 -7.612621e-07 9.0191264e-21)
(-4.1307411e-05 -7.461768e-07 -5.5262715e-21)
(-3.3793521e-05 -7.1688945e-07 -1.0700447e-20)
(-2.6399752e-05 -6.6630157e-07 -4.6364406e-21)
(-1.9156053e-05 -6.1354654e-07 5.114617e-21)
(-1.1989392e-05 -7.5702461e-07 1.7806276e-21)
(-4.2139897e-06 -1.7021092e-06 -3.2763408e-21)
(-2.3893447e-05 2.3875783e-05 3.8200662e-20)
(-5.9214056e-05 3.3535522e-05 -3.1881369e-21)
(-0.00010090765 3.7675729e-05 6.5278762e-21)
(-0.00014256914 4.1911538e-05 6.1223296e-20)
(-0.00018703332 4.464181e-05 3.8051572e-20)
(-0.00023217359 4.6201521e-05 -2.2205334e-20)
(-0.00027763041 4.7185413e-05 1.8269693e-20)
(-0.00032322829 4.7869118e-05 1.1143776e-20)
(-0.00036887539 4.8395988e-05 8.6905123e-21)
(-0.00041452089 4.884339e-05 3.9930253e-20)
(-0.00046013968 4.9251778e-05 3.1986776e-20)
(-0.00050571872 4.9641507e-05 8.2366951e-20)
(-0.0005512486 5.0022336e-05 1.1750488e-19)
(-0.00059671972 5.0398291e-05 1.0713326e-19)
(-0.00064212058 5.0770223e-05 4.176495e-20)
(-0.00068743695 5.113717e-05 7.726941e-20)
(-0.0007326515 5.149708e-05 1.6163949e-19)
(-0.00077774372 5.1847286e-05 1.5131754e-20)
(-0.00082268986 5.2184716e-05 -1.6851066e-19)
(-0.00086746307 5.2506091e-05 -8.414845e-20)
(-0.00091203353 5.2808021e-05 9.8493383e-21)
(-0.00095636861 5.3087118e-05 2.9953708e-20)
(-0.0010004331 5.3339978e-05 1.3801543e-19)
(-0.0010441892 5.3563194e-05 2.8898168e-19)
(-0.001087597 5.3753408e-05 1.2945384e-19)
(-0.0011306145 5.3907359e-05 -4.4246305e-19)
(-0.0011731977 5.4021944e-05 -4.883559e-19)
(-0.0012153008 5.409422e-05 -1.9272414e-19)
(-0.0012568769 5.4121484e-05 -1.2015664e-19)
(-0.0012978776 5.410124e-05 5.4617636e-19)
(-0.0013382538 5.4031252e-05 6.6364038e-19)
(-0.0013779554 5.390954e-05 -3.4568618e-19)
(-0.0014169323 5.3734407e-05 -6.6693881e-19)
(-0.001455134 5.3504426e-05 -2.2090593e-19)
(-0.0014925101 5.321847e-05 4.7860695e-19)
(-0.0015290108 5.287571e-05 3.6492365e-19)
(-0.0015645868 5.2475608e-05 -5.8489458e-19)
(-0.0015991898 5.2017924e-05 -8.5228188e-19)
(-0.0016327728 5.1502734e-05 5.5687846e-19)
(-0.0016652901 5.0930376e-05 8.1922328e-19)
(-0.0016966977 5.0301495e-05 -9.5502103e-19)
(-0.0017269535 4.9617001e-05 -3.0467061e-19)
(-0.0017560176 4.8878074e-05 1.5521771e-18)
(-0.0017838524 4.8086139e-05 2.0660178e-18)
(-0.0018104226 4.7242865e-05 -4.6312264e-20)
(-0.0018356957 4.6350138e-05 -3.1860491e-18)
(-0.001859642 4.5410056e-05 -1.8328321e-18)
(-0.0018822347 4.44249e-05 1.3796335e-18)
(-0.0019034498 4.3397131e-05 1.4280148e-18)
(-0.0019232666 4.2329343e-05 -7.6228452e-19)
(-0.0019416676 4.1224299e-05 -1.299734e-18)
(-0.0019586383 4.0084842e-05 1.4708348e-18)
(-0.0019741676 3.8913925e-05 1.8926276e-18)
(-0.0019882476 3.771456e-05 -3.1562592e-19)
(-0.0020008736 3.648983e-05 -1.2153955e-18)
(-0.0020120441 3.5242854e-05 -1.3360324e-18)
(-0.0020217607 3.3976754e-05 -1.769174e-19)
(-0.0020300282 3.2694659e-05 1.4005137e-18)
(-0.0020368543 3.1399688e-05 5.5492668e-19)
(-0.0020422498 3.0094915e-05 -1.3545159e-18)
(-0.0020462281 2.8783364e-05 -5.1466004e-19)
(-0.0020488055 2.7468008e-05 1.4792019e-18)
(-0.0020500008 2.6151731e-05 3.8608792e-19)
(-0.0020498352 2.4837341e-05 -1.804041e-18)
(-0.0020483323 2.3527528e-05 -1.0250675e-18)
(-0.0020455178 2.2224895e-05 1.0724993e-18)
(-0.0020414195 2.0931918e-05 1.3611961e-18)
(-0.002036067 1.9650963e-05 3.2347177e-19)
(-0.0020294915 1.8384254e-05 -7.5120241e-19)
(-0.0020217259 1.7133901e-05 -1.4626421e-18)
(-0.0020128045 1.5901883e-05 1.3945321e-19)
(-0.0020027626 1.4690049e-05 1.1090591e-18)
(-0.0019916369 1.3500108e-05 5.7253959e-20)
(-0.0019794648 1.2333642e-05 2.0415418e-19)
(-0.0019662845 1.1192092e-05 4.5381968e-19)
(-0.001952135 1.0076779e-05 1.554127e-19)
(-0.0019370555 8.9889416e-06 -7.0055387e-19)
(-0.0019210857 7.9297732e-06 -9.2361849e-19)
(-0.0019042655 6.9004777e-06 1.0255653e-19)
(-0.001886635 5.9022931e-06 4.013891e-19)
(-0.0018682342 4.9365035e-06 5.9903777e-20)
(-0.0018491025 4.0042188e-06 2.1687642e-19)
(-0.0018292777 3.1055602e-06 2.3770335e-19)
(-0.0018087944 2.2370574e-06 -6.331089e-19)
(-0.0017876805 1.3892858e-06 -7.933228e-20)
(-0.001765979 5.5270639e-07 5.8540504e-19)
(-0.0017437629 -2.6740451e-07 -3.5505325e-19)
(-0.001721069 -1.0691427e-06 2.7284188e-19)
(-0.0016978931 -1.8518427e-06 2.4590914e-19)
(-0.0016742636 -2.6029294e-06 -6.4462227e-19)
(-0.001650228 -3.3204033e-06 -4.6384685e-19)
(-0.0016258228 -4.00464e-06 -1.3734135e-19)
(-0.0016010812 -4.6566075e-06 4.7099134e-19)
(-0.0015760342 -5.2773941e-06 1.3698414e-19)
(-0.0015507118 -5.8680635e-06 -1.6144016e-19)
(-0.0015251427 -6.4296116e-06 8.129441e-21)
(-0.0014993547 -6.9629826e-06 1.5084396e-19)
(-0.0014733745 -7.4691067e-06 3.9126591e-19)
(-0.0014472276 -7.9488721e-06 -2.3516438e-19)
(-0.0014209386 -8.4031523e-06 -5.8038177e-19)
(-0.0013945308 -8.8328313e-06 -6.0040913e-20)
(-0.0013680268 -9.2387632e-06 4.2576752e-19)
(-0.0013414477 -9.6218043e-06 3.8499564e-19)
(-0.0013148138 -9.982811e-06 -9.359351e-20)
(-0.0012881444 -1.0322614e-05 -3.972503e-19)
(-0.0012614576 -1.0642057e-05 -2.8788137e-19)
(-0.0012347707 -1.0941955e-05 2.3998543e-19)
(-0.0012080998 -1.1223119e-05 6.1373942e-19)
(-0.0011814602 -1.1486366e-05 6.0983488e-20)
(-0.0011548663 -1.1732459e-05 -4.2582305e-19)
(-0.0011283313 -1.1962185e-05 -1.9129498e-19)
(-0.001101868 -1.2176295e-05 -1.1606824e-19)
(-0.0010754878 -1.2375535e-05 3.6460961e-19)
(-0.0010492017 -1.256061e-05 4.7116719e-19)
(-0.0010230197 -1.2732242e-05 -2.4825248e-19)
(-0.00099695105 -1.28911e-05 -4.385157e-19)
(-0.00097100426 -1.303786e-05 -8.9388854e-20)
(-0.00094518715 -1.3173166e-05 4.0100568e-19)
(-0.00091950681 -1.3297632e-05 1.3116865e-19)
(-0.00089396971 -1.3411876e-05 -4.8547319e-19)
(-0.00086858165 -1.3516482e-05 -1.52306e-19)
(-0.00084334785 -1.3612001e-05 4.2879709e-19)
(-0.00081827296 -1.3698986e-05 3.5689636e-19)
(-0.00079336106 -1.3777959e-05 -2.1803897e-19)
(-0.00076861573 -1.3849423e-05 -5.3308252e-19)
(-0.00074404002 -1.3913863e-05 -4.83295e-20)
(-0.00071963653 -1.3971734e-05 3.8129723e-19)
(-0.00069540742 -1.4023488e-05 2.1279053e-19)
(-0.00067135442 -1.4069554e-05 -7.8574999e-20)
(-0.00064747885 -1.4110333e-05 -2.4652668e-19)
(-0.00062378166 -1.4146231e-05 -9.6667629e-20)
(-0.00060026344 -1.4177618e-05 2.6773211e-19)
(-0.00057692446 -1.4204857e-05 2.6495871e-19)
(-0.00055376467 -1.4228295e-05 -8.1071751e-20)
(-0.00053078374 -1.4248273e-05 -3.1851714e-19)
(-0.00050798108 -1.4265112e-05 -6.054569e-20)
(-0.00048535587 -1.427911e-05 2.0678635e-19)
(-0.00046290707 -1.4290537e-05 9.0922709e-20)
(-0.00044063337 -1.4299646e-05 -2.1302018e-20)
(-0.00041853329 -1.4306657e-05 -5.7803508e-20)
(-0.00039660517 -1.4311798e-05 -3.0370627e-20)
(-0.00037484717 -1.4315245e-05 1.4998032e-20)
(-0.00035325733 -1.4317192e-05 4.9251063e-20)
(-0.00033183354 -1.4317798e-05 -2.8370352e-20)
(-0.00031057363 -1.4317188e-05 -9.8964996e-20)
(-0.00028947532 -1.4315482e-05 -2.3853136e-20)
(-0.00026853631 -1.4312744e-05 7.9193454e-20)
(-0.00024775429 -1.4308987e-05 9.2679873e-20)
(-0.00022712702 -1.4304104e-05 -2.87783e-20)
(-0.00020665244 -1.4297798e-05 -9.7378031e-20)
(-0.00018632887 -1.4289384e-05 -9.505345e-21)
(-0.00016615524 -1.4277431e-05 5.9128629e-20)
(-0.00014613154 -1.4259119e-05 3.6432837e-20)
(-0.00012625935 -1.4229183e-05 -1.4177077e-20)
(-0.00010654198 -1.4178824e-05 -2.8681005e-20)
(-8.6982569e-05 -1.4096954e-05 -4.0564344e-21)
(-6.7575016e-05 -1.3983706e-05 1.3962622e-20)
(-4.8280222e-05 -1.3900755e-05 1.1029988e-20)
(-2.9004097e-05 -1.4093e-05 1.7824356e-21)
(-9.6491934e-06 -1.5090467e-05 2.8480086e-22)
(-4.6785088e-05 0.00013823177 -1.3763469e-20)
(-0.00010869797 0.00014941724 -3.3288962e-20)
(-0.00017928479 0.00015588388 -3.8098827e-20)
(-0.00024806041 0.00016211875 2.0903543e-20)
(-0.00031983978 0.00016636389 3.6675813e-20)
(-0.00039205966 0.00016897543 -6.4800026e-20)
(-0.00046450359 0.00017064325 1.1342786e-20)
(-0.00053704744 0.00017175679 2.908029e-21)
(-0.00060958376 0.00017254154 5.6281359e-20)
(-0.00068202115 0.00017312703 1.8575843e-19)
(-0.00075429025 0.00017358542 1.1133037e-19)
(-0.00082633585 0.00017395539 1.3730175e-19)
(-0.00089810982 0.00017425667 4.8526e-20)
(-0.00096956719 0.00017449823 1.2983338e-19)
(-0.0010406639 0.0001746829 1.9831524e-19)
(-0.0011113554 0.00017480983 8.2262064e-20)
(-0.0011815957 0.00017487597 1.1641778e-19)
(-0.0012513375 0.00017487698 -2.5978013e-20)
(-0.0013205311 0.00017480769 -1.2858081e-19)
(-0.001389125 0.00017466247 2.3306437e-20)
(-0.0014570656 0.0001744355 8.8732962e-20)
(-0.0015242975 0.00017412094 8.6614967e-20)
(-0.0015907633 0.000173713 1.5954604e-19)
(-0.0016564041 0.00017320599 1.7470676e-19)
(-0.0017211593 0.00017259443 -6.8060551e-20)
(-0.0017849674 0.00017187308 -1.7335298e-19)
(-0.0018477658 0.00017103711 -1.1957723e-19)
(-0.0019094909 0.00017008207 -2.2499358e-19)
(-0.0019700791 0.00016900401 -2.8096884e-19)
(-0.002029466 0.00016779952 1.2953842e-19)
(-0.0020875877 0.00016646574 3.2495265e-19)
(-0.0021443805 0.00016500039 -1.1058892e-19)
(-0.0021997813 0.00016340185 -4.1962713e-19)
(-0.0022537281 0.00016166907 -2.7667876e-19)
(-0.0023061601 0.0001598017 2.8524582e-19)
(-0.0023570178 0.00015779998 3.9683684e-19)
(-0.002406244 0.00015566484 -1.1216617e-19)
(-0.0024537833 0.00015339782 -2.1402766e-19)
(-0.0024995828 0.0001510011 -4.8548389e-20)
(-0.0025435922 0.00014847748 -3.7002298e-19)
(-0.0025857642 0.00014583032 -4.9656337e-19)
(-0.0026260545 0.00014306355 4.9315546e-19)
(-0.0026644224 0.00014018165 1.1157127e-18)
(-0.0027008304 0.00013718957 9.5228739e-19)
(-0.0027352448 0.00013409273 -1.7025806e-19)
(-0.0027676359 0.00013089696 -2.0690494e-18)
(-0.0027979778 0.0001276085 -9.3094843e-19)
(-0.0028262486 0.00012423389 6.0737278e-19)
(-0.0028524307 0.00012078 8.2207912e-19)
(-0.0028765106 0.00011725393 7.5713467e-19)
(-0.002898479 0.000113663 -9.3709337e-19)
(-0.0029183309 0.00011001467 -9.6550175e-20)
(-0.0029360653 0.00010631656 1.0360334e-18)
(-0.0029516855 0.00010257629 -1.0590135e-19)
(-0.002965199 9.8801579e-05 -2.0423488e-19)
(-0.0029766171 9.5000102e-05 -4.0311528e-19)
(-0.0029859553 9.1179472e-05 -3.7765652e-19)
(-0.0029932325 8.7347235e-05 5.7521205e-19)
(-0.0029984716 8.3510786e-05 1.6438059e-19)
(-0.003001699 7.9677376e-05 -8.3466711e-19)
(-0.0030029442 7.5854051e-05 -2.2792863e-19)
(-0.0030022403 7.2047641e-05 6.1916106e-19)
(-0.002999623 6.8264719e-05 3.0502347e-20)
(-0.002995131 6.4511603e-05 -4.0388215e-19)
(-0.0029888056 6.07943e-05 3.2204608e-19)
(-0.0029806906 5.7118525e-05 3.8473167e-19)
(-0.0029708319 5.3489662e-05 -2.1892043e-19)
(-0.0029592773 4.991277e-05 -8.80452e-20)
(-0.0029460766 4.6392556e-05 -1.182343e-19)
(-0.002931281 4.293341e-05 -6.4435714e-19)
(-0.0029149431 3.9539359e-05 -6.3652112e-20)
(-0.0028971168 3.6214094e-05 3.7210574e-19)
(-0.0028778568 3.296095e-05 7.6134832e-21)
(-0.0028572186 2.9782916e-05 2.8775195e-19)
(-0.0028352584 2.6682616e-05 2.5801227e-19)
(-0.0028120325 2.366235e-05 2.7653914e-19)
(-0.0027875977 2.0724115e-05 -1.3511173e-19)
(-0.0027620105 1.7869655e-05 -8.8688358e-19)
(-0.0027353277 1.510049e-05 -2.5549162e-19)
(-0.0027076056 1.2417895e-05 6.5563801e-19)
(-0.0026789004 9.8228344e-06 4.2037001e-19)
(-0.0026492688 7.3156798e-06 -5.2018529e-19)
(-0.0026187697 4.8952734e-06 -4.1744502e-19)
(-0.0025874645 2.5588141e-06 -2.5061415e-19)
(-0.0025554052 2.9035109e-07 -1.6898475e-19)
(-0.00252262 -1.8971877e-06 2.8647762e-19)
(-0.0024891378 -4.0124477e-06 -1.2833352e-19)
(-0.0024550223 -6.0332595e-06 2.0429754e-19)
(-0.0024203411 -7.9556361e-06 5.6066537e-19)
(-0.002385142 -9.7925121e-06 -2.5365889e-19)
(-0.002349469 -1.1548228e-05 -3.8933614e-19)
(-0.0023133651 -1.3225174e-05 -3.9669346e-20)
(-0.0022768723 -1.4825214e-05 1.4002499e-19)
(-0.0022400316 -1.6350101e-05 -1.4482365e-19)
(-0.0022028825 -1.7801648e-05 3.5935008e-21)
(-0.002165463 -1.9181731e-05 4.5767982e-19)
(-0.0021278095 -2.0492309e-05 -2.6730925e-20)
(-0.0020899571 -2.1735407e-05 -2.4203081e-19)
(-0.0020519393 -2.2913083e-05 -3.303322e-19)
(-0.0020137881 -2.4027441e-05 -1.255139e-19)
(-0.0019755339 -2.5080597e-05 3.967909e-19)
(-0.0019372058 -2.6074692e-05 2.1176752e-19)
(-0.0018988312 -2.701185e-05 3.7421788e-20)
(-0.0018604363 -2.7894221e-05 -2.699063e-19)
(-0.0018220457 -2.8723921e-05 -1.3297071e-19)
(-0.0017836828 -2.9503068e-05 3.2854326e-19)
(-0.0017453693 -3.0233742e-05 7.5833317e-20)
(-0.001707126 -3.0918002e-05 3.0091372e-20)
(-0.0016689721 -3.1557887e-05 -9.6746649e-20)
(-0.0016309256 -3.2155379e-05 -3.0208021e-19)
(-0.0015930034 -3.2712444e-05 7.8911887e-20)
(-0.0015552211 -3.323099e-05 1.4152779e-19)
(-0.0015175932 -3.3712896e-05 1.1327959e-19)
(-0.0014801332 -3.4159973e-05 2.0750184e-19)
(-0.0014428532 -3.4574007e-05 -1.3601551e-19)
(-0.0014057646 -3.4956707e-05 -3.1655622e-19)
(-0.0013688779 -3.5309771e-05 -1.3046181e-19)
(-0.0013322022 -3.5634812e-05 1.5810154e-19)
(-0.0012957461 -3.5933399e-05 1.0495782e-19)
(-0.0012595172 -3.6207052e-05 -1.3035162e-19)
(-0.0012235223 -3.6457242e-05 2.3036388e-20)
(-0.0011877674 -3.6685373e-05 1.6494451e-19)
(-0.0011522576 -3.689281e-05 7.0762306e-20)
(-0.0011169976 -3.7080864e-05 -1.6818462e-19)
(-0.0010819911 -3.725079e-05 -2.1276025e-19)
(-0.0010472413 -3.7403796e-05 9.608917e-20)
(-0.0010127509 -3.7541042e-05 1.9276184e-19)
(-0.00097852181 -3.766363e-05 8.0914106e-20)
(-0.00094455551 -3.7772631e-05 -9.3084383e-20)
(-0.00091085296 -3.7869063e-05 -9.9168582e-20)
(-0.00087741462 -3.7953906e-05 4.8237147e-20)
(-0.0008442405 -3.80281e-05 8.2542001e-20)
(-0.0008113302 -3.8092532e-05 9.5036712e-20)
(-0.00077868292 -3.8148076e-05 2.6847301e-20)
(-0.00074629746 -3.8195544e-05 -7.7109103e-20)
(-0.00071417232 -3.823573e-05 -6.0495283e-20)
(-0.00068230563 -3.8269361e-05 2.9084755e-20)
(-0.00065069524 -3.8297098e-05 4.3260195e-20)
(-0.00061933874 -3.831957e-05 -2.1291276e-20)
(-0.00058823347 -3.833734e-05 -2.6594556e-20)
(-0.00055737656 -3.8350953e-05 2.7254427e-21)
(-0.00052676493 -3.8360885e-05 -3.8597084e-20)
(-0.00049639532 -3.8367604e-05 1.1295489e-20)
(-0.00046626433 -3.8371509e-05 9.482234e-21)
(-0.00043636842 -3.8372941e-05 -3.3563972e-20)
(-0.00040670396 -3.8372194e-05 2.6507676e-20)
(-0.00037726723 -3.8369457e-05 1.8098925e-20)
(-0.0003480545 -3.8364816e-05 8.7413929e-22)
(-0.00031906205 -3.8358136e-05 -4.4899621e-21)
(-0.00029028625 -3.8349003e-05 -1.0565945e-20)
(-0.0002617236 -3.833645e-05 3.4927963e-20)
(-0.00023337084 -3.8318629e-05 2.8635584e-20)
(-0.00020522483 -3.8292322e-05 2.42328e-21)
(-0.00017728219 -3.825259e-05 -2.5652388e-20)
(-0.00014953807 -3.8193595e-05 -1.1531248e-20)
(-0.00012198324 -3.8114139e-05 2.403363e-20)
(-9.4597521e-05 -3.8037264e-05 1.1046858e-20)
(-6.733789e-05 -3.806048e-05 7.4090738e-21)
(-4.0151818e-05 -3.8442429e-05 1.3416244e-20)
(-1.3246371e-05 -3.9549485e-05 2.3138338e-20)
(-6.1648184e-05 0.0003065134 -3.1740228e-19)
(-0.00014190677 0.0003154781 -1.7497875e-19)
(-0.00023219365 0.00032186485 -5.9765355e-20)
(-0.00031903294 0.00032803535 -1.8588062e-19)
(-0.00040882203 0.00033244671 -6.6410781e-20)
(-0.00049868439 0.00033528539 -1.3077579e-19)
(-0.0005885766 0.00033709346 -8.6412914e-20)
(-0.00067846327 0.0003382262 -9.4549826e-21)
(-0.00076825936 0.00033891121 7.1477265e-20)
(-0.00085786357 0.00033928853 1.7239883e-19)
(-0.00094718451 0.00033944099 1.3772904e-19)
(-0.0010361409 0.00033941571 1.151324e-19)
(-0.001124658 0.0003392382 -2.2985384e-20)
(-0.0012126654 0.00033892096 1.0086908e-19)
(-0.0013000951 0.00033846863 1.5294918e-19)
(-0.00138688 0.00033788089 -1.9444278e-20)
(-0.0014729534 0.00033715437 1.0217669e-19)
(-0.0015582483 0.00033628375 4.2017107e-20)
(-0.0016426968 0.0003352625 -2.0672082e-20)
(-0.0017262302 0.00033408337 6.4651779e-20)
(-0.0018087787 0.00033273883 7.1874646e-20)
(-0.0018902715 0.00033122131 7.9304862e-20)
(-0.0019706368 0.0003295234 5.356757e-20)
(-0.0020498021 0.000327638 -5.0773032e-20)
(-0.002127694 0.00032555843 -2.0801076e-20)
(-0.002204239 0.00032327853 -3.2841826e-20)
(-0.0022793632 0.00032079277 -2.3684972e-19)
(-0.0023529929 0.00031809634 -8.6765705e-20)
(-0.0024250548 0.00031518523 5.057441e-20)
(-0.002495476 0.00031205627 -3.9168049e-20)
(-0.0025641847 0.00030870719 -1.5160947e-19)
(-0.0026311104 0.00030513667 -1.0378129e-19)
(-0.0026961839 0.00030134433 1.6220337e-19)
(-0.002759338 0.00029733077 4.7310141e-20)
(-0.0028205074 0.00029309761 -2.3949824e-19)
(-0.0028796296 0.00028864742 -1.343463e-19)
(-0.0029366443 0.00028398379 1.8773355e-19)
(-0.0029914946 0.00027911125 2.2328746e-19)
(-0.0030441267 0.00027403527 -1.3476126e-19)
(-0.0030944901 0.00026876227 -2.395169e-19)
(-0.0031425384 0.00026329949 -6.249329e-20)
(-0.0031882288 0.00025765501 1.6954964e-19)
(-0.0032315228 0.00025183768 2.8742617e-19)
(-0.0032723861 0.00024585705 1.7499008e-20)
(-0.003310789 0.00023972333 -6.2289036e-22)
(-0.0033467061 0.0002334473 -3.5432272e-19)
(-0.003380117 0.00022704027 -3.6943936e-19)
(-0.0034110057 0.000220514 8.5109408e-20)
(-0.0034393611 0.00021388063 1.6963346e-19)
(-0.003465177 0.00020715258 4.5933907e-19)
(-0.0034884519 0.00020034253 3.4367904e-20)
(-0.0035091889 0.00019346332 -4.3150657e-19)
(-0.0035273962 0.00018652787 1.0621113e-19)
(-0.0035430862 0.00017954912 2.0778373e-19)
(-0.003556276 0.00017253996 -5.2137788e-20)
(-0.0035669874 0.00016551319 -2.1245231e-19)
(-0.0035752459 0.00015848141 -1.8920769e-19)
(-0.0035810816 0.000151457 1.6415095e-19)
(-0.0035845284 0.00014445205 4.5198331e-20)
(-0.0035856239 0.00013747831 -3.5835675e-19)
(-0.0035844093 0.00013054714 -5.4851156e-20)
(-0.0035809293 0.00012366948 2.8816789e-19)
(-0.0035752314 0.00011685579 5.9566039e-20)
(-0.0035673663 0.00011011604 -9.2957466e-20)
(-0.0035573873 0.00010345968 1.0431048e-19)
(-0.0035453502 9.6895583e-05 1.0162241e-19)
(-0.0035313128 9.0432061e-05 -2.6229702e-19)
(-0.003515335 8.4076854e-05 -1.6635135e-19)
(-0.0034974784 7.7837098e-05 -2.7122277e-20)
(-0.0034778062 7.1719333e-05 -5.8769645e-20)
(-0.0034563826 6.5729505e-05 3.8975882e-20)
(-0.003433273 5.9872953e-05 4.2819149e-20)
(-0.0034085434 5.4154404e-05 -1.0673692e-19)
(-0.0033822607 4.8577979e-05 -8.4634775e-20)
(-0.0033544918 4.3147178e-05 2.2623082e-19)
(-0.0033253039 3.7864921e-05 2.535761e-19)
(-0.0032947641 3.2733567e-05 -2.7606637e-19)
(-0.0032629394 2.7754961e-05 -5.3297511e-19)
(-0.0032298962 2.2930466e-05 -6.3802494e-20)
(-0.0031957008 1.8260982e-05 1.8822117e-19)
(-0.0031604191 1.3746899e-05 -6.0791915e-20)
(-0.0031241169 9.3879483e-06 -2.5774349e-19)
(-0.0030868584 5.1824495e-06 -2.6959714e-20)
(-0.0030487162 1.1279198e-06 1.2662928e-19)
(-0.003009723 -2.7430099e-06 1.2217927e-20)
(-0.0029699357 -6.4416291e-06 -7.9621135e-20)
(-0.0029294415 -9.9816112e-06 -2.6853466e-19)
(-0.0028882864 -1.3379989e-05 -9.5317674e-20)
(-0.0028465213 -1.6639395e-05 2.4498784e-19)
(-0.0028042004 -1.976044e-05 2.3760027e-19)
(-0.0027613769 -2.2744413e-05 -6.1558382e-20)
(-0.0027181015 -2.5593417e-05 -2.8579827e-19)
(-0.0026744231 -2.8310102e-05 -3.1075813e-20)
(-0.0026303884 -3.0897432e-05 1.4248288e-19)
(-0.002586042 -3.3358617e-05 1.497329e-19)
(-0.0025414272 -3.5697004e-05 1.0438839e-19)
(-0.0024965852 -3.7916083e-05 -2.0770112e-19)
(-0.0024515553 -4.0019423e-05 -1.6951672e-19)
(-0.0024063752 -4.2010654e-05 -1.5751745e-20)
(-0.0023610807 -4.389349e-05 1.7610615e-20)
(-0.0023157061 -4.5671633e-05 1.9637883e-19)
(-0.0022702836 -4.7348832e-05 6.2909265e-20)
(-0.002224844 -4.8928815e-05 -7.6437423e-20)
(-0.0021794162 -5.041531e-05 -6.1794776e-21)
(-0.0021340277 -5.1812022e-05 1.4855667e-19)
(-0.0020887042 -5.3122617e-05 1.2712722e-19)
(-0.0020434699 -5.4350724e-05 -8.5542942e-20)
(-0.0019983475 -5.5499903e-05 -9.1869129e-20)
(-0.0019533583 -5.6573681e-05 -1.0412121e-19)
(-0.001908522 -5.7575511e-05 -1.4427142e-19)
(-0.001863857 -5.8508767e-05 3.9978859e-22)
(-0.0018193803 -5.9376744e-05 1.3162917e-19)
(-0.0017751078 -6.0182683e-05 1.0075006e-19)
(-0.0017310538 -6.0929711e-05 4.8348026e-20)
(-0.0016872316 -6.1620891e-05 -5.3501801e-20)
(-0.0016436535 -6.2259181e-05 -1.0587857e-19)
(-0.0016003303 -6.2847474e-05 -1.1186336e-19)
(-0.0015572722 -6.3388554e-05 -1.4086044e-20)
(-0.0015144879 -6.3885113e-05 6.3171214e-20)
(-0.0014719854 -6.4339757e-05 8.8725902e-20)
(-0.0014297719 -6.4754998e-05 4.7531807e-20)
(-0.0013878533 -6.5133253e-05 -6.3059382e-20)
(-0.0013462351 -6.5476852e-05 -3.283357e-20)
(-0.0013049217 -6.5788035e-05 4.8889664e-20)
(-0.0012639168 -6.6068949e-05 8.2914215e-20)
(-0.0012232235 -6.6321653e-05 3.7672915e-20)
(-0.0011828441 -6.654812e-05 -2.5804577e-20)
(-0.0011427802 -6.6750235e-05 1.8674819e-21)
(-0.0011030331 -6.6929803e-05 -2.9900984e-20)
(-0.0010636031 -6.7088545e-05 2.1707871e-20)
(-0.0010244904 -6.7228104e-05 7.5633024e-20)
(-0.00098569425 -6.7350037e-05 2.2690338e-20)
(-0.0009472138 -6.7455827e-05 2.6765055e-20)
(-0.00090904757 -6.7546888e-05 5.4670387e-21)
(-0.00087119374 -6.7624537e-05 -3.1938808e-20)
(-0.00083365007 -6.7690041e-05 -5.1320502e-20)
(-0.000796414 -6.7744589e-05 -2.5179485e-22)
(-0.0007594826 -6.7789304e-05 5.2931324e-21)
(-0.00072285269 -6.7825263e-05 -2.2871651e-20)
(-0.00068652081 -6.7853444e-05 -1.3992199e-20)
(-0.00065048324 -6.7874787e-05 1.4807906e-20)
(-0.00061473606 -6.789015e-05 4.5310809e-22)
(-0.00057927513 -6.790032e-05 1.3994184e-20)
(-0.00054409615 -6.7906012e-05 7.9214914e-21)
(-0.00050919467 -6.790785e-05 -2.2406439e-21)
(-0.00047456612 -6.7906369e-05 2.0445459e-20)
(-0.00044020582 -6.790198e-05 -2.0992711e-20)
(-0.00040610901 -6.789494e-05 -6.1692083e-21)
(-0.00037227089 -6.7885262e-05 3.2485044e-20)
(-0.00033868658 -6.7872644e-05 3.8378389e-20)
(-0.0003053511 -6.7856272e-05 2.7030576e-20)
(-0.00027225925 -6.7834593e-05 6.1180081e-21)
(-0.0002394052 -6.7805132e-05 7.5204622e-21)
(-0.00020678178 -6.7764717e-05 -2.5936241e-20)
(-0.00017437911 -6.771118e-05 -3.5617779e-21)
(-0.00014218324 -6.7649457e-05 2.581608e-20)
(-0.00011017451 -6.7607774e-05 8.9179794e-21)
(-7.8324418e-05 -6.7669967e-05 1.7639723e-20)
(-4.661956e-05 -6.8017342e-05 2.2360308e-20)
(-1.5352015e-05 -6.8828686e-05 3.379533e-20)
(-6.9459052e-05 0.00050674563 -6.2076014e-19)
(-0.00015998625 0.00051277347 -4.0922156e-19)
(-0.00026161997 0.00051796187 -2.1193432e-19)
(-0.00035885196 0.00052307987 -4.9927246e-20)