/*--------------------------------*- C++ -*----------------------------------*\
| =========                 |                                                 |
| \\      /  F ield         | OpenFOAM: The Open Source CFD Toolbox           |
|  \\    /   O peration     | Version:  2106                                  |
|   \\  /    A nd           | Website:  www.openfoam.com                      |
|    \\/     M anipulation  |                                                 |
\*---------------------------------------------------------------------------*/
FoamFile
{
    version     2.0;
    format      ascii;
    arch        "LSB;label=32;scalar=64";
    class       surfaceScalarField;
    location    "0.023";
    object      phi;
}
// * * * * * * * * * * * * * * * * * * * * * * * * * * * * * * * * * * * * * //

dimensions      [0 3 -1 0 0 0 0];

oriented        oriented;

internalField   nonuniform List<scalar> 
8064
(
6.1108538e-05
-6.1108538e-05
0.00012157876
-6.0470219e-05
0.00018078056
-5.9201799e-05
0.00023810008
-5.7319527e-05
0.00029294739
-5.4847308e-05
0.00034476357
-5.1816183e-05
0.00039302725
-4.8263672e-05
0.00043726027
-4.4233026e-05
0.00047703269
-3.9772416e-05
0.00051196679
-3.4934102e-05
0.00054174038
-2.9773593e-05
0.00056608921
-2.434883e-05
0.00058480861
-1.87194e-05
0.0005977544
-1.2945781e-05
0.00060484302
-7.0886244e-06
0.00060605109
-1.2080696e-06
0.00060141407
4.6370189e-06
0.00059102443
1.038964e-05
0.00057502916
1.5995273e-05
0.00055362696
2.1402197e-05
0.00052706443
2.6562529e-05
0.0004956321
3.1432327e-05
0.00045966015
3.5971955e-05
0.00041951385
4.0146295e-05
0.00037558904
4.3924814e-05
0.00032830754
4.7281498e-05
0.00027811287
5.019467e-05
0.00022546616
5.2646713e-05
0.00017084243
5.4623726e-05
0.00011472727
5.611516e-05
5.7613806e-05
5.7113469e-05
2.3935226e-14
5.7613806e-05
-5.7613806e-05
5.7613806e-05
-0.00011472727
5.7113469e-05
-0.00017084243
5.611516e-05
-0.00022546616
5.4623726e-05
-0.00027811287
5.2646713e-05
-0.00032830754
5.019467e-05
-0.00037558904
4.7281498e-05
-0.00041951385
4.3924814e-05
-0.00045966015
4.0146295e-05
-0.0004956321
3.5971955e-05
-0.00052706443
3.1432327e-05
-0.00055362696
2.6562529e-05
-0.00057502916
2.1402197e-05
-0.00059102443
1.5995273e-05
-0.00060141407
1.038964e-05
-0.00060605109
4.6370189e-06
-0.00060484302
-1.2080696e-06
-0.0005977544
-7.0886244e-06
-0.00058480861
-1.2945781e-05
-0.00056608921
-1.87194e-05
-0.00054174038
-2.434883e-05
-0.00051196679
-2.9773593e-05
-0.00047703269
-3.4934102e-05
-0.00043726027
-3.9772416e-05
-0.00039302725
-4.4233026e-05
-0.00034476357
-4.8263672e-05
-0.00029294739
-5.1816183e-05
-0.00023810008
-5.4847308e-05
-0.00018078056
-5.7319527e-05
-0.00012157876
-5.9201799e-05
-6.1108538e-05
-6.0470219e-05
-6.1108538e-05
6.2799136e-05
-0.00012390767
0.00012494235
-0.00012261343
0.00018578218
-0.00012004163
0.00024468789
-0.00011622524
0.00030105333
-0.00011121275
0.00035430427
-0.00010506712
0.00040390504
-9.7864443e-05
0.0004493644
-8.969238e-05
0.00049024054
-8.0648559e-05
0.0005261453
-7.083886e-05
0.00055674744
-6.0375736e-05
0.00058177517
-4.937656e-05
0.00060101782
-3.7962048e-05
0.00061432679
-2.6254749e-05
0.00062161575
-1.437759e-05
0.00062286015
-2.45247e-06
0.00061809612
9.4010527e-06
0.00060741843
2.1067332e-05
0.00059097819
3.2435508e-05
0.00056897959
4.3400802e-05
0.00054167632
5.3865797e-05
0.00050936744
6.374121e-05
0.00047239284
7.2946556e-05
0.00043112855
8.1410576e-05
0.00038598199
8.9071379e-05
0.00033738718
9.587631e-05
0.00028580028
0.00010178157
0.00023169538
0.00010675162
0.00017556061
0.00011075849
0.00011789475
0.00011378102
5.9204152e-05
0.00011580407
2.446275e-14
0.00011681796
-5.9204152e-05
0.00011681796
-0.00011789475
0.00011580407
-0.00017556061
0.00011378102
-0.00023169538
0.00011075849
-0.00028580028
0.00010675162
-0.00033738718
0.00010178157
-0.00038598199
9.587631e-05
-0.00043112855
8.9071379e-05
-0.00047239284
8.1410576e-05
-0.00050936744
7.2946556e-05
-0.00054167632
6.374121e-05
-0.00056897959
5.3865797e-05
-0.00059097819
4.3400802e-05
-0.00060741843
3.2435508e-05
-0.00061809612
2.1067332e-05
-0.00062286015
9.4010527e-06
-0.00062161575
-2.4524699e-06
-0.00061432679
-1.437759e-05
-0.00060101782
-2.6254749e-05
-0.00058177517
-3.7962048e-05
-0.00055674744
-4.937656e-05
-0.0005261453
-6.0375736e-05
-0.00049024054
-7.083886e-05
-0.0004493644
-8.0648559e-05
-0.00040390504
-8.969238e-05
-0.00035430427
-9.7864443e-05
-0.00030105333
-0.00010506712
-0.00024468789
-0.00011121275
-0.00018578218
-0.00011622524
-0.00012494235
-0.00012004163
-6.2799136e-05
-0.00012261343
-0.00012390767
6.5813518e-05
-0.00018972119
0.00013094039
-0.00018774031
0.00019470283
-0.00018380407
0.00025644053
-0.00017796294
0.00031551892
-0.00017029114
0.00037133677
-0.00016088497
0.00042333312
-0.00014986079
0.00047099336
-0.00013735263
0.00051385449
-0.00012350969
0.00055150938
-0.00010849375
0.00058361027
-9.2476627e-05
0.00060987137
-7.5637658e-05
0.00063007066
-5.8161339e-05
0.00064405096
-4.0235047e-05
0.00065172023
-2.2046856e-05
0.00065305116
-3.7834053e-06
0.00064808013
1.4372083e-05
0.00063690533
3.224213e-05
0.00061968429
4.965655e-05
0.00059663059
6.6454507e-05
0.00056801011
8.2486277e-05
0.00053413668
9.7614638e-05
0.00049536729
0.00011171595
0.00045209704
0.00012468082
0.00040475404
0.00013641438
0.00035379431
0.00014683604
0.00029969695
0.00015587892
0.00024295967
0.0001634889
0.00018409466
0.0001696235
0.00012362502
0.00017425066
6.2081562e-05
0.00017734753
2.5305905e-14
0.00017889952
-6.2081562e-05
0.00017889952
-0.00012362502
0.00017734753
-0.00018409466
0.00017425066
-0.00024295967
0.0001696235
-0.00029969695
0.0001634889
-0.00035379431
0.00015587892
-0.00040475404
0.00014683604
-0.00045209704
0.00013641438
-0.00049536729
0.00012468082
-0.00053413668
0.00011171595
-0.00056801011
9.7614638e-05
-0.00059663059
8.2486277e-05
-0.00061968429
6.6454507e-05
-0.00063690533
4.965655e-05
-0.00064808013
3.224213e-05
-0.00065305116
1.4372083e-05
-0.00065172023
-3.7834052e-06
-0.00064405096
-2.2046856e-05
-0.00063007066
-4.0235047e-05
-0.00060987137
-5.8161339e-05
-0.00058361027
-7.5637658e-05
-0.00055150938
-9.2476627e-05
-0.00051385449
-0.00010849375
-0.00047099336
-0.00012350969
-0.00042333312
-0.00013735263
-0.00037133677
-0.00014986079
-0.00031551892
-0.00016088497
-0.00025644053
-0.00017029114
-0.00019470283
-0.00017796294
-0.00013094039
-0.00018380407
-6.5813518e-05
-0.00018774031
-0.00018972119
7.0157205e-05
-0.0002598784
0.00013958386
-0.00025716696
0.00020755882
-0.00025177903
0.00027337952
-0.00024378363
0.00033637065
-0.00023328227
0.00039589231
-0.00022040662
0.00045134721
-0.00020531569
0.00050218714
-0.00018819256
0.00054791844
-0.00016924098
0.00058810653
-0.00014868184
0.00062237957
-0.00012674967
0.00065043127
-0.00010368935
0.00067202283
-7.9752899e-05
0.00068698421
-5.5196429e-05
0.00069521462
-3.0277267e-05
0.00069668228
-5.2510587e-06
0.00069142346
1.9630901e-05
0.00067954075
4.4124832e-05
0.00066120055
6.7996752e-05
0.00063662968
9.1025376e-05
0.00060611143
0.00011300453
0.00056998085
0.00013374522
0.00052861958
0.00015307722
0.00048245032
0.00017085008
0.00043193119
0.00018693351
0.00037755014
0.00020121709
0.00031981964
0.00021360942
0.00025927175
0.0002240368
0.00019645367
0.00023244158
0.00013192391
0.00023878042
6.6248875e-05
0.00024302256
2.6344853e-14
0.00024514839
-6.6248875e-05
0.00024514839
-0.00013192391
0.00024302256
-0.00019645367
0.00023878042
-0.00025927175
0.00023244158
-0.00031981964
0.0002240368
-0.00037755014
0.00021360942
-0.00043193119
0.00020121709
-0.00048245032
0.00018693351
-0.00052861958
0.00017085008
-0.00056998085
0.00015307722
-0.00060611143
0.00013374522
-0.00063662968
0.00011300453
-0.00066120055
9.1025376e-05
-0.00067954075
6.7996752e-05
-0.00069142346
4.4124832e-05
-0.00069668228
1.9630901e-05
-0.00069521462
-5.2510586e-06
-0.00068698421
-3.0277267e-05
-0.00067202283
-5.5196429e-05
-0.00065043127
-7.9752899e-05
-0.00062237957
-0.00010368935
-0.00058810653
-0.00012674967
-0.00054791844
-0.00014868184
-0.00050218714
-0.00016924098
-0.00045134721
-0.00018819256
-0.00039589231
-0.00020531569
-0.00033637065
-0.00022040662
-0.00027337952
-0.00023328227
-0.00020755882
-0.00024378363
-0.00013958386
-0.00025177903
-7.0157205e-05
-0.00025716696
-0.0002598784
7.5885995e-05
-0.00033576439
0.00015098384
-0.00033226481
0.00022451552
-0.00032531071
0.00029572296
-0.00031499108
0.00036387744
-0.00030143675
0.00042828817
-0.00028481735
0.00048831011
-0.00026533763
0.00054335077
-0.00024323322
0.00059287603
-0.00021876624
0.00063641497
-0.00019222078
0.00067356376
-0.00016389846
0.0007039887
-0.0001341143
0.00072742846
-0.00010319266
0.00074369557
-7.1463531e-05
0.00075267714
-3.9258841e-05
0.00075433496
-6.9088763e-06
0.00074870471
2.5261152e-05
0.00073589435
5.6935187e-05
0.00071608166
8.780944e-05
0.00068951078
0.00011759626
0.00065648788
0.00014602742
0.00061737614
0.00017285696
0.0005725899
0.00019786345
0.00052258856
0.00022085142
0.00046787015
0.00024165192
0.00040896509
0.00026012215
0.00034643016
0.00027614435
0.00028084302
0.00028962394
0.00021279728
0.00030048731
0.00014289834
0.00030867937
7.1759702e-05
0.0003141612
2.7575825e-14
0.0003169081
-7.1759702e-05
0.0003169081
-0.00014289834
0.0003141612
-0.00021279728
0.00030867937
-0.00028084302
0.00030048731
-0.00034643016
0.00028962394
-0.00040896509
0.00027614435
-0.00046787015
0.00026012215
-0.00052258856
0.00024165192
-0.0005725899
0.00022085142
-0.00061737614
0.00019786345
-0.00065648788
0.00017285696
-0.00068951078
0.00014602742
-0.00071608166
0.00011759626
-0.00073589435
8.780944e-05
-0.00074870471
5.6935187e-05
-0.00075433496
2.5261152e-05
-0.00075267714
-6.9088762e-06
-0.00074369557
-3.9258841e-05
-0.00072742846
-7.1463531e-05
-0.0007039887
-0.00010319266
-0.00067356376
-0.0001341143
-0.00063641497
-0.00016389846
-0.00059287603
-0.00019222078
-0.00054335077
-0.00021876624
-0.00048831011
-0.00024323322
-0.00042828817
-0.00026533763
-0.00036387744
-0.00028481735
-0.00029572296
-0.00030143675
-0.00022451552
-0.00031499108
-0.00015098384
-0.00032531071
-7.5885995e-05
-0.00033226481
-0.00033576439
8.3106403e-05
-0.00041887079
0.0001653524
-0.00041451081
0.00024588858
-0.00040584689
0.00032388726
-0.00039298976
0.0003985526
-0.00037610209
0.00046912995
-0.00035539471
0.00053491421
-0.0003311219
0.00059525716
-0.00030357617
0.00064957364
-0.00027308273
0.00069734678
-0.00023999392
0.00073813216
-0.00020468384
0.00077156117
-0.0001675433
0.00079734354
-0.00012897503
0.00081526921
-8.9389202e-05
0.00082520946
-4.9199088e-05
0.00082711729
-8.8167085e-06
0.00082102705
3.1351388e-05
0.00080705303
7.0909215e-05
0.00078538703
0.00010947544
0.00075629486
0.00014668843
0.00072011166
0.00018221062
0.00067723626
0.00021573237
0.00062812463
0.00024697508
0.00057328287
0.00027569319
0.00051325984
0.00030167495
0.00044863994
0.00032474205
0.00038003623
0.00034474805
0.00030808418
0.000361576
0.00023343611
0.00037513538
0.0001567566
0.00038535888
7.8718546e-05
0.00039219925
2.90278e-14
0.00039562664
-7.8718545e-05
0.00039562664
-0.0001567566
0.00039219925
-0.00023343611
0.00038535888
-0.00030808418
0.00037513538
-0.00038003623
0.000361576
-0.00044863994
0.00034474805
-0.00051325984
0.00032474205
-0.00057328287
0.00030167495
-0.00062812463
0.00027569319
-0.00067723626
0.00024697508
-0.00072011166
0.00021573237
-0.00075629486
0.00018221062
-0.00078538703
0.00014668843
-0.00080705303
0.00010947544
-0.00082102705
7.0909215e-05
-0.00082711729
3.1351388e-05
-0.00082520946
-8.8167085e-06
-0.00081526921
-4.9199088e-05
-0.00079734354
-8.9389202e-05
-0.00077156117
-0.00012897503
-0.00073813216
-0.0001675433
-0.00069734678
-0.00020468384
-0.00064957364
-0.00023999392
-0.00059525716
-0.00027308273
-0.00053491421
-0.00030357617
-0.00046912995
-0.0003311219
-0.0003985526
-0.00035539471
-0.00032388726
-0.00037610209
-0.00024588858
-0.00039298976
-0.0001653524
-0.00040584689
-8.3106403e-05
-0.00041451081
-0.00041887079
9.197611e-05
-0.0005108469
0.00018300343
-0.00050553813
0.00027214527
-0.00049498872
0.00035848875
-0.00047933324
0.00044115594
-0.00045876928
0.00051931399
-0.00043355276
0.00059218423
-0.00040399213
0.00065905005
-0.00037044199
0.0007192636
-0.00033329628
0.00077225137
-0.00029298169
0.00081751876
-0.00024995123
0.00085465375
-0.00020467829
0.00088332991
-0.0001576512
0.00090330869
-0.00010936798
0.00091444104
-6.0331441e-05
0.00091666839
-1.1044052e-05
0.00091002267
3.7997109e-05
0.00089462532
8.6306565e-05
0.00087068504
0.00013341572
0.00083849414
0.00017887934
0.00079842346
0.00022228129
0.00075091603
0.0002632398
0.00069647953
0.00030141158
0.0006356781
0.00033649462
0.00056912375
0.0003682293
0.00049746786
0.00039639793
0.00042139318
0.00042082273
0.00034160657
0.00044136261
0.00025883273
0.00045790922
0.00017380899
0.00047038262
8.7281122e-05
0.00047872712
3.0594756e-14
0.00048290776
-8.7281122e-05
0.00048290776
-0.00017380899
0.00047872712
-0.00025883273
0.00047038262
-0.00034160657
0.00045790922
-0.00042139318
0.00044136261
-0.00049746786
0.00042082273
-0.00056912375
0.00039639793
-0.0006356781
0.0003682293
-0.00069647953
0.00033649462
-0.00075091603
0.00030141158
-0.00079842346
0.0002632398
-0.00083849414
0.00022228129
-0.00087068504
0.00017887934
-0.00089462532
0.00013341572
-0.00091002267
8.6306565e-05
-0.00091666839
3.7997109e-05
-0.00091444104
-1.1044052e-05
-0.00090330869
-6.0331441e-05
-0.00088332991
-0.00010936798
-0.00085465375
-0.0001576512
-0.00081751876
-0.00020467829
-0.00077225137
-0.00024995123
-0.0007192636
-0.00029298169
-0.00065905005
-0.00033329628
-0.00059218423
-0.00037044199
-0.00051931399
-0.00040399213
-0.00044115594
-0.00043355276
-0.00035848875
-0.00045876928
-0.00027214527
-0.00047933324
-0.00018300343
-0.00049498872
-9.197611e-05
-0.00050553813
-0.0005108469
0.00010270475
-0.00061355166
0.00020435429
-0.00060718767
0.0003039068
-0.00059454123
0.00040034682
-0.00057577326
0.00049269751
-0.00055111996
0.00058003176
-0.00052088701
0.00066148216
-0.00048544254
0.00073624952
-0.00044520935
0.00080361014
-0.0004006569
0.00086292181
-0.00035229336
0.00091362881
-0.00030065823
0.00095526607
-0.00024631556
0.0009874626
-0.00018984773
0.0010099444
-0.00013184979
0.0010225368
-7.2923869e-05
0.0010251662
-1.3673407e-05
0.0010178605
4.5302768e-05
0.0010007492
0.00010341793
0.00097406073
0.00016010416
0.00093811942
0.00021482065
0.00089333949
0.00026706122
0.00084021794
0.00031636135
0.00077932578
0.00036230374
0.00071129828
0.00040452212
0.00063682478
0.00044270281
0.00055663855
0.00047658416
0.00047150735
0.00050595393
0.0003822249
0.00053064506
0.0002896037
0.00055053042
0.00019446916
0.00056551716
9.7655034e-05
0.00057554124
3.2107729e-14
0.0005805628
-9.7655034e-05
0.0005805628
-0.00019446916
0.00057554124
-0.0002896037
0.00056551716
-0.0003822249
0.00055053042
-0.00047150735
0.00053064506
-0.00055663855
0.00050595393
-0.00063682478
0.00047658416
-0.00071129828
0.00044270281
-0.00077932578
0.00040452212
-0.00084021794
0.00036230374
-0.00089333949
0.00031636135
-0.00093811942
0.00026706122
-0.00097406073
0.00021482065
-0.0010007492
0.00016010416
-0.0010178605
0.00010341793
-0.0010251662
4.5302768e-05
-0.0010225368
-1.3673407e-05
-0.0010099444
-7.2923868e-05
-0.0009874626
-0.00013184979
-0.00095526607
-0.00018984773
-0.00091362881
-0.00024631556
-0.00086292181
-0.00030065823
-0.00080361014
-0.00035229336
-0.00073624952
-0.0004006569
-0.00066148216
-0.00044520935
-0.00058003176
-0.00048544253
-0.00049269751
-0.00052088701
-0.00040034682
-0.00055111996
-0.0003039068
-0.00057577326
-0.00020435429
-0.00059454123
-0.00010270475
-0.00060718767
-0.00061355166
0.0001155527
-0.00072910436
0.00022992332
-0.00072155829
0.00034194471
-0.00070656261
0.00045047909
-0.00068430764
0.00055443163
-0.00065507251
0.00065276279
-0.00061921817
0.00074449918
-0.00057717892
0.00082874289
-0.00052945306
0.00090467938
-0.00047659338
0.00097158397
-0.00041919795
0.0010288274
-0.00035790162
0.0010758802
-0.0002933684
0.0011123172
-0.00022628474
0.0011378208
-0.0001573534
0.0011521843
-8.7287388e-05
0.0011553146
-1.6803704e-05
0.0011472338
5.338357e-05
0.0011280796
0.00012257213
0.0010981038
0.00019007995
0.0010576687
0.00025525582
0.0010072406
0.00031748931
0.0009473819
0.00037622003
0.00087874046
0.00043094518
0.0008020379
0.00048122468
0.00071805736
0.00052668335
0.00062763131
0.00056701021
0.0005316302
0.00060195504
0.00043095242
0.00063132284
0.00032651594
0.00065496691
0.00021925166
0.00067278144
0.00011009854
0.00068469436
3.3381108e-14
0.00069066134
-0.00011009854
0.00069066134
-0.00021925166
0.00068469436
-0.00032651594
0.00067278144
-0.00043095242
0.00065496691
-0.0005316302
0.00063132284
-0.00062763131
0.00060195504
-0.00071805736
0.00056701021
-0.0008020379
0.00052668335
-0.00087874046
0.00048122468
-0.0009473819
0.00043094518
-0.0010072406
0.00037622003
-0.0010576687
0.00031748931
-0.0010981038
0.00025525582
-0.0011280796
0.00019007995
-0.0011472338
0.00012257213
-0.0011553146
5.338357e-05
-0.0011521843
-1.6803704e-05
-0.0011378208
-8.7287388e-05
-0.0011123172
-0.0001573534
-0.0010758802
-0.00022628474
-0.0010288274
-0.0002933684
-0.00097158397
-0.00035790162
-0.00090467938
-0.00041919795
-0.00082874289
-0.00047659338
-0.00074449918
-0.00052945306
-0.00065276279
-0.00057717892
-0.00055443163
-0.00061921817
-0.00045047909
-0.00065507251
-0.00034194471
-0.00068430764
-0.00022992332
-0.00070656261
-0.0001155527
-0.00072155829
-0.00072910436
0.00013082464
-0.000859929
0.00026031705
-0.0008510507
0.00038716176
-0.00083340732
0.0005100762
-0.00080722209
0.00062782589
-0.0007728222
0.00073923807
-0.00073063035
0.00084321375
-0.0006811546
0.0009387379
-0.00062497721
0.001024888
-0.00056274352
0.0011008413
-0.00049515122
0.0011658805
-0.00042294076
0.001219399
-0.00034688696
0.0012609061
-0.00026779186
0.001290031
-0.0001864783
0.0013065274
-0.00010378378
0.0013102774
-2.0553632e-05
0.0013012943
6.2366673e-05
0.0012797244
0.00014414195
0.0012458463
0.00022395805
0.001200067
0.00030103519
0.0011429152
0.00037464114
0.0010750317
0.00044410352
0.00099715687
0.00050881997
0.00091011654
0.000568265
0.00081480685
0.00062199304
0.00071217955
0.00066963752
0.00060322826
0.00071090632
0.00048897658
0.00074557452
0.00037046821
0.00077347527
0.00024875955
0.0007944901
0.00012491431
0.0008085396
3.4161632e-14
0.00081557565
-0.00012491431
0.00081557565
-0.00024875955
0.0008085396
-0.00037046821
0.0007944901
-0.00048897658
0.00077347527
-0.00060322826
0.00074557452
-0.00071217955
0.00071090632
-0.00081480685
0.00066963752
-0.00091011654
0.00062199304
-0.00099715687
0.000568265
-0.0010750317
0.00050881997
-0.0011429152
0.00044410352
-0.001200067
0.00037464114
-0.0012458463
0.00030103519
-0.0012797244
0.00022395805
-0.0013012943
0.00014414195
-0.0013102774
6.2366673e-05
-0.0013065274
-2.0553632e-05
-0.001290031
-0.00010378378
-0.0012609061
-0.0001864783
-0.001219399
-0.00026779186
-0.0011658805
-0.00034688696
-0.0011008413
-0.00042294076
-0.001024888
-0.00049515122
-0.0009387379
-0.00056274352
-0.00084321375
-0.00062497721
-0.00073923807
-0.0006811546
-0.00062782589
-0.00073063035
-0.0005100762
-0.0007728222
-0.00038716176
-0.00080722209
-0.00026031705
-0.00083340732
-0.00013082464
-0.0008510507
-0.000859929
0.00014885393
-0.0010087829
0.00029619914
-0.00099839591
0.00044054576
-0.00097775395
0.000580441
-0.00094711732
0.00071448607
-0.00090686727
0.00084135151
-0.00085749579
0.00095979044
-0.00079959353
0.0010686499
-0.00073383663
0.00116688
-0.00066097362
0.0012535418
-0.00058181309
0.001327814
-0.00049721294
0.0013889983
-0.00040807125
0.0014365253
-0.00031531886
0.00146996
-0.00021991302
0.0014890075
-0.00012283128
0.0014935185
-2.5064607e-05
0.001483494
7.2391113e-05
0.0014590889
0.00016854715
0.0014206115
0.00026243537
0.0013685214
0.0003531253
0.0013034211
0.00043974143
0.001226045
0.00052147962
0.0011372442
0.00059762076
0.0010379692
0.00066754001
0.00092925143
0.00073071085
0.00081218506
0.00078670388
0.00068791056
0.00083518083
0.0005576002
0.00087588489
0.00042244665
0.00090862882
0.00028365449
0.00093328226
0.00014243445
0.00094975964
3.4138838e-14
0.0009580101
-0.00014243445
0.0009580101
-0.00028365449
0.00094975964
-0.00042244665
0.00093328226
-0.0005576002
0.00090862882
-0.00068791056
0.00087588489
-0.00081218506
0.00083518083
-0.00092925143
0.00078670388
-0.0010379692
0.00073071085
-0.0011372442
0.00066754001
-0.001226045
0.00059762076
-0.0013034211
0.00052147962
-0.0013685214
0.00043974143
-0.0014206115
0.0003531253
-0.0014590889
0.00026243537
-0.001483494
0.00016854715
-0.0014935185
7.2391113e-05
-0.0014890075
-2.5064607e-05
-0.00146996
-0.00012283128
-0.0014365253
-0.00021991302
-0.0013889983
-0.00031531886
-0.001327814
-0.00040807125
-0.0012535418
-0.00049721294
-0.00116688
-0.00058181309
-0.0010686499
-0.00066097362
-0.00095979044
-0.00073383663
-0.00084135151
-0.00079959353
-0.00071448607
-0.00085749579
-0.000580441
-0.00090686727
-0.00044054576
-0.00094711732
-0.00029619914
-0.00097775395
-0.00014885393
-0.00099839591
-0.0010087829
0.00016997337
-0.0011787563
0.00033823209
-0.0011666546
0.00050308283
-0.0011426047
0.00066287408
-0.0011069086
0.00081601528
-0.0010600085
0.00096099391
-0.0010024744
0.0010963903
-0.00093498995
0.0012208902
-0.0008583365
0.0013332947
-0.00077337814
0.0014325291
-0.00068104743
0.0015176494
-0.00058233332
0.0015878496
-0.00047827144
0.0016424673
-0.00036993651
0.0016809906
-0.00025843636
0.0017030657
-0.00014490639
0.0017085041
-3.050298e-05
0.0016972898
8.3605437e-05
0.0016695848
0.00019625215
0.0016257313
0.00030628887
0.001566249
0.00041260757
0.0014918272
0.00051416326
0.0014033108
0.00060999598
0.0013016825
0.00069924906
0.001188041
0.00078118155
0.0010635782
0.00085517356
0.00092955751
0.00092072461
0.00078729272
0.00097744562
0.00063813142
0.0010250462
0.00048344136
0.0010633189
0.00032460079
0.0010921228
0.00016299238
0.0011113681
3.3212323e-14
0.0011210025
-0.00016299238
0.0011210025
-0.00032460079
0.0011113681
-0.00048344136
0.0010921228
-0.00063813142
0.0010633189
-0.00078729272
0.0010250462
-0.00092955751
0.00097744562
-0.0010635782
0.00092072461
-0.001188041
0.00085517356
-0.0013016825
0.00078118155
-0.0014033108
0.00069924906
-0.0014918272
0.00060999598
-0.001566249
0.00051416326
-0.0016257313
0.00041260757
-0.0016695848
0.00030628887
-0.0016972898
0.00019625215
-0.0017085041
8.3605437e-05
-0.0017030657
-3.050298e-05
-0.0016809906
-0.00014490639
-0.0016424673
-0.00025843636
-0.0015878496
-0.00036993651
-0.0015176494
-0.00047827144
-0.0014325291
-0.00058233332
-0.0013332947
-0.00068104743
-0.0012208902
-0.00077337814
-0.0010963903
-0.0008583365
-0.00096099391
-0.00093498995
-0.00081601528
-0.0010024744
-0.00066287408
-0.0010600085
-0.00050308283
-0.0011069086
-0.0003382321
-0.0011426047
-0.00016997337
-0.0011666546
-0.0011787563
0.00019446734
-0.0013732236
0.0003869821
-0.0013591694
0.00057561583
-0.0013312384
0.00075848733
-0.0012897801
0.00093378425
-0.0012353054
0.0010997823
-0.0011684725
0.0012548619
-0.0010900695
0.0013975219
-0.0010009965
0.0015263909
-0.00090224714
0.0016402366
-0.00079489314
0.0017379734
-0.00068007018
0.0018186697
-0.00055896767
0.0018815544
-0.00043282127
0.0019260256
-0.00030290751
0.0019516586
-0.00017053944
0.0019582167
-3.7060997e-05
0.0019456605
9.6161632e-05
0.0019141573
0.00022775531
0.0018640856
0.00035636057
0.0017960337
0.00048065944
0.0017107912
0.00059940576
0.0016093326
0.00071145456
0.0014927951
0.00081578658
0.0013624519
0.00091152479
0.001219684
0.00099794146
0.0010659528
0.0010744557
0.00090277559
0.0011406229
0.00073170439
0.0011961174
0.00055431069
0.0012407126
0.00037217433
0.0012742592
0.00018687711
0.0012966653
3.1697397e-14
0.0013078796
-0.00018687711
0.0013078796
-0.00037217433
0.0012966653
-0.00055431069
0.0012742592
-0.00073170439
0.0012407126
-0.00090277559
0.0011961174
-0.0010659528
0.0011406229
-0.001219684
0.0010744557
-0.0013624519
0.00099794146
-0.0014927951
0.00091152479
-0.0016093326
0.00081578658
-0.0017107912
0.00071145456
-0.0017960337
0.00059940576
-0.0018640856
0.00048065944
-0.0019141573
0.00035636057
-0.0019456605
0.00022775531
-0.0019582167
9.6161632e-05
-0.0019516586
-3.7060997e-05
-0.0019260256
-0.00017053944
-0.0018815544
-0.00030290751
-0.0018186697
-0.00043282127
-0.0017379734
-0.00055896767
-0.0016402366
-0.00068007018
-0.0015263909
-0.00079489314
-0.0013975219
-0.00090224714
-0.0012548619
-0.0010009965
-0.0010997823
-0.0010900695
-0.00093378425
-0.0011684725
-0.00075848733
-0.0012353054
-0.00057561583
-0.0012897801
-0.0003869821
-0.0013312384
-0.00019446734
-0.0013591694
-0.0013732236
0.00022250095
-0.0015957246
0.00044277805
-0.0015794465
0.00065863468
-0.001547095
0.00086792757
-0.001499073
0.0010685912
-0.001435969
0.0012586592
-0.0013585406
0.0014362836
-0.0012676939
0.0015997495
-0.0011644624
0.0017474885
-0.0010499861
0.0018780884
-0.000925493
0.0019903017
-0.0007922835
0.0020830535
-0.00065171943
0.0021554486
-0.0005052164
0.0022067806
-0.00035423954
0.0022365421
-0.00020030089
0.002244437
-4.4955949e-05
0.0022303951
0.00011020352
0.0021945848
0.0002635656
0.0021374222
0.00041352321
0.0020595718
0.00055850987
0.0019619375
0.00069704004
0.0018456435
0.00082774858
0.0017120063
0.00094942371
0.0015625022
0.0010610289
0.0013987318
0.0011617119
0.0012223863
0.0012508012
0.0010352177
0.0013277915
0.00083901383
0.0013923212
0.00063558021
0.0014441462
0.00042672762
0.0014831118
0.00021426554
0.0015091274
3.013715e-14
0.0015221451
-0.00021426554
0.0015221451
-0.00042672762
0.0015091274
-0.00063558021
0.0014831118
-0.00083901383
0.0014441462
-0.0010352177
0.0013923212
-0.0012223863
0.0013277915
-0.0013987318
0.0012508012
-0.0015625022
0.0011617119
-0.0017120063
0.0010610289
-0.0018456435
0.00094942371
-0.0019619375
0.00082774858
-0.0020595718
0.00069704004
-0.0021374222
0.00055850987
-0.0021945848
0.00041352321
-0.0022303951
0.0002635656
-0.002244437
0.00011020352
-0.0022365421
-4.4955949e-05
-0.0022067806
-0.00020030089
-0.0021554486
-0.00035423954
-0.0020830535
-0.0005052164
-0.0019903017
-0.00065171943
-0.0018780884
-0.0007922835
-0.0017474885
-0.000925493
-0.0015997495
-0.0010499861
-0.0014362836
-0.0011644624
-0.0012586592
-0.0012676939
-0.0010685912
-0.0013585406
-0.00086792757
-0.001435969
-0.00065863468
-0.001499073
-0.00044277805
-0.001547095
-0.00022250095
-0.0015794465
-0.0015957246
0.00025402282
-0.0018497474
0.00050551805
-0.0018309417
0.00075198864
-0.0017935656
0.00099099754
-0.0017380819
0.001220195
-0.0016651665
0.0014373431
-0.0015756886
0.0016403366
-0.0014706874
0.0018272207
-0.0013513465
0.0019962055
-0.0012189709
0.0021456771
-0.0010749646
0.0022742073
-0.00092081365
0.0023805612
-0.00075807337
0.0024637053
-0.00058836053
0.0025228159
-0.00041335009
0.00255729
-0.00023477506
0.0025667611
-5.4427011e-05
0.0025511172
0.00012584747
0.0025105209
0.00030416187
0.0024454246
0.00047861954
0.0023565747
0.00064735977
0.0022450029
0.0008086118
0.0021120031
0.00096074835
0.0019590972
0.0011023297
0.0017879935
0.0012321326
0.0016005438
0.0013491616
0.0013987017
0.0014526434
0.0011844858
0.0015420074
0.00095995101
0.001616856
0.00072716703
0.0016769302
0.00048820473
0.0017220741
0.00024512951
0.0017522026
2.8901166e-14
0.0017672746
-0.00024512951
0.0017672746
-0.00048820473
0.0017522026
-0.00072716703
0.0017220741
-0.00095995101
0.0016769302
-0.0011844858
0.001616856
-0.0013987017
0.0015420074
-0.0016005438
0.0014526434
-0.0017879935
0.0013491616
-0.0019590972
0.0012321326
-0.0021120031
0.0011023297
-0.0022450029
0.00096074835
-0.0023565747
0.0008086118
-0.0024454246
0.00064735977
-0.0025105209
0.00047861954
-0.0025511172
0.00030416187
-0.0025667611
0.00012584747
-0.00255729
-5.4427011e-05
-0.0025228159
-0.00023477506
-0.0024637053
-0.00041335009
-0.0023805612
-0.00058836053
-0.0022742073
-0.00075807337
-0.0021456771
-0.00092081365
-0.0019962055
-0.0010749646
-0.0018272207
-0.0012189709
-0.0016403366
-0.0013513465
-0.0014373431
-0.0014706874
-0.001220195
-0.0015756886
-0.00099099754
-0.0016651665
-0.00075198864
-0.0017380819
-0.00050551805
-0.0017935656
-0.00025402282
-0.0018309417
-0.0018497474
0.00028864055
-0.0021383879
0.00057442165
-0.0021167228
0.0008545179
-0.0020736619
0.0011261707
-0.0020097346
0.0013867187
-0.0019257145
0.0016336254
-0.0018225954
0.0018645031
-0.0017015651
0.002077133
-0.0015639764
0.0022694816
-0.0014113195
0.0024397145
-0.0012451976
0.0025862069
-0.0010673061
0.0027075516
-0.00087941799
0.0028025658
-0.00068337476
0.0028702988
-0.00048108309
0.0029100417
-0.00027451794
0.0029213441
-6.5729395e-05
0.0029040387
0.00014315285
0.0028582707
0.00034992988
0.0027845224
0.00055236786
0.0026836243
0.00074825783
0.0025567469
0.00093548917
0.0024053728
0.0011121225
0.0022312539
0.0012764486
0.0020363597
0.0014270268
0.0018228235
0.0015626977
0.0015928915
0.0016825754
0.0013488792
0.0017860197
0.0010931371
0.0018725981
0.00082802635
0.0019420409
0.00055590403
0.0019941964
0.00027911667
0.0020289899
2.7997911e-14
0.0020463913
-0.00027911667
0.0020463913
-0.00055590403
0.0020289899
-0.00082802635
0.0019941964
-0.0010931371
0.0019420409
-0.0013488792
0.0018725981
-0.0015928915
0.0017860197
-0.0018228235
0.0016825754
-0.0020363597
0.0015626977
-0.0022312539
0.0014270268
-0.0024053728
0.0012764486
-0.0025567469
0.0011121225
-0.0026836243
0.00093548917
-0.0027845224
0.00074825783
-0.0028582707
0.00055236786
-0.0029040387
0.00034992988
-0.0029213441
0.00014315285
-0.0029100417
-6.5729395e-05
-0.0028702988
-0.00027451794
-0.0028025658
-0.00048108309
-0.0027075516
-0.00068337476
-0.0025862069
-0.00087941799
-0.0024397145
-0.0010673061
-0.0022694816
-0.0012451976
-0.002077133
-0.0014113195
-0.0018645031
-0.0015639764
-0.0016336254
-0.0017015651
-0.0013867187
-0.0018225954
-0.0011261707
-0.0019257145
-0.0008545179
-0.0020097346
-0.00057442165
-0.0020736619
-0.00028864055
-0.0021167228
-0.0021383879
0.00032547209
-0.00246386
0.00064773436
-0.0024389851
0.00096361428
-0.0023895418
0.0012700126
-0.002316133
0.0015639371
-0.002219639
0.0018425334
-0.0021011916
0.0021031116
-0.0019621433
0.0023431705
-0.0018040353
0.0025604171
-0.0016285661
0.0027527829
-0.0014375634
0.0029184368
-0.00123296
0.0030557936