/*--------------------------------*- C++ -*----------------------------------*\
| =========                 |                                                 |
| \\      /  F ield         | OpenFOAM: The Open Source CFD Toolbox           |
|  \\    /   O peration     | Version:  2106                                  |
|   \\  /    A nd           | Website:  www.openfoam.com                      |
|    \\/     M anipulation  |                                                 |
\*---------------------------------------------------------------------------*/
FoamFile
{
    version     2.0;
    format      ascii;
    arch        "LSB;label=32;scalar=64";
    class       volVectorField;
    location    "0.023";
    object      U;
}
// * * * * * * * * * * * * * * * * * * * * * * * * * * * * * * * * * * * * * //

dimensions      [0 1 -1 0 0 0 0];

internalField   nonuniform List<vector> 
4096
(
(0.0019611273 -0.001946741 0)
(0.0058628845 -0.0019264048 0)
(0.0097034144 -0.0018859942 0)
(0.013442775 -0.0018260268 0)
(0.017042315 -0.0017472641 0)
(0.020465153 -0.0016506953 0)
(0.023676614 -0.0015375157 0)
(0.026644617 -0.0014091035 0)
(0.029340024 -0.0012669938 0)
(0.031736923 -0.0011128521 0)
(0.033812865 -0.00094844727 0)
(0.035549045 -0.000775626 0)
(0.036930433 -0.00059628709 0)
(0.037945852 -0.00041235749 0)
(0.038588015 -0.0002257689 0)
(0.038853508 -3.8433208e-05 0)
(0.038742745 0.00014775055 0)
(0.038259874 0.00033099978 0)
(0.037412555 0.0005095678 0)
(0.036211949 0.00068180262 0)
(0.034672353 0.00084618221 0)
(0.032811028 0.0010013079 0)
(0.030647914 0.0011459178 0)
(0.028205344 0.0012788937 0)
(0.025507754 0.0013992628 0)
(0.022581387 0.0015061964 0)
(0.01945401 0.0015990033 0)
(0.016154643 0.0016771216 0)
(0.012713308 0.0017401075 0)
(0.0091608052 0.0017876242 0)
(0.0055285072 0.0018194305 0)
(0.0018481806 0.0018353715 0)
(-0.0018481806 0.0018353715 0)
(-0.0055285072 0.0018194305 0)
(-0.0091608052 0.0017876242 0)
(-0.012713308 0.0017401075 0)
(-0.016154643 0.0016771216 0)
(-0.01945401 0.0015990033 0)
(-0.022581387 0.0015061964 0)
(-0.025507754 0.0013992628 0)
(-0.028205344 0.0012788937 0)
(-0.030647914 0.0011459178 0)
(-0.032811028 0.0010013079 0)
(-0.034672353 0.00084618221 0)
(-0.036211949 0.00068180262 0)
(-0.037412555 0.0005095678 0)
(-0.038259874 0.00033099978 0)
(-0.038742745 0.00014775055 0)
(-0.038853508 -3.8433207e-05 0)
(-0.038588015 -0.0002257689 0)
(-0.037945852 -0.00041235749 0)
(-0.036930433 -0.00059628709 0)
(-0.035549045 -0.000775626 0)
(-0.033812865 -0.00094844727 0)
(-0.031736923 -0.0011128521 0)
(-0.029340024 -0.0012669938 0)
(-0.026644617 -0.0014091035 0)
(-0.023676614 -0.0015375157 0)
(-0.020465153 -0.0016506953 0)
(-0.017042315 -0.0017472641 0)
(-0.013442775 -0.0018260268 0)
(-0.0097034144 -0.0018859942 0)
(-0.0058628845 -0.0019264048 0)
(-0.0019611272 -0.001946741 0)
(0.0020153306 -0.0058803326 0)
(0.0060249298 -0.0058189021 0)
(0.0099716148 -0.0056968325 0)
(0.013814344 -0.0055156882 0)
(0.017513407 -0.0052777711 0)
(0.02103091 -0.0049860697 0)
(0.024331227 -0.0046441962 0)
(0.027381403 -0.0042563137 0)
(0.030151498 -0.003827059 0)
(0.032614886 -0.0033614616 0)
(0.034748494 -0.0028648635 0)
(0.036532986 -0.0023428405 0)
(0.037952897 -0.0018011265 0)
(0.038996718 -0.0012455409 0)
(0.03965693 -0.00068191988 0)
(0.039929997 -0.00011604948 0)
(0.039816311 0.00044639894 0)
(0.039320101 0.00099994808 0)
(0.038449273 0.0015393417 0)
(0.037215261 0.0020596118 0)
(0.035632779 0.0025561445 0)
(0.033719589 0.0030247111 0)
(0.031496216 0.0034614979 0)
(0.028985654 0.0038631267 0)
(0.026213053 0.0042266612 0)
(0.023205422 0.0045496006 0)
(0.019991325 0.0048298623 0)
(0.016600601 0.0050657542 0)
(0.013064109 0.0052559423 0)
(0.00941349 0.0053994147 0)
(0.0056809631 0.0054954481 0)
(0.00189914 0.0055435781 0)
(-0.00189914 0.0055435781 0)
(-0.0056809631 0.0054954481 0)
(-0.00941349 0.0053994147 0)
(-0.013064109 0.0052559423 0)
(-0.016600601 0.0050657542 0)
(-0.019991325 0.0048298623 0)
(-0.023205422 0.0045496006 0)
(-0.026213053 0.0042266612 0)
(-0.028985654 0.0038631267 0)
(-0.031496216 0.0034614979 0)
(-0.033719589 0.0030247111 0)
(-0.035632779 0.0025561445 0)
(-0.037215261 0.0020596118 0)
(-0.038449273 0.0015393417 0)
(-0.039320101 0.00099994808 0)
(-0.039816311 0.00044639894 0)
(-0.039929997 -0.00011604948 0)
(-0.03965693 -0.00068191988 0)
(-0.038996718 -0.0012455409 0)
(-0.037952897 -0.0018011265 0)
(-0.036532986 -0.0023428405 0)
(-0.034748494 -0.0028648635 0)
(-0.032614886 -0.0033614616 0)
(-0.030151498 -0.003827059 0)
(-0.027381403 -0.0042563137 0)
(-0.024331227 -0.0046441962 0)
(-0.02103091 -0.0049860697 0)
(-0.017513407 -0.0052777711 0)
(-0.013814344 -0.0055156882 0)
(-0.0099716148 -0.0056968325 0)
(-0.0060249298 -0.0058189021 0)
(-0.0020153306 -0.0058803326 0)
(0.002112047 -0.0099744058 0)
(0.0063140925 -0.0098702265 0)
(0.010450277 -0.009663211 0)
(0.014477638 -0.0093560135 0)
(0.018354601 -0.0089525389 0)
(0.022041496 -0.0084578553 0)
(0.02550102 -0.0078780864 0)
(0.028698655 -0.0072202879 0)
(0.031603034 -0.006492316 0)
(0.034186243 -0.0057026901 0)
(0.036424072 -0.004860458 0)
(0.038296204 -0.0039750633 0)
(0.039786364 -0.003056219 0)
(0.040882401 -0.0021137865 0)
(0.041576337 -0.0011576594 0)
(0.041864365 -0.00019765096 0)
(0.041746795 0.00075661618 0)
(0.041227971 0.0016958207 0)
(0.04031612 0.0026110334 0)
(0.039023178 0.0034938161 0)
(0.037364557 0.0043363184 0)
(0.035358885 0.0051313458 0)
(0.033027711 0.005872414 0)
(0.030395192 0.0065537838 0)
(0.027487758 0.0071704729 0)
(0.024333788 0.0077182447 0)
(0.020963288 0.0081935777 0)
(0.017407594 0.008593618 0)
(0.013699093 0.0089161208 0)
(0.0098709762 0.0091593886 0)
(0.0059570261 0.0093222102 0)
(0.001991423 0.00940381 0)
(-0.001991423 0.00940381 0)
(-0.0059570261 0.0093222102 0)
(-0.0098709762 0.0091593886 0)
(-0.013699093 0.0089161208 0)
(-0.017407594 0.008593618 0)
(-0.020963288 0.0081935777 0)
(-0.024333788 0.0077182447 0)
(-0.027487758 0.0071704729 0)
(-0.030395192 0.0065537838 0)
(-0.033027711 0.005872414 0)
(-0.035358885 0.0051313458 0)
(-0.037364557 0.0043363184 0)
(-0.039023178 0.0034938161 0)
(-0.04031612 0.0026110334 0)
(-0.041227971 0.0016958207 0)
(-0.041746795 0.00075661618 0)
(-0.041864365 -0.00019765096 0)
(-0.041576337 -0.0011576594 0)
(-0.040882401 -0.0021137865 0)
(-0.039786364 -0.003056219 0)
(-0.038296204 -0.0039750633 0)
(-0.036424072 -0.004860458 0)
(-0.034186243 -0.0057026901 0)
(-0.031603034 -0.006492316 0)
(-0.028698655 -0.0072202879 0)
(-0.02550102 -0.0078780864 0)
(-0.022041496 -0.0084578553 0)
(-0.018354601 -0.0089525389 0)
(-0.014477638 -0.0093560135 0)
(-0.010450277 -0.009663211 0)
(-0.0063140925 -0.0098702265 0)
(-0.002112047 -0.0099744058 0)
(0.0022514116 -0.014303477 0)
(0.0067307769 -0.014154164 0)
(0.011140071 -0.013857463 0)
(0.015433581 -0.013417178 0)
(0.019567072 -0.012838902 0)
(0.023498324 -0.012129893 0)
(0.027187628 -0.011298917 0)
(0.030598226 -0.010356072 0)
(0.033696687 -0.0093125952 0)
(0.036453237 -0.0081806721 0)
(0.038842011 -0.0069732415 0)
(0.040841266 -0.0057038105 0)
(0.042433527 -0.0043862756 0)
(0.043605694 -0.0030347536 0)
(0.044349094 -0.0016634185 0)
(0.044659493 -0.00028634213 0)
(0.044537055 0.0010826617 0)
(0.043986258 0.0024301921 0)
(0.043015757 0.0037434059 0)
(0.041638197 0.0050101599 0)
(0.039869975 0.0062191462 0)
(0.037730962 0.0073600005 0)
(0.035244182 0.0084233856 0)
(0.032435472 0.0094010445 0)
(0.029333114 0.010285819 0)
(0.025967478 0.011071635 0)
(0.022370669 0.011753454 0)
(0.018576193 0.012327208 0)
(0.014618663 0.012789705 0)
(0.010533528 0.013138539 0)
(0.0063568447 0.013372001 0)
(0.0021250772 0.013488998 0)
(-0.0021250772 0.013488998 0)
(-0.0063568447 0.013372001 0)
(-0.010533528 0.013138539 0)
(-0.014618663 0.012789705 0)
(-0.018576193 0.012327208 0)
(-0.022370669 0.011753454 0)
(-0.025967478 0.011071635 0)
(-0.029333114 0.010285819 0)
(-0.032435472 0.0094010445 0)
(-0.035244182 0.0084233857 0)
(-0.037730962 0.0073600005 0)
(-0.039869975 0.0062191462 0)
(-0.041638197 0.0050101599 0)
(-0.043015757 0.0037434059 0)
(-0.043986258 0.0024301921 0)
(-0.044537055 0.0010826617 0)
(-0.044659493 -0.00028634213 0)
(-0.044349094 -0.0016634185 0)
(-0.043605694 -0.0030347536 0)
(-0.042433527 -0.0043862756 0)
(-0.040841266 -0.0057038105 0)
(-0.038842011 -0.0069732415 0)
(-0.036453237 -0.0081806721 0)
(-0.033696687 -0.0093125952 0)
(-0.030598226 -0.010356072 0)
(-0.027187628 -0.011298917 0)
(-0.023498324 -0.012129893 0)
(-0.019567072 -0.012838902 0)
(-0.015433581 -0.013417178 0)
(-0.011140071 -0.013857463 0)
(-0.0067307769 -0.014154164 0)
(-0.0022514116 -0.014303477 0)
(0.0024352142 -0.018953029 0)
(0.0072803357 -0.018755352 0)
(0.012049862 -0.018362546 0)
(0.016694474 -0.01777964 0)
(0.021166441 -0.017014034 0)
(0.025420196 -0.016075321 0)
(0.029412867 -0.014975083 0)
(0.033104743 -0.013726657 0)
(0.036459679 -0.01234488 0)
(0.039445437 -0.010845834 0)
(0.042033962 -0.0092465974 0)
(0.044201604 -0.0075649995 0)
(0.045929289 -0.0058193948 0)
(0.047202631 -0.004028443 0)
(0.048012009 -0.0022108996 0)
(0.048352591 -0.00038541026 0)
(0.048224314 0.0014296944 0)
(0.047631807 0.0032166033 0)
(0.046584263 0.0049582255 0)
(0.045095247 0.0066383869 0)
(0.043182449 0.0082420125 0)
(0.040867381 0.0097552824 0)
(0.038175024 0.011165751 0)
(0.035133446 0.012462424 0)
(0.031773394 0.013635787 0)
(0.028127886 0.014677786 0)
(0.024231811 0.015581763 0)
(0.020121565 0.016342357 0)
(0.015834711 0.016955384 0)
(0.011409688 0.017417703 0)
(0.0068855633 0.017727088 0)
(0.0023018205 0.017882125 0)
(-0.0023018205 0.017882125 0)
(-0.0068855633 0.017727088 0)
(-0.011409688 0.017417703 0)
(-0.015834711 0.016955384 0)
(-0.020121565 0.016342357 0)
(-0.024231811 0.015581763 0)
(-0.028127886 0.014677786 0)
(-0.031773394 0.013635787 0)
(-0.035133446 0.012462424 0)
(-0.038175024 0.011165751 0)
(-0.040867381 0.0097552824 0)
(-0.043182449 0.0082420125 0)
(-0.045095247 0.0066383869 0)
(-0.046584263 0.0049582255 0)
(-0.047631807 0.0032166033 0)
(-0.048224314 0.0014296944 0)
(-0.048352591 -0.00038541025 0)
(-0.048012009 -0.0022108996 0)
(-0.047202631 -0.004028443 0)
(-0.045929289 -0.0058193948 0)
(-0.044201604 -0.0075649995 0)
(-0.042033962 -0.0092465974 0)
(-0.039445437 -0.010845834 0)
(-0.036459679 -0.01234488 0)
(-0.033104743 -0.013726657 0)
(-0.029412867 -0.014975083 0)
(-0.025420196 -0.016075321 0)
(-0.021166441 -0.017014034 0)
(-0.016694474 -0.01777964 0)
(-0.012049862 -0.018362546 0)
(-0.0072803357 -0.018755352 0)
(-0.0024352142 -0.018953029 0)
(0.0026668713 -0.024014743 0)
(0.007972987 -0.023764567 0)
(0.013196577 -0.023267435 0)
(0.018283796 -0.022529707 0)
(0.023182526 -0.021560728 0)
(0.027842998 -0.020372615 0)
(0.032218366 -0.018979988 0)
(0.036265205 -0.01739967 0)
(0.039943948 -0.015650369 0)
(0.043219246 -0.013752358 0)
(0.046060272 -0.011727164 0)
(0.048440953 -0.0095972677 0)
(0.050340165 -0.0073858269 0)
(0.05174187 -0.0051164093 0)
(0.052635208 -0.0028127372 0)
(0.053014555 -0.00049843469 0)
(0.052879519 0.0018032287 0)
(0.052234886 0.0040695992 0)
(0.051090501 0.0062789021 0)
(0.049461074 0.0084105025 0)
(0.047365925 0.01044515 0)
(0.044828643 0.012365192 0)
(0.041876696 0.014154738 0)
(0.038540995 0.01579977 0)
(0.034855424 0.017288182 0)
(0.030856368 0.018609759 0)
(0.026582261 0.019756088 0)
(0.022073159 0.020720429 0)
(0.017370363 0.021497547 0)
(0.012516091 0.022083534 0)
(0.007553209 0.022475636 0)
(0.002525003 0.02267211 0)
(-0.002525003 0.02267211 0)
(-0.007553209 0.022475636 0)
(-0.012516091 0.022083534 0)
(-0.017370363 0.021497547 0)
(-0.022073159 0.020720429 0)
(-0.026582261 0.019756088 0)
(-0.030856368 0.018609759 0)
(-0.034855424 0.017288182 0)
(-0.038540995 0.01579977 0)
(-0.041876696 0.014154738 0)
(-0.044828643 0.012365192 0)
(-0.047365925 0.01044515 0)
(-0.049461074 0.0084105025 0)
(-0.051090501 0.0062789021 0)
(-0.052234886 0.0040695992 0)
(-0.052879519 0.0018032288 0)
(-0.053014555 -0.00049843469 0)
(-0.052635208 -0.0028127372 0)
(-0.05174187 -0.0051164093 0)
(-0.050340165 -0.0073858269 0)
(-0.048440953 -0.0095972677 0)
(-0.046060272 -0.011727164 0)
(-0.043219246 -0.013752358 0)
(-0.039943948 -0.015650369 0)
(-0.036265205 -0.01739967 0)
(-0.032218366 -0.018979988 0)
(-0.027842998 -0.020372615 0)
(-0.023182526 -0.021560728 0)
(-0.018283796 -0.022529707 0)
(-0.013196577 -0.023267435 0)
(-0.007972987 -0.023764567 0)
(-0.0026668713 -0.024014743 0)
(0.0029514403 -0.029588381 0)
(0.008823857 -0.029280593 0)
(0.014605272 -0.028668971 0)
(0.020236305 -0.027761327 0)
(0.025659468 -0.026569135 0)
(0.030819852 -0.025107259 0)
(0.035665743 -0.023393627 0)
(0.040149164 -0.021448851 0)
(0.044226346 -0.019295842 0)
(0.047858117 -0.016959419 0)
(0.051010221 -0.014465935 0)
(0.053653588 -0.01184292 0)
(0.055764538 -0.0091187554 0)
(0.057324956 -0.0063223642 0)
(0.058322411 -0.0034829106 0)
(0.05875025 -0.00062950024 0)
(0.058607625 0.0022091303 0)
(0.05789947 0.0050049381 0)
(0.056636399 0.007730911 0)
(0.054834516 0.010361407 0)
(0.052515139 0.012872477 0)
(0.049704429 0.015242154 0)
(0.046432943 0.017450676 0)
(0.042735122 0.019480638 0)
(0.038648748 0.02131705 0)
(0.034214393 0.022947311 0)
(0.02947488 0.024361096 0)
(0.024474796 0.025550178 0)
(0.019260052 0.026508213 0)
(0.013877517 0.027230495 0)
(0.008374722 0.027713733 0)
(0.0027996166 0.027955851 0)
(-0.0027996166 0.027955851 0)
(-0.008374722 0.027713733 0)
(-0.013877517 0.027230495 0)
(-0.019260052 0.026508213 0)
(-0.024474796 0.025550178 0)
(-0.02947488 0.024361096 0)
(-0.034214393 0.022947311 0)
(-0.038648748 0.02131705 0)
(-0.042735122 0.019480638 0)
(-0.046432943 0.017450676 0)
(-0.049704429 0.015242154 0)
(-0.052515139 0.012872477 0)
(-0.054834516 0.010361407 0)
(-0.056636399 0.007730911 0)
(-0.05789947 0.0050049381 0)
(-0.058607625 0.0022091303 0)
(-0.05875025 -0.00062950023 0)
(-0.058322411 -0.0034829106 0)
(-0.057324956 -0.0063223642 0)
(-0.055764538 -0.0091187553 0)
(-0.053653588 -0.01184292 0)
(-0.051010221 -0.014465935 0)
(-0.047858117 -0.016959419 0)
(-0.044226346 -0.019295842 0)
(-0.040149164 -0.021448851 0)
(-0.035665743 -0.023393627 0)
(-0.030819852 -0.025107259 0)
(-0.025659468 -0.026569135 0)
(-0.020236305 -0.027761327 0)
(-0.014605272 -0.028668971 0)
(-0.008823857 -0.029280593 0)
(-0.0029514403 -0.029588381 0)
(0.0032956453 -0.035785336 0)
(0.0098530558 -0.035413737 0)
(0.016309258 -0.034675304 0)
(0.022598205 -0.033579449 0)
(0.028655944 -0.032139988 0)
(0.034421369 -0.030374808 0)
(0.039836897 -0.028305464 0)
(0.044849061 -0.025956722 0)
(0.049409011 -0.023356091 0)
(0.053472942 -0.020533357 0)
(0.057002438 -0.017520146 0)
(0.059964767 -0.01434951 0)
(0.062333115 -0.011055558 0)
(0.064086796 -0.0076731015 0)
(0.065211415 -0.0042373208 0)
(0.065699002 -0.00078341492 0)
(0.065548092 0.0026537638 0)
(0.064763739 0.0060401067 0)
(0.063357445 0.0093426734 0)
(0.061346978 0.01253013 0)
(0.058756077 0.015573174 0)
(0.055614038 0.018444918 0)
(0.051955193 0.021121195 0)
(0.047818314 0.023580763 0)
(0.04324596 0.025805391 0)
(0.038283824 0.027779823 0)
(0.032980092 0.029491634 0)
(0.027384869 0.030930999 0)
(0.021549668 0.032090399 0)
(0.015526996 0.032964309 0)
(0.0093700205 0.033548897 0)
(0.0031323175 0.033841766 0)
(-0.0031323174 0.033841766 0)
(-0.0093700205 0.033548897 0)
(-0.015526996 0.032964309 0)
(-0.021549668 0.032090399 0)
(-0.027384869 0.030930999 0)
(-0.032980092 0.029491634 0)
(-0.038283824 0.027779823 0)
(-0.04324596 0.025805391 0)
(-0.047818314 0.023580763 0)
(-0.051955193 0.021121195 0)
(-0.055614038 0.018444918 0)
(-0.058756077 0.015573174 0)
(-0.061346978 0.01253013 0)
(-0.063357445 0.0093426734 0)
(-0.064763739 0.0060401067 0)
(-0.065548092 0.0026537638 0)
(-0.065699002 -0.00078341491 0)
(-0.065211415 -0.0042373208 0)
(-0.064086796 -0.0076731015 0)
(-0.062333115 -0.011055558 0)
(-0.059964767 -0.01434951 0)
(-0.057002438 -0.017520146 0)
(-0.053472942 -0.020533357 0)
(-0.049409011 -0.023356091 0)
(-0.044849061 -0.025956722 0)
(-0.039836897 -0.028305464 0)
(-0.034421369 -0.030374808 0)
(-0.028655944 -0.032139988 0)
(-0.022598205 -0.033579449 0)
(-0.016309258 -0.034675304 0)
(-0.0098530558 -0.035413737 0)
(-0.0032956453 -0.035785336 0)
(0.0037078377 -0.042732105 0)
(0.011085561 -0.042289272 0)
(0.018349907 -0.041409273 0)
(0.025426883 -0.040103296 0)
(0.032244825 -0.038387754 0)
(0.038735236 -0.036283883 0)
(0.044833529 -0.033817246 0)
(0.050479675 -0.031017189 0)
(0.055618748 -0.027916285 0)
(0.060201389 -0.024549784 0)
(0.064184182 -0.020955107 0)
(0.067529969 -0.017171383 0)
(0.070208135 -0.013239037 0)
(0.072194845 -0.0091994042 0)
(0.07347327 -0.0050943587 0)
(0.074033777 -0.00096592879 0)
(0.073874074 0.0031441309 0)
(0.072999283 0.0071948175 0)
(0.071421912 0.011146411 0)
(0.069161691 0.014961037 0)
(0.066245262 0.018603223 0)
(0.062705705 0.022040413 0)
(0.05858193 0.025243373 0)
(0.053917965 0.028186474 0)
(0.048762171 0.030847808 0)
(0.043166447 0.033209149 0)
(0.037185469 0.035255761 0)
(0.030876 0.036976095 0)
(0.024296293 0.038361402 0)
(0.017505616 0.039405325 0)
(0.010563882 0.040103505 0)
(0.0035313854 0.040453238 0)
(-0.0035313854 0.040453238 0)
(-0.010563882 0.040103505 0)
(-0.017505616 0.039405325 0)
(-0.024296293 0.038361402 0)
(-0.030876 0.036976095 0)
(-0.037185469 0.035255761 0)
(-0.043166447 0.033209149 0)
(-0.048762171 0.030847808 0)
(-0.053917965 0.028186474 0)
(-0.05858193 0.025243373 0)
(-0.062705705 0.022040413 0)
(-0.066245262 0.018603223 0)
(-0.069161691 0.014961037 0)
(-0.071421912 0.011146411 0)
(-0.072999283 0.0071948175 0)
(-0.073874074 0.0031441309 0)
(-0.074033777 -0.00096592879 0)
(-0.07347327 -0.0050943587 0)
(-0.072194845 -0.0091994042 0)
(-0.070208135 -0.013239037 0)
(-0.067529969 -0.017171383 0)
(-0.064184182 -0.020955107 0)
(-0.060201389 -0.024549784 0)
(-0.055618748 -0.027916285 0)
(-0.050479675 -0.031017189 0)
(-0.044833529 -0.033817246 0)
(-0.038735236 -0.036283883 0)
(-0.032244825 -0.038387754 0)
(-0.025426883 -0.040103296 0)
(-0.018349907 -0.041409273 0)
(-0.011085561 -0.042289272 0)
(-0.0037078377 -0.042732105 0)
(0.0041977899 -0.050573433 0)
(0.012550598 -0.05005055 0)
(0.02077563 -0.04901146 0)
(0.028789485 -0.047469335 0)
(0.036511374 -0.045443489 0)
(0.043864047 -0.042958886 0)
(0.050774617 -0.040045545 0)
(0.057175276 -0.036737897 0)
(0.063003886 -0.033074118 0)
(0.068204483 -0.029095502 0)
(0.072727682 -0.024845873 0)
(0.076531035 -0.020371082 0)
(0.079579345 -0.015718553 0)
(0.081844961 -0.010936881 0)
(0.083308062 -0.0060754381 0)
(0.083956932 -0.0011839531 0)
(0.083788185 0.0036879738 0)
(0.082806926 0.0084914414 0)
(0.081026783 0.013178907 0)
(0.078469778 0.017704911 0)
(0.075165998 0.022026806 0)
(0.071153057 0.026105438 0)
(0.066475378 0.029905696 0)
(0.061183324 0.033396892 0)
(0.055332248 0.036552925 0)
(0.048981526 0.039352225 0)
(0.042193628 0.041777507 0)
(0.035033292 0.043815371 0)
(0.02756682 0.045455793 0)
(0.01986153 0.04669159 0)
(0.011985347 0.047517904 0)
(0.0040065248 0.047931763 0)
(-0.0040065248 0.047931763 0)
(-0.011985347 0.047517904 0)
(-0.01986153 0.04669159 0)
(-0.02756682 0.045455793 0)
(-0.035033292 0.043815371 0)
(-0.042193628 0.041777507 0)
(-0.048981526 0.039352225 0)
(-0.055332248 0.036552925 0)
(-0.061183324 0.033396892 0)
(-0.066475378 0.029905696 0)
(-0.071153057 0.026105438 0)
(-0.075165998 0.022026806 0)
(-0.078469778 0.017704911 0)
(-0.081026783 0.013178907 0)
(-0.082806926 0.0084914414 0)
(-0.083788185 0.0036879738 0)
(-0.083956932 -0.0011839531 0)
(-0.083308062 -0.0060754381 0)
(-0.081844961 -0.010936881 0)
(-0.079579345 -0.015718553 0)
(-0.076531035 -0.020371082 0)
(-0.072727682 -0.024845873 0)
(-0.068204483 -0.029095502 0)
(-0.063003886 -0.033074118 0)
(-0.057175276 -0.036737897 0)
(-0.050774617 -0.040045545 0)
(-0.043864047 -0.042958886 0)
(-0.036511374 -0.045443489 0)
(-0.028789485 -0.047469335 0)
(-0.02077563 -0.04901146 0)
(-0.012550598 -0.05005055 0)
(-0.0041977899 -0.050573433 0)
(0.004776195 -0.059474822 0)
(0.014280148 -0.058861487 0)
(0.023639398 -0.057642629 0)
(0.032759484 -0.055833648 0)
(0.041548884 -0.053457111 0)
(0.049920052 -0.050542157 0)
(0.057790337 -0.047123788 0)
(0.065082765 -0.043242102 0)
(0.071726698 -0.038941514 0)
(0.077658373 -0.034270025 0)
(0.082821347 -0.029278572 0)
(0.087166889 -0.024020467 0)
(0.090654338 -0.018550925 0)
(0.093251451 -0.012926652 0)
(0.094934774 -0.0072054484 0)
(0.095689999 -0.0014457674 0)
(0.095512317 0.0042938244 0)
(0.09440668 0.0099553194 0)
(0.09238794 0.015482087 0)
(0.08948076 0.020819802 0)
(0.085719286 0.025917405 0)
(0.081146524 0.030728004 0)
(0.075813484 0.035209624 0)
(0.069778119 0.039325705 0)
(0.063104157 0.043045331 0)
(0.055859913 0.04634316 0)
(0.048117157 0.049199097 0)
(0.039950117 0.051597761 0)
(0.031434643 0.053527825 0)
(0.022647571 0.054981312 0)
(0.013666276 0.055952924 0)
(0.0045683831 0.056439474 0)
(-0.0045683831 0.056439474 0)
(-0.013666276 0.055952924 0)
(-0.022647571 0.054981312 0)
(-0.031434643 0.053527825 0)
(-0.039950117 0.051597761 0)
(-0.048117157 0.049199097 0)
(-0.055859913 0.04634316 0)
(-0.063104157 0.043045331 0)
(-0.069778119 0.039325705 0)
(-0.075813484 0.035209624 0)
(-0.081146524 0.030728004 0)
(-0.085719286 0.025917405 0)
(-0.08948076 0.020819802 0)
(-0.09238794 0.015482087 0)
(-0.09440668 0.0099553194 0)
(-0.095512317 0.0042938244 0)
(-0.095689999 -0.0014457674 0)
(-0.094934774 -0.0072054484 0)
(-0.093251451 -0.012926652 0)
(-0.090654338 -0.018550925 0)
(-0.087166889 -0.024020467 0)
(-0.082821347 -0.029278572 0)
(-0.077658373 -0.034270025 0)
(-0.071726698 -0.038941514 0)
(-0.065082765 -0.043242102 0)
(-0.057790337 -0.047123788 0)
(-0.049920052 -0.050542157 0)
(-0.041548884 -0.053457111 0)
(-0.032759484 -0.055833648 0)
(-0.023639398 -0.057642629 0)
(-0.014280148 -0.058861487 0)
(-0.004776195 -0.059474822 0)
(0.0054537269 -0.069623688 0)
(0.016306134 -0.068907712 0)
(0.026994089 -0.067484851 0)
(0.037410224 -0.065373022 0)
(0.04745049 -0.062598452 0)
(0.05701532 -0.059194978 0)
(0.066010652 -0.055203193 0)
(0.074348804 -0.050669542 0)
(0.081949195 -0.04564541 0)
(0.088738931 -0.040186286 0)
(0.094653296 -0.034351028 0)
(0.099636176 -0.028201259 0)
(0.10364046 -0.021800891 0)
(0.10662845 -0.015215715 0)
(0.10857231 -0.0085130281 0)
(0.10945457 -0.0017611923 0)
(0.10926857 0.0049709444 0)
(0.10801892 0.011614831 0)
(0.10572176 0.018103221 0)
(0.10240476 0.024371368 0)
(0.098106799 0.030358287 0)
(0.092877237 0.03600796 0)
(0.086774895 0.041270338 0)
(0.079866745 0.046102013 0)
(0.072226471 0.050466524 0)
(0.063932998 0.054334263 0)
(0.055069109 0.057682034 0)
(0.045720232 0.060492359 0)
(0.035973455 0.062752605 0)
(0.025916786 0.064454067 0)
(0.015638659 0.065591097 0)
(0.0052276505 0.066160374 0)
(-0.0052276505 0.066160374 0)
(-0.015638659 0.065591097 0)
(-0.025916786 0.064454067 0)
(-0.035973455 0.062752605 0)
(-0.045720232 0.060492359 0)
(-0.055069109 0.057682034 0)
(-0.063932998 0.054334263 0)
(-0.072226471 0.050466524 0)
(-0.079866745 0.046102013 0)
(-0.086774895 0.041270338 0)
(-0.092877237 0.03600796 0)
(-0.098106799 0.030358287 0)
(-0.10240476 0.024371368 0)
(-0.10572176 0.018103221 0)
(-0.10801892 0.011614831 0)
(-0.10926857 0.0049709445 0)
(-0.10945457 -0.0017611923 0)
(-0.10857231 -0.0085130281 0)
(-0.10662845 -0.015215715 0)
(-0.10364046 -0.021800891 0)
(-0.099636176 -0.028201259 0)
(-0.094653296 -0.034351028 0)
(-0.088738931 -0.040186286 0)
(-0.081949195 -0.04564541 0)
(-0.074348804 -0.050669542 0)
(-0.066010652 -0.055203193 0)
(-0.05701532 -0.059194978 0)
(-0.04745049 -0.062598452 0)
(-0.037410224 -0.065373022 0)
(-0.026994089 -0.067484851 0)
(-0.016306134 -0.068907712 0)
(-0.0054537269 -0.069623688 0)
(0.0062395063 -0.081228127 0)
(0.018655836 -0.080395342 0)
(0.030884895 -0.078740311 0)
(0.042804402 -0.076283791 0)
(0.054295821 -0.073056148 0)
(0.065245681 -0.069096513 0)
(0.075546717 -0.064451776 0)
(0.085098851 -0.059175515 0)
(0.093809986 -0.053326935 0)
(0.10159665 -0.046969903 0)
(0.10838455 -0.040172135 0)
(0.11410899 -0.033004543 0)
(0.11871537 -0.025540755 0)
(0.12215958 -0.01785675 0)
(0.12440863 -0.010030526 0)
(0.12544117 -0.0021417003 0)
(0.1252482 0.0057290809 0)
(0.12383372 0.013501034 0)
(0.12121515 0.021094477 0)
(0.11742353 0.028432355 0)
(0.11250316 0.035441922 0)
(0.10651081 0.042056341 0)
(0.09951448 0.048216031 0)
(0.091591754 0.053869571 0)
(0.082828037 0.058974094 0)
(0.073314725 0.063495162 0)
(0.063147514 0.067406177 0)
(0.052424925 0.070687456 0)
(0.041247143 0.073325092 0)
(0.029715158 0.075309762 0)
(0.017930227 0.076635604 0)
(0.0059935933 0.077299273 0)
(-0.0059935933 0.077299273 0)
(-0.017930227 0.076635604 0)
(-0.029715158 0.075309762 0)
(-0.041247143 0.073325092 0)
(-0.052424925 0.070687456 0)
(-0.063147514 0.067406177 0)
(-0.073314725 0.063495162 0)
(-0.082828037 0.058974094 0)
(-0.091591754 0.053869571 0)
(-0.09951448 0.048216031 0)
(-0.10651081 0.042056341 0)
(-0.11250316 0.035441922 0)
(-0.11742353 0.028432355 0)
(-0.12121515 0.021094477 0)
(-0.12383372 0.013501034 0)
(-0.1252482 0.0057290809 0)
(-0.12544117 -0.0021417003 0)
(-0.12440863 -0.010030526 0)
(-0.12215958 -0.01785675 0)
(-0.11871537 -0.025540755 0)
(-0.11410899 -0.033004543 0)
(-0.10838455 -0.040172135 0)
(-0.10159665 -0.046969903 0)
(-0.093809986 -0.053326935 0)
(-0.085098851 -0.059175515 0)
(-0.075546717 -0.064451776 0)
(-0.065245681 -0.069096513 0)
(-0.054295822 -0.073056148 0)
(-0.042804402 -0.076283791 0)
(-0.030884895 -0.078740311 0)
(-0.018655836 -0.080395342 0)
(-0.0062395063 -0.081228127 0)
(0.0071388281 -0.094511956 0)
(0.021345096 -0.093546076 0)
(0.035338076 -0.091626492 0)
(0.048978472 -0.088777175 0)
(0.062131219 -0.085033164 0)
(0.074666962 -0.080439568 0)
(0.086463351 -0.075050379 0)
(0.097406134 -0.068927209 0)
(0.10739005 -0.062138059 0)
(0.11631955 -0.054756213 0)
(0.12410939 -0.046859311 0)
(0.1306851 -0.038528668 0)
(0.1359835 -0.029848784 0)
(0.13995317 -0.020907043 0)
(0.14255506 -0.011793471 0)
(0.14376324 -0.0026004289 0)
(0.14356576 0.0065779322 0)
(0.14196557 0.015646648 0)
(0.13898131 0.024511446 0)
(0.13464762 0.033080711 0)
(0.12901495 0.041267708 0)
(0.12214858 0.048992741 0)
(0.11412714 0.056184945 0)
(0.10504056 0.062783502 0)
(0.094987877 0.068738145 0)
(0.084074964 0.074008976 0)
(0.07241246 0.078565679 0)
(0.060114001 0.082386284 0)
(0.047294833 0.085455694 0)
(0.03407084 0.087764129 0)
(0.020557951 0.089305691 0)
(0.006871882 0.090077166 0)
(-0.006871882 0.090077166 0)
(-0.020557951 0.089305691 0)
(-0.03407084 0.087764129 0)
(-0.047294833 0.085455694 0)
(-0.060114001 0.082386284 0)
(-0.07241246 0.078565679 0)
(-0.084074964 0.074008976 0)
(-0.094987877 0.068738145 0)
(-0.10504056 0.062783502 0)
(-0.11412714 0.056184945 0)
(-0.12214858 0.048992741 0)
(-0.12901495 0.041267708 0)
(-0.13464762 0.033080711 0)
(-0.13898131 0.024511446 0)
(-0.14196557 0.015646648 0)
(-0.14356576 0.0065779322 0)
(-0.14376324 -0.0026004289 0)
(-0.14255506 -0.011793471 0)
(-0.13995317 -0.020907043 0)
(-0.1359835 -0.029848784 0)
(-0.1306851 -0.038528668 0)
(-0.12410939 -0.046859311 0)
(-0.11631955 -0.054756213 0)
(-0.10739005 -0.062138059 0)
(-0.097406134 -0.068927209 0)
(-0.086463351 -0.075050379 0)
(-0.074666962 -0.080439568 0)
(-0.062131219 -0.085033164 0)
(-0.048978472 -0.088777175 0)
(-0.035338076 -0.091626492 0)
(-0.021345096 -0.093546076 0)
(-0.0071388281 -0.094511956 0)
(0.0081500409 -0.10970441 0)
(0.024368987 -0.108587 0)
(0.040345512 -0.10636619 0)
(0.055921255 -0.10306959 0)
(0.070942611 -0.098737507 0)
(0.085262391 -0.093421781 0)
(0.098741291 -0.087184414 0)
(0.11124912 -0.080096077 0)
(0.12266582 -0.072234685 0)
(0.13288229 -0.063684121 0)
(0.14180103 -0.054533191 0)
(0.14933666 -0.044874872 0)
(0.15541645 -0.034805827 0)
(0.15998078 -0.024426167 0)
(0.16298379 -0.013839351 0)
(0.16439414 -0.0031520608 0)
(0.16419622 0.0075261952 0)
(0.16239134 0.018084081 0)
(0.15899904 0.028410225 0)
(0.15405773 0.038395769 0)
(0.14762457 0.047937322 0)
(0.13977449 0.056939869 0)
(0.13059821 0.065319184 0)
(0.12019982 0.073003429 0)
(0.10869394 0.079933804 0)
(0.096203009 0.086064265 0)
(0.082854668 0.091360458 0)
(0.068779698 0.095798093 0)
(0.054110377 0.099361018 0)
(0.038979376 0.10203922 0)
(0.023519132 0.10382702 0)
(0.0078616128 0.1047215 0)
(-0.0078616128 0.1047215 0)
(-0.023519132 0.10382702 0)
(-0.038979376 0.10203922 0)
(-0.054110377 0.099361018 0)
(-0.068779698 0.095798093 0)
(-0.082854668 0.091360458 0)
(-0.096203009 0.086064265 0)
(-0.10869394 0.079933804 0)
(-0.12019982 0.073003429 0)
(-0.13059821 0.065319184 0)
(-0.13977449 0.056939869 0)
(-0.14762457 0.047937322 0)
(-0.15405773 0.038395769 0)
(-0.15899904 0.028410225 0)
(-0.16239134 0.018084081 0)
(-0.16419622 0.0075261953 0)
(-0.16439414 -0.0031520608 0)
(-0.16298379 -0.013839351 0)
(-0.15998078 -0.024426167 0)
(-0.15541645 -0.034805827 0)
(-0.14933666 -0.044874872 0)
(-0.14180103 -0.054533191 0)
(-0.13288229 -0.063684121 0)
(-0.12266582 -0.072234685 0)
(-0.11124912 -0.080096077 0)
(-0.098741291 -0.087184414 0)
(-0.085262391 -0.093421781 0)
(-0.070942611 -0.098737507 0)
(-0.055921255 -0.10306959 0)
(-0.040345512 -0.10636619 0)
(-0.024368987 -0.108587 0)
(-0.0081500409 -0.10970441 0)
(0.0092605515 -0.12702272 0)
(0.027689872 -0.12573334 0)
(0.045844945 -0.12317065 0)
(0.063546556 -0.11936631 0)
(0.080620791 -0.11436655 0)
(0.096900894 -0.10823077 0)
(0.11222892 -0.10102996 0)
(0.12645715 -0.092845001 0)
(0.13944925 -0.08376498 0)
(0.15108123 -0.073885739 0)
(0.16124224 -0.063308673 0)
(0.16983508 -0.052139863 0)
(0.17677674 -0.040489561 0)
(0.1819988 -0.028471998 0)
(0.18544791 -0.016205472 0)
(0.18708662 -0.0038125413 0)
(0.18689473 0.0085800422 0)
(0.18487106 0.020842188 0)
(0.18103542 0.03284256 0)
(0.1754298 0.044451879 0)
(0.16811857 0.055546907 0)
(0.15918722 0.066014385 0)
(0.14874005 0.075754274 0)
(0.13689703 0.084681853 0)
(0.12379031 0.092728523 0)
(0.10956084 0.099841372 0)
(0.094355222 0.10598172 0)
(0.078323258 0.11112298 0)
(0.061616049 0.11524816 0)
(0.044384761 0.11834732 0)
(0.026779971 0.12041528 0)
(0.0089514868 0.12144967 0)
(-0.0089514868 0.12144967 0)
(-0.026779971 0.12041528 0)
(-0.044384761 0.11834732 0)
(-0.061616049 0.11524816 0)
(-0.078323258 0.11112298 0)
(-0.094355222 0.10598172 0)