/*--------------------------------*- C++ -*----------------------------------*\
| =========                 |                                                 |
| \\      /  F ield         | OpenFOAM: The Open Source CFD Toolbox           |
|  \\    /   O peration     | Version:  2106                                  |
|   \\  /    A nd           | Website:  www.openfoam.com                      |
|    \\/     M anipulation  |                                                 |
\*---------------------------------------------------------------------------*/
FoamFile
{
    version     2.0;
    format      ascii;
    arch        "LSB;label=32;scalar=64";
    class       volVectorField;
    location    "0.023";
    object      U_0;
}
// * * * * * * * * * * * * * * * * * * * * * * * * * * * * * * * * * * * * * //

dimensions      [0 1 -1 0 0 0 0];

internalField   nonuniform List<vector> 
4096
(
(0.0019644655 -0.001950065 0)
(0.005872867 -0.0019296966 0)
(0.0097199447 -0.0018892221 0)
(0.013465693 -0.0018291595 0)
(0.0170714 -0.0017502714 0)
(0.020500123 -0.0016535481 0)
(0.023717131 -0.0015401864 0)
(0.02669029 -0.0014115663 0)
(0.029390411 -0.001269225 0)
(0.031791537 -0.00111483 0)
(0.033871179 -0.000950153 0)
(0.035610495 -0.00077704305 0)
(0.036994425 -0.00059740186 0)
(0.038011769 -0.00041315933 0)
(0.038655221 -0.0002262502 0)
(0.038921354 -3.8589462e-05 0)
(0.038810577 0.00014792063 0)
(0.038327038 0.00033149435 0)
(0.037478405 0.00051038191 0)
(0.03627585 0.00068292818 0)
(0.034733692 0.00084760813 0)
(0.032869216 0.0010030203 0)
(0.030702391 0.0011478999 0)
(0.028255588 0.0012811263 0)
(0.025553283 0.0014017244 0)
(0.022621766 0.0015088631 0)
(0.019488853 0.0016018496 0)
(0.016183616 0.00168012 0)
(0.012736135 0.0017432294 0)
(0.0091772673 0.0017908397 0)
(0.0055384478 0.0018227089 0)
(0.0018515047 0.0018386815 0)
(-0.0018515047 0.0018386815 0)
(-0.0055384478 0.0018227089 0)
(-0.0091772673 0.0017908397 0)
(-0.012736135 0.0017432294 0)
(-0.016183616 0.00168012 0)
(-0.019488853 0.0016018496 0)
(-0.022621766 0.0015088631 0)
(-0.025553283 0.0014017244 0)
(-0.028255588 0.0012811263 0)
(-0.030702391 0.0011478999 0)
(-0.032869216 0.0010030203 0)
(-0.034733692 0.00084760813 0)
(-0.03627585 0.00068292818 0)
(-0.037478405 0.00051038191 0)
(-0.038327038 0.00033149435 0)
(-0.038810577 0.00014792063 0)
(-0.038921354 -3.8589462e-05 0)
(-0.038655221 -0.0002262502 0)
(-0.038011769 -0.00041315933 0)
(-0.036994425 -0.00059740186 0)
(-0.035610495 -0.00077704305 0)
(-0.033871179 -0.000950153 0)
(-0.031791537 -0.00111483 0)
(-0.029390411 -0.001269225 0)
(-0.02669029 -0.0014115663 0)
(-0.023717131 -0.0015401864 0)
(-0.020500123 -0.0016535481 0)
(-0.0170714 -0.0017502714 0)
(-0.013465693 -0.0018291595 0)
(-0.0097199447 -0.0018892221 0)
(-0.005872867 -0.0019296966 0)
(-0.0019644655 -0.001950065 0)
(0.0020187113 -0.0058903373 0)
(0.0060350392 -0.0058288101 0)
(0.0099883553 -0.005706548 0)
(0.013837554 -0.0055251172 0)
(0.017542862 -0.0052868226 0)
(0.021066325 -0.0049946562 0)
(0.02437226 -0.0046522346 0)
(0.027427656 -0.0042637265 0)
(0.030202525 -0.0038337745 0)
(0.032670195 -0.003367415 0)
(0.034807549 -0.0028699975 0)
(0.036595217 -0.0023471056 0)
(0.038017703 -0.0018044817 0)
(0.039063473 -0.0012479543 0)
(0.03972499 -0.00068336842 0)
(0.039998705 -0.0001165197 0)
(0.039885004 0.00044691099 0)
(0.039388118 0.0010014369 0)
(0.038515958 0.0015417922 0)
(0.037279973 0.0020629997 0)
(0.035694895 0.0025604365 0)
(0.033778513 0.0030298652 0)
(0.031551382 0.0034674639 0)
(0.029036533 0.0038698466 0)
(0.026259158 0.0042340701 0)
(0.023246312 0.004557627 0)
(0.020026608 0.004838429 0)
(0.01662994 0.005074779 0)
(0.013087223 0.0052653386 0)
(0.0094301597 0.0054090928 0)
(0.005691029 0.0055053155 0)
(0.001902506 0.0055535405 0)
(-0.001902506 0.0055535405 0)
(-0.005691029 0.0055053155 0)
(-0.0094301597 0.0054090928 0)
(-0.013087223 0.0052653386 0)
(-0.01662994 0.005074779 0)
(-0.020026608 0.004838429 0)
(-0.023246312 0.004557627 0)
(-0.026259158 0.0042340701 0)
(-0.029036533 0.0038698466 0)
(-0.031551382 0.0034674639 0)
(-0.033778513 0.0030298652 0)
(-0.035694895 0.0025604365 0)
(-0.037279973 0.0020629997 0)
(-0.038515958 0.0015417922 0)
(-0.039388118 0.0010014369 0)
(-0.039885004 0.00044691099 0)
(-0.039998705 -0.0001165197 0)
(-0.03972499 -0.00068336842 0)
(-0.039063473 -0.0012479543 0)
(-0.038017703 -0.0018044817 0)
(-0.036595217 -0.0023471056 0)
(-0.034807549 -0.0028699975 0)
(-0.032670195 -0.003367415 0)
(-0.030202525 -0.0038337745 0)
(-0.027427656 -0.0042637265 0)
(-0.02437226 -0.0046522346 0)
(-0.021066325 -0.0049946562 0)
(-0.017542862 -0.0052868226 0)
(-0.013837554 -0.0055251172 0)
(-0.0099883553 -0.005706548 0)
(-0.0060350392 -0.0058288101 0)
(-0.0020187114 -0.0058903373 0)
(0.0021154977 -0.0099912118 0)
(0.0063244112 -0.0098868701 0)
(0.010467364 -0.0096795312 0)
(0.014501328 -0.0093718526 0)
(0.018384666 -0.0089677438 0)
(0.022077644 -0.0084722791 0)
(0.025542902 -0.0078915895 0)
(0.028745866 -0.00723274 0)
(0.031655119 -0.0065035968 0)
(0.034242698 -0.0057126908 0)
(0.03648435 -0.0048690821 0)
(0.038359725 -0.0039822277 0)
(0.039852512 -0.003061855 0)
(0.040950538 -0.0021178402 0)
(0.041645806 -0.0011600923 0)
(0.041934495 -0.00019844039 0)
(0.04181691 0.00075747688 0)
(0.041297394 0.0016983221 0)
(0.040384183 0.0026151504 0)
(0.039089227 0.0034995078 0)
(0.037427956 0.0043435287 0)
(0.035419024 0.0051400041 0)
(0.033084015 0.0058824359 0)
(0.03044712 0.0065650722 0)
(0.027534812 0.0071829184 0)
(0.024375519 0.0077317273 0)
(0.020999297 0.0082079677 0)
(0.017437536 0.0086087772 0)
(0.013722682 0.0089319041 0)
(0.0098879884 0.009175645 0)
(0.0059672988 0.0093387844 0)
(0.0019948581 0.0094205438 0)
(-0.0019948581 0.0094205438 0)
(-0.0059672988 0.0093387844 0)
(-0.0098879884 0.009175645 0)
(-0.013722682 0.0089319041 0)
(-0.017437536 0.0086087772 0)
(-0.020999297 0.0082079677 0)
(-0.024375519 0.0077317273 0)
(-0.027534812 0.0071829184 0)
(-0.03044712 0.0065650722 0)
(-0.033084015 0.0058824359 0)
(-0.035419024 0.0051400041 0)
(-0.037427956 0.0043435287 0)
(-0.039089227 0.0034995078 0)
(-0.040384183 0.0026151504 0)
(-0.041297394 0.0016983221 0)
(-0.04181691 0.00075747688 0)
(-0.041934495 -0.00019844039 0)
(-0.041645806 -0.0011600923 0)
(-0.040950538 -0.0021178402 0)
(-0.039852512 -0.003061855 0)
(-0.038359725 -0.0039822277 0)
(-0.03648435 -0.0048690821 0)
(-0.034242698 -0.0057126908 0)
(-0.031655119 -0.0065035968 0)
(-0.028745866 -0.00723274 0)
(-0.025542902 -0.0078915895 0)
(-0.022077644 -0.0084722791 0)
(-0.018384666 -0.0089677438 0)
(-0.014501328 -0.0093718526 0)
(-0.010467364 -0.0096795312 0)
(-0.0063244112 -0.0098868701 0)
(-0.0021154977 -0.0099912118 0)
(0.002254961 -0.014327252 0)
(0.0067413907 -0.01417771 0)
(0.011157647 -0.013880551 0)
(0.015457949 -0.013439586 0)
(0.019597996 -0.012860412 0)
(0.023535506 -0.012150298 0)
(0.027230709 -0.01131802 0)
(0.030646788 -0.010373688 0)
(0.033750262 -0.0093285542 0)
(0.036511307 -0.00819482 0)
(0.038904015 -0.006985442 0)
(0.040906604 -0.0057139459 0)
(0.042501568 -0.0043942485 0)
(0.043675781 -0.0030404879 0)
(0.044420551 -0.0016668597 0)
(0.044731629 -0.00028745812 0)
(0.044609174 0.0010838803 0)
(0.044057666 0.0024337321 0)
(0.043085766 0.0037492314 0)
(0.041706132 0.005018213 0)
(0.039935184 0.0062293476 0)
(0.037792817 0.0073722503 0)
(0.035302091 0.0084375644 0)
(0.032488878 0.0094170145 0)
(0.029381508 0.010303426 0)
(0.026010396 0.011090708 0)
(0.022407701 0.011773811 0)
(0.018606986 0.012348653 0)
(0.014642922 0.012812032 0)
(0.010551023 0.013161535 0)
(0.006367409 0.013395447 0)
(0.0021286098 0.013512669 0)
(-0.0021286098 0.013512669 0)
(-0.006367409 0.013395447 0)
(-0.010551023 0.013161535 0)
(-0.014642922 0.012812032 0)
(-0.018606986 0.012348653 0)
(-0.022407701 0.011773811 0)
(-0.026010396 0.011090708 0)
(-0.029381508 0.010303426 0)
(-0.032488878 0.0094170145 0)
(-0.035302091 0.0084375644 0)
(-0.037792817 0.0073722503 0)
(-0.039935184 0.0062293476 0)
(-0.041706132 0.005018213 0)
(-0.043085766 0.0037492314 0)
(-0.044057666 0.0024337321 0)
(-0.044609174 0.0010838803 0)
(-0.044731629 -0.00028745812 0)
(-0.044420551 -0.0016668597 0)
(-0.043675781 -0.0030404879 0)
(-0.042501568 -0.0043942485 0)
(-0.040906604 -0.0057139458 0)
(-0.038904015 -0.006985442 0)
(-0.036511307 -0.00819482 0)
(-0.033750262 -0.0093285542 0)
(-0.030646788 -0.010373688 0)
(-0.027230709 -0.01131802 0)
(-0.023535506 -0.012150298 0)
(-0.019597996 -0.012860412 0)
(-0.015457949 -0.013439586 0)
(-0.011157647 -0.013880551 0)
(-0.0067413907 -0.01417771 0)
(-0.002254961 -0.014327252 0)
(0.0024388921 -0.018983999 0)
(0.0072913339 -0.018786023 0)
(0.012068074 -0.018392621 0)
(0.016719725 -0.017808829 0)
(0.021198485 -0.017042054 0)
(0.025458725 -0.016101901 0)
(0.029457508 -0.014999968 0)
(0.033155066 -0.013749605 0)
(0.036515197 -0.012365669 0)
(0.039505613 -0.010864264 0)
(0.042098214 -0.0092624902 0)
(0.044269312 -0.0075782022 0)
(0.045999798 -0.0058297804 0)
(0.04727526 -0.0040359121 0)
(0.048086057 -0.0022153813 0)
(0.048427343 -0.00038686274 0)
(0.048299048 0.0014312834 0)
(0.047705802 0.0032212163 0)
(0.046656806 0.0049658159 0)
(0.04516564 0.0066488791 0)
(0.043250016 0.008255303 0)
(0.040931471 0.0097712409 0)
(0.038235023 0.011184222 0)
(0.03518878 0.012483228 0)
(0.031823533 0.013658723 0)
(0.02817235 0.014702632 0)
(0.024270177 0.015608279 0)
(0.020153466 0.01637029 0)
(0.015859843 0.016984466 0)
(0.011427812 0.017447655 0)
(0.0068965074 0.017757626 0)
(0.0023054802 0.017912956 0)
(-0.0023054801 0.017912956 0)
(-0.0068965074 0.017757626 0)
(-0.011427812 0.017447655 0)
(-0.015859843 0.016984466 0)
(-0.020153466 0.01637029 0)
(-0.024270177 0.015608279 0)
(-0.02817235 0.014702632 0)
(-0.031823533 0.013658723 0)
(-0.03518878 0.012483228 0)
(-0.038235023 0.011184222 0)
(-0.040931471 0.0097712409 0)
(-0.043250016 0.008255303 0)
(-0.04516564 0.0066488791 0)
(-0.046656806 0.0049658159 0)
(-0.047705802 0.0032212163 0)
(-0.048299048 0.0014312834 0)
(-0.048427343 -0.00038686274 0)
(-0.048086057 -0.0022153813 0)
(-0.04727526 -0.0040359121 0)
(-0.045999798 -0.0058297804 0)
(-0.044269312 -0.0075782022 0)
(-0.042098214 -0.0092624902 0)
(-0.039505613 -0.010864264 0)
(-0.036515197 -0.012365669 0)
(-0.033155066 -0.013749605 0)
(-0.029457508 -0.014999968 0)
(-0.025458725 -0.016101901 0)
(-0.021198485 -0.017042054 0)
(-0.016719725 -0.017808829 0)
(-0.012068074 -0.018392621 0)
(-0.0072913339 -0.018786023 0)
(-0.0024388921 -0.018983999 0)
(0.0026707089 -0.024053195 0)
(0.0079844627 -0.023802648 0)
(0.01321558 -0.023304776 0)
(0.018310143 -0.022565947 0)
(0.023215963 -0.021595518 0)
(0.027883201 -0.020405618 0)
(0.032264948 -0.019010885 0)
(0.036317715 -0.017428162 0)
(0.040001879 -0.015676181 0)
(0.04328204 -0.013775241 0)
(0.04612732 -0.011746897 0)
(0.048511608 -0.0096136604 0)
(0.050413744 -0.0073987216 0)
(0.05181766 -0.0051256824 0)
(0.052712479 -0.0028183005 0)
(0.05309256 -0.00050023634 0)
(0.052957504 0.0018052039 0)
(0.052312099 0.0040753295 0)
(0.051166197 0.0062883293 0)
(0.049534525 0.0084235327 0)
(0.047436424 0.010461655 0)
(0.044895513 0.012385009 0)
(0.041939296 0.014177673 0)
(0.038598725 0.015825601 0)
(0.034907732 0.017316659 0)
(0.030902755 0.018640606 0)
(0.026622284 0.019789009 0)
(0.022106438 0.020755108 0)
(0.01739658 0.021533651 0)
(0.012534998 0.022120719 0)
(0.007564625 0.022513547 0)
(0.0025288204 0.022710385 0)
(-0.0025288204 0.022710385 0)
(-0.007564625 0.022513547 0)
(-0.012534998 0.022120719 0)
(-0.01739658 0.021533651 0)
(-0.022106438 0.020755108 0)
(-0.026622284 0.019789009 0)
(-0.030902755 0.018640606 0)
(-0.034907732 0.017316659 0)
(-0.038598725 0.015825601 0)
(-0.041939296 0.014177673 0)
(-0.044895513 0.012385009 0)
(-0.047436424 0.010461655 0)
(-0.049534525 0.0084235327 0)
(-0.051166197 0.0062883293 0)
(-0.052312099 0.0040753295 0)
(-0.052957504 0.0018052039 0)
(-0.05309256 -0.00050023633 0)
(-0.052712479 -0.0028183005 0)
(-0.05181766 -0.0051256824 0)
(-0.050413744 -0.0073987216 0)
(-0.048511608 -0.0096136604 0)
(-0.04612732 -0.011746897 0)
(-0.04328204 -0.013775241 0)
(-0.040001879 -0.015676181 0)
(-0.036317715 -0.017428162 0)
(-0.032264948 -0.019010885 0)
(-0.027883201 -0.020405618 0)
(-0.023215963 -0.021595518 0)
(-0.018310143 -0.022565947 0)
(-0.01321558 -0.023304776 0)
(-0.0079844627 -0.023802648 0)
(-0.0026707089 -0.024053195 0)
(0.0029554704 -0.029634665 0)
(0.0088359085 -0.029326429 0)
(0.014625228 -0.028713918 0)
(0.020263974 -0.02780495 0)
(0.025694583 -0.026611012 0)
(0.030862074 -0.025146986 0)
(0.035714664 -0.023430819 0)
(0.040204313 -0.021483149 0)
(0.04428719 -0.019326914 0)
(0.047924068 -0.016986966 0)
(0.051080642 -0.01448969 0)
(0.053727798 -0.011862653 0)
(0.05584182 -0.0091342772 0)
(0.057404562 -0.0063335259 0)
(0.058403571 -0.0034896059 0)
(0.05883218 -0.00063166661 0)
(0.058689533 0.0022115111 0)
(0.057980566 0.0050118398 0)
(0.0567159 0.0077422634 0)
(0.054911656 0.010377096 0)
(0.052589177 0.012892349 0)
(0.049774653 0.015266012 0)
(0.04649868 0.017478288 0)
(0.042795742 0.019511734 0)
(0.038703673 0.021351329 0)
(0.034263098 0.022984442 0)
(0.029516902 0.024400721 0)
(0.024509735 0.025591918 0)
(0.019287576 0.026551667 0)
(0.013897366 0.027275249 0)
(0.008386707 0.02775936 0)
(0.0028036243 0.028001917 0)
(-0.0028036243 0.028001917 0)
(-0.008386707 0.02775936 0)
(-0.013897366 0.027275249 0)
(-0.019287576 0.026551667 0)
(-0.024509735 0.025591918 0)
(-0.029516902 0.024400721 0)
(-0.034263098 0.022984442 0)
(-0.038703673 0.021351329 0)
(-0.042795742 0.019511734 0)
(-0.04649868 0.017478288 0)
(-0.049774653 0.015266012 0)
(-0.052589177 0.012892349 0)
(-0.054911656 0.010377096 0)
(-0.0567159 0.0077422634 0)
(-0.057980566 0.0050118398 0)
(-0.058689533 0.0022115111 0)
(-0.05883218 -0.00063166661 0)
(-0.058403571 -0.0034896059 0)
(-0.057404562 -0.0063335259 0)
(-0.05584182 -0.0091342772 0)
(-0.053727798 -0.011862653 0)
(-0.051080642 -0.01448969 0)
(-0.047924068 -0.016986966 0)
(-0.04428719 -0.019326914 0)
(-0.040204313 -0.021483149 0)
(-0.035714664 -0.023430819 0)
(-0.030862074 -0.025146986 0)
(-0.025694583 -0.026611012 0)
(-0.020263974 -0.02780495 0)
(-0.014625228 -0.028713918 0)
(-0.0088359085 -0.029326429 0)
(-0.0029554704 -0.029634665 0)
(0.0032999031 -0.03583987 0)
(0.0098657881 -0.035467744 0)
(0.016330342 -0.034728263 0)
(0.022627438 -0.033630849 0)
(0.028693044 -0.032189331 0)
(0.03446598 -0.030421618 0)
(0.039888588 -0.028349289 0)
(0.044907333 -0.025997137 0)
(0.049473302 -0.023392706 0)
(0.053542631 -0.020565818 0)
(0.057076853 -0.017548138 0)
(0.060043187 -0.014372764 0)
(0.062414783 -0.011073848 0)
(0.064170921 -0.0076862533 0)
(0.065297183 -0.0042452085 0)
(0.065785583 -0.0007859647 0)
(0.065634648 0.0026565734 0)
(0.064849435 0.0060482445 0)
(0.063441453 0.0093560564 0)
(0.061428488 0.012548624 0)
(0.058834305 0.015596595 0)
(0.055688232 0.018473036 0)
(0.052024643 0.021153735 0)
(0.047882355 0.023617407 0)
(0.043303981 0.025845783 0)
(0.038335272 0.027823573 0)
(0.033024479 0.029538321 0)
(0.027421773 0.030980175 0)
(0.021578739 0.032141594 0)
(0.01554796 0.033017034 0)
(0.0093826783 0.03360265 0)
(0.00313655 0.033896035 0)
(-0.00313655 0.033896035 0)
(-0.0093826783 0.03360265 0)
(-0.01554796 0.033017034 0)
(-0.021578739 0.032141594 0)
(-0.027421773 0.030980175 0)
(-0.033024479 0.029538321 0)
(-0.038335272 0.027823573 0)
(-0.043303981 0.025845783 0)
(-0.047882355 0.023617407 0)
(-0.052024643 0.021153735 0)
(-0.055688232 0.018473036 0)
(-0.058834305 0.015596595 0)
(-0.061428488 0.012548624 0)
(-0.063441453 0.0093560564 0)
(-0.064849435 0.0060482445 0)
(-0.065634648 0.0026565734 0)
(-0.065785583 -0.0007859647 0)
(-0.065297183 -0.0042452085 0)
(-0.064170921 -0.0076862533 0)
(-0.062414783 -0.011073848 0)
(-0.060043187 -0.014372764 0)
(-0.057076853 -0.017548138 0)
(-0.053542631 -0.020565818 0)
(-0.049473302 -0.023392706 0)
(-0.044907333 -0.025997137 0)
(-0.039888588 -0.028349289 0)
(-0.03446598 -0.030421618 0)
(-0.028693044 -0.032189331 0)
(-0.022627438 -0.033630849 0)
(-0.016330342 -0.034728263 0)
(-0.0098657881 -0.035467744 0)
(-0.0032999031 -0.03583987 0)
(0.0037123617 -0.04279538 0)
(0.011099089 -0.042351936 0)
(0.01837231 -0.041470721 0)
(0.025457945 -0.040162935 0)
(0.032284248 -0.038445009 0)
(0.038782641 -0.0363382 0)
(0.04488846 -0.0338681 0)
(0.050541601 -0.031064089 0)
(0.055687074 -0.027958776 0)
(0.060275456 -0.024587454 0)
(0.064263273 -0.020987592 0)
(0.06761332 -0.01719837 0)
(0.07029494 -0.013260264 0)
(0.072284263 -0.009214666 0)
(0.073564435 -0.0051035101 0)
(0.074125806 -0.00096888409 0)
(0.073966076 0.0031473966 0)
(0.073090367 0.0072042679 0)
(0.071511199 0.011161949 0)
(0.06924832 0.014982506 0)
(0.066328398 0.018630411 0)
(0.062784549 0.02207305 0)
(0.058655728 0.025281139 0)
(0.053986011 0.028228999 0)
(0.048823815 0.03089468 0)
(0.043221104 0.033259915 0)
(0.037232622 0.035309932 0)
(0.030915201 0.03703315 0)
(0.024327173 0.038420797 0)
(0.017527883 0.039466493 0)
(0.010577327 0.040165863 0)
(0.003535881 0.040516195 0)
(-0.003535881 0.040516195 0)
(-0.010577327 0.040165863 0)
(-0.017527883 0.039466493 0)
(-0.024327173 0.038420797 0)
(-0.030915201 0.03703315 0)
(-0.037232622 0.035309932 0)
(-0.043221104 0.033259915 0)
(-0.048823815 0.03089468 0)
(-0.053986011 0.028228999 0)
(-0.058655728 0.025281139 0)
(-0.062784549 0.02207305 0)
(-0.066328398 0.018630411 0)
(-0.06924832 0.014982506 0)
(-0.071511199 0.011161949 0)
(-0.073090367 0.0072042679 0)
(-0.073966076 0.0031473966 0)
(-0.074125806 -0.00096888408 0)
(-0.073564435 -0.0051035101 0)
(-0.072284263 -0.009214666 0)
(-0.07029494 -0.013260264 0)
(-0.06761332 -0.01719837 0)
(-0.064263273 -0.020987592 0)
(-0.060275456 -0.024587454 0)
(-0.055687074 -0.027958776 0)
(-0.050541601 -0.031064089 0)
(-0.04488846 -0.0338681 0)
(-0.038782641 -0.0363382 0)
(-0.032284248 -0.038445009 0)
(-0.025457945 -0.040162935 0)
(-0.01837231 -0.041470721 0)
(-0.011099089 -0.042351936 0)
(-0.0037123617 -0.04279538 0)
(0.0042026238 -0.050646021 0)
(0.012565053 -0.050122437 0)
(0.020799568 -0.049081954 0)
(0.028822677 -0.047537756 0)
(0.036553502 -0.045509176 0)
(0.043914706 -0.043021203 0)
(0.050833321 -0.040103892 0)
(0.05724146 -0.036791708 0)
(0.063076914 -0.033122873 0)
(0.068283649 -0.029138728 0)
(0.072812223 -0.02488315 0)
(0.076620135 -0.020402049 0)
(0.07967214 -0.01574291 0)
(0.081940552 -0.010954393 0)
(0.083405522 -0.006085937 0)
(0.084055315 -0.0011873399 0)
(0.083886538 0.0036917278 0)
(0.082904295 0.008502294 0)
(0.081122227 0.013196747 0)
(0.078562375 0.017729557 0)
(0.075254855 0.022058013 0)
(0.071237321 0.026142895 0)
(0.066554241 0.029949035 0)
(0.061256034 0.03344569 0)
(0.055398113 0.036606705 0)
(0.049039921 0.039410468 0)
(0.042244001 0.041839652 0)
(0.035075167 0.043880821 0)
(0.027599804 0.045523923 0)
(0.019885314 0.046761751 0)
(0.011999707 0.047589429 0)
(0.0040113264 0.048003972 0)
(-0.0040113264 0.048003972 0)
(-0.011999707 0.047589429 0)
(-0.019885314 0.046761751 0)
(-0.027599804 0.045523923 0)
(-0.035075167 0.043880821 0)
(-0.042244001 0.041839652 0)
(-0.049039921 0.039410468 0)
(-0.055398113 0.036606705 0)
(-0.061256034 0.03344569 0)
(-0.066554241 0.029949035 0)
(-0.071237321 0.026142895 0)
(-0.075254855 0.022058013 0)
(-0.078562375 0.017729557 0)
(-0.081122227 0.013196747 0)
(-0.082904295 0.008502294 0)
(-0.083886538 0.0036917278 0)
(-0.084055315 -0.0011873399 0)
(-0.083405522 -0.006085937 0)
(-0.081940552 -0.010954393 0)
(-0.07967214 -0.01574291 0)
(-0.076620135 -0.020402049 0)
(-0.072812223 -0.02488315 0)
(-0.068283649 -0.029138728 0)
(-0.063076914 -0.033122873 0)
(-0.05724146 -0.036791708 0)
(-0.050833321 -0.040103892 0)
(-0.043914706 -0.043021203 0)
(-0.036553502 -0.045509176 0)
(-0.028822677 -0.047537756 0)
(-0.020799568 -0.049081954 0)
(-0.012565053 -0.050122437 0)
(-0.0042026238 -0.050646021 0)
(0.0047813897 -0.059557387 0)
(0.014295682 -0.058943257 0)
(0.023665124 -0.057722815 0)
(0.032795156 -0.055911478 0)
(0.041594161 -0.053531834 0)
(0.049974501 -0.050613051 0)
(0.057853436 -0.047190168 0)
(0.06515391 -0.043303326 0)
(0.071805205 -0.038996987 0)
(0.077743485 -0.03431921 0)
(0.082912244 -0.029320991 0)
(0.087262693 -0.024055707 0)
(0.09075412 -0.018578643 0)
(0.093354244 -0.012946579 0)
(0.095039579 -0.0072173927 0)
(0.095795798 -0.0014496159 0)
(0.095618081 0.0042981042 0)
(0.094511383 0.0099676792 0)
(0.092490566 0.015502399 0)
(0.089580318 0.020847859 0)
(0.085814814 0.025952925 0)
(0.081237106 0.030770635 0)
(0.075898252 0.035258944 0)
(0.069856264 0.039381229 0)
(0.063174938 0.043106519 0)
(0.05592266 0.046409418 0)
(0.048171279 0.049269787 0)
(0.039995106 0.051672205 0)
(0.031470077 0.053605312 0)
(0.02267312 0.055061105 0)
(0.013681701 0.056034266 0)
(0.0045735407 0.056521593 0)
(-0.0045735407 0.056521593 0)
(-0.013681701 0.056034266 0)
(-0.02267312 0.055061105 0)
(-0.031470077 0.053605312 0)
(-0.039995106 0.051672205 0)
(-0.048171279 0.049269787 0)
(-0.05592266 0.046409418 0)
(-0.063174938 0.043106519 0)
(-0.069856264 0.039381229 0)
(-0.075898252 0.035258944 0)
(-0.081237106 0.030770635 0)
(-0.085814814 0.025952925 0)
(-0.089580318 0.020847859 0)
(-0.092490566 0.015502399 0)
(-0.094511383 0.0099676792 0)
(-0.095618081 0.0042981042 0)
(-0.095795798 -0.0014496159 0)
(-0.095039579 -0.0072173927 0)
(-0.093354244 -0.012946579 0)
(-0.09075412 -0.018578643 0)
(-0.087262693 -0.024055707 0)
(-0.082912244 -0.029320991 0)
(-0.077743485 -0.03431921 0)
(-0.071805205 -0.038996987 0)
(-0.06515391 -0.043303326 0)
(-0.057853436 -0.047190168 0)
(-0.049974501 -0.050613051 0)
(-0.041594161 -0.053531834 0)
(-0.032795156 -0.055911478 0)
(-0.023665124 -0.057722815 0)
(-0.014295682 -0.058943257 0)
(-0.0047813897 -0.059557387 0)
(0.0054593433 -0.069717005 0)
(0.01632293 -0.069000131 0)
(0.027021905 -0.067575483 0)
(0.037448796 -0.065460994 0)
(0.047499451 -0.062682916 0)
(0.057074202 -0.059275119 0)
(0.066078894 -0.055278237 0)
(0.074425754 -0.050738761 0)
(0.082034114 -0.045708134 0)
(0.088831005 -0.040241904 0)
(0.094751637 -0.034398997 0)
(0.099739833 -0.028241113 0)
(0.10374843 -0.021832238 0)
(0.10673968 -0.01523825 0)
(0.10868572 -0.0085265329 0)
(0.10956906 -0.001765538 0)
(0.10938302 0.0049757945 0)
(0.10813221 0.011628821 0)
(0.1058328 0.018126207 0)
(0.10251247 0.024403113 0)
(0.098210139 0.03039847 0)
(0.092975214 0.036056179 0)
(0.086866571 0.041326114 0)
(0.079951249 0.046164798 0)
(0.072303002 0.050535704 0)
(0.064000834 0.054409165 0)
(0.055127614 0.057761938 0)
(0.045768859 0.060576498 0)
(0.036011751 0.062840176 0)
(0.025944396 0.064544238 0)
(0.015655329 0.065683013 0)
(0.0052332241 0.066253167 0)
(-0.0052332241 0.066253167 0)
(-0.015655329 0.065683013 0)
(-0.025944396 0.064544238 0)
(-0.036011751 0.062840176 0)
(-0.045768859 0.060576498 0)
(-0.055127614 0.057761938 0)
(-0.064000834 0.054409165 0)
(-0.072303002 0.050535704 0)
(-0.079951249 0.046164798 0)
(-0.086866571 0.041326114 0)
(-0.092975214 0.036056179 0)
(-0.098210139 0.03039847 0)
(-0.10251247 0.024403113 0)
(-0.1058328 0.018126207 0)
(-0.10813221 0.011628821 0)
(-0.10938302 0.0049757945 0)
(-0.10956906 -0.001765538 0)
(-0.10868572 -0.0085265329 0)
(-0.10673968 -0.01523825 0)
(-0.10374843 -0.021832238 0)
(-0.099739833 -0.028241113 0)
(-0.094751637 -0.034398997 0)
(-0.088831005 -0.040241904 0)
(-0.082034114 -0.045708134 0)
(-0.074425754 -0.050738761 0)
(-0.066078894 -0.055278237 0)
(-0.057074202 -0.059275119 0)
(-0.047499451 -0.062682916 0)
(-0.037448796 -0.065460994 0)
(-0.027021905 -0.067575483 0)
(-0.01632293 -0.069000131 0)
(-0.0054593433 -0.069717005 0)
(0.006245619 -0.081333105 0)
(0.018674116 -0.080499312 0)
(0.03091517 -0.078842273 0)
(0.042846386 -0.076382765 0)
(0.054349116 -0.073151182 0)
(0.065309781 -0.06918669 0)
(0.075621015 -0.064536225 0)
(0.085182638 -0.059253417 0)
(0.093902461 -0.053397533 0)
(0.10169693 -0.04703251 0)
(0.10849166 -0.040226138 0)
(0.11422191 -0.033049411 0)
(0.11883299 -0.025576048 0)
(0.12228077 -0.017882121 0)
(0.12453219 -0.010045727 0)
(0.1255659 -0.0021465848 0)
(0.12537289 0.0057345543 0)
(0.12395715 0.013516803 0)
(0.12133611 0.021120373 0)
(0.11754085 0.028468113 0)
(0.1126157 0.035487176 0)
(0.1066175 0.042110636 0)
(0.099614293 0.048278825 0)
(0.091683743 0.053940243 0)
(0.082911333 0.059051951 0)
(0.073388547 0.063579447 0)
(0.063211172 0.067496077 0)
(0.05247783 0.070782109 0)
(0.041288804 0.073423597 0)
(0.029745192 0.075411184 0)
(0.017948358 0.076738983 0)
(0.0059996555 0.077403636 0)
(-0.0059996555 0.077403636 0)
(-0.017948358 0.076738983 0)
(-0.029745192 0.075411184 0)
(-0.041288804 0.073423597 0)
(-0.05247783 0.070782109 0)
(-0.063211172 0.067496077 0)
(-0.073388547 0.063579447 0)
(-0.082911333 0.059051951 0)
(-0.091683743 0.053940243 0)
(-0.099614293 0.048278825 0)
(-0.1066175 0.042110636 0)
(-0.1126157 0.035487176 0)
(-0.11754085 0.028468113 0)
(-0.12133611 0.021120373 0)
(-0.12395715 0.013516803 0)
(-0.12537289 0.0057345543 0)
(-0.1255659 -0.0021465848 0)
(-0.12453219 -0.010045727 0)
(-0.12228077 -0.017882121 0)
(-0.11883299 -0.025576048 0)
(-0.11422191 -0.033049411 0)
(-0.10849166 -0.040226138 0)
(-0.10169693 -0.04703251 0)
(-0.093902461 -0.053397533 0)
(-0.085182638 -0.059253417 0)
(-0.075621015 -0.064536225 0)
(-0.065309781 -0.06918669 0)
(-0.054349116 -0.073151182 0)
(-0.042846386 -0.076382765 0)
(-0.03091517 -0.078842273 0)
(-0.018674116 -0.080499312 0)
(-0.006245619 -0.081333105 0)
(0.0071455286 -0.094629667 0)
(0.021365134 -0.093662659 0)
(0.035371264 -0.091740829 0)
(0.049024499 -0.088888168 0)
(0.062189651 -0.085139746 0)
(0.074737248 -0.080540713 0)
(0.086544828 -0.075145109 0)
(0.097498028 -0.069014606 0)
(0.10749149 -0.062217274 0)
(0.11642956 -0.054826469 0)
(0.12422691 -0.04691992 0)
(0.13080901 -0.038579029 0)
(0.13611258 -0.0298884 0)
(0.14008617 -0.020935521 0)
(0.14269068 -0.011810528 0)
(0.14390015 -0.0026059007 0)
(0.14370261 0.0065840929 0)
(0.14210103 0.01566437 0)
(0.13911404 0.024540538 0)
(0.13477634 0.03312087 0)
(0.12913841 0.041318522 0)
(0.1222656 0.049053692 0)
(0.1142366 0.056255422 0)
(0.10514142 0.062862804 0)
(0.095079189 0.068825492 0)
(0.084155875 0.074103517 0)
(0.072482221 0.078666501 0)
(0.060171969 0.082492422 0)
(0.047340477 0.085566136 0)
(0.034103742 0.08787783 0)
(0.020577812 0.08942158 0)
(0.0068785225 0.090194153 0)
(-0.0068785225 0.090194153 0)
(-0.020577812 0.08942158 0)
(-0.034103742 0.08787783 0)
(-0.047340477 0.085566136 0)
(-0.060171969 0.082492422 0)
(-0.072482221 0.078666501 0)
(-0.084155875 0.074103517 0)
(-0.095079189 0.068825492 0)
(-0.10514142 0.062862804 0)
(-0.1142366 0.056255422 0)
(-0.1222656 0.049053692 0)
(-0.12913841 0.041318522 0)
(-0.13477634 0.03312087 0)
(-0.13911404 0.024540538 0)
(-0.14210103 0.01566437 0)
(-0.14370261 0.0065840929 0)
(-0.14390015 -0.0026059007 0)
(-0.14269068 -0.011810528 0)
(-0.14008617 -0.020935521 0)
(-0.13611258 -0.0298884 0)
(-0.13080901 -0.038579029 0)
(-0.12422691 -0.04691992 0)
(-0.11642956 -0.054826469 0)
(-0.10749149 -0.062217274 0)
(-0.097498028 -0.069014606 0)
(-0.086544828 -0.075145109 0)
(-0.074737248 -0.080540713 0)
(-0.062189651 -0.085139746 0)
(-0.049024499 -0.088888168 0)
(-0.035371264 -0.091740829 0)
(-0.021365134 -0.093662659 0)
(-0.0071455286 -0.094629667 0)
(0.0081574417 -0.10983613 0)
(0.02439112 -0.10871745 0)
(0.040382172 -0.10649415 0)
(0.055972101 -0.10319381 0)
(0.071007166 -0.098856802 0)
(0.085340052 -0.093535003 0)
(0.098831327 -0.087290471 0)
(0.11135068 -0.08019394 0)
(0.12277795 -0.0723234 0)
(0.13300392 -0.063762816 0)
(0.14193098 -0.05460109 0)
(0.14947368 -0.044931299 0)
(0.15555921 -0.034850217 0)
(0.16012789 -0.024458075 0)
(0.1631338 -0.013858456 0)
(0.16454558 -0.0031581769 0)
(0.16434758 0.0075331214 0)
(0.16254115 0.018103966 0)
(0.15914582 0.028442855 0)
(0.15420005 0.038440797 0)
(0.14776106 0.047994279 0)
(0.13990382 0.057008171 0)
(0.13071916 0.065398139 0)
(0.12031124 0.073092247 0)
(0.1087948 0.080031609 0)
(0.096292365 0.086170101 0)
(0.082931696 0.091473303 0)
(0.068843694 0.095916866 0)
(0.05416076 0.09948459 0)
(0.039015691 0.10216643 0)
(0.023541052 0.10395666 0)
(0.0078689415 0.10485237 0)
(-0.0078689415 0.10485237 0)
(-0.023541052 0.10395666 0)
(-0.039015691 0.10216643 0)
(-0.05416076 0.09948459 0)
(-0.068843694 0.095916866 0)
(-0.082931696 0.091473303 0)
(-0.096292365 0.086170101 0)
(-0.1087948 0.080031609 0)
(-0.12031124 0.073092247 0)
(-0.13071916 0.065398139 0)
(-0.13990382 0.057008171 0)
(-0.14776106 0.047994279 0)
(-0.15420005 0.038440797 0)
(-0.15914582 0.028442855 0)
(-0.16254115 0.018103966 0)
(-0.16434758 0.0075331214 0)
(-0.16454558 -0.0031581769 0)
(-0.1631338 -0.013858456 0)
(-0.16012789 -0.024458075 0)
(-0.15555921 -0.034850217 0)
(-0.14947368 -0.044931299 0)
(-0.14193098 -0.05460109 0)
(-0.13300392 -0.063762816 0)
(-0.12277795 -0.0723234 0)
(-0.11135068 -0.08019394 0)
(-0.098831327 -0.087290471 0)
(-0.085340052 -0.093535003 0)
(-0.071007166 -0.098856802 0)
(-0.055972101 -0.10319381 0)
(-0.040382172 -0.10649415 0)
(-0.02439112 -0.10871745 0)
(-0.0081574417 -0.10983613 0)
(0.0092687894 -0.12716997 0)
(0.02771451 -0.12587918 0)
(0.045885755 -0.1233137 0)
(0.063603161 -0.1195052 0)
(0.080692666 -0.11449995 0)
(0.096987372 -0.10835739 0)
(0.1123292 -0.10114859 0)
(0.12657028 -0.09295449 0)
(0.13957416 -0.083864255 0)
(0.15121675 -0.07397382 0)
(0.16138706 -0.063384684 0)
(0.16998781 -0.052203041 0)
(0.1769359 -0.040539265 0)
(0.18216282 -0.028507723 0)
(0.18561517 -0.016226855 0)
(0.18725546 -0.0038193682 0)
(0.18706348 0.0085878302 0)
(0.18503806 0.020864495 0)
(0.18119901 0.032879139 0)
(0.1755884 0.044502336 0)
(0.16827063 0.055610709 0)
(0.15933128 0.06609087 0)
(0.14887474 0.075842659 0)
(0.13702109 0.084781249 0)
(0.12390258 0.092837945 0)
(0.10966028 0.099959747 0)
(0.094440929 0.1061079 0)
(0.078394454 0.11125576 0)
(0.061672093 0.11538628 0)
(0.044425151 0.11848949 0)
(0.026804349 0.12056015 0)
(0.0089596371 0.1215959 0)
(-0.0089596371 0.1215959 0)
(-0.026804349 0.12056015 0)
(-0.044425151 0.11848949 0)
(-0.061672093 0.11538628 0)
(-0.078394454 0.11125576 0)
(-0.094440929 0.1061079 0)
(-0.10966028 0.099959747 0)
(-0.12390258 0.092837945 0)
(-0.13702109 0.084781249 0)
(-0.14887474 0.07584266 0)