/*--------------------------------*- C++ -*----------------------------------*\
| =========                 |                                                 |
| \\      /  F ield         | OpenFOAM: The Open Source CFD Toolbox           |
|  \\    /   O peration     | Version:  2306                                  |
|   \\  /    A nd           | Website:  www.openfoam.com                      |
|    \\/     M anipulation  |                                                 |
\*---------------------------------------------------------------------------*/
FoamFile
{
    version     2.0;
    format      ascii;
    arch        "LSB;label=32;scalar=64";
    class       surfaceScalarField;
    location    "0.09";
    object      phi;
}
// * * * * * * * * * * * * * * * * * * * * * * * * * * * * * * * * * * * * * //

dimensions      [0 3 -1 0 0 0 0];

oriented        oriented;

internalField   nonuniform List<scalar> 
12640
(
-3.1466549e-11
-2.2630227e-10
-1.2575139e-10
-6.7724916e-10
-2.8230065e-10
-1.1195865e-09
-5.0018388e-10
-1.5473261e-09
-7.7803024e-10
-1.9537256e-09
-1.1140313e-09
-2.3325573e-09
-1.506059e-09
-2.6778231e-09
-1.9515435e-09
-2.9837025e-09
-2.4476207e-09
-3.2445851e-09
-2.9910778e-09
-3.4551191e-09
-3.5783016e-09
-3.6101287e-09
-4.2054477e-09
-3.7047793e-09
-4.8682707e-09
-3.7345459e-09
-5.5624475e-09
-3.6951493e-09
-6.2833373e-09
-3.5827585e-09
-7.0260049e-09
-3.3937173e-09
-7.7853685e-09
-3.1249221e-09
-8.555978e-09
-2.7737762e-09
-9.3325786e-09
-2.3375694e-09
-1.0110133e-08
-1.814189e-09
-1.0882497e-08
-1.2025077e-09
-1.1644151e-08
-5.012449e-10
-1.2388628e-08
2.8972289e-10
-1.3113018e-08
1.1732192e-09
-1.3808678e-08
2.1465881e-09
-1.4471042e-08
3.2100989e-09
-1.5094381e-08
4.3625003e-09
-1.5673252e-08
5.6024707e-09
-1.6202384e-08
6.9282471e-09
-1.6676643e-08
8.3376743e-09
-1.7090887e-08
9.8282312e-09
-1.744044e-08
1.1396764e-08
-1.7720542e-08
1.3040133e-08
-1.7926918e-08
1.4754732e-08
-1.8055401e-08
1.6536764e-08
-1.8102022e-08
1.8381593e-08
-1.8063203e-08
2.0284858e-08
-1.7935714e-08
2.2241629e-08
-1.7716523e-08
2.4246886e-08
-1.7402913e-08
2.6295255e-08
-1.699263e-08
2.8381568e-08
-1.6483556e-08
3.0499676e-08
-1.5873812e-08
3.2643974e-08
-1.516231e-08
3.4808408e-08
-1.4347787e-08
3.6987057e-08
-1.3429724e-08
3.917364e-08
-1.2407715e-08
4.1361943e-08
-1.1281733e-08
4.3545536e-08
-1.0052204e-08
4.5718278e-08
-8.7196612e-09
4.7873696e-08
-7.2851589e-09
5.0005733e-08
-5.7500169e-09
5.2107899e-08
-4.1158848e-09
5.4174508e-08
-2.3847377e-09
5.6198787e-08
-5.5903686e-10
5.8175429e-08
1.3594415e-09
6.0097378e-08
3.3675571e-09
6.1961369e-08
5.4618951e-09
6.3759474e-08
7.6396856e-09
6.5487049e-08
9.8972074e-09
6.7138519e-08
1.2230472e-08
6.8709301e-08
1.4635598e-08
7.0194411e-08
1.7108855e-08
7.1588994e-08
1.9645558e-08
7.2889102e-08
2.2241149e-08
7.4090349e-08
2.4891282e-08
7.5188639e-08
2.7591056e-08
7.6180408e-08
3.0335728e-08
7.7062219e-08
3.3120108e-08
7.7830821e-08
3.5938914e-08
7.8483851e-08
3.87873e-08
7.9018073e-08
4.1660081e-08
7.9431481e-08
4.4551787e-08
7.9721755e-08
4.7457363e-08
7.9887083e-08
5.037123e-08
7.992608e-08
5.3288156e-08
7.9837321e-08
5.6202984e-08
7.9619602e-08
5.9109968e-08
7.927263e-08
6.2004319e-08
7.8795463e-08
7.8188317e-08
-2.9380683e-11
-1.9692073e-10
-1.1739484e-10
-5.8923953e-10
-2.6350436e-10
-9.7347407e-10
-4.6685345e-10
-1.3439731e-09
-7.2612649e-10
-1.694455e-09
-1.0396776e-09
-2.0189984e-09
-1.4054781e-09
-2.3120081e-09
-1.8211445e-09
-2.5680498e-09
-2.2839155e-09
-2.7818079e-09
-2.7908035e-09
-2.9482243e-09
-3.3384503e-09
-3.062471e-09
-3.9232252e-09
-3.120005e-09
-4.5411699e-09
-3.1166018e-09
-5.1881482e-09
-3.0481871e-09
-5.8598338e-09
-2.9110412e-09
-6.5515336e-09
-2.7019762e-09
-7.2583567e-09
-2.4181116e-09
-7.9756986e-09
-2.0564217e-09
-8.6985546e-09
-1.6147318e-09
-9.4212714e-09
-1.0914615e-09
-1.0138834e-08
-4.8498889e-10
-1.0845316e-08
2.0524603e-10
-1.1537553e-08
9.8193007e-10
-1.2207951e-08
1.8436621e-09
-1.2851599e-08
2.7902819e-09
-1.346336e-08
3.8218956e-09
-1.4038003e-08
4.9371024e-09
-1.4570296e-08
6.1347224e-09
-1.5055154e-08
7.4131513e-09
-1.5487821e-08
8.7703275e-09
-1.586353e-08
1.0203953e-08
-1.6177835e-08
1.1711012e-08
-1.6426128e-08
1.3288501e-08
-1.6604404e-08
1.4933085e-08
-1.6708584e-08
1.6640941e-08
-1.6735066e-08
1.8408054e-08
-1.668045e-08
2.0230188e-08
-1.6541552e-08
2.2102695e-08
-1.6315516e-08
2.4020868e-08
-1.5999803e-08
2.5979604e-08
-1.5592131e-08
2.7973826e-08
-1.5090589e-08
2.999814e-08
-1.4493463e-08
3.2046865e-08
-1.3799354e-08
3.4114324e-08
-1.3007339e-08
3.6195037e-08
-1.211682e-08
3.8282935e-08
-1.1127189e-08
4.0372374e-08
-1.0038734e-08
4.2457125e-08
-8.8515945e-09
4.453105e-08
-7.5664283e-09
4.6588483e-08
-6.1840397e-09
4.862334e-08
-4.7056883e-09
5.0629541e-08
-3.1327027e-09
5.2601448e-08
-1.4675216e-09
5.4533528e-08
2.8893107e-10
5.6419063e-08
2.1324794e-09
5.8253808e-08
4.0625207e-09
6.003137e-08
6.0751095e-09
6.1747004e-08
8.1670631e-09
6.3394824e-08
1.0335553e-08
6.4970158e-08
1.257673e-08
6.6468241e-08
1.4886823e-08
6.7884265e-08
1.7261971e-08
6.9214049e-08
1.969809e-08
7.0452816e-08
2.2191147e-08
7.159736e-08
2.4736358e-08
7.264338e-08
2.7329354e-08
7.358747e-08
2.9965505e-08
7.4425961e-08
3.2639849e-08
7.5156589e-08
3.5347954e-08
7.5775839e-08
3.8084574e-08
7.6281517e-08
4.0845169e-08
7.6670981e-08
4.3623947e-08
7.6942903e-08
4.6416269e-08
7.7094735e-08
4.9217166e-08
7.7125206e-08
5.2021576e-08
7.703289e-08
5.4823923e-08
7.6817173e-08
5.7619559e-08
7.6476989e-08
6.0403175e-08
7.6011932e-08
7.5421545e-08
-2.7414138e-11
-1.695065e-10
-1.0953001e-10
-5.0711996e-10
-2.458298e-10
-8.3717363e-10
-4.3550354e-10
-1.1543051e-09
-6.7736091e-10
-1.4526039e-09
-9.6981518e-10
-1.7265376e-09
-1.3109789e-09
-1.9708568e-09
-1.6985766e-09
-2.1804514e-09
-2.1300903e-09
-2.3502704e-09
-2.6026667e-09
-2.4756678e-09
-3.1131187e-09
-2.5520275e-09
-3.6580313e-09
-2.5751028e-09
-4.2338105e-09
-2.5408333e-09
-4.836446e-09
-2.4455076e-09
-5.4618589e-09
-2.2856902e-09
-6.105408e-09
-2.0584408e-09
-6.7634307e-09
-1.7600697e-09
-7.4305943e-09
-1.3893021e-09
-8.102358e-09
-9.4294098e-10
-8.7737087e-09
-4.2011198e-10
-9.4390886e-09
1.8043955e-10
-1.009562e-08
8.6174066e-10
-1.073651e-08
1.6228475e-09
-1.1356679e-08
2.4637492e-09
-1.1951519e-08
3.3851402e-09
-1.251569e-08
4.3860382e-09
-1.3044325e-08
5.4657497e-09
-1.3532765e-08
6.6232051e-09
-1.3976192e-08
7.8564872e-09
-1.4369774e-08
9.1639356e-09
-1.4709195e-08
1.0543361e-08
-1.4990015e-08
1.1991919e-08
-1.5208254e-08
1.3506696e-08
-1.5359947e-08
1.508481e-08
-1.5441329e-08
1.6722325e-08
-1.5448899e-08
1.8415554e-08
-1.5379258e-08
2.0160664e-08
-1.5229671e-08
2.1953103e-08
-1.4997185e-08
2.3788476e-08
-1.4679645e-08
2.5661988e-08
-1.4274526e-08
2.7568759e-08
-1.3780121e-08
2.9503718e-08
-1.3194828e-08
3.1461531e-08
-1.2517393e-08
3.3436832e-08
-1.1746764e-08
3.5424478e-08
-1.088235e-08
3.7418631e-08
-9.9237556e-09
3.9413756e-08
-8.8709072e-09
4.140427e-08
-7.7240075e-09
4.3384235e-08
-6.4837657e-09
4.5348308e-08
-5.1508072e-09
4.7290423e-08
-3.7263933e-09
4.9205164e-08
-2.2118537e-09
5.1086876e-08
-6.0901087e-10
5.2930802e-08
1.0809181e-09
5.4729012e-08
2.854154e-09
5.6480707e-08
4.7090711e-09
5.8176375e-08
6.6434174e-09
5.9812553e-08
8.6539899e-09
6.1384339e-08
1.0737642e-08
6.2886454e-08
1.2890979e-08
6.4314856e-08
1.5110395e-08
6.5664951e-08
1.7392282e-08
6.6932046e-08
1.9732529e-08
6.8112477e-08
2.2127379e-08
6.9202701e-08
2.4572415e-08
7.0198397e-08
2.7063531e-08
7.1096379e-08
2.9596007e-08
7.1893514e-08
3.2165708e-08
7.2586878e-08
3.4767761e-08
7.3173837e-08
3.7397524e-08
7.365181e-08
4.0049792e-08
7.401869e-08
4.2720715e-08
7.4272008e-08
4.5404725e-08
7.4410759e-08
4.8097385e-08
7.4432679e-08
5.0793447e-08
7.4336902e-08
5.348818e-08
7.4122431e-08
5.6176787e-08
7.3788435e-08
5.8854358e-08
7.3334123e-08
7.2759856e-08
-2.555003e-11
-1.4395626e-10
-1.0210432e-10
-4.3056592e-10
-2.2919914e-10
-7.1008098e-10
-4.0605564e-10
-9.774441e-10
-6.3154199e-10
-1.2271129e-09
-9.0417952e-10
-1.453899e-09
-1.2221703e-09
-1.6528713e-09
-1.5834463e-09
-1.8191752e-09
-1.9855548e-09
-1.9481845e-09
-2.4258554e-09
-2.0353708e-09
-2.9013845e-09
-2.0765066e-09
-3.4088739e-09
-2.0675771e-09
-3.9449642e-09
-2.0047353e-09
-4.5056383e-09
-1.8848388e-09
-5.0875315e-09
-1.7037708e-09
-5.6866769e-09
-1.4592974e-09
-6.2983146e-09
-1.1484084e-09
-6.9180955e-09
-7.6950472e-10
-7.5419479e-09
-3.1906346e-10
-8.1641067e-09
2.0204798e-10
-8.78273e-09
7.9899339e-10
-9.3906078e-09
1.4696637e-09
-9.9832909e-09
2.2155368e-09
-1.0556482e-08
3.0369687e-09
-1.1105091e-08
3.9336565e-09
-1.1624429e-08
4.9054348e-09
-1.2110013e-08
5.9513645e-09
-1.255707e-08
7.0702146e-09
-1.2961236e-08
8.2606701e-09
-1.331803e-08
9.520716e-09
-1.362312e-08
1.0848507e-08
-1.3872812e-08
1.224147e-08
-1.4062829e-08
1.369677e-08
-1.4189482e-08
1.5211488e-08
-1.4249322e-08
1.6782085e-08
-1.4239014e-08
1.8405253e-08
-1.4155386e-08
2.0077051e-08
-1.3995723e-08
2.1793426e-08
-1.3757358e-08
2.3550071e-08
-1.3437917e-08
2.5342579e-08
-1.3035332e-08
2.7166197e-08
-1.254773e-08
2.9016075e-08
-1.1973763e-08
3.0887541e-08
-1.1312153e-08
3.2775214e-08
-1.0561932e-08
3.4674234e-08
-9.7223424e-09
3.6579087e-08
-8.7930801e-09
3.8484511e-08
-7.7740766e-09
4.0385184e-08
-6.6654753e-09
4.2275702e-08
-5.467926e-09
4.4150696e-08
-4.1820965e-09
4.600448e-08
-2.8088706e-09
4.7831893e-08
-1.3498731e-09
4.9627817e-08
1.9409364e-10
5.138682e-08
1.8191295e-09
5.3104007e-08
3.5256715e-09
5.4774225e-08
5.3099369e-09
5.6392145e-08
7.1700923e-09
5.795249e-08
9.1030216e-09
5.9451309e-08
1.1105616e-08
6.0883908e-08
1.317516e-08
6.2245374e-08
1.5308165e-08
6.3532021e-08
1.7500708e-08
6.4739416e-08
1.9749412e-08
6.586389e-08
2.20503e-08
6.6901697e-08
2.4399833e-08
6.7848881e-08
2.6793356e-08
6.8702735e-08
2.9227043e-08
6.9459815e-08
3.1696221e-08
7.0117672e-08
3.4196679e-08
7.0673288e-08
3.6723907e-08
7.1124667e-08
3.9273479e-08
7.1469138e-08
4.1840636e-08
7.1704823e-08
4.4420897e-08
7.1830411e-08
4.7009739e-08
7.1844007e-08
4.960214e-08
7.1744373e-08
5.2193687e-08
7.1530924e-08
5.47794e-08
7.1202643e-08
5.7355002e-08
7.0758713e-08
7.0198984e-08
-2.3797616e-11
-1.201572e-10
-9.5125469e-11
-3.5923859e-10
-2.1357406e-10
-5.9163749e-10
-3.7839757e-10
-8.1262125e-10
-5.8851208e-10
-1.016999e-09
-8.4252031e-10
-1.1998824e-09
-1.1387682e-09
-1.3566213e-09
-1.4752675e-09
-1.4826652e-09
-1.8497381e-09
-1.5737099e-09
-2.2597069e-09
-1.6254012e-09
-2.7023813e-09
-1.6338533e-09
-3.1745954e-09
-1.5953608e-09
-3.6732627e-09
-1.5060715e-09
-4.195181e-09
-1.3629123e-09
-4.7361967e-09
-1.1627512e-09
-5.2927949e-09
-9.0272873e-10
-5.8607789e-09
-5.8043454e-10
-6.4366083e-09
-1.9365268e-10
-7.014606e-09
2.5890218e-10
-7.5930945e-09
7.8057204e-10
-8.1653066e-09
1.3711998e-09
-8.7274101e-09
2.0318022e-09
-9.2752226e-09
2.7633201e-09
-9.8039014e-09
3.565708e-09
-1.0309097e-08
4.4389195e-09
-1.0786306e-08
5.3826378e-09
-1.1231301e-08
6.3962903e-09
-1.1639464e-08
7.4783911e-09
-1.2006675e-08
8.6278537e-09
-1.232883e-08
9.8428137e-09
-1.2601955e-08
1.1121627e-08
-1.2822065e-08
1.246161e-08
-1.2985513e-08
1.3860218e-08
-1.3088751e-08
1.5314711e-08
-1.3128391e-08
1.6821732e-08
-1.3101215e-08
1.8378166e-08
-1.3004511e-08
1.9980298e-08
-1.2835338e-08
2.1624273e-08
-1.2591332e-08
2.3306111e-08
-1.2270271e-08
2.502149e-08
-1.1870169e-08
2.6765994e-08
-1.1389273e-08
2.8535264e-08
-1.082611e-08
3.0324394e-08
-1.0179573e-08
3.2128744e-08
-9.448677e-09
3.3943263e-08
-8.6327563e-09
3.5763166e-08
-7.7314846e-09
3.7583189e-08
-6.7445969e-09
3.9398358e-08
-5.6725149e-09
4.1203542e-08
-4.5155698e-09
4.2993792e-08
-3.2744166e-09
4.4763176e-08
-1.9501231e-09
4.6507735e-08
-5.4409466e-10
4.8221794e-08
9.4321033e-10
4.9899513e-08
2.5082325e-09
5.153899e-08
4.1504378e-09
5.3131975e-08
5.8675919e-09
5.4675109e-08
7.6565304e-09
5.6163437e-08
9.5153866e-09
5.7592611e-08
1.1441085e-08
5.8958019e-08
1.3430588e-08
6.0255909e-08
1.5480687e-08
6.1481934e-08
1.7588282e-08
6.2631902e-08
1.9749581e-08
6.3702494e-08
2.1961243e-08
6.4690096e-08
2.4219006e-08
6.5591103e-08
2.6519363e-08
6.6402362e-08
2.885812e-08
6.7121041e-08
3.1231303e-08
6.7744503e-08
3.3634611e-08
6.8270124e-08
3.6063897e-08
6.8695324e-08
3.8514793e-08
6.9018254e-08
4.0982803e-08
6.9236826e-08
4.3463589e-08
6.9349572e-08
4.5952806e-08
6.9354794e-08
4.844577e-08
6.9251368e-08
5.0938111e-08
6.9038565e-08
5.3425696e-08
6.8715236e-08
5.5903278e-08
6.8280896e-08
6.7735148e-08
-2.2157785e-11
-9.7999949e-11
-8.8583878e-11
-2.9281328e-10
-1.9889863e-10
-4.8131959e-10
-3.5239727e-10
-6.5912135e-10
-5.4805682e-10
-8.2134058e-10
-7.8458833e-10
-9.6335789e-10
-1.0603931e-09
-1.0808162e-09
-1.3736705e-09
-1.1693847e-09
-1.7220799e-09
-1.2252895e-09
-2.1034731e-09
-1.2440082e-09
-2.5152493e-09
-1.2220752e-09
-2.9545832e-09
-1.1560089e-09
-3.4183445e-09
-1.0423184e-09
-3.9032481e-09
-8.7798285e-10
-4.4059986e-09
-6.6001991e-10
-4.9227755e-09
-3.8596894e-10
-5.4498845e-09
-5.3294896e-11
-5.983225e-09
3.3965884e-10
-6.5202704e-09
7.9592301e-10
-7.0554352e-09
1.3157011e-09
-7.5846695e-09
1.9004549e-09
-8.1042173e-09
2.5513227e-09
-8.6094963e-09
3.2685975e-09
-9.0964394e-09
4.0526168e-09
-9.5607939e-09
4.9033155e-09
-9.9983855e-09
5.8202563e-09
-1.040504e-08
6.8029227e-09
-1.0776609e-08
7.8500164e-09
-1.110917e-08
8.960422e-09
-1.1398777e-08
1.0132452e-08
-1.1641626e-08
1.1364436e-08
-1.1833936e-08
1.2653966e-08
-1.1972418e-08
1.3998671e-08
-1.205349e-08
1.5395814e-08
-1.2074144e-08
1.6842375e-08
-1.2031409e-08
1.8335405e-08
-1.1922247e-08
1.9871139e-08
-1.1744329e-08
2.1446339e-08
-1.1495285e-08
2.3057028e-08
-1.1172835e-08
2.4699023e-08
-1.0775114e-08
2.636834e-08
-1.0300602e-08
2.8060637e-08
-9.7478246e-09
2.9771626e-08
-9.11561e-09
3.1496556e-08
-8.4032558e-09
3.3230936e-08
-7.6099126e-09
3.4969789e-08
-6.7351469e-09
3.6708488e-08
-5.7791004e-09
3.8442229e-08
-4.7417165e-09
4.0166231e-08
-3.6234155e-09
4.1875434e-08
-2.425093e-09
4.3564895e-08
-1.1473657e-09
4.5230081e-08
2.0919143e-10
4.6865186e-08
1.641093e-09
4.8467455e-08
3.149245e-09
5.0030933e-08
4.7305672e-09
5.1550709e-08
6.3832447e-09
5.3022268e-08
8.1047398e-09
5.4441837e-08
9.8930283e-09
5.5804289e-08
1.17452e-08
5.710605e-08
1.3658226e-08
5.8342834e-08
1.5629749e-08
5.9510375e-08
1.7655895e-08
6.0605683e-08
1.9733644e-08
6.1624837e-08
2.1859541e-08
6.2564069e-08
2.4030193e-08
6.3420624e-08
2.6241364e-08
6.4191189e-08
2.8489557e-08
6.487295e-08
3.0770878e-08
6.5463113e-08
3.3081261e-08
6.595962e-08
3.5416835e-08
6.6359742e-08
3.7773028e-08
6.6661972e-08
4.0146059e-08
6.6863795e-08
4.2531638e-08
6.6963858e-08
4.4925415e-08
6.696106e-08
4.732301e-08
6.6853821e-08
4.9720117e-08
6.6641414e-08
5.2112751e-08
6.6322558e-08
5.4496576e-08
6.5897177e-08
6.5364643e-08
-2.0626592e-11
-7.737384e-11
-8.2451893e-11
-2.3098525e-10
-1.8512796e-10
-3.7864536e-10
-3.2798917e-10
-5.1626771e-10
-5.1001708e-10
-6.3931048e-10
-7.3006302e-10
-7.4330469e-10
-9.8662077e-10
-8.2426599e-10
-1.2779258e-09
-8.7808745e-10
-1.6021534e-09
-9.0107517e-10
-1.9569391e-09
-8.8922154e-10
-2.3398301e-09
-8.39171e-10
-2.7479303e-09
-7.4789998e-10
-3.1787352e-09
-6.1153259e-10
-3.6289882e-09
-4.2771604e-10
-4.0956755e-09
-1.9334796e-10
-4.5746518e-09
9.3036484e-11
-5.0633635e-09
4.353773e-10
-5.5585384e-09
8.3483412e-10
-6.0551865e-09
1.2925778e-09
-6.5499173e-09
1.810447e-09
-7.0389886e-09
2.3894799e-09
-7.5182093e-09
3.0305293e-09
-7.9836547e-09
3.7340418e-09
-8.4313753e-09
4.500325e-09
-8.8573606e-09
5.329288e-09
-9.2577536e-09
6.2206086e-09
-9.6283404e-09
7.1735143e-09
-9.9655401e-09
8.1872291e-09
-1.0265425e-08
9.2603019e-09
-1.0524374e-08
1.0391419e-08
-1.0738713e-08
1.1578783e-08
-1.0905077e-08
1.2820252e-08
-1.1020012e-08
1.4113606e-08
-1.1080443e-08
1.5456245e-08
-1.108333e-08
1.6845248e-08
-1.1025697e-08
1.8277827e-08
-1.0905132e-08
1.9750543e-08
-1.0718992e-08
2.1260204e-08
-1.0465122e-08
2.2803133e-08
-1.0141471e-08
2.4375428e-08
-9.7462925e-09
2.59731e-08
-9.2779813e-09
2.7592377e-08
-8.7352003e-09
2.9228802e-08
-8.1168999e-09
3.0878202e-08
-7.4220691e-09
3.2536114e-08
-6.6500992e-09
3.419784e-08
-5.8007719e-09
3.5859171e-08
-4.8738959e-09
3.7515465e-08
-3.8697555e-09
3.916196e-08
-2.7881342e-09
4.0793924e-08
-1.6302923e-09
4.2407004e-08
-3.9656302e-10
4.39963e-08
9.1175738e-10
4.5556922e-08
2.2923852e-09
4.7086798e-08
3.7453006e-09
4.8577868e-08
5.2683534e-09
5.0027599e-08
6.8595547e-09
5.1431302e-08
8.5166521e-09
5.2784605e-08
1.0237545e-08
5.4083466e-08
1.2019351e-08
5.532402e-08
1.3859831e-08
5.6502436e-08
1.5755903e-08
5.761438e-08
1.7704451e-08
5.8657171e-08
1.9702568e-08
5.9626655e-08
2.1746742e-08
6.0519885e-08
2.3833461e-08
6.133375e-08
2.5959612e-08
6.2065043e-08
2.8121298e-08
6.2711219e-08
3.031461e-08
6.3269694e-08
3.2536042e-08
6.3738173e-08
3.4781726e-08
6.4114186e-08
3.704749e-08
6.4396068e-08
3.9329457e-08
6.4581818e-08
4.1623577e-08
6.4669777e-08
4.3925928e-08
6.4658769e-08
4.6232007e-08
6.4547686e-08
4.8538047e-08
6.4335435e-08
5.0839838e-08
6.4020806e-08
5.3133325e-08
6.3603802e-08
6.3083609e-08
-1.9190457e-11
-5.8184101e-11
-7.6686414e-11
-1.7348836e-10
-1.7214748e-10
-2.8318461e-10
-3.0494824e-10
-3.8346471e-10
-4.7427843e-10
-4.6998286e-10
-6.7892158e-10
-5.386768e-10
-9.174738e-10
-5.8570311e-10
-1.188301e-09
-6.0726688e-10
-1.4895408e-09
-5.9980958e-10
-1.8191143e-09
-5.5964954e-10
-2.1745951e-09
-4.8369854e-10
-2.5538243e-09
-3.6868405e-10
-2.9535354e-09
-2.1178369e-10
-3.3713479e-09
-9.9326042e-12
-3.8034025e-09
2.3872575e-10
-4.2481328e-09
5.3776641e-10
-4.7011803e-09
8.8843419e-10
-5.1589379e-09
1.2925517e-09
-5.6180455e-09
1.7517322e-09
-6.07504e-09
2.2674027e-09
-6.5260935e-09
2.8405597e-09
-6.967461e-09
3.4719145e-09
-7.3954259e-09
4.1620279e-09
-7.8062448e-09
4.9111419e-09
-8.1962238e-09
5.7192441e-09
-8.5614444e-09
6.5858087e-09
-8.8983317e-09
7.5103973e-09
-9.2031299e-09
8.4920563e-09
-9.4723658e-09
9.5295346e-09
-9.702557e-09
1.0621586e-08
-9.8901574e-09
1.1766394e-08
-1.003199e-08
1.2962089e-08
-1.0124868e-08
1.4206438e-08
-1.0165848e-08
1.5497157e-08
-1.0152017e-08
1.6831406e-08
-1.0080594e-08
1.820645e-08
-9.9492928e-09
1.9619223e-08
-9.7555337e-09
2.1066528e-08
-9.4973065e-09
2.2544926e-08
-9.1728274e-09
2.4050834e-08
-8.78015e-09
2.5580514e-08
-8.3178498e-09
2.7130121e-08
-7.7847128e-09
2.8695731e-08
-7.1794931e-09
3.0273052e-08
-6.5015657e-09
3.1858086e-08
-5.7502425e-09
3.3446551e-08
-4.9251766e-09
3.5034125e-08
-4.0262721e-09
3.6616526e-08
-3.0533478e-09
3.8189057e-08
-2.007132e-09
3.9747752e-08
-8.8805383e-10
4.128789e-08
3.0372375e-10
4.2804499e-08
1.5650893e-09
4.4295579e-08
2.8976884e-09
4.5754241e-08
4.2981919e-09
4.71774e-08
5.7657521e-09
4.8560011e-08
7.2983639e-09
4.9898543e-08
8.8940068e-09
5.1188816e-08
1.0550482e-08
5.2427072e-08
1.2265534e-08
5.3608952e-08
1.4036329e-08
5.4731608e-08
1.5860371e-08
5.5790279e-08
1.7734798e-08
5.6782721e-08
1.9656552e-08
5.770503e-08
2.1622651e-08
5.8553826e-08
2.3629581e-08
5.9326815e-08
2.5674238e-08
6.0020574e-08
2.7752851e-08
6.0632676e-08
2.9862265e-08
6.1160373e-08
3.1998732e-08
6.1601723e-08
3.4158262e-08
6.1954687e-08
3.6337458e-08
6.2217009e-08
3.8532109e-08
6.2387225e-08
4.0738638e-08
6.2463327e-08
4.295302e-08
6.2444201e-08
4.5171469e-08
6.2329358e-08
4.7390152e-08
6.2116737e-08
4.9604547e-08
6.180629e-08
5.1811337e-08
6.1396983e-08
6.0888765e-08
-1.7839937e-11
-4.0343794e-11
-7.1293807e-11
-1.2003508e-10
-1.6002279e-10
-1.9445422e-10
-2.8346628e-10
-2.6001616e-10
-4.407833e-10
-3.1267286e-10
-6.3089311e-10
-3.4856083e-10
-8.5252819e-10
-3.6406677e-10
-1.1040258e-09
-3.5577261e-10
-1.3837646e-09
-3.2007787e-10
-1.6896677e-09
-2.5375273e-10
-2.019583e-09
-1.5377486e-10
-2.3711958e-09
-1.7069207e-11
-2.7418032e-09
1.588055e-10
-3.1287496e-09
3.7703522e-10
-3.5300399e-09
6.3999906e-10
-3.9415057e-09
9.4921499e-10
-4.3603527e-09
1.3072663e-09
-4.7833605e-09
1.7155751e-09
-5.2073054e-09
2.1756639e-09
-5.628632e-09
2.6887593e-09
-6.0439988e-09
3.2559102e-09
-6.4498836e-09
3.8777462e-09
-6.8426818e-09
4.5548619e-09
-7.2188507e-09
5.287308e-09
-7.5748267e-09
6.0752247e-09
-7.9071872e-09
6.9181994e-09
-8.2123086e-09
7.815502e-09
-8.4868121e-09
8.7665423e-09
-8.7271934e-09
9.7699886e-09
-8.9302676e-09
1.0824614e-08
-9.0927873e-09
1.1928917e-08
-9.2116565e-09
1.3080924e-08
-9.2838658e-09
1.4278765e-08
-9.3065171e-09
1.5519831e-08
-9.2770553e-09
1.6801915e-08
-9.1928069e-09
1.812217e-08
-9.0513401e-09
1.9477808e-08
-8.8505963e-09
2.0865795e-08
-8.5886117e-09
2.2282869e-08
-8.2632488e-09
2.372555e-08
-7.8730849e-09
2.5190364e-08
-7.4168019e-09
2.6673738e-08
-6.8927978e-09
2.8171708e-08
-6.3003786e-09
2.9680609e-08
-5.6387127e-09
3.1196441e-08
-4.9069939e-09
3.2714838e-08
-4.1052077e-09
3.4232349e-08
-3.2329011e-09
3.574422e-08
-2.2902177e-09
3.7246498e-08
-1.2779675e-09
3.8735349e-08
-1.9547082e-10
4.020554e-08
9.5531185e-10
4.1653726e-08
2.1739399e-09
4.3076837e-08
3.459296e-09
4.4468862e-08
4.810247e-09
4.5826468e-08
6.2248569e-09
4.7145383e-08
7.7016281e-09
4.8421807e-08
9.2386897e-09
4.9651748e-08
1.0833884e-08
5.0831885e-08
1.2484778e-08
5.1958066e-08
1.418931e-08
5.3026985e-08
1.594467e-08
5.4035013e-08
1.7748124e-08
5.4979299e-08
1.9596951e-08
5.5856042e-08
2.1488301e-08
5.6662584e-08
2.3419034e-08
5.7396102e-08
2.5385562e-08
5.8053914e-08
2.7385117e-08
5.8633123e-08
2.9413974e-08
5.9131435e-08
3.1468515e-08
5.9547109e-08
3.354563e-08
5.9877528e-08
3.5641868e-08
6.0120969e-08
3.7753071e-08
6.0275786e-08
3.9875589e-08
6.0340817e-08
4.2005651e-08
6.0314135e-08
4.4139902e-08
6.0194995e-08
4.6274215e-08
5.9982346e-08
4.8405213e-08
5.9675383e-08
5.0528562e-08
5.9273795e-08
5.8776397e-08
-1.6575146e-11
-2.3769946e-11
-6.622313e-11
-7.0384833e-11
-1.4862849e-10
-1.1205378e-10
-2.6325988e-10
-1.4539884e-10
-4.0930987e-10
-1.666086e-10
-5.858187e-10
-1.7204868e-10
-7.9150166e-10
-1.5839654e-10
-1.0248813e-09
-1.2240023e-10
-1.2843738e-09
-6.0580301e-11
-1.5680793e-09
2.9951849e-11
-1.8737496e-09
1.5189839e-10
-2.1994616e-09
3.0863649e-10
-2.5431911e-09
5.0254728e-10
-2.901932e-09
7.357547e-10
-3.2727441e-09
1.0108201e-09
-3.653156e-09
1.3296444e-09
-4.0399967e-09
1.6941296e-09
-4.4304407e-09
2.1060282e-09
-4.8212438e-09
2.5664759e-09
-5.2092062e-09
3.0767303e-09
-5.5910792e-09
3.6377723e-09
-5.9635328e-09
4.2502236e-09
-6.3232702e-09
4.9145775e-09
-6.6669392e-09
5.63094e-09
-6.9911322e-09
6.3994155e-09
-7.2924895e-09
7.2195683e-09
-7.5677266e-09
8.0907547e-09
-7.8136003e-09
9.0124113e-09
-8.0270315e-09
9.983363e-09
-8.2046865e-09
1.1002279e-08
-8.3436162e-09
1.2067833e-08
-8.4409069e-09
1.3178225e-08
-8.4937083e-09
1.4331526e-08
-8.4992754e-09
1.5525454e-08
-8.4551689e-09
1.6757844e-08
-8.3589731e-09
1.8025977e-08
-8.2083097e-09
1.9327108e-08
-8.0011629e-09
2.0658601e-08
-7.7355198e-09
2.201724e-08
-7.4097992e-09
2.3399772e-08
-7.0222445e-09
2.4802823e-08
-6.5715053e-09
2.6223043e-08
-6.0565732e-09
2.7656799e-08
-5.476439e-09
2.9100434e-08
-4.8301223e-09
3.0550117e-08
-4.1173234e-09
3.2002136e-08
-3.3376831e-09
3.3452637e-08
-2.4907448e-09
3.4897302e-08
-1.5769518e-09
3.6332666e-08
-5.960366e-10
3.7754507e-08
4.5096826e-10
3.9158433e-08
1.5625462e-09
4.0542152e-08
2.7397352e-09
4.1899641e-08
3.9804768e-09
4.3228094e-08
5.2836725e-09
4.452332e-08
6.6475296e-09
4.5781596e-08
8.0710932e-09
4.6998284e-08
9.5520207e-09
4.8170736e-08
1.1088584e-08
4.9295366e-08
1.2678496e-08
5.0368087e-08
1.4319623e-08
5.1385916e-08
1.6009219e-08
5.2345271e-08
1.7745069e-08
5.3243312e-08
1.9524375e-08
5.4076798e-08
2.1344105e-08
5.4842822e-08
2.3201479e-08
5.5538707e-08
2.5093706e-08
5.6161589e-08
2.7017416e-08
5.6709615e-08
2.8969096e-08
5.7179801e-08
3.0945815e-08
5.7570384e-08
3.2943977e-08
5.7879274e-08
3.4960394e-08
5.8104588e-08
3.6991516e-08
5.8244831e-08
3.9033501e-08
5.8298714e-08
4.1082869e-08
5.8264713e-08
4.313642e-08
5.8141675e-08
4.5190232e-08
5.7928487e-08
4.7240705e-08
5.7624828e-08
4.9284329e-08
5.7230056e-08
5.674345e-08
-1.5385197e-11
-8.3832807e-12
-6.1470432e-11
-2.4301806e-11
-1.3793496e-10
-3.5588292e-11
-2.4424763e-10
-3.9086861e-11
-3.7971319e-10
-3.1141884e-11
-5.4342499e-10
-8.340877e-12
-7.3408779e-10
3.2273021e-11
-9.5052493e-10
9.4021114e-11
-1.1908828e-09
1.7978287e-10
-1.4536766e-09
2.9274711e-10
-1.7371986e-09
4.3541248e-10
-2.0390224e-09
6.1045985e-10
-2.3567663e-09
8.2030525e-10
-2.6882605e-09
1.067249e-09
-3.0308989e-09
1.3534764e-09
-3.3821724e-09
1.6809191e-09
-3.7391829e-09
2.0510985e-09
-4.0988994e-09
2.4658107e-09
-4.4586071e-09
2.9261538e-09
-4.8151974e-09
3.4333362e-09
-5.1656017e-09
3.988185e-09
-5.5066998e-09
4.5913139e-09
-5.8353623e-09
5.2432442e-09
-6.1484308e-09
5.9439845e-09
-6.4425822e-09
6.6935827e-09
-6.714844e-09
7.4917941e-09
-6.9621178e-09
8.3380807e-09
-7.1812199e-09
9.2315043e-09
-7.3692118e-09
1.017133e-08
-7.5230615e-09
1.1156162e-08
-7.6399091e-09
1.2184672e-08
-7.7170152e-09
1.3255364e-08
-7.7516616e-09
1.4366159e-08
-7.7413858e-09
1.5515098e-08
-7.6836143e-09
1.6700111e-08
-7.5761859e-09
1.7918518e-08
-7.4169679e-09
1.9167941e-08
-7.2038887e-09
2.044554e-08
-6.9349939e-09
2.1748403e-08
-6.6089787e-09
2.3073652e-08
-6.2240647e-09
2.4417946e-08
-5.7791064e-09
2.5778048e-08
-5.2728594e-09
2.7150553e-08
-4.7044881e-09
2.8532078e-08
-4.073214e-09
2.9918838e-08
-3.3785506e-09
3.1307374e-08
-2.619947e-09
3.2694002e-08
-1.7975206e-09
3.4074899e-08
-9.1135302e-10
3.5446396e-08
3.8934191e-11
3.6804179e-08
1.0516797e-09
3.8145687e-08
2.1272464e-09
3.9466604e-08
3.2643953e-09
4.0762452e-08
4.4624205e-09
4.2030185e-08
5.7201402e-09
4.3265598e-08
7.036185e-09
4.4465411e-08
8.4084869e-09
4.5625943e-08
9.8358707e-09
4.6743325e-08
1.1316469e-08
4.7814854e-08
1.2847765e-08
4.8836787e-08
1.4428436e-08
4.9805301e-08
1.6055065e-08
5.0718484e-08
1.772623e-08
5.1572225e-08
1.9438856e-08
5.2364242e-08
2.1190484e-08
5.3091293e-08
2.2978076e-08
5.3750962e-08
2.4798916e-08
5.434089e-08
2.6649776e-08
5.4858674e-08
2.8527964e-08
5.5301624e-08
3.042979e-08
5.5668384e-08
3.2352561e-08
5.5956662e-08
3.4292484e-08
5.6164682e-08
3.6246625e-08
5.6290731e-08
3.8211498e-08
5.6333803e-08
4.018373e-08
5.629243e-08
4.215979e-08
5.6165644e-08
4.413619e-08
5.5952153e-08
4.6109433e-08
5.5651534e-08
4.8076425e-08
5.5263191e-08
5.4786536e-08
-1.4263192e-11
5.880036e-12
-5.6989329e-11
1.8421383e-11
-1.2782453e-10
3.52485e-11
-2.2640731e-10
5.9499945e-11
-3.5200158e-10
9.4453122e-11
-5.0351138e-10
1.4317011e-10
-6.802134e-10
2.0896653e-10
-8.8064992e-10
2.9446417e-10
-1.1034267e-09
4.0257665e-10
-1.3467649e-09
5.360869e-10
-1.6088869e-09
6.9753971e-10
-1.8877844e-09
8.8935191e-10
-2.1813829e-09
1.1139074e-09
-2.4875696e-09
1.3734308e-09
-2.8038592e-09
1.6697627e-09
-3.127665e-09
2.0046909e-09
-3.4564235e-09
2.3798991e-09
-3.7874647e-09
2.7967904e-09
-4.1179533e-09
3.2566388e-09
-4.4450728e-09
3.7604412e-09
-4.765919e-09
4.3090311e-09
-5.0775606e-09
4.9029852e-09
-5.3770296e-09
5.5426523e-09
-5.6613359e-09
6.2283067e-09
-5.9274704e-09
6.9597535e-09
-6.1724759e-09
7.7367961e-09
-6.393336e-09
8.5589177e-09
-6.5873351e-09
9.4254569e-09
-6.7514226e-09
1.0335398e-08
-6.8829351e-09
1.1287683e-08
-6.9790826e-09
1.2280821e-08
-7.0373398e-09
1.3313561e-08
-7.0549075e-09
1.4383847e-08
-7.0297639e-09
1.5489945e-08
-6.9594054e-09
1.6629719e-08
-6.8415664e-09
1.7800721e-08
-6.6743966e-09
1.9000843e-08
-6.4559198e-09
2.0227084e-08
-6.1844142e-09
2.1476804e-08
-5.8581868e-09
2.2747505e-08
-5.475988e-09
2.4035804e-08
-5.0365516e-09
2.5338607e-08
-4.538908e-09
2.6652863e-08
-3.981837e-09
2.797509e-08
-3.3650145e-09
2.9301939e-08
-2.687538e-09
3.0629968e-08
-1.9493952e-09
3.1955727e-08
-1.1503913e-09
3.3275926e-08
-2.903899e-10
3.4586495e-08
6.3045288e-10
3.5883293e-08
1.6108759e-09
3.7165328e-08
2.6514167e-09
3.8425949e-08
3.7506029e-09
3.966331e-08
4.9079278e-09
4.0872698e-08
6.1219407e-09
4.2051517e-08
7.3917176e-09
4.3195716e-08
8.7155617e-09
4.4302142e-08
1.0091817e-08
4.5367138e-08
1.1518603e-08
4.6387994e-08
1.2994523e-08
4.7360893e-08
1.4516853e-08
4.8283102e-08
1.6083802e-08
4.9151521e-08
1.7692899e-08
4.9963123e-08
1.9342038e-08
5.0715105e-08
2.1028171e-08
5.1405007e-08
2.2748935e-08
5.2030315e-08
2.4501368e-08
5.2588535e-08
2.6282715e-08
5.3077251e-08
2.8089977e-08
5.3494341e-08
2.9920395e-08
5.3838147e-08
3.1770648e-08
5.4106302e-08
3.3637576e-08
5.4297563e-08
3.5518123e-08
5.4410432e-08
3.7409036e-08
5.4442818e-08
3.9306966e-08
5.4394456e-08
4.1208898e-08
5.4263762e-08
4.3111056e-08
5.4050179e-08
4.5010094e-08
5.3752405e-08
4.690301e-08
5.3370321e-08
5.2903149e-08
-1.3206155e-11
1.9086053e-11
-5.2764364e-11
5.7982014e-11
-1.1841866e-10
1.0090493e-10
-2.0966853e-10
1.5074713e-10
-3.2590198e-10
2.1067366e-10
-4.6633178e-10
2.8360888e-10
-6.2979367e-10
3.7241885e-10
-8.1516811e-10
4.7983145e-10
-1.0210701e-09
6.0847698e-10
-1.2459761e-09
7.6097811e-10
-1.4881415e-09
9.3971735e-10
-1.7457645e-09
1.1469832e-09
-2.0168201e-09
1.3849594e-09
-2.2991683e-09
1.6557483e-09
-2.5905242e-09
1.9611477e-09
-2.8886181e-09
2.3027854e-09
-3.1909305e-09
2.6821703e-09
-3.4949161e-09
3.1007802e-09
-3.7979582e-09
3.5596843e-09
-4.0974449e-09
4.059955e-09
-4.3905551e-09
4.6021155e-09
-4.6745873e-09
5.1869598e-09
-4.9465702e-09
5.8146984e-09
-5.2039341e-09
6.4856264e-09
-5.4437036e-09
7.1995299e-09
-5.6631163e-09
7.9562078e-09
-5.8593649e-09
8.7551572e-09
-6.029746e-09
9.5957905e-09
-6.1714336e-09
1.0477113e-08
-6.2820318e-09
1.1398239e-08
-6.3588827e-09
1.2357702e-08
-6.3993157e-09
1.3354041e-08
-6.4011342e-09
1.4385681e-08
-6.3621272e-09
1.5450891e-08
-6.2798799e-09
1.6547469e-08
-6.1524804e-09
1.7673314e-08
-5.9779375e-09
1.8826281e-08
-5.7545085e-09
2.000366e-08
-5.4805516e-09
2.1202852e-08
-5.1545496e-09
2.2421547e-08
-4.7751469e-09
2.3656284e-08
-4.3412409e-09
2.4904741e-08
-3.8516646e-09
2.6163328e-08
-3.3058254e-09
2.7429199e-08
-2.7027537e-09
2.8698897e-08
-2.0419313e-09
2.996917e-08
-1.3234688e-09
3.1237329e-08
-5.4677418e-10
3.2499331e-08
2.884797e-10
3.3751217e-08
1.1802199e-09
3.4991615e-08
2.1302315e-09
3.6215299e-08
3.1368658e-09
3.7419224e-08
4.2000129e-09
3.8600176e-08
5.318431e-09
3.9754391e-08
6.490941e-09
4.0878976e-08
7.7165349e-09
4.1970068e-08
8.9937094e-09
4.3024972e-08
1.0321078e-08
4.4039729e-08
1.1696908e-08
4.5012176e-08
1.3119261e-08
4.5938467e-08
1.4586284e-08
4.6816047e-08