/*--------------------------------*- C++ -*----------------------------------*\
| =========                 |                                                 |
| \\      /  F ield         | OpenFOAM: The Open Source CFD Toolbox           |
|  \\    /   O peration     | Version:  2306                                  |
|   \\  /    A nd           | Website:  www.openfoam.com                      |
|    \\/     M anipulation  |                                                 |
\*---------------------------------------------------------------------------*/
FoamFile
{
    version     2.0;
    format      ascii;
    arch        "LSB;label=32;scalar=64";
    class       surfaceScalarField;
    location    "0.02";
    object      phi_0;
}
// * * * * * * * * * * * * * * * * * * * * * * * * * * * * * * * * * * * * * //

dimensions      [0 3 -1 0 0 0 0];

oriented        oriented;

internalField   nonuniform List<scalar> 
101920
(
-3.3065847e-10
3.3065854e-10
-1.3364252e-09
1.0057665e-09
-3.0087624e-09
1.6723374e-09
-5.3458387e-09
2.3370759e-09
-8.3402148e-09
2.9943757e-09
-1.1982101e-08
3.6418868e-09
-1.6260247e-08
4.2781454e-09
-2.1161458e-08
4.9012116e-09
-2.6670761e-08
5.5093022e-09
-3.2771446e-08
6.1006844e-09
-3.9445143e-08
6.6736965e-09
-4.6671906e-08
7.2267649e-09
-5.4430317e-08
7.7584096e-09
-6.2697574e-08
8.2672576e-09
-7.1449612e-08
8.7520377e-09
-8.0661203e-08
9.2115922e-09
-9.0306084e-08
9.6448798e-09
-1.0035707e-07
1.0050982e-08
-1.1078616e-07
1.0429099e-08
-1.2156472e-07
1.0778557e-08
-1.3266352e-07
1.1098801e-08
-1.4405292e-07
1.1389405e-08
-1.5570299e-07
1.1650065e-08
-1.6758359e-07
1.1880599e-08
-1.7966452e-07
1.2080935e-08
-1.9191564e-07
1.2251118e-08
-2.0430694e-07
1.23913e-08
-2.1680869e-07
1.2501753e-08
-2.2939153e-07
1.2582834e-08
-2.4202654e-07
1.2635009e-08
-2.5468536e-07
1.2658823e-08
-2.6734026e-07
1.2654901e-08
-2.7996423e-07
1.2623965e-08
-2.9253102e-07
1.2566789e-08
-3.0501523e-07
1.2484211e-08
-3.1739236e-07
1.2377137e-08
-3.2963888e-07
1.2246517e-08
-3.4173222e-07
1.2093343e-08
-3.5365088e-07
1.191866e-08
-3.6537443e-07
1.1723552e-08
-3.7688365e-07
1.1509217e-08
-3.8816074e-07
1.1277086e-08
-3.9919006e-07
1.1029317e-08
-4.0995612e-07
1.0766062e-08
-4.2044294e-07
1.0486822e-08
-4.3063595e-07
1.0193015e-08
-4.4052229e-07
9.8863359e-09
-4.5009047e-07
9.5681878e-09
-4.5933024e-07
9.2397607e-09
-4.682324e-07
8.9021651e-09
-4.7678887e-07
8.5564664e-09
-4.8499255e-07
8.2036815e-09
-4.9283736e-07
7.8448154e-09
-5.0031821e-07
7.480839e-09
-5.0743088e-07
7.1126788e-09
-5.1417213e-07
6.7412495e-09
-5.2053954e-07
6.3674062e-09
-5.2653151e-07
5.9919783e-09
-5.3214727e-07
5.6157479e-09
-5.3738674e-07
5.2394814e-09
-5.4225063e-07
4.8638744e-09
-5.4674024e-07
4.4896199e-09
-5.5085756e-07
4.1173175e-09
-5.5460514e-07
3.7475781e-09
-5.579861e-07
3.3809558e-09
-5.6100408e-07
3.0179836e-09
-5.6366321e-07
2.6591267e-09
-5.6596807e-07
2.3048591e-09
-5.6792366e-07
1.9555946e-09
-5.6953538e-07
1.6117107e-09
-5.7080888e-07
1.2735033e-09
-5.7174985e-07
9.4097292e-10
-5.7236309e-07
6.1323788e-10
-5.7264897e-07
2.8588196e-10
-5.7259996e-07
-4.9010448e-11
-5.7226769e-07
-3.3227947e-10
-5.7163992e-07
-6.2775813e-10
-5.707197e-07
-9.2022173e-10
-5.6951306e-07
-1.2066407e-09
-5.6802697e-07
-1.4860883e-09
-5.6626866e-07
-1.7583077e-09
-5.6424545e-07
-2.0232057e-09
-5.6196465e-07
-2.2807933e-09
-5.5943358e-07
-2.5310685e-09
-5.5665947e-07
-2.7741233e-09
-5.5364945e-07
-3.0100175e-09
-5.5041062e-07
-3.2388318e-09
-5.4694997e-07
-3.4606489e-09
-5.4327441e-07
-3.675554e-09
-5.3939077e-07
-3.8836348e-09
-5.3530577e-07
-4.0850104e-09
-5.3102599e-07
-4.2797783e-09
-5.2655791e-07
-4.468082e-09
-5.2190785e-07
-4.6500483e-09
-5.1708202e-07
-4.8258309e-09
-5.1208648e-07
-4.9955493e-09
-5.0692712e-07
-5.1593658e-09
-5.016097e-07
-5.3174137e-09
-4.9613982e-07
-5.4698753e-09
-4.9052293e-07
-5.6168935e-09
-4.8476428e-07
-5.7586551e-09
-4.7886899e-07
-5.8952863e-09
-4.7284199e-07
-6.0270053e-09
-4.6668807e-07
-6.1539283e-09
-4.6041181e-07
-6.276256e-09
-4.540177e-07
-6.3941078e-09
-4.4750998e-07
-6.5077177e-09
-4.4089277e-07
-6.6172263e-09
-4.3416998e-07
-6.7227675e-09
-4.2734547e-07
-6.824519e-09
-4.2042281e-07
-6.922653e-09
-4.1340548e-07
-7.0173321e-09
-4.0629677e-07
-7.1087128e-09
-3.9909982e-07
-7.1969543e-09
-3.9181763e-07
-7.2821749e-09
-3.8445305e-07
-7.3645872e-09
-3.7700873e-07
-7.4443171e-09
-3.6948726e-07
-7.5214747e-09
-3.6189101e-07
-7.5962392e-09
-3.5422227e-07
-7.6687541e-09
-3.4648313e-07
-7.739129e-09
-3.386756e-07
-7.8075271e-09
-3.3080151e-07
-7.8740868e-09
-3.2286261e-07
-7.9389138e-09
-3.1486048e-07
-8.0021261e-09
-3.067966e-07
-8.0638785e-09
-2.9867236e-07
-8.1242374e-09
-2.9048899e-07
-8.1833684e-09
-2.8224764e-07
-8.2413556e-09
-2.7394932e-07
-8.2983264e-09
-2.6559495e-07
-8.3543734e-09
-2.5718534e-07
-8.4096151e-09
-2.487212e-07
-8.4641333e-09
-2.4020317e-07
-8.5180338e-09
-2.3163177e-07
-8.5714067e-09
-2.2300741e-07
-8.6243429e-09
-2.1433048e-07
-8.6769385e-09
-2.0560122e-07
-8.7292571e-09
-1.9681983e-07
-8.7813889e-09
-1.879864e-07
-8.8334162e-09
-1.7910098e-07
-8.8854197e-09
-1.7016353e-07
-8.9374472e-09
-1.6117395e-07
-8.9895817e-09
-1.5213206e-07
-9.041883e-09
-1.4303764e-07
-9.0944361e-09
-1.3389038e-07
-9.1472509e-09
-1.2468991e-07
-9.2004474e-09
-1.154359e-07
-9.2540375e-09
-1.0612786e-07
-9.3080318e-09
-9.6765347e-08
-9.3625255e-09
-8.7347819e-08
-9.417527e-09
-7.7874763e-08
-9.473054e-09
-6.834567e-08
-9.5291018e-09
-5.8760177e-08
-9.5854847e-09
-4.911825e-08
-9.6419279e-09
-3.9420678e-08
-9.6975645e-09
-2.9670205e-08
-9.7504803e-09
-1.9872877e-08
-9.7973319e-09
-1.0027442e-08
-9.8454298e-09
-1.0027444e-08
-4.2347596e-10
7.5413449e-10
-1.685753e-09
2.2680435e-09
-3.7866118e-09
3.7731964e-09
-6.7185559e-09
5.2690199e-09
-1.0472912e-08
6.7487318e-09
-1.5038445e-08
8.2074203e-09
-2.0401106e-08
9.640806e-09
-2.6544485e-08
1.1044591e-08
-3.3449853e-08
1.241467e-08
-4.1096264e-08
1.3747097e-08
-4.946068e-08
1.5038111e-08
-5.8518063e-08
1.6284149e-08
-6.8241519e-08
1.7481865e-08
-7.8602419e-08
1.8628158e-08
-8.9570535e-08
1.9720154e-08
-1.011142e-07
2.0755254e-08
-1.1320042e-07
2.1731106e-08
-1.2579508e-07
2.2645642e-08
-1.3886305e-07
2.3497063e-08
-1.5236834e-07
2.4283856e-08
-1.6627432e-07
2.5004777e-08
-1.8054378e-07
2.5658869e-08
-1.9513916e-07
2.6245445e-08
-2.1002266e-07
2.6764099e-08
-2.251564e-07
2.7214667e-08
-2.4050256e-07
2.759728e-08
-2.5602353e-07
2.7912275e-08
-2.7168205e-07
2.8160267e-08
-2.874413e-07
2.8342093e-08
-3.0326507e-07
2.8458778e-08
-3.1911782e-07
2.8511571e-08
-3.3496481e-07
2.8501894e-08
-3.5077222e-07
2.843137e-08
-3.6650719e-07
2.8301757e-08
-3.8213793e-07
2.8114962e-08
-3.9763382e-07
2.7873025e-08
-4.1296543e-07
2.7578124e-08
-4.281046e-07
2.723251e-08
-4.4302449e-07
2.6838547e-08
-4.5769964e-07
2.6398703e-08
-4.7210594e-07
2.5915518e-08
-4.8622053e-07
2.5391675e-08
-5.0002113e-07
2.4829914e-08
-5.1348749e-07
2.4232425e-08
-5.2660192e-07
2.3601251e-08
-5.3934786e-07
2.2938953e-08
-5.5170978e-07
2.2248254e-08
-5.636734e-07
2.1531814e-08
-5.7522584e-07
2.0792192e-08
-5.8635553e-07
2.0031855e-08
-5.9705228e-07
1.9253213e-08
-6.073072e-07
1.8458607e-08
-6.1711268e-07
1.765029e-08
-6.264623e-07
1.6830453e-08
-6.3535083e-07
1.600121e-08
-6.437742e-07
1.5164607e-08
-6.5172938e-07
1.4322591e-08
-6.5921442e-07
1.347702e-08
-6.6622833e-07
1.2629663e-08
-6.7277109e-07
1.1782234e-08
-6.7884352e-07
1.093631e-08
-6.844473e-07
1.0093405e-08
-6.8958492e-07
9.2549248e-09
-6.9425953e-07
8.4221836e-09
-6.9847501e-07
7.5964448e-09
-7.0223583e-07
6.7788048e-09
-7.0554704e-07
5.970341e-09
-7.0841419e-07
5.1720053e-09
-7.1084329e-07
4.3846862e-09
-7.1284081e-07
3.6092395e-09
-7.1441386e-07
2.8465493e-09
-7.155706e-07
2.0977282e-09
-7.1632194e-07
1.364571e-09
-7.1668699e-07
6.5094304e-10
-7.167103e-07
-2.5705976e-11
-7.1629373e-07
-7.4884577e-10
-7.1549116e-07
-1.4303367e-09
-7.1431963e-07
-2.0917412e-09
-7.1279059e-07
-2.7356872e-09
-7.1091358e-07
-3.3631025e-09
-7.0869764e-07
-3.9742416e-09
-7.0615167e-07
-4.5691816e-09
-7.0328451e-07
-5.1479493e-09
-7.0010505e-07
-5.7105311e-09
-6.9662216e-07
-6.2570107e-09
-6.928447e-07
-6.7874778e-09
-6.8878147e-07
-7.302061e-09
-6.844412e-07
-7.8009165e-09
-6.7983251e-07
-8.2842474e-09
-6.7496391e-07
-8.7522329e-09
-6.6984377e-07
-9.2051358e-09
-6.6448034e-07
-9.6432103e-09
-6.5888168e-07
-1.0066733e-08
-6.5305571e-07
-1.047601e-08
-6.470102e-07
-1.0871349e-08
-6.4075269e-07
-1.1253059e-08
-6.3429056e-07
-1.1621479e-08
-6.2763102e-07
-1.1976963e-08
-6.2078102e-07
-1.2319864e-08
-6.1374738e-07
-1.2650546e-08
-6.0653668e-07
-1.2969347e-08
-5.9915531e-07
-1.327666e-08
-5.9160945e-07
-1.3572856e-08
-5.8390507e-07
-1.3858302e-08
-5.7604793e-07
-1.41334e-08
-5.6804356e-07
-1.4398474e-08
-5.5989734e-07
-1.4653948e-08
-5.5161438e-07
-1.4900183e-08
-5.4319964e-07
-1.5137505e-08
-5.3465781e-07
-1.536635e-08
-5.2599344e-07
-1.5587037e-08
-5.1721081e-07
-1.5799952e-08
-5.0831408e-07
-1.6005447e-08
-4.9930717e-07
-1.6203861e-08
-4.901938e-07
-1.639555e-08
-4.8097754e-07
-1.6580851e-08
-4.7166173e-07
-1.6760119e-08
-4.6224958e-07
-1.6933632e-08
-4.5274405e-07
-1.7101772e-08
-4.4314797e-07
-1.7264836e-08
-4.3346399e-07
-1.7423125e-08
-4.2369458e-07
-1.7576945e-08
-4.1384206e-07
-1.7726599e-08
-4.0390859e-07
-1.7872378e-08
-3.9389618e-07
-1.8014546e-08
-3.8380666e-07
-1.8153395e-08
-3.7364174e-07
-1.828916e-08
-3.6340299e-07
-1.8422138e-08
-3.5309178e-07
-1.8552552e-08
-3.4270941e-07
-1.8680692e-08
-3.3225702e-07
-1.8806776e-08
-3.2173562e-07
-1.8931009e-08
-3.1114609e-07
-1.9053639e-08
-3.0048926e-07
-1.9174878e-08
-2.8976573e-07
-1.9294934e-08
-2.7897605e-07
-1.9414019e-08
-2.6812069e-07
-1.9532315e-08
-2.5719991e-07
-1.9650015e-08
-2.4621401e-07
-1.9767309e-08
-2.3516306e-07
-1.9884365e-08
-2.2404716e-07
-2.0001331e-08
-2.1286621e-07
-2.0118388e-08
-2.016201e-07
-2.0235695e-08
-1.903086e-07
-2.0353381e-08
-1.7893142e-07
-2.0471609e-08
-1.6748821e-07
-2.0590489e-08
-1.559785e-07
-2.0710176e-08
-1.4440181e-07
-2.0830713e-08
-1.3275759e-07
-2.095226e-08
-1.2104517e-07
-2.1074924e-08
-1.0926394e-07
-2.1198769e-08
-9.7413149e-08
-2.1323858e-08
-8.5492032e-08
-2.1450198e-08
-7.3499794e-08
-2.157775e-08
-6.1435398e-08
-2.1706306e-08
-4.9297372e-08
-2.1835582e-08
-3.7082759e-08
-2.1965104e-08
-2.4784182e-08
-2.2095902e-08
-1.2392863e-08
-2.2236787e-08
-2.2420297e-08
-4.3181151e-10
1.185946e-09
-1.7213116e-09
3.5575437e-09
-3.8667382e-09
5.9186228e-09
-6.860588e-09
8.2628701e-09
-1.0693755e-08
1.0581899e-08
-1.5354647e-08
1.2868312e-08
-2.082898e-08
1.511514e-08
-2.71e-08
1.7315611e-08
-3.4148561e-08
1.9463231e-08
-4.1953241e-08
2.1551777e-08
-5.0490454e-08
2.3575326e-08
-5.973458e-08
2.5528274e-08
-6.9658082e-08
2.7405367e-08
-8.0231649e-08
2.9201727e-08
-9.1424349e-08
3.0912854e-08
-1.0320376e-07
3.2534659e-08
-1.1553611e-07
3.4063462e-08
-1.2838649e-07
3.5496024e-08
-1.4171896e-07
3.6829528e-08
-1.5549671e-07
3.8061602e-08
-1.6968224e-07
3.9190308e-08
-1.8423752e-07
4.0214145e-08
-1.9912413e-07
4.1132055e-08
-2.1430342e-07
4.1943391e-08
-2.2973669e-07
4.2647939e-08
-2.4538529e-07
4.3245876e-08
-2.6121079e-07
4.3737779e-08
-2.7717513e-07
4.4124599e-08
-2.9324068e-07
4.4407644e-08
-3.0937046e-07
4.4588557e-08
-3.2552819e-07
4.4669299e-08
-3.4167842e-07
4.4652122e-08
-3.5778661e-07
4.4539567e-08
-3.7381926e-07
4.4334409e-08
-3.8974396e-07
4.4039663e-08
-4.0552949e-07
4.3658546e-08
-4.2114582e-07
4.319446e-08
-4.3656428e-07
4.2650969e-08
-4.5175751e-07
4.2031772e-08
-4.6669951e-07
4.1340706e-08
-4.813657e-07
4.0581711e-08
-4.9573281e-07
3.9758785e-08
-5.0977886e-07
3.8875966e-08
-5.2348356e-07
3.7937123e-08
-5.368284e-07
3.694609e-08
-5.4979629e-07
3.5906837e-08
-5.6237144e-07
3.4823403e-08
-5.7453944e-07
3.3699822e-08
-5.8628729e-07
3.2540036e-08
-5.9760332e-07
3.1347894e-08
-6.0847726e-07
3.0127158e-08
-6.1890016e-07
2.8881501e-08
-6.2886433e-07
2.7614463e-08
-6.3836335e-07
2.6329477e-08
-6.4739202e-07
2.502987e-08
-6.5594624e-07
2.371883e-08
-6.6402305e-07
2.2399402e-08
-6.7162057e-07
2.1074536e-08
-6.787379e-07
1.9746989e-08
-6.8537508e-07
1.8419417e-08
-6.9153311e-07
1.7094328e-08
-6.9721377e-07
1.5774081e-08
-7.0241973e-07
1.446088e-08
-7.0715434e-07
1.3156802e-08
-7.114217e-07
1.1863793e-08
-7.1522653e-07
1.0583641e-08
-7.1857422e-07
9.3180274e-09
-7.2147069e-07
8.0684863e-09
-7.2392241e-07
6.8364041e-09
-7.2593628e-07
5.623105e-09
-7.275195e-07
4.4297742e-09
-7.2867933e-07
3.2575605e-09
-7.294225e-07
2.107738e-09
-7.2975421e-07
9.8265257e-10
-7.2966871e-07
-1.1119396e-10
-7.2921117e-07
-1.2063929e-09
-7.2837548e-07
-2.2660219e-09
-7.2716778e-07
-3.2994447e-09
-7.2559614e-07
-4.3073193e-09
-7.2366948e-07
-5.2897572e-09
-7.2139705e-07
-6.2466731e-09
-7.1878819e-07
-7.1780528e-09
-7.158522e-07
-8.0839317e-09
-7.1259836e-07
-8.9643805e-09
-7.090359e-07
-9.8194728e-09
-7.0517397e-07
-1.0649411e-08
-7.0102159e-07
-1.1454437e-08
-6.9658772e-07
-1.2234793e-08
-6.9188116e-07
-1.2990795e-08
-6.8691062e-07
-1.372278e-08
-6.8168463e-07
-1.4431129e-08
-6.762116e-07
-1.511623e-08
-6.7049979e-07
-1.5778554e-08
-6.6455723e-07
-1.6418567e-08
-6.5839183e-07
-1.7036751e-08
-6.5201129e-07
-1.7633611e-08
-6.454231e-07
-1.8209656e-08
-6.386346e-07
-1.8765468e-08
-6.3165289e-07
-1.9301568e-08
-6.2448489e-07
-1.9818543e-08
-6.1713728e-07
-2.031694e-08
-6.0961658e-07
-2.079737e-08
-6.0192905e-07
-2.1260381e-08
-5.9408076e-07
-2.1706596e-08
-5.8607758e-07
-2.2136596e-08
-5.779251e-07
-2.2550948e-08
-5.696288e-07
-2.2950245e-08
-5.6119391e-07
-2.333508e-08
-5.5262537e-07
-2.3706058e-08
-5.4392801e-07
-2.4063694e-08
-5.3510645e-07
-2.4408608e-08
-5.2616505e-07
-2.4741353e-08
-5.1710799e-07
-2.5062509e-08
-5.0793926e-07
-2.5372581e-08
-4.9866267e-07
-2.567214e-08
-4.892818e-07
-2.596172e-08
-4.7980006e-07
-2.6241862e-08
-4.7022065e-07
-2.6513044e-08
-4.6054662e-07
-2.6775793e-08
-4.5078083e-07
-2.7030618e-08
-4.4092598e-07
-2.727798e-08
-4.3098454e-07
-2.7518364e-08
-4.209589e-07
-2.7752239e-08
-4.1085125e-07
-2.7980042e-08
-4.0066356e-07
-2.8202217e-08
-3.9039777e-07
-2.8419208e-08
-3.8005554e-07
-2.8631405e-08
-3.6963844e-07
-2.8839217e-08
-3.5914793e-07
-2.9043076e-08
-3.4858527e-07
-2.9243356e-08
-3.3795164e-07
-2.9440392e-08
-3.2724807e-07
-2.9634586e-08
-3.1647542e-07
-2.9826288e-08
-3.056345e-07
-3.0015809e-08
-2.9472593e-07
-3.0203488e-08
-2.8375029e-07
-3.0389658e-08
-2.7270802e-07
-3.0574604e-08
-2.615994e-07
-3.075862e-08
-2.5042467e-07
-3.0942033e-08
-2.3918399e-07
-3.1125045e-08
-2.2787735e-07
-3.1307962e-08
-2.1650474e-07
-3.1491018e-08
-2.0506595e-07
-3.1674458e-08
-1.9356081e-07
-3.1858539e-08
-1.8198898e-07
-3.2043441e-08
-1.7035008e-07
-3.222936e-08
-1.5864367e-07
-3.2416566e-08
-1.4686923e-07
-3.2605165e-08
-1.3502616e-07
-3.2795339e-08
-1.2311378e-07
-3.2987289e-08
-1.1113148e-07
-3.3181092e-08
-9.907838e-08
-3.3376942e-08
-8.6953724e-08
-3.3574855e-08
-7.4756528e-08
-3.3774938e-08
-6.2485613e-08
-3.3977226e-08
-5.013939e-08
-3.4181825e-08
-3.7715379e-08
-3.4389101e-08
-2.5210934e-08
-3.460038e-08
-1.262889e-08
-3.4818791e-08
-3.5049183e-08
-4.3363022e-10
1.6195762e-09
-1.732269e-09
4.8561825e-09
-3.8921843e-09
8.0785384e-09
-6.9064084e-09
1.1277094e-08
-1.0765641e-08
1.4441131e-08
-1.5458015e-08
1.7560686e-08
-2.0969058e-08
2.0626184e-08
-2.7281807e-08
2.3628361e-08
-3.4376889e-08
2.6558313e-08
-4.2232631e-08
2.9407519e-08
-5.0825177e-08
3.216787e-08
-6.0128602e-08
3.4831699e-08
-7.0115059e-08
3.7391823e-08
-8.0754905e-08
3.9841572e-08
-9.2016854e-08
4.2174802e-08
-1.0386812e-07
4.4385928e-08
-1.162746e-07
4.6469934e-08
-1.2920097e-07
4.8422399e-08
-1.4261093e-07
5.0239484e-08
-1.5646729e-07
5.1917966e-08
-1.7073218e-07
5.3455204e-08
-1.8536721e-07
5.484917e-08
-2.0033358e-07
5.6098426e-08
-2.155923e-07
5.7202121e-08
-2.3110433e-07
5.8159964e-08
-2.4683068e-07
5.8972227e-08
-2.6273262e-07
5.9639718e-08
-2.7877178e-07
6.0163752e-08
-2.9491025e-07
6.0546121e-08
-3.111108e-07
6.0789112e-08
-3.273369e-07
6.0895401e-08
-3.4355289e-07
6.0868106e-08
-3.5972402e-07
6.0710693e-08
-3.7581661e-07
6.0427e-08
-3.917981e-07
6.0021151e-08
-4.076371e-07
5.9497552e-08
-4.2330351e-07
5.8860864e-08
-4.3876852e-07
5.8115977e-08
-4.5400468e-07
5.7267939e-08
-4.6898595e-07
5.6321971e-08
-4.8368768e-07
5.5283435e-08
-4.9808663e-07
5.4157741e-08
-5.1216103e-07
5.2950359e-08
-5.2589063e-07
5.166673e-08
-5.392568e-07
5.0312262e-08
-5.5224238e-07
4.8892415e-08
-5.6483163e-07
4.7412648e-08
-5.7701021e-07
4.5878407e-08
-5.8876521e-07
4.4295034e-08
-6.0008508e-07
4.2667759e-08
-6.1095966e-07
4.100173e-08
-6.2138008e-07
3.9301924e-08
-6.3133881e-07
3.7573197e-08
-6.4082955e-07
3.5820215e-08
-6.4984719e-07
3.4047503e-08
-6.5838778e-07
3.225943e-08
-6.6644853e-07
3.046014e-08
-6.7402764e-07
2.8653648e-08
-6.8112435e-07
2.6843699e-08
-6.8773886e-07
2.5033938e-08
-6.9387228e-07
2.3227736e-08
-6.9952654e-07
2.1428344e-08
-7.047044e-07
1.9638742e-08
-7.0940935e-07
1.7861754e-08
-7.1364559e-07
1.6100031e-08
-7.1741794e-07
1.4355997e-08
-7.2073183e-07
1.2631917e-08
-7.2359324e-07
1.092988e-08
-7.2600861e-07
9.25178e-09
-7.2798487e-07
7.5993568e-09
-7.2952926e-07
5.9741721e-09
-7.3064938e-07
4.3776732e-09
-7.3135279e-07
2.8111487e-09
-7.3164587e-07
1.2757306e-09
-7.3152896e-07
-2.2810626e-10
-7.3103422e-07
-1.7011457e-09
-7.3015878e-07
-3.141461e-09
-7.2891074e-07
-4.5474688e-09
-7.27299e-07
-5.9190751e-09
-7.2533269e-07
-7.2560657e-09
-7.230211e-07
-8.5582576e-09
-7.2037353e-07
-9.8256108e-09
-7.1739927e-07
-1.1058193e-08
-7.1410756e-07
-1.2256089e-08
-7.1050763e-07
-1.3419401e-08
-7.0660864e-07
-1.4548407e-08
-7.0241964e-07
-1.5643431e-08
-6.9794959e-07
-1.6704834e-08
-6.9320737e-07
-1.7733026e-08
-6.8820167e-07
-1.8728485e-08
-6.8294105e-07
-1.9691739e-08
-6.7743394e-07
-2.0623342e-08
-6.7168859e-07
-2.1523909e-08
-6.6571308e-07
-2.2394074e-08
-6.5951531e-07
-2.3234512e-08
-6.5310299e-07
-2.4045922e-08
-6.4648365e-07
-2.4828999e-08
-6.3966461e-07
-2.5584515e-08
-6.3265297e-07
-2.6313198e-08
-6.2545566e-07
-2.7015856e-08
-6.1807939e-07
-2.7693235e-08
-6.1053061e-07
-2.834613e-08
-6.0281564e-07
-2.8975362e-08
-5.9494052e-07
-2.9581714e-08
-5.8691111e-07
-3.0166005e-08
-5.7873306e-07
-3.0729007e-08
-5.7041175e-07
-3.1271551e-08
-5.6195241e-07
-3.1794419e-08
-5.5336005e-07
-3.2298407e-08
-5.4463945e-07
-3.2784295e-08
-5.3579519e-07
-3.3252868e-08
-5.2683163e-07
-3.3704901e-08
-5.1775296e-07
-3.4141156e-08
-5.0856317e-07
-3.4562378e-08
-4.9926603e-07
-3.4969286e-08
-4.8986509e-07
-3.5362667e-08
-4.8036377e-07
-3.5743159e-08
-4.7076529e-07
-3.6111531e-08
-4.6107263e-07
-3.6468465e-08
-4.5128867e-07
-3.6814572e-08
-4.414161e-07
-3.7150568e-08
-4.3145737e-07
-3.7477092e-08
-4.2141484e-07
-3.7794757e-08
-4.1129069e-07
-3.8104195e-08
-4.0108693e-07
-3.8405981e-08
-3.9080538e-07
-3.8700741e-08
-3.8044777e-07
-3.8988997e-08
-3.7001565e-07
-3.9271356e-08
-3.5951042e-07
-3.9548304e-08
-3.4893338e-07
-3.9820372e-08
-3.3828569e-07
-4.0088097e-08
-3.2756832e-07
-4.0351968e-08
-3.1678215e-07
-4.0612445e-08
-3.0592798e-07
-4.0869975e-08
-2.9500642e-07
-4.1125052e-08
-2.8401803e-07
-4.1378053e-08
-2.729632e-07
-4.1629434e-08
-2.6184228e-07
-4.187956e-08
-2.5065545e-07
-4.2128848e-08
-2.3940284e-07
-4.2377655e-08
-2.2808448e-07
-4.2626321e-08
-2.1670024e-07
-4.2875242e-08
-2.0525003e-07
-4.3124674e-08
-1.937336e-07
-4.3374974e-08
-1.8215059e-07
-4.3626445e-08
-1.7050062e-07
-4.3879348e-08
-1.5878323e-07
-4.4133952e-08
-1.4699788e-07
-4.4390507e-08
-1.35144e-07
-4.4649234e-08
-1.2322086e-07
-4.4910417e-08
-1.1122779e-07
-4.5174182e-08
-9.9163982e-08
-4.5440737e-08
-8.702854e-08
-4.5710283e-08
-7.4820569e-08
-4.5982926e-08
-6.2538926e-08
-4.6258854e-08
-5.0182391e-08
-4.6538361e-08
-3.77497e-08
-4.6821794e-08
-2.5240106e-08
-4.7109953e-08
-1.2654883e-08
-4.7404014e-08
-4.7704073e-08
-4.366618e-10
2.056238e-09
-1.7453337e-09
6.1648544e-09
-3.9219354e-09
1.025514e-08
-6.9596141e-09
1.4314772e-08
-1.0848866e-08
1.8330383e-08
-1.5577564e-08
2.2289384e-08
-2.1130986e-08
2.6179606e-08
-2.7491895e-08
2.9989269e-08
-3.464062e-08
3.3707037e-08
-4.2555164e-08
3.7322064e-08
-5.1211318e-08
4.0824024e-08
-6.0582785e-08
4.4203167e-08
-7.0641314e-08
4.7450354e-08
-8.1356849e-08
5.0557106e-08
-9.2697664e-08
5.3515617e-08
-1.0463053e-07
5.6318795e-08
-1.1712087e-07
5.8960278e-08
-1.3013293e-07
6.1434454e-08
-1.4362991e-07
6.3736472e-08
-1.5757419e-07
6.5862238e-08
-1.7192742e-07
6.7808434e-08
-1.8665075e-07
6.9572501e-08
-2.0170496e-07
7.1152639e-08
-2.1705064e-07
7.2547793e-08
-2.326483e-07
7.3757631e-08
-2.4845859e-07
7.4782518e-08
-2.6444239e-07
7.5623519e-08
-2.8056098e-07
7.628233e-08
-2.9677613e-07
7.6761277e-08
-3.130503e-07
7.7063276e-08
-3.2934668e-07
7.7191783e-08
-3.4562935e-07
7.7150774e-08
-3.6186337e-07
7.6944711e-08
-3.7801484e-07
7.6578473e-08
-3.9405102e-07
7.6057338e-08
-4.099404e-07
7.5386932e-08
-4.2565275e-07
7.4573215e-08
-4.4115917e-07
7.362239e-08
-4.5643215e-07
7.2540911e-08
-4.7144558e-07
7.1335412e-08
-4.8617483e-07
7.0012683e-08
-5.0059671e-07
6.8579611e-08
-5.146895e-07
6.7043157e-08
-5.2843305e-07
6.5410275e-08
-5.4180872e-07
6.3687937e-08
-5.5479941e-07
6.1883105e-08
-5.6738947e-07
6.0002706e-08
-5.7956467e-07
5.805361e-08
-5.9131223e-07
5.6042598e-08
-6.026208e-07
5.3976323e-08
-6.1348031e-07
5.1861247e-08
-6.2388212e-07
4.9703734e-08
-6.3381883e-07
4.7509905e-08
-6.4328432e-07
4.5285702e-08
-6.5227367e-07
4.3036855e-08
-6.6078314e-07
4.0768897e-08
-6.6881008e-07
3.848708e-08
-6.7635289e-07
3.6196455e-08
-6.8341102e-07
3.3901836e-08
-6.8998483e-07
3.1607743e-08
-6.9607561e-07
2.9318518e-08
-7.0168548e-07
2.7038215e-08
-7.0681738e-07
2.4770647e-08
-7.1147497e-07
2.2519345e-08
-7.156626e-07
2.0287658e-08
-7.1938526e-07
1.807865e-08
-7.2264852e-07
1.589518e-08
-7.254585e-07
1.3739855e-08
-7.2782175e-07
1.1615038e-08
-7.2974532e-07
9.5229219e-09
-7.3123657e-07
7.4654303e-09
-7.323032e-07
5.4442972e-09
-7.3295304e-07
3.4609856e-09
-7.3319391e-07
1.516603e-09
-7.3303437e-07
-3.8764069e-10
-7.324862e-07
-2.249298e-09
-7.3155771e-07
-4.0699507e-09
-7.3025736e-07
-5.8478248e-09
-7.2859411e-07
-7.5823236e-09
-7.2657712e-07
-9.2730527e-09
-7.2421568e-07
-1.0919701e-08
-7.215191e-07
-1.2522187e-08
-7.184967e-07
-1.4080599e-08
-7.1515778e-07
-1.5595003e-08
-7.1151159e-07
-1.7065596e-08
-7.0756731e-07
-1.8492683e-08
-7.0333401e-07
-1.9876711e-08
-6.9882072e-07
-2.1218123e-08
-6.940363e-07
-2.2517448e-08
-6.8898947e-07
-2.3775307e-08
-6.8368882e-07
-2.4992393e-08
-6.7814279e-07
-2.6169371e-08
-6.7235964e-07
-2.7307049e-08
-6.6634747e-07
-2.8406256e-08
-6.6011417e-07
-2.9467814e-08
-6.5366746e-07
-3.0492635e-08
-6.4701486e-07
-3.1481601e-08
-6.401637e-07
-3.2435675e-08
-6.3312105e-07
-3.3355844e-08
-6.2589386e-07
-3.424304e-08
-6.184888e-07
-3.5098286e-08
-6.1091239e-07
-3.5922556e-08
-6.0317083e-07
-3.671692e-08
-5.9527019e-07
-3.7482347e-08
-5.8721634e-07
-3.821988e-08
-5.7901486e-07
-3.8930478e-08
-5.7067117e-07
-3.9615232e-08
-5.6219047e-07
-4.0275134e-08
-5.5357771e-07
-4.0911157e-08
-5.4483769e-07
-4.1524315e-08
-5.3597494e-07
-4.2115621e-08
-5.2699384e-07
-4.2685996e-08
-5.1789854e-07
-4.3236463e-08
-5.0869298e-07
-4.3767928e-08
-4.9938091e-07
-4.4281347e-08
-4.8996591e-07
-4.477767e-08
-4.8045133e-07
-4.5257742e-08
-4.7084034e-07
-4.5722492e-08
-4.6113602e-07
-4.61728e-08
-4.5134112e-07
-4.6609474e-08
-4.4145834e-07
-4.7033352e-08
-4.3149012e-07
-4.7445309e-08
-4.2143877e-07
-4.7846119e-08
-4.1130643e-07
-4.8236503e-08
-4.0109514e-07
-4.86173e-08
-3.9080669e-07
-4.8989193e-08
-3.8044275e-07
-4.9352943e-08
-3.7000489e-07
-4.9709212e-08
-3.594945e-07
-5.0058702e-08
-3.489128e-07
-5.0402078e-08
-3.3826096e-07
-5.0739952e-08
-3.2753995e-07
-5.107299e-08
-3.1675062e-07
-5.1401781e-08
-3.0589374e-07
-5.1726874e-08
-2.9496991e-07
-5.2048886e-08
-2.8397966e-07
-5.2368314e-08
-2.7292339e-07
-5.2685692e-08
-2.618014e-07
-5.3001542e-08
-2.506139e-07
-5.3316365e-08
-2.3936094e-07
-5.3630621e-08
-2.2804253e-07
-5.3944725e-08
-2.1665864e-07
-5.4259156e-08
-2.0520902e-07
-5.4574281e-08
-1.9369345e-07
-5.4890538e-08
-1.8211158e-07
-5.5208304e-08
-1.7046303e-07
-5.5527903e-08
-1.5874726e-07
-5.5849723e-08
-1.4696377e-07
-5.6174e-08
-1.3511189e-07
-5.6501095e-08
-1.2319099e-07
-5.6831314e-08
-1.1120028e-07
-5.7164875e-08
-9.9138979e-08
-5.7502056e-08
-8.7006224e-08
-5.7843045e-08
-7.4801033e-08
-5.8188115e-08
-6.2522415e-08
-5.8537474e-08
-5.0169313e-08
-5.8891458e-08
-3.7740775e-08
-5.9250342e-08
-2.523616e-08
-5.9614584e-08
-1.2655646e-08
-5.9984552e-08
-6.035971e-08
-4.4080725e-10
2.4970453e-09
-1.7621895e-09
7.4862366e-09
-3.9599748e-09
1.2452925e-08
-7.0272769e-09
1.7382075e-08
-1.095439e-08
2.2257495e-08
-1.5728915e-08
2.7063909e-08
-2.1335828e-08
3.178652e-08
-2.7757546e-08
3.6410987e-08
-3.4974019e-08
4.092351e-08
-4.2962831e-08
4.5310876e-08
-5.1699325e-08
4.9560518e-08
-6.1156721e-08
5.3660563e-08
-7.1306259e-08
5.7599893e-08
-8.2117345e-08
6.1368192e-08
-9.3557706e-08
6.4955977e-08
-1.0559354e-07
6.8354628e-08
-1.181897e-07
7.1556431e-08
-1.3130982e-07
7.4554577e-08
-1.4491653e-07
7.7343184e-08
-1.589716e-07
7.9917315e-08
-1.7343613e-07
8.2272959e-08
-1.8827068e-07
8.440705e-08
-2.0343547e-07
8.6317432e-08
-2.1889054e-07
8.8002861e-08
-2.3459589e-07
8.9462984e-08
-2.5051167e-07
9.0698297e-08
-2.6659829e-07
9.1710133e-08
-2.8281656e-07
9.2500608e-08
-2.9912788e-07
9.3072595e-08
-3.1549429e-07
9.3429692e-08
-3.3187866e-07
9.357615e-08
-3.4824474e-07
9.3516855e-08
-3.6455731e-07
9.3257271e-08
-3.8078221e-07
9.2803381e-08
-3.9688652e-07
9.2161638e-08
-4.1283852e-07
9.1338941e-08
-4.2860785e-07
9.0342541e-08
-4.441655e-07
8.918004e-08
-4.5948388e-07
8.7859297e-08
-4.7453686e-07
8.6388387e-08
-4.8929978e-07
8.47756e-08
-5.0374948e-07
8.3029312e-08
-5.1786432e-07
8.1158004e-08
-5.3162423e-07
7.9170182e-08
-5.4501064e-07
7.7074347e-08
-5.5800653e-07
7.4878988e-08
-5.7059637e-07
7.2592548e-08
-5.8276611e-07
7.0223347e-08
-5.9450313e-07
6.7779619e-08
-6.0579621e-07
6.5269407e-08
-6.1663558e-07
6.2700606e-08
-6.2701273e-07
6.0080886e-08
-6.3692051e-07
5.7417686e-08
-6.4635304e-07
5.4718235e-08
-6.5530562e-07
5.198944e-08
-6.6377473e-07
4.9238002e-08
-6.7175797e-07
4.6470316e-08
-6.7925399e-07
4.3692477e-08
-6.8626245e-07
4.0910294e-08
-6.9278397e-07
3.8129275e-08
-6.9882008e-07
3.5354614e-08
-7.0437312e-07
3.2591257e-08
-7.0944624e-07
2.9843767e-08
-7.1404333e-07
2.7116446e-08
-7.1816898e-07
2.4413304e-08
-7.2182836e-07
2.1738037e-08
-7.2502726e-07
1.9094076e-08
-7.2777197e-07
1.648457e-08
-7.3006929e-07
1.3912349e-08
-7.3192638e-07
1.1380014e-08
-7.3335083e-07
8.8898787e-09
-7.3435051e-07
6.4439763e-09
-7.3493348e-07
4.0439699e-09
-7.3510773e-07
1.690838e-09
-7.3488213e-07
-6.1323904e-10
-7.3426818e-07
-2.8632428e-09
-7.3327401e-07
-5.0641333e-09
-7.3190849e-07
-7.2133382e-09
-7.3018079e-07
-9.3100223e-09
-7.2810021e-07
-1.1353635e-08
-7.2567609e-07
-1.3343823e-08
-7.2291783e-07
-1.5280457e-08
-7.1983483e-07
-1.7163594e-08
-7.1643645e-07
-1.8993383e-08
-7.1273198e-07
-2.0770056e-08
-7.0873067e-07
-2.2494011e-08
-7.0444164e-07
-2.4165748e-08
-6.9987391e-07
-2.5785838e-08
-6.9503641e-07
-2.7354952e-08
-6.8993789e-07
-2.8873848e-08
-6.8458695e-07
-3.034332e-08
-6.7899207e-07
-3.1764267e-08
-6.7316149e-07
-3.3137621e-08
-6.6710334e-07
-3.4464412e-08
-6.6082551e-07
-3.5745639e-08
-6.5433573e-07
-3.6982407e-08
-6.4764153e-07
-3.8175807e-08
-6.4075018e-07
-3.9327023e-08
-6.3366883e-07
-4.0437186e-08
-6.2640435e-07
-4.1507525e-08
-6.1896343e-07
-4.2539207e-08
-6.1135253e-07
-4.3533467e-08
-6.035779e-07
-4.4491544e-08
-5.9564556e-07
-4.5414685e-08
-5.8756135e-07
-4.6304091e-08
-5.7933085e-07
-4.7160978e-08
-5.7095945e-07
-4.7986637e-08
-5.6245229e-07
-4.878227e-08
-5.5381438e-07
-4.9549077e-08
-5.4505042e-07
-5.0288288e-08
-5.3616494e-07
-5.1001093e-08
-5.2716227e-07
-5.1688663e-08
-5.1804655e-07
-5.2352175e-08
-5.0882169e-07
-5.2992789e-08
-4.9949141e-07
-5.3611623e-08
-4.900593e-07
-5.4209795e-08
-4.8052864e-07
-5.4788407e-08
-4.709026e-07
-5.5348541e-08
-4.6118416e-07
-5.5891222e-08
-4.5137613e-07
-5.6417494e-08
-4.4148113e-07
-5.6928374e-08
-4.3150157e-07
-5.7424855e-08
-4.2143977e-07
-5.7907913e-08
-4.1129782e-07
-5.837845e-08
-4.0107773e-07
-5.8837406e-08
-3.9078124e-07
-5.9285666e-08
-3.8041006e-07
-5.9724134e-08
-3.6996569e-07
-6.0153579e-08
-3.5944947e-07
-6.0574931e-08
-3.4886267e-07
-6.0988889e-08
-3.3820632e-07
-6.1396287e-08
-3.2748145e-07
-6.1797849e-08
-3.1668888e-07
-6.2194338e-08
-3.0582934e-07
-6.2586419e-08
-2.9490342e-07
-6.2974807e-08
-2.8391159e-07
-6.3360139e-08
-2.7285427e-07
-6.3743008e-08
-2.6173171e-07
-6.4124107e-08
-2.5054412e-07
-6.4503971e-08
-2.3929149e-07
-6.4883239e-08
-2.2797388e-07
-6.5262337e-08
-2.1659114e-07
-6.5641899e-08
-2.0514309e-07
-6.6022348e-08
-1.9362942e-07
-6.6404215e-08
-1.8204979e-07
-6.678793e-08
-1.7040381e-07
-6.7173892e-08
-1.5869093e-07
-6.7562599e-08
-1.4691058e-07
-6.795435e-08
-1.3506213e-07
-6.834957e-08
-1.2314488e-07
-6.8748572e-08
-1.1115805e-07
-6.9151703e-08
-9.9100822e-08
-6.9559269e-08
-8.6972324e-08
-6.997154e-08
-7.4771625e-08
-7.0388802e-08
-6.2497743e-08
-7.0811371e-08
-5.0149698e-08
-7.1239492e-08
-3.772658e-08
-7.1673456e-08
-2.522765e-08
-7.2113528e-08
-1.2652313e-08
-7.2559866e-08
-7.3012026e-08
-4.4597224e-10
2.9430175e-09
-1.7829127e-09
8.8231771e-09
-4.0065811e-09
1.4676593e-08
-7.1099841e-09
2.0485478e-08
-1.108319e-08
2.6230701e-08
-1.59135e-08
3.1894219e-08
-2.1585527e-08
3.7458548e-08
-2.8081275e-08
4.2906735e-08
-3.5380229e-08
4.8222464e-08
-4.3459466e-08
5.3390112e-08
-5.2293775e-08
5.8394825e-08
-6.1855781e-08
6.3222569e-08
-7.2116106e-08
6.7860218e-08
-8.3043498e-08
7.2295585e-08
-9.4605005e-08
7.6517484e-08
-1.0676613e-07
8.0515758e-08
-1.1949101e-07
8.428131e-08
-1.3274258e-07
8.7806143e-08
-1.4648273e-07
9.1083338e-08
-1.6067253e-07
9.410711e-08
-1.7527233e-07
9.6872767e-08
-1.9024203e-07
9.9376746e-08
-2.0554116e-07
1.0161656e-07
-2.2112909e-07
1.0359079e-07
-2.369652e-07
1.0529909e-07
-2.5300901e-07
1.0674212e-07
-2.6922037e-07
1.079215e-07
-2.8555956e-07
1.088398e-07
-3.0198747e-07
1.095005e-07
-3.1846567e-07
1.0990789e-07
-3.349566e-07
1.1006708e-07
-3.5142365e-07
1.099839e-07
-3.6783123e-07
1.0966485e-07
-3.8414492e-07
1.0911707e-07
-4.0033152e-07
1.0834824e-07