/*--------------------------------*- C++ -*----------------------------------*\
| =========                 |                                                 |
| \\      /  F ield         | OpenFOAM: The Open Source CFD Toolbox           |
|  \\    /   O peration     | Version:  2106                                  |
|   \\  /    A nd           | Website:  www.openfoam.com                      |
|    \\/     M anipulation  |                                                 |
\*---------------------------------------------------------------------------*/
FoamFile
{
    version     2.0;
    format      ascii;
    arch        "LSB;label=32;scalar=64";
    class       volVectorField;
    location    "0.031";
    object      U_0;
}
// * * * * * * * * * * * * * * * * * * * * * * * * * * * * * * * * * * * * * //

dimensions      [0 1 -1 0 0 0 0];

internalField   nonuniform List<vector> 
4096
(
(0.0021582755 -0.0021476305 0)
(0.0064533963 -0.002126312 0)
(0.01068446 -0.0020839071 0)
(0.014809537 -0.0020208765 0)
(0.018787849 -0.0019379023 0)
(0.022580203 -0.0018358773 0)
(0.026149401 -0.0017158921 0)
(0.029460624 -0.0015792192 0)
(0.032481779 -0.0014272957 0)
(0.035183808 -0.0012617044 0)
(0.037540966 -0.001084154 0)
(0.039531048 -0.00089645884 0)
(0.041135582 -0.00070051838 0)
(0.042339979 -0.00049829657 0)
(0.043133642 -0.00029180118 0)
(0.043510034 -8.3063513e-05 0)
(0.043466685 0.00012588376 0)
(0.04300527 0.00033301141 0)
(0.042131338 0.00053636655 0)
(0.040854503 0.00073400464 0)
(0.039188092 0.00092408221 0)
(0.037149075 0.0011048436 0)
(0.034757843 0.0012746394 0)
(0.032037978 0.0014319412 0)
(0.029015998 0.0015753522 0)
(0.025721087 0.0017036174 0)
(0.022184796 0.0018156298 0)
(0.018440745 0.001910436 0)
(0.014524309 0.0019872387 0)
(0.010472302 0.0020453997 0)
(0.0063226598 0.0020844398 0)
(0.0021141157 0.0021040397 0)
(-0.0021141157 0.0021040397 0)
(-0.0063226598 0.0020844398 0)
(-0.010472302 0.0020453997 0)
(-0.014524309 0.0019872387 0)
(-0.018440745 0.001910436 0)
(-0.022184796 0.0018156298 0)
(-0.025721087 0.0017036174 0)
(-0.029015998 0.0015753522 0)
(-0.032037978 0.0014319412 0)
(-0.034757843 0.0012746394 0)
(-0.037149075 0.0011048436 0)
(-0.039188092 0.00092408221 0)
(-0.040854503 0.00073400464 0)
(-0.042131338 0.00053636655 0)
(-0.04300527 0.00033301141 0)
(-0.043466685 0.00012588376 0)
(-0.043510034 -8.3063513e-05 0)
(-0.043133642 -0.00029180118 0)
(-0.042339979 -0.00049829657 0)
(-0.041135582 -0.00070051838 0)
(-0.039531048 -0.00089645884 0)
(-0.037540966 -0.001084154 0)
(-0.035183808 -0.0012617044 0)
(-0.032481779 -0.0014272957 0)
(-0.029460624 -0.0015792192 0)
(-0.026149401 -0.0017158921 0)
(-0.022580203 -0.0018358773 0)
(-0.018787849 -0.0019379023 0)
(-0.014809537 -0.0020208765 0)
(-0.01068446 -0.0020839071 0)
(-0.0064533963 -0.002126312 0)
(-0.0021582755 -0.0021476305 0)
(0.0021953046 -0.006471137 0)
(0.0065641095 -0.006406895 0)
(0.01086774 -0.0062791112 0)
(0.015063538 -0.0060891749 0)
(0.019110018 -0.0058391427 0)
(0.022967313 -0.0055317067 0)
(0.026597587 -0.0051701546 0)
(0.02996543 -0.0047583225 0)
(0.033038205 -0.0043005415 0)
(0.035786367 -0.0038015815 0)
(0.038183739 -0.0032665914 0)
(0.040207744 -0.0027010379 0)
(0.041839602 -0.0021106438 0)
(0.043064477 -0.0015013262 0)
(0.043871595 -0.00087913413 0)
(0.044254304 -0.00025018813 0)
(0.044210105 0.00037938038 0)
(0.043740649 0.0010035016 0)
(0.042851654 0.0016162128 0)
(0.041552849 0.0022117083 0)
(0.039857808 0.0027844219 0)
(0.037783793 0.0033290612 0)
(0.035351552 0.0038406561 0)
(0.03258508 0.0043146009 0)
(0.029511358 0.0047466883 0)
(0.026160076 0.0051331373 0)
(0.022563331 0.0054706141 0)
(0.018755321 0.0057562473 0)
(0.014772025 0.0059876372 0)
(0.010650881 0.0061628617 0)
(0.0064304647 0.006280479 0)
(0.0021501605 0.0063395279 0)
(-0.0021501604 0.0063395279 0)
(-0.0064304647 0.006280479 0)
(-0.010650881 0.0061628617 0)
(-0.014772025 0.0059876372 0)
(-0.018755321 0.0057562473 0)
(-0.022563331 0.0054706141 0)
(-0.026160076 0.0051331373 0)
(-0.029511358 0.0047466883 0)
(-0.03258508 0.0043146009 0)
(-0.035351552 0.0038406561 0)
(-0.037783793 0.0033290612 0)
(-0.039857808 0.0027844219 0)
(-0.041552849 0.0022117083 0)
(-0.042851654 0.0016162128 0)
(-0.043740649 0.0010035016 0)
(-0.044210105 0.00037938038 0)
(-0.044254304 -0.00025018813 0)
(-0.043871595 -0.00087913413 0)
(-0.043064477 -0.0015013262 0)
(-0.041839602 -0.0021106438 0)
(-0.040207744 -0.0027010379 0)
(-0.038183739 -0.0032665914 0)
(-0.035786367 -0.0038015815 0)
(-0.033038205 -0.0043005415 0)
(-0.02996543 -0.0047583225 0)
(-0.026597587 -0.0051701546 0)
(-0.022967313 -0.0055317067 0)
(-0.019110018 -0.0058391427 0)
(-0.015063538 -0.0060891749 0)
(-0.01086774 -0.0062791112 0)
(-0.0065641095 -0.006406895 0)
(-0.0021953046 -0.006471137 0)
(0.0022602822 -0.010902708 0)
(0.0067583942 -0.010794458 0)
(0.011189395 -0.010579139 0)
(0.015509362 -0.010259097 0)
(0.019675583 -0.0098377999 0)
(0.023647015 -0.0093197899 0)
(0.027384715 -0.0087106109 0)
(0.030852235 -0.00801673 0)
(0.034015987 -0.0072454469 0)
(0.036845564 -0.0064047986 0)
(0.039314026 -0.0055034584 0)
(0.041398131 -0.0045506337 0)
(0.043078543 -0.0035559619 0)
(0.044339981 -0.0025294072 0)
(0.045171333 -0.0014811569 0)
(0.045565732 -0.00042151875 0)
(0.045520583 0.00063918253 0)
(0.045037554 0.0016907113 0)
(0.044122521 0.0027230171 0)
(0.042785476 0.0037263273 0)
(0.041040382 0.0046912544 0)
(0.038905009 0.0056088762 0)
(0.03640072 0.0064708157 0)
(0.033552226 0.0072693107 0)
(0.030387319 0.0079972722 0)
(0.026936582 0.0086483311 0)
(0.023233077 0.0092168733 0)
(0.019312027 0.0096980651 0)
(0.015210488 0.010087868 0)
(0.010967014 0.01038305 0)
(0.0066213264 0.010581184 0)
(0.0022139784 0.010680655 0)
(-0.0022139784 0.010680655 0)
(-0.0066213264 0.010581184 0)
(-0.010967014 0.01038305 0)
(-0.015210488 0.010087868 0)
(-0.019312027 0.0096980651 0)
(-0.023233077 0.0092168733 0)
(-0.026936582 0.0086483311 0)
(-0.030387319 0.0079972722 0)
(-0.033552226 0.0072693107 0)
(-0.03640072 0.0064708157 0)
(-0.038905009 0.0056088762 0)
(-0.041040382 0.0046912544 0)
(-0.042785476 0.0037263273 0)
(-0.044122521 0.0027230171 0)
(-0.045037554 0.0016907113 0)
(-0.045520583 0.00063918253 0)
(-0.045565732 -0.00042151875 0)
(-0.045171333 -0.0014811569 0)
(-0.044339981 -0.0025294072 0)
(-0.043078543 -0.0035559619 0)
(-0.041398131 -0.0045506337 0)
(-0.039314026 -0.0055034584 0)
(-0.036845564 -0.0064047986 0)
(-0.034015987 -0.0072454469 0)
(-0.030852235 -0.00801673 0)
(-0.027384715 -0.0087106109 0)
(-0.023647015 -0.0093197899 0)
(-0.019675583 -0.0098377999 0)
(-0.015509362 -0.010259097 0)
(-0.011189395 -0.010579139 0)
(-0.0067583942 -0.010794458 0)
(-0.0022602822 -0.010902708 0)
(0.002354053 -0.01549241 0)
(0.0070387752 -0.01533858 0)
(0.011653604 -0.0150326 0)
(0.016152799 -0.014577809 0)
(0.020491884 -0.013979144 0)
(0.024628129 -0.013243066 0)
(0.028520993 -0.012377458 0)
(0.032132535 -0.011391515 0)
(0.035427797 -0.010295611 0)
(0.038375128 -0.0091011621 0)
(0.040946479 -0.0078204868 0)
(0.043117649 -0.0064666584 0)
(0.044868487 -0.0050533596 0)
(0.046183057 -0.0035947372 0)
(0.047049754 -0.0021052562 0)
(0.047461382 -0.00059955537 0)
(0.047415192 0.00090769879 0)
(0.046912872 0.0024019578 0)
(0.045960498 0.003868933 0)
(0.044568438 0.0052947342 0)
(0.042751211 0.0066660089 0)
(0.040527309 0.0079700668 0)
(0.037918978 0.0091949932 0)
(0.034951963 0.01032975 0)
(0.031655228 0.011364257 0)
(0.028060647 0.012289463 0)
(0.024202681 0.013097391 0)
(0.02011804 0.013781176 0)
(0.015845342 0.014335084 0)
(0.011424765 0.014754529 0)
(0.0068976969 0.015036068 0)
(0.0023063892 0.015177411 0)
(-0.0023063892 0.015177411 0)
(-0.0068976969 0.015036068 0)
(-0.011424765 0.014754529 0)
(-0.015845342 0.014335084 0)
(-0.02011804 0.013781176 0)
(-0.024202681 0.013097391 0)
(-0.028060647 0.012289463 0)
(-0.031655228 0.011364257 0)
(-0.034951963 0.01032975 0)
(-0.037918978 0.0091949932 0)
(-0.040527309 0.0079700668 0)
(-0.042751211 0.006666009 0)
(-0.044568438 0.0052947342 0)
(-0.045960498 0.003868933 0)
(-0.046912872 0.0024019578 0)
(-0.047415192 0.00090769879 0)
(-0.047461382 -0.00059955536 0)
(-0.047049754 -0.0021052562 0)
(-0.046183057 -0.0035947372 0)
(-0.044868487 -0.0050533596 0)
(-0.043117649 -0.0064666584 0)
(-0.040946479 -0.0078204868 0)
(-0.038375128 -0.0091011621 0)
(-0.035427797 -0.010295611 0)
(-0.032132535 -0.011391515 0)
(-0.028520993 -0.012377458 0)
(-0.024628129 -0.013243066 0)
(-0.020491884 -0.013979144 0)
(-0.016152799 -0.014577809 0)
(-0.011653604 -0.0150326 0)
(-0.0070387752 -0.01533858 0)
(-0.002354053 -0.01549241 0)
(0.0024768268 -0.020297862 0)
(0.0074058796 -0.020096312 0)
(0.012261403 -0.019695421 0)
(0.016995281 -0.019099568 0)
(0.021560735 -0.018315233 0)
(0.025912829 -0.017350892 0)
(0.030008932 -0.016216882 0)
(0.033809159 -0.014925253 0)
(0.037276755 -0.013489595 0)
(0.040378442 -0.011924858 0)
(0.043084722 -0.010247166 0)
(0.04537013 -0.0084736254 0)
(0.047213445 -0.0066221413 0)
(0.048597863 -0.0047112248 0)
(0.049511121 -0.0027598078 0)
(0.049945582 -0.00078705526 0)
(0.049898281 0.0011878233 0)
(0.04937092 0.0031457627 0)
(0.048369826 0.0050680307 0)
(0.04690585 0.0069364121 0)
(0.044994232 0.0087333905 0)
(0.042654407 0.010442315 0)
(0.039909779 0.012047554 0)
(0.03678745 0.013534625 0)
(0.033317919 0.01489031 0)
(0.029534759 0.016102741 0)
(0.025474266 0.017161466 0)
(0.021175108 0.018057492 0)
(0.016677955 0.018783315 0)
(0.012025115 0.01933293 0)
(0.0072601652 0.019701837 0)
(0.0024275892 0.01988704 0)
(-0.0024275892 0.01988704 0)
(-0.0072601652 0.019701837 0)
(-0.012025115 0.01933293 0)
(-0.016677955 0.018783315 0)
(-0.021175108 0.018057492 0)
(-0.025474266 0.017161466 0)
(-0.029534759 0.016102741 0)
(-0.033317919 0.01489031 0)
(-0.03678745 0.013534625 0)
(-0.039909779 0.012047554 0)
(-0.042654407 0.010442315 0)
(-0.044994232 0.0087333905 0)
(-0.04690585 0.0069364121 0)
(-0.048369826 0.0050680307 0)
(-0.04937092 0.0031457627 0)
(-0.049898281 0.0011878233 0)
(-0.049945582 -0.00078705525 0)
(-0.049511121 -0.0027598078 0)
(-0.048597863 -0.0047112248 0)
(-0.047213445 -0.0066221413 0)
(-0.04537013 -0.0084736254 0)
(-0.043084722 -0.010247166 0)
(-0.040378442 -0.011924858 0)
(-0.037276755 -0.013489595 0)
(-0.033809159 -0.014925253 0)
(-0.030008932 -0.016216882 0)
(-0.025912829 -0.017350892 0)
(-0.021560735 -0.018315233 0)
(-0.016995281 -0.019099568 0)
(-0.012261403 -0.019695421 0)
(-0.0074058796 -0.020096312 0)
(-0.0024768268 -0.020297862 0)
(0.0026283019 -0.025377145 0)
(0.0078588048 -0.025125164 0)
(0.013011296 -0.024623971 0)
(0.018034732 -0.023879054 0)
(0.022879498 -0.022898528 0)
(0.027497938 -0.021693004 0)
(0.031844854 -0.02027542 0)
(0.035877961 -0.018660842 0)
(0.039558295 -0.016866257 0)
(0.042850575 -0.014910338 0)
(0.045723515 -0.012813217 0)
(0.048150088 -0.010596248 0)
(0.050107748 -0.0082817744 0)
(0.051578609 -0.0058929022 0)
(0.052549584 -0.0034532673 0)
(0.053012475 -0.00098680748 0)
(0.052964035 0.0014824694 0)
(0.052405972 0.0039307209 0)
(0.051344906 0.0063345066 0)
(0.049792282 0.0086710228 0)
(0.047764222 0.010918331 0)
(0.045281328 0.013055574 0)
(0.042368434 0.015063169 0)
(0.039054325 0.01692298 0)
(0.035371404 0.018618457 0)
(0.031355347 0.020134749 0)
(0.027044725 0.021458783 0)
(0.022480625 0.02257932 0)
(0.017706257 0.023486984 0)
(0.012766561 0.024174281 0)
(0.0077078209 0.024635593 0)
(0.0025772734 0.024867184 0)
(-0.0025772734 0.024867184 0)
(-0.0077078209 0.024635593 0)
(-0.012766561 0.024174281 0)
(-0.017706257 0.023486984 0)
(-0.022480625 0.02257932 0)
(-0.027044725 0.021458783 0)
(-0.031355347 0.020134749 0)
(-0.035371404 0.018618457 0)
(-0.039054325 0.01692298 0)
(-0.042368434 0.015063169 0)
(-0.045281328 0.013055574 0)
(-0.047764222 0.010918331 0)
(-0.049792282 0.0086710228 0)
(-0.051344906 0.0063345066 0)
(-0.052405972 0.0039307209 0)
(-0.052964035 0.0014824694 0)
(-0.053012475 -0.00098680748 0)
(-0.052549584 -0.0034532673 0)
(-0.051578609 -0.0058929022 0)
(-0.050107748 -0.0082817744 0)
(-0.048150088 -0.010596248 0)
(-0.045723515 -0.012813217 0)
(-0.042850575 -0.014910338 0)
(-0.039558295 -0.016866257 0)
(-0.035877961 -0.018660842 0)
(-0.031844854 -0.02027542 0)
(-0.027497938 -0.021693004 0)
(-0.022879498 -0.022898528 0)
(-0.018034732 -0.023879054 0)
(-0.013011296 -0.024623971 0)
(-0.0078588048 -0.025125164 0)
(-0.0026283019 -0.025377145 0)
(0.0028078788 -0.030787069 0)
(0.0083957573 -0.030481386 0)
(0.013900312 -0.029873388 0)
(0.019267033 -0.02896975 0)
(0.024442943 -0.02778034 0)
(0.029377171 -0.026318052 0)
(0.034021481 -0.024598595 0)
(0.038330753 -0.022640254 0)
(0.04226341 -0.020463623 0)
(0.045781803 -0.018091332 0)
(0.048852527 -0.01554776 0)
(0.051446702 -0.012858757 0)
(0.053540204 -0.01005137 0)
(0.055113852 -0.007153569 0)
(0.056153562 -0.0041939778 0)
(0.056650453 -0.0012016041 0)
(0.056600921 0.0017944379 0)
(0.056006659 0.0047652106 0)
(0.054874627 0.0076822421 0)
(0.053216962 0.010517816 0)
(0.05105083 0.013245257 0)
(0.048398222 0.015839197 0)
(0.045285682 0.01827582 0)
(0.041743999 0.020533076 0)
(0.03780785 0.022590853 0)
(0.033515418 0.024431114 0)
(0.028907983 0.026037993 0)
(0.02402951 0.02739786 0)
(0.018926224 0.028499355 0)
(0.013646191 0.0293334 0)
(0.0082389001 0.029893198 0)
(0.002754851 0.030174226 0)
(-0.002754851 0.030174226 0)
(-0.0082389001 0.029893198 0)
(-0.013646191 0.0293334 0)
(-0.018926224 0.028499355 0)
(-0.02402951 0.02739786 0)
(-0.028907983 0.026037993 0)
(-0.033515418 0.024431114 0)
(-0.03780785 0.022590853 0)
(-0.041743999 0.020533076 0)
(-0.045285682 0.01827582 0)
(-0.048398222 0.015839197 0)
(-0.05105083 0.013245257 0)
(-0.053216962 0.010517816 0)
(-0.054874627 0.0076822421 0)
(-0.056006659 0.0047652106 0)
(-0.056600921 0.0017944379 0)
(-0.056650453 -0.0012016041 0)
(-0.056153562 -0.0041939778 0)
(-0.055113852 -0.007153569 0)
(-0.053540204 -0.01005137 0)
(-0.051446702 -0.012858757 0)
(-0.048852527 -0.01554776 0)
(-0.045781803 -0.018091332 0)
(-0.04226341 -0.020463623 0)
(-0.038330753 -0.022640254 0)
(-0.034021481 -0.024598595 0)
(-0.029377171 -0.026318052 0)
(-0.024442943 -0.02778034 0)
(-0.019267033 -0.02896975 0)
(-0.013900312 -0.029873388 0)
(-0.0083957573 -0.030481386 0)
(-0.0028078788 -0.030787069 0)
(0.0030149854 -0.036583014 0)
(0.0090150268 -0.036219809 0)
(0.01492562 -0.035497416 0)
(0.020688258 -0.03442379 0)
(0.026246095 -0.033010689 0)
(0.031544558 -0.031273463 0)
(0.036531916 -0.029230799 0)
(0.04115979 -0.02690443 0)
(0.045383606 -0.024318812 0)
(0.049162985 -0.021500789 0)
(0.052462088 -0.018479268 0)
(0.055249894 -0.015284882 0)
(0.057500445 -0.011949678 0)
(0.05919305 -0.0085068012 0)
(0.060312446 -0.0049901915 0)
(0.060848936 -0.00143427 0)
(0.060798473 0.0021263815 0)
(0.060162707 0.0056573547 0)
(0.058948967 0.0091247617 0)
(0.057170181 0.012495588 0)
(0.054844726 0.015738043 0)
(0.051996201 0.018821888 0)
(0.048653143 0.021718739 0)
(0.044848677 0.024402326 0)
(0.040620125 0.026848704 0)
(0.036008583 0.029036418 0)
(0.031058474 0.030946611 0)
(0.025817094 0.032563099 0)
(0.020334151 0.033872404 0)
(0.014661316 0.034863767 0)
(0.0088517722 0.035529137 0)
(0.0029597758 0.035863158 0)
(-0.0029597758 0.035863158 0)
(-0.0088517722 0.035529137 0)
(-0.014661316 0.034863767 0)
(-0.020334151 0.033872404 0)
(-0.025817094 0.032563099 0)
(-0.031058474 0.030946611 0)
(-0.036008583 0.029036418 0)
(-0.040620125 0.026848704 0)
(-0.044848677 0.024402326 0)
(-0.048653143 0.021718739 0)
(-0.051996201 0.018821888 0)
(-0.054844726 0.015738043 0)
(-0.057170181 0.012495588 0)
(-0.058948967 0.0091247617 0)
(-0.060162707 0.0056573547 0)
(-0.060798473 0.0021263815 0)
(-0.060848936 -0.00143427 0)
(-0.060312446 -0.0049901915 0)
(-0.05919305 -0.0085068012 0)
(-0.057500445 -0.011949678 0)
(-0.055249894 -0.015284882 0)
(-0.052462088 -0.018479268 0)
(-0.049162985 -0.021500789 0)
(-0.045383606 -0.024318812 0)
(-0.04115979 -0.02690443 0)
(-0.036531916 -0.029230799 0)
(-0.031544558 -0.031273463 0)
(-0.026246095 -0.033010689 0)
(-0.020688258 -0.03442379 0)
(-0.01492562 -0.035497416 0)
(-0.0090150268 -0.036219809 0)
(-0.0030149854 -0.036583014 0)
(0.0032495341 -0.04281945 0)
(0.0097163521 -0.042394367 0)
(0.01608679 -0.04154892 0)
(0.022297818 -0.040292459 0)
(0.028288218 -0.038638786 0)
(0.033999235 -0.03660591 0)
(0.039375196 -0.034215736 0)
(0.044364048 -0.031493704 0)
(0.048917832 -0.028468416 0)
(0.052993098 -0.025171232 0)
(0.056551249 -0.021635892 0)
(0.059558836 -0.017898132 0)
(0.061987809 -0.013995327 0)
(0.063815731 -0.0099661453 0)
(0.065025971 -0.0058502083 0)
(0.065607856 -0.0016877406 0)
(0.065556794 0.0024807936 0)
(0.064874346 0.0066150787 0)
(0.063568234 0.010675361 0)
(0.061652271 0.014622876 0)
(0.05914621 0.018420272 0)
(0.056075498 0.022032019 0)
(0.052470956 0.025424776 0)
(0.048368394 0.028567703 0)
(0.043808166 0.031432717 0)
(0.038834699 0.033994678 0)
(0.033496001 0.036231521 0)
(0.027843156 0.038124327 0)
(0.021929825 0.039657361 0)
(0.015811762 0.040818071 0)
(0.0095463237 0.041597074 0)
(0.0031920082 0.041988131 0)
(-0.0031920082 0.041988131 0)
(-0.0095463237 0.041597074 0)
(-0.015811762 0.040818071 0)
(-0.021929825 0.039657361 0)
(-0.027843156 0.038124327 0)
(-0.033496001 0.036231521 0)
(-0.038834699 0.033994678 0)
(-0.043808166 0.031432717 0)
(-0.048368394 0.028567703 0)
(-0.052470956 0.025424776 0)
(-0.056075498 0.022032019 0)
(-0.05914621 0.018420272 0)
(-0.061652271 0.014622876 0)
(-0.063568234 0.010675361 0)
(-0.064874346 0.0066150787 0)
(-0.065556794 0.0024807936 0)
(-0.065607856 -0.0016877406 0)
(-0.065025971 -0.0058502083 0)
(-0.063815731 -0.0099661453 0)
(-0.061987809 -0.013995327 0)
(-0.059558836 -0.017898132 0)
(-0.056551249 -0.021635892 0)
(-0.052993098 -0.025171232 0)
(-0.048917832 -0.028468416 0)
(-0.044364048 -0.031493704 0)
(-0.039375196 -0.034215736 0)
(-0.033999235 -0.03660591 0)
(-0.028288218 -0.038638786 0)
(-0.022297818 -0.040292459 0)
(-0.01608679 -0.04154892 0)
(-0.0097163521 -0.042394367 0)
(-0.0032495341 -0.04281945 0)
(0.0035125275 -0.049551423 0)
(0.010502732 -0.049059563 0)
(0.017388792 -0.048081333 0)
(0.024102619 -0.046627598 0)
(0.030578098 -0.044714392 0)
(0.036751807 -0.042362612 0)
(0.042563671 -0.039597645 0)
(0.047957537 -0.036448943 0)
(0.052881678 -0.032949565 0)
(0.057289212 -0.029135718 0)
(0.061138456 -0.025046311 0)
(0.064393228 -0.020722527 0)
(0.067023105 -0.016207427 0)
(0.069003651 -0.011545579 0)
(0.070316635 -0.0067826846 0)
(0.070950223 -0.0019652098 0)
(0.070899142 0.0028600278 0)
(0.070164796 0.0076463029 0)
(0.068755312 0.012347472 0)
(0.066685484 0.016918487 0)
(0.063976621 0.021315923 0)
(0.060656276 0.025498467 0)
(0.056757887 0.029427372 0)
(0.052320327 0.033066834 0)
(0.047387405 0.036384288 0)
(0.042007334 0.039350623 0)
(0.036232172 0.041940327 0)
(0.030117274 0.044131558 0)
(0.023720744 0.045906171 0)
(0.017102907 0.04724971 0)
(0.01032579 0.048151376 0)
(0.0034526283 0.048603999 0)
(-0.0034526283 0.048603999 0)
(-0.01032579 0.048151376 0)
(-0.017102907 0.04724971 0)
(-0.023720744 0.045906171 0)
(-0.030117274 0.044131558 0)
(-0.036232172 0.041940327 0)
(-0.042007334 0.039350623 0)
(-0.047387405 0.036384288 0)
(-0.052320327 0.033066834 0)
(-0.056757887 0.029427373 0)
(-0.060656276 0.025498467 0)
(-0.063976621 0.021315923 0)
(-0.066685484 0.016918487 0)
(-0.068755312 0.012347472 0)
(-0.070164796 0.0076463029 0)
(-0.070899142 0.0028600278 0)
(-0.070950223 -0.0019652098 0)
(-0.070316635 -0.0067826846 0)
(-0.069003651 -0.011545579 0)
(-0.067023105 -0.016207427 0)
(-0.064393228 -0.020722527 0)
(-0.061138456 -0.025046311 0)
(-0.057289212 -0.029135718 0)
(-0.052881678 -0.032949565 0)
(-0.047957537 -0.036448943 0)
(-0.042563671 -0.039597645 0)
(-0.036751807 -0.042362612 0)
(-0.030578098 -0.044714392 0)
(-0.024102619 -0.046627598 0)
(-0.017388792 -0.048081333 0)
(-0.010502732 -0.049059563 0)
(-0.0035125275 -0.049551423 0)
(0.0038068241 -0.05683741 0)
(0.011382718 -0.056273307 0)
(0.018845797 -0.055151431 0)
(0.026122324 -0.053484312 0)
(0.033140728 -0.051290421 0)
(0.039832385 -0.048593807 0)
(0.046132322 -0.045423644 0)
(0.051979832 -0.041813723 0)
(0.057318994 -0.037801915 0)
(0.062099106 -0.03342963 0)
(0.066275041 -0.028741308 0)
(0.069807542 -0.023783945 0)
(0.072663488 -0.018606666 0)
(0.074816141 -0.013260336 0)
(0.076245391 -0.0077971756 0)
(0.076937999 -0.0022703726 0)
(0.076887831 0.0032663672 0)
(0.076096034 0.0087593269 0)
(0.074571132 0.014155358 0)
(0.072329008 0.01940251 0)
(0.069392736 0.024450671 0)
(0.065792287 0.029252178 0)
(0.061564098 0.03376237 0)
(0.056750558 0.037940031 0)
(0.051399421 0.041747737 0)
(0.045563197 0.0451521 0)
(0.039298529 0.048123909 0)
(0.032665577 0.050638201 0)
(0.025727426 0.052674269 0)
(0.018549512 0.054215637 0)
(0.01119907 0.055250012 0)
(0.0037446091 0.055769234 0)
(-0.003744609 0.055769234 0)
(-0.01119907 0.055250012 0)
(-0.018549512 0.054215637 0)
(-0.025727426 0.052674269 0)
(-0.032665577 0.050638201 0)
(-0.039298529 0.048123909 0)
(-0.045563197 0.0451521 0)
(-0.051399421 0.041747737 0)
(-0.056750558 0.037940031 0)
(-0.061564098 0.03376237 0)
(-0.065792287 0.029252178 0)
(-0.069392736 0.024450671 0)
(-0.072329008 0.01940251 0)
(-0.074571132 0.014155358 0)
(-0.076096034 0.0087593269 0)
(-0.076887831 0.0032663672 0)
(-0.076937999 -0.0022703726 0)
(-0.076245391 -0.0077971756 0)
(-0.074816141 -0.013260336 0)
(-0.072663488 -0.018606666 0)
(-0.069807542 -0.023783945 0)
(-0.066275041 -0.028741308 0)
(-0.062099106 -0.03342963 0)
(-0.057318994 -0.037801915 0)
(-0.051979832 -0.041813723 0)
(-0.046132322 -0.045423644 0)
(-0.039832385 -0.048593807 0)
(-0.033140728 -0.051290421 0)
(-0.026122324 -0.053484312 0)
(-0.018845797 -0.055151431 0)
(-0.011382718 -0.056273307 0)
(-0.0038068241 -0.05683741 0)
(0.0041380603 -0.064743869 0)
(0.012373169 -0.064101413 0)
(0.020485735 -0.06282376 0)
(0.028395687 -0.060925269 0)
(0.036025342 -0.058427085 0)
(0.043300253 -0.055356706 0)
(0.050149973 -0.051747436 0)
(0.056508706 -0.047637779 0)
(0.062315847 -0.043070803 0)
(0.06751642 -0.038093509 0)
(0.072061426 -0.032756254 0)
(0.075908129 -0.027112229 0)
(0.079020314 -0.021217016 0)
(0.081368554 -0.015128193 0)
(0.082930494 -0.0089049684 0)
(0.083691173 -0.0026077847 0)
(0.08364334 0.0037021531 0)
(0.082787732 0.0099634558 0)
(0.081133255 0.016115241 0)
(0.078696998 0.022097907 0)
(0.075504071 0.027853935 0)
(0.071587251 0.033328648 0)
(0.066986466 0.038470879 0)
(0.061748179 0.043233505 0)
(0.055924694 0.047573835 0)
(0.049573445 0.051453874 0)
(0.042756292 0.054840455 0)
(0.03553884 0.057705293 0)
(0.027989789 0.060024969 0)
(0.020180317 0.061780873 0)
(0.012183498 0.062959137 0)
(0.0040737439 0.063550562 0)
(-0.0040737439 0.063550562 0)
(-0.012183498 0.062959137 0)
(-0.020180317 0.061780873 0)
(-0.027989789 0.060024969 0)
(-0.03553884 0.057705293 0)
(-0.042756292 0.054840455 0)
(-0.049573445 0.051453874 0)
(-0.055924694 0.047573835 0)
(-0.061748179 0.043233505 0)
(-0.066986466 0.038470879 0)
(-0.071587251 0.033328648 0)
(-0.075504071 0.027853935 0)
(-0.078696998 0.022097907 0)
(-0.081133255 0.016115241 0)
(-0.082787732 0.0099634558 0)
(-0.08364334 0.0037021532 0)
(-0.083691173 -0.0026077847 0)
(-0.082930494 -0.0089049684 0)
(-0.081368554 -0.015128193 0)
(-0.079020314 -0.021217016 0)
(-0.075908129 -0.027112229 0)
(-0.072061426 -0.032756254 0)
(-0.06751642 -0.038093509 0)
(-0.062315847 -0.043070803 0)
(-0.056508706 -0.047637779 0)
(-0.050149973 -0.051747436 0)
(-0.043300253 -0.055356706 0)
(-0.036025342 -0.058427085 0)
(-0.028395687 -0.060925269 0)
(-0.020485735 -0.06282376 0)
(-0.012373169 -0.064101413 0)
(-0.0041380603 -0.064743869 0)
(0.0045156916 -0.073351773 0)
(0.013502365 -0.072624085 0)
(0.022355453 -0.071176994 0)
(0.030987701 -0.069026877 0)
(0.039314494 -0.066197829 0)
(0.047254789 -0.062721137 0)
(0.054731943 -0.058634626 0)
(0.061674405 -0.053981933 0)
(0.068016278 -0.04881175 0)
(0.073697745 -0.043177094 0)
(0.078665401 -0.037134646 0)
(0.082872516 -0.03074419 0)
(0.086279273 -0.024068161 0)
(0.08885305 -0.017171287 0)
(0.090568761 -0.010120256 0)
(0.091409272 -0.0029833624 0)
(0.091365858 0.0041699847 0)
(0.090438627 0.011269908 0)
(0.088636822 0.018246904 0)
(0.085978901 0.02503281 0)
(0.082492364 0.031561824 0)
(0.078213315 0.037771463 0)
(0.073185827 0.043603374 0)
(0.067461168 0.049003965 0)
(0.061096971 0.053924841 0)
(0.054156394 0.058323055 0)
(0.046707318 0.062161225 0)
(0.038821589 0.065407548 0)
(0.030574315 0.068035742 0)
(0.022043207 0.070024957 0)
(0.013307965 0.071359668 0)
(0.0044496896 0.072029586 0)
(-0.0044496896 0.072029586 0)
(-0.013307965 0.071359668 0)
(-0.022043207 0.070024957 0)
(-0.030574315 0.068035742 0)
(-0.038821589 0.065407548 0)
(-0.046707318 0.062161225 0)
(-0.054156394 0.058323055 0)
(-0.061096971 0.053924841 0)
(-0.067461168 0.049003965 0)
(-0.073185827 0.043603374 0)
(-0.078213315 0.037771463 0)
(-0.082492364 0.031561824 0)
(-0.085978901 0.02503281 0)
(-0.088636822 0.018246904 0)
(-0.090438627 0.011269908 0)
(-0.091365858 0.0041699847 0)
(-0.091409272 -0.0029833624 0)
(-0.090568761 -0.010120256 0)
(-0.08885305 -0.017171287 0)
(-0.086279273 -0.024068161 0)
(-0.082872516 -0.03074419 0)
(-0.078665401 -0.037134646 0)
(-0.073697745 -0.043177094 0)
(-0.068016278 -0.04881175 0)
(-0.061674405 -0.053981933 0)
(-0.054731943 -0.058634626 0)
(-0.047254789 -0.062721137 0)
(-0.039314494 -0.066197829 0)
(-0.030987701 -0.069026877 0)
(-0.022355453 -0.071176994 0)
(-0.013502365 -0.072624085 0)
(-0.0045156916 -0.073351773 0)
(0.0049540726 -0.082765316 0)
(0.014813237 -0.081944534 0)
(0.024526069 -0.080312393 0)
(0.033997017 -0.07788751 0)
(0.043133468 -0.074697248 0)
(0.051846774 -0.070777076 0)
(0.060053153 -0.066169791 0)
(0.067674431 -0.060924645 0)
(0.074638616 -0.055096439 0)
(0.080880317 -0.048744675 0)
(0.086341031 -0.041932791 0)
(0.090969361 -0.034727573 0)
(0.09472122 -0.027198712 0)
(0.097560118 -0.019418519 0)
(0.099457564 -0.011461692 0)
(0.10039363 -0.0034050367 0)
(0.1003576 0.0046729938 0)
(0.099348636 0.012693038 0)
(0.097376247 0.020575858 0)
(0.094460478 0.028243589 0)
(0.090631712 0.035621062 0)
(0.085930106 0.042637022 0)
(0.080404763 0.049225136 0)
(0.074112748 0.055324718 0)
(0.067118056 0.060881188 0)
(0.059490619 0.0658463 0)
(0.051305384 0.070178201 0)
(0.042641474 0.073841378 0)
(0.033581434 0.076806546 0)
(0.024210535 0.079050502 0)
(0.01461613 0.08055599 0)
(0.0048870406 0.081311581 0)
(-0.0048870406 0.081311581 0)
(-0.01461613 0.08055599 0)
(-0.024210535 0.079050502 0)
(-0.033581434 0.076806546 0)
(-0.042641474 0.073841378 0)
(-0.051305384 0.070178201 0)
(-0.059490619 0.0658463 0)
(-0.067118056 0.060881188 0)
(-0.074112748 0.055324718 0)
(-0.080404763 0.049225136 0)
(-0.085930106 0.042637022 0)
(-0.090631712 0.035621062 0)
(-0.094460478 0.028243589 0)
(-0.097376247 0.020575858 0)
(-0.099348636 0.012693038 0)
(-0.1003576 0.0046729938 0)
(-0.10039363 -0.0034050367 0)
(-0.099457564 -0.011461692 0)
(-0.097560118 -0.019418519 0)
(-0.09472122 -0.027198712 0)
(-0.090969361 -0.034727573 0)
(-0.086341031 -0.041932791 0)
(-0.080880317 -0.048744675 0)
(-0.074638616 -0.055096439 0)
(-0.067674431 -0.060924645 0)
(-0.060053153 -0.066169791 0)
(-0.051846774 -0.070777076 0)
(-0.043133468 -0.074697248 0)
(-0.033997017 -0.07788751 0)
(-0.024526069 -0.080312393 0)
(-0.014813237 -0.081944534 0)
(-0.0049540726 -0.082765316 0)
(0.005473433 -0.093122761 0)
(0.01636629 -0.092199725 0)
(0.027097798 -0.090364349 0)
(0.037562641 -0.087637748 0)
(0.047658781 -0.084050923 0)
(0.057288618 -0.079643992 0)
(0.066359969 -0.074465256 0)
(0.074786873 -0.068570143 0)
(0.082490182 -0.062020129 0)
(0.089397954 -0.054881726 0)
(0.095445677 -0.047225608 0)
(0.10057641 -0.03912598 0)
(0.10474092 -0.030660183 0)
(0.10789793 -0.021908543 0)
(0.11001463 -0.012954314 0)
(0.11106744 -0.0038835676 0)
(0.11104291 0.0052151945 0)
(0.10993879 0.014251867 0)
(0.10776474 0.023136048 0)
(0.1045427 0.031778698 0)
(0.10030665 0.040093896 0)
(0.095101799 0.048000432 0)
(0.088983518 0.055423046 0)
(0.082016008 0.062293253 0)
(0.074271014 0.068549787 0)
(0.065826632 0.074138751 0)
(0.056766249 0.079013572 0)
(0.047177626 0.083134849 0)
(0.037152101 0.086470152 0)
(0.026783862 0.088993819 0)
(0.016169283 0.09068678 0)
(0.0054062862 0.091536405 0)
(-0.0054062862 0.091536405 0)
(-0.016169283 0.09068678 0)
(-0.026783862 0.088993819 0)
(-0.037152101 0.086470152 0)
(-0.047177626 0.083134849 0)
(-0.056766249 0.079013572 0)
(-0.065826632 0.074138751 0)
(-0.074271014 0.068549787 0)
(-0.082016008 0.062293253 0)
(-0.088983518 0.055423046 0)
(-0.095101799 0.048000432 0)
(-0.10030665 0.040093896 0)
(-0.1045427 0.031778698 0)
(-0.10776474 0.023136048 0)
(-0.10993879 0.014251867 0)
(-0.11104291 0.0052151945 0)
(-0.11106744 -0.0038835676 0)
(-0.11001463 -0.012954314 0)
(-0.10789793 -0.021908543 0)
(-0.10474092 -0.030660183 0)
(-0.10057641 -0.03912598 0)
(-0.095445677 -0.047225608 0)
(-0.089397954 -0.054881726 0)
(-0.082490182 -0.062020129 0)
(-0.074786873 -0.068570143 0)
(-0.066359969 -0.074465256 0)
(-0.057288618 -0.079643992 0)
(-0.047658781 -0.084050923 0)
(-0.037562641 -0.087637748 0)
(-0.027097798 -0.090364349 0)
(-0.01636629 -0.092199725 0)
(-0.005473433 -0.093122761 0)
(0.0061005277 -0.10460904 0)
(0.018241538 -0.10357286 0)
(0.030203177 -0.10151263 0)
(0.041868396 -0.098452268 0)
(0.053123843 -0.094426852 0)
(0.063861155 -0.089481709 0)
(0.073978061 -0.083671277 0)
(0.083379257 -0.077057843 0)
(0.091977024 -0.06971023 0)
(0.099691581 -0.06170258 0)
(0.10645122 -0.053113335 0)
(0.11219233 -0.044024554 0)
(0.11685936 -0.034521609 0)
(0.12040508 -0.024693237 0)
(0.12279114 -0.014631806 0)
(0.12398904 -0.0044335015 0)
(0.12398159 0.0058018883 0)
(0.12276441 0.01597189 0)
(0.12034719 0.025973044 0)
(0.11675419 0.035703185 0)
(0.11202397 0.04506385 0)
(0.10620824 0.053962385 0)
(0.099370313 0.062313478 0)
(0.091583348 0.070040058 0)
(0.082928683 0.077073651 0)
(0.073494403 0.083354373 0)
(0.063374127 0.088830703 0)
(0.052666035 0.09345918 0)
(0.04147203 0.097204089 0)
(0.029897012 0.10003719 0)
(0.018048191 0.1019375 0)
(0.0060344272 0.10289112 0)
(-0.0060344272 0.10289112 0)
(-0.018048191 0.1019375 0)
(-0.029897012 0.10003719 0)
(-0.04147203 0.097204089 0)