/*--------------------------------*- C++ -*----------------------------------*\
| =========                 |                                                 |
| \\      /  F ield         | OpenFOAM: The Open Source CFD Toolbox           |
|  \\    /   O peration     | Version:  2306                                  |
|   \\  /    A nd           | Website:  www.openfoam.com                      |
|    \\/     M anipulation  |                                                 |
\*---------------------------------------------------------------------------*/
FoamFile
{
    version     2.0;
    format      ascii;
    arch        "LSB;label=32;scalar=64";
    class       volVectorField;
    location    "0.34";
    object      U_0;
}
// * * * * * * * * * * * * * * * * * * * * * * * * * * * * * * * * * * * * * //

dimensions      [0 1 -1 0 0 0 0];

internalField   nonuniform List<vector> 
51200
(
(-1.9874796e-06 -1.1394812e-05 1.9049495e-20)
(-1.0488492e-05 -6.9794612e-06 -2.084666e-21)
(-2.1927485e-05 -6.0236517e-06 -1.0036953e-20)
(-3.4020175e-05 -4.8711434e-06 1.4168534e-20)
(-4.7872514e-05 -4.1904259e-06 2.220445e-20)
(-6.210425e-05 -3.8767547e-06 -8.971927e-21)
(-7.646701e-05 -3.6821114e-06 -7.1590927e-21)
(-9.0872198e-05 -3.5432874e-06 9.663041e-21)
(-0.0001052979 -3.4296722e-06 1.5274403e-20)
(-0.00011974903 -3.325423e-06 -4.6393914e-21)
(-0.00013424134 -3.2225417e-06 -7.3440139e-21)
(-0.00014879257 -3.1165795e-06 4.1076131e-20)
(-0.00016341807 -3.0045029e-06 2.4909392e-20)
(-0.00017812949 -2.8841392e-06 -2.4384232e-20)
(-0.00019293494 -2.7542347e-06 -1.8609462e-20)
(-0.00020783946 -2.6145719e-06 2.2589366e-20)
(-0.0002228456 -2.465827e-06 5.3427813e-20)
(-0.00023795365 -2.3091496e-06 -4.4646837e-21)
(-0.00025316169 -2.1458627e-06 -4.1490664e-20)
(-0.00026846554 -1.9772506e-06 2.105224e-21)
(-0.00028385881 -1.8044999e-06 8.3855874e-21)
(-0.00029933303 -1.628682e-06 1.40098e-20)
(-0.00031487777 -1.4507727e-06 7.1065888e-20)
(-0.00033048074 -1.2716894e-06 1.17424e-19)
(-0.00034612789 -1.0923199e-06 1.1956473e-19)
(-0.00036180346 -9.1349188e-07 -1.2697206e-19)
(-0.00037749017 -7.3600119e-07 -3.4292974e-19)
(-0.00039316926 -5.6061049e-07 -9.7958205e-20)
(-0.0004088207 -3.8802138e-07 1.2071616e-19)
(-0.00042442328 -2.1890673e-07 2.0103077e-19)
(-0.00043995479 -5.3891125e-08 1.6182307e-19)
(-0.00045539214 1.0644361e-07 -6.9418369e-20)
(-0.0004707115 2.6156495e-07 -6.6145793e-20)
(-0.00048588847 4.1098161e-07 -1.6936402e-19)
(-0.00050089823 5.5424086e-07 -1.2880349e-19)
(-0.00051571565 6.909565e-07 2.3764794e-19)
(-0.00053031547 8.2077794e-07 -4.6549261e-20)
(-0.00054467246 9.4339938e-07 -4.9699053e-19)
(-0.00055876152 1.0585739e-06 1.5907033e-19)
(-0.00057255785 1.1660918e-06 6.6725059e-19)
(-0.0005860371 1.2657974e-06 1.1421337e-19)
(-0.00059917544 1.3575752e-06 -2.9792388e-19)
(-0.00061194977 1.4413591e-06 -2.4212723e-19)
(-0.00062433775 1.5171208e-06 -1.101866e-19)
(-0.00063631798 1.5848799e-06 2.2226323e-19)
(-0.00064787005 1.6446883e-06 6.1457159e-19)
(-0.00065897466 1.6966419e-06 -1.7751634e-19)
(-0.0006696137 1.7408644e-06 -2.8032152e-19)
(-0.00067977033 1.7775243e-06 -2.0328219e-19)
(-0.00068942901 1.806799e-06 -8.6298368e-19)
(-0.00069857559 1.8289196e-06 4.1210508e-19)
(-0.00070719735 1.8441258e-06 6.7634708e-19)
(-0.00071528305 1.8526883e-06 6.7232068e-20)
(-0.0007228229 1.8548842e-06 2.5740757e-19)
(-0.00072980862 1.8510202e-06 -7.6656939e-19)
(-0.00073623347 1.8414223e-06 -6.031326e-19)
(-0.00074209219 1.8264135e-06 5.7189684e-19)
(-0.000747381 1.8063283e-06 2.2165111e-19)
(-0.00075209764 1.7815234e-06 -6.4062663e-20)
(-0.00075624126 1.7523402e-06 1.0089228e-19)
(-0.00075981244 1.7191348e-06 -4.8892821e-20)
(-0.00076281314 1.6822605e-06 5.7225777e-20)
(-0.00076524665 1.642068e-06 -4.3886084e-20)
(-0.00076711751 1.5989037e-06 -4.0479006e-19)
(-0.00076843152 1.5531127e-06 -5.3929285e-19)
(-0.00076919559 1.5050302e-06 7.8746692e-20)
(-0.00076941776 1.4549784e-06 9.2629541e-19)
(-0.00076910707 1.4032823e-06 6.3603248e-21)
(-0.00076827353 1.3502388e-06 -3.7831827e-19)
(-0.00076692804 1.296153e-06 5.2077695e-19)
(-0.00076508229 1.2413048e-06 -8.1087653e-20)
(-0.00076274876 1.1859685e-06 -3.4737882e-19)
(-0.00075994058 1.1303968e-06 1.3758321e-19)
(-0.00075667146 1.074835e-06 1.8270086e-19)
(-0.00075295569 1.019508e-06 2.1548431e-19)
(-0.00074880796 9.6463207e-07 -3.8549075e-19)
(-0.00074424341 9.1041953e-07 -4.0030266e-19)
(-0.00073927754 8.5712688e-07 3.007046e-19)
(-0.00073392631 8.050838e-07 4.1092568e-19)
(-0.00072820618 7.5478109e-07 -2.1336768e-19)
(-0.00072213414 7.0694571e-07 -7.250878e-19)
(-0.00071572733 6.6253413e-07 3.1462271e-19)
(-0.00070900205 6.2229621e-07 5.8162192e-19)
(-0.00070197179 5.8710382e-07 -1.5416325e-21)
(-0.00069464477 5.6270219e-07 1.569533e-19)
(-0.00068702414 5.5425089e-07 -2.347846e-19)
(-0.00067912515 5.2088649e-07 3.4191036e-20)
(-0.00067099081 4.5086508e-07 1.6025881e-20)
(-0.00066264607 3.7441355e-07 -4.3770417e-19)
(-0.00065409179 2.996354e-07 8.7020738e-20)
(-0.00064533861 2.2859384e-07 -2.8860778e-19)
(-0.00063639971 1.6157153e-07 -1.8189001e-19)
(-0.00062728871 9.8318757e-08 4.4099153e-19)
(-0.00061801907 3.8509493e-08 2.4134502e-19)
(-0.00060860389 -1.8149182e-08 -6.2146653e-20)
(-0.00059905589 -7.1881623e-08 -4.3616887e-19)
(-0.00058938732 -1.2286993e-07 6.5697605e-20)
(-0.00057961003 -1.7126857e-07 3.7337027e-19)
(-0.0005697354 -2.1718951e-07 1.7961644e-19)
(-0.00055977437 -2.6074564e-07 -1.3813054e-19)
(-0.00054973744 -3.0202938e-07 -4.9363853e-19)
(-0.00053963467 -3.411317e-07 1.3657115e-19)
(-0.00052947567 -3.7813541e-07 2.4907758e-19)
(-0.00051926961 -4.1312177e-07 1.2254205e-19)
(-0.00050902521 -4.4616439e-07 -4.7624411e-20)
(-0.0004987508 -4.7734136e-07 -5.0259785e-19)
(-0.00048845424 -5.0672307e-07 1.2121056e-19)
(-0.000478143 -5.3438102e-07 3.4629752e-19)
(-0.00046782414 -5.6039418e-07 6.6470976e-20)
(-0.0004575043 -5.8481913e-07 4.0349682e-20)
(-0.00044718974 -6.0773235e-07 -3.6707535e-19)
(-0.00043688636 -6.2919541e-07 -1.6790621e-19)
(-0.00042659964 -6.4928018e-07 2.3989277e-19)
(-0.00041633475 -6.6804237e-07 8.1795112e-20)
(-0.00040609647 -6.855501e-07 3.3885728e-20)
(-0.00039588927 -7.018592e-07 -7.1860504e-20)
(-0.00038571729 -7.1703182e-07 7.3063505e-21)
(-0.00037558435 -7.3112827e-07 1.1354036e-19)
(-0.00036549395 -7.4419821e-07 -1.4369357e-20)
(-0.00035544933 -7.5630122e-07 4.2610104e-21)
(-0.00034545343 -7.6748814e-07 -8.5897479e-20)
(-0.00033550894 -7.7780687e-07 -8.5216943e-21)
(-0.00032561827 -7.8730597e-07 1.0049034e-19)
(-0.0003157836 -7.9603613e-07 4.0130766e-20)
(-0.00030600688 -8.0403704e-07 -2.7862051e-20)
(-0.00029628982 -8.1135015e-07 -1.718825e-19)
(-0.00028663394 -8.1801607e-07 -2.1479835e-20)
(-0.00027704055 -8.2406684e-07 1.4017442e-19)
(-0.00026751077 -8.2953997e-07 5.2979053e-20)
(-0.00025804553 -8.3446182e-07 -4.3080161e-20)
(-0.00024864561 -8.3885811e-07 -8.8707584e-20)
(-0.0002393116 -8.4273999e-07 1.9569797e-20)
(-0.00023004398 -8.4613171e-07 6.4760084e-20)
(-0.00022084305 -8.4903611e-07 -2.5128827e-20)
(-0.000211709 -8.5148057e-07 -8.2995867e-20)
(-0.00020264191 -8.5349152e-07 -2.0645218e-20)
(-0.00019364172 -8.5509936e-07 7.5440926e-20)
(-0.00018470827 -8.5633304e-07 3.607323e-20)
(-0.00017584131 -8.5722237e-07 6.0655331e-21)
(-0.00016704048 -8.5778847e-07 -4.2188113e-21)
(-0.00015830535 -8.5806304e-07 -3.5166855e-20)
(-0.00014963541 -8.58057e-07 2.7270182e-20)
(-0.00014103009 -8.5779687e-07 1.986851e-20)
(-0.00013248876 -8.5730141e-07 -1.162903e-20)
(-0.00012401072 -8.5657657e-07 7.9873321e-21)
(-0.00011559528 -8.5563884e-07 -5.5692884e-20)
(-0.00010724169 -8.5449453e-07 -1.5730189e-20)
(-9.8949241e-05 -8.5314008e-07 6.2766496e-20)
(-9.0717242e-05 -8.5155567e-07 2.3067155e-20)
(-8.2545147e-05 -8.4968543e-07 -2.0547688e-20)
(-7.4432682e-05 -8.4738229e-07 -3.8180085e-20)
(-6.6380166e-05 -8.4430799e-07 -6.3163974e-21)
(-5.8389151e-05 -8.396738e-07 2.8743395e-20)
(-5.0463733e-05 -8.3168878e-07 9.1037598e-21)
(-4.2612993e-05 -8.1652537e-07 -5.7172637e-21)
(-3.4854626e-05 -7.8720941e-07 -1.0828478e-20)
(-2.7217634e-05 -7.364334e-07 -4.5993602e-21)
(-1.9733247e-05 -6.8283637e-07 5.1209714e-21)
(-1.2329776e-05 -8.2572912e-07 1.7215555e-21)
(-4.3234518e-06 -1.7819225e-06 -3.4620965e-21)
(-2.7178721e-05 3.2863288e-05 3.7638886e-20)
(-6.6776383e-05 4.2666402e-05 -6.562758e-22)
(-0.00011324034 4.6736262e-05 7.0343504e-21)
(-0.00015946181 5.0929334e-05 6.2630262e-20)
(-0.00020854691 5.3586185e-05 4.0240237e-20)
(-0.00025824893 5.5062242e-05 -2.3279784e-20)
(-0.00030819769 5.5960038e-05 1.6819372e-20)
(-0.00035822243 5.6552555e-05 7.4104573e-21)
(-0.00040822844 5.6979869e-05 1.4566952e-21)
(-0.00045815816 5.7317461e-05 4.0670793e-20)
(-0.00050797835 5.7605417e-05 3.1758971e-20)
(-0.00055766744 5.7864768e-05 8.1021073e-20)
(-0.00060720772 5.8106557e-05 1.1905823e-19)
(-0.00065658187 5.8336198e-05 1.0949916e-19)
(-0.00070577138 5.8555641e-05 4.2851764e-20)
(-0.00075475564 5.8764486e-05 7.8739984e-20)
(-0.00080351138 5.8960832e-05 1.6457293e-19)
(-0.00085201245 5.9142008e-05 4.8161097e-21)
(-0.00090022984 5.9304968e-05 -1.7676274e-19)
(-0.00094813181 5.9446582e-05 -7.6211258e-20)
(-0.00099568411 5.9563729e-05 1.4324425e-20)
(-0.0010428502 5.9653386e-05 2.2061166e-20)
(-0.0010895915 5.9712565e-05 1.3486987e-19)
(-0.0011358674 5.9738303e-05 2.9429849e-19)
(-0.0011816356 5.9727696e-05 1.407159e-19)
(-0.0012268522 5.9677964e-05 -4.3962125e-19)
(-0.0012714719 5.9586487e-05 -4.9699979e-19)
(-0.0013154484 5.9450811e-05 -1.9262175e-19)
(-0.0013587343 5.9268734e-05 -1.1782634e-19)
(-0.0014012814 5.9038258e-05 5.4890444e-19)
(-0.0014430413 5.8757641e-05 6.7594836e-19)
(-0.0014839652 5.8425395e-05 -3.4655264e-19)
(-0.0015240043 5.8040301e-05 -6.7399548e-19)
(-0.0015631104 5.7601403e-05 -2.2740766e-19)
(-0.0016012354 5.7108027e-05 4.7770548e-19)
(-0.0016383324 5.6559789e-05 3.7016329e-19)
(-0.0016743554 5.5956574e-05 -5.9202985e-19)
(-0.0017092595 5.5298554e-05 -8.6070136e-19)
(-0.0017430017 5.458618e-05 5.8302737e-19)
(-0.0017755405 5.3820164e-05 8.4171434e-19)
(-0.0018068363 5.3001486e-05 -9.8616676e-19)
(-0.0018368518 5.2131375e-05 -3.2471833e-19)
(-0.0018655521 5.1211301e-05 1.5588178e-18)
(-0.0018929045 5.0242961e-05 2.0746244e-18)
(-0.0019188792 4.9228262e-05 -3.4806121e-20)
(-0.0019434492 4.81693e-05 -3.2063003e-18)
(-0.0019665902 4.7068366e-05 -1.8492198e-18)
(-0.0019882811 4.59279e-05 1.4112249e-18)
(-0.0020085036 4.4750497e-05 1.4422502e-18)
(-0.0020272429 4.3538864e-05 -7.8146272e-19)
(-0.002044487 4.229584e-05 -1.3156095e-18)
(-0.0020602273 4.1024325e-05 1.4790718e-18)
(-0.0020744583 3.972731e-05 1.9116798e-18)
(-0.0020871777 3.8407816e-05 -3.1602165e-19)
(-0.0020983865 3.7068912e-05 -1.2246894e-18)
(-0.0021080884 3.5713684e-05 -1.3474937e-18)
(-0.0021162906 3.4345202e-05 -1.7791971e-19)
(-0.002123003 3.2966519e-05 1.425199e-18)
(-0.0021282384 3.1580667e-05 5.6237184e-19)
(-0.0021320124 3.0190604e-05 -1.3818512e-18)
(-0.0021343431 2.8799246e-05 -5.2470225e-19)
(-0.0021352514 2.7409422e-05 1.5035193e-18)
(-0.0021347604 2.6023877e-05 4.0138294e-19)
(-0.0021328955 2.4645252e-05 -1.8231066e-18)
(-0.0021296842 2.3276078e-05 -1.0312746e-18)
(-0.0021251559 2.1918792e-05 1.0849702e-18)
(-0.002119342 2.0575678e-05 1.3571768e-18)
(-0.0021122753 1.9248927e-05 3.2686632e-19)
(-0.0021039902 1.7940573e-05 -7.4399348e-19)
(-0.0020945224 1.6652542e-05 -1.464725e-18)
(-0.0020839089 1.5386627e-05 1.3847419e-19)
(-0.0020721876 1.4144491e-05 1.1059517e-18)
(-0.0020593972 1.2927668e-05 5.1384155e-20)
(-0.0020455775 1.1737566e-05 2.0482608e-19)
(-0.0020307684 1.0575459e-05 4.6520716e-19)
(-0.0020150106 9.4425178e-06 1.5228647e-19)
(-0.001998345 8.339853e-06 -7.1932352e-19)
(-0.0019808125 7.2685618e-06 -9.2090412e-19)
(-0.0019624543 6.2297883e-06 1.1586155e-19)
(-0.0019433114 5.2247004e-06 4.0126825e-19)
(-0.0019234245 4.2543431e-06 5.7226791e-20)
(-0.0019028332 3.3190927e-06 2.1836285e-19)
(-0.0018815751 2.4175922e-06 2.4518879e-19)
(-0.0018596817 1.5449906e-06 -6.2664906e-19)
(-0.0018371837 6.8222739e-07 -7.5952035e-20)
(-0.0018141558 -1.6889982e-07 5.8416084e-19)
(-0.0017906503 -1.0001158e-06 -3.6782721e-19)
(-0.0017666582 -1.8127472e-06 2.6201243e-19)
(-0.0017422046 -2.592664e-06 2.5004042e-19)
(-0.0017173389 -3.3375249e-06 -6.2889986e-19)
(-0.0016920992 -4.0477287e-06 -4.5695811e-19)
(-0.0016665194 -4.7243267e-06 -1.458132e-19)
(-0.0016406313 -5.3684869e-06 4.7201843e-19)
(-0.0016144655 -5.9813392e-06 1.4389482e-19)
(-0.0015880514 -6.5639466e-06 -1.6270611e-19)
(-0.0015614174 -7.1173068e-06 3.008445e-21)
(-0.0015345908 -7.6423803e-06 1.4189428e-19)
(-0.0015075976 -8.1401221e-06 3.8929204e-19)
(-0.001480463 -8.6114309e-06 -2.2552003e-19)
(-0.001453211 -9.0572188e-06 -5.7647772e-19)
(-0.0014258643 -9.4783886e-06 -6.2828385e-20)
(-0.0013984447 -9.875829e-06 4.2167664e-19)
(-0.001370973 -1.0250408e-05 3.8667617e-19)
(-0.0013434689 -1.0603015e-05 -8.5370117e-20)
(-0.0013159508 -1.0934501e-05 -4.0094258e-19)
(-0.0012884365 -1.1245725e-05 -2.9313978e-19)
(-0.0012609424 -1.1537519e-05 2.3773909e-19)
(-0.0012334842 -1.1810715e-05 6.0940926e-19)
(-0.0012060766 -1.2066134e-05 6.0871316e-20)
(-0.0011787331 -1.2304558e-05 -4.2512239e-19)
(-0.0011514668 -1.2526777e-05 -1.88839e-19)
(-0.0011242894 -1.2733557e-05 -1.1213198e-19)
(-0.0010972121 -1.2925644e-05 3.6599866e-19)
(-0.0010702451 -1.3103762e-05 4.6781334e-19)
(-0.001043398 -1.3268618e-05 -2.5255441e-19)
(-0.0010166794 -1.3420896e-05 -4.3496274e-19)
(-0.0009900974 -1.3561271e-05 -8.759789e-20)
(-0.00096365919 -1.3690389e-05 3.9792304e-19)
(-0.00093737139 -1.3808869e-05 1.3291157e-19)
(-0.00091123998 -1.3917321e-05 -4.8137904e-19)
(-0.0008852703 -1.4016335e-05 -1.5216924e-19)
(-0.00085946709 -1.4106459e-05 4.2376833e-19)
(-0.00083383454 -1.4188243e-05 3.5286701e-19)
(-0.00080837632 -1.4262217e-05 -2.1359694e-19)
(-0.00078309556 -1.4328871e-05 -5.2668637e-19)
(-0.00075799492 -1.4388692e-05 -4.8783703e-20)
(-0.00073307659 -1.4442146e-05 3.7691687e-19)
(-0.00070834236 -1.4489671e-05 2.1004044e-19)
(-0.00068379356 -1.45317e-05 -7.7936216e-20)
(-0.00065943117 -1.4568642e-05 -2.4506788e-19)
(-0.0006352558 -1.4600894e-05 -9.5322779e-20)
(-0.00061126769 -1.462883e-05 2.660932e-19)
(-0.00058746681 -1.4652824e-05 2.6100948e-19)
(-0.0005638528 -1.4673218e-05 -8.3284159e-20)
(-0.00054042508 -1.4690346e-05 -3.1855427e-19)
(-0.00051718276 -1.4704498e-05 -5.8746121e-20)
(-0.00049412474 -1.4715953e-05 2.0873296e-19)
(-0.00047124965 -1.4724969e-05 9.1238845e-20)
(-0.00044855594 -1.4731793e-05 -2.226041e-20)
(-0.00042604186 -1.4736644e-05 -5.8924797e-20)
(-0.0004037055 -1.4739745e-05 -2.9581604e-20)
(-0.00038154479 -1.4741272e-05 1.6018762e-20)
(-0.00035955752 -1.4741416e-05 4.9084068e-20)
(-0.00033774139 -1.4740339e-05 -2.833297e-20)
(-0.00031609397 -1.473816e-05 -9.8109811e-20)
(-0.0002946128 -1.4734997e-05 -2.3379647e-20)
(-0.00027329535 -1.4730917e-05 7.7977472e-20)
(-0.00025213911 -1.4725938e-05 9.1781208e-20)
(-0.00023114164 -1.4719963e-05 -2.8296018e-20)
(-0.00021030066 -1.4712713e-05 -9.6823152e-20)
(-0.00018961424 -1.4703532e-05 -9.4466499e-21)
(-0.00016908104 -1.4691047e-05 5.8304017e-20)
(-0.00014870075 -1.4672519e-05 3.6073995e-20)
(-0.00012847455 -1.4642786e-05 -1.4043204e-20)
(-0.0001084053 -1.4593102e-05 -2.885091e-20)
(-8.8495731e-05 -1.4512171e-05 -4.1051345e-21)
(-6.8739646e-05 -1.4399168e-05 1.3838929e-20)
(-4.909883e-05 -1.4313228e-05 1.070742e-20)
(-2.9481662e-05 -1.4494864e-05 1.3643355e-21)
(-9.8023757e-06 -1.5474899e-05 -1.6674549e-22)
(-5.044959e-05 0.00015848655 -9.8310484e-20)
(-0.00011701406 0.00016958159 -3.2351231e-20)
(-0.00019281957 0.00017587225 -3.7536072e-20)
(-0.00026658237 0.00018190185 2.4722457e-20)
(-0.00034341732 0.000185938 4.3398143e-20)
(-0.0004206279 0.00018834524 -6.0706874e-20)
(-0.0004979836 0.00018980976 9.1564843e-21)
(-0.00057536183 0.00019071388 2.5140648e-21)
(-0.00065264982 0.00019127736 6.2472299e-20)
(-0.00072974765 0.00019162635 1.8866133e-19)
(-0.0008065767 0.00019183123 1.1556486e-19)
(-0.00088307243 0.00019192979 1.370081e-19)
(-0.00095917773 0.00019194131 4.3539441e-20)
(-0.0010348392 0.00019187455 1.3743137e-19)
(-0.0011100049 0.00019173234 2.0266247e-19)
(-0.0011846229 0.00019151411 7.9084856e-20)
(-0.0012586401 0.00019121746 1.180124e-19)
(-0.0013320025 0.00019083895 -3.1903661e-20)
(-0.0014046544 0.00019037451 -1.3445233e-19)
(-0.0014765389 0.00018981971 2.2563226e-20)
(-0.0015475974 0.00018917 8.2047777e-20)
(-0.0016177702 0.00018842089 8.7197395e-20)
(-0.0016869965 0.00018756791 1.7098993e-19)
(-0.0017552142 0.0001866067 1.783231e-19)
(-0.0018223608 0.00018553311 -7.4584606e-20)
(-0.0018883729 0.0001843432 -1.7032365e-19)
(-0.0019531868 0.00018303345 -1.1905155e-19)
(-0.0020167388 0.00018160069 -2.2662056e-19)
(-0.0020789651 0.00018004224 -2.789594e-19)
(-0.0021398024 0.00017835594 1.3000581e-19)
(-0.0021991882 0.00017654016 3.2555688e-19)
(-0.0022570605 0.00017459382 -1.0450065e-19)
(-0.0023133589 0.00017251645 -4.1834551e-19)
(-0.0023680242 0.00017030814 -2.8338206e-19)
(-0.0024209991 0.00016796961 2.8788036e-19)
(-0.0024722281 0.00016550216 3.928534e-19)
(-0.0025216582 0.0001629077 -1.1381218e-19)
(-0.0025692389 0.00016018871 -2.1186637e-19)
(-0.0026149222 0.00015734826 -4.2792303e-20)
(-0.0026586634 0.00015438997 -3.5470216e-19)
(-0.002700421 0.00015131797 -4.9953363e-19)
(-0.0027401566 0.0001481369 4.7960365e-19)
(-0.0027778357 0.00014485185 1.1052473e-18)
(-0.0028134273 0.00014146838 9.4952477e-19)
(-0.0028469044 0.00013799241 -1.6204343e-19)
(-0.0028782439 0.00013443021 -2.0632691e-18)
(-0.0029074268 0.00013078839 -9.2855165e-19)
(-0.0029344382 0.00012707383 6.1524017e-19)
(-0.0029592674 0.00012329363 8.189718e-19)
(-0.0029819077 0.00011945508 7.3745582e-19)
(-0.0030023568 0.00011556564 -9.3871468e-19)
(-0.0030206165 0.00011163284 -8.3143669e-20)
(-0.0030366927 0.00010766429 1.0337845e-18)
(-0.0030505953 0.00010366759 -1.0767656e-19)
(-0.0030623384 9.9650354e-05 -1.9962645e-19)
(-0.0030719396 9.562012e-05 -3.9943153e-19)
(-0.0030794205 9.1584323e-05 -3.7720567e-19)
(-0.0030848062 8.7550268e-05 5.7796236e-19)
(-0.0030881254 8.3525095e-05 1.6896725e-19)
(-0.00308941 7.9515746e-05 -8.3626314e-19)
(-0.003088695 7.5528933e-05 -2.3445444e-19)
(-0.0030860184 7.1571132e-05 6.2119026e-19)
(-0.003081421 6.7648525e-05 4.6641633e-20)
(-0.0030749459 6.3767024e-05 -4.04097e-19)
(-0.003066639 5.9932207e-05 3.0812397e-19)
(-0.0030565479 5.6149361e-05 3.8178433e-19)
(-0.0030447225 5.2423409e-05 -2.12886e-19)
(-0.0030312141 4.8758956e-05 -7.5627806e-20)
(-0.0030160757 4.5160252e-05 -1.1545923e-19)
(-0.0029993617 4.163121e-05 -6.4460401e-19)
(-0.0029811275 3.8175411e-05 -5.9442958e-20)
(-0.0029614293 3.4796076e-05 3.7444352e-19)
(-0.0029403242 3.1496101e-05 7.4873341e-21)
(-0.0029178699 2.827803e-05 2.8477319e-19)
(-0.0028941241 2.514406e-05 2.5294595e-19)
(-0.002869145 2.2096072e-05 2.6156578e-19)
(-0.0028429905 1.9135675e-05 -1.467506e-19)
(-0.0028157187 1.6264231e-05 -8.7235646e-19)
(-0.0027873871 1.3482916e-05 -2.4681544e-19)
(-0.0027580534 1.0792687e-05 6.4396078e-19)
(-0.0027277751 8.1941324e-06 4.2289566e-19)
(-0.0026966106 5.6867727e-06 -5.0749425e-19)
(-0.002664618 3.2666974e-06 -4.0541009e-19)
(-0.0026318637 9.1940151e-07 -2.4411982e-19)
(-0.002598384 -1.3386099e-06 -1.6868168e-19)
(-0.002564191 -3.527335e-06 2.8570495e-19)
(-0.0025293456 -5.6204414e-06 -1.2947459e-19)
(-0.0024939229 -7.610258e-06 1.9786935e-19)
(-0.0024579731 -9.5112906e-06 5.4767761e-19)
(-0.0024215409 -1.1328329e-05 -2.4813367e-19)
(-0.0023846704 -1.3063922e-05 -3.7406776e-19)
(-0.0023474043 -1.4720037e-05 -3.973931e-20)
(-0.0023097844 -1.62985e-05 1.3635069e-19)
(-0.0022718511 -1.7801191e-05 -1.419298e-19)
(-0.0022336429 -1.9230064e-05 -2.2933513e-22)
(-0.0021951974 -2.0587139e-05 4.4774209e-19)
(-0.00215655 -2.18745e-05 -2.6803097e-20)
(-0.0021177351 -2.3094291e-05 -2.3417517e-19)
(-0.0020787853 -2.4248657e-05 -3.2282128e-19)
(-0.0020397318 -2.5339792e-05 -1.2595085e-19)
(-0.0020006041 -2.6369903e-05 3.9036888e-19)
(-0.0019614303 -2.7341183e-05 2.0586832e-19)
(-0.0019222372 -2.8255821e-05 3.473708e-20)
(-0.0018830499 -2.9116018e-05 -2.644229e-19)
(-0.0018438923 -2.9923941e-05 -1.2967997e-19)
(-0.0018047867 -3.0681738e-05 3.211406e-19)
(-0.0017657542 -3.1391518e-05 7.3524242e-20)
(-0.0017268147 -3.2055381e-05 3.1440496e-20)
(-0.0016879864 -3.2675374e-05 -9.5224831e-20)
(-0.0016492868 -3.3253511e-05 -2.9725449e-19)
(-0.0016107317 -3.3791762e-05 7.954951e-20)
(-0.0015723361 -3.4292047e-05 1.3912823e-19)
(-0.0015341136 -3.4756253e-05 1.102288e-19)
(-0.001496077 -3.5186203e-05 2.0703044e-19)
(-0.0014582379 -3.5583667e-05 -1.3321462e-19)
(-0.0014206068 -3.5950373e-05 -3.1140496e-19)
(-0.0013831934 -3.6288002e-05 -1.2611114e-19)
(-0.0013460064 -3.6598172e-05 1.5386693e-19)
(-0.0013090537 -3.6882445e-05 1.0344628e-19)
(-0.0012723421 -3.7142331e-05 -1.2914533e-19)
(-0.001235878 -3.73793e-05 2.0419633e-20)
(-0.0011996667 -3.7594742e-05 1.6130732e-19)
(-0.0011637129 -3.7790014e-05 6.8292508e-20)
(-0.0011280205 -3.7966428e-05 -1.6508626e-19)
(-0.001092593 -3.812522e-05 -2.0616704e-19)
(-0.0010574329 -3.8267596e-05 9.6215297e-20)
(-0.0010225425 -3.8394708e-05 1.8802376e-19)
(-0.00098792321 -3.8507656e-05 7.8260579e-20)
(-0.00095357611 -3.86075e-05 -9.2059892e-20)
(-0.0009195017 -3.8695257e-05 -9.6960358e-20)
(-0.00088570006 -3.8771901e-05 4.758888e-20)
(-0.00085217082 -3.8838373e-05 8.1329558e-20)
(-0.00081891318 -3.889556e-05 9.1876562e-20)
(-0.00078592598 -3.8944324e-05 2.3366967e-20)
(-0.00075320767 -3.898545e-05 -7.6651289e-20)
(-0.00072075638 -3.9019674e-05 -5.8475832e-20)
(-0.00068856996 -3.9047686e-05 3.0701442e-20)
(-0.00065664597 -3.9070129e-05 4.3515509e-20)
(-0.00062498169 -3.9087613e-05 -2.2191317e-20)
(-0.00059357421 -3.9100693e-05 -2.638104e-20)
(-0.00056242038 -3.9109906e-05 3.8775568e-21)
(-0.00053151685 -3.9115728e-05 -3.7777155e-20)
(-0.00050086012 -3.9118612e-05 1.0869178e-20)
(-0.00047044653 -3.9118966e-05 8.6476871e-21)
(-0.00044027232 -3.9117124e-05 -3.3014846e-20)
(-0.00041033362 -3.9113383e-05 2.764232e-20)
(-0.0003806265 -3.9107939e-05 1.7618223e-20)
(-0.00035114701 -3.9100877e-05 -3.9342734e-22)
(-0.00032189123 -3.9092088e-05 -4.7901152e-21)
(-0.00029285528 -3.9081172e-05 -1.0549269e-20)
(-0.00026403546 -3.906722e-05 3.4502108e-20)
(-0.00023542823 -3.9048475e-05 2.8264173e-20)
(-0.0002070302 -3.9021845e-05 2.2401325e-21)
(-0.00017883772 -3.8982529e-05 -2.574772e-20)
(-0.00015084568 -3.8924729e-05 -1.1728674e-20)
(-0.00012304471 -3.8846831e-05 2.3979084e-20)
(-9.5414793e-05 -3.8770409e-05 1.0899494e-20)
(-6.7913608e-05 -3.8789438e-05 6.8536236e-21)
(-4.0489918e-05 -3.9156505e-05 1.2620152e-20)
(-1.3356316e-05 -4.0233975e-05 2.2369677e-20)
(-6.5058591e-05 0.0003373133 -3.7189432e-19)
(-0.00014971045 0.0003460237 -1.5866236e-19)
(-0.00024494951 0.00035214445 -6.6630983e-20)
(-0.00033654225 0.0003580003 -1.9166926e-19)
(-0.00043116687 0.00036209542 -6.2346102e-20)
(-0.00052580637 0.00036462253 -1.2857571e-19)
(-0.00062039739 0.00036611453 -8.0005531e-20)
(-0.0007149025 0.00036691713 -1.3882429e-20)
(-0.00080922963 0.00036725052 8.1011967e-20)
(-0.00090326839 0.0003672499 1.6448978e-19)
(-0.00099691814 0.00036699534 1.2858998e-19)
(-0.0010900885 0.00036653262 1.0896588e-19)
(-0.0011826959 0.00036588692 -2.3660757e-20)
(-0.0012746617 0.00036507109 1.0618454e-19)
(-0.0013659098 0.00036409068 1.4889302e-19)
(-0.0014563659 0.00036294673 -2.5126896e-20)
(-0.0015459564 0.00036163747 1.0074404e-19)
(-0.0016346075 0.00036015935 3.4620122e-20)
(-0.0017222458 0.00035850768 -2.3197142e-20)
(-0.0018087971 0.00035667712 6.4088946e-20)
(-0.0018941871 0.00035466208 6.7742777e-20)
(-0.0019783412 0.00035245697 8.7275884e-20)
(-0.0020611841 0.00035005638 6.4923926e-20)
(-0.0021426408 0.00034745525 -5.1096334e-20)
(-0.0022226361 0.00034464893 -2.6624487e-20)
(-0.0023010949 0.0003416333 -3.76423e-20)
(-0.0023779428 0.00033840489 -2.3784785e-19)
(-0.0024531062 0.0003349609 -7.3391137e-20)
(-0.0025265123 0.00033129932 5.3566202e-20)
(-0.0025980896 0.00032741897 -5.1721679e-20)
(-0.0026677681 0.00032331951 -1.520523e-19)
(-0.0027354796 0.0003190015 -8.9237396e-20)
(-0.0028011581 0.0003144664 1.6126818e-19)
(-0.0028647398 0.00030971658 3.4793793e-20)
(-0.0029261634 0.00030475533 -2.4200229e-19)
(-0.0029853708 0.00029958687 -1.1807218e-19)
(-0.0030423068 0.00029421631 1.9732447e-19)
(-0.0030969196 0.00028864964 2.1166339e-19)
(-0.0031491611 0.00028289369 -1.2353416e-19)
(-0.003198987 0.00027695613 -2.3289128e-19)
(-0.0032463568 0.00027084536 -6.9212306e-20)
(-0.0032912346 0.00026457053 1.6771875e-19)
(-0.0033335884 0.00025814145 2.7838133e-19)
(-0.0033733911 0.0002515685 5.6022687e-21)
(-0.0034106198 0.00024486265 4.6922286e-21)
(-0.0034452566 0.00023803531 -3.4669989e-19)
(-0.0034772882 0.00023109832 -3.6532708e-19)
(-0.0035067059 0.00022406388 8.5802536e-20)
(-0.003533506 0.00021694444 1.5500314e-19)
(-0.0035576895 0.00020975265 4.5122931e-19)
(-0.0035792622 0.00020250133 4.6025397e-20)
(-0.0035982344 0.00019520335 -4.1964639e-19)
(-0.0036146212 0.00018787157 1.0136286e-19)
(-0.0036284419 0.00018051879 1.9883125e-19)
(-0.0036397206 0.0001731577 -5.133228e-20)
(-0.0036484851 0.00016580079 -2.0550835e-19)
(-0.0036547678 0.00015846031 -1.7989631e-19)
(-0.0036586046 0.00015114821 1.770565e-19)
(-0.0036600353 0.0001438761 4.4628292e-20)
(-0.0036591032 0.0001366552 -3.6889408e-19)
(-0.0036558548 0.00012949627 -5.2037074e-20)
(-0.0036503398 0.00012240963 2.861019e-19)
(-0.0036426108 0.00011540509 5.6067574e-20)
(-0.0036327227 0.00010849192 -8.8915822e-20)
(-0.0036207332 0.00010167884 1.057415e-19)
(-0.003606702 9.4974013e-05 9.5571062e-20)
(-0.0035906906 8.838499e-05 -2.6575215e-19)
(-0.0035727622 8.1918745e-05 -1.5425498e-19)
(-0.0035529816 7.5581658e-05 -1.5734474e-20)
(-0.0035314146 6.9379501e-05 -5.8018541e-20)
(-0.0035081281 6.3317463e-05 3.1118426e-20)
(-0.0034831897 5.7400124e-05 3.7344492e-20)
(-0.0034566675 5.1631473e-05 -9.5166206e-20)
(-0.00342863 4.6014892e-05 -7.7465574e-20)
(-0.0033991458 4.0553169e-05 2.1215853e-19)
(-0.0033682832 3.524852e-05 2.393827e-19)
(-0.0033361106 3.0102616e-05 -2.679699e-19)
(-0.0033026956 2.5116631e-05 -5.190826e-19)
(-0.0032681055 2.0291274e-05 -6.4949626e-20)
(-0.0032324069 1.5626805e-05 1.8988217e-19)
(-0.0031956662 1.1123132e-05 -5.1318816e-20)
(-0.0031579516 6.7794895e-06 -2.5697866e-19)
(-0.0031193377 2.5971838e-06 -3.0671735e-20)
(-0.0030798562 -1.4195934e-06 1.2466616e-19)
(-0.0030395643 -5.2468287e-06 1.3679915e-20)
(-0.0029985501 -8.9032022e-06 -7.1172312e-20)
(-0.0029568615 -1.2412611e-05 -2.6017781e-19)
(-0.00291455 -1.5778857e-05 -9.0652728e-20)
(-0.0028716706 -1.9002657e-05 2.321321e-19)
(-0.0028282776 -2.208535e-05 2.2581021e-19)
(-0.0027844227 -2.5029075e-05 -5.709161e-20)
(-0.0027401556 -2.7836527e-05 -2.7477106e-19)
(-0.0026955238 -3.0510757e-05 -2.3699118e-20)
(-0.0026505731 -3.3055035e-05 1.3482092e-19)
(-0.0026053473 -3.5472814e-05 1.4393797e-19)
(-0.0025598885 -3.7767659e-05 1.0186308e-19)
(-0.0025142367 -3.9943242e-05 -2.0450939e-19)
(-0.0024684305 -4.2003302e-05 -1.5876403e-19)
(-0.0024225063 -4.3951609e-05 -1.4036154e-20)
(-0.002376499 -4.5791996e-05 1.1730031e-20)
(-0.0023304416 -4.7528299e-05 1.8944302e-19)
(-0.0022843654 -4.916434e-05 6.0116667e-20)
(-0.0022383001 -5.0703939e-05 -6.9638319e-20)
(-0.0021922737 -5.2150899e-05 -7.020303e-21)
(-0.0021463124 -5.3508979e-05 1.3568257e-19)
(-0.002100441 -5.4781902e-05 1.2352426e-19)
(-0.0020546828 -5.5973316e-05 -8.0099732e-20)
(-0.0020090594 -5.708684e-05 -8.6021063e-20)
(-0.0019635911 -5.8126007e-05 -1.0074333e-19)
(-0.0019182968 -5.9094296e-05 -1.4261926e-19)
(-0.0018731939 -5.9995087e-05 -6.8923672e-22)
(-0.0018282986 -6.0831684e-05 1.2829738e-19)
(-0.0017836258 -6.160733e-05 9.8426258e-20)
(-0.0017391891 -6.2325145e-05 4.521007e-20)
(-0.0016950009 -6.2988182e-05 -5.1427178e-20)
(-0.0016510727 -6.3599394e-05 -1.0251354e-19)
(-0.0016074148 -6.4161655e-05 -1.0830891e-19)
(-0.0015640362 -6.4677738e-05 -1.1590785e-20)
(-0.0015209453 -6.5150312e-05 6.2185392e-20)
(-0.0014781494 -6.5581967e-05 8.5994821e-20)
(-0.0014356547 -6.5975188e-05 4.4213283e-20)
(-0.0013934669 -6.6332374e-05 -6.1522633e-20)
(-0.0013515906 -6.6655825e-05 -3.2523445e-20)
(-0.0013100298 -6.6947766e-05 4.6424201e-20)
(-0.0012687877 -6.721031e-05 8.2483907e-20)
(-0.0012278667 -6.7445497e-05 3.9490581e-20)
(-0.0011872686 -6.7655271e-05 -2.5114957e-20)
(-0.0011469948 -6.7841494e-05 1.2178958e-21)
(-0.0011070457 -6.8005945e-05 -3.0259041e-20)
(-0.0010674216 -6.8150317e-05 2.049993e-20)
(-0.0010281219 -6.8276226e-05 7.4795803e-20)
(-0.00098914572 -6.8385211e-05 2.2399566e-20)
(-0.00095049173 -6.847872e-05 2.5343937e-20)
(-0.00091215809 -6.8558141e-05 3.3714876e-21)
(-0.00087414263 -6.8624777e-05 -3.2807358e-20)
(-0.00083644277 -6.867988e-05 -5.0004316e-20)
(-0.00079905563 -6.8724632e-05 7.9679008e-22)
(-0.00076197802 -6.8760134e-05 6.6618067e-21)
(-0.00072520646 -6.8787441e-05 -2.3085502e-20)
(-0.0006887372 -6.8807517e-05 -1.4097854e-20)
(-0.0006525663 -6.8821275e-05 1.5520505e-20)
(-0.00061668955 -6.8829564e-05 4.1333263e-22)
(-0.0005811026 -6.8833154e-05 1.4120942e-20)
(-0.00054580093 -6.8832751e-05 7.9905565e-21)
(-0.00051077985 -6.8828969e-05 -2.8646871e-21)
(-0.00047603459 -6.8822341e-05 1.9509723e-20)
(-0.00044156027 -6.8813284e-05 -2.0573778e-20)
(-0.00040735193 -6.8802049e-05 -5.8034356e-21)
(-0.00037340457 -6.878867e-05 3.1640163e-20)
(-0.00033971312 -6.8772873e-05 3.7079397e-20)
(-0.00030627243 -6.8753895e-05 2.6135072e-20)
(-0.00027307711 -6.8730279e-05 5.6244956e-21)
(-0.0002401212 -6.8699659e-05 7.2850117e-21)
(-0.0002073974 -6.8658957e-05 -2.5918825e-20)
(-0.00017489581 -6.860594e-05 -3.8030031e-21)
(-0.00014260258 -6.8544946e-05 2.5579941e-20)
(-0.00011049825 -6.8502482e-05 8.6153003e-21)
(-7.8554527e-05 -6.8558665e-05 1.6958706e-20)
(-4.6757674e-05 -6.8888786e-05 2.1667831e-20)
(-1.5398218e-05 -6.9667646e-05 3.2789284e-20)
(-7.2546061e-05 0.00054708949 -6.1907475e-19)
(-0.00016708791 0.00055283972 -4.2159943e-19)
(-0.00027328338 0.0005577215 -2.0461847e-19)
(-0.00037492433 0.0005624678 -4.3173796e-20)