/*--------------------------------*- C++ -*----------------------------------*\
| =========                 |                                                 |
| \\      /  F ield         | OpenFOAM: The Open Source CFD Toolbox           |
|  \\    /   O peration     | Version:  2106                                  |
|   \\  /    A nd           | Website:  www.openfoam.com                      |
|    \\/     M anipulation  |                                                 |
\*---------------------------------------------------------------------------*/
FoamFile
{
    version     2.0;
    format      ascii;
    arch        "LSB;label=32;scalar=64";
    class       volVectorField;
    location    "0.035";
    object      U_0;
}
// * * * * * * * * * * * * * * * * * * * * * * * * * * * * * * * * * * * * * //

dimensions      [0 1 -1 0 0 0 0];

internalField   nonuniform List<vector> 
16384
(
(5.9386938e-05 -5.9109295e-05 0)
(0.00017789989 -5.8849374e-05 0)
(0.00029563172 -5.8331314e-05 0)
(0.00041206761 -5.7558667e-05 0)
(0.00052670164 -5.6536717e-05 0)
(0.00063904016 -5.5272431e-05 0)
(0.00074860516 -5.3774401e-05 0)
(0.00085493741 -5.205276e-05 0)
(0.00095759946 -5.0119089e-05 0)
(0.0010561785 -4.7986316e-05 0)
(0.0011502888 -4.5668598e-05 0)
(0.0012395744 -4.3181195e-05 0)
(0.0013237106 -4.0540334e-05 0)
(0.0014024064 -3.7763069e-05 0)
(0.0014754054 -3.4867131e-05 0)
(0.0015424877 -3.1870779e-05 0)
(0.0016034701 -2.8792645e-05 0)
(0.0016582072 -2.5651578e-05 0)
(0.0017065914 -2.246649e-05 0)
(0.0017485529 -1.9256204e-05 0)
(0.0017840598 -1.6039301e-05 0)
(0.0018131165 -1.2833977e-05 0)
(0.0018357641 -9.6579059e-06 0)
(0.0018520778 -6.5280993e-06 0)
(0.0018621668 -3.4607833e-06 0)
(0.0018661715 -4.7126631e-07 0)
(0.0018642623 2.4261192e-06 0)
(0.0018566372 5.2179779e-06 0)
(0.0018435197 7.8924723e-06 0)
(0.0018251561 1.0438834e-05 0)
(0.0018018128 1.2847614e-05 0)
(0.0017737739 1.5110761e-05 0)
(0.0017413381 1.722165e-05 0)
(0.0017048161 1.9175112e-05 0)
(0.0016645275 2.0967441e-05 0)
(0.0016207979 2.25964e-05 0)
(0.0015739558 2.4061207e-05 0)
(0.0015243302 2.5362516e-05 0)
(0.0014722469 2.6502374e-05 0)
(0.0014180268 2.7484178e-05 0)
(0.0013619825 2.831261e-05 0)
(0.0013044158 2.8993566e-05 0)
(0.0012456159 2.9534072e-05 0)
(0.0011858568 2.994219e-05 0)
(0.0011253952 3.0226911e-05 0)
(0.0010644692 3.0398046e-05 0)
(0.0010032966 3.04661e-05 0)
(0.00094207318 3.0442147e-05 0)
(0.00088097249 3.0337697e-05 0)
(0.00082014451 3.0164555e-05 0)
(0.00075971541 2.9934683e-05 0)
(0.00069978736 2.9660054e-05 0)
(0.00064043864 2.9352516e-05 0)
(0.00058172405 2.9023644e-05 0)
(0.00052367557 2.8684608e-05 0)
(0.00046630329 2.8346039e-05 0)
(0.00040959666 2.8017903e-05 0)
(0.00035352593 2.7709381e-05 0)
(0.00029804379 2.7428761e-05 0)
(0.00024308732 2.7183342e-05 0)
(0.00018858004 2.6979341e-05 0)
(0.00013443412 2.6821827e-05 0)
(8.0552812e-05 2.6714652e-05 0)
(2.6832878e-05 2.6660412e-05 0)
(-2.6832827e-05 2.6660412e-05 0)
(-8.0552761e-05 2.6714652e-05 0)
(-0.00013443407 2.6821827e-05 0)
(-0.00018857999 2.6979342e-05 0)
(-0.00024308727 2.7183342e-05 0)
(-0.00029804374 2.7428761e-05 0)
(-0.00035352588 2.7709381e-05 0)
(-0.00040959662 2.8017903e-05 0)
(-0.00046630324 2.834604e-05 0)
(-0.00052367552 2.8684609e-05 0)
(-0.00058172401 2.9023645e-05 0)
(-0.0006404386 2.9352517e-05 0)
(-0.00069978731 2.9660055e-05 0)
(-0.00075971537 2.9934684e-05 0)
(-0.00082014447 3.0164556e-05 0)
(-0.00088097245 3.0337698e-05 0)
(-0.00094207314 3.0442148e-05 0)
(-0.0010032965 3.0466101e-05 0)
(-0.0010644692 3.0398047e-05 0)
(-0.0011253952 3.0226912e-05 0)
(-0.0011858567 2.9942191e-05 0)
(-0.0012456159 2.9534073e-05 0)
(-0.0013044158 2.8993567e-05 0)
(-0.0013619824 2.8312611e-05 0)
(-0.0014180268 2.7484179e-05 0)
(-0.0014722469 2.6502375e-05 0)
(-0.0015243301 2.5362517e-05 0)
(-0.0015739558 2.4061209e-05 0)
(-0.0016207979 2.2596401e-05 0)
(-0.0016645275 2.0967442e-05 0)
(-0.0017048161 1.9175113e-05 0)
(-0.0017413381 1.7221652e-05 0)
(-0.0017737739 1.5110762e-05 0)
(-0.0018018128 1.2847615e-05 0)
(-0.0018251561 1.0438835e-05 0)
(-0.0018435197 7.8924735e-06 0)
(-0.0018566372 5.2179791e-06 0)
(-0.0018642623 2.4261204e-06 0)
(-0.0018661715 -4.7126514e-07 0)
(-0.0018621668 -3.4607821e-06 0)
(-0.0018520779 -6.5280982e-06 0)
(-0.0018357641 -9.6579048e-06 0)
(-0.0018131166 -1.2833976e-05 0)
(-0.0017840598 -1.60393e-05 0)
(-0.001748553 -1.9256203e-05 0)
(-0.0017065914 -2.2466489e-05 0)
(-0.0016582072 -2.5651577e-05 0)
(-0.0016034701 -2.8792644e-05 0)
(-0.0015424877 -3.1870778e-05 0)
(-0.0014754054 -3.486713e-05 0)
(-0.0014024064 -3.7763068e-05 0)
(-0.0013237106 -4.0540334e-05 0)
(-0.0012395744 -4.3181195e-05 0)
(-0.0011502889 -4.5668598e-05 0)
(-0.0010561785 -4.7986315e-05 0)
(-0.00095759951 -5.0119088e-05 0)
(-0.00085493745 -5.2052759e-05 0)
(-0.00074860521 -5.3774401e-05 0)
(-0.00063904021 -5.5272431e-05 0)
(-0.00052670169 -5.6536716e-05 0)
(-0.00041206766 -5.7558667e-05 0)
(-0.00029563177 -5.8331314e-05 0)
(-0.00017789994 -5.8849373e-05 0)
(-5.9386988e-05 -5.9109295e-05 0)
(6.0723471e-05 -0.00017827675 0)
(0.00018190557 -0.00017749411 0)
(0.00030229478 -0.00017593419 0)
(0.00042136852 -0.00017360767 0)
(0.00053861317 -0.00017053043 0)
(0.0006535275 -0.00016672344 0)
(0.00076562605 -0.00016221254 0)
(0.00087444236 -0.00015702819 0)
(0.00097953193 -0.00015120523 0)
(0.0010804751 -0.00014478254 0)
(0.0011768797 -0.0001378027 0)
(0.0012683834 -0.00013031159 0)
(0.0013546555 -0.00012235802 0)
(0.0014353994 -0.00011399328 0)
(0.0015103536 -0.0001052707 0)
(0.0015792929 -9.6245198e-05 0)
(0.0016420298 -8.6972804e-05 0)
(0.0016984145 -7.7510215e-05 0)
(0.0017483356 -6.7914315e-05 0)
(0.0017917201 -5.824172e-05 0)
(0.0018285327 -4.8548328e-05 0)
(0.0018587755 -3.8888879e-05 0)
(0.0018824871 -2.9316542e-05 0)
(0.001899741 -1.9882508e-05 0)
(0.0019106449 -1.0635618e-05 0)
(0.0019153383 -1.6220118e-06 0)
(0.0019139904 7.1152071e-06 0)
(0.0019067993 1.5536216e-05 0)
(0.0018939888 2.3604817e-05 0)
(0.0018758054 3.128859e-05 0)
(0.0018525162 3.855912e-05 0)
(0.0018244066 4.5392153e-05 0)
(0.0017917767 5.1767713e-05 0)
(0.001754939 5.7670179e-05 0)
(0.0017142152 6.3088336e-05 0)
(0.0016699333 6.8015374e-05 0)
(0.0016224246 7.2448861e-05 0)
(0.0015720207 7.6390672e-05 0)
(0.0015190509 7.9846878e-05 0)
(0.0014638392 8.2827601e-05 0)
(0.0014067018 8.5346831e-05 0)
(0.0013479445 8.7422207e-05 0)
(0.0012878601 8.9074767e-05 0)
(0.0012267267 9.0328661e-05 0)
(0.0011648053 9.1210841e-05 0)
(0.0011023381 9.1750719e-05 0)
(0.0010395471 9.1979805e-05 0)
(0.00097663265 9.1931319e-05 0)
(0.00091377253 9.1639792e-05 0)
(0.00085112115 9.1140652e-05 0)
(0.00078880909 9.0469798e-05 0)
(0.00072694291 8.9663173e-05 0)
(0.00066560525 8.8756339e-05 0)
(0.00060485523 8.7784051e-05 0)
(0.0005447291 8.6779847e-05 0)
(0.0004852412 8.5775648e-05 0)
(0.00042638517 8.4801379e-05 0)
(0.00036813537 8.3884612e-05 0)
(0.00031044858 8.3050242e-05 0)
(0.00025326591 8.2320184e-05 0)
(0.00019651485 8.1713116e-05 0)
(0.00014011155 8.1244256e-05 0)
(8.3963144e-05 8.092518e-05 0)
(2.7970301e-05 8.0763681e-05 0)
(-2.797025e-05 8.0763681e-05 0)
(-8.3963094e-05 8.092518e-05 0)
(-0.0001401115 8.1244256e-05 0)
(-0.0001965148 8.1713116e-05 0)
(-0.00025326586 8.2320184e-05 0)
(-0.00031044853 8.3050243e-05 0)
(-0.00036813532 8.3884614e-05 0)
(-0.00042638512 8.480138e-05 0)
(-0.00048524116 8.5775649e-05 0)
(-0.00054472905 8.6779849e-05 0)
(-0.00060485519 8.7784053e-05 0)
(-0.00066560521 8.8756341e-05 0)
(-0.00072694287 8.9663175e-05 0)
(-0.00078880905 9.04698e-05 0)
(-0.00085112111 9.1140654e-05 0)
(-0.00091377249 9.1639795e-05 0)
(-0.00097663261 9.1931321e-05 0)
(-0.0010395471 9.1979807e-05 0)
(-0.0011023381 9.1750722e-05 0)
(-0.0011648053 9.1210843e-05 0)
(-0.0012267267 9.0328664e-05 0)
(-0.0012878601 8.907477e-05 0)
(-0.0013479445 8.742221e-05 0)
(-0.0014067018 8.5346834e-05 0)
(-0.0014638392 8.2827604e-05 0)
(-0.0015190508 7.9846881e-05 0)
(-0.0015720206 7.6390675e-05 0)
(-0.0016224245 7.2448864e-05 0)
(-0.0016699333 6.8015377e-05 0)
(-0.0017142152 6.3088339e-05 0)
(-0.001754939 5.7670183e-05 0)
(-0.0017917767 5.1767716e-05 0)
(-0.0018244066 4.5392157e-05 0)
(-0.0018525162 3.8559124e-05 0)
(-0.0018758054 3.1288594e-05 0)
(-0.0018939888 2.3604821e-05 0)
(-0.0019067993 1.553622e-05 0)
(-0.0019139904 7.1152107e-06 0)
(-0.0019153383 -1.6220083e-06 0)
(-0.001910645 -1.0635614e-05 0)
(-0.0018997411 -1.9882504e-05 0)
(-0.0018824871 -2.9316538e-05 0)
(-0.0018587755 -3.8888876e-05 0)
(-0.0018285327 -4.8548325e-05 0)
(-0.0017917201 -5.8241717e-05 0)
(-0.0017483357 -6.7914312e-05 0)
(-0.0016984145 -7.7510212e-05 0)
(-0.0016420298 -8.6972801e-05 0)
(-0.001579293 -9.6245195e-05 0)
(-0.0015103536 -0.0001052707 0)
(-0.0014353995 -0.00011399328 0)
(-0.0013546556 -0.00012235802 0)
(-0.0012683834 -0.00013031159 0)
(-0.0011768798 -0.0001378027 0)
(-0.0010804752 -0.00014478254 0)
(-0.00097953198 -0.00015120523 0)
(-0.00087444241 -0.00015702819 0)
(-0.0007656261 -0.00016221254 0)
(-0.00065352754 -0.00016672344 0)
(-0.00053861322 -0.00017053043 0)
(-0.00042136857 -0.00017360766 0)
(-0.00030229483 -0.00017593419 0)
(-0.00018190562 -0.00017749411 0)
(-6.0723521e-05 -0.00017827675 0)
(6.3225048e-05 -0.00030148614 0)
(0.00018940343 -0.00030016928 0)
(0.00031476836 -0.00029754456 0)
(0.00043878362 -0.00029362986 0)
(0.00056092208 -0.00028845183 0)
(0.00068066919 -0.00028204559 0)
(0.0007975264 -0.00027445446 0)
(0.00091101441 -0.0002657295 0)
(0.0010206762 -0.00025592911 0)
(0.00112608 -0.00024511846 0)
(0.0012268218 -0.00023336892 0)
(0.0013225279 -0.00022075742 0)
(0.001412857 -0.00020736577 0)
(0.0014975018 -0.00019327996 0)
(0.0015761911 -0.00017858939 0)
(0.0016486905 -0.00016338614 0)
(0.0017148036 -0.00014776417 0)
(0.0017743727 -0.00013181855 0)
(0.0018272787 -0.00011564469 0)
(0.0018734418 -9.9337528e-05 0)
(0.0019128204 -8.2990856e-05 0)
(0.001945411 -6.6696518e-05 0)
(0.0019712471 -5.0543746e-05 0)
(0.0019903982 -3.4618479e-05 0)
(0.0020029681 -1.9002742e-05 0)
(0.0020090933 -3.7740752e-06 0)
(0.002008941 1.0995068e-05 0)
(0.0020027074 2.5238023e-05 0)
(0.0019906152 3.8893553e-05 0)
(0.0019729106 5.1907063e-05 0)
(0.0019498611 6.4230661e-05 0)
(0.0019217528 7.5823386e-05 0)
(0.0018888876 8.6651413e-05 0)
(0.0018515801 9.6688198e-05 0)
(0.0018101546 0.00010591455 0)
(0.0017649425 0.00011431865 0)
(0.0017162789 0.000121896 0)
(0.0016644999 0.00012864931 0)
(0.0016099397 0.00013458829 0)
(0.0015529277 0.00013972946 0)
(0.0014937857 0.0001440958 0)
(0.001432826 0.00014771639 0)
(0.0013703479 0.00015062605 0)
(0.0013066366 0.00015286477 0)
(0.0012419603 0.00015447728 0)
(0.0011765688 0.00015551241 0)
(0.0011106921 0.00015602255 0)
(0.0010445385 0.00015606294 0)
(0.00097829408 0.00015569105 0)
(0.00091212171 0.00015496587 0)
(0.00084616052 0.00015394719 0)
(0.00078052575 0.00015269491 0)
(0.00071530878 0.0001512683 0)
(0.00065057754 0.0001497253 0)
(0.00058637715 0.00014812184 0)
(0.00052273082 0.00014651117 0)
(0.00045964109 0.0001449432 0)
(0.0003970912 0.00014346395 0)
(0.00033504683 0.00014211495 0)
(0.00027345797 0.00014093278 0)
(0.00021226098 0.00013994861 0)
(0.00015138084 0.00013918786 0)
(9.0733539e-05 0.00013866983 0)
(3.0228569e-05 0.00013840754 0)
(-3.0228519e-05 0.00013840754 0)
(-9.0733489e-05 0.00013866983 0)
(-0.00015138079 0.00013918786 0)
(-0.00021226093 0.00013994862 0)
(-0.00027345792 0.00014093278 0)
(-0.00033504678 0.00014211495 0)
(-0.00039709115 0.00014346395 0)
(-0.00045964104 0.0001449432 0)
(-0.00052273078 0.00014651117 0)
(-0.0005863771 0.00014812184 0)
(-0.00065057749 0.0001497253 0)
(-0.00071530873 0.0001512683 0)
(-0.00078052571 0.00015269491 0)
(-0.00084616048 0.0001539472 0)
(-0.00091212167 0.00015496587 0)
(-0.00097829404 0.00015569105 0)
(-0.0010445384 0.00015606294 0)
(-0.001110692 0.00015602255 0)
(-0.0011765688 0.00015551242 0)
(-0.0012419602 0.00015447728 0)
(-0.0013066366 0.00015286478 0)
(-0.0013703479 0.00015062605 0)
(-0.0014328259 0.0001477164 0)
(-0.0014937857 0.0001440958 0)
(-0.0015529276 0.00013972947 0)
(-0.0016099397 0.0001345883 0)
(-0.0016644999 0.00012864931 0)
(-0.0017162789 0.00012189601 0)
(-0.0017649425 0.00011431866 0)
(-0.0018101546 0.00010591456 0)
(-0.0018515801 9.6688204e-05 0)
(-0.0018888876 8.6651419e-05 0)
(-0.0019217528 7.5823392e-05 0)
(-0.0019498611 6.4230667e-05 0)
(-0.0019729106 5.1907069e-05 0)
(-0.0019906152 3.8893559e-05 0)
(-0.0020027074 2.5238029e-05 0)
(-0.002008941 1.0995074e-05 0)
(-0.0020090933 -3.7740693e-06 0)
(-0.0020029681 -1.9002736e-05 0)
(-0.0019903983 -3.4618473e-05 0)
(-0.0019712472 -5.054374e-05 0)
(-0.001945411 -6.6696513e-05 0)
(-0.0019128204 -8.299085e-05 0)
(-0.0018734418 -9.9337523e-05 0)
(-0.0018272788 -0.00011564468 0)
(-0.0017743727 -0.00013181855 0)
(-0.0017148036 -0.00014776417 0)
(-0.0016486905 -0.00016338614 0)
(-0.0015761911 -0.00017858939 0)
(-0.0014975018 -0.00019327995 0)
(-0.001412857 -0.00020736577 0)
(-0.001322528 -0.00022075742 0)
(-0.0012268218 -0.00023336892 0)
(-0.00112608 -0.00024511846 0)
(-0.0010206763 -0.00025592911 0)
(-0.00091101445 -0.0002657295 0)
(-0.00079752645 -0.00027445445 0)
(-0.00068066924 -0.00028204559 0)
(-0.00056092213 -0.00028845183 0)
(-0.00043878367 -0.00029362986 0)
(-0.00031476841 -0.00029754456 0)
(-0.00018940348 -0.00030016928 0)
(-6.3225098e-05 -0.00030148614 0)
(6.6867335e-05 -0.0004308537 0)
(0.00020032054 -0.00042898596 0)
(0.00033293107 -0.00042526315 0)
(0.00046414334 -0.00041971052 0)
(0.00059341102 -0.00041236561 0)
(0.0007202006 -0.00040327798 0)
(0.00084399487 -0.00039250868 0)
(0.00096429622 -0.00038012974 0)
(0.0010806298 -0.00036622351 0)
(0.0011925463 -0.00035088189 0)
(0.001299625 -0.00033420552 0)
(0.0014014759 -0.00031630292 0)
(0.0014977419 -0.00029728947 0)
(0.0015881009 -0.00027728646 0)
(0.0016722672 -0.00025642 0)
(0.0017499931 -0.00023482 0)
(0.0018210693 -0.00021261903 0)
(0.001885326 -0.00018995124 0)
(0.0019426334 -0.00016695129 0)
(0.0019929009 -0.00014375324 0)
(0.0020360779 -0.00012048949 0)
(0.0020721522 -9.7289777e-05 0)
(0.0021011498 -7.4280177e-05 0)
(0.0021231333 -5.1582163e-05 0)
(0.0021382008 -2.9311722e-05 0)
(0.0021464839 -7.5785235e-06 0)
(0.0021481461 1.3514856e-05 0)
(0.0021433804 3.3873444e-05 0)
(0.0021324073 5.3410835e-05 0)
(0.002115472 7.2049444e-05 0)
(0.0020928419 8.9721064e-05 0)
(0.0020648038 0.00010636723 0)
(0.0020316611 0.0001219395 0)
(0.001993731 0.00013639966 0)
(0.0019513411 0.00014971982 0)
(0.001904827 0.00016188244 0)
(0.001854529 0.0001728803 0)
(0.001800789 0.00018271625 0)
(0.0017439477 0.00019140307 0)
(0.001684342 0.00019896305 0)
(0.0016223019 0.00020542761 0)
(0.0015581481 0.00021083678 0)
(0.0014921896 0.00021523863 0)
(0.0014247211 0.00021868859 0)
(0.0013560216 0.00022124872 0)
(0.0012863518 0.00022298696 0)
(0.0012159527 0.0002239762 0)
(0.0011450448 0.00022429345 0)
(0.001073826 0.00022401886 0)
(0.0010024717 0.00022323476 0)
(0.00093113353 0.00022202468 0)
(0.0008599397 0.00022047229 0)
(0.00078899464 0.00021866048 0)
(0.00071837947 0.00021667028 0)
(0.00064815262 0.00021457994 0)
(0.00057835074 0.00021246398 0)
(0.00050898982 0.00021039228 0)
(0.00044006667 0.00020842927 0)
(0.00037156054 0.00020663311 0)
(0.000303435 0.00020505505 0)
(0.00023564002 0.00020373876 0)
(0.00016811421 0.00020271982 0)
(0.00010078719 0.00020202532 0)
(3.3582056e-05 0.00020167348 0)
(-3.3582005e-05 0.00020167349 0)
(-0.00010078714 0.00020202532 0)
(-0.00016811416 0.00020271983 0)
(-0.00023563997 0.00020373876 0)
(-0.00030343495 0.00020505505 0)
(-0.00037156049 0.00020663311 0)
(-0.00044006662 0.00020842927 0)
(-0.00050898977 0.00021039228 0)
(-0.00057835069 0.00021246398 0)
(-0.00064815258 0.00021457994 0)
(-0.00071837942 0.00021667028 0)
(-0.00078899459 0.00021866048 0)
(-0.00085993966 0.0002204723 0)
(-0.00093113349 0.00022202468 0)
(-0.0010024716 0.00022323477 0)
(-0.001073826 0.00022401886 0)
(-0.0011450448 0.00022429345 0)
(-0.0012159527 0.0002239762 0)
(-0.0012863517 0.00022298696 0)
(-0.0013560216 0.00022124873 0)
(-0.0014247211 0.00021868859 0)
(-0.0014921895 0.00021523864 0)
(-0.0015581481 0.00021083679 0)
(-0.0016223019 0.00020542761 0)
(-0.001684342 0.00019896306 0)
(-0.0017439477 0.00019140308 0)
(-0.001800789 0.00018271626 0)
(-0.001854529 0.0001728803 0)
(-0.001904827 0.00016188245 0)
(-0.0019513411 0.00014971982 0)
(-0.001993731 0.00013639967 0)
(-0.0020316611 0.00012193951 0)
(-0.0020648038 0.00010636724 0)
(-0.0020928419 8.9721073e-05 0)
(-0.002115472 7.2049453e-05 0)
(-0.0021324073 5.3410844e-05 0)
(-0.0021433804 3.3873453e-05 0)
(-0.0021481461 1.3514865e-05 0)
(-0.0021464839 -7.5785152e-06 0)
(-0.0021382008 -2.9311714e-05 0)
(-0.0021231333 -5.1582155e-05 0)
(-0.0021011498 -7.4280169e-05 0)
(-0.0020721522 -9.7289769e-05 0)
(-0.0020360779 -0.00012048948 0)
(-0.001992901 -0.00014375323 0)
(-0.0019426334 -0.00016695129 0)
(-0.0018853261 -0.00018995123 0)
(-0.0018210693 -0.00021261902 0)
(-0.0017499931 -0.00023481999 0)
(-0.0016722673 -0.00025642 0)
(-0.0015881009 -0.00027728645 0)
(-0.0014977419 -0.00029728947 0)
(-0.0014014759 -0.00031630292 0)
(-0.0012996251 -0.00033420552 0)
(-0.0011925464 -0.00035088188 0)
(-0.0010806298 -0.00036622351 0)
(-0.00096429627 -0.00038012974 0)
(-0.00084399492 -0.00039250868 0)
(-0.00072020065 -0.00040327798 0)
(-0.00059341107 -0.00041236561 0)
(-0.00046414339 -0.00041971052 0)
(-0.00033293112 -0.00042526315 0)
(-0.00020032059 -0.00042898596 0)
(-6.6867385e-05 -0.0004308537 0)
(7.1643723e-05 -0.00056862275 0)
(0.00021463708 -0.00056618181 0)
(0.00035674993 -0.00056131636 0)
(0.00049740162 -0.00055405914 0)
(0.00063602095 -0.00054445885 0)
(0.00077204985 -0.00053257974 0)
(0.00090494691 -0.00051850102 0)
(0.0010341908 -0.00050231609 0)
(0.0011592834 -0.00048413175 0)
(0.0012797529 -0.00046406722 0)
(0.0013951565 -0.00044225306 0)
(0.001505083 -0.00041883 0)
(0.0016091549 -0.00039394775 0)
(0.0017070306 -0.00036776367 0)
(0.0017984056 -0.00034044142 0)
(0.0018830144 -0.00031214956 0)
(0.0019606311 -0.00028306018 0)
(0.00203107 -0.00025334746 0)
(0.0020941864 -0.00022318623 0)
(0.0021498765 -0.00019275062 0)
(0.0021980768 -0.00016221268 0)
(0.0022387638 -0.00013174104 0)
(0.0022719532 -0.00010149964 0)
(0.0022976985 -7.1646534e-05 0)
(0.00231609 -4.2332738e-05 0)
(0.0023272526 -1.3701146e-05 0)
(0.0023313439 1.4114445e-05 0)
(0.0023285528 4.099009e-05 0)
(0.0023190969 6.6812719e-05 0)
(0.0023032193 9.148075e-05 0)
(0.0022811867 0.00011490464 0)
(0.0022532863 0.00013700736 0)
(0.0022198233 0.00015772484 0)
(0.0021811177 0.00017700615 0)
(0.0021375012 0.00019481372 0)
(0.0020893146 0.00021112331 0)
(0.0020369044 0.000225924 0)
(0.0019806197 0.00023921791 0)
(0.0019208098 0.00025101996 0)
(0.0018578207 0.00026135739 0)
(0.0017919929 0.00027026926 0)
(0.0017236583 0.00027780579 0)
(0.0016531378 0.00028402761 0)
(0.0015807392 0.00028900491 0)
(0.0015067548 0.00029281652 0)
(0.0014314596 0.00029554887 0)
(0.0013551096 0.00029729491 0)
(0.0012779406 0.00029815294 0)
(0.0012001664 0.00029822543 0)
(0.0011219788 0.00029761768 0)
(0.0010435461 0.00029643665 0)
(0.00096501367 0.00029478957 0)
(0.00088650314 0.00029278269 0)
(0.00080811324 0.00029051998 0)
(0.00072992018 0.00028810186 0)
(0.0006519785 0.000285624 0)
(0.00057432226 0.00028317618 0)
(0.0004969664 0.00028084116 0)
(0.00041990837 0.00027869369 0)
(0.00034313002 0.00027679965 0)
(0.00026659963 0.00027521518 0)
(0.00019027414 0.00027398604 0)
(0.00011410151 0.00027314704 0)
(3.8023227e-05 0.00027272165 0)
(-3.8023176e-05 0.00027272165 0)
(-0.00011410146 0.00027314704 0)
(-0.00019027409 0.00027398604 0)
(-0.00026659958 0.00027521518 0)
(-0.00034312997 0.00027679965 0)
(-0.00041990832 0.0002786937 0)
(-0.00049696635 0.00028084116 0)
(-0.00057432222 0.00028317618 0)
(-0.00065197846 0.00028562401 0)
(-0.00072992013 0.00028810186 0)
(-0.0008081132 0.00029051998 0)
(-0.00088650309 0.0002927827 0)
(-0.00096501363 0.00029478958 0)
(-0.0010435461 0.00029643666 0)
(-0.0011219787 0.00029761769 0)
(-0.0012001664 0.00029822543 0)
(-0.0012779405 0.00029815295 0)
(-0.0013551096 0.00029729491 0)
(-0.0014314595 0.00029554887 0)
(-0.0015067547 0.00029281653 0)
(-0.0015807391 0.00028900492 0)
(-0.0016531378 0.00028402762 0)
(-0.0017236583 0.0002778058 0)
(-0.0017919929 0.00027026927 0)
(-0.0018578207 0.0002613574 0)
(-0.0019208097 0.00025101997 0)
(-0.0019806197 0.00023921792 0)
(-0.0020369043 0.00022592401 0)
(-0.0020893146 0.00021112332 0)
(-0.0021375012 0.00019481373 0)
(-0.0021811177 0.00017700616 0)
(-0.0022198233 0.00015772485 0)
(-0.0022532863 0.00013700737 0)
(-0.0022811867 0.00011490465 0)
(-0.0023032193 9.1480761e-05 0)
(-0.0023190969 6.681273e-05 0)
(-0.0023285528 4.0990101e-05 0)
(-0.0023313439 1.4114456e-05 0)
(-0.0023272526 -1.3701135e-05 0)
(-0.00231609 -4.2332727e-05 0)
(-0.0022976986 -7.1646523e-05 0)
(-0.0022719532 -0.00010149963 0)
(-0.0022387638 -0.00013174103 0)
(-0.0021980768 -0.00016221267 0)
(-0.0021498765 -0.00019275061 0)
(-0.0020941865 -0.00022318622 0)
(-0.00203107 -0.00025334745 0)
(-0.0019606311 -0.00028306017 0)
(-0.0018830145 -0.00031214955 0)
(-0.0017984057 -0.00034044141 0)
(-0.0017070306 -0.00036776366 0)
(-0.001609155 -0.00039394775 0)
(-0.001505083 -0.00041882999 0)
(-0.0013951565 -0.00044225305 0)
(-0.0012797529 -0.00046406722 0)
(-0.0011592834 -0.00048413175 0)
(-0.0010341908 -0.00050231608 0)
(-0.00090494696 -0.00051850101 0)
(-0.0007720499 -0.00053257974 0)
(-0.000636021 -0.00054445885 0)
(-0.00049740167 -0.00055405914 0)
(-0.00035674998 -0.00056131636 0)
(-0.00021463713 -0.00056618181 0)
(-7.1643773e-05 -0.00056862275 0)
(7.7565398e-05 -0.00071707057 0)
(0.00023238658 -0.00071402834 0)
(0.00038628076 -0.00070796416 0)
(0.00053863643 -0.00069891846 0)
(0.00068885181 -0.00068695136 0)
(0.00083633862 -0.0006721422 0)
(0.00098052567 -0.00065458876 0)
(0.0011208624 -0.00063440639 0)
(0.0012568221 -0.00061172696 0)
(0.0013879051 -0.00058669768 0)
(0.0015136415 -0.00055947978 0)
(0.0016335939 -0.0005302471 0)
(0.0017473597 -0.00049918454 0)
(0.0018545728 -0.00046648648 0)
(0.0019549058 -0.00043235512 0)
(0.002048071 -0.00039699878 0)
(0.0021338216 -0.00036063014 0)
(0.0022119526 -0.00032346451 0)
(0.0022823007 -0.00028571812 0)
(0.002344745 -0.00024760636 0)
(0.0023992064 -0.00020934215 0)
(0.0024456471 -0.00017113427 0)
(0.0024840697 -0.00013318583 0)
(0.0025145165 -9.5692754e-05 0)
(0.0025370672 -5.8842398e-05 0)
(0.0025518385 -2.2812217e-05 0)
(0.0025589807 1.2231539e-05 0)
(0.002558677 4.6134375e-05 0)
(0.0025511406 7.8755475e-05 0)
(0.0025366122 0.00010996777 0)
(0.0025153571 0.00013965902 0)
(0.002487663 0.00016773235 0)
(0.0024538367 0.00019410669 0)
(0.0024142013 0.00021871712 0)
(0.0023690935 0.00024151509 0)
(0.0023188598 0.00026246841 0)
(0.0022638544 0.00028156123 0)
(0.0022044352 0.00029879375 0)
(0.0021409615 0.00031418189 0)
(0.0020737909 0.00032775675 0)
(0.0020032762 0.00033956397 0)
(0.0019297632 0.00034966297 0)
(0.0018535876 0.00035812601 0)
(0.001775073 0.00036503717 0)
(0.0016945285 0.00037049125 0)
(0.0016122466 0.00037459246 0)
(0.0015285019 0.00037745312 0)
(0.001443549 0.00037919223 0)
(0.0013576219 0.000379934 0)
(0.0012709324 0.00037980629 0)
(0.0011836699 0.00037893903 0)
(0.0010960009 0.00037746267 0)
(0.0010080687 0.00037550653 0)
(0.00091999413 0.00037319724 0)
(0.00083187555 0.00037065719 0)
(0.00074379001 0.00036800307 0)
(0.00065579418 0.00036534436 0)
(0.00056792581 0.00036278208 0)
(0.00048020522 0.0003604075 0)
(0.00039263725 0.00035830104 0)
(0.00030521321 0.00035653127 0)
(0.00021791312 0.00035515412 0)
(0.00013070804 0.0003542121 0)
(4.3562594e-05 0.00035373389 0)
(-4.3562543e-05 0.00035373389 0)
(-0.00013070799 0.00035421211 0)
(-0.00021791307 0.00035515412 0)
(-0.00030521316 0.00035653128 0)
(-0.0003926372 0.00035830104 0)
(-0.00048020517 0.0003604075 0)
(-0.00056792576 0.00036278209 0)
(-0.00065579414 0.00036534437 0)
(-0.00074378996 0.00036800307 0)
(-0.0008318755 0.0003706572 0)
(-0.00091999408 0.00037319724 0)
(-0.0010080687 0.00037550653 0)
(-0.0010960008 0.00037746268 0)
(-0.0011836699 0.00037893904 0)
(-0.0012709324 0.00037980629 0)
(-0.0013576219 0.00037993401 0)
(-0.001443549 0.00037919224 0)
(-0.0015285018 0.00037745313 0)
(-0.0016122466 0.00037459247 0)
(-0.0016945284 0.00037049126 0)
(-0.001775073 0.00036503718 0)
(-0.0018535876 0.00035812602 0)
(-0.0019297632 0.00034966298 0)
(-0.0020032762 0.00033956398 0)
(-0.0020737908 0.00032775676 0)
(-0.0021409615 0.00031418191 0)
(-0.0022044351 0.00029879377 0)
(-0.0022638544 0.00028156124 0)
(-0.0023188598 0.00026246842 0)
(-0.0023690935 0.0002415151 0)
(-0.0024142013 0.00021871713 0)
(-0.0024538367 0.0001941067 0)
(-0.002487663 0.00016773236 0)
(-0.0025153571 0.00013965903 0)
(-0.0025366122 0.00010996778 0)
(-0.0025511406 7.8755489e-05 0)
(-0.002558677 4.6134388e-05 0)
(-0.0025589807 1.2231552e-05 0)
(-0.0025518385 -2.2812204e-05 0)
(-0.0025370673 -5.8842385e-05 0)
(-0.0025145165 -9.5692741e-05 0)
(-0.0024840698 -0.00013318582 0)
(-0.0024456471 -0.00017113426 0)
(-0.0023992064 -0.00020934214 0)
(-0.002344745 -0.00024760635 0)
(-0.0022823007 -0.00028571811 0)
(-0.0022119526 -0.0003234645 0)
(-0.0021338217 -0.00036063013 0)
(-0.002048071 -0.00039699877 0)
(-0.0019549058 -0.00043235511 0)
(-0.0018545728 -0.00046648647 0)
(-0.0017473597 -0.00049918453 0)
(-0.0016335939 -0.00053024709 0)
(-0.0015136415 -0.00055947978 0)
(-0.0013879051 -0.00058669767 0)
(-0.0012568221 -0.00061172695 0)
(-0.0011208624 -0.00063440639 0)
(-0.00098052572 -0.00065458876 0)
(-0.00083633867 -0.0006721422 0)
(-0.00068885186 -0.00068695136 0)
(-0.00053863648 -0.00069891846 0)
(-0.00038628081 -0.00070796416 0)
(-0.00023238663 -0.00071402834 0)
(-7.7565448e-05 -0.00071707057 0)
(8.4661395e-05 -0.00087850871 0)
(0.00025365609 -0.00087483125 0)
(0.00042166839 -0.0008675006 0)
(0.00058805008 -0.00085656506 0)
(0.00075216295 -0.00084209654 0)
(0.0009133827 -0.00082418988 0)
(0.0010711027 -0.00080296198 0)
(0.0012247374 -0.00077855078 0)
(0.0013737262 -0.00075111394 0)
(0.001517536 -0.00072082752 0)
(0.0016556648 -0.00068788432 0)
(0.0017876437 -0.00065249226 0)
(0.00191304 -0.00061487249 0)
(0.0020314586 -0.00057525758 0)
(0.0021425444 -0.00053388946 0)
(0.0022459833 -0.00049101743 0)
(0.0023415034 -0.00044689608 0)
(0.0024288762 -0.00040178325 0)
(0.0025079163 -0.0003559379 0)
(0.0025784822 -0.00030961817 0)
(0.0026404759 -0.00026307929 0)
(0.0026938422 -0.00021657172 0)
(0.002738568 -0.00017033924 0)
(0.0027746814 -0.00012461722 0)
(0.0028022501 -7.9630967e-05 0)
(0.00282138 -3.5594146e-05 0)
(0.0028322123 7.2925068e-06 0)
(0.0028349233 4.8844078e-05 0)
(0.0028297211 8.8888555e-05 0)
(0.0028168426 0.00012727222 0)
(0.0027965514 0.00016385861 0)
(0.0027691351 0.00019852933 0)
(0.0027349025 0.00023118474 0)
(0.0026941802 0.00026174431 0)
(0.0026473101 0.00029014693 0)
(0.0025946459 0.00031635092 0)
(0.0025365503 0.00034033399 0)
(0.0024733917 0.00036209295 0)
(0.0024055413 0.0003816433 0)
(0.0023333701 0.00039901863 0)
(0.002257246 0.00041426989 0)
(0.0021775309 0.00042746443 0)
(0.0020945782 0.00043868501 0)
(0.0020087304 0.00044802853 0)
(0.0019203166 0.00045560471 0)
(0.0018296506 0.00046153464 0)
(0.0017370288 0.00046594916 0)
(0.0016427291 0.00046898723 0)
(0.0015470089 0.0004707941 0)
(0.0014501048 0.00047151957 0)
(0.0013522311 0.00047131607 0)
(0.00125358 0.00047033676 0)
(0.001154321 0.00046873365 0)
(0.0010546014 0.00046665571 0)
(0.00095454638 0.00046424705 0)
(0.00085426021 0.00046164508 0)
(0.00075382691 0.00045897889 0)
(0.00065331173 0.00045636756 0)
(0.00055276272 0.00045391876 0)
(0.00045221248 0.00045172741 0)
(0.00035168022 0.00044987445 0)
(0.00025117389 0.00044842587 0)
(0.00015069253 0.00044743193 0)
(5.022876e-05 0.00044692644 0)
(-5.022871e-05 0.00044692644 0)
(-0.00015069248 0.00044743193 0)
(-0.00025117384 0.00044842588 0)
(-0.00035168017 0.00044987445 0)
(-0.00045221244 0.00045172741 0)
(-0.00055276267 0.00045391877 0)
(-0.00065331168 0.00045636756 0)
(-0.00075382686 0.00045897889 0)
(-0.00085426016 0.00046164509 0)
(-0.00095454633 0.00046424706 0)
(-0.0010546013 0.00046665572 0)
(-0.0011543209 0.00046873365 0)
(-0.0012535799 0.00047033677 0)
(-0.001352231 0.00047131608 0)
(-0.0014501047 0.00047151958 0)
(-0.0015470089 0.00047079411 0)
(-0.001642729 0.00046898724 0)
(-0.0017370288 0.00046594918 0)
(-0.0018296506 0.00046153465 0)
(-0.0019203166 0.00045560473 0)
(-0.0020087304 0.00044802854 0)
(-0.0020945782 0.00043868502 0)
(-0.0021775308 0.00042746444 0)
(-0.002257246 0.0004142699 0)
(-0.0023333701 0.00039901865 0)
(-0.0024055413 0.00038164332 0)
(-0.0024733917 0.00036209297 0)
(-0.0025365503 0.00034033401 0)
(-0.0025946459 0.00031635094 0)
(-0.0026473101 0.00029014695 0)
(-0.0026941802 0.00026174433 0)
(-0.0027349025 0.00023118475 0)
(-0.0027691351 0.00019852935 0)
(-0.0027965514 0.00016385862 0)
(-0.0028168426 0.00012727224 0)
(-0.0028297211 8.8888571e-05 0)
(-0.0028349233 4.8844093e-05 0)
(-0.0028322123 7.2925223e-06 0)
(-0.00282138 -3.5594131e-05 0)
(-0.0028022501 -7.9630952e-05 0)
(-0.0027746814 -0.00012461721 0)
(-0.002738568 -0.00017033922 0)
(-0.0026938422 -0.0002165717 0)
(-0.0026404759 -0.00026307928 0)
(-0.0025784823 -0.00030961816 0)
(-0.0025079163 -0.00035593789 0)
(-0.0024288762 -0.00040178323 0)
(-0.0023415035 -0.00044689607 0)
(-0.0022459833 -0.00049101742 0)
(-0.0021425444 -0.00053388945 0)
(-0.0020314587 -0.00057525757 0)
(-0.00191304 -0.00061487248 0)
(-0.0017876438 -0.00065249225 0)
(-0.0016556648 -0.00068788432 0)
(-0.0015175361 -0.00072082751 0)
(-0.0013737262 -0.00075111394 0)
(-0.0012247375 -0.00077855077 0)
(-0.0010711027 -0.00080296198 0)
(-0.00091338274 -0.00082418987 0)
(-0.00075216299 -0.00084209654 0)
(-0.00058805012 -0.00085656506 0)
(-0.00042166844 -0.0008675006 0)
(-0.00025365614 -0.00087483125 0)
(-8.4661444e-05 -0.00087850871 0)
(9.2978731e-05 -0.0010553218 0)
(0.00027858655 -0.0010509692 0)
(0.00046314739 -0.0010422923 0)
(0.00064597021 -0.0010293477 0)
(0.00082637433 -0.0010122193 0)
(0.0010036934 -0.00099101799 0)
(0.0011772795 -0.00096588049 0)
(0.0013465063 -0.00093696801 0)
(0.0015107735 -0.00090446489 0)
(0.0016695091 -0.00086857696 0)
(0.0018221733 -0.00082952967 0)
(0.0019682607 -0.00078756615 0)