/*--------------------------------*- C++ -*----------------------------------*\
| =========                 |                                                 |
| \\      /  F ield         | OpenFOAM: The Open Source CFD Toolbox           |
|  \\    /   O peration     | Version:  2306                                  |
|   \\  /    A nd           | Website:  www.openfoam.com                      |
|    \\/     M anipulation  |                                                 |
\*---------------------------------------------------------------------------*/
FoamFile
{
    version     2.0;
    format      ascii;
    arch        "LSB;label=32;scalar=64";
    class       surfaceScalarField;
    location    "0.31";
    object      phi_0;
}
// * * * * * * * * * * * * * * * * * * * * * * * * * * * * * * * * * * * * * //

dimensions      [0 3 -1 0 0 0 0];

oriented        oriented;

internalField   nonuniform List<scalar> 
12640
(
2.3301279e-07
-1.2996987e-06
9.3041421e-07
-3.8836214e-06
2.0744932e-06
-6.3389228e-06
3.634069e-06
-8.5626093e-06
5.5628773e-06
-1.0438631e-05
7.803275e-06
-1.1868928e-05
1.0289045e-05
-1.2773823e-05
1.294677e-05
-1.3087493e-05
1.5697566e-05
-1.2757835e-05
1.8457767e-05
-1.1746318e-05
2.1141408e-05
-1.0029609e-05
2.3661145e-05
-7.5997266e-06
2.5930778e-05
-4.4646156e-06
2.7872711e-05
-6.4806007e-07
2.9404111e-05
3.8159038e-06
3.0457467e-05
8.8666244e-06
3.0971562e-05
1.4441728e-05
3.0894349e-05
2.0466381e-05
3.0183355e-05
2.6857363e-05
2.8805914e-05
3.3524891e-05
2.6739078e-05
4.0374197e-05
2.3969421e-05
4.7306809e-05
2.0492799e-05
5.4221549e-05
1.6314831e-05
6.1014689e-05
1.1450572e-05
6.7580875e-05
5.9238844e-06
7.3813253e-05
-2.2671761e-07
7.9602376e-05
-6.9608186e-06
8.4855692e-05
-1.4215333e-05
8.9439313e-05
-2.1918752e-05
9.32582e-05
-2.998409e-05
9.6207678e-05
-3.8309289e-05
9.8190353e-05
-4.6777188e-05
9.9118542e-05
-5.5256116e-05
9.8918165e-05
-6.3601496e-05
9.7533447e-05
-7.1658633e-05
9.493186e-05
-7.9266759e-05
9.1108982e-05
-8.6264343e-05
8.6092783e-05
-9.2495486e-05
7.9946747e-05
-9.7817022e-05
7.2771223e-05
-0.0001021058
6.470251e-05
-0.00010526547
5.5909464e-05
-0.00010723222
4.6588021e-05
-0.00010797894
3.6953476e-05
-0.00010751722
2.7230857e-05
-0.00010589749
1.7645108e-05
-0.00010320701
8.4104089e-06
-9.9551162e-05
-2.9113938e-07
-9.5081851e-05
-8.2851508e-06
-8.9955205e-05
-1.5434775e-05
-8.4338532e-05
-2.1655577e-05
-7.840084e-05
-2.689334e-05
-7.2305868e-05
-3.1131685e-05
-6.620594e-05
-3.4389026e-05
-6.0237015e-05
-3.6714258e-05
-5.4515043e-05
-3.8181451e-05
-4.9133649e-05
-3.8883939e-05
-4.4163025e-05
-3.8928288e-05
-3.9649848e-05
-3.8428694e-05
-3.561835e-05
-3.7501279e-05
-3.2072336e-05
-3.6258824e-05
-2.8997889e-05
-3.4806393e-05
-2.6366612e-05
-3.3237785e-05
-2.4139195e-05
-3.1632966e-05
-2.2269068e-05
-3.0056556e-05
-2.0705904e-05
-2.8557393e-05
-1.9398702e-05
-2.7169133e-05
-1.8298581e-05
-2.5911434e-05
-1.7360991e-05
-2.4791737e-05
-1.6547179e-05
-2.3807697e-05
-1.5824966e-05
-2.2949776e-05
-1.5168916e-05
-2.220376e-05
-1.4560011e-05
-2.1553023e-05
-1.3984943e-05
-2.0980428e-05
-1.3435191e-05
-2.0469764e-05
-1.2905963e-05
-2.0006759e-05
-1.2395134e-05
-1.9579649e-05
-1.1902289e-05
-1.9179326e-05
-1.1427944e-05
-1.8799203e-05
-1.8434874e-05
2.7073794e-07
-1.5704366e-06
1.0808476e-06
-4.693731e-06
2.4074708e-06
-7.6655461e-06
4.2123712e-06
-1.036751e-05
6.4400799e-06
-1.2666339e-05
9.0237962e-06
-1.4452645e-05
1.1888022e-05
-1.5638049e-05
1.4949869e-05
-1.6149339e-05
1.8120045e-05
-1.5928011e-05
2.1304107e-05
-1.493038e-05
2.4404012e-05
-1.3129515e-05
2.7320549e-05
-1.0516264e-05
2.9956523e-05
-7.1005897e-06
3.2220029e-05
-2.9115662e-06
3.402285e-05
2.0130827e-06
3.5286531e-05
7.6029437e-06
3.5943626e-05
1.3784634e-05
3.5937101e-05
2.0472906e-05
3.5220916e-05
2.7573548e-05
3.3760049e-05
3.4985759e-05
3.1530132e-05
4.2604114e-05
2.8516984e-05
5.0319957e-05
2.4716405e-05
5.8022128e-05
2.013347e-05
6.5597624e-05
1.4782932e-05
7.2931413e-05
8.6893061e-06
7.9906879e-05
1.8861308e-06
8.6405552e-05
-5.5673017e-06
9.2309125e-05
-1.3622165e-05
9.7494177e-05
-2.2198499e-05
0.00010183453
-3.1201886e-05
0.00010521106
-4.0520419e-05
0.00010750889
-5.0023568e-05
0.00010862169
-5.9562278e-05
0.00010845687
-6.8970397e-05
0.00010694157
-7.8067612e-05
0.00010402908
-8.6664098e-05
9.9705468e-05
-9.4566916e-05
9.39956e-05
-0.000101588
8.6967835e-05
-0.0001075533
7.8736521e-05
-0.00011231227
6.946148e-05
-0.00011574689
5.9344085e-05
-0.00011777933
4.862046e-05
-0.0001183775
3.7551646e-05
-0.00011755785
2.6411204e-05
-0.00011538449
1.547175e-05
-0.00011197141
4.9973251e-06
-0.00010744411
-4.8184332e-06
-0.00010199922
-1.3730042e-05
-9.5827658e-05
-2.160634e-05
-8.913454e-05
-2.8348694e-05
-8.2125136e-05
-3.3902744e-05
-7.4996165e-05
-3.8260656e-05
-6.7928382e-05
-4.1456809e-05
-6.1080765e-05
-4.3561875e-05
-5.4586388e-05
-4.4675828e-05
-4.8549999e-05
-4.4920328e-05
-4.3046985e-05
-4.4431302e-05
-3.8123713e-05
-4.3351967e-05
-3.3799162e-05
-4.182583e-05
-3.0067779e-05
-3.9990206e-05
-2.6903078e-05
-3.7971094e-05
-2.4261862e-05
-3.5879002e-05
-2.2088818e-05
-3.380601e-05
-2.0321158e-05
-3.1824216e-05
-1.8892881e-05
-2.9985669e-05
-1.773866e-05
-2.8323355e-05
-1.679739e-05
-2.6852704e-05
-1.6014765e-05
-2.5574362e-05
-1.5344884e-05
-2.4477579e-05
-1.4750938e-05
-2.3543722e-05
-1.4205134e-05
-2.2749563e-05
-1.3688002e-05
-2.2070155e-05
-1.3187313e-05
-2.1481118e-05
-1.2696634e-05
-2.0960442e-05
-1.2213789e-05
-2.0489604e-05
-1.1739415e-05
-2.0054023e-05
-1.127572e-05
-1.9643021e-05
-1.08255e-05
-1.9249423e-05
-1.8868944e-05
3.1559036e-07
-1.886027e-06
1.2594313e-06
-5.6375719e-06
2.800307e-06
-9.2064217e-06
4.8901589e-06
-1.2457362e-05
7.4613597e-06
-1.523754e-05
1.0436647e-05
-1.7427932e-05
1.3730771e-05
-1.8932173e-05
1.7250961e-05
-1.9669529e-05
2.0897026e-05
-1.9574075e-05
2.4562138e-05
-1.8595491e-05
2.8134903e-05
-1.670228e-05
3.1502124e-05
-1.3883484e-05
3.4551658e-05
-1.0150124e-05
3.717781e-05
-5.5377186e-06
3.9286561e-05
-9.5668224e-08
4.0784641e-05
6.1048631e-06
4.1599793e-05
1.2969482e-05
4.1669696e-05
2.0403003e-05
4.094508e-05
2.8298165e-05
3.9389135e-05
3.6541704e-05
3.69767e-05
4.5016548e-05
3.3693405e-05
5.3603252e-05
2.9534976e-05
6.2180557e-05
2.4506396e-05
7.0626204e-05
1.8622042e-05
7.8815768e-05
1.1906743e-05
8.6622178e-05
4.3951145e-06
9.391718e-05
-3.860042e-06
0.00010056428
-1.2805024e-05
0.00010643916
-2.2354831e-05
0.00011138434
-3.2410211e-05
0.00011526644
-4.2850166e-05
0.00011794884
-5.353034e-05
0.00011930187
-6.428268e-05
0.00011920921
-7.4916472e-05
0.00011757536
-8.5221319e-05
0.00011433392
-9.4972369e-05
0.00010945652
-0.00010393799
0.00010296122
-0.00011188977
9.4919618e-05
-0.00011861431
8.5461055e-05
-0.00012392576
7.4772929e-05
-0.0001276779
6.3096226e-05
-0.00012977451
5.0717073e-05
-0.00013017687
3.7954006e-05
-0.00012890739
2.5141724e-05
-0.00012604908
1.2613435e-05
-0.00012174336
6.9161045e-07
-0.00011615568
-1.0406113e-05
-0.00010952834
-2.0357383e-05
-0.0001020999
-2.903478e-05
-9.4122069e-05
-3.6326527e-05
-8.5844597e-05
-4.2180217e-05
-7.7504075e-05
-4.6601177e-05
-6.9314986e-05
-4.9645899e-05
-6.1462957e-05
-5.1413904e-05
-5.4100195e-05
-5.203859e-05
-4.7343052e-05
-5.1677471e-05
-4.1271182e-05
-5.0503173e-05
-3.5928556e-05
-4.8694593e-05
-3.1325743e-05
-4.6428643e-05
-2.744397e-05
-4.3871979e-05
-2.4239821e-05
-4.1175243e-05
-2.1650693e-05
-3.846813e-05
-1.9600697e-05
-3.5856007e-05
-1.8006512e-05
-3.34184e-05
-1.6782467e-05
-3.1209715e-05
-1.5845681e-05
-2.926014e-05
-1.5120402e-05
-2.7577983e-05
-1.4541056e-05
-2.6153707e-05
-1.4053934e-05
-2.4964701e-05
-1.361768e-05
-2.3979976e-05
-1.3202829e-05
-2.3164414e-05
-1.2790728e-05
-2.2482255e-05
-1.2371728e-05
-2.1900118e-05
-1.1943016e-05
-2.1389154e-05
-1.1506494e-05
-2.0926127e-05
-1.1066834e-05
-2.0493682e-05
-1.0629881e-05
-2.0079974e-05
-1.0201436e-05
-1.9677868e-05
-1.9283918e-05
3.6986909e-07
-2.2558961e-06
1.4749963e-06
-6.7426992e-06
3.2696206e-06
-1.1001046e-05
5.6916937e-06
-1.4879435e-05
8.6570744e-06
-1.8202921e-05
1.2077254e-05
-2.0848112e-05
1.5857716e-05
-2.2712635e-05
1.9896162e-05
-2.3707974e-05
2.4081225e-05
-2.3759138e-05
2.8292286e-05
-2.2806552e-05
3.2401697e-05
-2.0811691e-05
3.6279537e-05
-1.7761324e-05
3.9798242e-05
-1.3668828e-05
4.2835393e-05
-8.5748703e-06
4.5282273e-05
-2.5425478e-06
4.7041546e-05
4.3455905e-06
4.8029498e-05
1.198153e-05
4.8179628e-05
2.0252873e-05
4.7440382e-05
2.9037411e-05
4.5774145e-05
3.8207941e-05
4.3156004e-05
4.763469e-05
3.9572288e-05
5.7186968e-05
3.5019004e-05
6.6733841e-05
2.9501274e-05
7.6143933e-05
2.3032572e-05
8.528447e-05
1.5636155e-05
9.4018594e-05
7.3484127e-06
0.00010220492
-1.7856638e-06
0.00010969836
-1.1714722e-05
0.00011636822
-2.2345305e-05
0.00012201492
-3.357719e-05
0.00012649833
-4.5281337e-05
0.00012965299
-5.7299462e-05
0.00013131999
-6.9443077e-05
0.00013135283
-8.1493766e-05
0.00012962605
-9.3205906e-05
0.00012604606
-0.00010431239
0.000120563
-0.00011453374
0.00011318257
-0.00012359057
0.00010397645
-0.00013121889
9.3089385e-05
-0.00013718689
8.0740922e-05
-0.00014131124
6.7220581e-05
-0.00014347131
5.2877139e-05
-0.00014361959
3.8102288e-05
-0.00014178805
2.3310179e-05
-0.00013809164
8.9170261e-06
-0.00013265654
-4.7434854e-06
-0.0001257819
-1.7280753e-05
-0.00011772059
-2.8418694e-05
-0.0001087769
-3.7978466e-05
-9.9262557e-05
-4.5840873e-05
-8.948229e-05
-5.1960484e-05
-7.9720867e-05
-5.63626e-05
-7.0232612e-05
-5.9134153e-05
-6.1233781e-05
-6.0412736e-05
-5.2897659e-05
-6.0374712e-05
-4.535225e-05
-5.922288e-05
-3.8679856e-05
-5.7175567e-05
-3.2919117e-05
-5.4455331e-05
-2.8067875e-05
-5.1279885e-05
-2.4089093e-05
-4.7850761e-05
-2.0916858e-05
-4.4347478e-05
-1.8463282e-05
-4.0921706e-05
-1.6626152e-05
-3.7693137e-05
-1.5296198e-05
-3.4748355e-05
-1.4363253e-05
-3.214266e-05
-1.3722942e-05
-2.9900452e-05
-1.3282016e-05
-2.8018909e-05
-1.2962017e-05
-2.6473707e-05
-1.2700904e-05
-2.5225813e-05
-1.2453164e-05
-2.4227716e-05
-1.2189035e-05
-2.3428544e-05
-1.18926e-05
-2.277869e-05
-1.1558897e-05
-2.2233821e-05
-1.1190877e-05
-2.1757174e-05
-1.0796476e-05
-2.1320528e-05
-1.0386044e-05
-2.0904115e-05
-9.9703025e-06
-2.0495715e-05
-9.5589041e-06
-2.0089266e-05
-1.9683271e-05
4.3730077e-07
-2.6931968e-06
1.7415893e-06
-8.0469877e-06
3.8402152e-06
-1.3099672e-05
6.6510289e-06
-1.7690249e-05
1.0066969e-05
-2.1618861e-05
1.398916e-05
-2.4770303e-05
1.8316129e-05
-2.7039605e-05
2.2938034e-05
-2.8329879e-05
2.7732439e-05
-2.8553543e-05
3.2562728e-05
-2.7636841e-05
3.7282216e-05
-2.553118e-05
4.1740355e-05
-2.2219463e-05
4.5789113e-05
-1.7717586e-05
4.9289479e-05
-1.2075236e-05
5.2116149e-05
-5.3692182e-06
5.4160749e-05
2.3009906e-06
5.5333941e-05
1.0808337e-05
5.5564687e-05
2.0022127e-05
5.4800147e-05
2.980195e-05
5.3003458e-05
4.0004631e-05
5.0151529e-05
5.0486618e-05
4.6232472e-05
6.1106024e-05
4.1243714e-05
7.1722599e-05
3.5190573e-05
8.2197075e-05
2.8085744e-05
9.2389299e-05
1.9948633e-05
0.0001021557
1.0806163e-05
0.00011134739
7.003338e-07
0.00011980419
-1.0292434e-05
0.00012736098
-2.2114825e-05
0.00013383732
-3.4657775e-05
0.00013904128
-4.7784124e-05
0.00014277934
-6.1322136e-05
0.000144858
-7.5061903e-05
0.0001450926
-8.8754177e-05
0.00014331832
-0.00010211233
0.00013940422
-0.00011481832
0.00013326899
-0.00012653328
0.00012489753
-0.00013691307
0.00011435624
-0.00014562818
0.00010180449
-0.00015238622
8.7498963e-05
-0.00015695442
7.178878e-05
-0.00015917914
5.5101857e-05
-0.00015900061
3.7923762e-05
-0.00015645896
2.0768522e-05
-0.0001517005
4.1585715e-06
-0.00014491315
-1.1530836e-05
-0.00013644197
-2.5751939e-05
-0.0001266296
-3.8231063e-05
-0.00011585289
-4.8755176e-05
-0.00010449662
-5.7197137e-05
-9.2932664e-05
-6.3524444e-05
-8.1503634e-05
-6.7791631e-05
-7.0510589e-05
-7.0127198e-05
-6.0204595e-05
-7.0718729e-05
-5.0781716e-05
-6.9797591e-05
-4.2380986e-05
-6.762361e-05
-3.5084742e-05
-6.4471811e-05
-2.8922304e-05
-6.0617769e-05
-2.387293e-05
-5.6329259e-05
-1.987475e-05
-5.1848941e-05
-1.6832386e-05
-4.7389842e-05
-1.4625086e-05
-4.3129006e-05
-1.3116974e-05
-3.9201249e-05
-1.2166283e-05
-3.5699046e-05
-1.1632485e-05
-3.2676457e-05
-1.1384894e-05
-3.0148043e-05
-1.130939e-05
-2.8094412e-05
-1.1312944e-05
-2.6470153e-05
-1.1324849e-05
-2.5213908e-05
-1.1296487e-05
-2.4256078e-05
-1.1200087e-05
-2.3524944e-05
-1.1025198e-05
-2.2953579e-05
-1.0774555e-05
-2.2484464e-05
-1.0459803e-05
-2.2071926e-05
-1.0097506e-05
-2.1682825e-05
-9.7057809e-06
-2.1295839e-05
-9.3017539e-06
-2.0899742e-05
-8.8998272e-06
-2.0491193e-05
-2.0072279e-05
5.2441152e-07
-3.2176083e-06
2.0829634e-06
-9.6055395e-06
4.5509081e-06
-1.5567617e-05
7.8174675e-06
-2.0956808e-05
1.1743825e-05
-2.5545218e-05
1.6225612e-05
-2.925209e-05
2.1160534e-05
-3.1974526e-05
2.6435654e-05
-3.3604999e-05
3.1918073e-05
-3.4035962e-05
3.7452143e-05
-3.3170911e-05
4.2866853e-05
-3.094589e-05
4.7985436e-05
-2.7338046e-05
5.2635181e-05
-2.2367331e-05
5.6654922e-05
-1.6094977e-05
5.9902356e-05
-8.6166518e-06
6.2258691e-05
-5.5345207e-08
6.3627112e-05
9.439916e-06
6.3933748e-05
1.9715492e-05
6.3126799e-05
3.0608898e-05
6.1172613e-05
4.1958817e-05
5.805217e-05
5.3607062e-05
5.3757633e-05
6.5400561e-05
4.8288927e-05
7.7191305e-05
4.1651819e-05
8.8834183e-05
3.3856825e-05
0.00010018429
2.4919743e-05
0.00011109279
1.4864754e-05
0.00012140238
3.7240794e-06
0.00013094486
-8.4512869e-06
0.00013953635
-2.1589495e-05
0.00014697552
-3.5589058e-05
0.00015304084
-5.0311175e-05
0.00015750145
-6.5573631e-05
0.00016012046
-8.1145265e-05
0.00016066423
-9.6743266e-05
0.00015891632
-0.00011203372
0.00015469467
-0.00012663731
0.00014787258
-0.00014014136
0.00013840158
-0.00015211898
0.00012633386
-0.00016215496
0.00011184048
-0.00016987636
9.5220362e-05
-0.0001749838
7.6896215e-05
-0.00017727901
5.7397072e-05
-0.00017668673
3.7331475e-05
-0.00017326793
1.7349729e-05
-0.00016715122
-1.9581422e-06
-0.00015868826
-1.9993796e-05
-0.00014825714
-3.6183063e-05
-0.00013630426
-5.0183942e-05
-0.00012330479
-6.1754643e-05
-0.00010973602
-7.0765911e-05
-9.6052243e-05
-7.7208218e-05
-8.2665349e-05
-8.1178525e-05
-6.9930718e-05
-8.2861829e-05
-5.8138365e-05
-8.2511082e-05
-4.7508278e-05
-8.0427678e-05
-3.8188994e-05
-7.6942895e-05
-3.0258875e-05
-7.2401929e-05
-2.3732443e-05
-6.7144201e-05
-1.8562805e-05
-6.1498897e-05
-1.4654501e-05
-5.5757245e-05
-1.1874388e-05
-5.0169955e-05
-1.0058684e-05
-4.4944709e-05
-9.0282971e-06
-4.0231636e-05
-8.601472e-06
-3.6125871e-05
-8.6002512e-06
-3.2677678e-05
-8.8617789e-06
-2.9886515e-05
-9.2469467e-06
-2.7709244e-05
-9.6464274e-06
-2.6070672e-05
-9.980841e-06
-2.4879495e-05
-1.0200735e-05
-2.4036185e-05
-1.0283564e-05
-2.3442115e-05
-1.0228357e-05
-2.3008786e-05
-1.0049759e-05
-2.2663062e-05
-9.7720732e-06
-2.2349611e-05
-9.423904e-06
-2.2030995e-05
-9.033828e-06
-2.1685915e-05
-8.6271219e-06
-2.1306448e-05
-8.2238395e-06
-2.0894475e-05
-2.0457996e-05
6.43697e-07
-3.8613053e-06
2.5426004e-06
-1.1504443e-05
5.464825e-06
-1.8489841e-05
9.2635544e-06
-2.4755537e-05
1.375739e-05
-3.0039054e-05
1.8850129e-05
-3.4344829e-05
2.4451254e-05
-3.7575652e-05
3.0453164e-05
-3.9606908e-05
3.6712961e-05
-4.0295759e-05
4.3049946e-05
-3.9507897e-05
4.9260454e-05
-3.7156397e-05
5.5133422e-05
-3.3211015e-05
6.0465068e-05
-2.7698977e-05
6.5068038e-05
-2.0697946e-05
6.8780773e-05
-1.2329387e-05
7.1471497e-05
-2.7460693e-06
7.3038704e-05
7.8727087e-06
7.3408127e-05
1.934607e-05
7.2532106e-05
3.1484919e-05
7.0383714e-05
4.4107209e-05
6.69514e-05
5.7039375e-05
6.2233977e-05
7.0117984e-05
5.6236068e-05
8.3189214e-05
4.8964699e-05
9.6105552e-05
4.0427593e-05
0.0001087214
3.0633586e-05
0.00012088679
1.9595772e-05
0.0001324402
7.3368702e-06
0.00014320376
-6.1056164e-06
0.00015297884
-2.067931e-05
0.00016154922
-3.6286409e-05
0.00016864794
-5.2791569e-05
0.00017400661
-7.0006297e-05
0.00017733519
-8.7679877e-05
0.00017833781
-0.00010549393
0.00017673037
-0.00012306075
0.0001722615
-0.00013992778
0.00016473961
-0.00015559053
0.00015406433
-0.00016951586
0.00014025919
-0.00018117562
0.00012350025
-0.00019008832
0.00010413306
-0.00019586298
8.2670876e-05
-0.00019823882
5.977291e-05
-0.00019711599
3.6208648e-05
-0.00019257962
1.2813353e-05
-0.00018479884
-9.7389207e-06
-0.00017422965
-3.0562987e-05
-0.00016136911
-4.9043604e-05
-0.00014678766
-6.4765389e-05
-0.00013108469
-7.7457616e-05
-0.00011485294
-8.6997651e-05
-9.8647379e-05
-9.3413783e-05
-8.296208e-05
-9.6863824e-05
-6.821475e-05
-9.7609159e-05
-5.4737976e-05
-9.5987856e-05
-4.2775695e-05
-9.2389959e-05
-3.2483257e-05
-8.7235333e-05
-2.392961e-05
-8.0955576e-05
-1.7106251e-05
-7.396756e-05
-1.1931423e-05
-6.6673726e-05
-8.2631306e-06
-5.9425537e-05
-5.9229023e-06
-5.2510183e-05
-4.6881038e-06
-4.6179508e-05
-4.3240878e-06
-4.0595652e-05
-4.600856e-06
-3.5849103e-05
-5.2955356e-06
-3.1982998e-05
-6.2056219e-06
-2.8976429e-05
-7.1621847e-06
-2.6752682e-05
-8.0375858e-06
-2.5195271e-05
-8.7446283e-06
-2.4172452e-05
-9.2364144e-06
-2.3544399e-05
-9.5005246e-06
-2.3178005e-05
-9.5512175e-06
-2.2958093e-05
-9.4208719e-06
-2.2793408e-05
-9.1517883e-06
-2.2618695e-05
-8.7891807e-06
-2.2393602e-05
-8.3753778e-06
-2.2099718e-05
-7.9457523e-06
-2.1736074e-05
-7.526814e-06
-2.1313414e-05
-2.0848919e-05
8.2096958e-07
-4.6822749e-06
3.1995732e-06
-1.3883047e-05
6.6864804e-06
-2.1976748e-05
1.1094726e-05
-2.9163783e-05
1.6194886e-05
-3.5139214e-05
2.1931343e-05
-4.0081287e-05
2.8247605e-05
-4.3891914e-05
3.5054856e-05
-4.6414159e-05
4.2197893e-05
-4.7438796e-05
4.9458836e-05
-4.676884e-05
5.6587514e-05
-4.4285075e-05
6.3327213e-05
-3.9950714e-05
6.9433908e-05
-3.3805672e-05
7.4690481e-05
-2.5954519e-05
7.8912906e-05
-1.6551812e-05
8.1956299e-05
-5.7894627e-06
8.3715853e-05
6.1131548e-06
8.4122562e-05
1.8939361e-05
8.3137225e-05
3.2470256e-05
8.0744535e-05
4.6499899e-05
7.6945172e-05
6.0838739e-05
7.1748661e-05
7.5314495e-05
6.5166912e-05
8.9770962e-05
5.7209185e-05
0.00010406328
4.7879769e-05
0.00011805081
3.7178239e-05
0.00013158832
2.5102822e-05
0.00014451561
1.1657891e-05
0.00015664869
-3.1409582e-06
0.00016777769
-1.9268425e-05
0.00017767668
-3.6635811e-05
0.00018601533
-5.5122326e-05
0.00019249313
-7.4540134e-05
0.00019675299
-9.4623188e-05
0.00019842086
-0.00011501716
0.00019712435
-0.00013527449
0.00019251883
-0.0001548558
0.00018432091
-0.0001731427
0.00017235123
-0.00018946519
0.00015658168
-0.00020314509
0.00013718015
-0.00021355322
0.00011454118
-0.00022017202
8.9289674e-05
-0.00022265239
6.2253284e-05
-0.00022085648
3.4412739e-05
-0.00021490217
6.8590389e-06
-0.00020501999
-1.9621099e-05
-0.000191811
-4.3771983e-05
-0.00017592892
-6.4925684e-05
-0.00015810795
-8.2586354e-05
-0.00013910757
-9.6457994e-05
-0.00011966523
-0.00010643999
-0.00010045808
-0.00011262094
-8.2076632e-05
-0.00011524527
-6.500873e-05
-0.00011467706
-4.9631998e-05
-0.00011136459
-3.6212335e-05
-0.00010580962
-2.4907164e-05
-9.8540504e-05
-1.5770001e-05
-9.0092738e-05
-8.7578688e-06
-8.0979693e-05
-3.7476995e-06
-7.1683895e-05
-5.3557202e-07
-6.2637664e-05
1.1449751e-06
-5.419073e-05
1.5615897e-06
-4.6596122e-05
1.0093866e-06
-4.0043449e-05
-1.9606832e-07
-3.4643648e-05
-1.7757685e-06
-3.0403298e-05
-3.49777e-06
-2.7254428e-05
-5.1532238e-06
-2.5097228e-05
-6.5911308e-06
-2.3757364e-05
-7.7183889e-06
-2.3045194e-05
-8.4956922e-06
-2.2767095e-05
-8.9280349e-06
-2.2745662e-05
-9.0530881e-06
-2.283304e-05
-8.9289662e-06
-2.291753e-05
-8.6232768e-06
-2.2924384e-05
-8.203815e-06
-2.2813064e-05
-7.730572e-06
-2.2572961e-05
-7.2511049e-06
-2.2215541e-05
-6.7989185e-06
-2.17656e-05
-2.1254181e-05
1.1092016e-06
-5.7914765e-06
4.1963969e-06
-1.6970242e-05
8.3825058e-06
-2.6162857e-05
1.3450737e-05
-3.4232014e-05
1.9145866e-05
-4.0834343e-05
2.5520453e-05
-4.6455873e-05
3.2586348e-05
-5.0957809e-05
4.029091e-05
-5.4118721e-05
4.845494e-05
-5.5602826e-05
5.6797993e-05
-5.5111893e-05
6.500031e-05
-5.2487392e-05
7.2743109e-05
-4.7693512e-05
7.9733428e-05
-4.0795991e-05
8.5718085e-05
-3.1939177e-05
9.0491362e-05
-2.1325089e-05
9.3894895e-05
-9.1929949e-06
9.5826392e-05
4.1816571e-06
9.6227066e-05
1.8538687e-05
9.5072876e-05
3.3624446e-05
9.2367207e-05
4.9205568e-05
8.8129694e-05
6.5076252e-05
8.2386137e-05
8.1058052e-05
7.5159442e-05
9.6997657e-05
6.6462942e-05
0.00011275978
5.6296543e-05
0.00012821721
4.464689e-05
0.00014323798
3.1490776e-05
0.00015767173
1.6799342e-05
0.00017134013
5.5731116e-07
0.00018401972
-1.7212473e-05
0.00019544647
-3.6485546e-05
0.0002052884
-5.7157837e-05
0.00021316542
-7.9050549e-05
0.00021864571
-0.00010188998
0.00022126029
-0.00012528886
0.00022052323
-0.00014873505
0.00021596502
-0.00017158796
0.00020717382
-0.00019308869
0.00019385196
-0.00021239066
0.00017588365
-0.00022861505
0.00015340453
-0.00024092949
0.00012685563
-0.0002486391
9.6999281e-05
-0.00025127158
6.4885763e-05
-0.00024864944
3.1790604e-05
-0.0002408296
-9.6080205e-07
-0.00022829331
-3.215739e-05
-0.00021175781
-6.0307491e-05
-0.00019209764
-8.4585849e-05
-0.00017026763
-0.00010441637
-0.00014723438
-0.00011949124
-0.000123916
-0.00012975837
-0.00010113656
-0.00013540038
-7.9597631e-05
-0.0001367842
-5.9863539e-05
-0.00013441115
-4.2357071e-05
-0.00012887106
-2.7361261e-05
-0.00012080543
-1.5027365e-05
-0.0001108744
-5.3963294e-06
-9.9723773e-05
1.6595518e-06
-8.8035574e-05
6.3255862e-06
-7.6349929e-05
8.8529717e-06
-6.516505e-05
9.5661579e-06
-5.4903916e-05
8.8413689e-06
-4.5871333e-05
7.0700939e-06
-3.8272174e-05
4.6312368e-06
-3.2204791e-05
1.8820214e-06
-2.7654083e-05
-8.5566847e-07
-2.4516738e-05
-3.358275e-06
-2.2594621e-05
-5.4505364e-06
-2.1665102e-05
-7.0381595e-06
-2.1457571e-05
-8.0975372e-06
-2.1707718e-05
-8.6618837e-06
-2.2181316e-05
-8.8038572e-06
-2.2691067e-05
-8.6183371e-06
-2.310305e-05
-8.2083814e-06
-2.333434e-05
-7.6718036e-06
-2.3349642e-05
-7.090925e-06
-2.315384e-05
-6.5275514e-06
-2.2778914e-05
-6.02205e-06
-2.2271102e-05
-2.1681985e-05
1.5944674e-06
-7.3859439e-06
5.7459431e-06
-2.1121718e-05
1.0759786e-05
-3.11767e-05
1.6452964e-05
-3.9925192e-05
2.2630239e-05
-4.7011618e-05
2.9578563e-05
-5.3404198e-05
3.7422176e-05
-5.8801423e-05
4.6158795e-05
-6.285534e-05
5.5550274e-05
-6.4994305e-05
6.520364e-05
-6.4765259e-05
7.469062e-05
-6.1974372e-05
8.3608649e-05
-5.6611541e-05
9.1607419e-05
-4.8794761e-05
9.8397581e-05
-3.8729339e-05
0.00010375233
-2.6679835e-05
0.00010751017
-1.2950839e-05
0.00010956734
2.1244861e-06
0.00010989174
1.821429e-05
0.00010848138
3.5034802e-05
0.00010536802
5.2318927e-05
0.00010059941
6.9844869e-05
9.4225204e-05
8.7432256e-05
8.6284731e-05
0.00010493813
7.6797416e-05
0.00012224709
6.5757866e-05
0.00013925676
5.313483e-05
0.00015586101
3.8876207e-05
0.00017193035
2.2920192e-05
0.00018729614
5.2029782e-06
0.00020173693
-1.4313432e-05
0.00021496288
-3.5633111e-05
0.00022660808
-5.8696568e-05
0.00023622887
-8.335297e-05
0.00024330211
-0.00010933531
0.00024724264
-0.00013623244
0.00024742035
-0.00016346651
0.00024319909
-0.0001902818
0.00023398911
-0.0002157477
0.00021931786
-0.00023879004
0.00019892599
-0.0002582598
0.00017287429
-0.00027304145
0.00014163729
-0.0002821858
0.00010614363
-0.00028503965
6.7739619e-05
-0.00028135704
2.8107993e-05
-0.0002711766
-1.1141244e-05
-0.00025522608
-4.8107914e-05
-0.00023445507
-8.1078499e-05
-0.00021003858
-0.00010900234
-0.00018322502
-0.00013122992
-0.00015524694
-0.00014746932
-0.00012724564
-0.00015775967
-0.00010021896
-0.00016242706
-7.4992823e-05
-0.00016201034
-5.2210741e-05
-0.00015719324
-3.2337447e-05
-0.00014874435
-1.5667757e-05
-0.00013747512
-2.3455169e-06
-0.00012419664
7.7186112e-06
-0.0001097879
1.4613709e-05
-9.4930671e-05
1.8606471e-05
-8.0342692e-05
2.0064522e-05
-6.6623101e-05
1.942018e-05
-5.4259574e-05
1.7155341e-05
-4.3606494e-05
1.3771739e-05
-3.4888572e-05
9.7558338e-06
-2.8188886e-05
5.5554017e-06
-2.3453651e-05
1.5467774e-06
-2.0508113e-05
-1.9700355e-06
-1.9077808e-05
-4.8101226e-06
-1.8825015e-05
-6.8832678e-06
-1.9384426e-05
-8.1938448e-06
-2.039714e-05
-8.8192746e-06
-2.1555886e-05
-8.883469e-06
-2.2626872e-05
-8.5337151e-06
-2.3452804e-05
-7.9219705e-06
-2.3946085e-05
-7.1854641e-06
-2.4086148e-05
-6.4342388e-06
-2.3905065e-05
-5.7460829e-06
-2.346707e-05
-5.166529e-06
-2.2850655e-05
-2.213686e-05
2.3349737e-06
-9.7209176e-06
7.9699864e-06
-2.675673e-05
1.3851611e-05
-3.7058324e-05
1.9974747e-05
-4.6048328e-05
2.6378239e-05
-5.3415111e-05
3.3791676e-05
-6.0817634e-05
4.2488469e-05
-6.7498216e-05
5.2510507e-05
-7.2877378e-05
6.3482586e-05
-7.5966383e-05
7.4811189e-05
-7.6093862e-05
8.5897453e-05
-7.3060637e-05
9.6225293e-05
-6.6939381e-05
0.00010538298
-5.7952444e-05
0.00011305407
-4.6400429e-05
0.00011900478
-3.2630552e-05
0.00012307658
-1.7022637e-05
0.00012517743
2.3641289e-08
0.00012531679
1.8074931e-05
0.00012352348
3.6828107e-05
0.00011987142
5.5970984e-05
0.00011444887
7.5267422e-05
0.00010733967
9.4541462e-05
9.8606479e-05
0.00011367132
8.8278055e-05
0.00013257552
7.6342049e-05
0.00015119277
6.2744159e-05
0.0001694589
4.7393286e-05
0.00018728122
3.0174272e-05
0.00020451516
1.0966503e-05
0.0002209447
-1.0341394e-05
0.00023627078
-3.3818156e-05
0.00025008484
-5.9465149e-05
0.00026187587
-8.7182399e-05
0.00027101936
-0.00011673108
0.00027679132
-0.00014769356
0.00027838284
-0.00017943331
0.00027493884
-0.00021106864
0.00026562444
-0.00024146303
0.00024971225
-0.00026925049
0.00022671345
-0.00029291644
0.00019654025
-0.0003109454
0.00015966624
-0.00032201747
0.0001172157
-0.00032520222
7.0924373e-05
-0.00032015596
2.3061725e-05
-0.00030694071
-2.4356487e-05
-0.00028655593
-6.8492692e-05
-0.00026034416
-0.00010729028
-0.0002298997
-0.00013944679
-0.00019686472
-0.00016426491
-0.00016281157
-0.00018152246
-0.0001291533
-0.00019141794
-9.7088403e-05
-0.00019449196
-6.7577228e-05
-0.00019152151
-4.1340408e-05
-0.00018343006
-1.8869801e-05
-0.00017121496
-4.5854251e-07
-0.00015588638
1.3874995e-05
-0.00013853018
2.4119924e-05
-0.00012003283
3.0526305e-05
-0.00010133705
3.34547e-05
-8.3271087e-05
3.3384562e-05
-6.6552964e-05
3.088037e-05
-5.1755382e-05
2.6562779e-05
-3.9288903e-05
2.1075639e-05
-2.9401432e-05
1.5038213e-05
-2.215146e-05
9.0119376e-06
-1.7427375e-05
3.4637766e-06
-1.4959952e-05
-1.2558491e-06
-1.4358183e-05
-4.9323129e-06
-1.5148552e-05
-7.4886798e-06
-1.6828059e-05
-8.9766514e-06
-1.8909169e-05
-9.5411332e-06
-2.0991404e-05
-9.3799825e-06
-2.2788023e-05
-8.7151352e-06
-2.4117651e-05
-7.7648742e-06
-2.4896346e-05
-6.7177107e-06
-2.5133312e-05
-5.7174192e-06
-2.4905357e-05
-4.8582767e-06
-2.4326213e-05
-4.1868465e-06
-2.3522086e-05
-2.2615097e-05
3.2113952e-06
-1.2932313e-05
1.0481888e-05
-3.4027223e-05
1.6965444e-05
-4.354188e-05
2.3113032e-05
-5.2195916e-05
2.9389454e-05
-5.9691533e-05
3.7238805e-05
-6.8666984e-05
4.7061523e-05
-7.7320934e-05
5.8884945e-05
-8.47008e-05
7.2062111e-05
-8.9143549e-05
8.5677055e-05
-8.9708806e-05
9.8872935e-05
-8.6256516e-05
0.00011097384
-7.9040282e-05
0.00012150181
-6.848042e-05
0.00013013612
-5.5034735e-05
0.00013666662
-3.9161051e-05
0.00014096749
-2.1323508e-05
0.00014297682
-1.985691e-06
0.00014276199
1.8289755e-05
0.00014040137
3.918873e-05
0.00013602839
6.0343962e-05
0.00012978775
8.1508063e-05
0.00012181079
0.00010251843
0.00011219287
0.00012328924
0.00010097588
0.00014379251
8.8138573e-05
0.00016403007
7.359531e-05
0.00018400217
5.7203064e-05
0.00020367347
3.877709e-05
0.00022294113
1.8113e-05
0.00024160879
-4.9851602e-06
0.00025936894
-3.068914e-05
0.00027578882
-5.9086158e-05
0.00029027289
-9.0160158e-05
0.00030209336
-0.00012373222
0.00031036338
-0.0001594074
0.00031405802
-0.00019651127
0.0003120427
-0.00023403299
0.00030314616
-0.0002705944
0.00028627365
-0.00030445854
0.0002605776
-0.00033361648
0.00022569818
-0.00035598448
0.00018203424
-0.00036970563
0.00013093685
-0.00037345131
7.467005e-05
-0.00036669113
1.6301542e-05
-0.00034944836
-4.1599251e-05
-0.0003232182
-9.4722856e-05
-0.00028993582
-0.00014057265
-0.00025179124
-0.00017759138
-0.00021095499
-0.00020510116
-0.00016942752
-0.00022304993
-0.00012894436
-0.0002319011
-9.0927081e-05
-0.00023250924
-5.6469794e-05
-0.0002259788
-2.6350665e-05
-0.00021354918
-1.0625098e-06
-0.00019650311
1.9197108e-05
-0.000176146
3.4312307e-05
-0.00015364538
4.4460795e-05
-0.00013018132
4.9965343e-05
-0.0001068416
5.1310173e-05
-8.4615917e-05
4.9118599e-05
-6.4361389e-05
4.4116822e-05
-4.6753605e-05
3.7097012e-05
-3.2269093e-05
2.8885384e-05
-2.1189804e-05
2.0270497e-05
-1.3536573e-05
1.1960895e-05
-9.1177732e-06
4.5358514e-06
-7.5349089e-06
-1.5857727e-06
-8.2365585e-06
-6.1680102e-06
-1.0566314e-05
-9.1589292e-06
-1.383714e-05
-1.0685612e-05
-1.7382486e-05
-1.0993062e-05
-2.0683954e-05
-1.038523e-05
-2.3395855e-05
-9.1893253e-06
-2.5313555e-05
-7.7129469e-06
-2.6372724e-05
-6.2106194e-06
-2.6635639e-05
-4.8662537e-06
-2.6249722e-05
-3.7883249e-06
-2.5404142e-05
-3.0163951e-06
-2.4294015e-05
-2.309729e-05
3.949687e-06
-1.6882e-05
1.2231513e-05
-4.2309049e-05
1.8231754e-05
-4.9542121e-05
2.3714647e-05
-5.7678809e-05
2.9570269e-05
-6.5547155e-05
3.8167649e-05
-7.7264365e-05
4.9814637e-05
-8.8967922e-05
6.4362359e-05
-9.9248522e-05
8.0730092e-05
-0.00010551128
9.7585003e-05
-0.00010656372
0.00011372271
-0.00010239423
0.00012822488
-9.3542447e-05
0.00014050576
-8.0761299e-05
0.00015025493
-6.4783909e-05
0.00015733862
-4.624474e-05
0.00016172261
-2.5707492e-05
0.00016343819
-3.7012773e-06
0.00016261206
1.9115889e-05
0.00015941808
4.2382712e-05
0.0001540704
6.5691642e-05
0.00014679123
8.8787226e-05
0.00013777701
0.00011153265
0.00012716779
0.00013389846
0.00011502343
0.00015593686
0.00010131036
0.00017774315
8.5900623e-05
0.0001994119
6.8581251e-05
0.00022099284
4.9073615e-05
0.00024244877
2.7062012e-05
0.00026362039
2.2331302e-06
0.00028419782
-2.5705846e-05
0.0003037278
-5.697523e-05
0.00032154227
-9.1686982e-05
0.00033680511
-0.00012976715
0.00034844355
-0.00017089077
0.00035518163
-0.00021439051
0.00035554245
-0.00025914704
0.00034790269
-0.00030351152
0.00033063813
-0.00034528456
0.00030235064
-0.00038178968
0.00026220331
-0.0004101334
0.00021037796
-0.00042764027
0.00014844372
-0.0004322374
7.9267174e-05
-0.00042285233
6.9164771e-06
-0.0004004141
-6.4037486e-05
-0.00036644276
-0.00012869419
-0.00032385576
-0.00018315966
-0.00027577552
-0.00022567162
-0.00022510217