/*--------------------------------*- C++ -*----------------------------------*\
| =========                 |                                                 |
| \\      /  F ield         | OpenFOAM: The Open Source CFD Toolbox           |
|  \\    /   O peration     | Version:  2106                                  |
|   \\  /    A nd           | Website:  www.openfoam.com                      |
|    \\/     M anipulation  |                                                 |
\*---------------------------------------------------------------------------*/
FoamFile
{
    version     2.0;
    format      ascii;
    arch        "LSB;label=32;scalar=64";
    class       surfaceScalarField;
    location    "0.035";
    object      phi_0;
}
// * * * * * * * * * * * * * * * * * * * * * * * * * * * * * * * * * * * * * //

dimensions      [0 3 -1 0 0 0 0];

oriented        oriented;

internalField   nonuniform List<scalar> 
8064
(
1.3292815e-05
-1.3292815e-05
2.6444055e-05
-1.3151239e-05
3.931407e-05
-1.2870015e-05
5.176702e-05
-1.245295e-05
6.3672659e-05
-1.1905639e-05
7.4907994e-05
-1.1235335e-05
8.5358773e-05
-1.0450779e-05
9.4920791e-05
-9.5620181e-06
0.00010350099
-8.5801946e-06
0.00011101832
-7.5173374e-06
0.00011740447
-6.3861479e-06
0.00012260426
-5.1997929e-06
0.00012657597
-3.9717077e-06
0.00012929138
-2.715409e-06
0.00013073571
-1.4443245e-06
0.00013090732
-1.7161013e-07
0.00012981737
1.0899413e-06
0.00012748925
2.3281214e-06
0.00012395787
3.5313787e-06
0.00011926896
4.6889133e-06
0.00011347815
5.7908143e-06
0.00010665004
6.8281102e-06
9.8857221e-05
7.7928158e-06
9.0179268e-05
8.6779527e-06
8.0701727e-05
9.4775404e-06
7.0515167e-05
1.0186561e-05
5.9714269e-05
1.0800898e-05
4.8397005e-05
1.1317264e-05
3.6663898e-05
1.1733107e-05
2.4617375e-05
1.2046523e-05
1.2361202e-05
1.2256172e-05
1.7226536e-14
1.2361202e-05
-1.2361202e-05
1.2361202e-05
-2.4617375e-05
1.2256172e-05
-3.6663898e-05
1.2046523e-05
-4.8397005e-05
1.1733107e-05
-5.9714269e-05
1.1317264e-05
-7.0515167e-05
1.0800898e-05
-8.0701727e-05
1.0186561e-05
-9.0179268e-05
9.4775404e-06
-9.885722e-05
8.6779527e-06
-0.00010665004
7.7928158e-06
-0.00011347815
6.8281102e-06
-0.00011926896
5.7908144e-06
-0.00012395787
4.6889133e-06
-0.00012748925
3.5313787e-06
-0.00012981737
2.3281214e-06
-0.00013090732
1.0899413e-06
-0.00013073571
-1.7161012e-07
-0.00012929138
-1.4443245e-06
-0.00012657597
-2.715409e-06
-0.00012260426
-3.9717076e-06
-0.00011740447
-5.1997929e-06
-0.00011101832
-6.3861479e-06
-0.00010350099
-7.5173374e-06
-9.4920791e-05
-8.5801946e-06
-8.5358773e-05
-9.5620181e-06
-7.4907994e-05
-1.0450779e-05
-6.3672659e-05
-1.1235335e-05
-5.176702e-05
-1.1905639e-05
-3.931407e-05
-1.245295e-05
-2.6444055e-05
-1.2870015e-05
-1.3292815e-05
-1.3151239e-05
-1.3292815e-05
1.3763414e-05
-2.7056229e-05
2.7380416e-05
-2.6768241e-05
4.0706585e-05
-2.6196184e-05
5.3601431e-05
-2.5347796e-05
6.5930242e-05
-2.423445e-05
7.756579e-05
-2.2870883e-05
8.8389867e-05
-2.1274856e-05
9.8294626e-05
-1.9466778e-05
0.00010718371
-1.746928e-05
0.00011497317
-1.5306791e-05
0.00012159212
-1.3005106e-05
0.0001269833
-1.0590967e-05
0.00013110326
-8.0916649e-06
0.00013392251
-5.5346679e-06
0.00013542546
-2.9472697e-06
0.00013561009
-3.562411e-07
0.00013448769
2.212346e-06
0.00013208213
4.7336806e-06
0.00012842935
7.1841527e-06
0.00012357651
9.5417526e-06
0.00011758109
1.1786237e-05
0.00011050993
1.3899275e-05
0.00010243819
1.5864547e-05
9.3448356e-05
1.7667792e-05
8.362911e-05
1.9296786e-05
7.3074389e-05
2.0741281e-05
6.1882413e-05
2.1992874e-05
5.0154817e-05
2.304486e-05
3.7995885e-05
2.3892039e-05
2.5511868e-05
2.4530541e-05
1.2810402e-05
2.4957638e-05
1.7664738e-14
2.5171604e-05
-1.2810402e-05
2.5171604e-05
-2.5511868e-05
2.4957638e-05
-3.7995885e-05
2.4530541e-05
-5.0154817e-05
2.3892039e-05
-6.1882413e-05
2.304486e-05
-7.3074389e-05
2.1992875e-05
-8.362911e-05
2.0741281e-05
-9.3448356e-05
1.9296787e-05
-0.00010243819
1.7667792e-05
-0.00011050993
1.5864547e-05
-0.00011758109
1.3899275e-05
-0.00012357651
1.1786237e-05
-0.00012842935
9.5417526e-06
-0.00013208213
7.1841528e-06
-0.00013448769
4.7336806e-06
-0.00013561009
2.212346e-06
-0.00013542546
-3.5624107e-07
-0.00013392251
-2.9472697e-06
-0.00013110326
-5.5346679e-06
-0.0001269833
-8.0916648e-06
-0.00012159212
-1.0590967e-05
-0.00011497317
-1.3005106e-05
-0.00010718371
-1.5306791e-05
-9.8294626e-05
-1.746928e-05
-8.8389867e-05
-1.9466778e-05
-7.756579e-05
-2.1274856e-05
-6.5930242e-05
-2.2870883e-05
-5.3601431e-05
-2.423445e-05
-4.0706585e-05
-2.5347796e-05
-2.7380416e-05
-2.6196184e-05
-1.3763414e-05
-2.6768241e-05
-2.7056229e-05
1.4602221e-05
-4.1658451e-05
2.9049603e-05
-4.1215623e-05
4.3189397e-05
-4.0335978e-05
5.687299e-05
-3.903139e-05
6.9957842e-05
-3.7319302e-05
8.2309273e-05
-3.5222314e-05
9.3802081e-05
-3.2767664e-05
0.00010432194
-2.9986636e-05
0.00011376658
-2.6913926e-05
0.00012204677
-2.3586979e-05
0.000129087
-2.0045339e-05
0.00013482605
-1.6330014e-05
0.00013921726
-1.2482873e-05
0.00014222868
-8.5460841e-06
0.00014384299
-4.5615848e-06
0.00014405731
-5.7056427e-07
0.00014288282
3.3868411e-06
0.00014034415
7.2723442e-06
0.00013647882
1.1049486e-05
0.00013133634
1.4684234e-05
0.00012497733
1.8145242e-05
0.00011747251
2.1404095e-05
0.00010890159
2.4435474e-05
9.9352137e-05
2.7217242e-05
8.89185e-05
2.9730423e-05
7.7700678e-05
3.1959103e-05
6.5803306e-05
3.3890246e-05
5.3334715e-05
3.551345e-05
4.0406092e-05
3.6820663e-05
2.7130744e-05
3.7805889e-05
1.3623468e-05
3.8464914e-05
1.8379225e-14
3.8795072e-05
-1.3623468e-05
3.8795072e-05
-2.7130744e-05
3.8464914e-05
-4.0406092e-05
3.7805889e-05
-5.3334715e-05
3.6820663e-05
-6.5803306e-05
3.551345e-05
-7.7700678e-05
3.3890246e-05
-8.89185e-05
3.1959103e-05
-9.9352137e-05
2.9730423e-05
-0.00010890159
2.7217242e-05
-0.00011747251
2.4435474e-05
-0.00012497733
2.1404095e-05
-0.00013133634
1.8145242e-05
-0.00013647882
1.4684234e-05
-0.00014034415
1.1049486e-05
-0.00014288282
7.2723442e-06
-0.00014405731
3.3868411e-06
-0.00014384299
-5.7056425e-07
-0.00014222868
-4.5615848e-06
-0.00013921726
-8.546084e-06
-0.00013482605
-1.2482873e-05
-0.000129087
-1.6330014e-05
-0.00012204677
-2.0045339e-05
-0.00011376658
-2.3586979e-05
-0.00010432194
-2.6913926e-05
-9.3802081e-05
-2.9986636e-05
-8.2309273e-05
-3.2767664e-05
-6.9957842e-05
-3.5222314e-05
-5.687299e-05
-3.7319302e-05
-4.3189397e-05
-3.903139e-05
-2.9049603e-05
-4.0335978e-05
-1.4602221e-05
-4.1215623e-05
-4.1658451e-05
1.5802826e-05
-5.7461276e-05
3.1438846e-05
-5.6851643e-05
4.6743493e-05
-5.5640624e-05
6.1556608e-05
-5.3844505e-05
7.5724518e-05
-5.1487212e-05
8.9101936e-05
-4.8599732e-05
0.00010155368
-4.5219407e-05
0.00011295616
-4.138912e-05
0.00012319866
-3.715642e-05
0.00013218431
-3.2572631e-05
0.00013983093
-2.7691959e-05
0.00014607156
-2.2570641e-05
0.00015085482
-1.7266137e-05
0.00015414511
-1.1836369e-05
0.00015592254
-6.3390192e-06
0.00015618281
-8.3082904e-07
0.00015493682
4.6328277e-06
0.00015221017
9.9989978e-06
0.00014804247
1.5217181e-05
0.00014248656
2.0240149e-05
0.00013560748
2.5024319e-05
0.00012748145
2.9530127e-05
0.00011819464
3.3722278e-05
0.000107842
3.7569884e-05
9.6525965e-05
4.1046459e-05
8.4355281e-05
4.4129788e-05
7.1443847e-05
4.680168e-05
5.7909669e-05
4.9047628e-05
4.3873917e-05
5.0856415e-05
2.9460107e-05
5.2219698e-05
1.4793403e-05
5.3131619e-05
1.902119e-14
5.3588474e-05
-1.4793402e-05
5.3588474e-05
-2.9460107e-05
5.3131619e-05
-4.3873917e-05
5.2219698e-05
-5.7909669e-05
5.0856415e-05
-7.1443847e-05
4.9047628e-05
-8.4355281e-05
4.680168e-05
-9.6525965e-05
4.4129788e-05
-0.000107842
4.1046459e-05
-0.00011819464
3.7569884e-05
-0.00012748145
3.3722278e-05
-0.00013560748
2.9530127e-05
-0.00014248656
2.5024319e-05
-0.00014804247
2.0240149e-05
-0.00015221017
1.5217181e-05
-0.00015493682
9.9989978e-06
-0.00015618281
4.6328277e-06
-0.00015592254
-8.3082903e-07
-0.00015414511
-6.3390192e-06
-0.00015085482
-1.1836369e-05
-0.00014607156
-1.7266137e-05
-0.00013983093
-2.2570641e-05
-0.00013218431
-2.7691959e-05
-0.00012319866
-3.2572631e-05
-0.00011295616
-3.715642e-05
-0.00010155368
-4.138912e-05
-8.9101936e-05
-4.5219407e-05
-7.5724518e-05
-4.8599732e-05
-6.1556608e-05
-5.1487212e-05
-4.6743493e-05
-5.3844505e-05
-3.1438846e-05
-5.5640624e-05
-1.5802826e-05
-5.6851643e-05
-5.7461277e-05
1.7381705e-05
-7.4842982e-05
3.4580945e-05
-7.4050883e-05
5.1417674e-05
-7.2477353e-05
6.7716622e-05
-7.0143453e-05
8.3309529e-05
-6.7080119e-05
9.8037205e-05
-6.3327408e-05
0.00011175138
-5.893358e-05
0.0001243163
-5.3954041e-05
0.0001356101
-4.8450223e-05
0.0001455259
-4.248843e-05
0.00015397266
-3.6138714e-05
0.0001608758
-2.9473785e-05
0.00016617766
-2.2568001e-05
0.0001698377
-1.5496411e-05
0.00017183256
-8.3338717e-06
0.0001721559
-1.154174e-06
0.00017081819
5.9705364e-06
0.00016784614
1.2971055e-05
0.00016328206
1.9781257e-05
0.00015718307
2.6339143e-05
0.00014962
3.2587381e-05
0.00014067631
3.8473822e-05
0.0001304467
4.3951883e-05
0.00011903584
4.8980754e-05
0.00010655687
5.3525425e-05
9.3130123e-05
5.7556533e-05
7.8881757e-05
6.1050046e-05
6.3942571e-05
6.3986814e-05
4.8446938e-05
6.6352048e-05
3.253187e-05
6.8134767e-05
1.633622e-05
6.9327269e-05
1.9390051e-14
6.9924694e-05
-1.6336219e-05
6.9924694e-05
-3.253187e-05
6.9327269e-05
-4.8446938e-05
6.8134767e-05
-6.3942571e-05
6.6352048e-05
-7.8881757e-05
6.3986814e-05
-9.3130123e-05
6.1050046e-05
-0.00010655687
5.7556533e-05
-0.00011903584
5.3525425e-05
-0.0001304467
4.8980754e-05
-0.00014067631
4.3951883e-05
-0.00014962
3.8473822e-05
-0.00015718307
3.2587381e-05
-0.00016328206
2.6339143e-05
-0.00016784614
1.9781257e-05
-0.00017081819
1.2971055e-05
-0.0001721559
5.9705364e-06
-0.00017183256
-1.154174e-06
-0.0001698377
-8.3338717e-06
-0.00016617766
-1.5496411e-05
-0.0001608758
-2.2568001e-05
-0.00015397266
-2.9473785e-05
-0.0001455259
-3.6138714e-05
-0.0001356101
-4.248843e-05
-0.0001243163
-4.8450223e-05
-0.00011175138
-5.3954041e-05
-9.8037205e-05
-5.893358e-05
-8.3309529e-05
-6.3327408e-05
-6.7716622e-05
-6.7080119e-05
-5.1417674e-05
-7.0143453e-05
-3.4580945e-05
-7.2477353e-05
-1.7381705e-05
-7.4050883e-05
-7.4842982e-05
1.9378124e-05
-9.4221106e-05
3.8554052e-05
-9.3226811e-05
5.7328236e-05
-9.1251537e-05
7.550636e-05
-8.8321578e-05
9.2901781e-05
-8.447554e-05
0.00010933777
-7.9763402e-05
0.00012464955
-7.4245357e-05
0.000138686
-6.7990492e-05
0.00015131118
-6.1075396e-05
0.00016240548
-5.3582734e-05
0.00017186663
-4.5599867e-05
0.00017961038
-3.7217531e-05
0.00018557099
-2.8528607e-05
0.00018970156
-1.9626986e-05
0.00019197419
-1.06065e-05
0.00019237988
-1.5598678e-06
0.00019092838
7.4220439e-06
0.00018764767
1.625176e-05
0.00018258343
2.4845497e-05
0.00017579811
3.3124467e-05
0.00016736986
4.1015628e-05
0.00015739128
4.8452402e-05
0.00014596794
5.5375223e-05
0.00013321684
6.1731856e-05
0.00011926479
6.7477471e-05
0.00010424684
7.2574483e-05
8.8304739e-05
7.6992148e-05
7.1585544e-05
8.0706009e-05
5.4240387e-05
8.3697205e-05
3.6423391e-05
8.5951762e-05
1.8290761e-05
8.74599e-05
1.9034105e-14
8.8215454e-05
-1.8290761e-05
8.8215454e-05
-3.6423391e-05
8.74599e-05
-5.4240387e-05
8.5951762e-05
-7.1585544e-05
8.3697205e-05
-8.8304738e-05
8.0706009e-05
-0.00010424684
7.6992148e-05
-0.00011926479
7.2574483e-05
-0.00013321684
6.7477471e-05
-0.00014596794
6.1731856e-05
-0.00015739128
5.5375223e-05
-0.00016736986
4.8452402e-05
-0.00017579811
4.1015628e-05
-0.00018258343
3.3124467e-05
-0.00018764767
2.4845497e-05
-0.00019092838
1.625176e-05
-0.00019237988
7.4220439e-06
-0.00019197419
-1.5598678e-06
-0.00018970156
-1.06065e-05
-0.00018557099
-1.9626986e-05
-0.00017961038
-2.8528607e-05
-0.00017186663
-3.7217531e-05
-0.00016240548
-4.5599867e-05
-0.00015131118
-5.3582734e-05
-0.000138686
-6.1075396e-05
-0.00012464955
-6.7990492e-05
-0.00010933777
-7.4245357e-05
-9.2901781e-05
-7.9763402e-05
-7.550636e-05
-8.447554e-05
-5.7328236e-05
-8.8321578e-05
-3.8554052e-05
-9.1251537e-05
-1.9378124e-05
-9.3226811e-05
-9.4221106e-05
2.1853571e-05
-0.00011607468
4.3480554e-05
-0.00011485379
6.4657299e-05
-0.00011242828
8.5165942e-05
-0.00010883022
0.00010479711
-0.0001041067
0.00012335238
-9.8318678e-05
0.00014064654
-9.1539512e-05
0.00015650944
-8.3853395e-05
0.00017078768
-7.5353633e-05
0.00018334588
-6.6140937e-05
0.00019406778
-5.6321768e-05
0.00020285702
-4.6006774e-05
0.00020963777
-3.5309357e-05
0.00021435513
-2.4344344e-05
0.00021697538
-1.3226748e-05
0.00021748606
-2.0705475e-06
0.00021589585
9.0122509e-06
0.00021223423
1.9913379e-05
0.00020655089
3.0528842e-05
0.00019891484
4.0760513e-05
0.00018941331
5.0517161e-05
0.00017815027
5.9715445e-05
0.00016524482
6.8280674e-05
0.00015082938
7.6147296e-05
0.0001350478
8.3259043e-05
0.00011805352
8.9568767e-05
0.00010000771
9.5037957e-05
8.1077691e-05
9.9636029e-05
6.1435435e-05
0.00010333946
4.1256331e-05
0.00010613087
2.0718118e-05
0.00010799811
1.8859382e-14
0.00010893357
-2.0718118e-05
0.00010893357
-4.1256331e-05
0.00010799811
-6.1435435e-05
0.00010613087
-8.1077691e-05
0.00010333946
-0.00010000771
9.9636029e-05
-0.00011805352
9.5037957e-05
-0.0001350478
8.9568767e-05
-0.00015082938
8.3259043e-05
-0.00016524482
7.6147296e-05
-0.00017815027
6.8280674e-05
-0.00018941331
5.9715445e-05
-0.00019891484
5.0517161e-05
-0.00020655089
4.0760513e-05
-0.00021223423
3.0528842e-05
-0.00021589585
1.9913379e-05
-0.00021748606
9.0122509e-06
-0.00021697538
-2.0705474e-06
-0.00021435513
-1.3226748e-05
-0.00020963777
-2.4344344e-05
-0.00020285702
-3.5309357e-05
-0.00019406778
-4.6006774e-05
-0.00018334588
-5.6321768e-05
-0.00017078768
-6.6140937e-05
-0.00015650944
-7.5353633e-05
-0.00014064654
-8.3853395e-05
-0.00012335238
-9.1539512e-05
-0.00010479711
-9.8318678e-05
-8.5165942e-05
-0.0001041067
-6.4657299e-05
-0.00010883022
-4.3480554e-05
-0.00011242828
-2.1853571e-05
-0.00011485379
-0.00011607468
2.4890824e-05
-0.0001409655
4.952522e-05
-0.00013948819
7.3650044e-05
-0.0001365531
9.7018618e-05
-0.00013219879
0.00011939375
-0.00012648183
0.00014055046
-0.0001194754
0.00016027851
-0.00011126756
0.00017838445
-0.00010195933
0.00019469343
-9.1662621e-05
0.00020905073
-8.0498236e-05
0.00022132286
-6.8593899e-05
0.00023139855
-5.6082457e-05
0.00023918943
-4.3100238e-05
0.00024463063
-2.9785543e-05
0.00024768113
-1.6277253e-05
0.00024832402
-2.7134352e-06
0.00024656649
1.0769783e-05
0.00024243964
2.4040229e-05
0.00023599796
3.6970518e-05
0.00022731847
4.9440001e-05
0.00021649948
6.133616e-05
0.00020365896
7.2555958e-05
0.00018893273
8.3006907e-05
0.00017247225
9.2607777e-05
0.00015444243
0.00010128886
0.00013501939
0.00010899181
0.00011438831
0.00011566904
9.2741439e-05
0.0001212829
7.0276424e-05
0.00012580448
4.7194782e-05
0.00012921251
2.3700697e-05
0.0001314922
1.9311424e-14
0.00013263427
-2.3700697e-05
0.00013263427
-4.7194782e-05
0.0001314922
-7.0276424e-05
0.00012921251
-9.2741439e-05
0.00012580448
-0.00011438831
0.0001212829
-0.00013501939
0.00011566904
-0.00015444243
0.00010899181
-0.00017247225
0.00010128886
-0.00018893273
9.2607777e-05
-0.00020365896
8.3006907e-05
-0.00021649948
7.2555958e-05
-0.00022731847
6.133616e-05
-0.00023599796
4.9440001e-05
-0.00024243964
3.6970518e-05
-0.00024656649
2.4040229e-05
-0.00024832402
1.0769783e-05
-0.00024768113
-2.7134352e-06
-0.00024463063
-1.6277253e-05
-0.00023918943
-2.9785543e-05
-0.00023139855
-4.3100238e-05
-0.00022132286
-5.6082457e-05
-0.00020905073
-6.8593898e-05
-0.00019469343
-8.0498236e-05
-0.00017838445
-9.1662621e-05
-0.00016027851
-0.00010195933
-0.00014055046
-0.00011126756
-0.00011939375
-0.0001194754
-9.7018618e-05
-0.00012648183
-7.3650044e-05
-0.00013219879
-4.952522e-05
-0.0001365531
-2.4890824e-05
-0.00013948819
-0.0001409655
2.859157e-05
-0.00016955707
5.6890445e-05
-0.00016778707
8.4607633e-05
-0.00016427029
0.00011146143
-0.0001590526
0.00013718083
-0.00015220123
0.00016150857
-0.00014380314
0.00018420395
-0.00013396294
0.00020504516
-0.00012280053
0.00022383129
-0.00011044875
0.00024038397
-9.7050924e-05
0.00025454873
-8.2758657e-05
0.00026619602
-6.7729745e-05
0.00027522211
-5.2126327e-05
0.00028154979
-3.6113226e-05
0.00028512895
-1.9856414e-05
0.000285937
-3.5214782e-06
0.00028397907
1.2727714e-05
0.00027928802
2.8731276e-05
0.00027192402
4.4334514e-05
0.00026197372
5.9390308e-05
0.00024954888
7.3760993e-05
0.00023478465
8.7320191e-05
0.00021783726
9.9954295e-05
0.00019888156
0.00011156348
0.0001781083
0.00012206212
0.00015572143
0.00013137868
0.0001319355
0.00013945497
0.00010697332
0.00014624508
8.1063868e-05
0.00015171393
5.4440571e-05
0.00015583581
2.7339857e-05
0.00015859291
1.8988212e-14
0.00015997413
-2.7339857e-05
0.00015997413
-5.4440571e-05
0.00015859291
-8.1063868e-05
0.00015583581
-0.00010697332
0.00015171393
-0.0001319355
0.00014624508
-0.00015572143
0.00013945497
-0.0001781083
0.00013137868
-0.00019888156
0.00012206212
-0.00021783726
0.00011156348
-0.00023478465
9.9954295e-05
-0.00024954888
8.7320191e-05
-0.00026197372
7.3760993e-05
-0.00027192402
5.9390308e-05
-0.00027928802
4.4334514e-05
-0.00028397907
2.8731276e-05
-0.000285937
1.2727714e-05
-0.00028512895
-3.5214781e-06
-0.00028154979
-1.9856414e-05
-0.00027522211
-3.6113226e-05
-0.00026619602
-5.2126327e-05
-0.00025454873
-6.7729745e-05
-0.00024038397
-8.2758657e-05
-0.00022383129
-9.7050924e-05
-0.00020504516
-0.00011044875
-0.00018420395
-0.00012280053
-0.00016150857
-0.00013396294
-0.00013718083
-0.00014380314
-0.00011146143
-0.00015220123
-8.4607634e-05
-0.0001590526
-5.6890445e-05
-0.00016427029
-2.859157e-05
-0.00016778707
-0.00016955707
3.3071116e-05
-0.00020262819
6.5805733e-05
-0.00020052168
9.7871558e-05
-0.00019633612
0.00012894458
-0.00019012562
0.00015871293
-0.00018196957
0.00018688034
-0.00017197055
0.00021316931
-0.00016025191
0.00023732374
-0.00014695496
0.00025911119
-0.0001322362
0.00027832473
-0.00011626446
0.00029478442
-9.9218352e-05
0.00030833857
-8.1283894e-05
0.00031886473
-6.2652486e-05
0.0003262706
-4.3519098e-05
0.00033049483
-2.4080637e-05
0.00033150765
-4.5343038e-06
0.00032931143
1.4923935e-05
0.00032394085
3.4101856e-05
0.00031546271
5.2812659e-05
0.00030397512
7.087789e-05
0.00028960615
8.8129968e-05
0.00027251169
0.00010441465
0.00025287287
0.00011959311
0.00023089302
0.00013354333
0.00020679437
0.00014616077
0.00018081478
0.00015735827
0.00015320456
0.00016706519
0.00012422364
0.000175226
9.4139054e-05
0.00018179851
6.3222915e-05
0.00018675194
3.1750714e-05
0.00019006511
1.6882396e-14
0.00019172484
-3.1750714e-05
0.00019172484
-6.3222915e-05
0.00019006511
-9.4139054e-05
0.00018675194
-0.00012422364
0.00018179851
-0.00015320456
0.000175226
-0.00018081478
0.00016706519
-0.00020679437
0.00015735827
-0.00023089302
0.00014616077
-0.00025287287
0.00013354333
-0.00027251169
0.00011959311
-0.00028960615
0.00010441465
-0.00030397512
8.8129968e-05
-0.00031546271
7.087789e-05
-0.00032394085
5.2812659e-05
-0.00032931143
3.4101856e-05
-0.00033150765
1.4923935e-05
-0.00033049483
-4.5343038e-06
-0.0003262706
-2.4080637e-05
-0.00031886473
-4.3519098e-05
-0.00030833857
-6.2652486e-05
-0.00029478442
-8.1283894e-05
-0.00027832473
-9.9218352e-05
-0.00025911119
-0.00011626446
-0.00023732374
-0.0001322362
-0.00021316931
-0.00014695496
-0.00018688034
-0.00016025191
-0.00015871293
-0.00017197055
-0.00012894458
-0.00018196957
-9.7871558e-05
-0.00019012562
-6.5805733e-05
-0.00019633612
-3.3071116e-05
-0.00020052168
-0.00020262819
3.8448486e-05
-0.00024107667
7.650798e-05
-0.00023858118
0.00011379429
-0.00023362243
0.00014993271
-0.00022626404
0.00018456238
-0.00021659923
0.00021734028
-0.00020474845
0.00024794479
-0.00019085642
0.00027607871
-0.00017508889
0.00030147182
-0.00015762931
0.00032388292
-0.00013867557
0.00034310159
-0.00011843702
0.00035894951
-9.7131817e-05
0.00037128172
-7.4984693e-05
0.00037998766
-5.2225034e-05
0.00038499222
-2.9085196e-05
0.00038625673
-5.7988158e-06
0.0003837798
1.7400862e-05
0.00037759792
4.028374e-05
0.00036778548
6.2625096e-05
0.00035445417
8.4209198e-05
0.00033775145
0.00010483268
0.0003178582
0.00012430791
0.00029498557
0.00014246575
0.00026937128
0.00015915762
0.00024127563
0.00017425642
0.00021097742
0.00018765647
0.00017877014
0.00019927247
0.00014495845
0.0002090377
0.00010985521
0.00021690175
7.3779058e-05
0.0002228281
3.7052416e-05
0.00022679175
1.4069568e-14
0.00022877726
-3.7052416e-05
0.00022877726
-7.3779058e-05
0.00022679175
-0.00010985521
0.0002228281
-0.00014495845
0.00021690175
-0.00017877014
0.0002090377
-0.00021097742
0.00019927247
-0.00024127563
0.00018765647
-0.00026937128
0.00017425642
-0.00029498557
0.00015915762
-0.0003178582
0.00014246575
-0.00033775145
0.00012430791
-0.00035445417
0.00010483268
-0.00036778548
8.4209198e-05
-0.00037759792
6.2625096e-05
-0.0003837798
4.028374e-05
-0.00038625673
1.7400862e-05
-0.00038499222
-5.7988157e-06
-0.00037998766
-2.9085196e-05
-0.00037128172
-5.2225034e-05
-0.00035894951
-7.4984693e-05
-0.00034310159
-9.7131817e-05
-0.00032388292
-0.00011843702
-0.00030147182
-0.00013867557
-0.00027607871
-0.00015762931
-0.00024794479
-0.00017508889
-0.00021734028
-0.00019085642
-0.00018456238
-0.00020474845
-0.00014993271
-0.00021659923
-0.00011379429
-0.00022626404
-7.650798e-05
-0.00023362243
-3.8448486e-05
-0.00023858118
-0.00024107667
4.483001e-05
-0.00028590668
8.9208805e-05
-0.00028295997
0.00013269069
-0.00027710432
0.00017484083
-0.00026841418
0.0002152403
-0.0002569987
0.00025349065
-0.0002429988
0.00028921797
-0.00022658374
0.00032207636
-0.00020794728
0.00035175084
-0.00018730378
0.00037795968
-0.00016488441
0.00040045636
-0.0001409337
0.0004190311
-0.00011570656
0.00043351222
-8.9465818e-05
0.00044376742
-6.2480231e-05
0.00044970503
-3.5022808e-05
0.00045127541
-7.3691883e-06
0.00044847219
2.0204084e-05
0.00044133342
4.7422501e-05
0.00042994205
7.4016466e-05
0.00041442547
9.9725776e-05
0.00039495401
0.00012430415
0.00037173818
0.00014752374
0.00034502492
0.00016917901
0.00031509306
0.00018908948
0.00028224836
0.00020710111
0.00024681857
0.00022308627
0.00020914864
0.00023694239
0.00016959658
0.00024858976
0.00012852979
0.00025796854
8.6322209e-05
0.00026503568
4.3352042e-05
0.00026976192
1.1760768e-14
0.0002721293
-4.3352042e-05
0.0002721293
-8.6322209e-05
0.00026976192
-0.00012852979
0.00026503568
-0.00016959658
0.00025796854
-0.00020914864
0.00024858976
-0.00024681857
0.00023694239
-0.00028224836
0.00022308627
-0.00031509306
0.00020710111
-0.00034502492
0.00018908948
-0.00037173818
0.00016917901
-0.00039495401
0.00014752374
-0.00041442547
0.00012430415
-0.00042994205
9.9725776e-05
-0.00044133342
7.4016467e-05
-0.00044847219
4.7422501e-05
-0.00045127541
2.0204084e-05
-0.00044970503
-7.3691882e-06
-0.00044376742
-3.5022808e-05
-0.00043351222
-6.2480231e-05
-0.0004190311
-8.9465818e-05
-0.00040045636
-0.00011570656
-0.00037795968
-0.0001409337
-0.00035175084
-0.00016488441
-0.00032207636
-0.00018730378
-0.00028921797
-0.00020794728
-0.00025349065
-0.00022658374
-0.0002152403
-0.0002429988
-0.00017484083
-0.0002569987
-0.00013269069
-0.00026841418
-8.9208805e-05
-0.00027710432
-4.483001e-05
-0.00028295997
-0.00028590668
5.2284546e-05
-0.00033819123
0.00010404524
-0.00033472067
0.00015476459
-0.00032782366
0.00020393757
-0.00031758716
0.00025107745
-0.00030413858
0.00029572106
-0.00028764241
0.00033743345
-0.00026829613
0.00037581191
-0.00024632575
0.00041048933
-0.00022198119
0.00044113682
-0.00019553191
0.00046746598
-0.00016726285
0.0004892305
-0.00013747108
0.00050622771
-0.00010646302
0.0005182999
-7.4552425e-05
0.00052533587
-4.205878e-05
0.00052727264
-9.3059552e-06
0.00052409733
2.3379391e-05
0.00051584902
5.5670813e-05
0.00050261984
8.7245651e-05
0.00048455498
0.00011779064
0.00046185117
0.00014700795
0.00043475355
0.00017462136
0.00040355103
0.00020038152
0.00036857081
0.0002240697
0.00033017219
0.00024549973
0.00028874045
0.000264518
0.00024468108
0.00028100177
0.00019841462
0.00029485622
0.00015037242
0.00030601074
0.00010099318
0.00031441492
5.0720308e-05
0.00032003479
9.3550839e-15
0.00032284961
-5.0720308e-05
0.00032284961
-0.00010099318
0.00032003479
-0.00015037242
0.00031441492
-0.00019841462
0.00030601074
-0.00024468108
0.00029485622
-0.00028874045
0.00028100177
-0.00033017219
0.000264518
-0.00036857081
0.00024549973
-0.00040355103
0.0002240697
-0.00043475355
0.00020038152
-0.00046185117
0.00017462136
-0.00048455498
0.00014700795
-0.00050261984
0.00011779064
-0.00051584902
8.7245651e-05
-0.00052409733
5.5670813e-05
-0.00052727264
2.3379391e-05
-0.00052533587
-9.3059552e-06
-0.0005182999
-4.205878e-05
-0.00050622771
-7.4552425e-05
-0.0004892305
-0.00010646302
-0.00046746598
-0.00013747108
-0.00044113683
-0.00016726285
-0.00041048933
-0.00019553191
-0.00037581191
-0.00022198119
-0.00033743345
-0.00024632575
-0.00029572106
-0.00026829613
-0.00025107745
-0.00028764241
-0.00020393757
-0.00030413858
-0.00015476459
-0.00031758716
-0.00010404524
-0.00032782366
-5.2284546e-05
-0.00033472067
-0.00033819123
6.0808866e-05
-0.00039900009
0.00012101085
-0.00039492266
0.00018000635
-0.00038681916
0.00023721009
-0.00037479091
0.0002920578
-0.00035898629
0.00034401226
-0.00033959687
0.00039256877
-0.00031685264
0.00043725975
-0.00029101673
0.00047765864
-0.00026238009
0.00051338302
-0.00023125629
0.00054409699
-0.00019797682
0.00056951304
-0.00016288713
0.0005893935
-0.00012634349
0.00060355188
-8.8710807e-05
0.00061185446
-5.0361352e-05
0.00061422235
-1.1673852e-05
0.0006106342
2.6967546e-05
0.00060112896
6.5176051e-05
0.0005858081
0.00010256651
0.00056483628
0.00013876246
0.00053843994
0.00017340428
0.00050690373
0.00020615757
0.00047056489
0.00023672036
0.00042980638
0.00026482822
0.00038504928
0.00029025684
0.00033674522
0.00031282206
0.00028536935
0.00033237764
0.00023141414
0.00034881143
0.0001753843
0.00036204058
0.00011779275
0.00037200647
5.9157609e-05
0.00037866993
7.3587122e-15
0.00038200722
-5.9157609e-05
0.00038200722
-0.00011779275
0.00037866993
-0.0001753843
0.00037200647
-0.00023141414
0.00036204058
-0.00028536935
0.00034881143
-0.00033674522
0.00033237764
-0.00038504928
0.00031282206
-0.00042980638
0.00029025684
-0.00047056489
0.00026482822
-0.00050690373
0.00023672036
-0.00053843994
0.00020615757
-0.00056483628
0.00017340428
-0.0005858081
0.00013876246
-0.00060112896
0.00010256651
-0.0006106342
6.5176051e-05
-0.00061422235
2.6967546e-05
-0.00061185446
-1.1673852e-05
-0.00060355188
-5.0361352e-05
-0.0005893935
-8.8710806e-05
-0.00056951304
-0.00012634349
-0.00054409699
-0.00016288713
-0.00051338302
-0.00019797682
-0.00047765864
-0.00023125629
-0.00043725975
-0.00026238009
-0.00039256877
-0.00029101673
-0.00034401226
-0.00031685264
-0.0002920578
-0.00033959687
-0.00023721009
-0.00035898629
-0.00018000635
-0.00037479091
-0.00012101085
-0.00038681916
-6.0808866e-05
-0.00039492266
-0.00039900009
7.0282514e-05
-0.00046928261
0.00013986586
-0.000464506
0.00020805917
-0.00045501247
0.00027418792
-0.00044091965
0.00033760156
-0.00042239993
0.00039768054
-0.00039967585
0.00045384257
-0.00037301467
0.00050554806
-0.00034272221
0.00055230466
-0.00030913669
0.00059367093
-0.00027262256
0.00062925902
-0.00023356491
0.00065873656
-0.00019236467
0.00068182793
-0.00014943486
0.00069831525
-0.00010519813
0.00070803971
-6.008582e-05
0.00071090393
-1.4538065e-05
0.00070687542
3.0996058e-05
0.000695991
7.6060464e-05
0.00067836059
0.00012019692
0.00065416904
0.00016295401
0.00062367512
0.00020389821
0.0005872073
0.00024262539
0.00054515699
0.00027877067
0.00049796986
0.00031201535
0.00044613649
0.00034209021
0.00039018304
0.00036877551
0.00033066274
0.00039189794
0.00026814848
0.00041132569
0.00020322684
0.00042696221
0.00013649349
0.00043873983
6.8549707e-05
0.00044661371
7.3387021e-15
0.00045055692
-6.8549707e-05
0.00045055692
-0.00013649349
0.00044661371
-0.00020322684
0.00043873983
-0.00026814848
0.00042696221
-0.00033066274
0.00041132569
-0.00039018304
0.00039189794
-0.00044613649
0.00036877551
-0.00049796986
0.00034209021
-0.00054515699
0.00031201535
-0.0005872073
0.00027877067
-0.00062367512
0.00024262539
-0.00065416904
0.00020389821
-0.00067836059
0.00016295401
-0.000695991
0.00012019692
-0.00070687542
7.6060464e-05
-0.00071090393
3.0996058e-05
-0.00070803971
-1.4538065e-05
-0.00069831525
-6.008582e-05
-0.00068182793
-0.00010519813
-0.00065873656
-0.00014943486
-0.00062925902
-0.00019236467
-0.00059367093
-0.00023356491
-0.00055230466
-0.00027262256
-0.00050554806
-0.00030913669
-0.00045384257
-0.00034272221
-0.00039768054
-0.00037301467
-0.00033760156
-0.00039967585
-0.00027418792
-0.00042239993
-0.00020805917
-0.00044091965
-0.00013986586
-0.00045501247
-7.0282514e-05
-0.000464506
-0.00046928261
8.0412955e-05
-0.00054969556
0.00016002804
-0.00054412109
0.00023805672
-0.00053304115
0.00031372893
-0.00051659186
0.0003863017
-0.00049497271
0.00045506723
-0.00046844138
0.00051936011
-0.00043730755
0.00057856376
-0.00040192586
0.00063211582
-0.00036268875
0.00067951248
-0.00032001921
0.00072031159
-0.00027436402
0.00075413451
-0.00022618759
0.00078066679
-0.00017596714
0.00079965829
-0.00012418962
0.00081092357
-7.1351108e-05
0.00081434413
-1.7958625e-05
0.00080987295
3.5467245e-05
0.00079754115
8.8392259e-05
0.00077746447
0.0001402736
0.00074984707
0.00019057141
0.00071498117
0.00023876411
0.00067324217
0.00028436439
0.00062508016
0.00032693268
0.00057100913
0.00036608638
0.00051159528
0.00040150406
0.00044744569
0.0004329251
0.00037919801
0.00046014563
0.00030751183
0.00048301187
0.00023306179
0.00050141225
0.0001565323
0.00051526932
7.8613779e-05
0.00052453223
6.4739205e-15
0.0005291707
-7.8613779e-05
0.0005291707
-0.0001565323
0.00052453223
-0.00023306179
0.00051526932
-0.00030751183
0.00050141225
-0.00037919801
0.00048301187
-0.00044744569
0.00046014563
-0.00051159528
0.0004329251
-0.00057100913
0.00040150406
-0.00062508016
0.00036608638
-0.00067324217
0.00032693268
-0.00071498117
0.00028436439
-0.00074984707
0.00023876411
-0.00077746447
0.00019057141
-0.00079754115
0.0001402736
-0.00080987295
8.8392259e-05
-0.00081434413
3.5467245e-05
-0.00081092357
-1.7958625e-05
-0.00079965829
-7.1351108e-05
-0.00078066679
-0.00012418962
-0.00075413451
-0.00017596714
-0.00072031159
-0.00022618759
-0.00067951248
-0.00027436402
-0.00063211582
-0.00032001921
-0.00057856376
-0.00036268875
-0.00051936011
-0.00040192586