/*--------------------------------*- C++ -*----------------------------------*\
| =========                 |                                                 |
| \\      /  F ield         | OpenFOAM: The Open Source CFD Toolbox           |
|  \\    /   O peration     | Version:  2106                                  |
|   \\  /    A nd           | Website:  www.openfoam.com                      |
|    \\/     M anipulation  |                                                 |
\*---------------------------------------------------------------------------*/
FoamFile
{
    version     2.0;
    format      ascii;
    arch        "LSB;label=32;scalar=64";
    class       volVectorField;
    location    "0.035";
    object      U;
}
// * * * * * * * * * * * * * * * * * * * * * * * * * * * * * * * * * * * * * //

dimensions      [0 1 -1 0 0 0 0];

internalField   nonuniform List<vector> 
4096
(
(0.00042509029 -0.00042119113 0)
(0.0012707387 -0.00041670231 0)
(0.0021028523 -0.00040778586 0)
(0.0029126128 -0.0003945627 0)
(0.0036915041 -0.0003772105 0)
(0.0044314225 -0.00035595952 0)
(0.0051247777 -0.00033108736 0)
(0.0057645826 -0.000302913 0)
(0.0063445298 -0.00027179022 0)
(0.006859055 -0.0002381009 0)
(0.0073033866 -0.0002022482 0)
(0.0076735819 -0.00016465002 0)
(0.0079665502 -0.00012573263 0)
(0.0081800637 -8.5924796e-05 0)
(0.008312757 -4.5652217e-05 0)
(0.0083641149 -5.3324459e-06 0)
(0.0083344533 3.4628684e-05 0)
(0.0082248875 7.3846719e-05 0)
(0.0080372893 0.00011195467 0)
(0.0077742495 0.00014861069 0)
(0.0074390172 0.0001835015 0)
(0.007035445 0.00021634361 0)
(0.0065679266 0.00024688477 0)
(0.0060413319 0.00027490468 0)
(0.0054609432 0.0003002146 0)
(0.0048323919 0.00032265627 0)
(0.0041615991 0.00034209999 0)
(0.0034547194 0.00035844212 0)
(0.0027180919 0.00037160234 0)
(0.0019581956 0.00038152076 0)
(0.001181611 0.00038815519 0)
(0.0003949872 0.00039147887 0)
(-0.0003949872 0.00039147887 0)
(-0.001181611 0.00038815519 0)
(-0.0019581956 0.00038152076 0)
(-0.0027180919 0.00037160234 0)
(-0.0034547194 0.00035844212 0)
(-0.004161599 0.00034209999 0)
(-0.0048323919 0.00032265627 0)
(-0.0054609432 0.0003002146 0)
(-0.0060413319 0.00027490468 0)
(-0.0065679266 0.00024688478 0)
(-0.007035445 0.00021634361 0)
(-0.0074390172 0.0001835015 0)
(-0.0077742495 0.00014861069 0)
(-0.0080372893 0.00011195467 0)
(-0.0082248875 7.3846719e-05 0)
(-0.0083344533 3.4628684e-05 0)
(-0.0083641149 -5.3324455e-06 0)
(-0.008312757 -4.5652216e-05 0)
(-0.0081800637 -8.5924796e-05 0)
(-0.0079665502 -0.00012573263 0)
(-0.0076735819 -0.00016465002 0)
(-0.0073033866 -0.0002022482 0)
(-0.006859055 -0.0002381009 0)
(-0.0063445298 -0.00027179022 0)
(-0.0057645826 -0.000302913 0)
(-0.0051247777 -0.00033108736 0)
(-0.0044314225 -0.00035595952 0)
(-0.0036915041 -0.0003772105 0)
(-0.0029126128 -0.0003945627 0)
(-0.0021028523 -0.00040778586 0)
(-0.0012707387 -0.00041670231 0)
(-0.0004250903 -0.00042119113 0)
(0.00044014946 -0.0012746008 0)
(0.0013157613 -0.0012610197 0)
(0.0021773757 -0.0012340428 0)
(0.0030158727 -0.0011940357 0)
(0.0038224443 -0.001141536 0)
(0.0045887081 -0.0010772401 0)
(0.0053068121 -0.0010019876 0)
(0.0059695259 -0.00091674323 0)
(0.0065703204 -0.00082257663 0)
(0.0071034324 -0.00072064244 0)
(0.0075639159 -0.00061215962 0)
(0.0079476796 -0.00049839162 0)
(0.0082515103 -0.00038062737 0)
(0.0084730854 -0.00026016351 0)
(0.0086109724 -0.00013828773 0)
(0.0086646182 -1.6263412e-05 0)
(0.0086343296 0.00010468525 0)
(0.0085212418 0.00022338705 0)
(0.0083272773 0.0003387333 0)
(0.0080551035 0.00044968976 0)
(0.0077080751 0.00055530644 0)
(0.0072901757 0.00065472381 0)
(0.0068059534 0.00074717729 0)
(0.0062604537 0.00083199901 0)
(0.0056591525 0.00090861703 0)
(0.00500789 0.00097655185 0)
(0.0043128081 0.0010354106 0)
(0.0035802919 0.0010848798 0)
(0.002816918 0.0011247165 0)
(0.0020294077 0.0011547397 0)
(0.0012245874 0.0011748219 0)
(0.00040935426 0.0011848825 0)
(-0.00040935426 0.0011848825 0)
(-0.0012245874 0.0011748219 0)
(-0.0020294077 0.0011547397 0)
(-0.002816918 0.0011247165 0)
(-0.0035802919 0.0010848798 0)
(-0.0043128081 0.0010354106 0)
(-0.00500789 0.00097655185 0)
(-0.0056591525 0.00090861703 0)
(-0.0062604537 0.00083199901 0)
(-0.0068059534 0.00074717729 0)
(-0.0072901757 0.00065472381 0)
(-0.0077080751 0.00055530644 0)
(-0.0080551035 0.00044968976 0)
(-0.0083272773 0.0003387333 0)
(-0.0085212418 0.00022338705 0)
(-0.0086343296 0.00010468525 0)
(-0.0086646182 -1.6263411e-05 0)
(-0.0086109724 -0.00013828773 0)
(-0.0084730854 -0.00026016351 0)
(-0.0082515103 -0.00038062737 0)
(-0.0079476796 -0.00049839161 0)
(-0.0075639159 -0.00061215962 0)
(-0.0071034324 -0.00072064244 0)
(-0.0065703204 -0.00082257663 0)
(-0.0059695259 -0.00091674323 0)
(-0.0053068121 -0.0010019876 0)
(-0.0045887081 -0.0010772401 0)
(-0.0038224443 -0.001141536 0)
(-0.0030158727 -0.0011940357 0)
(-0.0021773757 -0.0012340428 0)
(-0.0013157613 -0.0012610197 0)
(-0.00044014947 -0.0012746008 0)
(0.00046702881 -0.0021727846 0)
(0.0013961291 -0.002149656 0)
(0.0023104245 -0.0021037138 0)
(0.0032002679 -0.0020355799 0)
(0.0040563396 -0.0019461681 0)
(0.0048697679 -0.0018366623 0)
(0.0056322376 -0.0017084895 0)
(0.0063360868 -0.0015632888 0)
(0.0069743896 -0.0014028776 0)
(0.0075410245 -0.0012292177 0)
(0.0080307278 -0.0010443801 0)
(0.0084391334 -0.00085051153 0)
(0.0087627989 -0.00064980318 0)
(0.0089992193 -0.00044446023 0)
(0.0091468285 -0.00023667415 0)
(0.0092049903 -2.859652e-05 0)
(0.0091739798 0.00017768524 0)
(0.0090549532 0.00038017013 0)
(0.0088499078 0.00057696431 0)
(0.0085616367 0.00076629915 0)
(0.0081936718 0.00094654776 0)
(0.0077502217 0.001116237 0)
(0.007236104 0.0012740556 0)
(0.0066566741 0.001418858 0)
(0.0060177533 0.001549663 0)
(0.0053255573 0.0016656481 0)
(0.0045866281 0.00176614 0)
(0.0038077713 0.0018506015 0)
(0.0029959989 0.0019186171 0)
(0.0021584793 0.0019698773 0)
(0.0013024941 0.0020041647 0)
(0.00043540052 0.0020213416 0)
(-0.00043540052 0.0020213416 0)
(-0.0013024941 0.0020041647 0)
(-0.0021584793 0.0019698773 0)
(-0.0029959989 0.0019186171 0)
(-0.0038077713 0.0018506015 0)
(-0.0045866281 0.00176614 0)
(-0.0053255573 0.0016656481 0)
(-0.0060177533 0.001549663 0)
(-0.0066566741 0.001418858 0)
(-0.0072361039 0.0012740556 0)
(-0.0077502217 0.001116237 0)
(-0.0081936718 0.00094654776 0)
(-0.0085616367 0.00076629915 0)
(-0.0088499078 0.00057696432 0)
(-0.0090549532 0.00038017013 0)
(-0.0091739798 0.00017768524 0)
(-0.0092049903 -2.8596518e-05 0)
(-0.0091468285 -0.00023667415 0)
(-0.0089992193 -0.00044446023 0)
(-0.0087627989 -0.00064980317 0)
(-0.0084391334 -0.00085051152 0)
(-0.0080307278 -0.0010443801 0)
(-0.0075410245 -0.0012292177 0)
(-0.0069743896 -0.0014028776 0)
(-0.0063360868 -0.0015632887 0)
(-0.0056322376 -0.0017084895 0)
(-0.0048697679 -0.0018366623 0)
(-0.0040563396 -0.0019461681 0)
(-0.0032002679 -0.0020355799 0)
(-0.0023104245 -0.0021037138 0)
(-0.0013961291 -0.002149656 0)
(-0.00046702881 -0.0021727846 0)
(0.00050550224 -0.0031360677 0)
(0.0015111658 -0.0031027404 0)
(0.0025008782 -0.0030365383 0)
(0.0034642433 -0.0029383548 0)
(0.0043912147 -0.0028095026 0)
(0.0052722237 -0.002651682 0)
(0.0060982957 -0.0024669418 0)
(0.0068611524 -0.0022576352 0)
(0.0075533003 -0.0020263714 0)
(0.008168103 -0.001775966 0)
(0.0086998389 -0.0015093924 0)
(0.0091437441 -0.0012297339 0)
(0.0094960415 -0.00094013901 0)
(0.0097539574 -0.0006437793 0)
(0.0099157262 -0.0003438099 0)
(0.0099805836 -4.3332767e-05 0)
(0.0099487504 0.00025463799 0)
(0.0098214041 0.00054720839 0)
(0.0096006403 0.00083163476 0)
(0.0092894261 0.001105351 0)
(0.0088915414 0.0013659928 0)
(0.0084115134 0.0016114163 0)
(0.0078545442 0.0018397115 0)
(0.007226433 0.0020492083 0)
(0.0065334971 0.0022384756 0)
(0.0057824926 0.0024063141 0)
(0.0049805393 0.0025517421 0)
(0.0041350497 0.0026739769 0)
(0.0032536655 0.0027724134 0)
(0.0023442019 0.0028466017 0)
(0.0014145991 0.0028962259 0)
(0.00047288092 0.0029210862 0)
(-0.00047288092 0.0029210862 0)
(-0.0014145991 0.0028962259 0)
(-0.0023442019 0.0028466017 0)
(-0.0032536655 0.0027724134 0)
(-0.0041350497 0.0026739769 0)
(-0.0049805393 0.0025517421 0)
(-0.0057824926 0.0024063141 0)
(-0.0065334971 0.0022384756 0)
(-0.007226433 0.0020492083 0)
(-0.0078545442 0.0018397115 0)
(-0.0084115134 0.0016114163 0)
(-0.0088915414 0.0013659928 0)
(-0.0092894261 0.001105351 0)
(-0.0096006403 0.00083163476 0)
(-0.0098214041 0.00054720839 0)
(-0.0099487504 0.000254638 0)
(-0.0099805836 -4.3332766e-05 0)
(-0.0099157262 -0.0003438099 0)
(-0.0097539574 -0.00064377929 0)
(-0.0094960415 -0.00094013901 0)
(-0.0091437441 -0.0012297339 0)
(-0.0086998389 -0.0015093924 0)
(-0.008168103 -0.001775966 0)
(-0.0075533003 -0.0020263714 0)
(-0.0068611524 -0.0022576352 0)
(-0.0060982957 -0.0024669418 0)
(-0.0052722237 -0.002651682 0)
(-0.0043912147 -0.0028095026 0)
(-0.0034642433 -0.0029383548 0)
(-0.0025008783 -0.0030365383 0)
(-0.0015111658 -0.0031027404 0)
(-0.00050550224 -0.0031360677 0)
(0.0005560978 -0.0041875737 0)
(0.0016624503 -0.0041431708 0)
(0.0027513515 -0.0040549651 0)
(0.0038114243 -0.0039241423 0)
(0.0048316706 -0.0037524435 0)
(0.0058016088 -0.0035421236 0)
(0.0067113992 -0.0032958994 0)
(0.0075519549 -0.0030168902 0)
(0.008315036 -0.0027085546 0)
(0.0089933282 -0.0023746249 0)
(0.0095805053 -0.0020190432 0)
(0.010071276 -0.0016458995 0)
(0.010461418 -0.0012593736 0)
(0.010747798 -0.00086368036 0)
(0.01092838 -0.00046301907 0)
(0.011002223 -6.152551e-05 0)
(0.010969468 0.0003367736 0)
(0.010831314 0.00072800339 0)
(0.010589978 0.0011084823 0)
(0.010248652 0.0014747599 0)
(0.009811438 0.0018236503 0)
(0.0092832817 0.0021522602 0)
(0.0086698912 0.0024580079 0)
(0.0079776516 0.002738634 0)
(0.007213536 0.0029922016 0)
(0.006385016 0.0032170871 0)
(0.0054999757 0.0034119619 0)
(0.0045666306 0.0035757676 0)
(0.0035934557 0.0037076867 0)
(0.0025891211 0.0038071123 0)
(0.0015624372 0.0038736185 0)
(0.00052230823 0.0039069365 0)
(-0.00052230823 0.0039069365 0)
(-0.0015624372 0.0038736185 0)
(-0.0025891211 0.0038071123 0)
(-0.0035934557 0.0037076867 0)
(-0.0045666306 0.0035757676 0)
(-0.0054999756 0.0034119619 0)
(-0.006385016 0.0032170871 0)
(-0.007213536 0.0029922016 0)
(-0.0079776516 0.002738634 0)
(-0.0086698912 0.0024580079 0)
(-0.0092832817 0.0021522602 0)
(-0.009811438 0.0018236503 0)
(-0.010248652 0.0014747599 0)
(-0.010589978 0.0011084823 0)
(-0.010831314 0.0007280034 0)
(-0.010969468 0.0003367736 0)
(-0.011002223 -6.1525508e-05 0)
(-0.01092838 -0.00046301906 0)
(-0.010747798 -0.00086368035 0)
(-0.010461418 -0.0012593736 0)
(-0.010071276 -0.0016458995 0)
(-0.0095805053 -0.0020190432 0)
(-0.0089933282 -0.0023746249 0)
(-0.008315036 -0.0027085546 0)
(-0.007551955 -0.0030168902 0)
(-0.0067113993 -0.0032958994 0)
(-0.0058016088 -0.0035421236 0)
(-0.0048316706 -0.0037524435 0)
(-0.0038114243 -0.0039241423 0)
(-0.0027513515 -0.0040549651 0)
(-0.0016624503 -0.0041431708 0)
(-0.0005560978 -0.0041875737 0)
(0.00062007424 -0.0053525006 0)
(0.0018537471 -0.0052958988 0)
(0.0030680781 -0.0051834567 0)
(0.0042504547 -0.0050166775 0)
(0.005388679 -0.0047977689 0)
(0.0064711184 -0.004529589 0)
(0.0074868424 -0.0042155807 0)
(0.0084257428 -0.0038596956 0)
(0.0092786368 -0.0034663147 0)
(0.010037352 -0.003040166 0)
(0.010694796 -0.0025862444 0)
(0.011245006 -0.0021097355 0)
(0.011683192 -0.0016159434 0)
(0.012005758 -0.0011102244 0)
(0.012210317 -0.00059792447 0)
(0.012295699 -8.432029e-05 0)
(0.012261933 0.00042543785 0)
(0.012110237 0.00092638062 0)
(0.011842977 0.0014137738 0)
(0.01146362 0.0018831687 0)
(0.010976677 0.0023304483 0)
(0.010387621 0.0027518656 0)
(0.0097028024 0.0031440723 0)
(0.008929352 0.003504135 0)
(0.0080750773 0.0038295375 0)
(0.0071483605 0.004118171 0)
(0.0061580579 0.0043683107 0)
(0.0051134063 0.0045785841 0)
(0.0040239386 0.0047479325 0)
(0.0028994094 0.0048755709 0)
(0.0017497326 0.00496095 0)
(0.0005849273 0.005003723 0)
(-0.00058492729 0.005003723 0)
(-0.0017497326 0.00496095 0)
(-0.0028994094 0.0048755709 0)
(-0.0040239386 0.0047479325 0)
(-0.0051134063 0.0045785841 0)
(-0.0061580579 0.0043683107 0)
(-0.0071483605 0.004118171 0)
(-0.0080750773 0.0038295375 0)
(-0.008929352 0.003504135 0)
(-0.0097028024 0.0031440723 0)
(-0.010387621 0.0027518656 0)
(-0.010976677 0.0023304483 0)
(-0.01146362 0.0018831687 0)
(-0.011842977 0.0014137738 0)
(-0.012110237 0.00092638063 0)
(-0.012261933 0.00042543785 0)
(-0.012295699 -8.4320288e-05 0)
(-0.012210317 -0.00059792447 0)
(-0.012005758 -0.0011102244 0)
(-0.011683192 -0.0016159434 0)
(-0.011245006 -0.0021097355 0)
(-0.010694796 -0.0025862444 0)
(-0.010037352 -0.003040166 0)
(-0.0092786368 -0.0034663147 0)
(-0.0084257428 -0.0038596956 0)
(-0.0074868424 -0.0042155806 0)
(-0.0064711184 -0.004529589 0)
(-0.005388679 -0.0047977689 0)
(-0.0042504547 -0.0050166775 0)
(-0.0030680781 -0.0051834567 0)
(-0.0018537471 -0.0052958988 0)
(-0.00062007424 -0.0053525006 0)
(0.000699403 -0.0066591741 0)
(0.0020909514 -0.0065889745 0)
(0.0034608212 -0.0064495142 0)
(0.0047948723 -0.0062426465 0)
(0.0060794233 -0.0059710922 0)
(0.0073014184 -0.0056383732 0)
(0.0084485773 -0.0052487296 0)
(0.0095095276 -0.0048070277 0)
(0.010473918 -0.0043186606 0)
(0.011332513 -0.0037894493 0)
(0.012077264 -0.0032255448 0)
(0.012701377 -0.0026333374 0)
(0.013199347 -0.0020193707 0)
(0.013566999 -0.0013902632 0)
(0.013801503 -0.00075263489 0)
(0.013901389 -0.00011303641 0)
(0.013866542 0.00052211924 0)
(0.01369819 0.0011466251 0)
(0.013398875 0.0017545488 0)
(0.012972406 0.0023402989 0)
(0.012423792 0.0028986869 0)
(0.011759165 0.0034249801 0)
(0.010985673 0.0039149421 0)
(0.010111379 0.0043648578 0)
(0.0091451303 0.0047715399 0)
(0.0080964475 0.0051323175 0)
(0.0069753995 0.0054450086 0)
(0.0057924959 0.0057078792 0)
(0.0045585862 0.0059195948 0)
(0.0032847741 0.0060791679 0)
(0.0019823432 0.006185909 0)
(0.00066269638 0.0062393841 0)
(-0.00066269638 0.0062393841 0)
(-0.0019823432 0.006185909 0)
(-0.0032847741 0.0060791679 0)
(-0.0045585862 0.0059195948 0)
(-0.0057924959 0.0057078792 0)
(-0.0069753995 0.0054450086 0)
(-0.0080964475 0.0051323175 0)
(-0.0091451303 0.0047715399 0)
(-0.010111379 0.0043648578 0)
(-0.010985673 0.0039149421 0)
(-0.011759165 0.0034249801 0)
(-0.012423792 0.0028986869 0)
(-0.012972406 0.0023402989 0)
(-0.013398875 0.0017545488 0)
(-0.01369819 0.0011466251 0)
(-0.013866542 0.00052211924 0)
(-0.013901389 -0.00011303641 0)
(-0.013801503 -0.00075263488 0)
(-0.013566999 -0.0013902632 0)
(-0.013199347 -0.0020193707 0)
(-0.012701377 -0.0026333374 0)
(-0.012077264 -0.0032255448 0)
(-0.011332513 -0.0037894493 0)
(-0.010473918 -0.0043186606 0)
(-0.0095095276 -0.0048070277 0)
(-0.0084485773 -0.0052487296 0)
(-0.0073014184 -0.0056383732 0)
(-0.0060794233 -0.0059710922 0)
(-0.0047948723 -0.0062426465 0)
(-0.0034608212 -0.0064495142 0)
(-0.0020909514 -0.0065889745 0)
(-0.000699403 -0.0066591741 0)
(0.0007967381 -0.0081405242 0)
(0.0023819999 -0.008055008 0)
(0.0039427242 -0.0078851118 0)
(0.0054629015 -0.0076330783 0)
(0.0069270352 -0.0073021989 0)
(0.0083203272 -0.0068967323 0)
(0.0096288445 -0.0064218042 0)
(0.010839666 -0.0058832944 0)
(0.011941009 -0.0052877184 0)
(0.012922331 -0.0046421077 0)
(0.013774412 -0.0039538955 0)
(0.014489428 -0.0032308088 0)
(0.015060996 -0.0024807705 0)
(0.015484218 -0.0017118084 0)
(0.015755711 -0.00093197147 0)
(0.015873626 -0.00014924817 0)
(0.015837654 0.00062851441 0)
(0.015649029 0.0013936937 0)
(0.015310495 0.0021389776 0)
(0.014826272 0.0028574508 0)
(0.014201981 0.0035426766 0)
(0.01344456 0.0041887702 0)
(0.012562144 0.0047904551 0)
(0.011563942 0.0053431 0)
(0.010460093 0.0058427315 0)
(0.0092615203 0.0062860224 0)
(0.0079797903 0.0066702589 0)
(0.006626982 0.006993289 0)
(0.0052155671 0.0072534609 0)
(0.0037583076 0.0074495564 0)
(0.0022681706 0.0075807271 0)
(0.00075825694 0.0076464404 0)
(-0.00075825694 0.0076464404 0)
(-0.0022681706 0.0075807271 0)
(-0.0037583076 0.0074495564 0)
(-0.0052155671 0.0072534609 0)
(-0.006626982 0.006993289 0)
(-0.0079797903 0.0066702589 0)
(-0.0092615203 0.0062860224 0)
(-0.010460093 0.0058427315 0)
(-0.011563942 0.0053431 0)
(-0.012562144 0.0047904551 0)
(-0.01344456 0.0041887702 0)
(-0.014201981 0.0035426766 0)
(-0.014826272 0.0028574508 0)
(-0.015310495 0.0021389776 0)
(-0.015649029 0.0013936937 0)
(-0.015837654 0.00062851442 0)
(-0.015873626 -0.00014924817 0)
(-0.015755711 -0.00093197146 0)
(-0.015484218 -0.0017118084 0)
(-0.015060996 -0.0024807705 0)
(-0.014489428 -0.0032308088 0)
(-0.013774412 -0.0039538955 0)
(-0.012922331 -0.0046421077 0)
(-0.011941009 -0.0052877184 0)
(-0.010839666 -0.0058832944 0)
(-0.0096288446 -0.0064218042 0)
(-0.0083203272 -0.0068967323 0)
(-0.0069270352 -0.0073021989 0)
(-0.0054629015 -0.0076330783 0)
(-0.0039427242 -0.0078851118 0)
(-0.0023819999 -0.008055008 0)
(-0.0007967381 -0.0081405242 0)
(0.00091533946 -0.0098354402 0)
(0.0027366412 -0.0097325114 0)
(0.0045299305 -0.0095280119 0)
(0.0062769259 -0.0092246214 0)
(0.0079599243 -0.0088262716 0)
(0.0095620088 -0.0083380472 0)
(0.011067237 -0.0077660653 0)
(0.012460804 -0.0071173405 0)
(0.013729183 -0.0063996428 0)
(0.014860239 -0.0056213574 0)
(0.015843327 -0.0047913507 0)
(0.016669362 -0.0039188464 0)
(0.017330885 -0.0030133145 0)
(0.017822108 -0.0020843695 0)
(0.018138961 -0.0011416769 0)
(0.018279118 -0.00019486161 0)
(0.018242022 0.00074658551 0)
(0.018028893 0.0016734073 0)
(0.017642713 0.0025766872 0)
(0.017088189 0.0034479601 0)
(0.016371686 0.0042793214 0)
(0.015501124 0.0050635259 0)
(0.014485846 0.0057940673 0)
(0.013336468 0.0064652313 0)
(0.012064711 0.0070721167 0)
(0.010683221 0.007610625 0)
(0.0092053999 0.0080774202 0)
(0.0076452494 0.0084698649 0)
(0.006017224 0.0087859421 0)
(0.0043361116 0.0090241695 0)
(0.0026169325 0.0091835193 0)
(0.0008748578 0.0092633484 0)
(-0.0008748578 0.0092633484 0)
(-0.0026169325 0.0091835193 0)
(-0.0043361116 0.0090241695 0)
(-0.006017224 0.0087859421 0)
(-0.0076452494 0.0084698649 0)
(-0.0092053999 0.0080774202 0)
(-0.010683221 0.007610625 0)
(-0.012064711 0.0070721167 0)
(-0.013336468 0.0064652313 0)
(-0.014485846 0.0057940673 0)
(-0.015501124 0.0050635259 0)
(-0.016371686 0.0042793214 0)
(-0.017088189 0.0034479601 0)
(-0.017642713 0.0025766872 0)
(-0.018028893 0.0016734073 0)
(-0.018242022 0.00074658551 0)
(-0.018279118 -0.00019486161 0)
(-0.018138961 -0.0011416769 0)
(-0.017822108 -0.0020843695 0)
(-0.017330885 -0.0030133145 0)
(-0.016669362 -0.0039188464 0)
(-0.015843327 -0.0047913507 0)
(-0.014860239 -0.0056213574 0)
(-0.013729183 -0.0063996428 0)
(-0.012460804 -0.0071173405 0)
(-0.011067237 -0.0077660653 0)
(-0.0095620088 -0.0083380471 0)
(-0.0079599243 -0.0088262716 0)
(-0.0062769259 -0.0092246214 0)
(-0.0045299305 -0.0095280119 0)
(-0.0027366412 -0.0097325114 0)
(-0.00091533946 -0.0098354402 0)
(0.0010589032 -0.011789866 0)
(0.0031659279 -0.011666985 0)
(0.0052407429 -0.01142283 0)
(0.0072623224 -0.011060577 0)
(0.0092102971 -0.010584881 0)
(0.011065191 -0.010001762 0)
(0.012808632 -0.009318456 0)
(0.01442354 -0.0085432578 0)
(0.015894278 -0.0076853524 0)
(0.01720679 -0.0067546504 0)
(0.018348697 -0.0057616334 0)
(0.019309393 -0.0047172133 0)
(0.020080108 -0.0036326083 0)
(0.020653971 -0.0025192315 0)
(0.021026065 -0.0013885898 0)
(0.021193472 -0.00025218364 0)
(0.021155313 0.00087859863 0)
(0.020912772 0.0019925981 0)
(0.020469101 0.0030790171 0)
(0.019829587 0.0041275619 0)
(0.019001483 0.0051285866 0)
(0.017993899 0.0060732277 0)
(0.016817646 0.0069535135 0)
(0.015485057 0.0077624404 0)
(0.014009777 0.0084940061 0)
(0.012406553 0.0091432007 0)
(0.010691024 0.0097059579 0)
(0.0088795269 0.010179075 0)
(0.006988927 0.010560114 0)
(0.0050364699 0.010847291 0)
(0.0030396644 0.011039376 0)
(0.0010161882 0.011135602 0)
(-0.0010161882 0.011135602 0)
(-0.0030396644 0.011039376 0)
(-0.0050364699 0.010847291 0)
(-0.006988927 0.010560114 0)
(-0.0088795269 0.010179075 0)
(-0.010691024 0.0097059579 0)
(-0.012406553 0.0091432007 0)
(-0.014009777 0.0084940061 0)
(-0.015485057 0.0077624404 0)
(-0.016817646 0.0069535135 0)
(-0.017993899 0.0060732277 0)
(-0.019001483 0.0051285866 0)
(-0.019829587 0.0041275619 0)
(-0.020469101 0.0030790171 0)
(-0.020912772 0.0019925981 0)
(-0.021155313 0.00087859863 0)
(-0.021193472 -0.00025218364 0)
(-0.021026065 -0.0013885898 0)
(-0.020653971 -0.0025192315 0)
(-0.020080108 -0.0036326083 0)
(-0.019309393 -0.0047172133 0)
(-0.018348697 -0.0057616334 0)
(-0.01720679 -0.0067546504 0)
(-0.015894278 -0.0076853524 0)
(-0.01442354 -0.0085432578 0)
(-0.012808632 -0.009318456 0)
(-0.011065191 -0.010001762 0)
(-0.0092102971 -0.010584881 0)
(-0.0072623224 -0.011060577 0)
(-0.0052407429 -0.01142283 0)
(-0.0031659279 -0.011666985 0)
(-0.0010589032 -0.011789866 0)
(0.0012312436 -0.014057442 0)
(0.003681266 -0.013911547 0)
(0.0060940488 -0.013621653 0)
(0.0084452766 -0.013191498 0)
(0.010711385 -0.012626563 0)
(0.01286983 -0.01193393 0)
(0.014899327 -0.01112211 0)
(0.016780067 -0.010200854 0)
(0.018493888 -0.0091809528 0)
(0.020024424 -0.0080740504 0)
(0.021357226 -0.0068924609 0)
(0.022479858 -0.0056490131 0)
(0.023381975 -0.0043569123 0)
(0.024055402 -0.0030296218 0)
(0.024494191 -0.001680756 0)
(0.024694695 -0.00032397494 0)
(0.024655624 0.0010271316 0)
(0.024378095 0.0023591801 0)
(0.023865657 0.003659155 0)
(0.023124273 0.004914591 0)
(0.022162253 0.006113764 0)
(0.020990133 0.0072458729 0)
(0.019620493 0.0083011909 0)
(0.018067735 0.0092711717 0)
(0.016347835 0.010148501 0)
(0.014478077 0.010927088 0)
(0.0124768 0.011602007 0)
(0.010363161 0.012169397 0)
(0.0081569274 0.012626333 0)
(0.0058783018 0.01297069 0)
(0.0035477851 0.013201007 0)
(0.0011860656 0.013316382 0)
(-0.0011860656 0.013316382 0)
(-0.0035477851 0.013201007 0)
(-0.0058783018 0.01297069 0)
(-0.0081569274 0.012626333 0)
(-0.010363161 0.012169397 0)
(-0.0124768 0.011602007 0)
(-0.014478077 0.010927088 0)
(-0.016347835 0.010148501 0)
(-0.018067735 0.0092711717 0)
(-0.019620493 0.0083011909 0)
(-0.020990133 0.0072458729 0)
(-0.022162253 0.006113764 0)
(-0.023124273 0.004914591 0)
(-0.023865657 0.003659155 0)
(-0.024378095 0.0023591801 0)
(-0.024655624 0.0010271316 0)
(-0.024694695 -0.00032397493 0)
(-0.024494191 -0.001680756 0)
(-0.024055402 -0.0030296217 0)
(-0.023381975 -0.0043569123 0)
(-0.022479858 -0.0056490131 0)
(-0.021357226 -0.0068924609 0)
(-0.020024424 -0.0080740504 0)
(-0.018493888 -0.0091809528 0)
(-0.016780067 -0.010200854 0)
(-0.014899327 -0.01112211 0)
(-0.01286983 -0.01193393 0)
(-0.010711385 -0.012626563 0)
(-0.0084452766 -0.013191498 0)
(-0.0060940488 -0.013621653 0)
(-0.003681266 -0.013911547 0)
(-0.0012312436 -0.014057442 0)
(0.0014357666 -0.016699331 0)
(0.0042928399 -0.016526771 0)
(0.0071067114 -0.016183875 0)
(0.0098491667 -0.015675028 0)
(0.012492853 -0.015006656 0)
(0.015011588 -0.014187058 0)
(0.017380637 -0.013226205 0)
(0.019576954 -0.012135512 0)
(0.021579385 -0.01092761 0)
(0.023368833 -0.0096161193 0)
(0.024928397 -0.0082154483 0)
(0.026243477 -0.0067406133 0)
(0.027301867 -0.0052070888 0)
(0.028093837 -0.0036306824 0)
(0.028612211 -0.0020274266 0)
(0.028852454 -0.00041347316 0)
(0.028812759 0.0011950288 0)
(0.028494125 0.0027820865 0)
(0.027900419 0.0043320599 0)
(0.027038378 0.005829895 0)
(0.02591755 0.007261377 0)
(0.024550156 0.0086133758 0)
(0.02295088 0.009874054 0)
(0.021136598 0.011033015 0)
(0.019126069 0.012081376 0)
(0.016939609 0.013011765 0)
(0.014598782 0.013818244 0)
(0.012126106 0.014496185 0)
(0.0095448055 0.015042102 0)
(0.0068786022 0.01545348 0)
(0.0041515521 0.015728604 0)
(0.0013879194 0.015866417 0)
(-0.0013879194 0.015866417 0)
(-0.0041515521 0.015728604 0)
(-0.0068786022 0.01545348 0)
(-0.0095448055 0.015042102 0)
(-0.012126106 0.014496185 0)
(-0.014598782 0.013818244 0)
(-0.016939609 0.013011765 0)
(-0.019126069 0.012081376 0)
(-0.021136598 0.011033015 0)
(-0.02295088 0.009874054 0)
(-0.024550156 0.0086133758 0)
(-0.02591755 0.007261377 0)
(-0.027038378 0.005829895 0)
(-0.027900419 0.0043320599 0)
(-0.028494125 0.0027820865 0)
(-0.028812759 0.0011950288 0)
(-0.028852454 -0.00041347316 0)
(-0.028612211 -0.0020274266 0)
(-0.028093837 -0.0036306824 0)
(-0.027301867 -0.0052070888 0)
(-0.026243477 -0.0067406133 0)
(-0.024928397 -0.0082154483 0)
(-0.023368833 -0.0096161193 0)
(-0.021579385 -0.01092761 0)
(-0.019576954 -0.012135512 0)
(-0.017380637 -0.013226205 0)
(-0.015011588 -0.014187058 0)
(-0.012492853 -0.015006656 0)
(-0.0098491667 -0.015675028 0)
(-0.0071067114 -0.016183875 0)
(-0.0042928399 -0.016526771 0)
(-0.0014357666 -0.016699331 0)
(0.0016746746 -0.019782759 0)
(0.0050072353 -0.019579231 0)
(0.0082896345 -0.019174776 0)
(0.011489106 -0.01857452 0)
(0.014573873 -0.017785977 0)
(0.017513507 -0.016818848 0)
(0.020279243 -0.015684778 0)
(0.02284426 -0.014397099 0)
(0.025183914 -0.012970551 0)
(0.02727593 -0.011421028 0)
(0.029100556 -0.0097653413 0)
(0.030640684 -0.0080210122 0)
(0.031881948 -0.0062061126 0)
(0.032812811 -0.0043391326 0)
(0.033424657 -0.0024388773 0)
(0.033711891 -0.00052436891 0)
(0.03367206 0.0013852721 0)
(0.033305978 0.003270994 0)
(0.032617827 0.0051140491 0)
(0.031615203 0.0068962925 0)
(0.030309073 0.008600518 0)
(0.028713618 0.010210791 0)
(0.026845986 0.011712732 0)
(0.02472596 0.013093724 0)
(0.022375575 0.014343011 0)
(0.019818718 0.0154517 0)
(0.017080743 0.016412665 0)
(0.014188115 0.017220385 0)
(0.011168113 0.017870733 0)
(0.0080485792 0.018360752 0)
(0.0048577302 0.01868844 0)
(0.001624011 0.018852574 0)
(-0.001624011 0.018852574 0)
(-0.0048577302 0.01868844 0)
(-0.0080485792 0.018360752 0)
(-0.011168113 0.017870733 0)
(-0.014188115 0.017220385 0)
(-0.017080743 0.016412665 0)
(-0.019818718 0.0154517 0)
(-0.022375575 0.014343011 0)
(-0.02472596 0.013093724 0)
(-0.026845986 0.011712732 0)
(-0.028713618 0.010210791 0)
(-0.030309073 0.008600518 0)
(-0.031615203 0.0068962925 0)
(-0.032617827 0.0051140491 0)
(-0.033305978 0.003270994 0)
(-0.03367206 0.0013852721 0)
(-0.033711891 -0.00052436891 0)
(-0.033424657 -0.0024388773 0)
(-0.032812811 -0.0043391326 0)
(-0.031881948 -0.0062061126 0)
(-0.030640684 -0.0080210122 0)
(-0.029100556 -0.0097653412 0)
(-0.02727593 -0.011421028 0)
(-0.025183914 -0.012970551 0)
(-0.02284426 -0.014397099 0)
(-0.020279243 -0.015684778 0)
(-0.017513507 -0.016818848 0)
(-0.014573873 -0.017785977 0)
(-0.011489106 -0.01857452 0)
(-0.0082896345 -0.019174776 0)
(-0.0050072353 -0.019579231 0)
(-0.0016746746 -0.019782759 0)
(0.0019478563 -0.023377679 0)
(0.0058241183 -0.023138199 0)
(0.0096422629 -0.022662274 0)
(0.013364319 -0.021955884 0)
(0.016953452 -0.021027794 0)
(0.020374375 -0.019889314 0)
(0.023593714 -0.018554023 0)
(0.026580335 -0.017037457 0)
(0.029305613 -0.015356791 0)
(0.031743656 -0.013530539 0)
(0.033871478 -0.011578273 0)
(0.035669135 -0.0095203942 0)
(0.037119824 -0.0073779456 0)
(0.038209972 -0.0051724802 0)
(0.038929315 -0.0029259665 0)
(0.039271025 -0.00066071322 0)
(0.039231851 0.0016007294 0)
(0.038812316 0.0038357387 0)
(0.038016883 0.0060218959 0)
(0.036854062 0.0081373682 0)
(0.035336392 0.010161357 0)
(0.033480282 0.012074552 0)
(0.031305708 0.013859516 0)
(0.028835802 0.015500969 0)
(0.026096381 0.016985924 0)
(0.023115451 0.018303693 0)
(0.019922732 0.01944576 0)
(0.016549232 0.020405574 0)
(0.013026884 0.021178273 0)
(0.0093882574 0.021760404 0)
(0.0056663339 0.022149651 0)
(0.0018943453 0.022344606 0)
(-0.0018943453 0.022344606 0)
(-0.0056663339 0.022149651 0)
(-0.0093882574 0.021760404 0)
(-0.013026884 0.021178273 0)
(-0.016549232 0.020405574 0)
(-0.019922732 0.01944576 0)
(-0.023115451 0.018303693 0)
(-0.026096381 0.016985924 0)
(-0.028835802 0.015500969 0)
(-0.031305708 0.013859516 0)
(-0.033480282 0.012074552 0)
(-0.035336392 0.010161357 0)
(-0.036854062 0.0081373682 0)
(-0.038016883 0.0060218959 0)
(-0.038812316 0.0038357387 0)
(-0.039231851 0.0016007294 0)
(-0.039271025 -0.00066071321 0)
(-0.038929315 -0.0029259665 0)
(-0.038209972 -0.0051724802 0)
(-0.037119824 -0.0073779456 0)
(-0.035669135 -0.0095203942 0)
(-0.033871478 -0.011578273 0)
(-0.031743656 -0.013530539 0)
(-0.029305613 -0.015356791 0)
(-0.026580335 -0.017037457 0)
(-0.023593714 -0.018554023 0)
(-0.020374375 -0.019889314 0)
(-0.016953452 -0.021027794 0)
(-0.013364319 -0.021955884 0)
(-0.0096422629 -0.022662274 0)
(-0.0058241183 -0.023138199 0)
(-0.0019478563 -0.023377679 0)
(0.0022514384 -0.02755087 0)
(0.0067319065 -0.027269806 0)
(0.011145415 -0.026711207 0)
(0.015448207 -0.025882034 0)
(0.019597821 -0.024792485 0)
(0.023553567 -0.023455719 0)
(0.027276945 -0.021887539 0)
(0.030732028 -0.02010602 0)
(0.033885775 -0.018131148 0)
(0.036708298 -0.015984455 0)
(0.039173061 -0.0136887 0)
(0.041257027 -0.011267586 0)
(0.042940751 -0.0087455516 0)
(0.044208446 -0.0061476223 0)
(0.045048048 -0.003499341 0)
(0.04545132 -0.0008267338 0)
(0.045414049 0.0018437357 0)
(0.044936304 0.0044853126 0)
(0.044022727 0.0070712649 0)
(0.042682731 0.0095753735 0)
(0.040930536 0.011972536 0)
(0.038785 0.014239383 0)
(0.036269257 0.016354814 0)
(0.033410203 0.018300371 0)
(0.030237913 0.020060427 0)
(0.026785021 0.021622187 0)
(0.023086149 0.022975526 0)
(0.019177387 0.02411271 0)
(0.01509587 0.025028051 0)
(0.010879437 0.025717546 0)
(0.0065663771 0.026178529 0)
(0.0021952491 0.026409396 0)
(-0.0021952491 0.026409396 0)
(-0.0065663771 0.026178529 0)
(-0.010879437 0.025717546 0)
(-0.01509587 0.025028051 0)
(-0.019177387 0.02411271 0)
(-0.023086149 0.022975526 0)
(-0.026785021 0.021622187 0)
(-0.030237913 0.020060427 0)
(-0.033410203 0.018300371 0)
(-0.036269257 0.016354814 0)
(-0.038785 0.014239383 0)
(-0.040930536 0.011972536 0)
(-0.042682731 0.0095753735 0)
(-0.044022727 0.0070712649 0)
(-0.044936304 0.0044853126 0)
(-0.045414049 0.0018437357 0)
(-0.04545132 -0.00082673379 0)
(-0.045048048 -0.003499341 0)
(-0.044208446 -0.0061476223 0)
(-0.042940751 -0.0087455516 0)
(-0.041257027 -0.011267586 0)
(-0.039173061 -0.0136887 0)
(-0.036708298 -0.015984455 0)
(-0.033885775 -0.018131148 0)
(-0.030732028 -0.02010602 0)
(-0.027276945 -0.021887539 0)
(-0.023553567 -0.023455719 0)
(-0.019597821 -0.024792485 0)
(-0.015448207 -0.025882034 0)
(-0.011145415 -0.026711207 0)
(-0.0067319065 -0.027269806 0)
(-0.0022514384 -0.02755087 0)
(0.0025760268 -0.032356828 0)