/*--------------------------------*- C++ -*----------------------------------*\
| =========                 |                                                 |
| \\      /  F ield         | OpenFOAM: The Open Source CFD Toolbox           |
|  \\    /   O peration     | Version:  2106                                  |
|   \\  /    A nd           | Website:  www.openfoam.com                      |
|    \\/     M anipulation  |                                                 |
\*---------------------------------------------------------------------------*/
FoamFile
{
    version     2.0;
    format      ascii;
    arch        "LSB;label=32;scalar=64";
    class       surfaceScalarField;
    location    "0.038";
    object      phi;
}
// * * * * * * * * * * * * * * * * * * * * * * * * * * * * * * * * * * * * * //

dimensions      [0 3 -1 0 0 0 0];

oriented        oriented;

internalField   nonuniform List<scalar> 
1984
(
-0.00032172973
0.00032173313
-0.00063104121
0.00030931148
-0.0009159955
0.00028495429
-0.0011656096
0.00024961411
-0.0013702802
0.00020467059
-0.0015221539
0.0001518737
-0.0016154248
9.3270944e-05
-0.001646563
3.1138149e-05
-0.0016144283
-3.2134728e-05
-0.0015203111
-9.4117203e-05
-0.0013678749
-0.00015243619
-0.0011630084
-0.00020486652
-0.00091359441
-0.00024941394
-0.00062920595
-0.00028438846
-0.00032073991
-0.00030846604
-3.3362435e-09
-0.00032073658
0.00032073338
-0.00032073672
0.00062919984
-0.00030846646
0.00091358898
-0.00028438913
0.0011630038
-0.00024941482
0.0013678714
-0.00020486756
0.0015203087
-0.00015243735
0.0016144271
-9.4118428e-05
0.0016465631
-3.2135981e-05
0.0016154262
3.1136902e-05
0.0015221565
9.3269736e-05
0.0013702839
0.00015187256
0.0011656143
0.00020466957
0.00091600109
0.00024961325
0.00063104746
0.00028495364
0.00032173639
0.00030931107
0.00032173299
-0.00033357985
0.00065531649
-0.00065428094
0.00063001256
-0.00094972216
0.00058039551
-0.0012085147
0.00050840663
-0.0014207016
0.00041685748
-0.0015781424
0.00030931449
-0.0016748253
0.0001899539
-0.0017070865
6.3399306e-05
-0.0016737497
-6.5471476e-05
-0.0015761567
-0.00019171026
-0.0014181077
-0.00031048519
-0.0012057086
-0.00041726564
-0.00094713169
-0.00050799081
-0.00065230082
-0.00057921934
-0.00033251176
-0.0006282551
-3.4411631e-09
-0.00065324489
0.00033250503
-0.00065324519
0.00065229453
-0.00062825596
0.00094712611
-0.00057922071
0.0012057039
-0.00050799261
0.0014181041
-0.00041726777
0.0015761543
-0.00031048754
0.0016737486
-0.00019171273
0.0017070866
-6.5474005e-05
0.0016748267
6.3396792e-05
0.001578145
0.00018995146
0.0014207054
0.0003093122
0.0012085195
0.00041685542
0.0009497279
0.00050840488
0.00065428736
0.00058039417
0.00033358671
0.00063001172
0.0006553162
-0.0003523201
0.0010076403
-0.0006910344
0.00096872686
-0.0010030636
0.00089242474
-0.0012763781
0.00078172106
-0.0015004624
0.0006409418
-0.0016667219
0.00047557399
-0.0017688104
0.00029204239
-0.0018028638
9.7452721e-05
-0.0017676419
-0.00010069332
-0.0016645641
-0.00029478812
-0.001497644
-0.0004774052
-0.0012733293
-0.00064158035
-0.0010002494
-0.00078107075
-0.00068888334
-0.00089058539
-0.00035115975
-0.00096597869
-3.6130974e-09
-0.001004401
0.00035115269
-0.0010044015
0.00068887677
-0.00096598004
0.0010002436
-0.00089058753
0.0012733245
-0.00078107355
0.0014976404
-0.00064158362
0.0016645616
-0.0004774088
0.0017676408
-0.00029479189
0.0018028639
-0.00010069715
0.0017688118
9.7448923e-05
0.0016667246
0.0002920387
0.0015004663
0.0004755705
0.0012763831
0.00064093863
0.0010030696
0.00078171836
0.0006910411
0.00089242265
0.00035232727
0.00096872554
0.0010076398
-0.00037992684
0.001387571
-0.00074517735
0.0013339774
-0.0010816442
0.0012288916
-0.0013763543
0.0010764311
-0.00161797
0.00088255758
-0.0017972279
0.00065483185
-0.0019072898
0.0004021043
-0.0019439955
0.0001341584
-0.0019060108
-0.00013867805
-0.0017948657
-0.0004059332
-0.0016148855
-0.00065738534
-0.0013730184
-0.00088344745
-0.0010785657
-0.0010755235
-0.00074282465
-0.0012263264
-0.00037865782
-0.0013301455
-3.8918852e-09
-0.001383055
0.00037865023
-0.0013830556
0.00074281763
-0.0013301474
0.0010785595
-0.0012263294
0.0013730134
-0.0010755274
0.0016148818
-0.00088345199
0.0017948633
-0.00065739026
0.0019060097
-0.00040593831
0.0019439957
-0.0001386832
0.0019072913
0.00013415331
0.0017972307
0.00040209934
0.0016179741
0.00065482711
0.0013763595
0.00088255322
0.0010816505
0.0010764273
0.00074518449
0.0012288887
0.00037993453
0.0013339755
0.0013875704
-0.000419508
0.0018070834
-0.00082280476
0.0017372741
-0.0011943091
0.001600396
-0.0015196955
0.0014018175
-0.0017864491
0.0011493111
-0.0019843482
0.00085273095
-0.0021058515
0.00052360761
-0.0021463735
0.00017468047
-0.0021044446
-0.00018060697
-0.0019817504
-0.00052862744
-0.0017830582
-0.00085607748
-0.0015160299
-0.0011504758
-0.0011909275
-0.001400626
-0.00082022132
-0.0015970325
-0.00041811491
-0.0017322519
-4.3507203e-09
-0.0018011655
0.00041810646
-0.0018011664
0.00082021357
-0.0017322546
0.0011909208
-0.0015970366
0.0015160246
-0.0014006312
0.0017830543
-0.0011504817
0.0019817479
-0.00085608386
0.0021044436
-0.00052863396
0.0021463739
-0.00018061346
0.0021058531
0.00017467408
0.0019843511
0.00052360134
0.0017864533
0.00085272489
0.0015197011
0.0011493054
0.0011943159
0.0014018125
0.0008228126
0.001600392
0.00041951654
0.0017372716
0.0018070825
-0.00047599618
0.0022830848
-0.00093359061
0.0021948686
-0.0013550988
0.0020219042
-0.0017242663
0.001770985
-0.0020268987
0.0014519435
-0.0022514096
0.0010772418
-0.0023892557
0.00066145372
-0.0024352452
0.00022066999
-0.0023877131
-0.00022813912
-0.0022485621
-0.00066777845
-0.0020231841
-0.0010814554
-0.0017202533
-0.0014534066
-0.0013513991
-0.0017694802
-0.00093076577
-0.0020176658
-0.00047447381
-0.0021885439
-5.1227808e-09
-0.0022756342
0.0004744639
-0.0022756355
0.00093075679
-0.0021885474
0.0013513915
-0.0020176713
0.0017202474
-0.0017694871
0.0020231799
-0.0014534143
0.0022485596
-0.0010814635
0.0023877121
-0.00066778651
0.0024352456
-0.00022814698
0.0023892574
0.00022066231
0.0022514126
0.00066144614
0.0020269033
0.0010772342
0.0017242724
0.0014519363
0.0013551065
0.0017709784
0.00093359962
0.0020218989
0.00047600611
0.0021948651
0.0022830835
-0.00055689751
0.0028399886
-0.001092258
0.0027302291
-0.001585386
0.0025150322
-0.0020172658
0.0022028648
-0.0023712992
0.0018059769
-0.0026339457
0.0013398882
-0.0027952285
0.00082273652
-0.0028490861
0.00027452768
-0.0027935702
-0.00028365502
-0.0026308867
-0.00083046203
-0.0023673125
-0.0013450295
-0.0020129637
-0.0018077555
-0.0015814239
-0.00220102
-0.0010892359
-0.0025098538
-0.00055527074
-0.0027225091
-6.4079758e-09
-0.0028308985
0.00055525839
-0.0028309002
0.0010892249
-0.0027225139
0.0015814148
-0.0025098612
0.0020129568
-0.0022010291
0.0023673079
-0.0018077655
0.0026308842
-0.0013450397
0.0027935695
-0.00083047184
0.0028490868
-0.0002836643
0.0027952304
0.00027451876
0.0026339489
0.0008227276
0.0023713041
0.001339879
0.0020172727
0.0018059677
0.001585395
0.0022028561
0.0010922689
0.002515025
0.00055690977
0.0027302242
0.0028399869
-0.00067230777
0.0035123048
-0.0013186126
0.0033765339
-0.0019139287
0.0031103482
-0.0024353041
0.0027242402
-0.0028627108
0.0022333836
-0.0031798182
0.0016569956
-0.0033746009
0.0010175192
-0.0034397514
0.00033967815
-0.0033729091
-0.00035049729
-0.0031767006
-0.0010266705
-0.0028586548
-0.0016630754
-0.0024309355
-0.0022354747
-0.001909913
-0.0027220425
-0.0013155553
-0.0031042115
-0.0006706658
-0.0033673986
-8.439843e-09
-0.0035015559
0.0006706496
-0.0035015583
0.001315541
-0.0033674053
0.0019099015
-0.0031042217
0.0024309272
-0.0027220549
0.0028586495
-0.0022354879
0.0031766981
-0.0016630883
0.0033729087
-0.0010266824
0.0034397524
-0.00035050799
0.003374603
0.00033966813
0.0031798216
0.001017509
0.0028627161
0.0016569845
0.0024353121
0.0022333717
0.0019139397
0.0027242285
0.0013186265
0.0031103382
0.0006723237
0.003376527
0.0035123022
-0.00083287843
0.0043451945
-0.001633557
0.0041772124
-0.0023710916
0.0038478829
-0.0030170602
0.0033702088
-0.0035466584
0.0027629818
-0.0039396615
0.0020499988
-0.0041811802
0.0012590379
-0.0042621572
0.00042065524
-0.004179644
-0.00043301055
-0.0039368361
-0.0012694784
-0.003542995
-0.0020569164
-0.0030131297
-0.00276534
-0.0023674917
-0.0033676806
-0.0016308263
-0.0038408768
-0.00083141928
-0.0041668056
-1.140143e-08
-0.0043329638
0.00083139749
-0.0043329672
0.0016308074
-0.0041668152
0.0023674768
-0.0038408911
0.0030131195
-0.0033676975
0.0035429892
-0.0027653576
0.0039368339
-0.0020569331
0.0041796444
-0.0012694929
0.004262159
-0.00043302255
0.0041811825
0.00042064461
0.0039396648
0.0012590267
0.003546664
0.0020499853
0.0030170695
0.0027629663
0.0023711053
0.0033701926
0.001633575
0.0038478685
0.00083289968
0.0041772024
0.0043451906
-0.0010439906
0.0053892002
-0.0020476663
0.0051808881
-0.0029722714
0.004772488
-0.0037822031
0.0041801404
-0.0044463652
0.0034271439
-0.0049393835
0.0025430171
-0.0052425715
0.0015622259
-0.0053445346
0.00052261834
-0.0052415239
-0.00053602133
-0.0049374633
-0.001573539
-0.0044438967
-0.002550483
-0.003779581
-0.0034296557
-0.0029698921
-0.0041773694
-0.0020458801
-0.0047648889
-0.0010430511
-0.0051696346
-1.5329239e-08
-0.0053759995
0.0010430219
-0.0053760044
0.0020458551
-0.0051696484
0.0029698732
-0.0047649093
0.0037795687
-0.004177393
0.0044438906
-0.0034296795
0.0049374624
-0.0025505049
0.0052415262
-0.0015735567
0.0053445377
-0.00053603407
0.0052425739
0.00052260843
0.0049393859
0.0015622148
0.0044463701
0.0025430011
0.003782213
0.0034271234
0.002972288
0.0041801176
0.0020476896
0.004772467
0.0010440189
0.005180873
0.0053891944
-0.0012946736
0.006683894
-0.0025394549
0.0064256694
-0.0036863466
0.0059193797
-0.0046912431
0.0051850369
-0.0055155547
0.0042514555
-0.0061277287
0.0031551911
-0.0065045117
0.0019390089
-0.0066316535
0.00064976016
-0.0065044107
-0.00066326409
-0.0061275497
-0.0019504
-0.0055153579
-0.0031626748
-0.0046910817
-0.0042539319
-0.003686241
-0.0051822101
-0.0025394159
-0.005911714
-0.0012946907
-0.0064143598
-2.0183634e-08
-0.00667067
0.0012946525
-0.0066706771
0.0025393838
-0.0064143797
0.003686218
-0.0059117434
0.0046910683
-0.0051822433
0.0055153533
-0.0042539645
0.0061275523
-0.0031627038
0.0065044173
-0.0019504218
0.0066316591
-0.00066327583
0.0065045131
0.00064975441
0.0061277276
0.0019390003
0.0055155564
0.0031551723
0.0046912517
0.004251428
0.0036863652
0.0051850041
0.002539484
0.0059193482
0.0012947106
0.0064256464
0.0066838849
-0.0015418608
0.008225782
-0.0030244906
0.0079082992
-0.0043908204
0.0072857095
-0.0055884147
0.0063826312
-0.0065712575
0.0052342984
-0.0073015734
0.003885507
-0.0077515168
0.0023889523
-0.0079038632
0.00080210659
-0.0077528245
-0.00081430275
-0.0073039741
-0.0023992504
-0.0065743329
-0.003892316
-0.0055917166
-0.0052365483
-0.0043938754
-0.0063800513
-0.0030268656
-0.0072787238
-0.0015432006
-0.0078980249
-2.6479825e-08
-0.0082138441
0.001543151
-0.0082138545
0.0030268254
-0.0078980542
0.0043938492
-0.0072787673
0.005591705
-0.0063800991
0.0065743337
-0.0052365931
0.0073039848
-0.0038923549
0.0077528404
-0.0023992773
0.0079038735
-0.00081430893
0.0077515141
0.00080211378
0.0073015626
0.0023889518
0.0065712501
0.0038854849
0.0055884176
0.0052342605
0.0043908392
0.0063825824
0.0030245266
0.0072856609
0.0015419098
0.0079082631
0.0082257675
-0.0016958071
0.0099216299
-0.0033267789
0.0095392709
-0.0048302242
0.0087891548
-0.0061486422
0.0077010492
-0.0072313227
0.0063169789
-0.0080363523
0.0046905366
-0.0085328428
0.0028854428
-0.0087014029
0.00097066668
-0.0085353635
-0.0009803422
-0.0080410849
-0.002893529
-0.0072375618
-0.0046958391
-0.0061553561
-0.006318754
-0.0048363698
-0.0076990376
-0.0033315036
-0.0087835899
-0.0016984527
-0.0095310759
-3.671373e-08
-0.0099122601
0.0016983853
-0.0099122766
0.0033314521
-0.0095311209
0.0048363419
-0.008783657
0.006155353
-0.0076991102
0.0072375772
-0.0063188173
0.0080411139
-0.0046958917
0.0085353994
-0.0028935628
0.0087014221
-0.00098033161
0.0085328268
0.00097070905
0.0080363162
0.0028854623
0.0072312922
0.0046905089
0.006148629
0.0063169238
0.0048302401
0.0077009713
0.0033268267
0.0087890743
0.001695879
0.0095392108
0.0099216057
-0.0016219381
0.01154364
-0.0031823675
0.0110997
-0.0046212849
0.010228072
-0.0058839623
0.0089637266
-0.0069216736
0.0073546901
-0.0076939189
0.0054627819
-0.0081710271
0.003362551
-0.0083336015
0.0011332411
-0.008174604
-0.0011393397
-0.0077004075
-0.0033677254
-0.0069298292
-0.0054664175
-0.0058923915
-0.0073561917
-0.0046288639
-0.0089625652
-0.0031881506
-0.010224303
-0.0016251963
-0.01109403
-5.55622e-08
-0.011537401
0.0016250979
-0.01153743
0.0031880806
-0.011094104
0.0046288349
-0.010224411
0.0058924088
-0.0089626842
0.0069298785
-0.007356287
0.0077004754
-0.0054664886
0.008174682
-0.0033677694
0.0083336391
-0.0011392887
0.0081709788
0.0011333693
0.0076938248
0.0033626163
0.0069215885
0.0054627452
0.0058839078
0.0073546044
0.00462129
0.0089635891
0.0031824404
0.010227924
0.001622062
0.011099589
0.011543596
-0.0011871847
0.012730954
-0.0023302366
0.012242752
-0.0033847778
0.011282613
-0.0043116573
0.0098906062
-0.0050749656
0.0081179985
-0.0056431832
0.0060309994
-0.0059944351
0.0037138029
-0.0061142148
0.0012530208
-0.0059967916
-0.0012567629
-0.0056477818
-0.0037167352
-0.0050812627
-0.0060329365
-0.0043187114
-0.0081187431
-0.0033914352
-0.0098898414
-0.0023353132
-0.011280425
-0.001189834
-0.012239509
-8.0183683e-08
-0.012727155
0.0011896994
-0.01272721
0.0023352203
-0.012239624
0.0033913984
-0.011280589
0.0043187608
-0.0098900466
0.0050813758
-0.008118902
0.005647915
-0.0060330278
0.0059969381
-0.0037167925
0.006114284
-0.0012566347
0.0059943363
0.0012533171
0.0056429954
0.0037139572
0.0050747831
0.0060309575
0.0043115133
0.0081178743
0.003384749
0.0098903534
0.0023303491
0.011282324
0.0011874031
0.012242535
0.012730869
-0.00038991348
0.013121023
-0.00076707427
0.012619913
-0.0011144653
0.011630004
-0.0014214053
0.010197546
-0.001676761
0.0083733542
-0.0018660371
0.0062202755
-0.001983302
0.0038310677
-0.0020243376
0.0012940565
-0.0019861708
-0.0012949297
-0.0018719956
-0.0038309105
-0.0016850679
-0.0062198642
-0.0014306963
-0.0083731146
-0.0011233121
-0.010197226
-0.00077400676
-0.011629731
-0.00039382601
-0.01261969
-6.8716553e-08
-0.013120912
0.00039372458
-0.013121003
0.00077393095
-0.012619831
0.0011232441
-0.011629903
0.0014307508
-0.010197553
0.0016852491
-0.0083734002
0.0018721538
-0.0062199325
0.0019863193
-0.003830958
0.0020244268
-0.0012947421
0.0019831769
0.0012945669
0.0018658514
0.0038312826
0.0016765562
0.0062202528
0.0014211665
0.0083732639
0.0011143849
0.010197135
0.0007671917
0.011629517
0.00039016746
0.012619559
0.013120881
0.00038858595
0.012732284
0.00076397963
0.012244519
0.0011089233
0.011285061
0.0014125601
0.0098939093
0.0016638289
0.0081220854
0.0018486169
0.0060354876
0.0019614981
0.0037181865
0.0019987172
0.0012568374
0.0019577248
-0.0012539373
0.0018420799
-0.0037152656
0.0016553965
-0.0060331807
0.0014033131
-0.0081210313
0.0011003907
-0.0098943033
0.00075749549
-0.011286835
0.00038516166
-0.012247356
6.9118152e-08
-0.012735819
-0.00038505991
-0.012735874
-0.00075741986
-0.012247471
-0.0011003242
-0.011286998
-0.0014033695
-0.0098945079
-0.0016555794
-0.0081211903
-0.0018422404
-0.0060332715
-0.0019578751
-0.0037153233
-0.0019988064
-0.0012538108
-0.0019613779
0.0012571385
-0.0018484353
0.0037183399
-0.0016636285
0.006035446
-0.0014123245
0.0081219599
-0.0011088446
0.0098936552
-0.00076409703
0.011284769
-0.00038883769
0.0122443
0.012732197
0.0011844421
0.01154771
0.0023249799
0.011103982
0.0033765608
0.01023348
0.004299867
0.008970603
0.0050591687
0.0073627837
0.0056233319
0.0054713244
0.0059708425
0.0033706758
0.0060875059
0.001140174
0.005967991
-0.0011344224
0.005618282
-0.0033655566
0.005052647
-0.0054675457
0.0042927291
-0.0073611134
0.003369972
-0.0089715462
0.0023201245
-0.010236988
0.0011821497
-0.011109381
7.9112308e-08
-0.011553749
-0.0011820171
-0.011553778
-0.0023200337
-0.011109454
-0.003369937
-0.010237095
-0.0042927803
-0.0089716646
-0.0050527621
-0.0073612085
-0.0056184172
-0.0054676164
-0.0059681396
-0.0033656008
-0.0060875793
-0.0011343712
-0.005970743
0.0011403022
-0.0056231445
0.0033707414
-0.0050589863
0.0054712879
-0.0042997235
0.0073626971
-0.003376533
0.0089704647
-0.0023250941
0.01023333
-0.0011846634
0.011103869
0.011547665
0.0016194588
0.0099281778
0.0031770335
0.0095464069
0.0046127842
0.0087977291
0.0058719515
0.0077114357
0.0069058012
0.006328934
0.0076737165
0.0047034091
0.0081462248
0.0028981676
0.0083045333
0.00098186548
0.0081423836
-0.0009722727
0.0076668946
-0.0028900675
0.0068973583
-0.0046980095
0.0058632905
-0.0063270456
0.0046050644
-0.00771332
0.0031712356
-0.0088031592
0.0016163319
-0.0095544778
5.4393763e-08
-0.0099374712
-0.0016162358
-0.0099374875
-0.0031711676
-0.0095545225
-0.0046050368
-0.0088032258
-0.0058633092
-0.0077133922
-0.006897409
-0.0063271087
-0.0076669637
-0.0046980618
-0.008142463
-0.0028901015
-0.0083045722
-0.00097226194
-0.0081461772
0.00098190722
-0.0076736229
0.002898187
-0.0069057163
0.0047033813
-0.0058718978
0.0063288786
-0.0046127905
0.0077113574
-0.0031771083
0.0087976483
-0.0016195853
0.0095463464
0.0099281534
0.0016919794
0.0082361566
0.0033188832
0.0079195032
0.0048180726
0.0072985397
0.0061320655
0.0063974429
0.0072101523
0.0052508473
0.0080105934
0.0039029679
0.0085029308
0.0024058302
0.0086682404
0.00081655585
0.0085002233
-0.00080425556
0.008005565
-0.0023954093
0.0072035836
-0.0038960281
0.0061250325
-0.0052484945
0.0048116719
-0.0063999594
0.0033140167
-0.007305504
0.0016893397
-0.0079298007
3.5827489e-08
-0.0082481673
-0.001689274
-0.0082481777
-0.0033139667
-0.0079298299
-0.0048116451
-0.0073055473
-0.0061250303
-0.006400007
-0.0072035998
-0.0052485392
-0.0080055946
-0.003896067
-0.0085002598
-0.0023954363
-0.00866826
-0.00080426181
-0.0085029155
0.00081656274
-0.008010558
0.0024058296
-0.0072101224
0.0039029457
-0.0061320531
0.0052508093
-0.0048180897
0.006397394
-0.0033189325
0.007298491
-0.0016920531
0.0079194671
0.0082361421
0.0015354442
0.0067006846
0.0030116998
0.0064432475
0.004371867
0.0059383725
0.0055636893
0.0052056205
0.0065413409
0.0042731957
0.0072672612
0.0031770476
0.0077137754
0.0019593161
0.0078639597
0.0006663715
0.0077122925
-0.00065258836
0.007264555
-0.0019476718
0.006537893
-0.0031693661
0.0055600086
-0.00427061
0.0043684885
-0.0052084393
0.0030091138
-0.0059461293
0.0015340462
-0.0064547331
2.5867451e-08
-0.006714147
-0.0015339977
-0.0067141541
-0.0030090746
-0.006454753
-0.0043684632
-0.0059461587
-0.0055599977
-0.0052084725
-0.0065378943
-0.0042706426
-0.0072645661
-0.0031693952
-0.0077123087
-0.0019476937
-0.0078639702
-0.00065260033
-0.0077137732
0.00066636574
-0.007267251
0.0019593074
-0.0065413341
0.0031770287
-0.005563693
0.0042731682
-0.0043718868
0.0052055878
-0.0030117369
0.0059383411
-0.0015354944
0.0064432246
0.0067006755
0.0012848414
0.0054158228
0.0025201287
0.0052079602
0.0036582391
0.0048002621
0.0046554168
0.0042084428
0.0054733738
0.0034552387
0.0060808344
0.002569587
0.0064547362
0.0015854143
0.0065809148
0.00054019286
0.0064546588
-0.0005263323
0.006080691
-0.0015737041
0.0054731626
-0.0025618376
0.0046551512
-0.0034525987
0.003657969
-0.0042112571
0.0025199069
-0.0048080672
0.0012847245
-0.0052195507
1.9767716e-08
-0.0054294423
-0.0012846871
-0.0054294472
-0.0025198756
-0.0052195645
-0.0036579466
-0.0048080877
-0.0046551384
-0.0042112807
-0.0054731583
-0.0034526226
-0.0060806939
-0.0025618596
-0.0064546656
-0.001573722
-0.0065809207
-0.00052634526
-0.0064547379
0.00054018297
-0.0060808337
0.0015854032
-0.005473376
0.002569571
-0.004655426
0.0034552183
-0.0036582584
0.0042084202
-0.0025201584
0.0048002412
-0.0012848791
0.0052079452
0.0054158169
0.0010299516
0.0043858559
0.0020202058
0.004217706
0.0029326102
0.0038878576
0.0037320979
0.0034089551
0.0043880084
0.0027993283
0.0048752904
0.0020823049
0.0051754332
0.0012852715
0.0052770535
0.00043857255
0.0051762925
-0.00042557129
0.0048768659
-0.0012742774
0.0043900334
-0.0020750052
0.0037342495
-0.0027968147
0.0029345682
-0.0034115758
0.0020216893
-0.0038951883
0.0010307581
-0.0042286195
1.5034881e-08
-0.0043986992
-0.0010307295
-0.0043987026
-0.0020216648
-0.0042286292
-0.0029345498
-0.0038952028
-0.0037342376
-0.0034115929
-0.0043900277
-0.0027968325
-0.0048768653
-0.0020750221
-0.0051762951
-0.0012742921
-0.0052770569
-0.0004255835
-0.0051754358
0.0004385619
-0.004875293
0.0012852604
-0.0043880136
0.0020822916
-0.0037321082
0.0027993129
-0.0029326271
0.0034089391
-0.0020202294
0.0038878434
-0.0010299802
0.004217696
0.0043858521
0.00081363979
0.0035722048
0.0015959631
0.0034353827
0.0023168643
0.0031669564
0.0029486568
0.0027771626
0.0034671247
0.0022808604
0.003852456
0.0016969736
0.0040899745
0.001047753
0.0041706315
0.00035791549
0.0040913143
-0.00034625404
0.0038549201
-0.0010378833
0.0034703198
-0.0016904048
0.0029520866
-0.0022785815
0.002320011
-0.0027795002
0.001598361
-0.0031735384
0.0008149415
-0.0034452
1.1166204e-08
-0.0035837688
-0.00081492017
-0.0035837713
-0.0015983425
-0.0034452069
-0.0023199965
-0.0031735488
-0.0029520767
-0.0027795128
-0.0034703142
-0.0022785949
-0.0038549183
-0.001690418
-0.0040913149
-0.0010378954
-0.0041706335
-0.00034626495
-0.004089977
0.00035790539
-0.0038524594
0.0010477428
-0.0034671304
0.0016969625
-0.0029486662
0.0022808486
-0.002316878
0.002777151
-0.0015959811
0.0031669465
-0.00081366101
0.0034353759
0.0035722023
0.00064693133
0.0029252653
0.0012690052
0.0028133088
0.0018423171
0.0025936446
0.0023448659
0.0022746137
0.0027573908
0.0018683355
0.003064107
0.0013902575
0.003253291
0.00085856903
0.003317692
0.00029351448
0.0032547897
-0.00028335179
0.0030668685
-0.000849962
0.0027609835
-0.0013845199
0.0023487367
-0.0018663347
0.0018458793
-0.0022766428
0.0012717257
-0.0025993847
0.00064840745
-0.0028218818
8.2287392e-09
-0.0029353696
-0.00064839166
-0.0029353714
-0.0012717118
-0.0028218868
-0.0018458682
-0.0025993924
-0.0023487287
-0.0022766522
-0.0027609786
-0.0018663451
-0.0030668662
-0.0013845304
-0.0032547896
-0.0008499721
-0.0033176932
-0.00028336131
-0.0032532932
0.0002935054
-0.0030641104
0.00085856002
-0.0027573962
0.0013902483
-0.0023448739
0.0018683263
-0.0018423279
0.0022746051
-0.0012690189
0.0025936375
-0.00064694699
0.002813304
0.0029252635
0.00052544513
0.0023998139
0.0010307355
0.0023080184
0.0014964814
0.0021278987
0.0019048227
0.0018662724
0.0022401058
0.0015330524
0.0024894801
0.0011408833
0.0026433788
0.0007046703
0.0026958691
0.00024102419
0.0026448697
-0.00023235242
0.00249223
-0.00069732234
0.0022436899
-0.0011359797
0.0019086918
-0.0015313366
0.001500048
-0.001867999
0.0010334624
-0.0021327991
0.00052692459
-0.002315344
6.227456e-09
-0.0024084513
-0.0005269126
-0.0024084526
-0.0010334517
-0.0023153477
-0.0015000392
-0.0021328049
-0.0019086852
-0.0018680063
-0.0022436856
-0.0015313447
-0.0024922277
-0.0011359882
-0.0026448691
-0.00069733073
-0.0026958699
-0.00023236057
-0.0026433808
0.00024101629
-0.0024894833
0.00070466256
-0.0022401107
0.0011408757
-0.0019048294
0.0015330451
-0.0014964901
0.0018662658
-0.0010307461
0.0021278934
-0.00052545703
0.002308015
0.0023998127
0.00044127808
0.0019585309
0.00086565614
0.0018836404
0.0012568699
0.0017366849
0.0015999267
0.0015232156
0.0018816716
0.0012513075
0.0020912885
0.00093126641
0.0022207094
0.0005752494
0.0022649186
0.00019681498
0.0022221465
-0.0001895803
0.0020939414
-0.00056911731
0.0018851339
-0.00092717218
0.0016036696
-0.0012498723
0.0012603245
-0.0015246539
0.00086829964
-0.0017407743
0.00044271233
-0.0018897566
5.0211696e-09
-0.001965744
-0.00044270261
-0.0019657449
-0.00086829086
-0.0018897594
-0.0012603171
-0.0017407787
-0.0016036638
-0.0015246595
-0.0018851299
-0.0012498786
-0.0020939391
-0.00092717894
-0.0022221457
-0.00056912419
-0.0022649191
-0.00018958711
-0.0022207112
0.00019680832
-0.0020912915
0.00057524292
-0.001881676
0.00093126018
-0.0015999327
0.0012513017
-0.0012568774
0.0015232105
-0.0008656649
0.0017366809
-0.00044128772
0.0018836378
0.00195853
0.00038936139
0.0015691652
0.00076382993
0.0015091718
0.0011090687
0.0013914461
0.0014118536
0.0012204307
0.0016605709
0.0010025901
0.00184566
0.00074617732
0.001959978
0.00046093138
0.0019990761
0.00015771692
0.001961379
-0.00015188322
0.0018482501
-0.00045598843
0.0016639554
-0.00074287745
0.0014155162
-0.0010014331
0.0011124522
-0.0012215899
0.00076642059
-0.0013947427
0.0003907671
-0.0015141031
4.3680427e-09
-0.0015749812
-0.00039075861
-0.0015749819
-0.00076641282
-0.0015141052
-0.0011124455
-0.001394746
-0.0014155109
-0.0012215941
-0.0016639515
-0.001001438
-0.0018482478
-0.00074288272
-0.0019613781
-0.00045599387
-0.0019990765
-0.00015188865
-0.0019599797
0.00015771153
-0.001845663
0.00046092617
-0.0016605752
0.00074617239
-0.0014118591
0.0010025856
-0.0011090755
0.0012204268
-0.00076383771
0.0013914431
-0.00038936984
0.0015091699
0.0015691645
0.00036770892
0.0012014525
0.0007213647
0.0011555161
0.0010474368
0.0010653741
0.0013334394
0.00093442809
0.0015684009
0.00076762861
0.0017432814
0.00057129682
0.0018513207
0.00035289213
0.0018883054
0.0001207322
0.0018527438
-0.00011632162
0.0017459105
-0.00034915515
0.001571835
-0.00056880194
0.0013371557
-0.00076675376
0.0010508701
-0.00093530427
0.00072399365
-0.0010678663
0.00036913495
-0.0011592444
3.7350973e-09
-0.00120585
-0.00036912767
-0.0012058505
-0.00072398694
-0.001159246
-0.0010508642
-0.0010678687
-0.0013371509
-0.00093530739
-0.0015718315
-0.00076675741
-0.0017459083
-0.00056880592
-0.0018527429
-0.0003491593
-0.0018883058
-0.00011632576
-0.0018513222
0.00012072803
-0.0017432842
0.0003528881
-0.0015684048
0.00057129303
-0.0013334444
0.00076762519
-0.0010474427
0.00093442517
-0.00072137143
0.0010653718
-0.00036771616
0.0011555146
0.001201452
0.00037470831
0.00082674055
0.00073510089
0.00079512347
0.0010673935
0.00073308145
0.0013588643
0.00064295732
0.0015983318
0.00052816112
0.0017765811
0.00039304746
0.0018867174
0.00024275585
0.0019244322
8.301736e-05
0.0018881956
-8.0084934e-05
0.0017793097
-0.0002402693
0.0016018957
-0.00039138794
0.0013627207
-0.00052757878
0.0010709561
-0.00064353964
0.00073782871
-0.00073473894
0.00037618778
-0.0007976035
3.6462332e-09
-0.00082966588
-0.00037618066
-0.00082966623
-0.0007378221
-0.00079760452
-0.0010709503
-0.00073474055
-0.0013627159
-0.00064354174
-0.0016018921
-0.00052758125
-0.0017793073
-0.00039139066
-0.0018881945
-0.00024027216
-0.0019244325
-8.0087722e-05
-0.0018867189
8.3014421e-05
-0.0017765839
0.00024275305
-0.0015983357
0.00039304486
-0.0013588693
0.00052815878
-0.0010673995
0.00064295536
-0.00073510758
0.00073307994
-0.00037471546
0.00079512252
0.00082674022
0.00041189558
0.00041484208
0.00080804311
0.00039897593
0.0011732823
0.00036784229
0.0014936216
0.00032261797
0.0017567663
0.00026501641
0.0019525866
0.00019722719
0.002073507
0.0001218354
0.0021148236
4.1700777e-05
0.0020750359
-4.0297253e-05
0.0019554093
-0.00012064268
0.0017604524
-0.00019643101
0.0014976102
-0.00026473656
0.0011769669
-0.0003228964
0.00081086419
-0.00036863618
0.00041342492
-0.00040016423
3.0083873e-09
-0.00041624397
-0.00041341904
-0.00041624418
-0.0008108587
-0.00040016485
-0.0011769621
-0.00036863716
-0.0014976061
-0.00032289768
-0.0017604493
-0.00026473806
-0.0019554073
-0.00019643269
-0.0020750351
-0.0001206444
-0.0021148241
-4.0298713e-05
-0.0020735085
4.1698866e-05
-0.001952589
0.00012183357
-0.0017567697
0.00019722552
-0.0014936258
0.0002650149
-0.0011732871
0.00032261668
-0.00080804849
0.00036784129
-0.00041190126
0.00039897529
0.00041484186
0.00042001396
0.00082396765
0.0011963973
0.0015230358
0.0017913514
0.0019910297
0.0021143741
0.0021565842
0.0021157809
0.0019936321
0.0017947519
0.0015267167
0.0011997991
0.00082657373
0.00042142891
4.7978876e-09
-0.00042141953
-0.00082656497
-0.0011997913
-0.0015267102
-0.0017947468
-0.0019936288
-0.0021157793
-0.002156584
-0.0021143758
-0.0019910332
-0.0017913566
-0.0015230425
-0.0011964053
-0.00082397667
-0.00042002361
)
;

boundaryField
{
    leftWall
    {
        type            cyclic;
        value           nonuniform List<scalar> 
32
(
-3.4007393e-09
-3.5015701e-09
-3.671023e-09
-3.9455343e-09
-4.3932696e-09
-5.1424169e-09
-6.3886056e-09
-8.3634283e-09
-1.1256266e-08
-1.513817e-08
-2.0102844e-08
-2.7176658e-08
-4.0813078e-08
-7.1992555e-08
-1.2971369e-07
-1.5519044e-07
1.535842e-07
1.313207e-07
7.3475458e-08
4.1823933e-08
2.7830171e-08
2.0485364e-08
1.5298375e-08
1.1238439e-08
8.2217344e-09
6.194488e-09
4.990288e-09
4.346565e-09
3.7104575e-09
3.6607883e-09
2.8939936e-09
4.9381634e-09
)
;
    }
    rightWall
    {
        type            cyclic;
        value           nonuniform List<scalar> 
32
(
3.4007393e-09
3.5015701e-09
3.671023e-09
3.9455343e-09
4.3932696e-09
5.1424169e-09
6.3886056e-09
8.3634283e-09
1.1256266e-08
1.513817e-08
2.0102844e-08
2.7176658e-08
4.0813078e-08
7.1992555e-08
1.2971369e-07
1.5519044e-07
-1.535842e-07
-1.313207e-07
-7.3475458e-08
-4.1823933e-08
-2.7830171e-08
-2.0485364e-08
-1.5298375e-08
-1.1238439e-08
-8.2217344e-09
-6.194488e-09
-4.990288e-09
-4.346565e-09
-3.7104575e-09
-3.6607883e-09
-2.8939936e-09
-4.9381634e-09
)
;
    }
    lowerWall
    {
        type            calculated;
        value           uniform 0;
    }
    atmosphere
    {
        type            calculated;
        value           nonuniform List<scalar> 
32
(
-5.1768136e-06
-4.9777607e-06
-4.5873208e-06
-4.0205271e-06
-3.2992026e-06
-2.4511176e-06
-1.5089708e-06
-5.093486e-07
5.0599335e-07
1.5061196e-06
2.4492623e-06
3.2985626e-06
4.0212026e-06
4.5892155e-06
4.9805892e-06
5.1801467e-06
5.1801463e-06
4.9805883e-06
4.5892141e-06
4.0212009e-06
3.2985607e-06
2.4492603e-06
1.5061176e-06
5.0599061e-07
-5.0935302e-07
-1.508977e-06
-2.4511249e-06
-3.2992106e-06
-4.0205352e-06
-4.5873277e-06
-4.9777654e-06
-5.1768152e-06
)
;
    }
    defaultFaces
    {
        type            empty;
        value           nonuniform List<scalar> 0();
    }
}


// ************************************************************************* //
