/*--------------------------------*- C++ -*----------------------------------*\
| =========                 |                                                 |
| \\      /  F ield         | OpenFOAM: The Open Source CFD Toolbox           |
|  \\    /   O peration     | Version:  2106                                  |
|   \\  /    A nd           | Website:  www.openfoam.com                      |
|    \\/     M anipulation  |                                                 |
\*---------------------------------------------------------------------------*/
FoamFile
{
    version     2.0;
    format      ascii;
    arch        "LSB;label=32;scalar=64";
    class       volVectorField;
    location    "0.031";
    object      U;
}
// * * * * * * * * * * * * * * * * * * * * * * * * * * * * * * * * * * * * * //

dimensions      [0 1 -1 0 0 0 0];

internalField   nonuniform List<vector> 
4096
(
(0.0031594086 -0.0031443326 0)
(0.0094480521 -0.0031143881 0)
(0.015646719 -0.0030547748 0)
(0.021696345 -0.0029660417 0)
(0.027539238 -0.0028490068 0)
(0.033119615 -0.0027047504 0)
(0.038384115 -0.0025346072 0)
(0.043282305 -0.0023401545 0)
(0.047767149 -0.0021232001 0)
(0.051795459 -0.001885767 0)
(0.055328313 -0.0016300766 0)
(0.058331429 -0.0013585295 0)
(0.060775508 -0.0010736851 0)
(0.06263653 -0.00077823871 0)
(0.063896006 -0.00047499773 0)
(0.064541172 -0.00016685625 0)
(0.064565101 0.00014323763 0)
(0.063967022 0.00045225904 0)
(0.06275179 0.00075729935 0)
(0.060930622 0.0010553341 0)
(0.058520431 0.00134347 0)
(0.055543938 0.0016188876 0)
(0.05202942 0.0018788789 0)
(0.048010454 0.0021208779 0)
(0.043525604 0.0023424877 0)
(0.038618056 0.0025415064 0)
(0.033335206 0.0027159508 0)
(0.027728192 0.0028640779 0)
(0.021851398 0.0029844047 0)
(0.015761911 0.003075724 0)
(0.0095189532 0.0031371186 0)
(0.0031832919 0.003167971 0)
(-0.0031833745 0.0031679708 0)
(-0.0095190349 0.003137118 0)
(-0.015761991 0.003075723 0)
(-0.021851475 0.0029844032 0)
(-0.027728266 0.0028640761 0)
(-0.033335276 0.0027159486 0)
(-0.038618122 0.0025415039 0)
(-0.043525664 0.0023424849 0)
(-0.048010508 0.0021208747 0)
(-0.052029468 0.0018788755 0)
(-0.055543978 0.0016188839 0)
(-0.058520463 0.0013434661 0)
(-0.060930647 0.0010553301 0)
(-0.062751806 0.0007572952 0)
(-0.06396703 0.00045225481 0)
(-0.064565101 0.00014323338 0)
(-0.064541163 -0.00016686048 0)
(-0.063895988 -0.0004750019 0)
(-0.062636504 -0.00077824278 0)
(-0.060775474 -0.001073689 0)
(-0.058331387 -0.0013585333 0)
(-0.055328264 -0.0016300802 0)
(-0.051795404 -0.0018857703 0)
(-0.047767086 -0.0021232031 0)
(-0.043282237 -0.0023401572 0)
(-0.038384043 -0.0025346096 0)
(-0.033119538 -0.0027047525 0)
(-0.027539157 -0.0028490085 0)
(-0.02169626 -0.002966043 0)
(-0.015646632 -0.0030547758 0)
(-0.0094479641 -0.0031143886 0)
(-0.0031593197 -0.0031443328 0)
(0.0032096525 -0.0094712832 0)
(0.0095983084 -0.0093810888 0)
(0.015895569 -0.0092015305 0)
(0.022041438 -0.0089342614 0)
(0.027977314 -0.0085817448 0)
(0.03364653 -0.0081472348 0)
(0.038994882 -0.0076347501 0)
(0.043971137 -0.0070490417 0)
(0.04852751 -0.006395554 0)
(0.052620127 -0.0056803798 0)
(0.056209442 -0.0049102091 0)
(0.059260623 -0.0040922726 0)
(0.061743897 -0.0032342786 0)
(0.063634855 -0.0023443456 0)
(0.064914701 -0.0014309301 0)
(0.06557046 -0.00050275117 0)
(0.065595111 0.00043128876 0)
(0.06498773 0.0013622142 0)
(0.063753435 0.0022810306 0)
(0.061903483 0.003178786 0)
(0.059455077 0.0040467335 0)
(0.05643129 0.0048763744 0)
(0.052860842 0.0056595506 0)
(0.04877784 0.0063885316 0)
(0.04422146 0.0070560967 0)
(0.039235578 0.0076556119 0)
(0.033868346 0.0081811023 0)
(0.028171724 0.0086273171 0)
(0.022200969 0.0089897875 0)
(0.016014087 0.0092648771 0)
(0.0096712575 0.0094498219 0)
(0.0032342265 0.0095427616 0)
(-0.0032343104 0.009542761 0)
(-0.0096713405 0.00944982 0)
(-0.016014168 0.009264874 0)
(-0.022201047 0.0089897832 0)
(-0.028171799 0.0086273116 0)
(-0.033868417 0.0081810957 0)
(-0.039235644 0.0076556042 0)
(-0.044221521 0.007056088 0)
(-0.048777894 0.006388522 0)
(-0.05286089 0.0056595402 0)
(-0.05643133 0.0048763633 0)
(-0.05945511 0.0040467218 0)
(-0.061903508 0.0031787738 0)
(-0.063753452 0.0022810181 0)
(-0.064987738 0.0013622014 0)
(-0.065595111 0.00043127594 0)
(-0.065570451 -0.00050276393 0)
(-0.064914684 -0.0014309427 0)
(-0.063634829 -0.0023443579 0)
(-0.061743863 -0.0032342904 0)
(-0.05926058 -0.0040922839 0)
(-0.056209392 -0.0049102198 0)
(-0.052620071 -0.0056803897 0)
(-0.048527447 -0.0063955631 0)
(-0.043971068 -0.0070490499 0)
(-0.038994808 -0.0076347573 0)
(-0.033646451 -0.0081472409 0)
(-0.027977231 -0.0085817499 0)
(-0.022041353 -0.0089342654 0)
(-0.015895481 -0.0092015334 0)
(-0.009598219 -0.0093810906 0)
(-0.0032095624 -0.0094712838 0)
(0.0032963151 -0.015943986 0)
(0.0098574722 -0.015792163 0)
(0.016324776 -0.015489915 0)
(0.022636618 -0.015040023 0)
(0.028732819 -0.014446633 0)
(0.034555188 -0.013715222 0)
(0.04004806 -0.012852551 0)
(0.045158819 -0.011866618 0)
(0.049838394 -0.010766584 0)
(0.054041725 -0.0095627035 0)
(0.057728193 -0.0082662365 0)
(0.060862023 -0.0068893524 0)
(0.063412634 -0.0054450254 0)
(0.065354948 -0.0039469205 0)
(0.066669655 -0.0024092716 0)
(0.067343417 -0.00084675274 0)
(0.067369021 0.0007256581 0)
(0.066745485 0.0022928316 0)
(0.065478088 0.0038396182 0)
(0.063578355 0.0053509798 0)
(0.061063955 0.0068121764 0)
(0.057958574 0.0082088965 0)
(0.054291699 0.0095274039 0)
(0.050098355 0.010754682 0)
(0.045418773 0.011878572 0)
(0.040298016 0.012887904 0)
(0.034785538 0.013772614 0)
(0.02893471 0.014523861 0)
(0.022802288 0.015134119 0)
(0.016447856 0.015597264 0)
(0.009933229 0.01590864 0)
(0.0033218357 0.016065116 0)
(-0.0033219217 0.016065115 0)
(-0.0099333141 0.015908637 0)
(-0.016447939 0.015597259 0)
(-0.022802368 0.015134112 0)
(-0.028934787 0.014523852 0)
(-0.034785611 0.013772603 0)
(-0.040298084 0.012887891 0)
(-0.045418836 0.011878558 0)
(-0.050098411 0.010754666 0)
(-0.054291748 0.0095273864 0)
(-0.057958615 0.0082088778 0)
(-0.061063989 0.0068121568 0)
(-0.063578381 0.0053509594 0)
(-0.065478105 0.0038395971 0)
(-0.066745494 0.0022928102 0)
(-0.06736902 0.00072563652 0)
(-0.067343407 -0.00084677423 0)
(-0.066669636 -0.0024092928 0)
(-0.065354921 -0.0039469411 0)
(-0.063412598 -0.0054450453 0)
(-0.060861979 -0.0068893714 0)
(-0.057728142 -0.0082662544 0)
(-0.054041666 -0.0095627202 0)
(-0.04983833 -0.010766599 0)
(-0.045158748 -0.011866632 0)
(-0.040047984 -0.012852563 0)
(-0.034555107 -0.013715232 0)
(-0.028732735 -0.014446642 0)
(-0.022636531 -0.01504003 0)
(-0.016324686 -0.01548992 0)
(-0.0098573805 -0.015792166 0)
(-0.0032962226 -0.015943987 0)
(0.0034203662 -0.022626595 0)
(0.010228444 -0.022411151 0)
(0.016939145 -0.021982247 0)
(0.023488546 -0.021343828 0)
(0.029814209 -0.020501776 0)
(0.035855755 -0.019463862 0)
(0.041555428 -0.018239679 0)
(0.046858636 -0.016840572 0)
(0.051714461 -0.015279542 0)
(0.056076145 -0.013571137 0)
(0.059901544 -0.011731334 0)
(0.06315353 -0.0097773984 0)
(0.065800369 -0.0077277413 0)
(0.067816035 -0.0056017518 0)
(0.069180482 -0.0034196273 0)
(0.069879863 -0.0012021889 0)
(0.069906687 0.0010293114 0)
(0.069259922 0.0032533954 0)
(0.067945038 0.0054485584 0)
(0.06597398 0.0075934728 0)
(0.063365076 0.0096672146 0)
(0.060142893 0.011649469 0)
(0.056338021 0.01352074 0)
(0.051986798 0.015262549 0)
(0.047130968 0.016857639 0)
(0.041817286 0.01829015 0)
(0.036097074 0.019545798 0)
(0.030025713 0.020612032 0)
(0.023662105 0.021478166 0)
(0.017068086 0.022135505 0)
(0.010307809 0.022577442 0)
(0.0034471032 0.022799528 0)
(-0.0034471921 0.022799526 0)
(-0.010307897 0.022577438 0)
(-0.017068172 0.022135498 0)
(-0.023662189 0.021478155 0)
(-0.030025793 0.020612019 0)
(-0.036097149 0.019545783 0)
(-0.041817357 0.018290131 0)
(-0.047131032 0.016857618 0)
(-0.051986856 0.015262526 0)
(-0.056338072 0.013520715 0)
(-0.060142936 0.011649443 0)
(-0.063365111 0.0096671866 0)
(-0.065974006 0.0075934437 0)
(-0.067945056 0.0054485285 0)
(-0.06925993 0.0032533649 0)
(-0.069906686 0.0010292808 0)
(-0.069879853 -0.0012022194 0)
(-0.069180463 -0.0034196573 0)
(-0.067816007 -0.0056017811 0)
(-0.065800332 -0.0077277695 0)
(-0.063153485 -0.0097774254 0)
(-0.05990149 -0.011731359 0)
(-0.056076085 -0.013571161 0)
(-0.051714393 -0.015279564 0)
(-0.046858563 -0.016840592 0)
(-0.04155535 -0.018239696 0)
(-0.035855671 -0.019463876 0)
(-0.029814121 -0.020501788 0)
(-0.023488456 -0.021343837 0)
(-0.016939052 -0.021982254 0)
(-0.010228349 -0.022411156 0)
(-0.0034202706 -0.022626596 0)
(0.0035826682 -0.029593996 0)
(0.010713803 -0.029312224 0)
(0.017742945 -0.028751274 0)
(0.024603141 -0.027916306 0)
(0.031228994 -0.026815012 0)
(0.037557263 -0.025457551 0)
(0.043527455 -0.023856471 0)
(0.049082387 -0.022026607 0)
(0.054168728 -0.019984959 0)
(0.058737505 -0.017750554 0)
(0.062744571 -0.015344282 0)
(0.06615104 -0.012788726 0)
(0.068923666 -0.010107959 0)
(0.071035188 -0.00732734 0)
(0.072464603 -0.0044732813 0)
(0.073197402 -0.0015730125 0)
(0.073225731 0.0013456729 0)
(0.072548501 0.0042546808 0)
(0.07117143 0.0071258825 0)
(0.069107018 0.0099313876 0)
(0.066374454 0.012643826 0)
(0.062999461 0.015236625 0)
(0.059014074 0.017684277 0)
(0.054456346 0.019962612 0)
(0.049369999 0.02204905 0)
(0.043804005 0.023922843 0)
(0.037812123 0.025565302 0)
(0.031452366 0.026960004 0)
(0.024786439 0.028092968 0)
(0.017879121 0.028952818 0)
(0.010797622 0.029530906 0)
(0.0036109066 0.029821412 0)
(-0.0036109993 0.02982141 0)
(-0.010797714 0.0295309 0)
(-0.017879211 0.028952808 0)
(-0.024786526 0.028092955 0)
(-0.03145245 0.026959987 0)
(-0.037812202 0.025565282 0)
(-0.043804079 0.023922819 0)
(-0.049370066 0.022049023 0)
(-0.054456407 0.019962582 0)
(-0.059014127 0.017684245 0)
(-0.062999506 0.01523659 0)
(-0.06637449 0.01264379 0)
(-0.069107045 0.0099313496 0)
(-0.071171448 0.0071258434 0)
(-0.072548509 0.004254641 0)
(-0.07322573 0.0013456329 0)
(-0.073197391 -0.0015730524 0)
(-0.072464583 -0.0044733206 0)
(-0.071035158 -0.0073273783 0)
(-0.068923628 -0.010107996 0)
(-0.066150992 -0.012788761 0)
(-0.062744516 -0.015344315 0)
(-0.058737442 -0.017750584 0)
(-0.054168658 -0.019984988 0)
(-0.04908231 -0.022026633 0)
(-0.043527372 -0.023856494 0)
(-0.037557176 -0.02545757 0)
(-0.031228903 -0.026815028 0)
(-0.024603047 -0.027916319 0)
(-0.017742848 -0.028751283 0)
(-0.010713704 -0.02931223 0)
(-0.0035825686 -0.029593998 0)
(0.0037840831 -0.036923744 0)
(0.011316126 -0.036572198 0)
(0.018740444 -0.03587234 0)
(0.025986322 -0.034830609 0)
(0.032984686 -0.033456599 0)
(0.039668742 -0.031762986 0)
(0.0459746 -0.029765422 0)
(0.051841864 -0.027482416 0)
(0.057214208 -0.024935174 0)
(0.062039908 -0.022147433 0)
(0.066272339 -0.019145256 0)
(0.069870431 -0.015956813 0)
(0.072799071 -0.012612137 0)
(0.075029463 -0.0091428622 0)
(0.076539425 -0.0055819396 0)
(0.077313626 -0.0019633383 0)
(0.077343765 0.0016782677 0)
(0.076628683 0.0053078268 0)
(0.075174411 0.0088902443 0)
(0.072994138 0.012390724 0)
(0.07010812 0.015775115 0)
(0.066543515 0.019010258 0)
(0.062334149 0.022064324 0)
(0.057520204 0.024907151 0)
(0.052147853 0.027510557 0)
(0.046268822 0.029848649 0)
(0.039939888 0.031898101 0)
(0.033222332 0.033638413 0)
(0.026181333 0.035052135 0)
(0.018885324 0.036125068 0)
(0.011405303 0.036846416 0)
(0.0038141273 0.037208916 0)
(-0.0038142246 0.037208913 0)
(-0.011405399 0.036846409 0)
(-0.018885418 0.036125056 0)
(-0.026181425 0.035052118 0)
(-0.033222419 0.033638391 0)
(-0.039939971 0.031898075 0)
(-0.046268899 0.029848619 0)
(-0.052147924 0.027510523 0)
(-0.057520267 0.024907114 0)
(-0.062334204 0.022064284 0)
(-0.066543563 0.019010214 0)
(-0.070108158 0.015775069 0)
(-0.072994166 0.012390676 0)
(-0.07517443 0.0088901955 0)
(-0.076628692 0.0053077772 0)
(-0.077343763 0.0016782177 0)
(-0.077313614 -0.0019633881 0)
(-0.076539403 -0.0055819885 0)
(-0.075029432 -0.00914291 0)
(-0.07279903 -0.012612183 0)
(-0.069870381 -0.015956856 0)
(-0.066272281 -0.019145297 0)
(-0.062039842 -0.022147471 0)
(-0.057214134 -0.024935209 0)
(-0.051841783 -0.027482447 0)
(-0.045974513 -0.02976545 0)
(-0.039668651 -0.031763009 0)
(-0.03298459 -0.033456619 0)
(-0.025986222 -0.034830624 0)
(-0.018740342 -0.035872351 0)
(-0.011316022 -0.036572205 0)
(-0.0037839786 -0.036923747 0)
(0.004025693 -0.044694874 0)
(0.012038649 -0.044269352 0)
(0.019937 -0.043422221 0)
(0.027645514 -0.042161276 0)
(0.035090707 -0.04049813 0)
(0.042201522 -0.038448125 0)
(0.048909988 -0.036030209 0)
(0.055151861 -0.033266781 0)
(0.06086722 -0.030183513 0)
(0.066001045 -0.026809134 0)
(0.070503741 -0.023175188 0)
(0.074331619 -0.019315772 0)
(0.077447333 -0.015267235 0)
(0.079820251 -0.011067864 0)
(0.081426775 -0.0067575381 0)
(0.082250595 -0.0023773706 0)
(0.082282874 0.0020306725 0)
(0.081522373 0.0064241665 0)
(0.079975494 0.010760633 0)
(0.077656254 0.014997955 0)
(0.074586189 0.019094792 0)
(0.070794176 0.023011004 0)
(0.066316183 0.026708057 0)
(0.061194948 0.030149431 0)
(0.055479583 0.033301006 0)
(0.049225108 0.036131428 0)
(0.042491926 0.038612451 0)
(0.035345233 0.04071925 0)
(0.027854378 0.042430695 0)
(0.020092172 0.043729587 0)
(0.012134162 0.044602855 0)
(0.0040578727 0.045041699 0)
(-0.0040579755 0.045041696 0)
(-0.012134263 0.044602846 0)
(-0.020092271 0.043729573 0)
(-0.027854475 0.042430675 0)
(-0.035345326 0.040719225 0)
(-0.042492013 0.03861242 0)
(-0.049225189 0.036131392 0)
(-0.055479658 0.033300966 0)
(-0.061195015 0.030149386 0)
(-0.066316242 0.026708008 0)
(-0.070794226 0.023010952 0)
(-0.074586229 0.019094737 0)
(-0.077656284 0.014997897 0)
(-0.079975513 0.010760574 0)
(-0.081522382 0.0064241064 0)
(-0.082282872 0.0020306121 0)
(-0.082250582 -0.0023774307 0)
(-0.081426752 -0.0067575973 0)
(-0.079820218 -0.011067922 0)
(-0.077447289 -0.015267291 0)
(-0.074331566 -0.019315825 0)
(-0.070503678 -0.023175238 0)
(-0.066000974 -0.02680918 0)
(-0.060867142 -0.030183555 0)
(-0.055151775 -0.033266819 0)
(-0.048909897 -0.036030242 0)
(-0.042201425 -0.038448153 0)
(-0.035090606 -0.040498153 0)
(-0.02764541 -0.042161294 0)
(-0.019936893 -0.043422234 0)
(-0.01203854 -0.04426936 0)
(-0.0040255828 -0.044694877 0)
(0.0043091449 -0.052988826 0)
(0.012886298 -0.052484347 0)
(0.021340768 -0.051480029 0)
(0.029592023 -0.049985114 0)
(0.037561403 -0.048013372 0)
(0.045172845 -0.045582991 0)
(0.052353598 -0.042716437 0)
(0.059034895 -0.039440268 0)
(0.065152605 -0.035784918 0)
(0.070647843 -0.031784446 0)
(0.07546753 -0.027476251 0)
(0.079564916 -0.02290075 0)
(0.082900033 -0.018101036 0)
(0.085440102 -0.01312249 0)
(0.087159868 -0.0080123858 0)
(0.088041874 -0.0028194567 0)
(0.088076659 0.0024065528 0)
(0.087262886 0.0076153531 0)
(0.085607394 0.012756589 0)
(0.08312517 0.017780332 0)
(0.079839246 0.022637571 0)
(0.07578051 0.027280713 0)
(0.070987442 0.031664067 0)
(0.065505773 0.035744327 0)
(0.059388057 0.039481029 0)
(0.05269318 0.042836987 0)
(0.045485794 0.045778699 0)
(0.037835688 0.048276721 0)
(0.029817102 0.050305986 0)
(0.021507987 0.051846096 0)
(0.012989226 0.052881541 0)
(0.0043438244 0.053401887 0)
(-0.0043439337 0.053401883 0)
(-0.012989334 0.052881531 0)
(-0.021508093 0.051846078 0)
(-0.029817205 0.050305963 0)
(-0.037835787 0.04827669 0)
(-0.045485887 0.045778663 0)
(-0.052693266 0.042836944 0)
(-0.059388136 0.039480981 0)
(-0.065505844 0.035744274 0)
(-0.070987505 0.031664009 0)
(-0.075780563 0.027280651 0)
(-0.079839289 0.022637506 0)
(-0.083125202 0.017780264 0)
(-0.085607415 0.012756519 0)
(-0.087262895 0.0076152819 0)
(-0.088076657 0.0024064812 0)
(-0.08804186 -0.002819528 0)
(-0.087159842 -0.0080124559 0)
(-0.085440065 -0.013122558 0)
(-0.082899986 -0.018101101 0)
(-0.079564859 -0.022900813 0)
(-0.075467463 -0.027476309 0)
(-0.070647767 -0.0317845 0)
(-0.065152521 -0.035784967 0)
(-0.059034804 -0.039440312 0)
(-0.0523535 -0.042716476 0)
(-0.045172742 -0.045583024 0)
(-0.037561295 -0.048013399 0)
(-0.029591912 -0.049985136 0)
(-0.021340654 -0.051480045 0)
(-0.012886182 -0.052484356 0)
(-0.004309028 -0.05298883 0)
(0.0046371193 -0.061891106 0)
(0.013867086 -0.061301872 0)
(0.022965019 -0.060128825 0)
(0.031844248 -0.058382761 0)
(0.04042012 -0.056079767 0)
(0.048610783 -0.053241092 0)
(0.056337949 -0.049892977 0)
(0.063527623 -0.046066449 0)
(0.070110803 -0.041797056 0)
(0.076024136 -0.037124582 0)
(0.081210521 -0.032092708 0)
(0.085619665 -0.026748641 0)
(0.089208577 -0.021142703 0)
(0.091941998 -0.015327895 0)
(0.093792762 -0.0093594179 0)
(0.094742088 -0.0032941803 0)
(0.094779792 0.0028097305 0)
(0.093904425 0.0088935892 0)
(0.092123328 0.014898592 0)
(0.089452606 0.020766429 0)
(0.085917014 0.026439859 0)
(0.081549763 0.031863288 0)
(0.076392232 0.036983345 0)
(0.070493607 0.041749433 0)
(0.06391042 0.046114274 0)
(0.056706027 0.050034418 0)
(0.048949994 0.053470715 0)
(0.040717424 0.056388753 0)
(0.032088216 0.058759239 0)
(0.023146272 0.060558328 0)
(0.013978654 0.061767898 0)
(0.0046747109 0.062375748 0)
(-0.0046748278 0.062375744 0)
(-0.01397877 0.061767886 0)
(-0.023146385 0.060558308 0)
(-0.032088326 0.058759211 0)
(-0.04071753 0.056388717 0)
(-0.048950094 0.053470672 0)
(-0.05670612 0.050034368 0)
(-0.063910506 0.046114218 0)
(-0.070493683 0.041749371 0)
(-0.076392299 0.036983277 0)
(-0.081549819 0.031863216 0)
(-0.08591706 0.026439782 0)
(-0.08945264 0.020766349 0)
(-0.09212335 0.01489851 0)
(-0.093904434 0.008893506 0)
(-0.094779789 0.0028096469 0)
(-0.094742073 -0.0032942634 0)
(-0.093792734 -0.0093594997 0)
(-0.091941958 -0.015327974 0)
(-0.089208526 -0.02114278 0)
(-0.085619603 -0.026748713 0)
(-0.081210449 -0.032092776 0)
(-0.076024054 -0.037124645 0)
(-0.070110713 -0.041797113 0)
(-0.063527525 -0.0460665 0)
(-0.056337844 -0.049893023 0)
(-0.048610673 -0.05324113 0)
(-0.040420005 -0.056079799 0)
(-0.031844129 -0.058382786 0)
(-0.022964897 -0.060128843 0)
(-0.013866962 -0.061301882 0)
(-0.0046369946 -0.06189111 0)
(0.0050139133 -0.071493871 0)
(0.014993864 -0.0708132 0)
(0.02483103 -0.069458125 0)
(0.034431686 -0.06744112 0)
(0.043704292 -0.064780773 0)
(0.05256034 -0.061501639 0)
(0.060915183 -0.05763404 0)
(0.06868882 -0.053213823 0)
(0.075806659 -0.048282062 0)
(0.082200217 -0.042884718 0)
(0.087807778 -0.037072252 0)
(0.09257499 -0.030899193 0)
(0.096455394 -0.024423666 0)
(0.099410892 -0.01770688 0)
(0.10141213 -0.010812587 0)
(0.1024388 -0.0038065024 0)
(0.1024799 0.0032442946 0)
(0.10153385 0.010271989 0)
(0.099608561 0.017208671 0)
(0.096721412 0.023986996 0)
(0.092899133 0.030540849 0)
(0.088177589 0.036806009 0)
(0.082601483 0.042720812 0)
(0.076223958 0.048226796 0)
(0.069106114 0.053269327 0)
(0.061316431 0.057798187 0)
(0.052930121 0.061768124 0)
(0.04402839 0.065139361 0)
(0.034697643 0.067878034 0)
(0.02502862 0.069956578 0)
(0.015115489 0.071354039 0)
(0.0050548947 0.072056313 0)
(-0.0050550205 0.072056309 0)
(-0.015115613 0.071354025 0)
(-0.025028742 0.069956555 0)
(-0.034697761 0.067878002 0)
(-0.044028504 0.06513932 0)
(-0.052930229 0.061768075 0)
(-0.061316532 0.05779813 0)
(-0.069106206 0.053269263 0)
(-0.076224041 0.048226725 0)
(-0.082601556 0.042720734 0)
(-0.08817765 0.036805925 0)
(-0.092899182 0.030540761 0)
(-0.096721449 0.023986904 0)
(-0.099608585 0.017208576 0)
(-0.10153386 0.010271892 0)
(-0.1024799 0.003244198 0)
(-0.10243878 -0.0038065984 0)
(-0.1014121 -0.010812681 0)
(-0.099410848 -0.017706971 0)
(-0.096455338 -0.024423754 0)
(-0.092574922 -0.030899277 0)
(-0.087807699 -0.037072331 0)
(-0.082200129 -0.042884791 0)
(-0.075806562 -0.048282128 0)
(-0.068688715 -0.053213882 0)
(-0.06091507 -0.057634092 0)
(-0.052560222 -0.061501683 0)
(-0.043704168 -0.06478081 0)
(-0.034431559 -0.067441148 0)
(-0.0248309 -0.069458145 0)
(-0.014993732 -0.070813212 0)
(-0.0050137798 -0.071493875 0)
(0.0054461157 -0.081899781 0)
(0.016286334 -0.081120009 0)
(0.026971427 -0.079567647 0)
(0.037399569 -0.077256991 0)
(0.047471318 -0.074209348 0)
(0.057090528 -0.070452858 0)
(0.066165257 -0.066022274 0)
(0.07460862 -0.060958674 0)
(0.082339613 -0.055309126 0)
(0.089283877 -0.049126292 0)
(0.095374413 -0.042467984 0)
(0.10055222 -0.035396667 0)
(0.10476688 -0.027978919 0)
(0.10797704 -0.020284842 0)
(0.11015084 -0.012387441 0)
(0.11126626 -0.004361968 0)
(0.11131132 0.0037147701 0)
(0.1102843 0.01176512 0)
(0.10819376 0.019711318 0)
(0.10505854 0.027476238 0)
(0.10090761 0.034984152 0)
(0.095779869 0.042161492 0)
(0.08972382 0.048937609 0)
(0.082797135 0.055245508 0)
(0.075066137 0.061022573 0)
(0.066605184 0.066211241 0)
(0.057495954 0.070759637 0)
(0.047826659 0.074622155 0)
(0.037691165 0.077759968 0)
(0.027188065 0.080141467 0)
(0.016419685 0.081742625 0)
(0.0054910499 0.082547268 0)
(-0.005491186 0.082547263 0)
(-0.01641982 0.081742609 0)
(-0.027188197 0.080141441 0)
(-0.037691293 0.077759931 0)
(-0.047826782 0.074622109 0)
(-0.057496071 0.070759581 0)
(-0.066605293 0.066211176 0)
(-0.075066237 0.0610225 0)
(-0.082797225 0.055245426 0)
(-0.089723899 0.04893752 0)
(-0.095779935 0.042161397 0)
(-0.10090766 0.034984051 0)
(-0.10505858 0.027476132 0)
(-0.10819379 0.019711209 0)
(-0.11028431 0.01176501 0)
(-0.11131132 0.0037146592 0)
(-0.11126624 -0.0043620781 0)
(-0.11015081 -0.012387549 0)
(-0.10797699 -0.020284947 0)
(-0.10476682 -0.02797902 0)
(-0.10055215 -0.035396763 0)
(-0.095374327 -0.042468073 0)
(-0.089283781 -0.049126374 0)
(-0.082339506 -0.0553092 0)
(-0.074608505 -0.06095874 0)
(-0.066165135 -0.066022332 0)
(-0.0570904 -0.070452907 0)
(-0.047471184 -0.074209388 0)
(-0.037399432 -0.077257023 0)
(-0.026971286 -0.079567669 0)
(-0.016286192 -0.081120023 0)
(-0.005445972 -0.081899786 0)
(0.0059433269 -0.093227286 0)
(0.017773205 -0.092339608 0)
(0.029433746 -0.090572434 0)
(0.040813804 -0.087942051 0)
(0.051804835 -0.084472728 0)
(0.062301907 -0.080196519 0)
(0.072204683 -0.075153008 0)
(0.08141836 -0.069388981 0)
(0.089854563 -0.06295804 0)
(0.097432186 -0.05592015 0)
(0.10407816 -0.048341133 0)
(0.10972815 -0.040292097 0)
(0.1143272 -0.031848816 0)
(0.11783022 -0.023091067 0)
(0.1202025 -0.014101919 0)
(0.12142001 -0.0049669847 0)
(0.1214697 0.0042263549 0)
(0.12034967 0.013389757 0)
(0.11806921 0.022434748 0)
(0.11464883 0.031273566 0)
(0.11012006 0.03982003 0)
(0.10452528 0.047990398 0)
(0.097917341 0.055704232 0)
(0.090359105 0.062885244 0)
(0.081922896 0.069462114 0)
(0.072689822 0.075369266 0)
(0.062749001 0.0805476 0)
(0.052196697 0.084945147 0)
(0.04113537 0.08851766 0)
(0.029672652 0.091229117 0)
(0.017920264 0.093052132 0)
(0.0059928819 0.093968272 0)
(-0.0059930302 0.093968267 0)
(-0.017920411 0.093052115 0)
(-0.029672796 0.091229087 0)
(-0.04113551 0.088517619 0)
(-0.052196832 0.084945095 0)
(-0.062749129 0.080547537 0)
(-0.072689942 0.075369192 0)
(-0.081923006 0.06946203 0)
(-0.090359204 0.062885151 0)
(-0.097917428 0.055704131 0)
(-0.10452536 0.04799029 0)
(-0.11012012 0.039819915 0)
(-0.11464887 0.031273446 0)
(-0.11806924 0.022434624 0)
(-0.12034968 0.013389632 0)
(-0.12146969 0.0042262285 0)
(-0.12141998 -0.0049671102 0)
(-0.12020246 -0.014102042 0)
(-0.11783017 -0.023091187 0)
(-0.11432713 -0.03184893 0)
(-0.10972807 -0.040292205 0)
(-0.10407806 -0.048341234 0)
(-0.09743208 -0.055920243 0)
(-0.089854447 -0.062958124 0)
(-0.081418234 -0.069389056 0)
(-0.07220455 -0.075153073 0)
(-0.062301767 -0.080196574 0)
(-0.05180469 -0.084472773 0)
(-0.040813655 -0.087942087 0)
(-0.029433594 -0.09057246 0)
(-0.017773051 -0.092339623 0)
(-0.0059431717 -0.093227291 0)
(0.0065188432 -0.10561735 0)
(0.019494234 -0.10461161 0)
(0.032283825 -0.1026094 0)
(0.044765667 -0.099629201 0)
(0.056820677 -0.095698523 0)
(0.068333747 -0.090853719 0)
(0.079194821 -0.085139668 0)
(0.089299932 -0.078609416 0)
(0.098552184 -0.071323725 0)
(0.10686266 -0.063350564 0)
(0.11415129 -0.054764523 0)
(0.12034759 -0.045646168 0)
(0.12539134 -0.036081336 0)
(0.12923319 -0.026160375 0)
(0.13183509 -0.015977344 0)
(0.13317076 -0.0056291688 0)
(0.13322587 0.00478523 0)
(0.13199832 0.015165844 0)
(0.12949825 0.025412508 0)
(0.12574805 0.035425849 0)
(0.12078224 0.045108258 0)
(0.11464718 0.05436487 0)
(0.10740073 0.063104535 0)
(0.099111753 0.071240786 0)
(0.089859497 0.078692763 0)
(0.079732873 0.085386109 0)
(0.068829606 0.091253793 0)
(0.057255281 0.096236865 0)
(0.045122308 0.10028513 0)
(0.032548791 0.10335772 0)
(0.019657336 0.10542356 0)
(0.0065738058 0.10646174 0)
(-0.0065739684 0.10646173 0)
(-0.019657497 0.10542354 0)
(-0.032548949 0.10335769 0)
(-0.045122462 0.10028508 0)
(-0.057255429 0.096236806 0)
(-0.068829746 0.091253722 0)
(-0.079733005 0.085386026 0)
(-0.089859618 0.078692668 0)
(-0.099111861 0.07124068 0)
(-0.10740083 0.063104421 0)
(-0.11464726 0.054364747 0)
(-0.12078231 0.045108127 0)
(-0.1257481 0.035425712 0)
(-0.12949828 0.025412367 0)
(-0.13199833 0.015165701 0)
(-0.13322587 0.0047850863 0)
(-0.13317073 -0.0056293113 0)
(-0.13183505 -0.015977483 0)
(-0.12923313 -0.02616051 0)
(-0.12539127 -0.036081465 0)
(-0.1203475 -0.04564629 0)
(-0.11415119 -0.054764636 0)
(-0.10686255 -0.063350668 0)
(-0.098552056 -0.071323819 0)
(-0.089299795 -0.078609499 0)
(-0.079194675 -0.085139741 0)
(-0.068333594 -0.09085378 0)
(-0.056820519 -0.095698574 0)
(-0.044765505 -0.09962924 0)
(-0.032283659 -0.10260943 0)
(-0.019494067 -0.10461163 0)
(-0.0065186746 -0.10561736 0)
(0.0071901756 -0.11924149 0)
(0.021501787 -0.11810587 0)
(0.035608372 -0.11584512 0)
(0.049375372 -0.11248012 0)
(0.062671399 -0.10804197 0)
(0.075369466 -0.10257175 0)
(0.087348178 -0.096120209 0)
(0.09849288 -0.088747271 0)
(0.10869674 -0.080521602 0)
(0.11786175 -0.071519986 0)
(0.12589968 -0.061826674 0)
(0.13273289 -0.051532639 0)
(0.13829506 -0.040734779 0)
(0.14253187 -0.02953506 0)
(0.14540145 -0.018039603 0)
(0.14687484 -0.0063577454 0)
(0.14693628 0.0053989395 0)
(0.14558341 0.017117652 0)
(0.14282736 0.028685405 0)
(0.13869273 0.03999008 0)
(0.13321744 0.050921522 0)
(0.1264525 0.061372635 0)
(0.1184616 0.071240485 0)
(0.10932055 0.08042739 0)
(0.099116691 0.088841983 0)
(0.087948008 0.096400218 0)
(0.075922259 0.10302631 0)
(0.063155906 0.10865362 0)
(0.049772965 0.11322536 0)
(0.035903764 0.11669533 0)
(0.021683619 0.11902838 0)
(0.007251452 0.12020085 0)
(-0.0072516314 0.12020084 0)
(-0.021683797 0.11902836 0)
(-0.035903939 0.1166953 0)
(-0.049773135 0.11322531 0)
(-0.063156069 0.10865355 0)
(-0.075922415 0.10302623 0)
(-0.087948154 0.096400125 0)
(-0.099116826 0.088841877 0)
(-0.10932068 0.080427272 0)
(-0.1184617 0.071240355 0)
(-0.12645259 0.061372496 0)
(-0.13321751 0.050921374 0)
(-0.13869278 0.039989925 0)
(-0.1428274 0.028685245 0)
(-0.14558343 0.01711749 0)
(-0.14693627 0.0053987765 0)
(-0.14687481 -0.0063579069 0)
(-0.1454014 -0.018039761 0)
(-0.1425318 -0.029535212 0)
(-0.13829498 -0.040734925 0)
(-0.13273278 -0.051532776 0)
(-0.12589956 -0.061826801 0)
(-0.11786162 -0.071520103 0)
(-0.1086966 -0.080521707 0)
(-0.098492728 -0.088747364 0)
(-0.087348017 -0.096120289 0)
(-0.075369298 -0.10257182 0)
(-0.062671226 -0.10804202 0)
(-0.049375195 -0.11248016 0)
(-0.035608191 -0.11584515 0)
(-0.021501604 -0.11810589 0)
(-0.0071899916 -0.11924149 0)
(0.0079792217 -0.13431053 0)
(0.023861343 -0.13303119 0)
(0.039515815 -0.13048434 0)
(0.054793242 -0.12669354 0)
(0.069547761 -0.12169387 0)
(0.083638411 -0.11553168 0)
(0.096930467 -0.10826418 0)
(0.10929671 -0.099958976 0)
(0.12061863 -0.090693489 0)
(0.13078755 -0.080554283 0)
(0.13970567 -0.069636311 0)
(0.14728696 -0.058042073 0)
(0.15345798 -0.045880706 0)
(0.15815858 -0.033267007 0)
(0.16134242 -0.02032042 0)
(0.16297745 -0.0071639677 0)
(0.16304622 0.0060768284 0)
(0.16154609 0.019275071 0)
(0.15848933 0.032303633 0)
(0.15390309 0.045036339 0)
(0.14782932 0.057349174 0)
(0.14032445 0.069121518 0)
(0.13145896 0.080237392 0)
(0.12131686 0.090586693 0)
(0.10999494 0.1000664 0)
(0.097601853 0.1085817 0)
(0.08425715 0.11604712 0)
(0.070090067 0.12238744 0)
(0.055238267 0.1275386 0)
(0.039846447 0.13144842 0)
(0.024064868 0.13407725 0)
(0.0080478108 0.13539838 0)
(-0.00804801 0.13539837 0)
(-0.024065066 0.13407723 0)
(-0.039846642 0.13144838 0)
(-0.055238456 0.12753854 0)
(-0.070090249 0.12238737 0)
(-0.084257323 0.11604703 0)
(-0.097602016 0.1085816 0)
(-0.10999509 0.10006628 0)
(-0.121317 0.09058656 0)
(-0.13145908 0.080237246 0)
(-0.14032455 0.06912136 0)
(-0.14782941 0.057349007 0)
(-0.15390315 0.045036164 0)
(-0.15848937 0.032303453 0)
(-0.16154611 0.019274887 0)
(-0.16304622 0.0060766438 0)
(-0.16297742 -0.0071641505 0)
(-0.16134236 -0.020320598 0)
(-0.1581585 -0.03326718 0)
(-0.15345789 -0.045880869 0)
(-0.14728685 -0.058042227 0)
(-0.13970554 -0.069636453 0)
(-0.13078741 -0.080554412 0)
(-0.12061847 -0.090693605 0)
(-0.10929654 -0.099959078 0)
(-0.096930289 -0.10826427 0)
(-0.083638226 -0.11553175 0)
(-0.06954757 -0.12169393 0)
(-0.054793047 -0.12669359 0)
(-0.039515616 -0.13048438 0)
(-0.023861142 -0.13303121 0)
(-0.0079790199 -0.13431054 0)
(0.0089118413 -0.15108337 0)
(0.026650228 -0.14964396 0)
(0.044134197 -0.14677849 0)
(0.061196792 -0.14251348 0)
(0.077675025 -0.13688849 0)
(0.093411406 -0.12995574 0)
(0.10825544 -0.12177969 0)
(0.12206505 -0.11243651 0)
(0.13470794 -0.10201341 0)
(0.14606283 -0.090607863 0)
(0.15602062 -0.078326779 0)
(0.16448539 -0.065285503 0)
(0.17137533 -0.051606802 0)
(0.17662344 -0.037419748 0)
(0.18017814 -0.022858575 0)
(0.18200378 -0.0080614965 0)
(0.18208091 0.0068305059 0)
(0.18040658 0.021674908 0)
(0.17699439 0.036328908 0)
(0.17187455 0.050650724 0)
(0.16509368 0.064500941 0)
(0.15671459 0.077743896 0)
(0.14681583 0.090249074 0)
(0.13549103 0.10189252 0)
(0.12284813 0.11255819 0)
(0.10900841 0.12213928 0)
(0.094105335 0.13053945 0)
(0.078283234 0.1376739 0)
(0.061695899 0.14347043 0)
(0.044505011 0.14787022 0)
(0.026878489 0.15082853 0)
(0.0089887679 0.15231525 0)
(-0.0089889905 0.15231524 0)
(-0.02687871 0.1508285 0)
(-0.044505228 0.14787017 0)
(-0.061696111 0.14347037 0)
(-0.078283439 0.13767382 0)
(-0.094105531 0.13053935 0)
(-0.1090086 0.12213917 0)
(-0.1228483 0.11255806 0)
(-0.13549118 0.10189237 0)
(-0.14681596 0.09024891 0)
(-0.15671471 0.077743718 0)
(-0.16509377 0.064500752 0)
(-0.17187461 0.050650525 0)
(-0.17699444 0.036328703 0)
(-0.1804066 0.0216747 0)
(-0.18208091 0.0068302968 0)
(-0.18200375 -0.0080617034 0)