/*--------------------------------*- C++ -*----------------------------------*\
| =========                 |                                                 |
| \\      /  F ield         | OpenFOAM: The Open Source CFD Toolbox           |
|  \\    /   O peration     | Version:  2306                                  |
|   \\  /    A nd           | Website:  www.openfoam.com                      |
|    \\/     M anipulation  |                                                 |
\*---------------------------------------------------------------------------*/
FoamFile
{
    version     2.0;
    format      ascii;
    arch        "LSB;label=32;scalar=64";
    class       volVectorField;
    location    "0.36";
    object      U_0;
}
// * * * * * * * * * * * * * * * * * * * * * * * * * * * * * * * * * * * * * //

dimensions      [0 1 -1 0 0 0 0];

internalField   nonuniform List<vector> 
6400
(
(-5.244036e-06 -0.00040595831 2.0960412e-19)
(-1.1747044e-05 -0.0004058151 6.0210865e-20)
(-1.926554e-05 -0.0004052919 -1.7728079e-19)
(-2.6576979e-05 -0.00040445812 -3.1228178e-20)
(-3.4038418e-05 -0.00040329153 -1.7288641e-19)
(-4.1446717e-05 -0.00040179599 9.0290192e-20)
(-4.8807322e-05 -0.00039997681 -1.4256368e-19)
(-5.6107904e-05 -0.0003978386 -1.2237473e-19)
(-6.3337192e-05 -0.00039538656 -3.7570977e-20)
(-7.0484049e-05 -0.00039262581 -1.0818038e-19)
(-7.7537858e-05 -0.00038956164 -1.2959905e-19)
(-8.4488507e-05 -0.0003861993 -1.4056229e-19)
(-9.132621e-05 -0.00038254417 -1.1474199e-19)
(-9.8040972e-05 -0.00037860204 -1.1369977e-19)
(-0.00010462316 -0.00037437917 -1.1444543e-19)
(-0.00011106361 -0.00036988195 -1.0816476e-19)
(-0.00011735339 -0.0003651174 -8.5923036e-20)
(-0.00012348391 -0.00036009274 -8.4112612e-20)
(-0.00012944671 -0.00035481561 -6.7131787e-20)
(-0.00013523378 -0.00034929379 -6.0710601e-20)
(-0.00014083735 -0.00034353588 -7.0632835e-20)
(-0.00014624989 -0.00033755068 -2.7454555e-20)
(-0.00015146463 -0.00033134692 -1.9475527e-20)
(-0.00015647478 -0.00032493421 -4.0598951e-20)
(-0.00016127383 -0.00031832208 -3.5106236e-20)
(-0.00016585584 -0.00031152073 -2.4768383e-20)
(-0.0001702155 -0.00030454027 2.630031e-21)
(-0.00017434763 -0.00029739189 -2.1431432e-20)
(-0.00017824733 -0.00029008624 -4.4831388e-20)
(-0.00018191061 -0.00028263408 -2.8288958e-20)
(-0.00018533367 -0.00027504688 -1.5894441e-20)
(-0.00018851324 -0.00026733609 -4.2207945e-22)
(-0.00019144663 -0.00025951352 -2.1281763e-20)
(-0.0001941313 -0.00025159078 -4.5693304e-20)
(-0.00019656589 -0.00024357962 -2.5291652e-20)
(-0.00019874909 -0.00023549266 -7.2552863e-21)
(-0.00020067924 -0.00022734123 3.3591163e-21)
(-0.0002023565 -0.00021913726 -1.324142e-20)
(-0.00020378168 -0.00021089304 -3.6015509e-20)
(-0.00020495498 -0.00020262099 2.6673195e-21)
(-0.00020587729 -0.00019433228 1.9920656e-20)
(-0.00020655069 -0.00018603897 1.1410052e-21)
(-0.00020697747 -0.00017775256 3.1693074e-21)
(-0.00020716029 -0.00016948468 -1.4497837e-20)
(-0.00020710202 -0.00016124656 -4.6457378e-20)
(-0.00020680635 -0.00015304979 -2.1925634e-20)
(-0.00020627739 -0.00014490488 -2.5727918e-20)
(-0.00020551932 -0.00013682218 -1.3451137e-20)
(-0.00020453702 -0.00012881229 -1.4454087e-20)
(-0.00020333603 -0.00012088514 -4.2195617e-20)
(-0.00020192228 -0.00011305059 -1.9935304e-20)
(-0.0002003007 -0.00010531771 -1.0260442e-20)
(-0.00019847807 -9.7695855e-05 -2.5969873e-20)
(-0.00019646106 -9.0193451e-05 -2.0259083e-20)
(-0.00019425634 -8.2818583e-05 -7.5222741e-21)
(-0.00019187121 -7.5579318e-05 2.7594475e-20)
(-0.00018931273 -6.8482639e-05 1.5429451e-20)
(-0.00018658929 -6.1535721e-05 -1.1320633e-20)
(-0.0001837084 -5.4745555e-05 -1.1984371e-20)
(-0.0001806773 -4.8117349e-05 -2.6628035e-21)
(-0.00017750386 -4.1657247e-05 1.0842771e-20)
(-0.00017419696 -3.5370458e-05 4.6301581e-22)
(-0.00017076535 -2.9260914e-05 -1.7572045e-20)
(-0.00016721692 -2.3333711e-05 -1.3626957e-20)
(-0.00016356072 -1.7593025e-05 3.0572298e-21)
(-0.00015980284 -1.2040467e-05 1.2771514e-20)
(-0.00015595307 -6.6808015e-06 3.77819e-21)
(-0.00015202149 -1.5155208e-06 -3.5044252e-21)
(-0.00014801478 3.4537388e-06 -2.2204591e-21)
(-0.00014394088 8.2242505e-06 8.7535067e-21)
(-0.00013980853 1.2795521e-05 1.3172976e-20)
(-0.00013562691 1.7166892e-05 -1.7130123e-21)
(-0.00013140262 2.1337857e-05 -1.5881817e-20)
(-0.00012714368 2.5308289e-05 -2.5561927e-21)
(-0.00012285961 2.9078857e-05 1.4544312e-20)
(-0.0001185561 3.2649963e-05 6.0202328e-21)
(-0.00011423992 3.6023141e-05 -2.5240514e-21)
(-0.00010992069 3.9199578e-05 -1.0096862e-20)
(-0.00010560419 4.2181927e-05 -2.0788085e-21)
(-0.00010129735 4.4970838e-05 1.0318023e-20)
(-5.0280873e-06 -0.00039117765 1.2876212e-19)
(-1.1262527e-05 -0.00039104001 -1.3982723e-19)
(-1.8471292e-05 -0.00039053828 -6.2636179e-19)
(-2.5481469e-05 -0.0003897386 1.0714701e-20)
(-3.2635185e-05 -0.00038862049 -3.0646829e-19)
(-3.9738163e-05 -0.00038718754 -4.0779684e-20)
(-4.6795358e-05 -0.00038544488 -8.1947755e-20)
(-5.3795032e-05 -0.00038339696 8.2660394e-20)
(-6.072661e-05 -0.00038104875 5.0475895e-20)
(-6.7579393e-05 -0.00037840511 1.0673908e-20)
(-7.4343244e-05 -0.0003754711 8.1259354e-20)
(-8.1008437e-05 -0.00037225176 6.2360921e-20)
(-8.7565497e-05 -0.00036875223 8.2821272e-20)
(-9.4004924e-05 -0.00036497815 6.8995719e-20)
(-0.00010031766 -0.00036093551 9.3492508e-20)
(-0.00010649505 -0.00035663034 6.9424481e-20)
(-0.00011252856 -0.00035206936 6.9240289e-20)
(-0.00011840984 -0.00034725953 9.7025995e-20)
(-0.00012413085 -0.00034220826 8.0280871e-20)
(-0.00012968403 -0.00033692274 1.185016e-19)
(-0.00013506208 -0.00033141135 5.5591985e-20)
(-0.00014025773 -0.00032568238 1.5332608e-20)
(-0.00014526437 -0.00031974456 3.9914466e-20)
(-0.00015007569 -0.00031360653 1.2046173e-20)
(-0.00015468562 -0.00030727774 2.7392689e-20)
(-0.00015908859 -0.00030076779 5.5353844e-20)
(-0.00016327922 -0.00029408659 -4.8306036e-22)
(-0.00016725289 -0.00028724404 9.1209215e-24)
(-0.00017100498 -0.00028025075 -6.4926287e-21)
(-0.00017453127 -0.00027311717 1.690046e-20)
(-0.00017782872 -0.00026585419 4.0981406e-20)
(-0.00018089414 -0.00025847264 -9.0670233e-21)
(-0.00018372446 -0.00025098349 -1.5737731e-20)
(-0.00018631758 -0.00024339793 -1.9842662e-20)
(-0.00018867238 -0.00023572738 1.1806469e-20)
(-0.00019078734 -0.00022798324 2.9720485e-20)
(-0.00019266097 -0.00022017644 -1.3540024e-20)
(-0.00019429341 -0.00021231911 -2.0937179e-20)
(-0.00019568532 -0.00020442219 -2.4574782e-20)
(-0.00019683697 -0.00019649706 -1.6816099e-20)
(-0.00019774931 -0.00018855506 2.2302646e-20)
(-0.00019842425 -0.0001806076 2.0078544e-21)
(-0.00019886377 -0.00017266557 -2.9067266e-20)
(-0.00019907016 -0.00016473995 -2.2731173e-20)
(-0.00019904665 -0.00015684133 -8.985598e-21)
(-0.00019879658 -0.00014898081 5.2776959e-21)
(-0.00019832346 -0.00014116813 -2.6208245e-20)
(-0.0001976316 -0.00013341345 -4.1652517e-20)
(-0.0001967252 -0.00012572673 -2.3324547e-20)
(-0.00019560982 -0.00011811813 -1.2229034e-20)
(-0.00019429083 -0.00011059637 5.0918702e-21)
(-0.00019277304 -0.00010316972 -1.7656038e-20)
(-0.00019106294 -9.5847675e-05 -7.5680955e-21)
(-0.00018916659 -8.8637965e-05 2.6764698e-20)
(-0.00018709023 -8.1548548e-05 1.7583977e-21)
(-0.0001848407 -7.4587395e-05 -1.9519982e-20)
(-0.00018242514 -6.7761003e-05 -2.3782716e-20)
(-0.00017985115 -6.1075856e-05 -6.5793026e-21)
(-0.00017712541 -5.453844e-05 1.6276313e-20)
(-0.00017425534 -4.8154405e-05 1.9540559e-21)
(-0.00017124874 -4.1929685e-05 -2.4294918e-20)
(-0.00016811318 -3.5869376e-05 -3.1634338e-20)
(-0.00016485693 -2.9976914e-05 -1.9695453e-20)
(-0.0001614884 -2.4257094e-05 4.0481477e-21)
(-0.00015801504 -1.871436e-05 5.4143077e-21)
(-0.00015444308 -1.3350036e-05 -1.4059443e-20)
(-0.0001507824 -8.1692119e-06 -2.4907699e-20)
(-0.00014704162 -3.1729515e-06 -6.6309598e-21)
(-0.00014322741 1.6367065e-06 9.9799733e-21)
(-0.00013934774 6.2580729e-06 1.0615267e-20)
(-0.00013541073 1.0689303e-05 -5.6890588e-21)
(-0.00013142464 1.4930158e-05 -1.9418033e-20)
(-0.00012739624 1.8980188e-05 -1.5359244e-20)
(-0.00012333301 2.2839124e-05 -2.6371787e-22)
(-0.00011924377 2.6507419e-05 1.0714212e-20)
(-0.00011513434 2.9986219e-05 -6.7065507e-21)
(-0.00011101144 3.3275634e-05 -1.6069849e-20)
(-0.0001068835 3.6376883e-05 -1.1839802e-20)
(-0.0001027564 3.9292516e-05 -5.4128285e-21)
(-9.8637511e-05 4.2023413e-05 3.0584034e-21)
(-4.8215323e-06 -0.00037700597 1.7039302e-19)
(-1.0798949e-05 -0.00037687362 9.4414673e-20)
(-1.7710885e-05 -0.00037639252 -2.0494784e-19)
(-2.4432548e-05 -0.00037562546 -2.2185383e-20)
(-3.1291754e-05 -0.00037455383 -1.4730483e-19)
(-3.8102297e-05 -0.00037318079 -2.7595723e-19)
(-4.4869127e-05 -0.00037151123 -1.4885415e-19)
(-5.1580898e-05 -0.00036954953 -1.1546806e-19)
(-5.8227491e-05 -0.00036730089 -1.2712155e-19)
(-6.4798745e-05 -0.00036476942 -5.1716195e-20)
(-7.1285008e-05 -0.00036195992 -3.4880981e-20)
(-7.7676922e-05 -0.00035887722 3.4321221e-20)
(-8.3965335e-05 -0.00035552636 -1.9733849e-20)
(-9.0141421e-05 -0.00035191291 3.8668665e-20)
(-9.6196502e-05 -0.00034804256 3.3552195e-20)
(-0.00010212215 -0.00034392114 -7.4290894e-22)
(-0.00010791029 -0.00033955478 4.569052e-20)
(-0.00011355307 -0.00033495025 2.0217657e-20)
(-0.00011904276 -0.00033011466 3.1212652e-20)
(-0.00012437208 -0.000325055 5.6119538e-20)
(-0.00012953413 -0.00031977905 5.2155073e-20)
(-0.00013452225 -0.00031429486 6.2265671e-20)
(-0.00013932997 -0.0003086107 5.6860645e-20)
(-0.0001439511 -0.000302735 3.6645433e-20)
(-0.00014837992 -0.00029667652 6.2186605e-20)
(-0.00015261114 -0.00029044459 9.6230723e-20)
(-0.00015664008 -0.00028404885 7.5888258e-20)
(-0.00016046194 -0.00027749864 3.5834844e-20)
(-0.0001640723 -0.00027080348 8.2810306e-21)
(-0.0001674676 -0.00026397395 3.9659731e-20)
(-0.00017064435 -0.00025702029 7.2529808e-20)
(-0.0001735997 -0.00024995256 5.6351849e-20)
(-0.00017633087 -0.0002427814 1.5993214e-20)
(-0.00017883574 -0.0002355174 -5.1494467e-21)
(-0.0001811134 -0.0002281716 2.1874836e-20)
(-0.00018316221 -0.00022075446 4.7442221e-20)
(-0.00018498105 -0.00021327672 3.7936643e-20)
(-0.00018656986 -0.00020574967 2.2510864e-21)
(-0.00018792895 -0.00019818373 -7.1661833e-21)
(-0.00018905885 -0.00019058985 1.9122985e-20)
(-0.00018996057 -0.00018297888 2.1304043e-20)
(-0.00019063568 -0.00017536156 9.7124801e-21)
(-0.000191086 -0.0001677482 4.1908719e-21)
(-0.00019131393 -0.00016014911 1.3377559e-20)
(-0.00019132235 -0.00015257472 1.6739907e-20)
(-0.00019111413 -0.0001450353 -2.4629185e-20)
(-0.00019069264 -0.00013753988 -2.1177599e-20)
(-0.00019006217 -0.00013009892 -1.1951678e-20)
(-0.00018922749 -0.00012272136 -7.7895913e-22)
(-0.000188193 -0.00011541679 1.121455e-20)
(-0.00018696261 -0.00010819335 -1.8269932e-20)
(-0.00018554219 -0.00010105993 -2.3957159e-20)
(-0.00018393794 -9.4024507e-05 -2.0459954e-20)
(-0.00018215484 -8.7094795e-05 -3.5226971e-20)
(-0.0001802 -8.0279175e-05 -1.9444419e-20)
(-0.00017807927 -7.358427e-05 -3.5682845e-21)
(-0.00017579814 -6.7016672e-05 1.3001406e-20)
(-0.00017336484 -6.0582362e-05 -5.2807254e-21)
(-0.00017078613 -5.4287359e-05 -2.799282e-20)
(-0.0001680687 -4.8138219e-05 -2.1909557e-20)
(-0.00016522006 -4.2139664e-05 -1.5891438e-20)
(-0.0001622468 -3.6296428e-05 -4.32233e-21)
(-0.00015915662 -3.0612692e-05 -1.740903e-20)
(-0.00015595845 -2.5092821e-05 -3.1242267e-20)
(-0.00015265875 -1.9740008e-05 -1.7604931e-20)
(-0.00014926374 -1.455763e-05 -1.0975257e-20)
(-0.00014578262 -9.5489533e-06 -1.0027825e-21)
(-0.00014222295 -4.7157726e-06 -5.1692516e-21)
(-0.0001385918 -6.0251777e-08 -1.7516594e-20)
(-0.00013489699 4.4163544e-06 -8.0359356e-21)
(-0.0001311458 8.7120315e-06 -4.8921712e-21)
(-0.00012734613 1.2826536e-05 -4.2328274e-21)
(-0.0001235043 1.6759422e-05 -1.1013548e-20)
(-0.00011962746 2.0509774e-05 -1.9249335e-20)
(-0.00011572413 2.4078607e-05 -9.1157337e-21)
(-0.00011179991 2.7466666e-05 -1.2043199e-20)
(-0.00010786147 3.0673899e-05 -9.3263292e-21)
(-0.00010391653 3.3701605e-05 -8.9323445e-21)
(-9.997068e-05 3.6551347e-05 -1.0471184e-20)
(-9.6030519e-05 3.92248e-05 -5.4829806e-21)
(-4.6235852e-06 -0.00036341726 1.0616743e-19)
(-1.035501e-05 -0.00036329005 -1.5512675e-19)
(-1.6982696e-05 -0.00036282849 2.2056272e-20)
(-2.3428019e-05 -0.00036209283 9.468704e-20)
(-3.0005242e-05 -0.00036106594 7.6587288e-20)
(-3.6535817e-05 -0.00035975022 -9.8834956e-20)
(-4.3024587e-05 -0.00035815074 -5.2836387e-20)
(-4.9461242e-05 -0.00035627178 -8.6474069e-20)
(-5.583539e-05 -0.00035411812 -1.0161384e-19)
(-6.2136963e-05 -0.00035169383 -5.5694787e-20)
(-6.8357234e-05 -0.00034900335 -4.2177556e-20)
(-7.4487347e-05 -0.00034605145 -2.3133018e-20)
(-8.0518788e-05 -0.00034284291 -4.9399666e-20)
(-8.6443126e-05 -0.00033938306 -2.6862281e-20)
(-9.2251687e-05 -0.0003356772 -4.4950955e-20)
(-9.7936283e-05 -0.00033173118 -1.6128341e-20)
(-0.00010348956 -0.00032755075 -4.3702793e-20)
(-0.00010890406 -0.00032314231 -4.2849426e-20)
(-0.00011417232 -0.00031851256 -2.1083806e-20)
(-0.00011928744 -0.00031366869 -1.1018786e-21)
(-0.00012424278 -0.00030861776 1.6234504e-20)
(-0.00012903199 -0.00030336746 -1.818911e-20)
(-0.00013364904 -0.00029792542 -4.5959262e-20)
(-0.00013808793 -0.00029230021 -4.0439105e-20)
(-0.00014234345 -0.00028649989 -1.0195136e-20)
(-0.00014641071 -0.00028053352 2.5359239e-20)
(-0.00015028463 -0.00027441012 -1.7958297e-20)
(-0.00015396063 -0.00026813852 -6.9156091e-20)
(-0.000157435 -0.00026172808 -5.0742596e-20)
(-0.00016070443 -0.00025518863 -1.7575091e-20)
(-0.0001637654 -0.0002485298 1.7507011e-20)
(-0.000166615 -0.0002417614 -1.5221958e-20)
(-0.00016925068 -0.00023489354 -5.6364265e-20)
(-0.0001716707 -0.00022793636 -4.3872881e-20)
(-0.00017387401 -0.00022090017 -2.0745433e-20)
(-0.00017585882 -0.0002137949 2.0208582e-20)
(-0.00017762411 -0.00020663087 -1.1344116e-20)
(-0.00017916993 -0.00019941908 -5.056457e-20)
(-0.0001804968 -0.00019216934 -4.1539733e-20)
(-0.00018160508 -0.00018489176 -3.4176402e-20)
(-0.00018249558 -0.00017759686 -1.1099963e-20)
(-0.00018316973 -0.00017029455 -6.9520452e-21)
(-0.00018362916 -0.00016299485 -1.5230247e-20)
(-0.00018387616 -0.00015570768 -7.3398526e-21)
(-0.00018391369 -0.00014844268 -2.089986e-21)
(-0.00018374413 -0.00014121002 -1.4963611e-20)
(-0.00018337103 -0.00013401794 -9.9420661e-21)
(-0.00018279845 -0.00012687675 -8.0641098e-21)
(-0.00018203001 -0.00011979498 3.6522627e-22)
(-0.00018107023 -0.0001127808 1.1806711e-20)
(-0.00017992368 -0.00010584262 2.6082777e-21)
(-0.00017859529 -9.8989537e-05 9.6904158e-23)
(-0.00017709043 -9.2228358e-05 2.7537272e-21)
(-0.00017541508 -8.5567051e-05 -1.1039883e-20)
(-0.00017357463 -7.9013085e-05 -4.9460492e-21)
(-0.00017157438 -7.2572869e-05 -8.5120192e-22)
(-0.00016942057 -6.6252264e-05 1.1495804e-20)
(-0.00016712041 -6.0058994e-05 1.0637413e-20)
(-0.00016468092 -5.3997136e-05 -7.4469265e-21)
(-0.0001621081 -4.8073119e-05 -1.3089668e-20)
(-0.00015940848 -4.2291582e-05 -9.6438851e-21)
(-0.00015658879 -3.665675e-05 -3.3954635e-21)
(-0.00015365666 -3.1173803e-05 -1.9899297e-21)
(-0.0001506199 -2.5846471e-05 -1.0594337e-20)
(-0.00014748508 -2.0676745e-05 -7.6286271e-21)
(-0.00014425813 -1.5669361e-05 -5.2270645e-21)
(-0.00014094716 -1.0826693e-05 6.2983454e-21)
(-0.00013756007 -6.150928e-06 9.2868292e-21)
(-0.00013410336 -1.6442335e-06 -1.4787585e-22)
(-0.00013058418 2.6921827e-06 -1.6891939e-21)
(-0.00012700974 6.8567701e-06 7.1904858e-22)
(-0.00012338729 1.0848635e-05 5.4767938e-21)
(-0.00011972336 1.4667903e-05 2.00004e-21)
(-0.00011602451 1.8312578e-05 -4.0182199e-21)
(-0.00011229822 2.1784495e-05 -4.7268938e-21)
(-0.00010855081 2.5083887e-05 -7.5618159e-21)
(-0.00010478851 2.8210591e-05 -9.4927661e-22)
(-0.00010101827 3.1166066e-05 2.264247e-21)
(-9.724563e-05 3.3951671e-05 -2.9328602e-21)
(-9.3476352e-05 3.6568603e-05 -9.372148e-21)
(-4.4340032e-06 -0.00035038705 1.7039303e-19)
(-9.9298218e-06 -0.00035026477 9.6616739e-20)
(-1.6285356e-05 -0.00034982185 3.5046156e-19)
(-2.2466444e-05 -0.00034911646 1.0467014e-19)
(-2.8773674e-05 -0.00034813212 3.0508834e-19)
(-3.5036109e-05 -0.00034687131 1.4746682e-19)
(-4.1258855e-05 -0.00034533908 3.2591222e-19)
(-4.7431586e-05 -0.00034353933 2.3471575e-19)
(-5.3544607e-05 -0.00034147621 2.1931033e-19)
(-5.958835e-05 -0.00033915408 2.2473658e-19)
(-6.5554215e-05 -0.00033657745 1.7727193e-19)
(-7.1433918e-05 -0.00033375062 9.9285915e-20)
(-7.7219273e-05 -0.00033067839 1.3465032e-19)
(-8.2902191e-05 -0.00032736543 8.9210352e-20)
(-8.8474756e-05 -0.00032381676 1.0439215e-19)
(-9.3928808e-05 -0.00032003797 8.7431961e-20)
(-9.9257127e-05 -0.00031603528 9.6282752e-20)
(-0.00010445304 -0.00031181422 1.0217305e-19)
(-0.00010950952 -0.00030738129 8.4098193e-20)
(-0.00011441978 -0.00030274315 5.9788977e-20)
(-0.00011917717 -0.00029790679 1.6280861e-20)
(-0.0001237759 -0.00029287989 8.1469187e-21)
(-0.00012821053 -0.00028766924 -1.6535248e-20)
(-0.00013247504 -0.00028228291 9.2988772e-21)
(-0.00013656437 -0.00027672948 3.8008847e-20)
(-0.00014047419 -0.00027101657 7.2540082e-21)
(-0.00014419943 -0.00026515287 -4.0971545e-21)
(-0.00014773582 -0.00025914703 -1.4150011e-20)
(-0.00015107995 -0.00025300842 8.2831556e-21)
(-0.00015422835 -0.00024674576 2.9749239e-20)
(-0.00015717774 -0.00024036831 4.9526804e-21)
(-0.0001599257 -0.00023388558 -4.1737096e-22)
(-0.00016246964 -0.00022730688 -1.1553938e-20)
(-0.00016480768 -0.00022064269 5.4203047e-21)
(-0.00016693876 -0.00021390201 2.5157755e-20)
(-0.00016886132 -0.00020709463 4.4926912e-21)
(-0.00017057513 -0.00020023018 -5.5501441e-21)
(-0.00017207984 -0.00019331923 -3.1386052e-21)
(-0.00017337497 -0.00018637109 1.5164111e-20)
(-0.00017446121 -0.00017939533 3.1973855e-20)
(-0.00017533966 -0.00017240192 3.7008988e-20)
(-0.00017601158 -0.0001654004 1.4587061e-20)
(-0.00017647857 -0.00015840015 5.7464992e-21)
(-0.00017674268 -0.0001514107 1.7014183e-20)
(-0.00017680692 -0.00014444125 1.1435351e-20)
(-0.00017667315 -0.0001375014 2.6294387e-20)
(-0.00017634469 -0.00013059925 1.2370712e-20)
(-0.00017582578 -0.00012374415 7.7226959e-21)
(-0.00017511939 -0.00011694466 6.5738946e-21)
(-0.00017422982 -0.00011020859 1.0723732e-20)
(-0.00017316182 -0.00010354393 3.1695995e-20)
(-0.00017191986 -9.6958616e-05 2.5899274e-20)
(-0.00017050881 -9.0460067e-05 1.112776e-20)
(-0.00016893405 -8.4056141e-05 -9.319428e-21)
(-0.0001672014 -7.7751983e-05 -2.754162e-21)
(-0.00016531515 -7.1555607e-05 1.2036902e-20)
(-0.00016328208 -6.5472498e-05 1.1981199e-20)
(-0.00016110869 -5.9509619e-05 1.6446791e-20)
(-0.0001588003 -5.3671557e-05 -1.3239868e-21)
(-0.00015636409 -4.7963571e-05 -9.5899561e-21)
(-0.0001538056 -4.2390072e-05 -2.7130486e-21)
(-0.00015113179 -3.6956169e-05 -9.2025662e-22)
(-0.00014834987 -3.1665979e-05 7.8483177e-21)
(-0.00014546594 -2.6523528e-05 -7.5849056e-21)
(-0.00014248707 -2.1530589e-05 -6.5987736e-21)
(-0.00013941966 -1.669125e-05 2.1353525e-21)
(-0.00013627077 -1.2008954e-05 9.0314806e-21)
(-0.00013304764 -7.4851591e-06 1.5508203e-20)
(-0.00012975662 -3.1219063e-06 -9.0107567e-23)
(-0.00012640454 1.0788298e-06 -1.3813417e-21)
(-0.00012299839 5.1165477e-06 2.0928538e-21)
(-0.00011954472 8.9895424e-06 2.4373318e-21)
(-0.00011605048 1.2697973e-05 6.6610433e-21)
(-0.00011252133 1.6240776e-05 -2.4328161e-21)
(-0.00010896385 1.9618044e-05 -2.1428264e-21)
(-0.00010538522 2.2830823e-05 -3.6959114e-21)
(-0.00010179087 2.5878928e-05 -1.6167603e-21)
(-9.8187125e-05 2.8763458e-05 4.667166e-21)
(-9.4580099e-05 3.1485975e-05 -3.9155593e-21)
(-9.0974896e-05 3.4047404e-05 -1.0931945e-20)
(-4.2526134e-06 -0.00033789104 2.3838442e-19)
(-9.5227225e-06 -0.00033777342 3.7404189e-19)
(-1.5617715e-05 -0.00033734869 1.97367e-19)
(-2.1545531e-05 -0.00033667226 -8.4140385e-20)
(-2.7594206e-05 -0.00033572827 -2.8428093e-20)
(-3.3600144e-05 -0.00033452043 1.2196012e-19)
(-3.9568201e-05 -0.00033305237 -6.3470733e-22)
(-4.5488075e-05 -0.00033132826 -4.7253424e-20)
(-5.135081e-05 -0.00032935209 3.7219415e-20)
(-5.7147726e-05 -0.00032712797 -6.9512423e-20)
(-6.287032e-05 -0.00032466022 -1.1484582e-19)
(-6.8510578e-05 -0.00032195294 -1.287704e-19)
(-7.406056e-05 -0.00031901072 -1.2127185e-19)
(-7.9512198e-05 -0.00031583797 -1.1636543e-19)
(-8.4858275e-05 -0.00031243969 -1.0663664e-19)
(-9.009173e-05 -0.00030882104 -8.2059907e-20)
(-9.5205183e-05 -0.00030498796 -7.9671688e-20)
(-0.0001001918 -0.00030094591 -1.1007455e-19)
(-0.00010504503 -0.00029670109 -8.249039e-20)
(-0.00010975861 -0.0002922596 -6.8741761e-20)
(-0.00011432697 -0.00028762824 -5.0801934e-20)
(-0.00011874373 -0.00028281443 -8.9528039e-22)
(-0.00012300318 -0.0002778247 1.2866473e-20)
(-0.00012710081 -0.00027266653 5.2309366e-21)
(-0.00013103123 -0.00026734829 3.6101782e-20)
(-0.00013478974 -0.00026187717 2.3853236e-20)
(-0.00013837228 -0.00025626136 5.0311092e-21)
(-0.00014177489 -0.00025050933 -1.0745705e-20)
(-0.00014499405 -0.00024462997 -6.7369304e-21)
(-0.00014802625 -0.00023863116 3.3332025e-20)
(-0.0001508683 -0.00023252226 2.5865181e-20)
(-0.00015351806 -0.00022631253 1.2399564e-21)
(-0.00015597387 -0.00022001024 -1.1656929e-20)
(-0.00015823339 -0.00021362549 -1.1786361e-20)
(-0.00016029499 -0.00020716689 3.095996e-20)
(-0.00016215752 -0.00020064379 2.4102625e-20)
(-0.00016382074 -0.00019406561 7.7531902e-21)
(-0.0001652843 -0.00018744147 -7.0530974e-22)
(-0.00016654796 -0.00018078079 -2.0240823e-20)
(-0.00016761252 -0.00017409291 1.0484744e-20)
(-0.00016847871 -0.00016738694 1.5935802e-21)
(-0.00016914743 -0.0001606723 1.4559134e-20)
(-0.00016962028 -0.00015395818 3.7763437e-20)
(-0.00016989951 -0.00014725288 7.9530484e-21)
(-0.00016998798 -0.00014056606 -1.2411637e-20)
(-0.00016988714 -0.00013390591 -1.8721338e-20)
(-0.00016960021 -0.00012728076 9.3306735e-21)
(-0.0001691315 -0.0001206995 3.2098207e-20)
(-0.00016848346 -0.00011416958 7.8898151e-21)
(-0.0001676598 -0.00010769914 -4.5983816e-21)
(-0.00016666512 -0.00010129575 -1.0007162e-20)
(-0.0001655042 -9.4966876e-05 1.2683025e-20)
(-0.0001641818 -8.8719917e-05 8.608384e-21)
(-0.0001627019 -8.2561666e-05 7.3841183e-21)
(-0.00016107019 -7.6497613e-05 8.118069e-21)
(-0.00015929202 -7.0535115e-05 -1.9895404e-21)
(-0.0001573729 -6.4680425e-05 2.2977807e-20)
(-0.00015531874 -5.8937938e-05 1.724838e-20)
(-0.00015313514 -5.3314156e-05 5.7362412e-21)
(-0.00015082794 -4.7813526e-05 4.4773577e-21)
(-0.0001484034 -4.244011e-05 -1.1788091e-20)
(-0.00014586778 -3.7199162e-05 1.059255e-20)
(-0.00014322773 -3.2094256e-05 1.3443218e-20)
(-0.00014048921 -2.7128985e-05 3.350971e-21)
(-0.00013765852 -2.2306494e-05 3.5545371e-21)
(-0.00013474265 -1.7629523e-05 -4.9925469e-21)
(-0.00013174766 -1.3101722e-05 1.6735282e-20)
(-0.0001286802 -8.7244607e-06 2.3068788e-20)
(-0.00012554706 -4.4996363e-06 9.3359658e-21)
(-0.00012235414 -4.3012901e-07 6.7708673e-21)
(-0.00011910805 3.4844719e-06 -8.7121508e-22)
(-0.00011581524 7.2427264e-06 9.9621999e-21)
(-0.00011248195 1.0843556e-05 8.6287273e-21)
(-0.00010911458 1.4287252e-05 4.9070381e-21)
(-0.00010571876 1.7572603e-05 9.1692585e-21)
(-0.00010230087 2.070092e-05 -1.6125103e-21)
(-9.8867061e-05 2.3672274e-05 8.2449241e-21)
(-9.5422751e-05 2.6487433e-05 7.7495179e-21)
(-9.1973503e-05 2.9147485e-05 7.4815682e-22)
(-8.8524921e-05 3.1654101e-05 -1.9233506e-21)
(-4.0788328e-06 -0.00032590725 1.5854292e-19)
(-9.1332367e-06 -0.00032579426 3.0651477e-20)
(-1.497869e-05 -0.00032538653 3.8266964e-20)
(-2.0663635e-05 -0.00032473783 8.802253e-20)
(-2.64652e-05 -0.00032383286 2.7478633e-20)
(-3.2225574e-05 -0.00032267534 1.967223e-20)
(-3.7949235e-05 -0.00032126844 9.0615452e-22)
(-4.3627178e-05 -0.00031961667 1.2554938e-19)
(-4.9250632e-05 -0.00031772377 -1.9679417e-20)
(-5.4811057e-05 -0.00031559358 -7.9699254e-21)
(-6.0300428e-05 -0.00031322979 7.2108536e-20)
(-6.5711119e-05 -0.00031063676 5.8389857e-20)
(-7.1035538e-05 -0.00030781847 7.0872345e-20)
(-7.6266067e-05 -0.00030477948 6.5804524e-20)
(-8.139574e-05 -0.0003015249 1.013512e-19)
(-8.6417647e-05 -0.00029805958 3.6513631e-20)
(-9.1325001e-05 -0.00029438853 3.7049774e-20)
(-9.6111424e-05 -0.00029051736 4.6544605e-20)
(-0.00010077034 -0.00028645198 5.6760359e-20)
(-0.00010529581 -0.00028219873 1.017453e-19)
(-0.00010968261 -0.00027776353 3.9817037e-20)
(-0.00011392473 -0.00027315297 1.7544684e-20)
(-0.00011801668 -0.00026837409 1.4040066e-20)
(-0.00012195409 -0.00026343413 -1.4228194e-20)
(-0.00012573188 -0.00025834008 7.1747729e-21)
(-0.00012934566 -0.00025309967 1.1383859e-20)
(-0.0001327915 -0.00024772071 -1.9489413e-20)
(-0.00013606557 -0.00024221119 -8.5670631e-21)
(-0.0001391643 -0.00023657901 -1.0841181e-20)
(-0.00014208479 -0.00023083222 1.06812e-20)
(-0.00014482454 -0.0002249798 1.2542069e-20)
(-0.00014738062 -0.00021903032 -1.4831832e-20)
(-0.00014975094 -0.00021299193 -3.8998368e-21)
(-0.00015193387 -0.00020687358 -5.4926315e-21)
(-0.00015392804 -0.00020068392 1.7720237e-20)
(-0.00015573251 -0.00019443186 1.7057085e-20)
(-0.00015734673 -0.00018812643 -4.0172555e-21)
(-0.00015877016 -0.00018177617 9.2672813e-22)
(-0.00016000286 -0.00017539025 -6.3076084e-21)
(-0.00016104538 -0.0001689773 7.4835855e-21)
(-0.00016189857 -0.000162546 1.1503804e-20)
(-0.00016256365 -0.00015610552 5.8282807e-21)
(-0.00016304135 -0.00014966409 -2.2885871e-20)
(-0.00016333406 -0.00014323071 -1.2130691e-20)
(-0.00016344465 -0.0001368138 2.4196842e-20)
(-0.00016337402 -0.00013042096 1.4123788e-20)
(-0.00016312571 -0.00012406071 5.6954236e-21)
(-0.00016270319 -0.00011774096 -2.4099649e-20)
(-0.00016210903 -0.0001114687 -7.6918655e-21)
(-0.00016134725 -0.00010525216 2.5018607e-20)
(-0.00016042201 -9.9098693e-05 1.3908874e-20)
(-0.00015933758 -9.3015429e-05 1.8232258e-20)
(-0.00015809809 -8.700926e-05 1.9582107e-20)
(-0.00015670731 -8.1085926e-05 8.6704182e-21)
(-0.00015517152 -7.5252086e-05 -1.714676e-20)
(-0.00015349551 -6.951378e-05 -5.4636974e-21)
(-0.00015168358 -6.3877064e-05 2.7951559e-20)
(-0.000149742 -5.8346682e-05 2.0351548e-20)
(-0.00014767623 -5.292847e-05 3.4586291e-21)
(-0.00014549149 -4.7626659e-05 -1.5796637e-20)
(-0.00014319374 -4.2445607e-05 -9.8753399e-21)
(-0.00014078912 -3.7389692e-05 1.8073371e-20)
(-0.00013828349 -3.2462981e-05 1.0154738e-20)
(-0.00013568283 -2.7668305e-05 8.8309979e-22)
(-0.0001329932 -2.3009795e-05 -8.7842626e-21)
(-0.00013022108 -1.8489409e-05 -3.778033e-21)
(-0.00012737236 -1.4110461e-05 1.5827836e-20)
(-0.00012445291 -9.8745586e-06 1.6778221e-20)
(-0.00012147005 -5.7836455e-06 8.1892278e-21)
(-0.00011842866 -1.8404934e-06 -3.0308745e-21)
(-0.00011533441 1.9547246e-06 8.6411923e-22)
(-0.00011219484 5.6019088e-06 1.2605184e-20)
(-0.00010901552 9.098688e-06 5.3242398e-21)
(-0.00010580228 1.2445253e-05 1.9958297e-21)
(-0.00010256059 1.5641647e-05 -1.3743287e-21)
(-9.9296255e-05 1.868769e-05 -1.2119856e-21)
(-9.601526e-05 2.1583959e-05 7.9406487e-21)
(-9.2723216e-05 2.4331322e-05 1.1558149e-21)
(-8.9425003e-05 2.6930206e-05 -4.1582593e-21)
(-8.6126054e-05 2.9382405e-05 -6.6897638e-21)
(-3.912477e-06 -0.00031441413 9.2019846e-20)
(-8.759789e-06 -0.00031430553 -1.5517874e-19)
(-1.4366558e-05 -0.0003139139 -1.1814373e-20)
(-1.9819352e-05 -0.00031329163 -2.2733967e-21)
(-2.5383707e-05 -0.00031242411 1.1637625e-20)
(-3.0908552e-05 -0.0003113141 1.5476685e-20)
(-3.6398495e-05 -0.00030996603 2.1626622e-20)
(-4.1845008e-05 -0.00030838341 7.7777455e-21)
(-4.7239348e-05 -0.00030656984 8.4647476e-21)
(-5.2573303e-05 -0.00030452902 2.3398114e-20)
(-5.7839282e-05 -0.00030226473 1.0339826e-20)
(-6.3029879e-05 -0.00029978075 3.8730777e-20)
(-6.8138132e-05 -0.00029708136 -7.5724855e-21)
(-7.3157155e-05 -0.0002941707 2.4997917e-20)
(-7.8079832e-05 -0.00029105333 -1.2476227e-20)
(-8.28994e-05 -0.00028773415 -3.876904e-20)
(-8.7609469e-05 -0.00028421806 1.0978119e-20)
(-9.2203797e-05 -0.00028051021 -9.9891697e-21)
(-9.6676698e-05 -0.00027661627 9.2321435e-21)
(-0.00010102226 -0.00027254239 -1.9691371e-20)
(-0.00010523496 -0.00026829422 -6.7332422e-20)
(-0.00010930949 -0.00026387789 -3.7272425e-20)
(-0.00011324094 -0.00025930036 -1.6952331e-20)
(-0.00011702471 -0.00025456852 -1.4605462e-20)
(-0.00012065616 -0.00024968877 2.7954623e-21)
(-0.00012413127 -0.0002446688 -2.3810399e-20)
(-0.000127446 -0.00023951606 -3.5652246e-20)
(-0.00013059674 -0.00023423781 -1.1685476e-20)
(-0.00013358015 -0.00022884137 5.3473004e-21)
(-0.00013639337 -0.0002233357 1.5817317e-20)
(-0.00013903392 -0.00021772831 -1.3295943e-20)
(-0.00014149916 -0.00021202685 -2.4907424e-20)
(-0.00014378734 -0.00020623991 -5.8534811e-21)
(-0.00014589682 -0.00020037612 1.4572618e-20)
(-0.00014782607 -0.0001944431 2.4030359e-20)
(-0.00014957413 -0.00018844986 3.5762576e-22)
(-0.00015114051 -0.00018240481 -1.4048629e-20)
(-0.00015252491 -0.00017631616 -3.5242425e-21)
(-0.00015372721 -0.00017019245 8.6392441e-21)
(-0.00015474775 -0.00016404202 4.4419183e-21)
(-0.00015558771 -0.00015787345 6.3185823e-21)
(-0.0001562476 -0.00015169502 4.4087772e-21)
(-0.00015672897 -0.00014551432 1.1488522e-20)
(-0.00015703393 -0.00013934053 1.4952106e-21)
(-0.00015716415 -0.00013318096 -1.8448361e-20)
(-0.00015712127 -0.00012704331 -1.0452554e-20)
(-0.00015690851 -0.00012093617 -4.1493636e-21)
(-0.00015652897 -0.00011486595 4.6574349e-21)
(-0.0001559854 -0.00010884055 9.1948575e-22)
(-0.00015528181 -0.00010286735 -1.6888049e-20)
(-0.00015442161 -9.6953005e-05 -4.1032122e-21)
(-0.00015340883 -9.110453e-05 3.3866075e-22)
(-0.00015224733 -8.5328352e-05 2.3454872e-21)
(-0.00015094081 -7.9630303e-05 -6.7382608e-22)
(-0.00014949515 -7.4016928e-05 1.2900023e-20)
(-0.00014791501 -6.8493234e-05 1.3298278e-20)
(-0.00014620468 -6.3065534e-05 -5.3157264e-21)
(-0.00014437 -5.773863e-05 -2.1836497e-21)
(-0.00014241572 -5.2517409e-05 -1.2020115e-21)
(-0.00014034655 -4.7406437e-05 9.2850555e-21)
(-0.00013816889 -4.2409927e-05 8.7501629e-21)
(-0.00013588846 -3.7532196e-05 -7.4666167e-21)
(-0.00013351033 -3.2776667e-05 -6.5322616e-21)
(-0.00013104059 -2.8146529e-05 -1.8692404e-21)
(-0.00012848498 -2.3645532e-05 1.1248536e-20)
(-0.00012584936 -1.9275753e-05 1.1099978e-20)
(-0.0001231394 -1.5040443e-05 9.1882713e-22)
(-0.00012036075 -1.0941018e-05 3.9353047e-21)
(-0.00011752081 -6.9796073e-06 4.1272171e-21)
(-0.00011462385 -3.1581516e-06 1.2093274e-20)
(-0.00011167435 5.2188741e-07 1.3590533e-20)