/*--------------------------------*- C++ -*----------------------------------*\
| =========                 |                                                 |
| \\      /  F ield         | OpenFOAM: The Open Source CFD Toolbox           |
|  \\    /   O peration     | Version:  2306                                  |
|   \\  /    A nd           | Website:  www.openfoam.com                      |
|    \\/     M anipulation  |                                                 |
\*---------------------------------------------------------------------------*/
FoamFile
{
    version     2.0;
    format      ascii;
    arch        "LSB;label=32;scalar=64";
    class       volVectorField;
    location    "0.01";
    object      U_0;
}
// * * * * * * * * * * * * * * * * * * * * * * * * * * * * * * * * * * * * * //

dimensions      [0 1 -1 0 0 0 0];

internalField   nonuniform List<vector> 
6400
(
(-0.0013967604 0.030115364 -3.8089795e-18)
(-0.0030233098 0.029919424 8.4442003e-18)
(-0.0049007934 0.029331625 1.7391642e-18)
(-0.0066168097 0.028448314 -7.9450202e-18)
(-0.0082236159 0.027292595 -1.3757964e-18)
(-0.0096623566 0.02589842 2.9086419e-18)
(-0.010904911 0.024305843 1.6298975e-18)
(-0.011929134 0.022559583 -1.1824269e-18)
(-0.012723158 0.020707151 2.1005484e-18)
(-0.013284617 0.018796636 1.5834661e-18)
(-0.013620094 0.016874292 1.0724633e-18)
(-0.013744034 0.014982292 4.3453444e-19)
(-0.01367716 0.013156914 -1.4740274e-19)
(-0.01344455 0.011427371 -4.9467296e-19)
(-0.013073455 0.009815523 -1.2052272e-18)
(-0.012591738 0.008336007 1.2875537e-18)
(-0.012026619 0.0069965358 2.1065678e-19)
(-0.011403322 0.0057989592 -4.2918729e-20)
(-0.010744226 0.0047404021 -1.3270042e-19)
(-0.010068443 0.0038144349 -8.9458644e-19)
(-0.009391698 0.0030121694 -1.3263887e-19)
(-0.0087264486 0.0023232095 1.6677856e-19)
(-0.0080821554 0.0017364344 -1.7401417e-19)
(-0.007465645 0.0012406076 -6.5207274e-20)
(-0.0068815082 0.0008247965 1.8112269e-19)
(-0.0063324033 0.00047875298 -4.0275473e-20)
(-0.0058193175 0.0001937382 -5.4628068e-20)
(-0.0053434834 -4.0615982e-05 -2.8038231e-19)
(-0.0049045 -0.00023159142 -1.6498635e-19)
(-0.0044999908 -0.00038528092 3.6951254e-20)
(-0.0041282569 -0.00050725515 -1.2069111e-20)
(-0.0037875737 -0.00060276085 2.5759397e-20)
(-0.0034759309 -0.00067618801 -9.5438758e-20)
(-0.0031912509 -0.00073128431 -3.1225915e-20)
(-0.0029314701 -0.00077122488 2.0878427e-20)
(-0.0026945763 -0.00079869062 -2.3042717e-20)
(-0.0024786429 -0.00081593902 -5.4592079e-20)
(-0.0022818501 -0.00082486507 -1.0758073e-19)
(-0.0021024971 -0.00082705462 -1.683695e-20)
(-0.0019390063 -0.00082383115 -1.9906941e-20)
(-0.0017899243 -0.00081629623 -3.6175471e-20)
(-0.0016539187 -0.00080536433 2.7666846e-20)
(-0.0015297727 -0.00079179256 1.1311482e-20)
(-0.0014163788 -0.00077620611 1.9114714e-20)
(-0.0013127312 -0.00075911966 -3.2129199e-20)
(-0.0012179186 -0.00074095557 -6.9625661e-20)
(-0.0011311164 -0.00072205918 -1.7806346e-20)
(-0.0010515792 -0.00070271166 1.5759874e-20)
(-0.00097863361 -0.00068314082 2.5252869e-20)
(-0.00091167198 -0.00066353013 -3.4028881e-20)
(-0.0008501458 -0.00064402627 -1.4994646e-20)
(-0.00079356015 -0.00062474548 8.1842614e-22)
(-0.00074146837 -0.00060577883 -1.4975034e-20)
(-0.00069346733 -0.00058719657 2.7078745e-21)
(-0.00064919301 -0.00056905185 3.1775878e-21)
(-0.00060831656 -0.00055138377 -8.0322581e-21)
(-0.00057054081 -0.00053421991 -4.4470941e-21)
(-0.00053559702 -0.00051757845 -1.6170946e-22)
(-0.00050324203 -0.00050146999 1.179148e-21)
(-0.00047325569 -0.00048589891 1.8851815e-21)
(-0.00044543847 -0.00047086472 6.0678398e-22)
(-0.00041960947 -0.00045636294 -1.6492023e-21)
(-0.00039560451 -0.000442386 -6.148454e-21)
(-0.00037327446 -0.00042892393 5.1282438e-21)
(-0.00035248376 -0.00041596492 1.8325081e-21)
(-0.00033310908 -0.00040349576 -2.6873346e-21)
(-0.00031503811 -0.00039150227 1.2385365e-21)
(-0.00029816853 -0.00037996956 1.0456506e-21)
(-0.00028240699 -0.00036888233 -7.9951183e-22)
(-0.00026766824 -0.00035822508 1.3365133e-22)
(-0.00025387444 -0.00034798224 -2.7216912e-21)
(-0.00024095438 -0.00033813836 -2.4192036e-21)
(-0.00022884288 -0.00032867813 2.9210711e-21)
(-0.00021748024 -0.00031958657 2.6079944e-21)
(-0.0002068117 -0.00031084901 2.6302755e-21)
(-0.00019678703 -0.00030245118 -1.2161955e-21)
(-0.00018736015 -0.00029437921 -1.2838229e-21)
(-0.00017848859 -0.00028661972 2.8070388e-21)
(-0.00017013328 -0.00027915976 1.8016806e-21)
(-0.00016225847 -0.00027198687 1.641511e-21)
(-0.0016409091 0.034317652 -7.4776182e-18)
(-0.0035522162 0.034082191 1.9856478e-17)
(-0.0057558557 0.033375456 5.4561064e-18)
(-0.0077646599 0.032313273 7.9836699e-18)
(-0.0096390708 0.030923672 5.7534578e-18)
(-0.011307963 0.029247988 -4.9759684e-18)
(-0.012735823 0.027335815 4.2637494e-18)
(-0.013895442 0.025242972 -1.8907057e-19)
(-0.014772621 0.023029188 -2.3209483e-18)
(-0.015365495 0.020755082 1.151115e-18)
(-0.015683933 0.018478787 -7.9895497e-19)
(-0.015748052 0.016252792 1.2200315e-18)
(-0.015585964 0.014121448 1.4583486e-18)
(-0.015230887 0.012119484 2.2977989e-19)
(-0.014718321 0.010271998 7.3677407e-19)
(-0.014084105 0.0085942571 -1.1433528e-19)
(-0.013362529 0.007092722 -1.2920255e-19)
(-0.012584598 0.0057665743 4.7531768e-19)
(-0.011777127 0.0046093712 2.4093694e-19)
(-0.010962365 0.0036106707 3.6132956e-19)
(-0.010158019 0.0027574865 -3.0421002e-19)
(-0.0093775699 0.0020354961 1.5877128e-19)
(-0.0086307556 0.0014299974 -1.3952547e-19)
(-0.0079241345 0.00092661385 4.4043491e-20)
(-0.0072615607 0.00051194915 8.4737978e-20)
(-0.0066441025 0.00017366887 -1.8367649e-19)
(-0.0060739607 -0.00010156005 -5.3094981e-20)
(-0.0055503955 -0.00032294066 -1.4430471e-19)
(-0.0050697302 -0.00049821347 -1.2127104e-19)
(-0.0046301527 -0.00063495988 3.3258438e-20)
(-0.0042292809 -0.00073986093 -5.3664413e-20)
(-0.0038644134 -0.00081849128 -5.9611856e-21)
(-0.0035327889 -0.00087555643 -8.7106168e-21)
(-0.0032316816 -0.0009150142 -2.2144074e-20)
(-0.0029584611 -0.00094017307 -5.1884927e-20)
(-0.002710631 -0.00095378868 -6.9918856e-21)
(-0.0024858521 -0.00095814849 2.6829736e-21)
(-0.0022819548 -0.00095514525 -3.9220705e-20)
(-0.0020969424 -0.00094634025 -4.5489069e-20)
(-0.0019289887 -0.00093301757 -7.1256347e-20)
(-0.0017764313 -0.00091623003 -1.9375459e-20)
(-0.0016377632 -0.0008968382 6.784308e-21)
(-0.0015116217 -0.00087554313 -2.1425095e-20)
(-0.0013967778 -0.00085291378 1.6158335e-20)
(-0.0012921249 -0.00082940997 -2.2469986e-20)
(-0.0011966678 -0.00080540151 -4.9110421e-20)
(-0.0011095124 -0.0007811841 -6.0200255e-20)
(-0.0010298559 -0.00075699245 -9.6774957e-21)
(-0.00095697754 -0.00073301131 -2.9678468e-21)
(-0.00089023046 -0.00070938449 -1.9157118e-20)
(-0.00082903399 -0.00068622224 -1.0736724e-20)
(-0.00077286674 -0.00066360751 -2.4085053e-20)
(-0.00072126035 -0.00064160104 -8.4221691e-21)
(-0.0006737939 -0.00062024553 -1.5147434e-20)
(-0.00063008891 -0.00059956915 -1.5626595e-20)
(-0.00058980483 -0.00057958838 -8.3313585e-21)
(-0.000552635 -0.00056031036 -1.1250956e-20)
(-0.00051830306 -0.00054173481 1.6777496e-21)
(-0.00048655976 -0.00052385561 -8.3307366e-21)
(-0.00045718012 -0.00050666213 -9.1443244e-21)
(-0.00042996084 -0.00049014022 5.8191847e-21)
(-0.00040471809 -0.00047427315 -2.1494643e-21)
(-0.00038128547 -0.00045904226 -5.7424403e-21)
(-0.0003595122 -0.00044442756 -3.5572257e-21)
(-0.00033926156 -0.00043040817 -8.0932487e-21)
(-0.00032040943 -0.00041696273 -2.0783487e-22)
(-0.00030284304 -0.00040406964 -4.8598681e-21)
(-0.00028645982 -0.00039170732 3.745613e-21)
(-0.00027116639 -0.00037985442 -1.4903742e-21)
(-0.00025687766 -0.00036848994 -4.469042e-21)
(-0.00024351602 -0.00035759334 -7.216538e-22)
(-0.00023101062 -0.00034714465 -7.4503713e-22)
(-0.0002192967 -0.00033712447 2.8846067e-21)
(-0.00020831505 -0.0003275141 -3.5116223e-21)
(-0.00019801143 -0.0003182955 -6.8688422e-22)
(-0.00018833618 -0.0003094513 1.8879615e-21)
(-0.00017924376 -0.00030096485 -1.9515728e-21)
(-0.00017069227 -0.0002928202 9.4028256e-22)
(-0.00016264323 -0.00028500209 -1.8490863e-25)
(-0.00015506147 -0.00027749592 -1.4478499e-21)
(-0.0019346122 0.039264193 -1.2402604e-17)
(-0.0041887608 0.038980819 -1.5716248e-17)
(-0.006785176 0.038129704 -1.4746583e-17)
(-0.0091466383 0.036849797 -7.8124776e-18)
(-0.011343106 0.035174496 9.5439262e-19)
(-0.013287959 0.033153966 -5.5564904e-19)
(-0.014935916 0.030849394 -3.1188065e-18)
(-0.016252915 0.028330614 1.9299678e-18)
(-0.017221461 0.025673187 4.8912593e-19)
(-0.017840315 0.022954202 -2.1050594e-18)
(-0.01812389 0.020247445 -1.4882773e-18)
(-0.018100183 0.017618828 -1.3005232e-18)
(-0.017807468 0.015122887 4.3436735e-19)
(-0.017289884 0.012801131 -2.3077871e-19)
(-0.016594012 0.010681952 4.152013e-19)
(-0.015766198 0.0087805144 -2.6639576e-19)
(-0.01484962 0.0071007275 3.2198184e-20)
(-0.013882304 0.0056375119 -7.7730747e-20)
(-0.012896177 0.0043791962 2.8900197e-19)
(-0.011916834 0.0033097587 4.5628391e-19)
(-0.010963837 0.0024107514 1.0420628e-19)
(-0.01005135 0.0016627898 -4.0381843e-19)
(-0.0091888702 0.0010466998 3.1256892e-19)
(-0.0083818706 0.00054461822 5.0675979e-19)
(-0.0076329195 0.00013926417 3.6979736e-19)
(-0.006944682 -0.0001857679 1.4648571e-19)
(-0.0063149227 -0.00044376938 8.2980321e-20)
(-0.0057393283 -0.00064427599 2.1857498e-19)
(-0.0052158617 -0.00079762497 2.8051671e-19)
(-0.004741101 -0.00091241476 1.3532982e-19)
(-0.0043113585 -0.00099577861 6.3577877e-20)
(-0.003922928 -0.0010536867 5.5181809e-20)
(-0.0035721831 -0.0010911016 7.3321524e-20)
(-0.003255654 -0.0011121281 7.7450301e-20)
(-0.002970077 -0.0011201461 3.3891175e-20)
(-0.002712421 -0.0011179268 1.1377273e-19)
(-0.0024798983 -0.0011077342 1.2587119e-19)
(-0.0022699643 -0.0010914113 6.6415907e-20)
(-0.0020803106 -0.0010704533 7.7940256e-20)
(-0.0019088523 -0.0010460685 6.3724139e-20)
(-0.001753713 -0.0010192301 5.0375487e-20)
(-0.0016132093 -0.00099071819 8.3303556e-21)
(-0.0014858331 -0.00096115516 -8.7319293e-21)
(-0.0013702362 -0.00093103471 4.4494851e-20)
(-0.001265214 -0.00090074575 6.2825208e-20)
(-0.0011696913 -0.00087059209 2.0402114e-20)
(-0.0010827086 -0.0008408085 -3.9897984e-20)
(-0.0010034096 -0.00081157385 4.5662254e-21)
(-0.00093103037 -0.0007830219 3.1291489e-20)
(-0.00086488873 -0.00075525009 3.5755972e-20)
(-0.00080437544 -0.00072832677 1.5763772e-20)
(-0.00074894609 -0.00070229699 -2.2560526e-21)
(-0.00069811385 -0.00067718738 -3.2027022e-21)
(-0.00065144306 -0.00065300995 5.0818001e-21)
(-0.00060854349 -0.00062976528 1.4741706e-20)
(-0.00056906532 -0.00060744509 6.3488183e-21)
(-0.00053269465 -0.00058603426 8.8664774e-21)
(-0.00049914951 -0.00056551253 2.4023783e-21)
(-0.00046817638 -0.00054585587 1.5814239e-22)
(-0.00043954709 -0.00052703752 8.5605183e-21)
(-0.00041305605 -0.00050902889 1.0451101e-21)
(-0.00038851782 -0.00049180025 4.2234284e-21)
(-0.00036576496 -0.00047532128 -3.5578591e-21)
(-0.00034464614 -0.00045956146 1.8286073e-21)
(-0.00032502442 -0.00044449049 3.8887406e-21)
(-0.00030677575 -0.00043007847 5.019588e-21)
(-0.00028978766 -0.00041629613 1.9930088e-21)
(-0.00027395803 -0.00040311501 1.0722224e-21)
(-0.00025919409 -0.00039050751 1.5969556e-21)
(-0.00024541143 -0.000378447 6.0118605e-21)
(-0.00023253321 -0.00036690784 -7.723841e-22)
(-0.00022048938 -0.00035586546 -4.9003542e-22)
(-0.00020921601 -0.00034529631 4.6755942e-21)
(-0.00019865473 -0.00033517788 -1.4643118e-21)
(-0.00018875217 -0.00032548872 7.7815168e-22)
(-0.00017945949 -0.00031620834 -1.2443241e-21)
(-0.000170732 -0.00030731729 2.5918173e-21)
(-0.00016252862 -0.00029879704 9.6254751e-22)
(-0.00015481167 -0.00029062998 -6.5372246e-22)
(-0.00014754671 -0.00028279937 5.2515537e-22)
(-0.002288311 0.045107063 -6.7224579e-18)
(-0.0049557824 0.044765892 7.4884415e-18)
(-0.0080262312 0.043740326 6.464293e-18)
(-0.010814157 0.042196234 -1.1858693e-18)
(-0.013400373 0.040172345 -4.7818777e-19)
(-0.01567853 0.037729074 4.5230099e-18)
(-0.017590258 0.034941463 -1.5237068e-19)
(-0.019091852 0.031897031 -3.7931792e-19)
(-0.020160899 0.028692045 -1.339988e-19)
(-0.020796785 0.025425585 3.8243102e-19)
(-0.021020218 0.022192409 1.59868e-18)
(-0.020870283 0.019076164 2.8819466e-19)
(-0.020399222 0.016144365 6.9152351e-20)
(-0.019666166 0.013446959 4.6021977e-19)
(-0.018732776 0.011015232 -7.8187474e-19)
(-0.017659155 0.0088629563 1.1919945e-19)
(-0.01649967 0.0069894423 -1.2374421e-19)
(-0.015300775 0.0053830084 -3.3600058e-19)
(-0.01410013 0.0040244329 -2.9033985e-19)
(-0.012926682 0.0028900324 -2.6276597e-19)
(-0.011801481 0.0019541248 2.5930936e-19)
(-0.010738708 0.0011908561 -2.2329917e-19)
(-0.0097464927 0.0005761614 5.7481052e-20)
(-0.0088295456 8.5628265e-05 -7.6159552e-20)
(-0.0079903232 -0.00030206084 -1.5960581e-19)
(-0.0072258512 -0.00060423073 -8.5476304e-20)
(-0.0065314164 -0.00083420534 3.0008114e-21)
(-0.00590341 -0.0010060796 -1.0677005e-19)
(-0.005337193 -0.0011309449 -1.0746709e-19)
(-0.0048277741 -0.0012180107 -9.6393212e-20)
(-0.0043701374 -0.0012749168 3.2348681e-20)
(-0.0039594117 -0.0013079397 4.6062715e-20)
(-0.003590978 -0.0013222045 -4.1942516e-20)
(-0.0032605316 -0.001321876 1.0359625e-20)
(-0.002964111 -0.001310322 -5.2953405e-20)
(-0.0026981064 -0.0012902544 4.8154744e-20)
(-0.0024592524 -0.0012638475 4.5571153e-20)
(-0.002244612 -0.0012328376 -2.2899054e-20)
(-0.0020515552 -0.0011986047 2.2938905e-20)
(-0.0018777348 -0.0011622401 -2.9293622e-21)
(-0.0017210608 -0.0011246022 2.6011117e-20)
(-0.0015796762 -0.0010863613 2.2634695e-20)
(-0.0014519324 -0.0010480367 3.4687688e-20)
(-0.0013363673 -0.0010100266 2.3397315e-20)
(-0.0012316848 -0.00097263218 1.534624e-20)
(-0.0011367357 -0.00093607723 4.6849867e-21)
(-0.0010505013 -0.00090052392 -2.7900295e-20)
(-0.00097207774 -0.00086608563 -5.2549357e-21)
(-0.00090066313 -0.00083283722 1.3683136e-20)
(-0.00083554525 -0.00080082333 1.9435682e-21)
(-0.00077609112 -0.00077006506 1.6000601e-20)
(-0.00072173767 -0.00074056528 2.313154e-20)
(-0.00067198356 -0.00071231293 -1.9216213e-21)
(-0.00062638189 -0.00068528638 -3.8279518e-21)
(-0.00058453389 -0.00065945623 -1.1893406e-20)
(-0.00054608334 -0.00063478741 -3.5645157e-21)
(-0.00051071163 -0.00061124091 1.2634165e-20)
(-0.0004781335 -0.00058877517 1.3121623e-20)
(-0.00044809321 -0.00056734713 -8.7005371e-21)
(-0.00042036122 -0.00054691301 -1.3165935e-20)
(-0.00039473127 -0.00052742906 -2.0960344e-21)
(-0.00037101779 -0.00050885195 1.1596983e-20)
(-0.00034905361 -0.00049113919 1.1304216e-21)
(-0.00032868798 -0.00047424939 -5.0083123e-21)
(-0.00030978478 -0.00045814246 -2.0972094e-21)
(-0.00029222096 -0.00044277976 1.5708449e-23)
(-0.00027588516 -0.00042812416 1.3212362e-20)
(-0.00026067647 -0.00041414011 6.0259422e-21)
(-0.00024650336 -0.00040079366 -9.2718026e-21)
(-0.00023328271 -0.00038805245 -6.1416026e-21)
(-0.00022093895 -0.0003758857 4.8121862e-21)
(-0.0002094033 -0.00036426415 2.4111747e-21)
(-0.00019861311 -0.00035316006 5.002111e-22)
(-0.00018851122 -0.00034254712 -3.0113167e-21)
(-0.00017904545 -0.00033240043 -2.4468172e-21)
(-0.00017016811 -0.00032269639 -2.585012e-21)
(-0.00016183561 -0.00031341271 3.2246692e-21)
(-0.00015400794 -0.00030452831 2.9802673e-21)
(-0.00014664844 -0.00029602326 -7.1576283e-22)
(-0.00013972363 -0.00028787869 -1.7459186e-21)
(-0.0027141868 0.052030116 -2.0670247e-17)
(-0.005880023 0.051619831 -2.9210894e-17)
(-0.009523353 0.050385209 1.6453561e-17)
(-0.012828951 0.048522494 -8.7150457e-18)
(-0.015889742 0.046074665 -2.0727677e-18)
(-0.018573982 0.043113424 3.3049669e-18)
(-0.020805434 0.039729955 2.9088331e-19)
(-0.022526309 0.036034022 -2.8222716e-18)
(-0.023706475 0.032149274 -7.9974086e-19)
(-0.024345633 0.028204687 -3.4830495e-18)
(-0.024473265 0.024323698 -3.0533782e-18)
(-0.024144264 0.020613767 -1.2715112e-18)
(-0.02343024 0.017159382 -1.0250286e-18)
(-0.022411305 0.014020566 1.1078527e-18)
(-0.02116991 0.011230659 -1.3883779e-19)
(-0.019784089 0.0087997053 -9.120974e-19)
(-0.018322249 0.0067192324 3.951067e-19)
(-0.016840771 0.0049675231 6.9631154e-19)
(-0.015383461 0.003514573 7.7926766e-19)
(-0.013982318 0.0023262032 2.0017138e-19)
(-0.012659032 0.001367424 -3.1539947e-19)
(-0.011426011 0.00060543417 1.4904446e-19)
(-0.010291389 5.2796456e-06 -2.2732262e-19)
(-0.0092579262 -0.00046128048 -2.8594227e-19)
(-0.0083210797 -0.00081741608 -2.2346253e-19)
(-0.007475446 -0.0010825942 -7.2011969e-19)
(-0.0067156877 -0.0012750612 -4.5063984e-19)
(-0.0060352155 -0.0014096461 -2.3588841e-19)
(-0.0054271315 -0.0014984789 -3.1977445e-19)
(-0.0048845636 -0.0015514525 -1.7453514e-19)
(-0.0044008964 -0.0015765765 -2.5971079e-19)
(-0.0039699177 -0.0015802958 -1.7439639e-19)
(-0.0035858943 -0.0015677666 2.3257128e-20)
(-0.0032436032 -0.0015430927 -9.7328993e-20)
(-0.0029383313 -0.0015095236 -1.6496952e-19)
(-0.0026658568 -0.0014696191 -1.0795326e-19)
(-0.0024224183 -0.0014253854 -1.2866477e-19)
(-0.0022046786 -0.0013783849 -5.7748524e-20)
(-0.0020096858 -0.001329827 -1.1504835e-19)
(-0.0018348342 -0.0012806397 -1.4295184e-19)
(-0.0016778275 -0.0012315283 -4.0439342e-21)
(-0.0015366437 -0.0011830222 7.4290001e-20)
(-0.0014095031 -0.0011355118 5.5713833e-20)
(-0.0012948399 -0.0010892783 -3.1047087e-20)
(-0.0011912754 -0.0010445179 1.8862262e-20)
(-0.0010975954 -0.0010013601 -5.686924e-21)
(-0.0010127304 -0.00095988297 -2.5579429e-20)
(-0.00093573695 -0.00092012508 -2.3105128e-22)
(-0.00086578235 -0.00088209491 -1.1573295e-20)
(-0.0008021308 -0.00084577827 -3.5737493e-21)
(-0.00074413139 -0.00081114405 6.8422749e-21)
(-0.0006912076 -0.00077814887 -5.4096082e-22)
(-0.00064284815 -0.0007467407 -7.4559977e-21)
(-0.00059859906 -0.00071686163 1.4169076e-21)
(-0.00055805666 -0.00068845008 -1.4631981e-21)
(-0.00052086159 -0.00066144247 -1.0723019e-20)
(-0.00048669344 -0.00063577451 -8.9595215e-21)
(-0.00045526619 -0.00061138218 2.9128914e-21)
(-0.00042632413 -0.0005882025 -3.0834759e-21)
(-0.0003996384 -0.00056617397 -2.1563875e-21)
(-0.00037500382 -0.00054523706 -1.9535855e-21)
(-0.00035223627 -0.00052533439 4.3755726e-21)
(-0.00033117024 -0.00050641097 -6.08182e-21)
(-0.0003116568 -0.00048841423 -2.4612246e-21)
(-0.00029356175 -0.0004712941 2.3689387e-21)
(-0.000276764 -0.00045500301 -8.1878614e-21)
(-0.00026115418 -0.00043949587 1.2919976e-21)
(-0.00024663334 -0.00042472995 1.8239507e-23)
(-0.0002331119 -0.00041066488 -1.6585484e-21)
(-0.00022050862 -0.00039726254 -2.6560846e-21)
(-0.00020874977 -0.00038448695 -2.070214e-21)
(-0.00019776831 -0.0003723042 -2.1249416e-22)
(-0.00018750328 -0.00036068233 -5.6220068e-22)
(-0.00017789914 -0.00034959124 -1.577319e-21)
(-0.00016890525 -0.0003390026 8.601866e-22)
(-0.00016047537 -0.00032888972 -8.170326e-22)
(-0.00015256729 -0.00031922751 -7.6694472e-22)
(-0.00014514234 -0.00030999235 1.7992272e-22)
(-0.0001381651 -0.00030116198 1.0670426e-21)
(-0.00013160321 -0.00029271548 -7.8817758e-22)
(-0.003225965 0.060253868 -8.8430613e-18)
(-0.0069917767 0.059762116 -1.8757603e-17)
(-0.01132756 0.058280366 1.4693862e-20)
(-0.015263804 0.056037392 -5.6589709e-20)
(-0.018906445 0.053077104 -1.492113e-17)
(-0.022090646 0.049482649 -5.6161721e-19)
(-0.024715283 0.045363151 7.7663878e-18)
(-0.026701275 0.040856158 1.1386388e-17)
(-0.028005831 0.036121966 -3.389556e-19)
(-0.028627987 0.031331099 6.9906042e-18)
(-0.0286096 0.026647135 7.8947859e-18)
(-0.02802828 0.022210042 2.6497826e-19)
(-0.026983232 0.018127316 2.906494e-19)
(-0.025584419 0.014470171 -1.8271724e-18)
(-0.023942998 0.011272253 -1.1420356e-18)
(-0.022160497 0.0085359039 -6.9685831e-19)
(-0.020322738 0.0062399317 -8.9226086e-20)
(-0.018497484 0.0043475782 -3.2236319e-19)
(-0.016734719 0.0028134174 -4.9172631e-19)
(-0.015068283 0.0015895298 -1.2495842e-18)
(-0.013517666 0.00063134887 -1.5111613e-18)
(-0.012097148 -0.0001125195 3.6799255e-19)
(-0.010810251 -0.00068020818 5.6660427e-19)
(-0.0096499569 -0.0011033763 -2.6667448e-19)
(-0.0086098286 -0.0014100454 3.4196611e-19)
(-0.0076820881 -0.0016249119 -3.0730141e-19)
(-0.006857386 -0.0017678839 -2.4375581e-19)
(-0.0061260005 -0.0018551164 2.3965377e-19)
(-0.0054783723 -0.0018995755 -1.0892816e-19)
(-0.0049054 -0.0019115831 1.8017155e-19)
(-0.0043986291 -0.0018993028 -6.0795986e-20)
(-0.0039503427 -0.0018691496 -8.3388236e-20)
(-0.003553587 -0.0018261335 2.5650363e-19)
(-0.0032021548 -0.0017741439 1.4907824e-20)
(-0.0028905449 -0.0017161806 4.9503071e-20)
(-0.0026139069 -0.0016545419 -4.5170253e-20)
(-0.0023679802 -0.0015909739 -1.1785811e-19)
(-0.0021490331 -0.0015267907 5.8588979e-20)
(-0.0019538023 -0.0014629694 -7.3117533e-20)
(-0.0017794377 -0.0014002251 -5.0114828e-20)
(-0.0016234517 -0.0013390695 1.0259571e-19)
(-0.0014836728 -0.0012798578 6.7566716e-20)
(-0.0013582049 -0.0012228247 -1.2744474e-20)
(-0.0012453919 -0.0011681134 -6.6147094e-22)
(-0.0011437861 -0.0011157978 4.1699018e-20)
(-0.0010521208 -0.0010658995 8.8071554e-21)
(-0.00096928638 -0.0010184018 -1.4521284e-20)
(-0.0008943096 -0.00097325993 -6.7434387e-21)
(-0.00082633574 -0.00093040891 1.1155534e-20)
(-0.00076461312 -0.00088977004 1.8015846e-20)
(-0.00070847968 -0.00085125553 2.8069139e-20)
(-0.00065735146 -0.00081477218 1.3534949e-20)
(-0.00061071259 -0.00078022413 4.2847866e-21)
(-0.00056810667 -0.0007475149 1.243394e-20)
(-0.00052912927 -0.00071654895 -6.2813606e-21)
(-0.00049342147 -0.00068723277 -9.1961843e-21)
(-0.00046066425 -0.00065947567 1.2216325e-20)
(-0.0004305736 -0.00063319032 2.3505623e-20)
(-0.00040289636 -0.00060829311 2.4244491e-21)
(-0.00037740644 -0.00058470431 -5.8433815e-21)
(-0.00035390168 -0.00056234821 2.6594346e-21)
(-0.00033220106 -0.0005411531 8.6553402e-21)
(-0.00031214221 -0.00052105125 8.1031839e-21)
(-0.00029357932 -0.00050197877 5.1811466e-21)
(-0.00027638127 -0.00048387549 -7.2308871e-21)
(-0.00026042995 -0.00046668486 -3.6819532e-21)
(-0.00024561885 -0.00045035376 6.5550697e-21)
(-0.00023185182 -0.00043483229 1.0165268e-20)
(-0.0002190419 -0.00042007366 -2.0071782e-21)
(-0.00020711036 -0.00040603401 -4.927444e-21)
(-0.00019598585 -0.00039267219 -1.3540578e-21)
(-0.00018560359 -0.00037994965 3.3291412e-21)
(-0.00017590476 -0.00036783028 8.6740083e-21)
(-0.00016683581 -0.00035628023 -1.4499782e-22)
(-0.00015834799 -0.00034526776 -6.4398372e-22)
(-0.00015039685 -0.00033476318 -1.1996954e-21)
(-0.00014294182 -0.00032473861 2.0270578e-21)
(-0.00013594579 -0.00031516796 6.1467943e-21)
(-0.00012937483 -0.0003060267 -2.5170941e-22)
(-0.00012319793 -0.00029729188 -2.7199402e-21)
(-0.0038382016 0.070039347 -1.4702073e-17)
(-0.0083234689 0.069453784 1.5923946e-17)
(-0.013494907 0.067686291 -8.4227313e-19)
(-0.018201958 0.064997358 1.3524513e-17)
(-0.022563563 0.061423946 -8.8027456e-19)
(-0.026371099 0.057059083 -2.3376671e-18)
(-0.029488145 0.052030117 -2.1929996e-17)
(-0.031802407 0.046508769 -5.4593873e-18)
(-0.033249612 0.04070505 5.1816491e-18)
(-0.033825737 0.034848711 -9.6857823e-18)
(-0.033590505 0.029161063 -8.7915828e-19)
(-0.032654344 0.023827542 2.1963979e-18)
(-0.031157093 0.018987032 2.4418547e-18)
(-0.029252184 0.014722532 2.789252e-18)
(-0.027090231 0.011064191 -1.3652683e-18)
(-0.024803556 0.0080000257 2.5966936e-18)
(-0.022499274 0.0054885612 -1.5154735e-18)
(-0.020257732 0.0034707307 6.6286261e-19)
(-0.018133621 0.0018807086 2.482722e-18)
(-0.016157862 0.00065415532 1.0941834e-18)
(-0.014355952 -0.00028269603 -3.6743754e-19)
(-0.012733497 -0.00098254854 -3.2076276e-19)
(-0.011279143 -0.0014899632 1.858992e-19)
(-0.0099853611 -0.0018457784 -6.6062305e-19)
(-0.0088407644 -0.0020841862 -2.2289986e-19)
(-0.0078318856 -0.0022324799 -4.2104856e-19)
(-0.0069448478 -0.002312439 -5.3485958e-19)
(-0.006166132 -0.0023412572 -2.0682644e-19)
(-0.0054830285 -0.0023323712 -3.0134914e-19)
(-0.0048838777 -0.002296197 -1.1468015e-19)
(-0.0043581679 -0.0022407481 -2.4352182e-19)
(-0.0038965423 -0.0021721451 -1.6393909e-19)
(-0.0034907489 -0.0020950266 -1.3420889e-20)
(-0.00313356 -0.0020128798 -1.1373899e-19)
(-0.0028186753 -0.0019283005 -1.2122497e-19)
(-0.0025406226 -0.0018431989 -1.4086677e-19)
(-0.0022946586 -0.0017589603 -7.6744308e-20)
(-0.0020766792 -0.0016765686 -3.9614622e-20)
(-0.0018831348 -0.0015967026 -7.2473203e-20)
(-0.0017109554 -0.0015198116 -6.011271e-20)
(-0.0015574854 -0.0014461717 -1.6297329e-20)
(-0.0014204265 -0.0013759312 2.666594e-21)
(-0.0012977877 -0.0013091434 -1.1764511e-20)
(-0.0011878423 -0.0012457933 4.2395595e-20)
(-0.0010890904 -0.0011858165 -5.5554422e-21)
(-0.0010002277 -0.0011291145 -3.7586575e-20)
(-0.00092011811 -0.0010755655 -3.9012901e-20)
(-0.0008477701 -0.0010250335 1.5102014e-20)
(-0.00078231721 -0.00097737399 6.4927076e-21)
(-0.00072300082 -0.00093243879 -1.5392207e-20)
(-0.00066915558 -0.00089007969 -3.6464735e-21)
(-0.0006201969 -0.00085015071 -2.055173e-20)
(-0.00057561027 -0.00081250985 -2.1038671e-22)
(-0.00053494203 -0.00077702031 4.3414576e-21)
(-0.0004977915 -0.00074355124 2.3115562e-20)
(-0.00046380415 -0.00071197817 4.315257e-21)
(-0.00043266576 -0.00068218325 -2.2644047e-20)
(-0.00040409738 -0.00065405523 4.722781e-21)
(-0.00037785093 -0.0006274895 1.7470826e-21)
(-0.00035370544 -0.00060238778 1.7489352e-20)
(-0.00033146375 -0.00057865801 1.1900301e-20)
(-0.00031094969 -0.00055621402 -1.4471134e-20)
(-0.00029200557 -0.00053497527 -7.7500152e-22)
(-0.00027449006 -0.00051486651 2.2313331e-21)
(-0.00025827627 -0.00049581752 9.5461073e-21)
(-0.00024325013 -0.00047776279 5.7061951e-21)
(-0.00022930894 -0.00046064122 -1.0660105e-20)
(-0.0002163601 -0.00044439581 5.0884317e-21)
(-0.00020432003 -0.00042897343 1.2534793e-21)
(-0.00019311314 -0.00041432453 8.2016631e-21)
(-0.00018267102 -0.00040040289 2.1408916e-21)
(-0.00017293165 -0.00038716543 -5.9429563e-21)
(-0.00016383877 -0.00037457194 3.1645933e-21)
(-0.00015534124 -0.00036258489 -1.9930987e-21)
(-0.00014739253 -0.00035116928 6.5911257e-21)
(-0.00013995029 -0.0003402924 3.6008318e-21)
(-0.00013297589 -0.00032992372 -5.5821334e-21)
(-0.00012643402 -0.00032003472 4.9585045e-23)
(-0.00012029244 -0.00031059869 1.7529711e-22)
(-0.00011452173 -0.00030159069 6.4721948e-21)
(-0.0045645869 0.081688946 -3.0481515e-17)
(-0.0099062206 0.080999513 -8.308829e-17)
(-0.016081903 0.078913431 -4.2466234e-17)
(-0.021733803 0.075716522 -2.8045967e-17)
(-0.026991796 0.071421677 -1.5084127e-18)
(-0.031588201 0.066127383 -7.2476387e-18)
(-0.035335924 0.05997599 4.6260032e-18)
(-0.038069487 0.053179951 -1.6633443e-17)
(-0.039687103 0.046017572 -7.9486639e-18)
(-0.040176416 0.038805557 -2.057462e-18)
(-0.039623477 0.03185071 -9.6584866e-18)
(-0.038187592 0.025404437 -3.215446e-18)
(-0.036069888 0.01964752 5.8344345e-20)
(-0.033488063 0.014674354 -4.3485708e-19)
(-0.030647233 0.010504048 2.410736e-19)
(-0.027719805 0.0070992285 -9.4809435e-19)
(-0.024838137 0.0043864004 1.7583147e-18)
(-0.022093838 0.0022755113 1.0510602e-18)
(-0.019541915 0.00067199043 6.9092218e-19)
(-0.017224461 -0.00052767836 4.3985182e-20)
(-0.015148675 -0.0014033305 -5.3211778e-19)
(-0.013300112 -0.002017977 -5.115846e-21)
(-0.011670224 -0.002431942 9.1598555e-20)
(-0.010241713 -0.0026936381 1.2613607e-19)
(-0.0089947024 -0.0028411805 3.4709333e-20)
(-0.0079090079 -0.0029044444 1.48868e-19)
(-0.0069651992 -0.0029065258 2.3166519e-19)
(-0.0061452454 -0.0028650902 -1.1665438e-20)
(-0.0054328302 -0.0027935171 1.232252e-20)
(-0.0048134468 -0.0027018455 -1.3573909e-19)
(-0.0042743583 -0.0025975379 1.9765427e-20)
(-0.0038044833 -0.0024860868 -8.3059296e-21)
(-0.0033942421 -0.0023714865 -1.4800203e-19)
(-0.0030353907 -0.0022566029 -4.7866302e-21)
(-0.0027208554 -0.002143454 -1.3880263e-19)
(-0.0024445783 -0.0020334228 8.2837219e-20)
(-0.0022013752 -0.0019274222 7.3158287e-20)
(-0.0019868097 -0.001826019 -5.5812408e-20)
(-0.0017970849 -0.0017295269 2.7898947e-20)
(-0.0016289493 -0.001638077 -3.3445696e-20)
(-0.0014796149 -0.0015516704 -5.9615005e-20)
(-0.0013466879 -0.0014702175 -2.4223114e-20)
(-0.0012281094 -0.0013935666 -5.3197703e-20)
(-0.0011221058 -0.0013215256 3.7100592e-21)
(-0.0010271462 -0.0012538776 5.7312432e-20)
(-0.00094190664 -0.0011903923 2.4358834e-20)
(-0.00086524007 -0.0011308347 -4.8021756e-20)
(-0.00079615045 -0.0010749705 -2.0185883e-20)
(-0.00073377125 -0.0010225708 -5.3097758e-21)
(-0.000677347 -0.00097341415 2.1791414e-20)
(-0.00062621778 -0.00092728901 1.732963e-20)
(-0.00057980592 -0.00088399443 -1.7301867e-20)
(-0.00053760475 -0.0008433407 -1.8521401e-20)
(-0.00049916898 -0.00080514954 4.0048188e-21)
(-0.00046410651 -0.00076925395 2.7111765e-20)
(-0.00043207142 -0.00073549793 -2.206273e-20)
(-0.00040275792 -0.00070373607 -8.7773515e-21)
(-0.00037589524 -0.00067383303 4.0920574e-21)
(-0.00035124315 -0.000645663 6.569223e-22)
(-0.00032858815 -0.00061910919 1.5225959e-20)
(-0.00030774017 -0.00059406317 -1.8746282e-20)
(-0.00028852967 -0.0005704244 -3.928864e-21)
(-0.00027080524 -0.00054809962 -1.1791055e-22)
(-0.00025443139 -0.00052700238 1.435299e-21)
(-0.00023928668 -0.00050705252 9.5896005e-21)
(-0.00022526213 -0.00048817572 -7.2550216e-21)
(-0.00021225976 -0.00047030304 -1.7402957e-21)
(-0.00020019138 -0.00045337055 -5.0966396e-22)
(-0.00018897747 -0.0004373189 1.900704e-21)
(-0.00017854621 -0.00042209302 1.0513328e-20)
(-0.00016883272 -0.00040764177 -9.0893926e-21)
(-0.00015977821 -0.00039391762 -2.2020747e-21)
(-0.00015132944 -0.00038087642 4.6271611e-21)
(-0.00014343804 -0.0003684771 -5.7591604e-22)
(-0.00013606008 -0.00035668145 2.5885562e-21)
(-0.00012915559 -0.00034545392 -4.9630401e-21)
(-0.00012268817 -0.00033476139 5.8504672e-22)
(-0.00011662454 -0.00032457302 1.400654e-21)
(-0.00011093438 -0.00031485998 -9.7216938e-22)
(-0.00010559003 -0.00030559542 2.699516e-21)
(-0.0054144296 0.095540636 5.7150562e-18)
(-0.011762794 0.094744091 5.5868684e-17)
(-0.019135411 0.092324539 -8.411631e-17)
(-0.025948235 0.088577827 -1.0051234e-17)
(-0.032335554 0.083456695 -1.605165e-17)
(-0.037947805 0.077056727 5.3567538e-17)
(-0.042525195 0.069525016 1.3071341e-17)
(-0.045815362 0.061119206 1.9404722e-17)
(-0.047649364 0.052212351 9.1255176e-18)
(-0.047995446 0.043253118 1.5579724e-18)
(-0.04697898 0.034678933 4.2294657e-18)
(-0.044835535 0.026840763 -7.0531348e-19)
(-0.041861316 0.019973696 4.9411823e-19)
(-0.038369653 0.014180107 -2.2763038e-18)
(-0.034641471 0.0094538501 -1.3727723e-19)