/*--------------------------------*- C++ -*----------------------------------*\
| =========                 |                                                 |
| \\      /  F ield         | OpenFOAM: The Open Source CFD Toolbox           |
|  \\    /   O peration     | Version:  2106                                  |
|   \\  /    A nd           | Website:  www.openfoam.com                      |
|    \\/     M anipulation  |                                                 |
\*---------------------------------------------------------------------------*/
FoamFile
{
    version     2.0;
    format      ascii;
    arch        "LSB;label=32;scalar=64";
    class       volScalarField;
    location    "0.017";
    object      p;
}
// * * * * * * * * * * * * * * * * * * * * * * * * * * * * * * * * * * * * * //

dimensions      [1 -1 -2 0 0 0 0];

internalField   nonuniform List<scalar> 
256
(
15.66832
13.288575
8.8800891
3.1106533
-3.1298673
-8.9016559
-13.311759
-15.695111
-15.695363
-13.312083
-8.9026714
-3.1306912
3.1096755
8.8795027
13.288196
15.6682
18.028317
15.293871
10.226371
3.5821607
-3.6022484
-10.253695
-15.329729
-18.073205
-18.073541
-15.329955
-10.25496
-3.6032854
3.5809915
10.225741
15.293501
18.028207
22.823492
19.371955
12.967481
4.5410996
-4.5600895
-13.002808
-19.430039
-22.903799
-22.904287
-19.429974
-13.004448
-4.5613989
4.5397448
12.966831
19.37166
22.823407
30.62623
26.008349
17.437716
6.1138057
-6.11165
-17.491479
-26.136786
-30.8172
-30.817999
-26.136391
-17.494354
-6.1155589
6.1108946
17.436476
26.008223
30.626211
44.152129
37.569229
25.23546
8.8067846
-8.8996328
-25.357719
-37.725774
-44.368343
-44.368716
-37.723133
-25.359645
-8.9021131
8.8069995
25.236303
37.570686
44.152376
57.894015
49.244553
33.134872
11.667913
-11.51528
-33.234565
-49.687427
-58.637998
-58.639025
-49.68528
-33.23854
-11.526631
11.661678
33.131671
49.245697
57.893512
95.295589
81.646118
55.293247
19.312742
-19.734406
-55.74922
-82.280855
-96.343787
-96.340524
-82.267379
-55.750558
-19.758186
19.311895
55.300901
81.656465
95.297431
112.80976
96.431067
65.220617
23.503916
-21.563965
-59.863686
-86.465841
-99.934422
-99.930813
-86.458776
-59.868122
-21.593586
23.48599
65.223453
96.44009
112.80883
-98.853084
-85.694754
-59.310835
-21.26097
23.395773
64.59087
95.3957
111.81648
111.81261
95.387808
64.596356
23.427322
-21.24352
-59.313017
-85.701816
-98.852737
-97.078015
-83.123194
-56.259216
-19.783515
19.594547
55.727962
82.196194
96.176587
96.173205
82.182731
55.728846
19.617577
-19.783845
-56.268488
-83.134919
-97.080252
-54.810179
-46.480406
-31.058833
-10.729339
10.921413
30.944599
45.951159
54.069346
54.07085
45.950702
30.950275
10.93424
-10.721719
-31.054409
-46.48068
-54.809196
-48.459329
-41.246133
-27.713347
-9.7047397
9.6440185
27.565724
41.016875
48.245474
48.245472
41.013016
27.566468
9.6456029
-9.7067248
-27.716214
-41.249329
-48.46019
-20.413871
-17.310404
-11.568522
-4.0227988
4.0543396
11.533684
17.178875
20.231064
20.232194
17.179845
11.537594
4.0591325
-4.0183812
-11.56561
-17.309005
-20.413341
-33.869816
-28.744104
-19.235806
-6.7453086
6.729569
19.207057
28.701016
33.831126
33.831316
28.699742
19.207296
6.728782
-6.7460839
-19.237067
-28.745069
-33.87015
6.7098663
5.6801422
3.7840557
1.3158507
-1.3503001
-3.8175286
-5.713383
-6.7403619
-6.7400654
-5.712756
-3.8162194
-1.3487637
1.3174349
3.7852335
5.6808502
6.7100837
-42.781194
-36.273674
-24.238401
-8.4938319
8.5098909
24.240215
36.257853
42.757158
42.75748
36.257845
24.241283
8.5102548
-8.4931575
-24.238254
-36.273589
-42.78116
)
;

boundaryField
{
    leftWall
    {
        type            cyclic;
    }
    rightWall
    {
        type            cyclic;
    }
    lowerWall
    {
        type            calculated;
        value           nonuniform List<scalar> 
16
(
15.66832
13.288575
8.8800891
3.1106533
-3.1298673
-8.9016559
-13.311759
-15.695111
-15.695363
-13.312083
-8.9026714
-3.1306912
3.1096755
8.8795027
13.288196
15.6682
)
;
    }
    atmosphere
    {
        type            calculated;
        value           nonuniform List<scalar> 
16
(
-0.00038933769
-0.0031637582
-0.0071134033
-0.0099686816
0
0
0
0
0
0
0
0
-0.0099706188
-0.0071176938
-0.003167917
-0.00039101455
)
;
    }
    defaultFaces
    {
        type            empty;
    }
}


// ************************************************************************* //
