/*--------------------------------*- C++ -*----------------------------------*\
| =========                 |                                                 |
| \\      /  F ield         | OpenFOAM: The Open Source CFD Toolbox           |
|  \\    /   O peration     | Version:  2106                                  |
|   \\  /    A nd           | Website:  www.openfoam.com                      |
|    \\/     M anipulation  |                                                 |
\*---------------------------------------------------------------------------*/
FoamFile
{
    version     2.0;
    format      ascii;
    arch        "LSB;label=32;scalar=64";
    class       volVectorField;
    location    "0.017";
    object      U;
}
// * * * * * * * * * * * * * * * * * * * * * * * * * * * * * * * * * * * * * //

dimensions      [0 1 -1 0 0 0 0];

internalField   nonuniform List<vector> 
256
(
(-0.032749475 0.030380906 0)
(-0.093237289 0.02575286 0)
(-0.13957148 0.017198041 0)
(-0.16457425 0.0060535208 0)
(-0.16459647 -0.0060168347 0)
(-0.13955469 -0.017174615 0)
(-0.09328138 -0.025723556 0)
(-0.032789787 -0.030374212 0)
(0.032763106 -0.030374984 0)
(0.093258666 -0.025726377 0)
(0.13953802 -0.01717832 0)
(0.1645906 -0.0060228473 0)
(0.16458111 0.0060484542 0)
(0.1395875 0.017193924 0)
(0.093260257 0.025750405 0)
(0.032775573 0.030380098 0)
(-0.036024008 0.095238992 0)
(-0.1025436 0.080711679 0)
(-0.15343477 0.053893819 0)
(-0.18091698 0.018901044 0)
(-0.18089088 -0.018944333 0)
(-0.1533831 -0.053903242 0)
(-0.10255628 -0.080697056 0)
(-0.036064951 -0.095274254 0)
(0.036034446 -0.095276546 0)
(0.10253044 -0.080705822 0)
(0.15336309 -0.053914502 0)
(0.1808836 -0.018963449 0)
(0.18092581 0.018885133 0)
(0.15345354 0.053881158 0)
(0.10257007 0.080704216 0)
(0.036053572 0.095236558 0)
(-0.042083664 0.16748149 0)
(-0.11974609 0.14188194 0)
(-0.17906026 0.094698185 0)
(-0.21107691 0.033235012 0)
(-0.21102198 -0.033266715 0)
(-0.17897004 -0.094609625 0)
(-0.11975092 -0.14173921 0)
(-0.042143142 -0.1674383 0)
(0.042105135 -0.16744208 0)
(0.11971899 -0.14175505 0)
(0.1789428 -0.094628618 0)
(0.2110114 -0.033302445 0)
(0.21109035 0.033206192 0)
(0.1790849 0.09467586 0)
(0.11977951 0.14186898 0)
(0.042119883 0.16747735 0)
(-0.053804278 0.25536561 0)
(-0.1530397 0.21617226 0)
(-0.22871886 0.14414222 0)
(-0.26965876 0.050602348 0)
(-0.26967284 -0.050748094 0)
(-0.22886015 -0.14409042 0)
(-0.15336064 -0.21606893 0)
(-0.054031737 -0.25545576 0)
(0.053981578 -0.25546129 0)
(0.15331956 -0.21609428 0)
(0.22882024 -0.14411942 0)
(0.26965577 -0.050814399 0)
(0.26968101 0.050550106 0)
(0.22875348 0.14410743 0)
(0.15308434 0.2161533 0)
(0.053850962 0.25536013 0)
(-0.074732478 0.37905177 0)
(-0.21249178 0.32084367 0)
(-0.31747377 0.21384431 0)
(-0.3747384 0.075175953 0)
(-0.37493998 -0.075321421 0)
(-0.31803048 -0.21349899 0)
(-0.21317772 -0.3204188 0)
(-0.075109967 -0.37904951 0)
(0.075041116 -0.37905517 0)
(0.21312238 -0.32045254 0)
(0.31796238 -0.21353194 0)
(0.37490633 -0.075409763 0)
(0.3747833 0.075107307 0)
(0.3175316 0.21380319 0)
(0.21255442 0.32081926 0)
(0.074793071 0.37904544 0)
(-0.095425281 0.52800956 0)
(-0.2715222 0.44619871 0)
(-0.40592929 0.29745894 0)
(-0.48012509 0.10557606 0)
(-0.4793247 -0.10451716 0)
(-0.40460418 -0.29676185 0)
(-0.27038955 -0.44659575 0)
(-0.094944281 -0.52946912 0)
(0.094854966 -0.52948061 0)
(0.27032159 -0.44664311 0)
(0.40451024 -0.2968046 0)
(0.47927183 -0.10470408 0)
(0.48019362 0.1054151 0)
(0.40600771 0.29740114 0)
(0.27160129 0.4461722 0)
(0.09550221 0.52800692 0)
(-0.072611788 0.77150014 0)
(-0.20427784 0.65338531 0)
(-0.30219822 0.43676024 0)
(-0.35977358 0.15406003 0)
(-0.35772477 -0.15726947 0)
(-0.29743091 -0.43710808 0)
(-0.19835448 -0.65200579 0)
(-0.069335628 -0.769111 0)
(0.069210107 -0.769122 0)
(0.19827119 -0.65204538 0)
(0.29723718 -0.43715425 0)
(0.35757378 -0.1575038 0)
(0.35993263 0.15385507 0)
(0.30238574 0.43672711 0)
(0.20439441 0.65335772 0)
(0.072698954 0.771505 0)
(0.01965656 0.75938419 0)
(0.057688873 0.63550105 0)
(0.090177278 0.42450343 0)
(0.10232315 0.15223361 0)
(0.099466005 -0.15662384 0)
(0.083323439 -0.42719692 0)
(0.051542991 -0.63517516 0)
(0.017434466 -0.75184066 0)
(-0.017542211 -0.75188183 0)
(-0.051615368 -0.63519497 0)
(-0.083431541 -0.42718479 0)
(-0.099602717 -0.15709139 0)
(-0.10222579 0.15169618 0)
(-0.090015292 0.42448252 0)
(-0.057586855 0.635551 0)
(-0.019566596 0.75941785 0)
(-0.017584443 0.75585369 0)
(-0.053368162 0.63622198 0)
(-0.086972037 0.42897453 0)
(-0.10305206 0.15799282 0)
(-0.10520999 -0.1520581 0)
(-0.091962637 -0.42609425 0)
(-0.059532787 -0.63938923 0)
(-0.020863921 -0.76132398 0)
(0.020977703 -0.76136288 0)
(0.059607161 -0.63940482 0)
(0.092074392 -0.42608253 0)
(0.10535655 -0.15252383 0)
(0.10296525 0.15746375 0)
(0.086817253 0.42895984 0)
(0.053274552 0.63627368 0)
(0.017501409 0.75589036 0)
(0.068713141 0.76775432 0)
(0.19557168 0.65064387 0)
(0.29269476 0.43652098 0)
(0.35254248 0.15660306 0)
(0.35466301 -0.15412306 0)
(0.29826477 -0.43551005 0)
(0.20142475 -0.65191565 0)
(0.071321819 -0.76952843 0)
(-0.071195941 -0.76953861 0)
(-0.20133931 -0.65195651 0)
(-0.29806995 -0.43556473 0)
(-0.35451256 -0.15436739 0)
(-0.35270393 0.15639312 0)
(-0.29288401 0.43648481 0)
(-0.19569005 0.65061181 0)
(-0.068801233 0.7677605 0)
(0.094651035 0.54102942 0)
(0.26951566 0.45622825 0)
(0.40341177 0.30348232 0)
(0.47787119 0.10691679 0)
(0.47819193 -0.10780763 0)
(0.40417281 -0.30388421 0)
(0.27032085 -0.45610043 0)
(0.094963637 -0.53938047 0)
(-0.094881765 -0.53939049 0)
(-0.27025724 -0.45614324 0)
(-0.40408211 -0.30392278 0)
(-0.4781434 -0.10798742 0)
(-0.47794031 0.10676315 0)
(-0.40348476 0.30343094 0)
(-0.26958922 0.45620434 0)
(-0.094720995 0.54102861 0)
(0.072282468 0.36866734 0)
(0.20504515 0.31173115 0)
(0.30568278 0.20799099 0)
(0.36012705 0.073593476 0)
(0.35951677 -0.072886447 0)
(0.30435844 -0.20788325 0)
(0.20366963 -0.31228993 0)
(0.071628941 -0.36906672 0)
(-0.071553814 -0.3690744 0)
(-0.20360877 -0.31233004 0)
(-0.30428466 -0.20792679 0)
(-0.35948058 -0.072989085 0)
(-0.36017528 0.073513219 0)
(-0.30574568 0.20794005 0)
(-0.20511372 0.31170013 0)
(-0.072348674 0.36865943 0)
(0.054913093 0.29564599 0)
(0.15594182 0.25030657 0)
(0.23273917 0.16732876 0)
(0.27412134 0.059339285 0)
(0.27387115 -0.058133166 0)
(0.23210903 -0.16685694 0)
(0.15519465 -0.25077505 0)
(0.054549364 -0.29643714 0)
(-0.05451504 -0.29644107 0)
(-0.1551665 -0.25079528 0)
(-0.23207982 -0.16687884 0)
(-0.27385893 -0.058191698 0)
(-0.27413895 0.059294769 0)
(-0.23276311 0.16730118 0)
(-0.15597262 0.25029248 0)
(-0.054944624 0.2956424 0)
(0.034796007 0.12910784 0)
(0.098884193 0.10954164 0)
(0.14772779 0.07359237 0)
(0.17415428 0.026473552 0)
(0.17415972 -0.025045978 0)
(0.14773232 -0.073073353 0)
(0.098827335 -0.11025297 0)
(0.034762505 -0.1305412 0)
(-0.034711624 -0.13054882 0)
(-0.098784499 -0.11027972 0)
(-0.14769678 -0.073108829 0)
(-0.17414607 -0.025100315 0)
(-0.17417151 0.026425759 0)
(-0.14776039 0.073553408 0)
(-0.098928797 0.10951728 0)
(-0.03484458 0.12909972 0)
(0.052312859 0.19266493 0)
(0.14894402 0.16348652 0)
(0.22296959 0.10961702 0)
(0.26315297 0.039020336 0)
(0.26345732 -0.037708008 0)
(0.22370025 -0.10904003 0)
(0.14963347 -0.1639541 0)
(0.052585721 -0.19378265 0)
(-0.052585328 -0.1937819 0)
(-0.14963282 -0.16395422 0)
(-0.22369837 -0.10903815 0)
(-0.26345712 -0.037712236 0)
(-0.26315511 0.039019806 0)
(-0.22297047 0.10961753 0)
(-0.14894451 0.16348817 0)
(-0.052312522 0.19266566 0)
(0.027904755 -0.098925247 0)
(0.079545688 -0.083808619 0)
(0.11927618 -0.055831513 0)
(0.14119973 -0.01938495 0)
(0.14166292 0.019639632 0)
(0.12046307 0.055902296 0)
(0.080692339 0.083634827 0)
(0.028416913 0.098588856 0)
(-0.028356441 0.09858087 0)
(-0.080640917 0.083610289 0)
(-0.12042671 0.055867044 0)
(-0.14164909 0.019594922 0)
(-0.14121345 -0.019430472 0)
(-0.11931214 -0.055869078 0)
(-0.079597952 -0.083832937 0)
(-0.027964783 -0.098933478 0)
)
;

boundaryField
{
    leftWall
    {
        type            cyclic;
    }
    rightWall
    {
        type            cyclic;
    }
    lowerWall
    {
        type            slip;
    }
    atmosphere
    {
        type            slip;
    }
    defaultFaces
    {
        type            empty;
    }
}


// ************************************************************************* //
