/*--------------------------------*- C++ -*----------------------------------*\
| =========                 |                                                 |
| \\      /  F ield         | OpenFOAM: The Open Source CFD Toolbox           |
|  \\    /   O peration     | Version:  2106                                  |
|   \\  /    A nd           | Website:  www.openfoam.com                      |
|    \\/     M anipulation  |                                                 |
\*---------------------------------------------------------------------------*/
FoamFile
{
    version     2.0;
    format      ascii;
    arch        "LSB;label=32;scalar=64";
    class       surfaceScalarField;
    location    "1.1";
    object      phi;
}
// * * * * * * * * * * * * * * * * * * * * * * * * * * * * * * * * * * * * * //

dimensions      [0 3 -1 0 0 0 0];

oriented        oriented;

internalField   nonuniform List<scalar> 
179250
(
-1.89895e-09
1.89883e-09
-3.79321e-09
1.89426e-09
-5.67989e-09
1.88667e-09
-7.55602e-09
1.87612e-09
-9.41844e-09
1.86241e-09
-1.1264e-08
1.84557e-09
-1.30896e-08
1.82558e-09
-1.48921e-08
1.80246e-09
-1.66683e-08
1.77623e-09
-1.84152e-08
1.74692e-09
-2.01297e-08
1.71456e-09
-2.1809e-08
1.67921e-09
-2.34499e-08
1.64094e-09
-2.50497e-08
1.59979e-09
-2.66055e-08
1.55585e-09
-2.81147e-08
1.50918e-09
-2.95746e-08
1.45986e-09
-3.09826e-08
1.40798e-09
-3.23362e-08
1.35364e-09
-3.36331e-08
1.29692e-09
-3.48711e-08
1.23794e-09
-3.60478e-08
1.17678e-09
-3.71614e-08
1.11355e-09
-3.82098e-08
1.04837e-09
-3.91911e-08
9.8135e-10
-4.01037e-08
9.12615e-10
-4.0946e-08
8.42276e-10
-4.17165e-08
7.70459e-10
-4.24137e-08
6.97291e-10
-4.30366e-08
6.22896e-10
-4.35841e-08
5.4741e-10
-4.4055e-08
4.70968e-10
-4.44487e-08
3.93698e-10
-4.47645e-08
3.15738e-10
-4.50017e-08
2.37222e-10
-4.516e-08
1.58288e-10
-4.5239e-08
7.90784e-11
-4.52388e-08
-2.68822e-13
-4.51592e-08
-7.96156e-11
-4.50003e-08
-1.58822e-10
-4.47626e-08
-2.37752e-10
-4.44463e-08
-3.16268e-10
-4.40521e-08
-3.94229e-10
-4.35806e-08
-4.71496e-10
-4.30327e-08
-5.47938e-10
-4.24092e-08
-6.23417e-10
-4.17114e-08
-6.97802e-10
-4.09405e-08
-7.70965e-10
-4.00977e-08
-8.42777e-10
-3.91846e-08
-9.1311e-10
-3.82028e-08
-9.81842e-10
-3.71539e-08
-1.04885e-09
-3.60399e-08
-1.11402e-09
-3.48627e-08
-1.17723e-09
-3.36243e-08
-1.23838e-09
-3.23269e-08
-1.29736e-09
-3.09728e-08
-1.35407e-09
-2.95644e-08
-1.40839e-09
-2.81042e-08
-1.46025e-09
-2.65947e-08
-1.50955e-09
-2.50385e-08
-1.5562e-09
-2.34383e-08
-1.60011e-09
-2.17971e-08
-1.64123e-09
-2.01176e-08
-1.67946e-09
-1.84029e-08
-1.71475e-09
-1.66559e-08
-1.74703e-09
-1.48796e-08
-1.77625e-09
-1.30773e-08
-1.80235e-09
-1.1252e-08
-1.82528e-09
-9.40697e-09
-1.84502e-09
-7.54545e-09
-1.86152e-09
-5.67069e-09
-1.87476e-09
-3.78599e-09
-1.8847e-09
-1.89465e-09
-1.89134e-09
2.20777e-14
-1.89467e-09
1.89469e-09
-1.89467e-09
3.78603e-09
-1.89134e-09
5.67074e-09
-1.8847e-09
7.54549e-09
-1.87476e-09
9.40701e-09
-1.86152e-09
1.1252e-08
-1.84502e-09
1.30773e-08
-1.82528e-09
1.48797e-08
-1.80235e-09
1.66559e-08
-1.77625e-09
1.84029e-08
-1.74703e-09
2.01177e-08
-1.71475e-09
2.17972e-08
-1.67946e-09
2.34384e-08
-1.64123e-09
2.50385e-08
-1.60012e-09
2.65947e-08
-1.5562e-09
2.81042e-08
-1.50955e-09
2.95645e-08
-1.46025e-09
3.09729e-08
-1.40839e-09
3.2327e-08
-1.35407e-09
3.36243e-08
-1.29736e-09
3.48627e-08
-1.23838e-09
3.60399e-08
-1.17723e-09
3.71539e-08
-1.11402e-09
3.82028e-08
-1.04885e-09
3.91846e-08
-9.81839e-10
4.00977e-08
-9.13108e-10
4.09405e-08
-8.42775e-10
4.17115e-08
-7.70964e-10
4.24093e-08
-6.97802e-10
4.30327e-08
-6.23415e-10
4.35806e-08
-5.47935e-10
4.40521e-08
-4.71494e-10
4.44464e-08
-3.94227e-10
4.47626e-08
-3.16268e-10
4.50004e-08
-2.37755e-10
4.51592e-08
-1.58824e-10
4.52388e-08
-7.96154e-11
4.52391e-08
-2.67665e-13
4.516e-08
7.90803e-11
4.50017e-08
1.5829e-10
4.47645e-08
2.37221e-10
4.44487e-08
3.15736e-10
4.4055e-08
3.93698e-10
4.35841e-08
4.70969e-10
4.30367e-08
5.47414e-10
4.24138e-08
6.22898e-10
4.17165e-08
6.97289e-10
4.0946e-08
7.70458e-10
4.01037e-08
8.42275e-10
3.91911e-08
9.12614e-10
3.82098e-08
9.81353e-10
3.71614e-08
1.04837e-09
3.60479e-08
1.11355e-09
3.48711e-08
1.17677e-09
3.36331e-08
1.23794e-09
3.23362e-08
1.29693e-09
3.09826e-08
1.35364e-09
2.95746e-08
1.40799e-09
2.81147e-08
1.45986e-09
2.66055e-08
1.50918e-09
2.50497e-08
1.55585e-09
2.34499e-08
1.59979e-09
2.1809e-08
1.64094e-09
2.01297e-08
1.67922e-09
1.84152e-08
1.71456e-09
1.66683e-08
1.74691e-09
1.4892e-08
1.77623e-09
1.30896e-08
1.80246e-09
1.1264e-08
1.82558e-09
9.41842e-09
1.84557e-09
7.55601e-09
1.86241e-09
5.67989e-09
1.87612e-09
3.79317e-09
1.88672e-09
1.89889e-09
1.89428e-09
1.89889e-09
-1.90351e-09
3.80233e-09
-3.8024e-09
3.79311e-09
-5.69365e-09
3.77792e-09
-7.57424e-09
3.7567e-09
-9.44109e-09
3.72925e-09
-1.1291e-08
3.69553e-09
-1.3121e-08
3.65551e-09
-1.49277e-08
3.60922e-09
-1.67082e-08
3.55669e-09
-1.84593e-08
3.498e-09
-2.01779e-08
3.43322e-09
-2.18612e-08
3.36245e-09
-2.3506e-08
3.2858e-09
-2.51096e-08
3.20341e-09
-2.66692e-08
3.11541e-09
-2.8182e-08
3.02196e-09
-2.96453e-08
2.92321e-09
-3.10567e-08
2.81934e-09
-3.24136e-08
2.71052e-09
-3.37136e-08
2.59695e-09
-3.49545e-08
2.47883e-09
-3.61341e-08
2.35637e-09
-3.72503e-08
2.22977e-09
-3.83012e-08
2.09925e-09
-3.92849e-08
1.96506e-09
-4.01997e-08
1.82741e-09
-4.1044e-08
1.68656e-09
-4.18163e-08
1.54276e-09
-4.25152e-08
1.39625e-09
-4.31396e-08
1.24729e-09
-4.36883e-08
1.09614e-09
-4.41604e-08
9.43062e-10
-4.45551e-08
7.88336e-10
-4.48716e-08
6.32229e-10
-4.51094e-08
4.75011e-10
-4.5268e-08
3.1696e-10
-4.53473e-08
1.58351e-10
-4.5347e-08
-5.38179e-13
-4.52672e-08
-1.59424e-10
-4.5108e-08
-3.1803e-10
-4.48697e-08
-4.7608e-10
-4.45527e-08
-6.33294e-10
-4.41575e-08
-7.89398e-10
-4.36849e-08
-9.4412e-10
-4.31356e-08
-1.09719e-09
-4.25107e-08
-1.24833e-09
-4.18113e-08
-1.39728e-09
-4.10385e-08
-1.54378e-09
-4.01937e-08
-1.68757e-09
-3.92784e-08
-1.8284e-09
-3.82942e-08
-1.96603e-09
-3.72428e-08
-2.10021e-09
-3.61261e-08
-2.2307e-09
-3.49461e-08
-2.35729e-09
-3.37047e-08
-2.47973e-09
-3.24043e-08
-2.59783e-09
-3.1047e-08
-2.71137e-09
-2.96352e-08
-2.82016e-09
-2.81715e-08
-2.924e-09
-2.66583e-08
-3.02271e-09
-2.50984e-08
-3.11612e-09
-2.34944e-08
-3.20406e-09
-2.18493e-08
-3.28638e-09
-2.01658e-08
-3.36294e-09
-1.84469e-08
-3.4336e-09
-1.66957e-08
-3.49824e-09
-1.49152e-08
-3.55674e-09
-1.31086e-08
-3.609e-09
-1.12789e-08
-3.65494e-09
-9.42948e-09
-3.69446e-09
-7.56351e-09
-3.7275e-09
-5.68426e-09
-3.754e-09
-3.79505e-09
-3.77392e-09
-1.89918e-09
-3.78721e-09
2.15953e-14
-3.79387e-09
1.89922e-09
-3.79387e-09
3.79509e-09
-3.78722e-09
5.68431e-09
-3.77392e-09
7.56355e-09
-3.754e-09
9.42953e-09
-3.7275e-09
1.1279e-08
-3.69446e-09
1.31086e-08
-3.65494e-09
1.49153e-08
-3.609e-09
1.66958e-08
-3.55674e-09
1.8447e-08
-3.49824e-09
2.01658e-08
-3.4336e-09
2.18493e-08
-3.36294e-09
2.34945e-08
-3.28638e-09
2.50984e-08
-3.20406e-09
2.66583e-08
-3.11612e-09
2.81715e-08
-3.02271e-09
2.96352e-08
-2.924e-09
3.1047e-08
-2.82016e-09
3.24043e-08
-2.71137e-09
3.37048e-08
-2.59783e-09
3.49461e-08
-2.47973e-09
3.61262e-08
-2.35728e-09
3.72429e-08
-2.2307e-09
3.82942e-08
-2.10021e-09
3.92784e-08
-1.96603e-09
4.01937e-08
-1.8284e-09
4.10385e-08
-1.68757e-09
4.18113e-08
-1.54377e-09
4.25108e-08
-1.39727e-09
4.31357e-08
-1.24832e-09
4.36849e-08
-1.09718e-09
4.41575e-08
-9.44118e-10
4.45527e-08
-7.89398e-10
4.48697e-08
-6.33294e-10
4.51081e-08
-4.76079e-10
4.52673e-08
-3.18029e-10
4.53471e-08
-1.59422e-10
4.53473e-08
-5.36461e-13
4.52681e-08
1.5835e-10
4.51094e-08
3.16958e-10
4.48716e-08
4.7501e-10
4.45551e-08
6.32228e-10
4.41605e-08
7.88338e-10
4.36884e-08
9.43065e-10
4.31396e-08
1.09614e-09
4.25153e-08
1.24729e-09
4.18163e-08
1.39625e-09
4.1044e-08
1.54276e-09
4.01997e-08
1.68656e-09
3.92849e-08
1.82741e-09
3.83012e-08
1.96505e-09
3.72503e-08
2.09925e-09
3.61341e-08
2.22976e-09
3.49545e-08
2.35636e-09
3.37136e-08
2.47883e-09
3.24136e-08
2.59696e-09
3.10567e-08
2.71052e-09
2.96454e-08
2.81934e-09
2.8182e-08
2.92321e-09
2.66692e-08
3.02196e-09
2.51096e-08
3.11542e-09
2.3506e-08
3.20341e-09
2.18612e-08
3.2858e-09
2.01779e-08
3.36245e-09
1.84593e-08
3.43322e-09
1.67082e-08
3.498e-09
1.49277e-08
3.5567e-09
1.3121e-08
3.60922e-09
1.1291e-08
3.65552e-09
9.44106e-09
3.69554e-09
7.5742e-09
3.72926e-09
5.69361e-09
3.75672e-09
3.80236e-09
3.77797e-09
1.90349e-09
3.79315e-09
3.80238e-09
-1.91109e-09
5.71342e-09
-3.81755e-09
5.69955e-09
-5.71636e-09
5.67671e-09
-7.60445e-09
5.64478e-09
-9.47873e-09
5.60353e-09
-1.13361e-08
5.55285e-09
-1.31733e-08
5.49273e-09
-1.49872e-08
5.42316e-09
-1.67748e-08
5.34424e-09
-1.85328e-08
5.25604e-09
-2.02583e-08
5.15871e-09
-2.19482e-08
5.05238e-09
-2.35996e-08
4.93721e-09
-2.52096e-08
4.81341e-09
-2.67754e-08
4.68119e-09
-2.82942e-08
4.54077e-09
-2.97634e-08
4.39239e-09
-3.11804e-08
4.23631e-09
-3.25426e-08
4.07281e-09
-3.38479e-08
3.90216e-09
-3.50937e-08
3.72467e-09
-3.6278e-08
3.54065e-09
-3.73986e-08
3.35042e-09
-3.84537e-08
3.15432e-09
-3.94413e-08
2.95268e-09
-4.03598e-08
2.74585e-09
-4.12074e-08
2.53422e-09
-4.19828e-08
2.31814e-09
-4.26845e-08
2.09799e-09
-4.33114e-08
1.87416e-09
-4.38623e-08
1.64705e-09
-4.43363e-08
1.41704e-09
-4.47325e-08
1.18455e-09
-4.50503e-08
9.49981e-10
-4.5289e-08
7.13746e-10
-4.54483e-08
4.7626e-10
-4.55279e-08
2.37937e-10
-4.55276e-08
-8.04304e-13
-4.54475e-08
-2.39546e-10
-4.52877e-08
-4.77869e-10
-4.50484e-08
-7.15354e-10
-4.47301e-08
-9.51583e-10
-4.43334e-08
-1.18614e-09
-4.38588e-08
-1.41863e-09
-4.33074e-08
-1.64862e-09
-4.268e-08
-1.87572e-09
-4.19778e-08
-2.09953e-09
-4.12019e-08
-2.31966e-09
-4.03537e-08
-2.53573e-09
-3.94348e-08
-2.74734e-09
-3.84467e-08
-2.95414e-09
-3.73911e-08
-3.15575e-09
-3.627e-08
-3.35183e-09
-3.50853e-08
-3.54204e-09
-3.3839e-08
-3.72602e-09
-3.25333e-08
-3.90348e-09
-3.11706e-08
-4.07408e-09
-2.97532e-08
-4.23754e-09
-2.82836e-08
-4.39357e-09
-2.67645e-08
-4.54189e-09
-2.51983e-08
-4.68225e-09
-2.3588e-08
-4.81439e-09
-2.19363e-08
-4.93809e-09
-2.02461e-08
-5.05313e-09
-1.85204e-08
-5.1593e-09
-1.67622e-08
-5.25642e-09
-1.49746e-08
-5.34433e-09
-1.31608e-08
-5.42286e-09
-1.13238e-08
-5.49187e-09
-9.46703e-09
-5.55126e-09
-7.59363e-09
-5.60091e-09
-5.7069e-09
-5.64073e-09
-3.81016e-09
-5.67065e-09
-1.90674e-09
-5.69064e-09
2.12891e-14
-5.70064e-09
1.90679e-09
-5.70064e-09
3.81021e-09
-5.69064e-09
5.70694e-09
-5.67065e-09
7.59367e-09
-5.64073e-09
9.46708e-09
-5.6009e-09
1.13239e-08
-5.55126e-09
1.31608e-08
-5.49187e-09
1.49747e-08
-5.42286e-09
1.67623e-08
-5.34433e-09
1.85204e-08
-5.25642e-09
2.02461e-08
-5.1593e-09
2.19363e-08
-5.05313e-09
2.3588e-08
-4.93809e-09
2.51984e-08
-4.81439e-09
2.67645e-08
-4.68225e-09
2.82837e-08
-4.5419e-09
2.97533e-08
-4.39357e-09
3.11706e-08
-4.23755e-09
3.25334e-08
-4.07408e-09
3.3839e-08
-3.90348e-09
3.50853e-08
-3.72602e-09
3.627e-08
-3.54203e-09
3.73912e-08
-3.35183e-09
3.84467e-08
-3.15575e-09
3.94348e-08
-2.95413e-09
4.03538e-08
-2.74734e-09
4.12019e-08
-2.53572e-09
4.19778e-08
-2.31966e-09
4.26801e-08
-2.09953e-09
4.33075e-08
-1.87572e-09
4.38589e-08
-1.64862e-09
4.43334e-08
-1.41862e-09
4.47301e-08
-1.18614e-09
4.50484e-08
-9.51581e-10
4.52877e-08
-7.15351e-10
4.54475e-08
-4.77868e-10
4.55276e-08
-2.39546e-10
4.55279e-08
-8.05468e-13
4.54483e-08
2.37936e-10
4.5289e-08
4.76259e-10
4.50503e-08
7.13746e-10
4.47325e-08
9.49982e-10
4.43363e-08
1.18455e-09
4.38623e-08
1.41704e-09
4.33114e-08
1.64705e-09
4.26846e-08
1.87416e-09
4.19828e-08
2.09799e-09
4.12074e-08
2.31814e-09
4.03598e-08
2.53422e-09
3.94413e-08
2.74585e-09
3.84537e-08
2.95267e-09
3.73987e-08
3.15431e-09
3.6278e-08
3.35042e-09
3.50937e-08
3.54065e-09
3.38479e-08
3.72467e-09
3.25427e-08
3.90216e-09
3.11804e-08
4.07281e-09
2.97634e-08
4.23631e-09
2.82942e-08
4.39239e-09
2.67754e-08
4.54077e-09
2.52096e-08
4.68119e-09
2.35996e-08
4.81342e-09
2.19482e-08
4.93721e-09
2.02583e-08
5.05237e-09
1.85328e-08
5.15871e-09
1.67747e-08
5.25605e-09
1.49872e-08
5.34425e-09
1.31732e-08
5.42317e-09
1.1336e-08
5.49273e-09
9.4787e-09
5.55287e-09
7.60441e-09
5.60355e-09
5.71631e-09
5.64482e-09
3.8175e-09
5.67677e-09
1.91105e-09
5.6996e-09
5.71343e-09
-1.92169e-09
7.6351e-09
-3.8388e-09
7.61665e-09
-5.74823e-09
7.58613e-09
-7.64687e-09
7.54343e-09
-9.53162e-09
7.48827e-09
-1.13993e-08
7.42054e-09
-1.32468e-08
7.34018e-09
-1.50708e-08
7.24723e-09
-1.68684e-08
7.14176e-09
-1.86362e-08
7.0239e-09
-2.03713e-08
6.89383e-09
-2.20707e-08
6.75172e-09
-2.37313e-08
6.59783e-09
-2.53503e-08
6.4324e-09
-2.69248e-08
6.2557e-09
-2.84521e-08
6.06805e-09
-2.99295e-08
5.86976e-09
-3.13543e-08
5.66119e-09
-3.27242e-08
5.44269e-09
-3.40367e-08
5.21465e-09
-3.52895e-08
4.97747e-09
-3.64804e-08
4.73155e-09
-3.76073e-08
4.47733e-09
-3.86683e-08
4.21527e-09
-3.96614e-08
3.9458e-09
-4.05849e-08
3.66942e-09
-4.14373e-08
3.3866e-09
-4.2217e-08
3.09784e-09
-4.29227e-08
2.80364e-09
-4.35531e-08
2.50453e-09
-4.4107e-08
2.20103e-09
-4.45837e-08
1.89366e-09
-4.49821e-08
1.58297e-09
-4.53016e-08
1.26951e-09
-4.55417e-08
9.53817e-10
-4.57019e-08
6.3645e-10
-4.57819e-08
3.17966e-10
-4.57816e-08
-1.07431e-12
-4.57011e-08
-3.20116e-10
-4.55403e-08
-6.38598e-10
-4.52997e-08
-9.5596e-10
-4.49797e-08
-1.27165e-09
-4.45807e-08
-1.5851e-09
-4.41036e-08
-1.89578e-09
-4.35491e-08
-2.20313e-09
-4.29182e-08
-2.50662e-09
-4.2212e-08
-2.80571e-09
-4.14318e-08
-3.09988e-09
-4.05789e-08
-3.38862e-09
-3.96548e-08
-3.67141e-09
-3.86612e-08
-3.94776e-09
-3.75998e-08
-4.21719e-09
-3.64724e-08
-4.47922e-09
-3.5281e-08
-4.73339e-09
-3.40278e-08
-4.97927e-09
-3.27148e-08
-5.21641e-09
-3.13445e-08
-5.4444e-09
-2.99192e-08
-5.66284e-09
-2.84415e-08
-5.87135e-09
-2.69138e-08
-6.06956e-09
-2.53389e-08
-6.25712e-09
-2.37196e-08
-6.43371e-09
-2.20587e-08
-6.59901e-09
-2.03591e-08
-6.75274e-09
-1.86237e-08
-6.89463e-09
-1.68557e-08
-7.02442e-09
-1.50582e-08
-7.14189e-09
-1.32342e-08
-7.24683e-09
-1.1387e-08
-7.33906e-09
-9.51986e-09
-7.41842e-09
-7.636e-09
-7.48477e-09
-5.73874e-09
-7.53798e-09
-3.83142e-09
-7.57797e-09
-1.91738e-09
-7.60468e-09
2.14252e-14
-7.61804e-09
1.91743e-09
-7.61804e-09
3.83147e-09
-7.60468e-09
5.73879e-09
-7.57798e-09
7.63604e-09
-7.53798e-09
9.5199e-09
-7.48477e-09
1.13871e-08
-7.41842e-09
1.32343e-08
-7.33906e-09
1.50582e-08
-7.24683e-09
1.68558e-08
-7.14189e-09
1.86238e-08
-7.02442e-09
2.03591e-08
-6.89463e-09
2.20587e-08
-6.75274e-09
2.37196e-08
-6.59901e-09
2.5339e-08
-6.43371e-09
2.69138e-08
-6.25712e-09
2.84415e-08
-6.06956e-09
2.99193e-08
-5.87135e-09
3.13446e-08
-5.66284e-09
3.27149e-08
-5.4444e-09
3.40278e-08
-5.21641e-09
3.52811e-08
-4.97927e-09
3.64724e-08
-4.73339e-09
3.75998e-08
-4.47922e-09
3.86612e-08
-4.21718e-09
3.96549e-08
-3.94776e-09
4.05789e-08
-3.6714e-09
4.14318e-08
-3.38861e-09
4.2212e-08
-3.09988e-09
4.29182e-08
-2.80571e-09
4.35491e-08
-2.50661e-09
4.41036e-08
-2.20313e-09
4.45808e-08
-1.89578e-09
4.49797e-08
-1.5851e-09
4.52998e-08
-1.27164e-09
4.55404e-08
-9.55958e-10
4.57011e-08
-6.38597e-10
4.57817e-08
-3.20117e-10
4.57819e-08
-1.07522e-12
4.57019e-08
3.17967e-10
4.55417e-08
6.3645e-10
4.53016e-08
9.53816e-10
4.49821e-08
1.26951e-09
4.45837e-08
1.58297e-09
4.41071e-08
1.89366e-09
4.35531e-08
2.20103e-09
4.29227e-08
2.50453e-09
4.22171e-08
2.80365e-09
4.14373e-08
3.09784e-09
4.0585e-08
3.3866e-09
3.96614e-08
3.66942e-09
3.86683e-08
3.9458e-09
3.76073e-08
4.21526e-09
3.64804e-08
4.47733e-09
3.52895e-08
4.73155e-09
3.40367e-08
4.97746e-09
3.27242e-08
5.21465e-09
3.13543e-08
5.44269e-09
2.99295e-08
5.66119e-09
2.84521e-08
5.86976e-09
2.69248e-08
6.06805e-09
2.53503e-08
6.2557e-09
2.37313e-08
6.4324e-09
2.20707e-08
6.59783e-09
2.03713e-08
6.75173e-09
1.86362e-08
6.89383e-09
1.68683e-08
7.02391e-09
1.50708e-08
7.14177e-09
1.32468e-08
7.24724e-09
1.13993e-08
7.3402e-09
9.53159e-09
7.42056e-09
7.64684e-09
7.4883e-09
5.74819e-09
7.54346e-09
3.83878e-09
7.58618e-09
1.92169e-09
7.61669e-09
7.63511e-09
-1.93551e-09
9.57061e-09
-3.86641e-09
9.54755e-09
-5.78959e-09
9.5093e-09
-7.70192e-09
9.45576e-09
-9.60025e-09
9.38661e-09
-1.14814e-08
9.30169e-09
-1.33422e-08
9.20096e-09
-1.51794e-08
9.08444e-09
-1.69899e-08
8.95223e-09
-1.87704e-08
8.8045e-09
-2.05181e-08
8.64144e-09
-2.22296e-08
8.46332e-09
-2.39022e-08
8.27041e-09
-2.55329e-08
8.06304e-09
-2.71187e-08
7.84155e-09
-2.8657e-08
7.60633e-09
-3.0145e-08
7.35778e-09
-3.15801e-08
7.09633e-09
-3.29599e-08
6.82244e-09
-3.42818e-08
6.53659e-09
-3.55437e-08
6.23928e-09
-3.67431e-08
5.93102e-09
-3.78782e-08
5.61236e-09
-3.89467e-08
5.28386e-09
-3.9947e-08
4.94608e-09
-4.08772e-08
4.59964e-09
-4.17358e-08
4.24512e-09
-4.25211e-08
3.88316e-09
-4.32318e-08
3.51439e-09
-4.38667e-08
3.13945e-09
-4.44247e-08
2.759e-09
-4.49048e-08
2.37372e-09
-4.53061e-08
1.98427e-09
-4.56279e-08
1.59134e-09
-4.58697e-08
1.19562e-09
-4.6031e-08
7.97796e-10
-4.61116e-08
3.98575e-10
-4.61114e-08
-1.34703e-12
-4.60302e-08
-4.01268e-10
-4.58683e-08
-8.00485e-10
-4.5626e-08
-1.1983e-09
-4.53036e-08
-1.59401e-09
-4.49018e-08
-1.98693e-09
-4.44212e-08
-2.37637e-09
-4.38627e-08
-2.76163e-09
-4.32273e-08
-3.14206e-09
-4.2516e-08
-3.51697e-09
-4.17302e-08
-3.88572e-09
-4.08712e-08
-4.24765e-09
-3.99404e-08
-4.60212e-09
-3.89397e-08
-4.94853e-09
-3.78706e-08
-5.28627e-09
-3.67351e-08
-5.61472e-09
-3.55351e-08
-5.93333e-09
-3.42729e-08
-6.24154e-09
-3.29505e-08
-6.5388e-09
-3.15703e-08
-6.82458e-09
-3.01347e-08
-7.0984e-09
-2.86463e-08
-7.35977e-09
-2.71076e-08
-7.60822e-09
-2.55214e-08
-7.84333e-09
-2.38904e-08
-8.06469e-09
-2.22176e-08
-8.2719e-09
-2.05057e-08
-8.4646e-09
-1.87579e-08
-8.64245e-09
-1.69771e-08
-8.80515e-09
-1.51666e-08
-8.9524e-09
-1.33295e-08
-9.08394e-09
-1.1469e-08
-9.19956e-09
-9.58843e-09
-9.29903e-09
-7.691e-09
-9.3822e-09
-5.78008e-09
-9.4489e-09
-3.85902e-09
-9.49903e-09
-1.93119e-09
-9.5325e-09
2.1729e-14
-9.54925e-09
1.93124e-09
-9.54925e-09
3.85906e-09
-9.5325e-09
5.78012e-09
-9.49903e-09
7.69104e-09
-9.4489e-09
9.58847e-09
-9.38219e-09
1.14691e-08
-9.29903e-09
1.33296e-08
-9.19955e-09
1.51667e-08
-9.08394e-09
1.69772e-08
-8.9524e-09
1.87579e-08
-8.80515e-09
2.05057e-08
-8.64245e-09
2.22176e-08
-8.4646e-09
2.38905e-08
-8.2719e-09
2.55215e-08
-8.06469e-09
2.71077e-08
-7.84334e-09
2.86464e-08
-7.60823e-09
3.01348e-08
-7.35977e-09
3.15703e-08
-7.0984e-09
3.29505e-08
-6.82458e-09
3.42729e-08
-6.53879e-09
3.55352e-08
-6.24154e-09
3.67351e-08
-5.93333e-09
3.78706e-08
-5.61472e-09
3.89397e-08
-5.28626e-09
3.99405e-08
-4.94853e-09
4.08712e-08
-4.60212e-09
4.17302e-08
-4.24764e-09
4.25161e-08
-3.88571e-09
4.32273e-08
-3.51697e-09
4.38628e-08
-3.14205e-09
4.44213e-08
-2.76163e-09
4.49018e-08
-2.37636e-09
4.53037e-08
-1.98693e-09
4.5626e-08
-1.59401e-09
4.58684e-08
-1.1983e-09
4.60303e-08
-8.00484e-10
4.61114e-08
-4.01266e-10
4.61117e-08
-1.34619e-12
4.60311e-08
3.98575e-10
4.58697e-08
7.97796e-10
4.56279e-08
1.19562e-09
4.53061e-08
1.59134e-09
4.49048e-08
1.98427e-09
4.44247e-08
2.37372e-09
4.38668e-08
2.759e-09
4.32318e-08
3.13945e-09
4.25211e-08
3.51439e-09
4.17358e-08
3.88316e-09
4.08773e-08
4.24512e-09
3.9947e-08
4.59963e-09
3.89468e-08
4.94608e-09
3.78782e-08
5.28385e-09
3.67431e-08
5.61236e-09
3.55437e-08
5.93102e-09
3.42819e-08
6.23927e-09
3.29599e-08
6.53659e-09
3.15802e-08
6.82244e-09
3.0145e-08
7.09633e-09
2.8657e-08
7.35778e-09
2.71187e-08
7.60633e-09
2.55329e-08
7.84155e-09
2.39022e-08
8.06304e-09
2.22296e-08
8.27042e-09
2.0518e-08
8.46332e-09
1.87704e-08
8.64145e-09
1.69898e-08
8.8045e-09
1.51794e-08
8.95224e-09
1.33422e-08
9.08445e-09
1.14814e-08
9.20097e-09
9.60023e-09
9.30172e-09
7.7019e-09
9.38664e-09
5.78957e-09
9.45579e-09
3.8664e-09
9.50934e-09
1.93551e-09
9.54758e-09
9.57063e-09
-1.9526e-09
1.15232e-08
-3.90054e-09
1.14955e-08
-5.8407e-09
1.14495e-08
-7.76993e-09
1.1385e-08
-9.68504e-09
1.13017e-08
-1.15828e-08
1.11995e-08
-1.346e-08
1.10782e-08
-1.53135e-08
1.09379e-08
-1.71399e-08
1.07787e-08
-1.89362e-08
1.06008e-08
-2.06993e-08
1.04045e-08
-2.2426e-08
1.019e-08
-2.41134e-08
9.95776e-09
-2.57584e-08
9.70809e-09
-2.73583e-08
9.44141e-09
-2.89101e-08
9.1582e-09
-3.04113e-08
8.85894e-09
-3.18591e-08
8.54415e-09
-3.3251e-08
8.21438e-09
-3.45847e-08
7.87021e-09
-3.58576e-08
7.51224e-09
-3.70677e-08
7.14109e-09
-3.82127e-08
6.75742e-09
-3.92908e-08
6.36189e-09
-4.02999e-08
5.9552e-09
-4.12383e-08
5.53807e-09
-4.21044e-08
5.11123e-09
-4.28967e-08
4.67542e-09
-4.36137e-08
4.23141e-09
-4.42542e-08
3.77997e-09
-4.48171e-08
3.32191e-09
-4.53014e-08
2.85801e-09
-4.57063e-08
2.38911e-09
-4.60309e-08
1.91601e-09
-4.62749e-08
1.43955e-09
-4.64376e-08
9.60569e-10
-4.6519e-08
4.79896e-10
-4.65187e-08
-1.62048e-12
-4.64368e-08
-4.83134e-10
-4.62735e-08
-9.63801e-10
-4.6029e-08
-1.44278e-09
-4.57038e-08
-1.91923e-09
-4.52984e-08
-2.39231e-09
-4.48136e-08
-2.8612e-09
-4.42502e-08
-3.32507e-09
-4.36091e-08
-3.78311e-09
-4.28916e-08
-4.23451e-09
-4.20988e-08
-4.67849e-09
-4.12322e-08
-5.11426e-09
-4.02932e-08
-5.54107e-09
-3.92836e-08
-5.95815e-09
-3.82051e-08
-6.36479e-09
-3.70596e-08
-6.76026e-09
-3.5849e-08
-7.14387e-09
-3.45756e-08
-7.51496e-09
-3.32416e-08
-7.87286e-09
-3.18492e-08
-8.21696e-09
-3.04009e-08
-8.54664e-09
-2.88994e-08
-8.86133e-09
-2.73471e-08
-9.16048e-09
-2.57469e-08
-9.44356e-09
-2.41015e-08
-9.71008e-09
-2.24138e-08
-9.95956e-09
-2.06868e-08
-1.01916e-08
-1.89236e-08
-1.04057e-08
-1.71271e-08
-1.06016e-08
-1.53006e-08
-1.07789e-08
-1.34473e-08
-1.09373e-08
-1.15704e-08
-1.10765e-08
-9.67313e-09
-1.11963e-08
-7.75894e-09
-1.12964e-08
-5.83114e-09
-1.13767e-08
-3.89311e-09
-1.14371e-08
-1.94825e-09
-1.14774e-08
2.18666e-14
-1.14975e-08
1.9483e-09
-1.14975e-08
3.89315e-09
-1.14774e-08
5.83118e-09
-1.14371e-08
7.75898e-09
-1.13767e-08
9.67317e-09
-1.12964e-08
1.15704e-08
-1.11963e-08
1.34473e-08
-1.10765e-08
1.53007e-08
-1.09373e-08
1.71272e-08
-1.07789e-08
1.89236e-08
-1.06016e-08
2.06869e-08
-1.04057e-08
2.24139e-08
-1.01916e-08
2.41015e-08
-9.95956e-09
2.57469e-08
-9.71008e-09
2.73471e-08
-9.44356e-09
2.88994e-08
-9.16048e-09
3.0401e-08
-8.86133e-09
3.18492e-08
-8.54664e-09
3.32416e-08
-8.21696e-09
3.45757e-08
-7.87286e-09
3.58491e-08
-7.51496e-09
3.70596e-08
-7.14387e-09
3.82051e-08
-6.76025e-09
3.92837e-08
-6.36478e-09
4.02933e-08
-5.95815e-09
4.12322e-08
-5.54106e-09
4.20988e-08
-5.11426e-09
4.28916e-08
-4.67849e-09
4.36092e-08
-4.23451e-09
4.42502e-08
-3.78311e-09
4.48136e-08
-3.32507e-09
4.52985e-08
-2.8612e-09
4.57039e-08
-2.39231e-09
4.60291e-08
-1.91923e-09
4.62735e-08
-1.44278e-09
4.64369e-08
-9.63799e-10
4.65187e-08
-4.83132e-10
4.6519e-08
-1.61882e-12
4.64377e-08
4.79896e-10
4.62749e-08
9.60567e-10
4.6031e-08
1.43955e-09
4.57063e-08
1.91601e-09
4.53014e-08
2.38911e-09
4.48171e-08
2.85802e-09
4.42542e-08
3.32191e-09
4.36137e-08
3.77997e-09
4.28967e-08
4.2314e-09
4.21044e-08
4.67542e-09
4.12383e-08
5.11122e-09
4.02999e-08
5.53807e-09
3.92908e-08
5.9552e-09
3.82127e-08
6.36188e-09
3.70677e-08
6.75741e-09
3.58576e-08
7.14108e-09
3.45847e-08
7.51223e-09
3.3251e-08
7.87021e-09
3.18591e-08
8.21438e-09
3.04113e-08
8.54415e-09
2.89101e-08
8.85894e-09
2.73583e-08
9.1582e-09
2.57584e-08
9.44141e-09
2.41133e-08
9.70809e-09
2.2426e-08
9.95777e-09
2.06993e-08
1.019e-08
1.89362e-08
1.04045e-08
1.71399e-08
1.06008e-08
1.53134e-08
1.07787e-08
1.346e-08
1.09379e-08
1.15828e-08
1.10782e-08
9.68502e-09
1.11995e-08
7.76991e-09
1.13017e-08
5.84069e-09
1.1385e-08
3.90054e-09
1.14495e-08
1.9526e-09
1.14955e-08
1.15232e-08
-1.97302e-09
1.34962e-08
-3.94133e-09
1.34638e-08
-5.90176e-09
1.34099e-08
-7.85117e-09
1.33344e-08
-9.78631e-09
1.32369e-08
-1.17039e-08
1.31171e-08
-1.36008e-08
1.2975e-08
-1.54736e-08
1.28107e-08
-1.73192e-08
1.26243e-08
-1.91343e-08
1.24159e-08
-2.09158e-08
1.2186e-08
-2.26605e-08
1.19348e-08
-2.43655e-08
1.16628e-08
-2.60278e-08
1.13703e-08
-2.76444e-08
1.1058e-08
-2.92125e-08
1.07263e-08
-3.07293e-08
1.03758e-08
-3.21923e-08
1.00071e-08
-3.35988e-08
9.62088e-09
-3.49464e-08
9.21778e-09
-3.62326e-08
8.79851e-09
-3.74554e-08
8.36381e-09
-3.86124e-08
7.91444e-09
-3.97017e-08
7.4512e-09
-4.07214e-08
6.97487e-09
-4.16696e-08
6.48632e-09
-4.25448e-08
5.98639e-09
-4.33453e-08
5.47596e-09
-4.40698e-08
4.95593e-09
-4.47171e-08
4.4272e-09
-4.52859e-08
3.8907e-09
-4.57752e-08
3.34738e-09
-4.61843e-08
2.79818e-09
-4.65124e-08
2.24408e-09
-4.67588e-08
1.68604e-09
-4.69233e-08
1.12504e-09
-4.70055e-08
5.62067e-10
-4.70052e-08
-1.89499e-12
-4.69225e-08
-5.65855e-10
-4.67575e-08
-1.12882e-09
-4.65104e-08
-1.68982e-09
-4.61818e-08
-2.24784e-09
-4.57722e-08
-2.80193e-09
-4.52823e-08
-3.3511e-09
-4.4713e-08
-3.8944e-09
-4.40652e-08
-4.43086e-09
-4.33402e-08
-4.95956e-09
-4.25391e-08
-5.47956e-09
-4.16634e-08
-5.98994e-09
-4.07147e-08
-6.48983e-09
-3.96945e-08
-6.97832e-09
-3.86047e-08
-7.45458e-09
-3.74472e-08
-7.91777e-09
-3.6224e-08
-8.36707e-09
-3.49373e-08
-8.8017e-09
-3.35892e-08
-9.22088e-09
-3.21823e-08
-9.6239e-09
-3.07189e-08
-1.001e-08
-2.92016e-08
-1.03786e-08
-2.76331e-08
-1.0729e-08
-2.60162e-08
-1.10605e-08
-2.43536e-08
-1.13727e-08
-2.26483e-08
-1.16649e-08
-2.09032e-08
-1.19366e-08
-1.91215e-08
-1.21874e-08
-1.73063e-08
-1.24169e-08
-1.54607e-08
-1.26245e-08
-1.35879e-08
-1.281e-08
-1.16914e-08
-1.2973e-08
-9.7743e-09
-1.31133e-08
-7.84009e-09
-1.32306e-08
-5.89213e-09
-1.33247e-08
-3.93383e-09
-1.33954e-08
-1.96863e-09
-1.34426e-08
2.18567e-14
-1.34662e-08
1.96867e-09
-1.34662e-08
3.93387e-09
-1.34426e-08
5.89217e-09
-1.33954e-08
7.84014e-09
-1.33247e-08
9.77435e-09
-1.32306e-08
1.16914e-08
-1.31133e-08
1.3588e-08
-1.2973e-08
1.54607e-08
-1.281e-08
1.73063e-08
-1.26245e-08
1.91216e-08
-1.24169e-08
2.09033e-08
-1.21874e-08
2.26483e-08
-1.19366e-08
2.43536e-08
-1.16649e-08
2.60162e-08
-1.13727e-08
2.76332e-08
-1.10605e-08
2.92017e-08
-1.0729e-08
3.07189e-08
-1.03786e-08
3.21823e-08
-1.001e-08
3.35893e-08
-9.6239e-09
3.49373e-08
-9.22088e-09
3.6224e-08
-8.8017e-09
3.74472e-08
-8.36707e-09
3.86047e-08
-7.91777e-09
3.96945e-08
-7.45458e-09
4.07147e-08
-6.97832e-09
4.16635e-08
-6.48982e-09
4.25392e-08
-5.98994e-09
4.33402e-08
-5.47955e-09
4.40653e-08
-4.95956e-09
4.4713e-08
-4.43086e-09
4.52823e-08
-3.89439e-09
4.57722e-08
-3.3511e-09
4.61819e-08
-2.80193e-09
4.65105e-08
-2.24784e-09
4.67575e-08
-1.68981e-09
4.69225e-08
-1.12882e-09
4.70053e-08
-5.65853e-10
4.70055e-08
-1.89336e-12
4.69234e-08
5.62068e-10
4.67589e-08
1.12504e-09
4.65124e-08
1.68604e-09
4.61843e-08
2.24408e-09
4.57752e-08
2.79819e-09
4.52859e-08
3.34738e-09
4.47171e-08
3.8907e-09
4.40699e-08
4.4272e-09
4.33453e-08
4.95592e-09
4.25448e-08
5.47596e-09
4.16696e-08
5.98639e-09
4.07214e-08
6.48632e-09
3.97017e-08
6.97487e-09
3.86124e-08
7.45119e-09
3.74554e-08
7.91444e-09
3.62326e-08
8.36381e-09
3.49464e-08
8.79851e-09
3.35988e-08
9.21778e-09
3.21923e-08
9.62088e-09
3.07293e-08
1.00071e-08
2.92125e-08
1.03758e-08
2.76444e-08
1.07263e-08
2.60278e-08
1.1058e-08
2.43655e-08
1.13703e-08
2.26605e-08
1.16628e-08
2.09158e-08
1.19348e-08
1.91343e-08
1.2186e-08
1.73192e-08
1.24159e-08
1.54736e-08
1.26243e-08
1.36008e-08
1.28107e-08
1.17039e-08
1.2975e-08
9.78629e-09
1.31171e-08
7.85115e-09
1.32369e-08
5.90176e-09
1.33344e-08
3.94132e-09
1.34099e-08
1.97302e-09
1.34638e-08
1.34962e-08
-1.99683e-09
1.5493e-08
-3.98888e-09
1.54559e-08
-5.97297e-09
1.5394e-08
-7.94589e-09
1.53073e-08
-9.90439e-09
1.51953e-08
-1.18452e-08
1.50579e-08
-1.37649e-08
1.48948e-08
-1.56603e-08
1.47061e-08
-1.75282e-08
1.44921e-08
-1.93652e-08
1.42529e-08
-2.11682e-08
1.3989e-08
-2.2934e-08
1.37006e-08
-2.46596e-08
1.33883e-08
-2.63419e-08
1.30526e-08
-2.7978e-08
1.26941e-08
-2.9565e-08
1.23133e-08
-3.11002e-08
1.1911e-08
-3.25808e-08
1.14877e-08
-3.40043e-08
1.10444e-08
-3.53681e-08
1.05816e-08
-3.66699e-08
1.01003e-08
-3.79074e-08
9.60129e-09
-3.90783e-08
9.08544e-09
-4.01808e-08
8.55365e-09
-4.12128e-08
8.00685e-09
-4.21725e-08
7.44602e-09
-4.30582e-08
6.87212e-09
-4.38684e-08
6.28617e-09
-4.46017e-08
5.68919e-09
-4.52567e-08
5.08223e-09
-4.58324e-08
4.46636e-09
-4.63276e-08
3.84265e-09
-4.67417e-08
3.2122e-09
-4.70737e-08
2.57611e-09
-4.73231e-08
1.93551e-09
-4.74896e-08
1.2915e-09
-4.75728e-08
6.45231e-10
-4.75725e-08
-2.17188e-12
-4.74888e-08
-6.49573e-10
-4.73218e-08
-1.29584e-09
-4.70717e-08
-1.93983e-09
-4.67392e-08
-2.58042e-09
-4.63246e-08
-3.21649e-09
-4.58288e-08
-3.84691e-09
-4.52526e-08
-4.47059e-09
-4.4597e-08
-5.08644e-09
-4.38632e-08
-5.69336e-09
-4.30525e-08
-6.29029e-09
-4.21663e-08
-6.87619e-09
-4.12061e-08
-7.45003e-09
-4.01736e-08
-8.01081e-09
-3.90706e-08
-8.55754e-09
-3.78991e-08
-9.08926e-09
-3.66612e-08
-9.60503e-09
-3.53589e-08
-1.0104e-08
-3.39946e-08
-1.05852e-08
-3.25707e-08
-1.10478e-08
-3.10896e-08
-1.14911e-08
-2.95541e-08
-1.19142e-08
-2.79666e-08
-1.23164e-08
-2.63302e-08
-1.2697e-08
-2.46475e-08
-1.30553e-08
-2.29216e-08
-1.33908e-08
-2.11555e-08
-1.37027e-08
-1.93523e-08
-1.39906e-08
-1.75151e-08
-1.4254e-08
-1.56473e-08
-1.44924e-08
-1.37519e-08
-1.47053e-08
-1.18325e-08
-1.48925e-08
-9.89227e-09
-1.50535e-08
-7.93472e-09
-1.51882e-08
-5.96324e-09
-1.52961e-08
-3.98131e-09
-1.53773e-08
-1.99239e-09
-1.54315e-08
2.19862e-14
-1.54586e-08
1.99243e-09
-1.54586e-08
3.98135e-09
-1.54315e-08
5.96329e-09
-1.53773e-08
7.93476e-09
-1.52961e-08
9.89232e-09
-1.51882e-08
1.18325e-08
-1.50535e-08
1.3752e-08
-1.48925e-08
1.56473e-08
-1.47053e-08
1.75152e-08
-1.44924e-08
1.93523e-08
-1.4254e-08
2.11555e-08
-1.39906e-08
2.29216e-08
-1.37027e-08
2.46475e-08
-1.33908e-08
2.63302e-08
-1.30553e-08
2.79667e-08
-1.2697e-08
2.95541e-08
-1.23164e-08
3.10897e-08
-1.19142e-08
3.25707e-08
-1.14911e-08
3.39946e-08
-1.10478e-08
3.53589e-08
-1.05852e-08
3.66612e-08
-1.0104e-08
3.78992e-08
-9.60503e-09
3.90706e-08
-9.08925e-09
4.01736e-08
-8.55753e-09
4.12061e-08
-8.01081e-09
4.21663e-08
-7.45003e-09
4.30525e-08
-6.87619e-09
4.38633e-08
-6.29029e-09
4.45971e-08
-5.69335e-09
4.52526e-08
-5.08643e-09
4.58288e-08
-4.47059e-09
4.63246e-08
-3.84691e-09
4.67392e-08
-3.21649e-09
4.70718e-08
-2.58042e-09
4.73218e-08
-1.93983e-09
4.74888e-08
-1.29583e-09
4.75725e-08
-6.49571e-10
4.75728e-08
-2.16998e-12
4.74896e-08
6.45234e-10
4.73232e-08
1.2915e-09
4.70737e-08
1.93551e-09
4.67417e-08
2.57611e-09
4.63277e-08
3.2122e-09
4.58324e-08
3.84265e-09
4.52567e-08
4.46636e-09
4.46017e-08
5.08223e-09
4.38684e-08
5.68919e-09
4.30582e-08
6.28617e-09
4.21725e-08
6.87212e-09
4.12128e-08
7.44601e-09
4.01808e-08