/*--------------------------------*- C++ -*----------------------------------*\
| =========                 |                                                 |
| \\      /  F ield         | OpenFOAM: The Open Source CFD Toolbox           |
|  \\    /   O peration     | Version:  2106                                  |
|   \\  /    A nd           | Website:  www.openfoam.com                      |
|    \\/     M anipulation  |                                                 |
\*---------------------------------------------------------------------------*/
FoamFile
{
    version     2.0;
    format      ascii;
    arch        "LSB;label=32;scalar=64";
    class       volVectorField;
    location    "1.1";
    object      U_0;
}
// * * * * * * * * * * * * * * * * * * * * * * * * * * * * * * * * * * * * * //

dimensions      [0 1 -1 0 0 0 0];

internalField   nonuniform List<vector> 
90000
(
(-1.42434e-07 1.42322e-07 0)
(-4.26967e-07 1.4197e-07 0)
(-7.10609e-07 1.41387e-07 0)
(-9.92877e-07 1.40591e-07 0)
(-1.2733e-06 1.39563e-07 0)
(-1.55144e-06 1.383e-07 0)
(-1.82682e-06 1.36802e-07 0)
(-2.09896e-06 1.35069e-07 0)
(-2.3674e-06 1.33103e-07 0)
(-2.63168e-06 1.30907e-07 0)
(-2.89133e-06 1.28482e-07 0)
(-3.1459e-06 1.25833e-07 0)
(-3.39495e-06 1.22965e-07 0)
(-3.63805e-06 1.19882e-07 0)
(-3.87476e-06 1.16589e-07 0)
(-4.10467e-06 1.13091e-07 0)
(-4.32738e-06 1.09396e-07 0)
(-4.5425e-06 1.05508e-07 0)
(-4.74966e-06 1.01436e-07 0)
(-4.94848e-06 9.7186e-08 0)
(-5.13863e-06 9.27658e-08 0)
(-5.31976e-06 8.81827e-08 0)
(-5.49156e-06 8.34446e-08 0)
(-5.65373e-06 7.85604e-08 0)
(-5.80599e-06 7.35384e-08 0)
(-5.94806e-06 6.83873e-08 0)
(-6.07969e-06 6.31166e-08 0)
(-6.20067e-06 5.77349e-08 0)
(-6.31077e-06 5.22519e-08 0)
(-6.4098e-06 4.66772e-08 0)
(-6.49758e-06 4.10206e-08 0)
(-6.57397e-06 3.52923e-08 0)
(-6.63883e-06 2.95021e-08 0)
(-6.69205e-06 2.36598e-08 0)
(-6.73353e-06 1.77763e-08 0)
(-6.7632e-06 1.18616e-08 0)
(-6.781e-06 5.92581e-09 0)
(-6.78692e-06 -2.01083e-11 0)
(-6.78092e-06 -5.96598e-09 0)
(-6.76304e-06 -1.19016e-08 0)
(-6.73329e-06 -1.78162e-08 0)
(-6.69173e-06 -2.36997e-08 0)
(-6.63843e-06 -2.95417e-08 0)
(-6.5735e-06 -3.53319e-08 0)
(-6.49703e-06 -4.106e-08 0)
(-6.40916e-06 -4.67162e-08 0)
(-6.31005e-06 -5.22904e-08 0)
(-6.19988e-06 -5.77728e-08 0)
(-6.07883e-06 -6.31541e-08 0)
(-5.94712e-06 -6.84245e-08 0)
(-5.80497e-06 -7.35749e-08 0)
(-5.65265e-06 -7.85962e-08 0)
(-5.49041e-06 -8.34797e-08 0)
(-5.31853e-06 -8.82168e-08 0)
(-5.13733e-06 -9.27992e-08 0)
(-4.94712e-06 -9.72188e-08 0)
(-4.74823e-06 -1.01468e-07 0)
(-4.54102e-06 -1.05539e-07 0)
(-4.32584e-06 -1.09425e-07 0)
(-4.10307e-06 -1.13119e-07 0)
(-3.8731e-06 -1.16615e-07 0)
(-3.63634e-06 -1.19906e-07 0)
(-3.3932e-06 -1.22986e-07 0)
(-3.14411e-06 -1.25852e-07 0)
(-2.8895e-06 -1.28496e-07 0)
(-2.62983e-06 -1.30915e-07 0)
(-2.36554e-06 -1.33104e-07 0)
(-2.0971e-06 -1.3506e-07 0)
(-1.82499e-06 -1.36779e-07 0)
(-1.54967e-06 -1.38258e-07 0)
(-1.27163e-06 -1.39494e-07 0)
(-9.91369e-07 -1.40486e-07 0)
(-7.09365e-07 -1.41232e-07 0)
(-4.26116e-07 -1.41729e-07 0)
(-1.4212e-07 -1.41978e-07 0)
(1.42125e-07 -1.41978e-07 0)
(4.26121e-07 -1.41729e-07 0)
(7.0937e-07 -1.41232e-07 0)
(9.91374e-07 -1.40486e-07 0)
(1.27164e-06 -1.39494e-07 0)
(1.54967e-06 -1.38258e-07 0)
(1.82499e-06 -1.36779e-07 0)
(2.09711e-06 -1.3506e-07 0)
(2.36554e-06 -1.33104e-07 0)
(2.62983e-06 -1.30915e-07 0)
(2.88951e-06 -1.28496e-07 0)
(3.14411e-06 -1.25852e-07 0)
(3.3932e-06 -1.22987e-07 0)
(3.63634e-06 -1.19906e-07 0)
(3.8731e-06 -1.16615e-07 0)
(4.10307e-06 -1.13119e-07 0)
(4.32584e-06 -1.09425e-07 0)
(4.54102e-06 -1.05539e-07 0)
(4.74824e-06 -1.01468e-07 0)
(4.94713e-06 -9.72188e-08 0)
(5.13734e-06 -9.27991e-08 0)
(5.31854e-06 -8.82168e-08 0)
(5.49041e-06 -8.34797e-08 0)
(5.65265e-06 -7.85961e-08 0)
(5.80498e-06 -7.35747e-08 0)
(5.94712e-06 -6.84243e-08 0)
(6.07883e-06 -6.31539e-08 0)
(6.19988e-06 -5.77727e-08 0)
(6.31006e-06 -5.22902e-08 0)
(6.40916e-06 -4.6716e-08 0)
(6.49703e-06 -4.10599e-08 0)
(6.5735e-06 -3.53318e-08 0)
(6.63844e-06 -2.95417e-08 0)
(6.69173e-06 -2.36998e-08 0)
(6.73329e-06 -1.78163e-08 0)
(6.76304e-06 -1.19016e-08 0)
(6.78093e-06 -5.96599e-09 0)
(6.78692e-06 -2.00042e-11 0)
(6.78101e-06 5.92598e-09 0)
(6.7632e-06 1.18616e-08 0)
(6.73353e-06 1.77764e-08 0)
(6.69205e-06 2.366e-08 0)
(6.63884e-06 2.95021e-08 0)
(6.57398e-06 3.52924e-08 0)
(6.49759e-06 4.10208e-08 0)
(6.4098e-06 4.66773e-08 0)
(6.31077e-06 5.22519e-08 0)
(6.20067e-06 5.77349e-08 0)
(6.0797e-06 6.31165e-08 0)
(5.94806e-06 6.83874e-08 0)
(5.80599e-06 7.35384e-08 0)
(5.65373e-06 7.85604e-08 0)
(5.49156e-06 8.34447e-08 0)
(5.31976e-06 8.81825e-08 0)
(5.13863e-06 9.27657e-08 0)
(4.94849e-06 9.71861e-08 0)
(4.74966e-06 1.01436e-07 0)
(4.54251e-06 1.05508e-07 0)
(4.32738e-06 1.09396e-07 0)
(4.10467e-06 1.13091e-07 0)
(3.87476e-06 1.16589e-07 0)
(3.63805e-06 1.19882e-07 0)
(3.39495e-06 1.22965e-07 0)
(3.1459e-06 1.25833e-07 0)
(2.89133e-06 1.28482e-07 0)
(2.63168e-06 1.30906e-07 0)
(2.3674e-06 1.33103e-07 0)
(2.09896e-06 1.35069e-07 0)
(1.82681e-06 1.36802e-07 0)
(1.55144e-06 1.383e-07 0)
(1.2733e-06 1.39562e-07 0)
(9.9287e-07 1.40589e-07 0)
(7.10621e-07 1.41383e-07 0)
(4.27005e-07 1.41952e-07 0)
(1.42454e-07 1.42303e-07 0)
(-1.42786e-07 4.27303e-07 0)
(-4.2802e-07 4.26248e-07 0)
(-7.12341e-07 4.24524e-07 0)
(-9.95272e-07 4.22137e-07 0)
(-1.27637e-06 4.19051e-07 0)
(-1.55517e-06 4.1526e-07 0)
(-1.8312e-06 4.10763e-07 0)
(-2.10399e-06 4.0556e-07 0)
(-2.37307e-06 3.99658e-07 0)
(-2.63798e-06 3.93062e-07 0)
(-2.89825e-06 3.85782e-07 0)
(-3.15343e-06 3.7783e-07 0)
(-3.40308e-06 3.69217e-07 0)
(-3.64676e-06 3.59959e-07 0)
(-3.88403e-06 3.50071e-07 0)
(-4.1145e-06 3.3957e-07 0)
(-4.33774e-06 3.28474e-07 0)
(-4.55338e-06 3.16802e-07 0)
(-4.76103e-06 3.04575e-07 0)
(-4.96033e-06 2.91813e-07 0)
(-5.15093e-06 2.78541e-07 0)
(-5.3325e-06 2.64779e-07 0)
(-5.50471e-06 2.50553e-07 0)
(-5.66727e-06 2.35888e-07 0)
(-5.81988e-06 2.20808e-07 0)
(-5.9623e-06 2.05342e-07 0)
(-6.09425e-06 1.89515e-07 0)
(-6.21551e-06 1.73356e-07 0)
(-6.32587e-06 1.56893e-07 0)
(-6.42514e-06 1.40154e-07 0)
(-6.51314e-06 1.2317e-07 0)
(-6.58971e-06 1.0597e-07 0)
(-6.65473e-06 8.85834e-08 0)
(-6.70807e-06 7.10418e-08 0)
(-6.74965e-06 5.33758e-08 0)
(-6.77939e-06 3.56158e-08 0)
(-6.79724e-06 1.77932e-08 0)
(-6.80316e-06 -6.02628e-11 0)
(-6.79716e-06 -1.79138e-08 0)
(-6.77923e-06 -3.57361e-08 0)
(-6.74941e-06 -5.34956e-08 0)
(-6.70775e-06 -7.11616e-08 0)
(-6.65433e-06 -8.87027e-08 0)
(-6.58923e-06 -1.06088e-07 0)
(-6.51258e-06 -1.23288e-07 0)
(-6.4245e-06 -1.40271e-07 0)
(-6.32516e-06 -1.57008e-07 0)
(-6.21472e-06 -1.7347e-07 0)
(-6.09338e-06 -1.89628e-07 0)
(-5.96135e-06 -2.05453e-07 0)
(-5.81887e-06 -2.20918e-07 0)
(-5.66618e-06 -2.35995e-07 0)
(-5.50355e-06 -2.50658e-07 0)
(-5.33127e-06 -2.64882e-07 0)
(-5.14963e-06 -2.78641e-07 0)
(-4.95897e-06 -2.91912e-07 0)
(-4.7596e-06 -3.0467e-07 0)
(-4.55189e-06 -3.16894e-07 0)
(-4.33619e-06 -3.28562e-07 0)
(-4.11289e-06 -3.39654e-07 0)
(-3.88237e-06 -3.5015e-07 0)
(-3.64504e-06 -3.60032e-07 0)
(-3.40132e-06 -3.69282e-07 0)
(-3.15163e-06 -3.77885e-07 0)
(-2.89642e-06 -3.85825e-07 0)
(-2.63612e-06 -3.93088e-07 0)
(-2.3712e-06 -3.99662e-07 0)
(-2.10212e-06 -4.05535e-07 0)
(-1.82935e-06 -4.10696e-07 0)
(-1.55338e-06 -4.15137e-07 0)
(-1.27468e-06 -4.18849e-07 0)
(-9.93742e-07 -4.21827e-07 0)
(-7.11063e-07 -4.24065e-07 0)
(-4.27136e-07 -4.2556e-07 0)
(-1.4246e-07 -4.26307e-07 0)
(1.42466e-07 -4.26307e-07 0)
(4.27142e-07 -4.2556e-07 0)
(7.11068e-07 -4.24065e-07 0)
(9.93748e-07 -4.21827e-07 0)
(1.27468e-06 -4.18849e-07 0)
(1.55338e-06 -4.15137e-07 0)
(1.82936e-06 -4.10696e-07 0)
(2.10213e-06 -4.05535e-07 0)
(2.37121e-06 -3.99662e-07 0)
(2.63613e-06 -3.93088e-07 0)
(2.89642e-06 -3.85825e-07 0)
(3.15164e-06 -3.77885e-07 0)
(3.40133e-06 -3.69283e-07 0)
(3.64505e-06 -3.60032e-07 0)
(3.88238e-06 -3.5015e-07 0)
(4.11289e-06 -3.39654e-07 0)
(4.3362e-06 -3.28562e-07 0)
(4.5519e-06 -3.16894e-07 0)
(4.75961e-06 -3.0467e-07 0)
(4.95897e-06 -2.91911e-07 0)
(5.14964e-06 -2.78641e-07 0)
(5.33127e-06 -2.64882e-07 0)
(5.50356e-06 -2.50658e-07 0)
(5.66619e-06 -2.35995e-07 0)
(5.81888e-06 -2.20917e-07 0)
(5.96136e-06 -2.05453e-07 0)
(6.09339e-06 -1.89628e-07 0)
(6.21473e-06 -1.7347e-07 0)
(6.32516e-06 -1.57008e-07 0)
(6.42451e-06 -1.40271e-07 0)
(6.51258e-06 -1.23288e-07 0)
(6.58924e-06 -1.06088e-07 0)
(6.65433e-06 -8.87026e-08 0)
(6.70775e-06 -7.11615e-08 0)
(6.74941e-06 -5.34956e-08 0)
(6.77923e-06 -3.57359e-08 0)
(6.79716e-06 -1.79136e-08 0)
(6.80317e-06 -6.00592e-11 0)
(6.79724e-06 1.77935e-08 0)
(6.77939e-06 3.56159e-08 0)
(6.74965e-06 5.33758e-08 0)
(6.70808e-06 7.1042e-08 0)
(6.65473e-06 8.85836e-08 0)
(6.58972e-06 1.0597e-07 0)
(6.51314e-06 1.2317e-07 0)
(6.42514e-06 1.40155e-07 0)
(6.32588e-06 1.56893e-07 0)
(6.21551e-06 1.73356e-07 0)
(6.09425e-06 1.89515e-07 0)
(5.9623e-06 2.05342e-07 0)
(5.81989e-06 2.20808e-07 0)
(5.66727e-06 2.35887e-07 0)
(5.50471e-06 2.50553e-07 0)
(5.3325e-06 2.64779e-07 0)
(5.15093e-06 2.7854e-07 0)
(4.96033e-06 2.91813e-07 0)
(4.76103e-06 3.04575e-07 0)
(4.55338e-06 3.16802e-07 0)
(4.33774e-06 3.28474e-07 0)
(4.1145e-06 3.3957e-07 0)
(3.88403e-06 3.50071e-07 0)
(3.64676e-06 3.59959e-07 0)
(3.40308e-06 3.69218e-07 0)
(3.15344e-06 3.7783e-07 0)
(2.89825e-06 3.85782e-07 0)
(2.63798e-06 3.93062e-07 0)
(2.37307e-06 3.99657e-07 0)
(2.10399e-06 4.0556e-07 0)
(1.8312e-06 4.10762e-07 0)
(1.55516e-06 4.15259e-07 0)
(1.27636e-06 4.19049e-07 0)
(9.95265e-07 4.22133e-07 0)
(7.12341e-07 4.24519e-07 0)
(4.28045e-07 4.26223e-07 0)
(1.42804e-07 4.27265e-07 0)
(-1.4337e-07 7.13174e-07 0)
(-4.29743e-07 7.11433e-07 0)
(-7.15182e-07 7.08583e-07 0)
(-9.99239e-07 7.04599e-07 0)
(-1.28146e-06 6.99449e-07 0)
(-1.56137e-06 6.93123e-07 0)
(-1.8385e-06 6.85617e-07 0)
(-2.11238e-06 6.76934e-07 0)
(-2.38253e-06 6.67082e-07 0)
(-2.64849e-06 6.56073e-07 0)
(-2.9098e-06 6.43923e-07 0)
(-3.16599e-06 6.3065e-07 0)
(-3.41663e-06 6.16275e-07 0)
(-3.66128e-06 6.00822e-07 0)
(-3.8995e-06 5.84318e-07 0)
(-4.13088e-06 5.6679e-07 0)
(-4.35501e-06 5.48269e-07 0)
(-4.57151e-06 5.28787e-07 0)
(-4.77999e-06 5.08378e-07 0)
(-4.98008e-06 4.87077e-07 0)
(-5.17144e-06 4.64923e-07 0)
(-5.35373e-06 4.41953e-07 0)
(-5.52663e-06 4.18208e-07 0)
(-5.68983e-06 3.93729e-07 0)
(-5.84306e-06 3.6856e-07 0)
(-5.98604e-06 3.42744e-07 0)
(-6.11852e-06 3.16327e-07 0)
(-6.24026e-06 2.89355e-07 0)
(-6.35106e-06 2.61876e-07 0)
(-6.45073e-06 2.33937e-07 0)
(-6.53907e-06 2.05588e-07 0)
(-6.61595e-06 1.76878e-07 0)
(-6.68123e-06 1.47858e-07 0)
(-6.73478e-06 1.18579e-07 0)
(-6.77653e-06 8.90917e-08 0)
(-6.80639e-06 5.94478e-08 0)
(-6.82431e-06 2.96999e-08 0)
(-6.83025e-06 -1.00409e-10 0)
(-6.82422e-06 -2.99007e-08 0)
(-6.80622e-06 -5.96486e-08 0)
(-6.77629e-06 -8.92919e-08 0)
(-6.73446e-06 -1.18779e-07 0)
(-6.68083e-06 -1.48057e-07 0)
(-6.61547e-06 -1.77076e-07 0)
(-6.53851e-06 -2.05785e-07 0)
(-6.45009e-06 -2.34132e-07 0)
(-6.35035e-06 -2.62069e-07 0)
(-6.23947e-06 -2.89546e-07 0)
(-6.11765e-06 -3.16515e-07 0)
(-5.98509e-06 -3.4293e-07 0)
(-5.84204e-06 -3.68743e-07 0)
(-5.68874e-06 -3.93909e-07 0)
(-5.52547e-06 -4.18384e-07 0)
(-5.3525e-06 -4.42125e-07 0)
(-5.17014e-06 -4.65091e-07 0)
(-4.97872e-06 -4.87241e-07 0)
(-4.77856e-06 -5.08537e-07 0)
(-4.57002e-06 -5.2894e-07 0)
(-4.35346e-06 -5.48416e-07 0)
(-4.12927e-06 -5.6693e-07 0)
(-3.89783e-06 -5.84449e-07 0)
(-3.65956e-06 -6.00944e-07 0)
(-3.41487e-06 -6.16384e-07 0)
(-3.16418e-06 -6.30743e-07 0)
(-2.90795e-06 -6.43996e-07 0)
(-2.64662e-06 -6.5612e-07 0)
(-2.38064e-06 -6.67092e-07 0)
(-2.11049e-06 -6.76894e-07 0)
(-1.83664e-06 -6.85509e-07 0)
(-1.55957e-06 -6.92922e-07 0)
(-1.27975e-06 -6.99118e-07 0)
(-9.977e-07 -7.04089e-07 0)
(-7.13895e-07 -7.07825e-07 0)
(-4.28837e-07 -7.10319e-07 0)
(-1.43028e-07 -7.11567e-07 0)
(1.43033e-07 -7.11567e-07 0)
(4.28843e-07 -7.10319e-07 0)
(7.139e-07 -7.07825e-07 0)
(9.97705e-07 -7.04089e-07 0)
(1.27976e-06 -6.99118e-07 0)
(1.55957e-06 -6.92921e-07 0)
(1.83665e-06 -6.85509e-07 0)
(2.1105e-06 -6.76894e-07 0)
(2.38065e-06 -6.67092e-07 0)
(2.64662e-06 -6.5612e-07 0)
(2.90796e-06 -6.43996e-07 0)
(3.16419e-06 -6.30744e-07 0)
(3.41487e-06 -6.16385e-07 0)
(3.65956e-06 -6.00944e-07 0)
(3.89784e-06 -5.8445e-07 0)
(4.12927e-06 -5.6693e-07 0)
(4.35347e-06 -5.48417e-07 0)
(4.57002e-06 -5.28941e-07 0)
(4.77856e-06 -5.08537e-07 0)
(4.97872e-06 -4.87241e-07 0)
(5.17015e-06 -4.65091e-07 0)
(5.35251e-06 -4.42125e-07 0)
(5.52547e-06 -4.18384e-07 0)
(5.68875e-06 -3.93908e-07 0)
(5.84205e-06 -3.68742e-07 0)
(5.9851e-06 -3.42929e-07 0)
(6.11765e-06 -3.16515e-07 0)
(6.23948e-06 -2.89546e-07 0)
(6.35035e-06 -2.62068e-07 0)
(6.45009e-06 -2.34132e-07 0)
(6.53852e-06 -2.05784e-07 0)
(6.61548e-06 -1.77076e-07 0)
(6.68083e-06 -1.48057e-07 0)
(6.73447e-06 -1.18778e-07 0)
(6.77629e-06 -8.92916e-08 0)
(6.80623e-06 -5.96482e-08 0)
(6.82423e-06 -2.99004e-08 0)
(6.83026e-06 -1.00204e-10 0)
(6.82431e-06 2.97e-08 0)
(6.80639e-06 5.94481e-08 0)
(6.77653e-06 8.90918e-08 0)
(6.73479e-06 1.18579e-07 0)
(6.68123e-06 1.47859e-07 0)
(6.61596e-06 1.76879e-07 0)
(6.53908e-06 2.05588e-07 0)
(6.45073e-06 2.33938e-07 0)
(6.35107e-06 2.61876e-07 0)
(6.24027e-06 2.89356e-07 0)
(6.11852e-06 3.16327e-07 0)
(5.98604e-06 3.42744e-07 0)
(5.84306e-06 3.6856e-07 0)
(5.68984e-06 3.93729e-07 0)
(5.52663e-06 4.18208e-07 0)
(5.35373e-06 4.41953e-07 0)
(5.17144e-06 4.64923e-07 0)
(4.98008e-06 4.87077e-07 0)
(4.77999e-06 5.08378e-07 0)
(4.57151e-06 5.28787e-07 0)
(4.35502e-06 5.48269e-07 0)
(4.13088e-06 5.6679e-07 0)
(3.8995e-06 5.84318e-07 0)
(3.66128e-06 6.00822e-07 0)
(3.41663e-06 6.16275e-07 0)
(3.16599e-06 6.3065e-07 0)
(2.9098e-06 6.43923e-07 0)
(2.64849e-06 6.56074e-07 0)
(2.38253e-06 6.67082e-07 0)
(2.11237e-06 6.76934e-07 0)
(1.8385e-06 6.85617e-07 0)
(1.56136e-06 6.93123e-07 0)
(1.28145e-06 6.99449e-07 0)
(9.99234e-07 7.04599e-07 0)
(7.1518e-07 7.08585e-07 0)
(4.29748e-07 7.11434e-07 0)
(1.43374e-07 7.13164e-07 0)
(-1.4417e-07 1.00042e-06 0)
(-4.32138e-07 9.98003e-07 0)
(-7.19167e-07 9.94007e-07 0)
(-1.00481e-06 9.88414e-07 0)
(-1.2886e-06 9.81188e-07 0)
(-1.57008e-06 9.72313e-07 0)
(-1.84876e-06 9.61784e-07 0)
(-2.12416e-06 9.49604e-07 0)
(-2.39582e-06 9.35784e-07 0)
(-2.66327e-06 9.20341e-07 0)
(-2.92603e-06 9.03297e-07 0)
(-3.18366e-06 8.84677e-07 0)
(-3.4357e-06 8.64513e-07 0)
(-3.68171e-06 8.42836e-07 0)
(-3.92126e-06 8.19683e-07 0)
(-4.15393e-06 7.95095e-07 0)
(-4.37931e-06 7.69114e-07 0)
(-4.59702e-06 7.41784e-07 0)
(-4.80666e-06 7.13155e-07 0)
(-5.00787e-06 6.83275e-07 0)
(-5.2003e-06 6.52196e-07 0)
(-5.3836e-06 6.19974e-07 0)
(-5.55746e-06 5.86664e-07 0)
(-5.72158e-06 5.52325e-07 0)
(-5.87566e-06 5.17018e-07 0)
(-6.01944e-06 4.80803e-07 0)
(-6.15265e-06 4.43745e-07 0)
(-6.27508e-06 4.05909e-07 0)
(-6.3865e-06 3.67361e-07 0)
(-6.48672e-06 3.28168e-07 0)
(-6.57556e-06 2.884e-07 0)
(-6.65287e-06 2.48126e-07 0)
(-6.71851e-06 2.07417e-07 0)
(-6.77236e-06 1.66343e-07 0)
(-6.81434e-06 1.24978e-07 0)
(-6.84436e-06 8.3394e-08 0)
(-6.86238e-06 4.16633e-08 0)
(-6.86836e-06 -1.40757e-10 0)
(-6.8623e-06 -4.19446e-08 0)
(-6.8442e-06 -8.36752e-08 0)
(-6.8141e-06 -1.25259e-07 0)
(-6.77204e-06 -1.66623e-07 0)
(-6.7181e-06 -2.07695e-07 0)
(-6.65238e-06 -2.48403e-07 0)
(-6.575e-06 -2.88676e-07 0)
(-6.48608e-06 -3.28441e-07 0)
(-6.38578e-06 -3.67631e-07 0)
(-6.27428e-06 -4.06176e-07 0)
(-6.15178e-06 -4.44009e-07 0)
(-6.01849e-06 -4.81063e-07 0)
(-5.87464e-06 -5.17274e-07 0)
(-5.72049e-06 -5.52577e-07 0)
(-5.5563e-06 -5.86911e-07 0)
(-5.38237e-06 -6.20215e-07 0)
(-5.19899e-06 -6.52432e-07 0)
(-5.0065e-06 -6.83504e-07 0)
(-4.80522e-06 -7.13378e-07 0)
(-4.59552e-06 -7.42e-07 0)
(-4.37775e-06 -7.69321e-07 0)
(-4.15231e-06 -7.95292e-07 0)
(-3.91958e-06 -8.19868e-07 0)
(-3.67998e-06 -8.43007e-07 0)
(-3.43392e-06 -8.64666e-07 0)
(-3.18184e-06 -8.8481e-07 0)
(-2.92418e-06 -9.03401e-07 0)
(-2.66139e-06 -9.20407e-07 0)
(-2.39393e-06 -9.35799e-07 0)
(-2.12227e-06 -9.4955e-07 0)
(-1.84689e-06 -9.61635e-07 0)
(-1.56827e-06 -9.72033e-07 0)
(-1.2869e-06 -9.80727e-07 0)
(-1.00327e-06 -9.87699e-07 0)
(-7.17878e-07 -9.9294e-07 0)
(-4.3123e-07 -9.96438e-07 0)
(-1.43826e-07 -9.98189e-07 0)
(1.43831e-07 -9.98189e-07 0)
(4.31235e-07 -9.96439e-07 0)
(7.17883e-07 -9.9294e-07 0)
(1.00327e-06 -9.87699e-07 0)
(1.2869e-06 -9.80726e-07 0)
(1.56827e-06 -9.72033e-07 0)
(1.84689e-06 -9.61635e-07 0)
(2.12227e-06 -9.4955e-07 0)
(2.39393e-06 -9.358e-07 0)
(2.66139e-06 -9.20408e-07 0)
(2.92418e-06 -9.03401e-07 0)
(3.18185e-06 -8.8481e-07 0)
(3.43393e-06 -8.64667e-07 0)
(3.67998e-06 -8.43007e-07 0)
(3.91959e-06 -8.19869e-07 0)
(4.15231e-06 -7.95293e-07 0)
(4.37776e-06 -7.69321e-07 0)
(4.59552e-06 -7.42e-07 0)
(4.80523e-06 -7.13378e-07 0)
(5.0065e-06 -6.83504e-07 0)
(5.199e-06 -6.52432e-07 0)
(5.38237e-06 -6.20215e-07 0)
(5.5563e-06 -5.8691e-07 0)
(5.72049e-06 -5.52576e-07 0)
(5.87465e-06 -5.17273e-07 0)
(6.01849e-06 -4.81063e-07 0)
(6.15179e-06 -4.44009e-07 0)
(6.27429e-06 -4.06176e-07 0)
(6.38579e-06 -3.67631e-07 0)
(6.48608e-06 -3.28441e-07 0)
(6.575e-06 -2.88675e-07 0)
(6.65239e-06 -2.48403e-07 0)
(6.71811e-06 -2.07695e-07 0)
(6.77204e-06 -1.66623e-07 0)
(6.8141e-06 -1.25259e-07 0)
(6.8442e-06 -8.36748e-08 0)
(6.8623e-06 -4.19443e-08 0)
(6.86837e-06 -1.40467e-10 0)
(6.86239e-06 4.16635e-08 0)
(6.84437e-06 8.33943e-08 0)
(6.81434e-06 1.24979e-07 0)
(6.77236e-06 1.66344e-07 0)
(6.71851e-06 2.07417e-07 0)
(6.65287e-06 2.48126e-07 0)
(6.57556e-06 2.88401e-07 0)
(6.48672e-06 3.28169e-07 0)
(6.3865e-06 3.67361e-07 0)
(6.27508e-06 4.05909e-07 0)
(6.15266e-06 4.43745e-07 0)
(6.01944e-06 4.80803e-07 0)
(5.87566e-06 5.17017e-07 0)
(5.72158e-06 5.52325e-07 0)
(5.55747e-06 5.86664e-07 0)
(5.3836e-06 6.19974e-07 0)
(5.2003e-06 6.52196e-07 0)
(5.00787e-06 6.83274e-07 0)
(4.80666e-06 7.13155e-07 0)
(4.59702e-06 7.41785e-07 0)
(4.37932e-06 7.69114e-07 0)
(4.15393e-06 7.95095e-07 0)
(3.92126e-06 8.19683e-07 0)
(3.68171e-06 8.42836e-07 0)
(3.4357e-06 8.64513e-07 0)
(3.18366e-06 8.84678e-07 0)
(2.92603e-06 9.03297e-07 0)
(2.66327e-06 9.20341e-07 0)
(2.39582e-06 9.35784e-07 0)
(2.12416e-06 9.49604e-07 0)
(1.84876e-06 9.61784e-07 0)
(1.57008e-06 9.72314e-07 0)
(1.2886e-06 9.8119e-07 0)
(1.00481e-06 9.88416e-07 0)
(7.19167e-07 9.94012e-07 0)
(4.32142e-07 9.98011e-07 0)
(1.44172e-07 1.00043e-06 0)
(-1.45208e-07 1.28952e-06 0)
(-4.35248e-07 1.28641e-06 0)
(-7.24342e-07 1.28126e-06 0)
(-1.01204e-06 1.27404e-06 0)
(-1.29788e-06 1.26473e-06 0)
(-1.58138e-06 1.25329e-06 0)
(-1.86207e-06 1.23972e-06 0)
(-2.13946e-06 1.22402e-06 0)
(-2.41308e-06 1.2062e-06 0)
(-2.68245e-06 1.1863e-06 0)
(-2.94711e-06 1.16433e-06 0)
(-3.20659e-06 1.14033e-06 0)
(-3.46044e-06 1.11434e-06 0)
(-3.70822e-06 1.08639e-06 0)
(-3.9495e-06 1.05655e-06 0)
(-4.18384e-06 1.02486e-06 0)
(-4.41085e-06 9.91369e-07 0)
(-4.63012e-06 9.56142e-07 0)
(-4.84128e-06 9.19239e-07 0)
(-5.04394e-06 8.80724e-07 0)
(-5.23775e-06 8.40665e-07 0)
(-5.42237e-06 7.99131e-07 0)
(-5.59749e-06 7.56196e-07 0)
(-5.76279e-06 7.11934e-07 0)
(-5.91798e-06 6.66423e-07 0)
(-6.06279e-06 6.19744e-07 0)
(-6.19697e-06 5.71977e-07 0)
(-6.32027e-06 5.23207e-07 0)
(-6.4325e-06 4.7352e-07 0)
(-6.53344e-06 4.23001e-07 0)
(-6.62292e-06 3.71741e-07 0)
(-6.70078e-06 3.19829e-07 0)
(-6.76689e-06 2.67355e-07 0)
(-6.82114e-06 2.14413e-07 0)
(-6.86342e-06 1.61094e-07 0)
(-6.89366e-06 1.07493e-07 0)
(-6.91181e-06 5.37031e-08 0)
(-6.91783e-06 -1.813e-10 0)
(-6.91172e-06 -5.40656e-08 0)
(-6.89349e-06 -1.07855e-07 0)
(-6.86317e-06 -1.61456e-07 0)
(-6.82081e-06 -2.14773e-07 0)
(-6.76649e-06 -2.67714e-07 0)
(-6.7003e-06 -3.20186e-07 0)
(-6.62235e-06 -3.72096e-07 0)
(-6.53279e-06 -4.23353e-07 0)
(-6.43177e-06 -4.73868e-07 0)
(-6.31947e-06 -5.23551e-07 0)
(-6.19609e-06 -5.72317e-07 0)
(-6.06184e-06 -6.20079e-07 0)
(-5.91695e-06 -6.66753e-07 0)
(-5.76169e-06 -7.12258e-07 0)
(-5.59632e-06 -7.56514e-07 0)
(-5.42113e-06 -7.99442e-07 0)
(-5.23644e-06 -8.40969e-07 0)
(-5.04256e-06 -8.81021e-07 0)
(-4.83983e-06 -9.19527e-07 0)
(-4.62862e-06 -9.5642e-07 0)
(-4.40928e-06 -9.91636e-07 0)
(-4.18222e-06 -1.02511e-06 0)
(-3.94781e-06 -1.05679e-06 0)
(-3.70648e-06 -1.08662e-06 0)
(-3.45865e-06 -1.11453e-06 0)
(-3.20476e-06 -1.1405e-06 0)
(-2.94524e-06 -1.16446e-06 0)
(-2.68056e-06 -1.18638e-06 0)
(-2.41117e-06 -1.20622e-06 0)
(-2.13756e-06 -1.22395e-06 0)
(-1.86019e-06 -1.23952e-06 0)
(-1.57956e-06 -1.25293e-06 0)
(-1.29616e-06 -1.26413e-06 0)
(-1.01049e-06 -1.27312e-06 0)
(-7.23048e-07 -1.27988e-06 0)
(-4.34336e-07 -1.28439e-06 0)
(-1.44862e-07 -1.28664e-06 0)
(1.44867e-07 -1.28664e-06 0)
(4.34341e-07 -1.28439e-06 0)
(7.23054e-07 -1.27988e-06 0)
(1.0105e-06 -1.27312e-06 0)
(1.29617e-06 -1.26413e-06 0)
(1.57957e-06 -1.25293e-06 0)
(1.8602e-06 -1.23952e-06 0)
(2.13756e-06 -1.22395e-06 0)
(2.41118e-06 -1.20622e-06 0)
(2.68056e-06 -1.18638e-06 0)
(2.94525e-06 -1.16446e-06 0)
(3.20476e-06 -1.1405e-06 0)
(3.45866e-06 -1.11454e-06 0)
(3.70649e-06 -1.08662e-06 0)
(3.94782e-06 -1.05679e-06 0)
(4.18222e-06 -1.02511e-06 0)
(4.40929e-06 -9.91637e-07 0)
(4.62862e-06 -9.56421e-07 0)
(4.83984e-06 -9.19527e-07 0)
(5.04256e-06 -8.81021e-07 0)
(5.23644e-06 -8.40969e-07 0)
(5.42114e-06 -7.99442e-07 0)
(5.59632e-06 -7.56513e-07 0)
(5.76169e-06 -7.12258e-07 0)
(5.91696e-06 -6.66753e-07 0)
(6.06184e-06 -6.20078e-07 0)
(6.1961e-06 -5.72316e-07 0)
(6.31948e-06 -5.23551e-07 0)
(6.43178e-06 -4.73867e-07 0)
(6.5328e-06 -4.23352e-07 0)
(6.62236e-06 -3.72095e-07 0)
(6.7003e-06 -3.20185e-07 0)
(6.76649e-06 -2.67714e-07 0)
(6.82082e-06 -2.14773e-07 0)
(6.86318e-06 -1.61455e-07 0)
(6.8935e-06 -1.07855e-07 0)
(6.91173e-06 -5.40651e-08 0)
(6.91784e-06 -1.80896e-10 0)
(6.91181e-06 5.37035e-08 0)
(6.89366e-06 1.07494e-07 0)
(6.86342e-06 1.61095e-07 0)
(6.82114e-06 2.14413e-07 0)
(6.7669e-06 2.67356e-07 0)
(6.70079e-06 3.19829e-07 0)
(6.62292e-06 3.71742e-07 0)
(6.53344e-06 4.23002e-07 0)
(6.4325e-06 4.7352e-07 0)
(6.32028e-06 5.23207e-07 0)
(6.19697e-06 5.71977e-07 0)
(6.06279e-06 6.19744e-07 0)
(5.91798e-06 6.66423e-07 0)
(5.76279e-06 7.11934e-07 0)
(5.59749e-06 7.56195e-07 0)
(5.42238e-06 7.99131e-07 0)
(5.23775e-06 8.40665e-07 0)
(5.04394e-06 8.80724e-07 0)
(4.84128e-06 9.19239e-07 0)
(4.63013e-06 9.56142e-07 0)
(4.41085e-06 9.91369e-07 0)
(4.18385e-06 1.02486e-06 0)
(3.9495e-06 1.05655e-06 0)
(3.70822e-06 1.08639e-06 0)
(3.46044e-06 1.11434e-06 0)
(3.20659e-06 1.14033e-06 0)
(2.94711e-06 1.16433e-06 0)
(2.68245e-06 1.1863e-06 0)
(2.41308e-06 1.2062e-06 0)
(2.13946e-06 1.22402e-06 0)
(1.86207e-06 1.23972e-06 0)
(1.58138e-06 1.25329e-06 0)
(1.29788e-06 1.26473e-06 0)
(1.01204e-06 1.27405e-06 0)
(7.24343e-07 1.28126e-06 0)
(4.35251e-07 1.28642e-06 0)
(1.45209e-07 1.28953e-06 0)
(-1.4649e-07 1.58093e-06 0)
(-4.39092e-07 1.57713e-06 0)
(-7.30737e-07 1.57081e-06 0)
(-1.02098e-06 1.56197e-06 0)
(-1.30934e-06 1.55054e-06 0)
(-1.59535e-06 1.53652e-06 0)
(-1.87852e-06 1.51987e-06 0)
(-2.15836e-06 1.50063e-06 0)
(-2.43439e-06 1.47879e-06 0)
(-2.70614e-06 1.45438e-06 0)
(-2.97314e-06 1.42745e-06 0)
(-3.23491e-06 1.39803e-06 0)
(-3.49101e-06 1.36616e-06 0)
(-3.74098e-06 1.3319e-06 0)
(-3.98438e-06 1.29532e-06 0)
(-4.2208e-06 1.25646e-06 0)
(-4.44981e-06 1.21541e-06 0)
(-4.67102e-06 1.17222e-06 0)
(-4.88404e-06 1.12698e-06 0)
(-5.08849e-06 1.07976e-06 0)
(-5.28401e-06 1.03064e-06 0)
(-5.47027e-06 9.79724e-07 0)
(-5.64693e-06 9.27086e-07 0)
(-5.81369e-06 8.72822e-07 0)
(-5.97025e-06 8.17026e-07 0)
(-6.11634e-06 7.59798e-07 0)
(-6.2517e-06 7.01236e-07 0)
(-6.3761e-06 6.41445e-07 0)
(-6.48931e-06 5.80529e-07 0)
(-6.59115e-06 5.18594e-07 0)
(-6.68142e-06 4.5575e-07 0)
(-6.75997e-06 3.92106e-07 0)
(-6.82667e-06 3.27775e-07 0)
(-6.88139e-06 2.62868e-07 0)
(-6.92404e-06 1.975e-07 0)
(-6.95455e-06 1.31786e-07 0)
(-6.97286e-06 6.58396e-08 0)
(-6.97894e-06 -2.22074e-10 0)
(-6.97278e-06 -6.62836e-08 0)
(-6.95439e-06 -1.32229e-07 0)
(-6.9238e-06 -1.97943e-07 0)
(-6.88106e-06 -2.63309e-07 0)
(-6.82626e-06 -3.28214e-07 0)
(-6.75948e-06 -3.92543e-07 0)
(-6.68085e-06 -4.56184e-07 0)
(-6.5905e-06 -5.19025e-07 0)
(-6.48859e-06 -5.80955e-07 0)
(-6.3753e-06 -6.41867e-07 0)
(-6.25082e-06 -7.01653e-07 0)
(-6.11538e-06 -7.60208e-07 0)
(-5.96922e-06 -8.1743e-07 0)
(-5.81258e-06 -8.73219e-07 0)
(-5.64575e-06 -9.27476e-07 0)
(-5.46902e-06 -9.80106e-07 0)
(-5.28269e-06 -1.03102e-06 0)
(-5.0871e-06 -1.08012e-06 0)
(-4.88258e-06 -1.12733e-06 0)
(-4.6695e-06 -1.17256e-06 0)
(-4.44823e-06 -1.21573e-06 0)
(-4.21916e-06 -1.25677e-06 0)
(-3.98269e-06 -1.29561e-06 0)
(-3.73923e-06 -1.33218e-06 0)
(-3.48921e-06 -1.36641e-06 0)
(-3.23307e-06 -1.39824e-06 0)
(-2.97126e-06 -1.42762e-06 0)
(-2.70424e-06 -1.45449e-06 0)
(-2.43247e-06 -1.47881e-06 0)
(-2.15644e-06 -1.50054e-06 0)
(-1.87662e-06 -1.51964e-06 0)
(-1.59352e-06 -1.53607e-06 0)
(-1.30761e-06 -1.54981e-06 0)
(-1.01942e-06 -1.56083e-06 0)
(-7.29436e-07 -1.56911e-06 0)
(-4.38173e-07 -1.57464e-06 0)
(-1.46141e-07 -1.57741e-06 0)
(1.46147e-07 -1.57741e-06 0)
(4.38178e-07 -1.57464e-06 0)
(7.29441e-07 -1.56911e-06 0)
(1.01942e-06 -1.56083e-06 0)
(1.30762e-06 -1.54981e-06 0)
(1.59352e-06 -1.53607e-06 0)
(1.87663e-06 -1.51964e-06 0)
(2.15644e-06 -1.50054e-06 0)
(2.43248e-06 -1.47881e-06 0)
(2.70424e-06 -1.45449e-06 0)
(2.97126e-06 -1.42762e-06 0)
(3.23307e-06 -1.39824e-06 0)
(3.48921e-06 -1.36641e-06 0)
(3.73923e-06 -1.33218e-06 0)
(3.98269e-06 -1.29561e-06 0)
(4.21917e-06 -1.25678e-06 0)
(4.44824e-06 -1.21573e-06 0)
(4.66951e-06 -1.17256e-06 0)
(4.88259e-06 -1.12733e-06 0)
(5.08711e-06 -1.08012e-06 0)
(5.2827e-06 -1.03102e-06 0)
(5.46903e-06 -9.80106e-07 0)
(5.64576e-06 -9.27476e-07 0)
(5.81259e-06 -8.73219e-07 0)
(5.96922e-06 -8.1743e-07 0)
(6.11539e-06 -7.60208e-07 0)
(6.25083e-06 -7.01653e-07 0)
(6.3753e-06 -6.41867e-07 0)
(6.48859e-06 -5.80955e-07 0)
(6.59051e-06 -5.19024e-07 0)
(6.68086e-06 -4.56183e-07 0)
(6.75949e-06 -3.92542e-07 0)
(6.82627e-06 -3.28213e-07 0)
(6.88107e-06 -2.63308e-07 0)
(6.9238e-06 -1.97942e-07 0)
(6.95439e-06 -1.32228e-07 0)
(6.97278e-06 -6.6283e-08 0)
(6.97894e-06 -2.21554e-10 0)
(6.97286e-06 6.584e-08 0)
(6.95455e-06 1.31786e-07 0)
(6.92405e-06 1.97501e-07 0)
(6.88139e-06 2.62869e-07 0)
(6.82667e-06 3.27775e-07 0)
(6.75997e-06 3.92107e-07 0)
(6.68142e-06 4.55751e-07 0)
(6.59115e-06 5.18595e-07 0)
(6.48932e-06 5.8053e-07 0)
(6.3761e-06 6.41446e-07 0)
(6.25171e-06 7.01237e-07 0)
(6.11634e-06 7.59798e-07 0)
(5.97025e-06 8.17026e-07 0)
(5.81369e-06 8.72821e-07 0)
(5.64693e-06 9.27086e-07 0)
(5.47027e-06 9.79724e-07 0)
(5.28401e-06 1.03064e-06 0)
(5.08849e-06 1.07976e-06 0)
(4.88404e-06 1.12698e-06 0)
(4.67102e-06 1.17222e-06 0)
(4.44982e-06 1.21541e-06 0)
(4.2208e-06 1.25646e-06 0)
(3.98438e-06 1.29532e-06 0)
(3.74098e-06 1.3319e-06 0)
(3.49101e-06 1.36616e-06 0)
(3.23491e-06 1.39803e-06 0)
(2.97314e-06 1.42745e-06 0)
(2.70614e-06 1.45438e-06 0)
(2.43439e-06 1.47879e-06 0)
(2.15836e-06 1.50063e-06 0)
(1.87852e-06 1.51988e-06 0)
(1.59535e-06 1.53652e-06 0)
(1.30934e-06 1.55055e-06 0)
(1.02098e-06 1.56197e-06 0)
(7.30738e-07 1.57081e-06 0)
(4.39093e-07 1.57713e-06 0)
(1.46491e-07 1.58094e-06 0)
(-1.48023e-07 1.87515e-06 0)
(-4.43683e-07 1.87065e-06 0)
(-7.38378e-07 1.86316e-06 0)
(-1.03165e-06 1.85266e-06 0)
(-1.32303e-06 1.83911e-06 0)
(-1.61203e-06 1.82248e-06 0)
(-1.89816e-06 1.80274e-06 0)
(-2.18093e-06 1.7799e-06 0)
(-2.45985e-06 1.754e-06 0)
(-2.73445e-06 1.72506e-06 0)
(-3.00423e-06 1.69311e-06 0)
(-3.26874e-06 1.65821e-06 0)
(-3.52752e-06 1.62041e-06 0)
(-3.7801e-06 1.57978e-06 0)
(-4.02605e-06 1.53639e-06 0)
(-4.26494e-06 1.4903e-06 0)
(-4.49635e-06 1.4416e-06 0)
(-4.71987e-06 1.39038e-06 0)
(-4.93512e-06 1.33672e-06 0)
(-5.14171e-06 1.28071e-06 0)
(-5.33928e-06 1.22246e-06 0)
(-5.52748e-06 1.16206e-06 0)
(-5.70599e-06 1.09962e-06 0)
(-5.87449e-06 1.03526e-06 0)
(-6.03269e-06 9.69082e-07 0)
(-6.18031e-06 9.01202e-07 0)
(-6.31709e-06 8.31743e-07 0)
(-6.44279e-06 7.60824e-07 0)
(-6.55718e-06 6.88571e-07 0)
(-6.66008e-06 6.1511e-07 0)
(-6.7513e-06 5.40569e-07 0)
(-6.83067e-06 4.65081e-07 0)
(-6.89807e-06 3.88777e-07 0)
(-6.95336e-06 3.1179e-07 0)
(-6.99646e-06 2.34257e-07 0)
(-7.02729e-06 1.56312e-07 0)
(-7.04579e-06 7.80932e-08 0)
(-7.05193e-06 -2.63211e-10 0)
(-7.04571e-06 -7.86193e-08 0)
(-7.02712e-06 -1.56838e-07 0)
(-6.99621e-06 -2.34781e-07 0)
(-6.95303e-06 -3.12313e-07 0)
(-6.89766e-06 -3.89297e-07 0)
(-6.83018e-06 -4.65598e-07 0)
(-6.75073e-06 -5.41083e-07 0)
(-6.65943e-06 -6.15619e-07 0)
(-6.55645e-06 -6.89076e-07 0)
(-6.44198e-06 -7.61324e-07 0)
(-6.3162e-06 -8.32236e-07 0)
(-6.17935e-06 -9.01689e-07 0)
(-6.03165e-06 -9.69561e-07 0)
(-5.87338e-06 -1.03573e-06 0)
(-5.7048e-06 -1.10009e-06 0)
(-5.52622e-06 -1.16251e-06 0)
(-5.33795e-06 -1.2229e-06 0)
(-5.14031e-06 -1.28114e-06 0)
(-4.93365e-06 -1.33713e-06 0)
(-4.71834e-06 -1.39078e-06 0)
(-4.49476e-06 -1.44199e-06 0)
(-4.26329e-06 -1.49067e-06 0)
(-4.02434e-06 -1.53674e-06 0)
(-3.77834e-06 -1.58011e-06 0)
(-3.5257e-06 -1.62071e-06 0)
(-3.26688e-06 -1.65846e-06 0)
(-3.00234e-06 -1.69331e-06 0)
(-2.73252e-06 -1.72518e-06 0)
(-2.45791e-06 -1.75403e-06 0)
(-2.17899e-06 -1.77981e-06 0)
(-1.89625e-06 -1.80246e-06 0)
(-1.61018e-06 -1.82195e-06 0)
(-1.32129e-06 -1.83824e-06 0)
(-1.03008e-06 -1.85131e-06 0)
(-7.37065e-07 -1.86114e-06 0)
(-4.42756e-07 -1.86769e-06 0)
(-1.4767e-07 -1.87098e-06 0)
(1.47675e-07 -1.87098e-06 0)
(4.42761e-07 -1.86769e-06 0)
(7.37071e-07 -1.86114e-06 0)
(1.03009e-06 -1.85131e-06 0)
(1.3213e-06 -1.83824e-06 0)
(1.61019e-06 -1.82195e-06 0)
(1.89626e-06 -1.80246e-06 0)
(2.179e-06 -1.77981e-06 0)
(2.45792e-06 -1.75403e-06 0)
(2.73253e-06 -1.72518e-06 0)
(3.00234e-06 -1.69331e-06 0)
(3.26689e-06 -1.65846e-06 0)
(3.52571e-06 -1.62071e-06 0)
(3.77834e-06 -1.58011e-06 0)
(4.02435e-06 -1.53674e-06 0)
(4.26329e-06 -1.49067e-06 0)
(4.49476e-06 -1.44199e-06 0)
(4.71835e-06 -1.39078e-06 0)
(4.93366e-06 -1.33713e-06 0)
(5.14031e-06 -1.28114e-06 0)
(5.33795e-06 -1.2229e-06 0)
(5.52623e-06 -1.16251e-06 0)
(5.70481e-06 -1.10009e-06 0)
(5.87338e-06 -1.03573e-06 0)
(6.03166e-06 -9.69561e-07 0)
(6.17935e-06 -9.01689e-07 0)
(6.31621e-06 -8.32236e-07 0)
(6.44198e-06 -7.61323e-07 0)
(6.55646e-06 -6.89075e-07 0)
(6.65944e-06 -6.15619e-07 0)
(6.75073e-06 -5.41083e-07 0)
(6.83019e-06 -4.65598e-07 0)
(6.89766e-06 -3.89296e-07 0)
(6.95304e-06 -3.12312e-07 0)