/*--------------------------------*- C++ -*----------------------------------*\
| =========                 |                                                 |
| \\      /  F ield         | OpenFOAM: The Open Source CFD Toolbox           |
|  \\    /   O peration     | Version:  2106                                  |
|   \\  /    A nd           | Website:  www.openfoam.com                      |
|    \\/     M anipulation  |                                                 |
\*---------------------------------------------------------------------------*/
FoamFile
{
    version     2.0;
    format      ascii;
    arch        "LSB;label=32;scalar=64";
    class       surfaceScalarField;
    location    "0.06";
    object      phi_0;
}
// * * * * * * * * * * * * * * * * * * * * * * * * * * * * * * * * * * * * * //

dimensions      [0 3 -1 0 0 0 0];

oriented        oriented;

internalField   nonuniform List<scalar> 
65152
(
3.4224237e-08
-3.4224237e-08
7.1496297e-08
-3.727206e-08
1.0909301e-07
-3.7596709e-08
1.4685597e-07
-3.7762964e-08
1.8476257e-07
-3.79066e-08
2.2282321e-07
-3.8060634e-08
2.6106599e-07
-3.8242781e-08
2.9952194e-07
-3.8455951e-08
3.3822177e-07
-3.8699834e-08
3.7719677e-07
-3.8975e-08
4.1647912e-07
-3.9282348e-08
4.5610178e-07
-3.9622658e-08
4.9609859e-07
-3.9996814e-08
5.365049e-07
-4.0406311e-08
5.7735938e-07
-4.0854477e-08
6.1870149e-07
-4.1342115e-08
6.6056791e-07
-4.1866418e-08
7.0299408e-07
-4.2426171e-08
7.4601594e-07
-4.3021852e-08
7.8967026e-07
-4.3654329e-08
8.3399485e-07
-4.4324581e-08
8.790285e-07
-4.503365e-08
9.2481112e-07
-4.5782622e-08
9.7138373e-07
-4.6572613e-08
1.0187885e-06
-4.7404762e-08
1.0670687e-06
-4.8280229e-08
1.1162689e-06
-4.9200192e-08
1.1664348e-06
-5.0165848e-08
1.2176132e-06
-5.1178413e-08
1.2698523e-06
-5.2239117e-08
1.3232015e-06
-5.334923e-08
1.3777115e-06
-5.4509957e-08
1.4334343e-06
-5.5722771e-08
1.4904226e-06
-5.6988332e-08
1.5487323e-06
-5.8309738e-08
1.6084154e-06
-5.9683097e-08
1.6695386e-06
-6.1123191e-08
1.7321358e-06
-6.2597151e-08
1.7963208e-06
-6.4185069e-08
1.8620372e-06
-6.5716413e-08
1.9295673e-06
-6.7530078e-08
1.9986e-06
-6.9032679e-08
2.0697143e-06
-7.1114273e-08
2.1425109e-06
-7.279662e-08
2.2169506e-06
-7.4439714e-08
2.2948249e-06
-7.7874288e-08
2.3715939e-06
-7.6769e-08
2.4553845e-06
-8.37906e-08
2.5359509e-06
-8.0566355e-08
2.6224747e-06
-8.6523835e-08
2.7114711e-06
-8.8996379e-08
2.799448e-06
-8.7976965e-08
2.893193e-06
-9.374497e-08
2.9896498e-06
-9.6456753e-08
3.0859378e-06
-9.6288054e-08
3.1865942e-06
-1.0065639e-07
3.2908292e-06
-1.0423497e-07
3.3967239e-06
-1.0589476e-07
3.5056318e-06
-1.0890791e-07
3.6172618e-06
-1.1162997e-07
3.7318282e-06
-1.1456644e-07
3.8503053e-06
-1.1847706e-07
3.9719596e-06
-1.2165431e-07
4.0951432e-06
-1.2318356e-07
4.2209257e-06
-1.2578256e-07
4.3504264e-06
-1.2950065e-07
4.4847283e-06
-1.3430191e-07
4.6222858e-06
-1.3755756e-07
4.7609477e-06
-1.386619e-07
4.9009697e-06
-1.4002191e-07
5.0431876e-06
-1.4221794e-07
5.1895736e-06
-1.4638603e-07
5.3407827e-06
-1.5120909e-07
5.4953077e-06
-1.5452499e-07
5.6513326e-06
-1.5602485e-07
5.8074237e-06
-1.560911e-07
5.9627357e-06
-1.5531203e-07
6.1166761e-06
-1.5394038e-07
6.2684997e-06
-1.5182359e-07
6.4192642e-06
-1.5076454e-07
6.5726502e-06
-1.5338604e-07
6.7318536e-06
-1.5920335e-07
6.8959067e-06
-1.6405315e-07
7.0573678e-06
-1.6146108e-07
7.204397e-06
-1.4702921e-07
7.3264952e-06
-1.2209814e-07
7.4202805e-06
-9.3785294e-08
7.4929833e-06
-7.2702808e-08
7.5605278e-06
-6.7544578e-08
7.6385414e-06
-7.8013568e-08
7.7304991e-06
-9.1957683e-08
7.8196966e-06
-8.9197552e-08
7.8786864e-06
-5.8989719e-08
7.9008251e-06
-2.2138771e-08
7.8995664e-06
1.2587601e-09
7.8889074e-06
1.0658951e-08
7.8792883e-06
9.6191138e-09
7.8806799e-06
-1.3915606e-09
7.9024524e-06
-2.1772517e-08
7.9467041e-06
-4.4251711e-08
8.0140311e-06
-6.7326951e-08
8.1065246e-06
-9.2493582e-08
8.2046982e-06
-9.8173549e-08
7.5078888e-06
6.9680938e-07
5.9747575e-06
1.5331313e-06
4.3740582e-06
1.6006993e-06
3.2823291e-06
1.0917292e-06
2.6415711e-06
6.4075799e-07
2.2461558e-06
3.9541527e-07
1.9797835e-06
2.6637235e-07
1.7852439e-06
1.9453955e-07
1.633913e-06
1.5133088e-07
1.5100052e-06
1.2390782e-07
1.405035e-06
1.0497022e-07
1.3140124e-06
9.1022553e-08
1.2337403e-06
8.0272118e-08
1.1620987e-06
7.16416e-08
1.0974543e-06
6.4644388e-08
1.038823e-06
5.8631356e-08
9.8524307e-07
5.3579902e-08
9.3593745e-07
4.930562e-08
8.9044053e-07
4.5496929e-08
8.4829725e-07
4.2143279e-08
8.091381e-07
3.9159142e-08
7.726478e-07
3.6490308e-08
7.3854601e-07
3.4101788e-08
7.0659719e-07
3.1948814e-08
6.765882e-07
3.0008997e-08
6.4837566e-07
2.821254e-08
6.2176392e-07
2.6611737e-08
5.9663333e-07
2.5130585e-08
5.7288154e-07
2.3751792e-08
5.5050121e-07
2.2380328e-08
5.2906998e-07
2.1431234e-08
5.0883544e-07
2.0234537e-08
4.8965088e-07
1.9184559e-08
4.713584e-07
1.829248e-08
4.5399302e-07
1.7365387e-08
4.3750146e-07
1.6491559e-08
4.2160775e-07
1.589371e-08
4.0650203e-07
1.5105713e-08
3.9211665e-07
1.438538e-08
3.7837552e-07
1.3741137e-08
3.6521128e-07
1.3164239e-08
3.5261347e-07
1.259781e-08
3.4050669e-07
1.2106781e-08
3.2890126e-07
1.1605426e-08
3.1778483e-07
1.111643e-08
3.0713064e-07
1.0654188e-08
2.9690944e-07
1.0221198e-08
2.8710139e-07
9.8080487e-09
2.7765548e-07
9.4459178e-09
2.6857587e-07
9.0796052e-09
2.5984842e-07
8.7274477e-09
2.5145444e-07
8.3939814e-09
2.4337565e-07
8.0787946e-09
2.3559563e-07
7.780016e-09
2.280998e-07
7.495834e-09
2.2087433e-07
7.2254702e-09
2.1390491e-07
6.9694151e-09
2.0717706e-07
6.7278552e-09
2.0074479e-07
6.4322638e-09
1.9448538e-07
6.2594156e-09
1.884424e-07
6.0429787e-09
1.8261693e-07
5.8254686e-09
1.7698047e-07
5.6364644e-09
1.7152527e-07
5.4551946e-09
1.6631326e-07
5.2120112e-09
1.6123204e-07
5.0812156e-09
1.5631561e-07
4.9164346e-09
1.5156284e-07
4.752767e-09
1.469775e-07
4.5853477e-09
1.4253835e-07
4.4391402e-09
1.3824205e-07
4.2963069e-09
1.3408196e-07
4.1600849e-09
1.3005213e-07
4.0298308e-09
1.261484e-07
3.9037345e-09
1.2236679e-07
3.7816093e-09
1.1870304e-07
3.6637482e-09
1.1515278e-07
3.5502614e-09
1.1171171e-07
3.4410712e-09
1.0837568e-07
3.336028e-09
1.051407e-07
3.2349808e-09
1.0200288e-07
3.1378153e-09
9.8958345e-08
3.0445392e-09
9.6003189e-08
2.9551559e-09
9.3134792e-08
2.8683967e-09
9.0362692e-08
2.7721e-09
8.7667483e-08
2.6952086e-09
8.5045295e-08
2.6221883e-09
8.2496813e-08
2.5484816e-09
8.0021172e-08
2.4756408e-09
7.7616092e-08
2.4050808e-09
7.5278865e-08
2.3372262e-09
7.3007331e-08
2.2715349e-09
7.0799281e-08
2.2080496e-09
6.8652009e-08
2.1472715e-09
6.6562548e-08
2.0894618e-09
6.4530005e-08
2.0325431e-09
6.2552642e-08
1.9773626e-09
6.0627971e-08
1.9246715e-09
5.8753761e-08
1.8742105e-09
5.6929394e-08
1.8243671e-09
5.5159165e-08
1.770229e-09
5.3431397e-08
1.727768e-09
5.174485e-08
1.6865468e-09
5.0100263e-08
1.6445874e-09
4.8497214e-08
1.6030493e-09
4.6934471e-08
1.562743e-09
4.5410593e-08
1.5238787e-09
4.3924152e-08
1.4864413e-09
4.2473842e-08
1.4503099e-09
4.1057897e-08
1.4159443e-09
3.9672159e-08
1.385738e-09
3.8319629e-08
1.3525309e-09
3.6995061e-08
1.3245676e-09
3.5702411e-08
1.2926505e-09
3.443931e-08
1.2631012e-09
3.3203687e-08
1.235622e-09
3.2000927e-08
1.2027606e-09
3.0818699e-08
1.1822278e-09
2.9658139e-08
1.1605596e-09
2.8524397e-08
1.1337425e-09
2.7412024e-08
1.1123729e-09
2.6320705e-08
1.0913196e-09
2.5250151e-08
1.0705538e-09
2.4199659e-08
1.0504917e-09
2.3168394e-08
1.0312659e-09
2.2155526e-08
1.0128682e-09
2.1160181e-08
9.95345e-10
2.0181146e-08
9.7903461e-10
1.9216639e-08
9.6450713e-10
1.826815e-08
9.4848951e-10
1.7334421e-08
9.3372923e-10
1.6414207e-08
9.2021373e-10
1.5506754e-08
9.0745286e-10
1.4611899e-08
8.9485544e-10
1.3729783e-08
8.8211622e-10
1.2857463e-08
8.723191e-10
1.1994726e-08
8.6273688e-10
1.1141401e-08
8.5332482e-10
1.0295485e-08
8.459166e-10
9.4591635e-09
8.3632115e-10
8.6303357e-09
8.2882784e-10
7.8082783e-09
8.2205718e-10
6.9924675e-09
8.1581055e-10
6.1819044e-09
8.1056269e-10
5.3766889e-09
8.0521519e-10
4.5754147e-09
8.0127396e-10
3.7782161e-09
7.9719858e-10
2.9839161e-09
7.9430002e-10
2.1932958e-09
7.906203e-10
1.416331e-09
7.7696466e-10
6.9256954e-10
7.2376115e-10
1.5130307e-10
5.4126628e-10
1.5130308e-10
3.5875815e-08
-7.0100052e-08
7.615612e-08
-7.7552365e-08
1.1682776e-07
-7.8268354e-08
1.5758266e-07
-7.8517862e-08
1.9844935e-07
-7.8773285e-08
2.394675e-07
-7.9078789e-08
2.8066961e-07
-7.9444892e-08
3.2208774e-07
-7.9874076e-08
3.6375479e-07
-8.0366882e-08
4.0570395e-07
-8.0924165e-08
4.4796864e-07
-8.1547035e-08
4.9058262e-07
-8.2236636e-08
5.3358e-07
-8.2994195e-08
5.7699476e-07
-8.3821074e-08
6.2085882e-07
-8.4718535e-08
6.652017e-07
-8.5684999e-08
7.100567e-07
-8.6721417e-08
7.5546181e-07
-8.7831276e-08
8.0145627e-07
-8.901632e-08
8.4808004e-07
-9.0278097e-08
8.9537368e-07
-9.1618224e-08
9.4337847e-07
-9.3038432e-08
9.9213641e-07
-9.4540567e-08
1.0416904e-06
-9.6126569e-08
1.0920841e-06
-9.7798461e-08
1.1433622e-06
-9.9558332e-08
1.1955703e-06
-1.0140834e-07
1.2487552e-06
-1.0335069e-07
1.3029644e-06
-1.0538767e-07
1.3582469e-06
-1.0752159e-07
1.4146525e-06
-1.0975483e-07
1.4722323e-06
-1.1208978e-07
1.5310385e-06
-1.14529e-07
1.5911248e-06
-1.170746e-07
1.6525452e-06
-1.197301e-07
1.715357e-06
-1.2249491e-07
1.7796134e-06
-1.2537957e-07
1.845382e-06
-1.2836584e-07
1.9127007e-06
-1.3150373e-07
1.9816768e-06
-1.3469254e-07
2.0522767e-06
-1.3812992e-07
2.1247479e-06
-1.4150392e-07
2.1988081e-06
-1.4517443e-07
2.2751479e-06
-1.4913642e-07
2.3527156e-06
-1.5200742e-07
2.4335053e-06
-1.5866404e-07
2.5145138e-06
-1.5777744e-07
2.6002414e-06
-1.695182e-07
2.6854322e-06
-1.6575723e-07
2.7750255e-06
-1.7611706e-07
2.8656837e-06
-1.7965458e-07
2.9597875e-06
-1.8208075e-07
3.0547612e-06
-1.8871869e-07
3.1540785e-06
-1.9577409e-07
3.2561142e-06
-1.9832376e-07
3.3583059e-06
-2.0284811e-07
3.4647693e-06
-2.1069836e-07
3.5765705e-06
-2.176959e-07
3.6881962e-06
-2.2053362e-07
3.8009117e-06
-2.2434545e-07
3.9199652e-06
-2.3361996e-07
4.043542e-06
-2.4205383e-07
4.167209e-06
-2.4532131e-07
4.2924577e-06
-2.4843229e-07
4.4223488e-06
-2.5567369e-07
4.5559403e-06
-2.6309213e-07
4.6941693e-06
-2.7253093e-07
4.8362982e-06
-2.7968639e-07
4.9779427e-06
-2.8030644e-07
5.1189969e-06
-2.8107607e-07
5.2650116e-06
-2.8823265e-07
5.4185924e-06
-2.9996684e-07
5.5763732e-06
-3.0898994e-07
5.7343322e-06
-3.1248392e-07
5.8924458e-06
-3.1413843e-07
6.0523846e-06
-3.1602998e-07
6.2140773e-06
-3.1700472e-07
6.3746043e-06
-3.1446731e-07
6.5314036e-06
-3.0862297e-07
6.6871497e-06
-3.0651059e-07
6.8488727e-06
-3.1510908e-07
7.0231153e-06
-3.3344591e-07
7.2076459e-06
-3.4858371e-07
7.3872453e-06
-3.4106055e-07
7.5417882e-06
-3.0157209e-07
7.6596212e-06
-2.3993119e-07
7.7470024e-06
-1.8116648e-07
7.8260693e-06
-1.5176972e-07
7.9199478e-06
-1.6142307e-07
8.0368705e-06
-1.9493621e-07
8.1662147e-06
-2.2130186e-07
8.2886021e-06
-2.1158502e-07
8.3876688e-06
-1.5805637e-07
8.4471619e-06
-8.1631888e-08
8.4615958e-06
-1.3175191e-08
8.4430825e-06
2.9172317e-08
8.4101676e-06
4.2534e-08
8.3790885e-06
2.9687558e-08
8.3592777e-06
-1.961789e-09
8.3434208e-06
-2.8394772e-08
8.3213667e-06
-4.5272825e-08
8.2783279e-06
-4.9454768e-08
8.2235726e-06
-4.341824e-08
6.9271753e-06
1.9932067e-06
5.6180665e-06
2.84224e-06
4.7066502e-06
2.5121156e-06
4.1497652e-06
1.6486141e-06
3.714515e-06
1.0760082e-06
3.3627363e-06
7.4719393e-07
3.073744e-06
5.5536468e-07
2.8323243e-06
4.3595921e-07
2.6273361e-06
3.5631914e-07
2.4509665e-06
3.0027733e-07
2.2970325e-06
2.5890426e-07
2.1609392e-06
2.2711584e-07
2.0393012e-06
2.0191011e-07
1.9296045e-06
1.813383e-07
1.829903e-06
1.6434595e-07
1.7388503e-06
1.4968399e-07
1.6549507e-06
1.3747954e-07
1.5775392e-06
1.2671713e-07
1.5057793e-06
1.1725685e-07
1.438999e-06
1.0892355e-07
1.3766862e-06
1.0147196e-07
1.3183956e-06
9.4780901e-08
1.2637268e-06
8.8770557e-08
1.2123455e-06
8.3330171e-08
1.1639136e-06
7.8440818e-08
1.1183117e-06
7.3814432e-08
1.0750939e-06
6.9829596e-08
1.0341353e-06
6.6089209e-08
9.9537361e-07
6.2513443e-08
9.5849118e-07
5.9262765e-08
9.236421e-07
5.6280306e-08
8.904088e-07
5.3467845e-08
8.5873304e-07
5.0860312e-08
8.2847217e-07
4.8553351e-08
7.9973479e-07
4.6102766e-08
7.7216457e-07
4.4061778e-08
7.4595937e-07
4.2098917e-08
7.2077363e-07
4.0291452e-08
6.9677683e-07
3.838218e-08
6.7371825e-07
3.679971e-08
6.5159922e-07
3.5283271e-08
6.3043197e-07
3.3765057e-08
6.1002512e-07
3.2513639e-08
5.9044434e-07
3.1186201e-08
5.7166054e-07
2.9900226e-08
5.5361913e-07
2.8695601e-08
5.3627691e-07
2.7563422e-08
5.1961744e-07
2.6467518e-08
5.0352215e-07
2.5541201e-08
4.8803148e-07
2.4570276e-08
4.731225e-07
2.3636433e-08
4.5875584e-07
2.2760639e-08
4.449037e-07
2.1930934e-08
4.3154155e-07
2.1142171e-08
4.1864762e-07
2.0389755e-08
4.0620295e-07
1.967014e-08
3.9419168e-07
1.8980685e-08
3.8260148e-07
1.8318059e-08
3.7132964e-07
1.7704107e-08
3.604779e-07
1.7111148e-08
3.4999395e-07
1.652693e-08
3.3985379e-07
1.5965635e-08
3.3005052e-07
1.5439735e-08
3.2057753e-07
1.4928176e-08
3.1134694e-07
1.4442601e-08
3.0244791e-07
1.3980253e-08
2.9382048e-07
1.3543857e-08
2.854562e-07
1.311705e-08
2.7739542e-07
1.264613e-08
2.695566e-07
1.2277956e-08
2.6195736e-07
1.1895547e-08
2.5458717e-07
1.1530274e-08
2.4743427e-07
1.1182737e-08
2.4049159e-07
1.084641e-08
2.3375318e-07
1.0520025e-08
2.2721241e-07
1.0204516e-08
2.2086223e-07
9.9004429e-09
2.1469556e-07
9.6077412e-09
2.0870552e-07
9.3260647e-09
2.0288547e-07
9.0550347e-09
1.9722891e-07
8.7943715e-09
1.917294e-07
8.5440492e-09
1.8638076e-07
8.303799e-09
1.8117967e-07
8.0694857e-09
1.7614396e-07
7.8078038e-09
1.7122874e-07
7.6104353e-09
1.6644138e-07
7.4095445e-09
1.6178028e-07
7.2095809e-09
1.5724224e-07
7.0136827e-09
1.528231e-07
6.8242186e-09
1.4851837e-07
6.6419632e-09
1.4432482e-07
6.465083e-09
1.4023898e-07
6.29389e-09
1.3625613e-07
6.1301179e-09
1.3237087e-07
5.9747238e-09
1.2858222e-07
5.8211943e-09
1.2488743e-07
5.6721536e-09
1.2128233e-07
5.5297724e-09
1.1776315e-07
5.3933895e-09
1.1432846e-07
5.2590546e-09
1.1098649e-07
5.1122031e-09
1.0771301e-07
5.0012427e-09
1.0451209e-07
4.887467e-09
1.0138319e-07
4.7734933e-09
9.8324738e-08
4.6614991e-09
9.5334637e-08
4.5528438e-09
9.241054e-08
4.4479764e-09
8.9549923e-08
4.3470579e-09
8.6750399e-08
4.2498339e-09
8.4009213e-08
4.1571305e-09
8.1320172e-08
4.0747793e-09
7.8688848e-08
3.9838545e-09
7.6104749e-08
3.9086674e-09
7.3576276e-08
3.8211236e-09
7.1097812e-08
3.7415648e-09
6.8665733e-08
3.6677016e-09
6.6271679e-08
3.5968141e-09
6.3927589e-08
3.5263178e-09
6.1637611e-08
3.4505375e-09
5.9377511e-08
3.393843e-09
5.7153058e-08
3.3368265e-09
5.4964949e-08
3.2794286e-09
5.2812561e-08
3.222942e-09
5.0694583e-08
3.1684702e-09
4.8609482e-08
3.1163671e-09
4.6555719e-08
3.0666311e-09
4.4531763e-08
3.0193007e-09
4.2535892e-08
2.9749065e-09
4.056514e-08
2.9352598e-09
3.8621801e-08
2.8918285e-09
3.6703167e-08
2.8523635e-09
3.4807662e-08
2.815718e-09
3.2934085e-08
2.7810301e-09
3.1081717e-08
2.7472234e-09
2.9250879e-08
2.7129538e-09
2.7436468e-08
2.6867305e-09
2.5638624e-08
2.6605806e-09
2.3857113e-08
2.6348349e-09
2.2092546e-08
2.610484e-09
2.0340285e-08
2.5885821e-09
1.8600522e-08
2.5685905e-09
1.6872594e-08
2.5499841e-09
1.5155411e-08
2.5329938e-09
1.3447554e-08
2.5184185e-09
1.1747294e-08
2.5054754e-09
1.005547e-08
2.4930981e-09
8.3708001e-09
2.481868e-09
6.6915774e-09
2.4735225e-09
5.0200072e-09
2.4621902e-09
3.3707915e-09
2.42618e-09
1.8097129e-09
2.2848396e-09
5.469004e-10
1.8040787e-09
6.982034e-10
3.5829463e-08
-1.0592951e-07
7.5978994e-08
-1.177019e-07
1.1651108e-07
-1.1880044e-07
1.5714512e-07
-1.191519e-07
1.9789437e-07
-1.1952254e-07
2.3879328e-07
-1.199777e-07
2.7987387e-07
-1.2052548e-07
3.211679e-07
-1.211681e-07
3.6270775e-07
-1.2190673e-07
4.0452616e-07
-1.2274257e-07
4.4665611e-07
-1.2367698e-07
4.8913091e-07
-1.2471143e-07
5.319842e-07
-1.2584748e-07
5.7524986e-07
-1.2708674e-07
6.1896201e-07
-1.2843069e-07
6.6315728e-07
-1.2988026e-07
7.0787307e-07
-1.3143721e-07
7.5314599e-07
-1.3310419e-07
7.9901329e-07
-1.3488362e-07
8.4551312e-07
-1.3677793e-07
8.9268451e-07
-1.3878961e-07
9.4056737e-07
-1.409213e-07
9.8920255e-07
-1.4317574e-07
1.0386318e-06
-1.4555583e-07
1.0888979e-06
-1.4806455e-07
1.1400445e-06
-1.5070498e-07
1.1921165e-06
-1.5348033e-07
1.2451597e-06
-1.5639388e-07
1.2992211e-06
-1.5944899e-07
1.3543486e-06
-1.6264913e-07
1.4105916e-06
-1.6599781e-07
1.4680004e-06
-1.6949863e-07
1.5266266e-06
-1.7315522e-07
1.5865234e-06
-1.7697131e-07
1.6477436e-06
-1.8095039e-07
1.7103455e-06
-1.8509681e-07
1.774378e-06
-1.8941204e-07
1.8399183e-06
-1.939061e-07
1.9069787e-06
-1.9856411e-07
1.975724e-06
-2.0343786e-07
2.0460027e-06
-2.0840867e-07
2.1182677e-06
-2.1376892e-07
2.1919663e-06
-2.1887301e-07
2.26794e-06
-2.2511009e-07
2.3456318e-06
-2.2969921e-07
2.4248877e-06
-2.3791993e-07
2.5076063e-06
-2.4049612e-07
2.5903718e-06
-2.5228363e-07
2.676738e-06
-2.5212343e-07
2.7667319e-06
-2.6611104e-07
2.8539729e-06
-2.6689549e-07
2.9500692e-06
-2.7817708e-07
3.0455661e-06
-2.8421563e-07
3.1410658e-06
-2.912738e-07
3.2430759e-06
-3.0033377e-07
3.3480415e-06
-3.0781379e-07
3.4526042e-06
-3.1526102e-07
3.5600955e-06
-3.2518722e-07
3.6727876e-06
-3.332257e-07
3.788589e-06
-3.4014684e-07
3.9061085e-06
-3.5113951e-07
4.0255827e-06
-3.6152804e-07
4.1476685e-06
-3.6740709e-07
4.2740987e-06
-3.7486247e-07
4.4070701e-06
-3.8864509e-07
4.5415337e-06
-3.9755578e-07
4.6751869e-06
-4.061841e-07
4.8107934e-06
-4.1529292e-07
4.950928e-06
-4.2044096e-07
5.0973667e-06
-4.2751481e-07
5.2506117e-06
-4.4147762e-07
5.4063352e-06
-4.5569041e-07
5.5587172e-06
-4.6137186e-07
5.7061136e-06
-4.598804e-07
5.855344e-06
-4.6336882e-07
6.0140452e-06
-4.7473111e-07
6.1841065e-06
-4.8706608e-07
6.3604746e-06
-4.908354e-07
6.5341065e-06
-4.8225483e-07
6.6980695e-06
-4.7047358e-07
6.8510368e-06
-4.6807645e-07
7.0012274e-06
-4.8363648e-07
7.1604686e-06
-5.0782494e-07
7.3290187e-06
-5.0961066e-07
7.4920149e-06
-4.6456826e-07
7.6336913e-06
-3.8160754e-07
7.7544513e-06
-3.0192655e-07
7.8708377e-06
-2.6815607e-07
7.9975042e-06
-2.880896e-07
8.1316934e-06
-3.2912542e-07
8.2545083e-06
-3.4411675e-07
8.3477909e-06
-3.0486757e-07
8.4054006e-06
-2.1566609e-07
8.4282604e-06
-1.044917e-07
8.4201865e-06
-5.1013265e-09
8.3936289e-06
5.5729956e-08
8.3663856e-06
6.9777274e-08
8.3500582e-06
4.6015009e-08
8.3356154e-06
1.2480985e-08
8.3063979e-06
8.2270386e-10
8.2401929e-06
2.0932184e-08
7.9352575e-06
2.5548069e-07
6.5882329e-06
1.3036063e-06
5.5067335e-06
3.0747061e-06
4.9326964e-06
3.4162771e-06
4.6459022e-06
2.7989099e-06
4.3495264e-06
1.9449899e-06
4.0188632e-06
1.4066714e-06
3.7003296e-06
1.0657276e-06
3.4150964e-06
8.4059783e-07
3.1657996e-06
6.8525605e-07
2.9483319e-06
5.7378677e-07
2.7576327e-06
4.9097659e-07
2.5890562e-06
4.274807e-07
2.4387542e-06
3.7741793e-07
2.3036949e-06
3.3696938e-07
2.1813828e-06
3.0365038e-07
2.0701238e-06
2.7560494e-07
1.9678561e-06
2.5195172e-07
1.8739777e-06
2.3135794e-07
1.7872407e-06
2.134541e-07
1.7067325e-06
1.9776502e-07
1.6317707e-06
1.838854e-07
1.5618069e-06
1.7143576e-07
1.4963091e-06
1.6027868e-07
1.4348501e-06
1.5022951e-07
1.3770547e-06
1.4112561e-07
1.3226416e-06
1.328539e-07
1.2711592e-06
1.252968e-07
1.2226339e-06
1.1835495e-07
1.1766115e-06
1.1211159e-07
1.1330444e-06
1.0608056e-07
1.0916133e-06
1.0069386e-07
1.0523224e-06
9.5571256e-08
1.0149207e-06
9.0869537e-08
9.7925721e-07
8.6523765e-08
9.4531043e-07
8.2500133e-08
9.1278115e-07
7.863204e-08
8.8169574e-07
7.5147188e-08
8.5210708e-07
7.1687583e-08
8.2387589e-07
6.8522641e-08
7.9667436e-07
6.5583709e-08
7.7064638e-07
6.2827687e-08
7.4570527e-07
6.0224384e-08
7.217788e-07
5.769153e-08
6.9881791e-07
5.5474521e-08
6.7678972e-07
5.3214396e-08
6.5560995e-07
5.1079999e-08
6.3523787e-07
4.9067678e-08
6.156357e-07
4.7165586e-08
5.9673689e-07
4.5366331e-08
5.7861315e-07
4.366494e-08
5.611441e-07
4.2039327e-08
5.4428931e-07
4.049122e-08
5.2803222e-07
3.9017733e-08
5.1234943e-07
3.7613726e-08
4.9721774e-07
3.6273858e-08
4.8261388e-07
3.4993617e-08
4.6851535e-07
3.3768668e-08
4.5490229e-07
3.2593741e-08
4.4176759e-07
3.1452758e-08
4.2900248e-07
3.0469221e-08
4.1669065e-07
2.9422974e-08
4.047955e-07
2.8422081e-08
3.9329366e-07
2.7467474e-08
3.8215761e-07
2.6575785e-08
3.7138814e-07
2.5697648e-08
3.6091745e-07
2.4913289e-08
3.5081132e-07
2.4086386e-08
3.4099953e-07
2.3355642e-08
3.3151845e-07
2.259813e-08
3.2227434e-07
2.1890246e-08
3.1333266e-07
2.1219636e-08
3.0468212e-07
2.0546089e-08
2.9628869e-07
1.9923703e-08
2.8813677e-07
1.9334651e-08
2.8021842e-07
1.8764758e-08
2.7252771e-07
1.821074e-08
2.6505799e-07
1.7674238e-08
2.5780178e-07
1.7156648e-08
2.5075138e-07
1.6658139e-08
2.4389927e-07
1.6178181e-08
2.3723827e-07
1.5716035e-08
2.3076166e-07
1.5270982e-08
2.2446333e-07
1.4842373e-08
2.1833814e-07
1.4428992e-08
2.123806e-07
1.402702e-08
2.0656123e-07
1.3627179e-08
2.0091132e-07
1.3260347e-08
1.9541198e-07
1.290888e-08
1.9005511e-07
1.2566449e-08
1.8483534e-07
1.2233455e-08
1.7974745e-07
1.1912109e-08
1.7478617e-07
1.1603246e-08
1.699493e-07
1.1301949e-08
1.6523385e-07
1.100934e-08
1.6063458e-07
1.0729388e-08
1.5614298e-07
1.0466326e-08
1.5176148e-07
1.0202689e-08
1.4748608e-07
9.9475616e-09
1.4331231e-07
9.7035427e-09
1.3923656e-07
9.4691355e-09
1.3525501e-07
9.2406094e-09
1.3135299e-07
9.0142146e-09
1.2754695e-07
8.8072827e-09
1.238263e-07
8.6081196e-09
1.2018665e-07
8.4131445e-09
1.1662522e-07
8.2229357e-09
1.1313955e-07
8.0385065e-09
1.0972713e-07
7.8604008e-09
1.063847e-07
7.6894823e-09
1.0310906e-07
7.5254736e-09
9.9898673e-08
7.3675215e-09
9.6759057e-08
7.2143961e-09
9.3674723e-08
7.0681883e-09
9.0654355e-08
6.9290361e-09
8.7686139e-08
6.7893391e-09
8.4771895e-08
6.6558096e-09
8.1910395e-08
6.5292011e-09
7.9095975e-08
6.411234e-09
7.6334846e-08
6.287447e-09
7.3621531e-08
6.163852e-09
7.0953396e-08
6.0619782e-09
6.8327425e-08
5.9627981e-09
6.5742471e-08
5.8643826e-09
6.3197192e-08
5.7682217e-09
6.0690014e-08
5.6756479e-09
5.8219256e-08
5.5871249e-09
5.5783183e-08
5.5027045e-09
5.3380096e-08
5.4223881e-09
5.1009038e-08
5.3459651e-09
4.867221e-08
5.2720879e-09
4.6360822e-08
5.2032162e-09
4.4076391e-08
5.1367952e-09
4.1818344e-08
5.0737651e-09
3.9585343e-08
5.0140308e-09
3.7375685e-08
4.9568812e-09
3.5186266e-08
4.902373e-09
3.3019034e-08
4.8539621e-09
3.0871327e-08
4.8082874e-09
2.8741978e-08
4.7641841e-09
2.6630781e-08
4.7216804e-09
2.4533861e-08
4.6855016e-09
2.2450871e-08
4.6515808e-09
2.0381145e-08
4.6197089e-09
1.8323685e-08
4.5904544e-09
1.6276697e-08
4.565406e-09
1.4238487e-08
4.5436853e-09
1.2209391e-08
4.5221936e-09
1.0187641e-08
4.5036179e-09
8.1732675e-09
4.4878956e-09
6.1683216e-09
4.467136e-09
4.1872272e-09
4.4072743e-09
2.300061e-09
4.1720056e-09
7.3381297e-10
3.3703265e-09
1.4320162e-09
3.576249e-08
-1.4169201e-07
7.5812705e-08
-1.5775211e-07
1.1624587e-07
-1.5923361e-07
1.5678917e-07
-1.596952e-07
1.9744918e-07
-1.6018255e-07
2.3825715e-07
-1.6078567e-07
2.7924535e-07
-1.6151368e-07
3.2044591e-07
-1.6236867e-07
3.6189121e-07
-1.6335203e-07
4.0361388e-07
-1.6446523e-07
4.456468e-07
-1.6570991e-07
4.8802324e-07
-1.6708787e-07
5.307768e-07
-1.6860104e-07
5.7394151e-07
-1.7025145e-07
6.1755201e-07
-1.7204118e-07
6.6164408e-07
-1.7397233e-07
7.0625422e-07
-1.7604736e-07
7.5141919e-07
-1.7826917e-07
7.9717639e-07
-1.8064082e-07
8.4356398e-07
-1.8316551e-07
8.9062093e-07
-1.8584656e-07
9.3838709e-07
-1.8868746e-07
9.869032e-07
-1.9169185e-07
1.0362109e-06
-1.9486355e-07
1.0863529e-06
-1.9820651e-07
1.1373727e-06
-2.0172483e-07
1.1893152e-06
-2.0542276e-07
1.242226e-06
-2.0930467e-07
1.296152e-06
-2.1337504e-07
1.3511414e-06
-2.1763849e-07
1.4072433e-06
-2.2209972e-07
1.4645082e-06
-2.2676354e-07
1.5229877e-06
-2.3163472e-07
1.5827349e-06
-2.367185e-07
1.6438033e-06
-2.4201884e-07
1.7062502e-06
-2.4754367e-07
1.7701277e-06
-2.5328952e-07
1.8355053e-06
-2.592837e-07
1.9024157e-06
-2.6547452e-07
1.9709784e-06
-2.7200057e-07
2.0411382e-06
-2.7856849e-07
2.1131691e-06
-2.8579985e-07
2.1868052e-06
-2.9250913e-07
2.2625185e-06
-3.0082331e-07
2.3400563e-06
-3.0723704e-07
2.4193451e-06
-3.172087e-07
2.501435e-06
-3.225861e-07
2.5846891e-06
-3.3553767e-07
2.6703759e-06
-3.3781026e-07
2.7600208e-06
-3.5575591e-07
2.8484504e-06
-3.5532509e-07
2.942279e-06
-3.7200569e-07
3.039379e-06
-3.813156e-07
3.1346946e-06
-3.8658946e-07
3.2351998e-06
-4.0083892e-07
3.3411907e-06
-4.1380476e-07
3.4464339e-06
-4.2050421e-07
3.5521423e-06
-4.3089557e-07
3.6649549e-06
-4.4603834e-07
3.7824562e-06
-4.5764807e-07
3.8990639e-06
-4.6774727e-07
4.0170795e-06
-4.7954367e-07
4.1403679e-06
-4.906955e-07
4.2678851e-06
-5.0237963e-07
4.3997708e-06
-5.2053081e-07
4.5345635e-06
-5.3234843e-07
4.6687315e-06
-5.4035217e-07
4.8030214e-06
-5.4958273e-07
4.9443946e-06
-5.6181415e-07
5.0942424e-06
-5.7736266e-07
5.2480735e-06
-5.9530871e-07
5.4016134e-06
-6.0923032e-07
5.5530072e-06
-6.1276562e-07
5.7019293e-06
-6.0880256e-07
5.8550924e-06
-6.1653186e-07
6.0179899e-06
-6.3762861e-07
6.1888021e-06
-6.5787834e-07
6.3634331e-06
-6.6546642e-07
6.5380422e-06
-6.5686391e-07
6.708331e-06
-6.4076238e-07
6.868931e-06
-6.2867643e-07
7.0211033e-06
-6.3580881e-07
7.1741433e-06
-6.6086494e-07
7.3351937e-06
-6.7066103e-07
7.4994409e-06
-6.2881549e-07
7.6548393e-06
-5.3700596e-07
7.7995595e-06
-4.4664674e-07
7.9471086e-06
-4.1570514e-07
8.1057968e-06
-4.4677781e-07
8.258692e-06
-4.8202059e-07
8.3732523e-06
-4.5867704e-07
8.4315705e-06
-3.6318577e-07
8.4407651e-06
-2.2486074e-07
8.418895e-06
-8.2621572e-08
8.3842698e-06
2.9523819e-08
8.3503065e-06
8.969327e-08
8.3223621e-06
9.7721721e-08
8.2913208e-06
7.7056305e-08
8.2400752e-06
6.3726565e-08
8.1573971e-06
8.3500792e-08
7.9070527e-06
2.7127657e-07
6.6429749e-06
1.5195585e-06
5.0821629e-06
2.8644183e-06
4.4653058e-06
3.6915632e-06
4.3795849e-06
3.501998e-06
4.3714963e-06
2.8069984e-06
4.1999591e-06
2.1165272e-06
3.9519526e-06
1.6546779e-06
3.6894573e-06
1.3282228e-06
3.4392601e-06
1.0907951e-06
3.2102452e-06
9.142709e-07
3.0038017e-06
7.802303e-07
2.8184967e-06
6.7628156e-07
2.6519908e-06
5.9398666e-07
2.5018487e-06
5.2756003e-07
2.3658352e-06
4.7298286e-07
2.2420397e-06
4.2744583e-07
2.1287683e-06
3.888764e-07
2.0248186e-06
3.5590144e-07
1.9289238e-06
3.2725274e-07
1.8400449e-06
3.02333e-07
1.757588e-06
2.8022195e-07
1.6805982e-06
2.6087516e-07
1.6088302e-06
2.432038e-07
1.5416257e-06
2.2748312e-07
1.478519e-06
2.1333619e-07
1.4191535e-06
2.0049114e-07
1.3632464e-06
1.88761e-07
1.3103234e-06
1.7821979e-07
1.2604092e-06
1.6826918e-07
1.2132469e-06
1.5927391e-07
1.1683958e-06
1.5093164e-07
1.12586e-06
1.4322962e-07
1.085365e-06
1.3606625e-07
1.0468116e-06
1.2942296e-07
1.0101108e-06
1.232246e-07
9.7514938e-07
1.1746153e-07
9.4175584e-07
1.1202558e-07
9.0987176e-07
1.0703126e-07
8.7941188e-07
1.0214746e-07
8.5029954e-07
9.7634978e-08
8.2234028e-07
9.3542974e-08
7.9554543e-07
8.9622537e-08
7.6988082e-07
8.5888997e-08
7.4516594e-07
8.2406405e-08
7.2166119e-07
7.8979273e-08
6.9903916e-07
7.583643e-08
6.7726012e-07
7.2859039e-08
6.5629848e-07
7.0029315e-08
6.3611921e-07
6.7344852e-08
6.1665791e-07
6.4827638e-08
5.9800749e-07
6.231535e-08
5.8002499e-07
6.002183e-08
5.6267782e-07
5.7838387e-08
5.4594507e-07
5.5750488e-08
5.2980187e-07
5.3756928e-08
5.1422457e-07
5.1851151e-08
4.9918874e-07
5.0029454e-08
4.8466916e-07
4.8288244e-08
4.7064122e-07
4.6621675e-08
4.5707998e-07
4.5014003e-08
4.4399804e-07
4.3551163e-08
4.3133851e-07
4.20825e-08
4.1908766e-07
4.0672929e-08
4.072364e-07
3.9318734e-08
3.9574044e-07
3.807175e-08
3.8460878e-07
3.6829306e-08
3.7387107e-07
3.5650995e-08
3.6343207e-07
3.4525386e-08
3.5338558e-07
3.3402136e-08
3.4361197e-07
3.2371738e-08
3.3408611e-07
3.141611e-08
3.248481e-07
3.0457642e-08
3.1593172e-07
2.946247e-08
3.0727138e-07
2.8584046e-08
2.9885973e-07
2.7746299e-08
2.9069135e-07
2.6933139e-08
2.8275845e-07
2.6143634e-08
2.7505321e-07
2.5379485e-08
2.6756743e-07
2.4642422e-08
2.6029298e-07
2.3932587e-08
2.5322207e-07
2.3249095e-08
2.4634733e-07
2.2590779e-08
2.3966182e-07
2.195649e-08
2.3315907e-07
2.1345123e-08
2.2683274e-07
2.075532e-08
2.2067526e-07
2.0184504e-08
2.1467341e-07
1.9629023e-08
2.0883319e-07
1.910057e-08
2.031485e-07
1.8593571e-08
1.9761201e-07
1.810294e-08
1.9221707e-07
1.7628388e-08
1.8695713e-07
1.7172055e-08
1.8182493e-07
1.6735443e-08
1.7682056e-07
1.630632e-08
1.719421e-07
1.5887806e-08
1.671848e-07
1.5486684e-08
1.6253712e-07
1.511401e-08
1.5800359e-07
1.4736218e-08
1.5357783e-07
1.437332e-08
1.4925517e-07
1.40262e-08
1.4503221e-07
1.3692101e-08
1.4090445e-07
1.3368367e-08
1.3686513e-07
1.305353e-08
1.32918e-07
1.2754417e-08
1.2905928e-07
1.246684e-08
1.2528464e-07
1.2187788e-08
1.215906e-07
1.1916975e-08
1.1797462e-07
1.1654484e-08
1.1443441e-07
1.1400609e-08
1.1096653e-07
1.1157367e-08
1.0756799e-07
1.0924012e-08
1.0423546e-07
1.0700052e-08
1.0096477e-07
1.048508e-08
9.7759293e-08
1.0273669e-08
9.4620815e-08
1.0067513e-08
9.153739e-08
9.872764e-09
8.8507142e-08
9.6860581e-09
8.5530642e-08
9.5057014e-09
8.2613455e-08
9.3284214e-09
7.9740254e-08
9.1606474e-09
7.6909333e-08
8.994773e-09
7.4128569e-08
8.8427433e-09
7.1394009e-08
8.6973584e-09
6.8702457e-08
8.5559348e-09
6.6051633e-08
8.4190455e-09
6.3439744e-08
8.2875371e-09
6.08652e-08
8.1616692e-09
5.8326466e-08
8.0414386e-09
5.5821964e-08
7.9268905e-09
5.3349736e-08
7.8181932e-09
5.0907005e-08
7.7148188e-09
4.8495157e-08
7.6150641e-09
4.6112121e-08
7.5198321e-09
4.3755991e-08
7.4298945e-09
4.1425127e-08
7.3448949e-09
3.9117757e-08
7.2642511e-09
3.6832054e-08
7.1880758e-09
3.4568268e-08
7.1177479e-09
3.2324836e-08
7.0517198e-09
3.0099967e-08
6.9890528e-09
2.789157e-08
6.9300772e-09
2.5699747e-08
6.877324e-09
2.3522667e-08
6.8286608e-09
2.1358958e-08
6.7834177e-09
1.9207621e-08
6.7417913e-09
1.7067447e-08
6.7055799e-09
1.4937729e-08
6.6734026e-09
1.2816126e-08
6.6437965e-09
1.0701712e-08
6.6180313e-09
8.5944692e-09
6.5951385e-09
6.4963038e-09
6.5653014e-09
4.4220578e-09
6.4815201e-09
2.4414343e-09
6.1526287e-09
7.8738397e-10
5.0243766e-09
2.2194001e-09
3.5663347e-08
-1.7735535e-07
7.55892e-08
-1.9767796e-07
1.1589479e-07
-1.995392e-07
1.56312e-07
-2.0011241e-07
1.9684657e-07
-2.0071712e-07
2.3752836e-07
-2.0146746e-07
2.7838925e-07
-2.0237457e-07
3.1946123e-07
-2.0344065e-07
3.6077647e-07
-2.0466728e-07
4.0236742e-07
-2.0605619e-07
4.4426683e-07
-2.0760932e-07