/*--------------------------------*- C++ -*----------------------------------*\
| =========                 |                                                 |
| \\      /  F ield         | OpenFOAM: The Open Source CFD Toolbox           |
|  \\    /   O peration     | Version:  2306                                  |
|   \\  /    A nd           | Website:  www.openfoam.com                      |
|    \\/     M anipulation  |                                                 |
\*---------------------------------------------------------------------------*/
FoamFile
{
    version     2.0;
    format      ascii;
    arch        "LSB;label=32;scalar=64";
    class       surfaceScalarField;
    location    "0.22";
    object      phi_0;
}
// * * * * * * * * * * * * * * * * * * * * * * * * * * * * * * * * * * * * * //

dimensions      [0 3 -1 0 0 0 0];

oriented        oriented;

internalField   nonuniform List<scalar> 
12640
(
3.9769863e-06
2.8042367e-06
4.0388832e-06
2.6680756e-06
4.0937068e-06
2.5308835e-06
4.1417036e-06
2.3929784e-06
4.1831216e-06
2.254656e-06
4.2182096e-06
2.1161872e-06
4.2472165e-06
1.9778227e-06
4.2703884e-06
1.8397916e-06
4.2879697e-06
1.7023032e-06
4.3002007e-06
1.565549e-06
4.3073179e-06
1.4297024e-06
4.3095524e-06
1.2949198e-06
4.3071306e-06
1.1613424e-06
4.3002722e-06
1.0290974e-06
4.2891916e-06
8.9829737e-07
4.2740965e-06
7.6904233e-07
4.2551873e-06
6.4142072e-07
4.2326588e-06
5.1550992e-07
4.2066966e-06
3.9137657e-07
4.1774812e-06
2.6907718e-07
4.1451814e-06
1.4866038e-07
4.1099846e-06
3.014724e-08
4.0720276e-06
-8.6355641e-08
4.0314698e-06
-2.0089787e-07
3.9884569e-06
-3.134384e-07
3.9431275e-06
-4.2396105e-07
3.8956147e-06
-5.3245764e-07
3.8460441e-06
-6.3892288e-07
3.7945353e-06
-7.4335701e-07
3.7412024e-06
-8.4576359e-07
3.6861537e-06
-9.4614993e-07
3.6294906e-06
-1.0445266e-06
3.57131e-06
-1.1409071e-06
3.5117027e-06
-1.2353066e-06
3.4507548e-06
-1.3277427e-06
3.3885469e-06
-1.4182356e-06
3.3251559e-06
-1.5068064e-06
3.2606525e-06
-1.5934777e-06
3.1951034e-06
-1.6782728e-06
3.1285713e-06
-1.7612173e-06
3.0611147e-06
-1.8423359e-06
2.992788e-06
-1.9216561e-06
2.923642e-06
-1.9992027e-06
2.8537227e-06
-2.0750026e-06
2.7830744e-06
-2.1490834e-06
2.7117365e-06
-2.2214708e-06
2.6397455e-06
-2.2921924e-06
2.567136e-06
-2.3612746e-06
2.4939379e-06
-2.4287425e-06
2.420179e-06
-2.4946227e-06
2.3458855e-06
-2.55894e-06
2.2710793e-06
-2.6217182e-06
2.1957803e-06
-2.6829818e-06
2.1200069e-06
-2.7427535e-06
2.0437749e-06
-2.8010557e-06
1.967097e-06
-2.8579093e-06
1.8899853e-06
-2.9133339e-06
1.8124488e-06
-2.9673498e-06
1.7344963e-06
-3.0199748e-06
1.6561331e-06
-3.0712262e-06
1.5773635e-06
-3.1211197e-06
1.4981904e-06
-3.1696702e-06
1.4186152e-06
-3.2168908e-06
1.3386378e-06
-3.262794e-06
1.2582568e-06
-3.3073911e-06
1.1774696e-06
-3.350691e-06
1.0962726e-06
-3.3927027e-06
1.0146607e-06
-3.4334318e-06
9.3262815e-07
-3.4728848e-06
8.5016845e-07
-3.5110642e-06
7.6727284e-07
-3.5479729e-06
6.8393329e-07
-3.583612e-06
6.0014089e-07
-3.6179796e-06
5.1588508e-07
-3.6510745e-06
4.3115523e-07
-3.6828915e-06
3.4594075e-07
-3.7134283e-06
2.6022996e-07
-3.7426839e-06
1.7401004e-07
-3.7706712e-06
8.7270769e-08
-3.7974363e-06
-3.8230333e-06
3.8069037e-06
2.7342895e-06
3.8698431e-06
2.6051363e-06
3.9259894e-06
2.4747372e-06
3.9755622e-06
2.3434056e-06
4.0187851e-06
2.2114329e-06
4.0558839e-06
2.0790887e-06
4.0870847e-06
1.9466217e-06
4.1126136e-06
1.8142625e-06
4.1326954e-06
1.6822216e-06
4.1475522e-06
1.5506922e-06
4.1574041e-06
1.4198505e-06
4.1624664e-06
1.2898574e-06
4.1629505e-06
1.1608583e-06
4.1590633e-06
1.0329845e-06
4.1510065e-06
9.0635406e-07
4.1389765e-06
7.8107255e-07
4.1231631e-06
6.5723403e-07
4.1037512e-06
5.3492174e-07
4.0809192e-06
4.1420851e-07
4.0548389e-06
2.9515746e-07
4.0256761e-06
1.7782332e-07
3.9935873e-06
6.2235965e-08
3.9587405e-06
-5.1508761e-08
3.9212691e-06
-1.6342645e-07
3.8813163e-06
-2.7348546e-07
3.8390175e-06
-3.8166231e-07
3.7945016e-06
-4.8794179e-07
3.7478912e-06
-5.923128e-07
3.6993038e-06
-6.9476954e-07
3.6488504e-06
-7.9531026e-07
3.5966368e-06
-8.9393623e-07
3.5427628e-06
-9.9065273e-07
3.4873238e-06
-1.0854682e-06
3.4304099e-06
-1.1783926e-06
3.3721061e-06
-1.269439e-06
3.3124928e-06
-1.3586221e-06
3.2516456e-06
-1.4459593e-06
3.189635e-06
-1.5314669e-06
3.1265282e-06
-1.615166e-06
3.0623881e-06
-1.6970769e-06
2.9972728e-06
-1.777221e-06
2.9312375e-06
-1.8556206e-06
2.864333e-06
-1.9322984e-06
2.796607e-06
-2.0072764e-06
2.7281033e-06
-2.0805797e-06
2.6588633e-06
-2.1522308e-06
2.588924e-06
-2.2222532e-06
2.5183206e-06
-2.2906709e-06
2.4470851e-06
-2.357507e-06
2.375246e-06
-2.4227836e-06
2.3028297e-06
-2.4865238e-06
2.2298605e-06
-2.5487492e-06
2.1563603e-06
-2.6094812e-06
2.082347e-06
-2.6687406e-06
2.0078387e-06
-2.7265475e-06
1.9328497e-06
-2.7829201e-06
1.8573938e-06
-2.8378779e-06
1.7814813e-06
-2.8914373e-06
1.7051218e-06
-2.9436154e-06
1.6283231e-06
-2.9944273e-06
1.5510906e-06
-3.0438872e-06
1.473429e-06
-3.0920085e-06
1.3953409e-06
-3.1388031e-06
1.3168287e-06
-3.1842817e-06
1.2378925e-06
-3.2284548e-06
1.1585308e-06
-3.2713292e-06
1.0787417e-06
-3.3129136e-06
9.9852245e-07
-3.3532124e-06
9.1786826e-07
-3.3922306e-06
8.3677449e-07
-3.4299705e-06
7.5523526e-07
-3.4664336e-06
6.7324304e-07
-3.5016196e-06
5.9079107e-07
-3.5355278e-06
5.0787081e-07
-3.5681541e-06
4.2447396e-07
-3.5994943e-06
3.4059074e-07
-3.629545e-06
2.5621137e-07
-3.6583049e-06
1.7132646e-07
-3.6857864e-06
8.5925635e-08
-3.7120352e-06
-3.7371076e-06
3.6446619e-06
2.6639139e-06
3.7083351e-06
2.541463e-06
3.7654945e-06
2.4175777e-06
3.8163352e-06
2.2925648e-06
3.8610577e-06
2.1667105e-06
3.8998651e-06
2.0402813e-06
3.9329624e-06
1.9135242e-06
3.9605565e-06
1.7866684e-06
3.9828529e-06
1.6599251e-06
4.000057e-06
1.533488e-06
4.012372e-06
1.4075356e-06
4.0199982e-06
1.2822312e-06
4.0231329e-06
1.1577236e-06
4.0219697e-06
1.0341478e-06
4.016698e-06
9.1162564e-07
4.0075028e-06
7.9026775e-07
3.994564e-06
6.7017277e-07
3.9780565e-06
5.5142904e-07
3.9581508e-06
4.3411459e-07
3.935009e-06
3.1829898e-07
3.908792e-06
2.0404056e-07
3.8796398e-06
9.1388279e-08
3.8477311e-06
-1.9600127e-08
3.8131829e-06
-1.2887827e-07
3.7761358e-06
-2.3643835e-07
3.7367205e-06
-3.4224702e-07
3.695062e-06
-4.4628343e-07
3.6512801e-06
-5.4853087e-07
3.6054884e-06
-6.4897797e-07
3.5577956e-06
-7.4761749e-07
3.508305e-06
-8.4444547e-07
3.4571152e-06
-9.3946304e-07
3.4043192e-06
-1.0326721e-06
3.3500054e-06
-1.1240789e-06
3.2942585e-06
-1.213692e-06
3.2371571e-06
-1.301521e-06
3.1787761e-06
-1.3875782e-06
3.1191865e-06
-1.4718775e-06
3.0584548e-06
-1.5544345e-06
2.9966435e-06
-1.6352657e-06
2.9338113e-06
-1.7143888e-06
2.8700132e-06
-1.7918224e-06
2.8053003e-06
-1.8675855e-06
2.7397213e-06
-1.9416972e-06
2.67332e-06
-2.0141784e-06
2.6061385e-06
-2.0850492e-06
2.5382151e-06
-2.1543298e-06
2.4695855e-06
-2.2220412e-06
2.4002823e-06
-2.288204e-06
2.3303361e-06
-2.3528373e-06
2.2597737e-06
-2.4159613e-06
2.1886199e-06
-2.4775955e-06
2.1168981e-06
-2.5377595e-06
2.044629e-06
-2.5964713e-06
1.97183e-06
-2.6537485e-06
1.8985179e-06
-2.709608e-06
1.824707e-06
-2.7640669e-06
1.7504093e-06
-2.8171398e-06
1.6756363e-06
-2.8688423e-06
1.6003966e-06
-2.9191879e-06
1.5246978e-06
-2.9681884e-06
1.4485458e-06
-3.0158564e-06
1.3719451e-06
-3.0622021e-06
1.2948985e-06
-3.1072352e-06
1.2174079e-06
-3.1509643e-06
1.1394744e-06
-3.1933959e-06
1.0610969e-06
-3.2345363e-06
9.8227474e-07
-3.2743902e-06
9.0300482e-07
-3.3129606e-06
8.2328432e-07
-3.3502498e-06
7.4310811e-07
-3.3862574e-06
6.6247171e-07
-3.4209832e-06
5.8136894e-07
-3.4544249e-06
4.9979401e-07
-3.4865791e-06
4.1773917e-07
-3.5174396e-06
3.3519761e-07
-3.5470033e-06
2.5216059e-07
-3.575268e-06
1.6862079e-07
-3.6022466e-06
8.4569974e-08
-3.6279843e-06
-3.6525375e-06
3.4899616e-06
2.5933852e-06
3.5540891e-06
2.4773355e-06
3.6119801e-06
2.3596867e-06
3.6638071e-06
2.2407379e-06
3.7097478e-06
2.1207699e-06
3.7499846e-06
2.0000445e-06
3.7847032e-06
1.8788059e-06
3.8140904e-06
1.7572812e-06
3.838335e-06
1.6356805e-06
3.8576251e-06
1.514198e-06
3.872148e-06
1.3930126e-06
3.8820893e-06
1.27229e-06
3.8876328e-06
1.15218e-06
3.888959e-06
1.0328215e-06
3.8862456e-06
9.1433912e-07
3.8796657e-06
7.968474e-07
3.8693896e-06
6.8044893e-07
3.8555825e-06
5.6523621e-07
3.8384052e-06
4.5129196e-07
3.8180132e-06
3.3869128e-07
3.7945569e-06
2.2749655e-07
3.7681786e-06
1.177667e-07
3.7390439e-06
9.5346934e-09
3.7072572e-06
-9.70917e-08
3.6729644e-06
-2.0214538e-07
3.6362892e-06
-3.0557203e-07
3.5973521e-06
-4.0734625e-07
3.5562689e-06
-5.0744783e-07
3.5131501e-06
-6.0585914e-07
3.4681013e-06
-7.0256878e-07
3.4212237e-06
-7.9756805e-07
3.3726132e-06
-8.9085241e-07
3.3223613e-06
-9.8241995e-07
3.2705554e-06
-1.0722729e-06
3.2172772e-06
-1.1604137e-06
3.1626053e-06
-1.2468492e-06
3.1066141e-06
-1.331587e-06
3.0493727e-06
-1.4146363e-06
2.9909487e-06
-1.4960101e-06
2.9314026e-06
-1.57572e-06
2.8707945e-06
-1.6537806e-06
2.8091787e-06
-1.7302066e-06
2.7466066e-06
-1.8050132e-06
2.6831267e-06
-1.8782174e-06
2.6187842e-06
-1.9498358e-06
2.5536209e-06
-2.0198861e-06
2.4876765e-06
-2.0883855e-06
2.4209867e-06
-2.1553516e-06
2.353585e-06
-2.2208021e-06
2.2855024e-06
-2.2847548e-06
2.2167679e-06
-2.3472266e-06
2.1474074e-06
-2.4082352e-06
2.0774444e-06
-2.4677962e-06
2.0069001e-06
-2.525927e-06
1.9357945e-06
-2.5826425e-06
1.8641447e-06
-2.6379585e-06
1.7919666e-06
-2.6918886e-06
1.7192743e-06
-2.7444474e-06
1.6460789e-06
-2.795647e-06
1.5723915e-06
-2.8455005e-06
1.4982207e-06
-2.8940176e-06
1.4235742e-06
-2.9412098e-06
1.3484573e-06
-2.9870853e-06
1.2728752e-06
-3.0316531e-06
1.1968305e-06
-3.0749197e-06
1.1203262e-06
-3.1168919e-06
1.0433633e-06
-3.1575731e-06
9.6594122e-07
-3.1969684e-06
8.8805976e-07
-3.2350791e-06
8.0971652e-07
-3.2719065e-06
7.3090943e-07
-3.3074505e-06
6.5163467e-07
-3.3417086e-06
5.7188828e-07
-3.3746785e-06
4.9166511e-07
-3.406356e-06
4.1096058e-07
-3.4367349e-06
3.2976836e-07
-3.4658111e-06
2.4808265e-07
-3.493582e-06
1.6589676e-07
-3.5200609e-06
8.3204457e-08
-3.545292e-06
-3.5693331e-06
3.3425037e-06
2.5229507e-06
3.4068336e-06
2.4130055e-06
3.4652015e-06
2.3013189e-06
3.5177575e-06
2.188182e-06
3.5646591e-06
2.0738683e-06
3.6060689e-06
1.9586348e-06
3.6421531e-06
1.8427214e-06
3.6730818e-06
1.7263526e-06
3.6990259e-06
1.6097363e-06
3.7201574e-06
1.4930663e-06
3.7366488e-06
1.3765214e-06
3.7486715e-06
1.2602672e-06
3.7563954e-06
1.1444562e-06
3.759989e-06
1.029228e-06
3.7596179e-06
9.1471022e-07
3.7554449e-06
8.0102052e-07
3.7476295e-06
6.882643e-07
3.7363274e-06
5.765381e-07
3.7216906e-06
4.6592873e-07
3.703868e-06
3.5651388e-07
3.6830027e-06
2.4836197e-07
3.659233e-06
1.4153633e-07
3.6326962e-06
3.6071518e-08
3.6035262e-06
-6.7921698e-08
3.5718427e-06
-1.704617e-07
3.5377681e-06
-2.7149735e-07
3.501419e-06
-3.7099747e-07
3.4629077e-06
-4.6893637e-07
3.4223411e-06
-5.6529258e-07
3.3798222e-06
-6.6004976e-07
3.335449e-06
-7.5319487e-07
3.289315e-06
-8.4471845e-07
3.2415103e-06
-9.3461532e-07
3.1921191e-06
-1.0228817e-06
3.1412231e-06
-1.1095176e-06
3.0888989e-06
-1.1945251e-06
3.0352201e-06
-1.2779081e-06
2.9802553e-06
-1.3596716e-06
2.92407e-06
-1.439825e-06
2.8667265e-06
-1.5183764e-06
2.8082824e-06
-1.5953365e-06
2.7487931e-06
-1.6707172e-06
2.6883099e-06
-1.7445302e-06
2.6268811e-06
-1.8167887e-06
2.5645525e-06
-1.8875073e-06
2.5013666e-06
-1.9567002e-06
2.4373626e-06
-2.0243812e-06
2.3725769e-06
-2.0905662e-06
2.3070446e-06
-2.1552698e-06
2.2407971e-06
-2.2185073e-06
2.1738633e-06
-2.2802929e-06
2.1062707e-06
-2.3406425e-06
2.0380438e-06
-2.399569e-06
1.969205e-06
-2.4570881e-06
1.8997749e-06
-2.5132126e-06
1.8297719e-06
-2.5679555e-06
1.759213e-06
-2.62133e-06
1.6881132e-06
-2.6733477e-06
1.6164861e-06
-2.7240198e-06
1.5443423e-06
-2.7733568e-06
1.4716926e-06
-2.8213681e-06
1.3985455e-06
-2.8680627e-06
1.3249089e-06
-2.9134488e-06
1.2507879e-06
-2.9575322e-06
1.176188e-06
-3.0003197e-06
1.1011124e-06
-3.041816e-06
1.0255636e-06
-3.0820245e-06
9.4954339e-07
-3.1209482e-06
8.7305234e-07
-3.158588e-06
7.9608965e-07
-3.194944e-06
7.1865517e-07
-3.2300156e-06
6.4074628e-07
-3.2637998e-06
5.6236114e-07
-3.2962934e-06
4.8349604e-07
-3.3274904e-06
4.0414736e-07
-3.3573863e-06
3.243111e-07
-3.385975e-06
2.4398295e-07
-3.4132539e-06
1.6315827e-07
-3.4392357e-06
8.1832003e-08
-3.4639659e-06
-3.4875011e-06
3.2019916e-06
2.4528298e-06
3.2662983e-06
2.3486988e-06
3.3249121e-06
2.2427051e-06
3.3779636e-06
2.1351302e-06
3.425591e-06
2.0262409e-06
3.4679381e-06
1.9162877e-06
3.5051534e-06
1.8055062e-06
3.53739e-06
1.694116e-06
3.5648025e-06
1.5823238e-06
3.5875478e-06
1.470321e-06
3.6057837e-06
1.3582855e-06
3.6196678e-06
1.246383e-06
3.6293575e-06
1.1347665e-06
3.6350088e-06
1.0235765e-06
3.6367758e-06
9.1294338e-07
3.6348109e-06
8.0298534e-07
3.6292636e-06
6.9381166e-07
3.6202808e-06
5.8552105e-07
3.6080058e-06
4.782037e-07
3.5925791e-06
3.7194053e-07
3.5741367e-06
2.6680443e-07
3.5528122e-06
1.6286088e-07
3.5287226e-06
6.016117e-08
3.502019e-06
-4.1218008e-08
3.4728033e-06
-1.4124586e-07
3.4411936e-06
-2.3988776e-07
3.4073035e-06
-3.3710733e-07
3.3712404e-06
-4.3287322e-07
3.3331083e-06
-5.2716032e-07
3.2930065e-06
-6.1994783e-07
3.2510305e-06
-7.1121877e-07
3.2072724e-06
-8.0096044e-07
3.1618179e-06
-8.8916087e-07
3.1147512e-06
-9.7581495e-07
3.0661513e-06
-1.0609178e-06
3.0160939e-06
-1.1444675e-06
2.9646501e-06
-1.2264642e-06
2.9118896e-06
-1.306911e-06
2.8578755e-06
-1.3858111e-06
2.8026699e-06
-1.4631708e-06
2.7463306e-06
-1.5389971e-06
2.6889118e-06
-1.6132982e-06
2.630465e-06
-1.6860834e-06
2.5710386e-06
-1.7573624e-06
2.5106784e-06
-1.8271472e-06
2.4494267e-06
-1.8954485e-06
2.3873239e-06
-1.9622784e-06
2.3244064e-06
-2.0276487e-06
2.2607102e-06
-2.0915733e-06
2.1962663e-06
-2.1540634e-06
2.1311055e-06
-2.2151321e-06
2.065255e-06
-2.2747921e-06
1.9987409e-06
-2.3330549e-06
1.931586e-06
-2.3899332e-06
1.8638125e-06
-2.4454387e-06
1.7954393e-06
-2.4995825e-06
1.7264848e-06
-2.5523751e-06
1.6569643e-06
-2.6038272e-06
1.5868927e-06
-2.6539484e-06
1.5162825e-06
-2.7027467e-06
1.4451454e-06
-2.7502309e-06
1.3734911e-06
-2.7964083e-06
1.3013281e-06
-2.8412859e-06
1.2286643e-06
-2.8848682e-06
1.1555048e-06
-2.9271604e-06
1.0818552e-06
-2.9681665e-06
1.0077198e-06
-3.007889e-06
9.3310093e-07
-3.0463295e-06
8.5800067e-07
-3.0834877e-06
7.8242072e-07
-3.1193641e-06
7.0636061e-07
-3.1539557e-06
6.2982083e-07
-3.18726e-06
5.5279976e-07
-3.219272e-06
4.7529605e-07
-3.2499872e-06
3.973081e-07
-3.2793983e-06
3.1883302e-07
-3.3074998e-06
2.3986746e-07
-3.3342886e-06
1.6040906e-07
-3.3597775e-06
8.0454397e-08
-3.3840113e-06
-3.4070469e-06
3.0681322e-06
2.3832172e-06
3.1322136e-06
2.2846176e-06
3.1908663e-06
2.1840524e-06
3.2442022e-06
2.0817943e-06
3.2923413e-06
1.9781019e-06
3.3354101e-06
1.873219e-06
3.3735406e-06
1.7673756e-06
3.4068692e-06
1.6607873e-06
3.4355362e-06
1.5536569e-06
3.4596834e-06
1.4461737e-06
3.4794546e-06
1.3385142e-06
3.4949947e-06
1.230843e-06
3.5064483e-06
1.1233129e-06
3.5139594e-06
1.0160653e-06
3.5176718e-06
9.0923089e-07
3.5177274e-06
8.0292991e-07
3.5142657e-06
6.9727337e-07
3.5074243e-06
5.9236228e-07
3.4973387e-06
4.8828931e-07
3.4841409e-06
3.851383e-07
3.4679599e-06
2.8298561e-07
3.4489214e-06
1.8189936e-07
3.4271436e-06
8.1938897e-08
3.4027602e-06
-1.6834708e-08
3.3758728e-06
-1.1435852e-07
3.3465962e-06
-2.1061106e-07
3.3150381e-06
-3.0554953e-07
3.2813027e-06
-3.9913755e-07
3.2454898e-06
-4.9134758e-07
3.207696e-06
-5.8215404e-07
3.1680133e-06
-6.7153625e-07
3.1265307e-06
-7.5947748e-07
3.0833324e-06
-8.459628e-07
3.0385004e-06
-9.3098284e-07
2.9921114e-06
-1.0145288e-06
2.9442398e-06
-1.0965961e-06
2.8949562e-06
-1.1771808e-06
2.8443271e-06
-1.2562821e-06
2.7924169e-06
-1.3339008e-06
2.7392858e-06
-1.4100395e-06
2.6849907e-06
-1.484702e-06
2.6295856e-06
-1.5578932e-06
2.573122e-06
-1.6296198e-06
2.5156486e-06
-1.699889e-06
2.4572106e-06
-1.768709e-06
2.3978505e-06
-1.8360884e-06
2.3376086e-06
-1.9020361e-06
2.2765228e-06
-1.9665629e-06
2.2146272e-06
-2.0296779e-06
2.1519556e-06
-2.0913917e-06
2.0885383e-06
-2.1517148e-06
2.0244034e-06
-2.210657e-06
1.959577e-06
-2.2682289e-06
1.894084e-06
-2.3244403e-06
1.8279463e-06
-2.379301e-06
1.7611844e-06
-2.4328205e-06
1.693817e-06
-2.4850076e-06
1.6258612e-06
-2.5358714e-06
1.5573324e-06
-2.5854194e-06
1.4882442e-06
-2.6336585e-06
1.4186094e-06
-2.680596e-06
1.3484389e-06
-2.7262379e-06
1.277743e-06
-2.7705899e-06
1.2065294e-06
-2.8136547e-06
1.1348065e-06
-2.8554371e-06
1.0625796e-06
-2.8959395e-06
9.8985431e-07
-2.9351635e-06
9.166348e-07
-2.9731098e-06
8.4292459e-07
-3.0097776e-06
7.6872577e-07
-3.0451653e-06
6.9404083e-07
-3.0792708e-06
6.1887111e-07
-3.11209e-06
5.4321623e-07
-3.1436174e-06
4.6707663e-07
-3.1738478e-06
3.9045185e-07
-3.2027736e-06
3.133401e-07
-3.2303881e-06
2.3574065e-07
-3.2566894e-06
1.5765236e-07
-3.2816887e-06
7.9072507e-08
-3.3054316e-06
-3.3279743e-06
2.9406366e-06
2.3142843e-06
3.0043138e-06
2.2209404e-06
3.0628198e-06
2.1255463e-06
3.1162498e-06
2.0283645e-06
3.1647063e-06
1.9296452e-06
3.2083003e-06
1.829625e-06
3.2471481e-06
1.7285278e-06
3.2813708e-06
1.6265645e-06
3.3110943e-06
1.5239336e-06
3.3364467e-06
1.4208213e-06
3.3575585e-06
1.3174023e-06
3.3745621e-06
1.2138395e-06
3.3875901e-06
1.1102848e-06
3.3967758e-06
1.0068797e-06
3.4022516e-06
9.0375508e-07
3.4041495e-06
8.0103211e-07
3.4026e-06
6.9882285e-07
3.3977315e-06
5.972306e-07
3.3896717e-06
4.9634924e-07
3.3785444e-06
3.9626571e-07
3.3644716e-06
2.9705855e-07
3.3475715e-06
1.9879925e-07
3.327957e-06
1.0155321e-07
3.3057627e-06
5.3596334e-09
3.2810689e-06
-8.9664665e-08
3.2539974e-06
-1.8353957e-07
3.2246492e-06
-2.7620128e-07
3.1931247e-06
-3.6761317e-07
3.1595193e-06
-4.5774205e-07
3.1239257e-06
-5.4656061e-07
3.0864339e-06
-6.3404436e-07
3.0471296e-06
-7.2017313e-07
3.0060951e-06
-8.0492824e-07
2.963409e-06
-8.8829691e-07
2.9191474e-06
-9.7026724e-07
2.8733823e-06
-1.0508309e-06
2.8261828e-06
-1.1299811e-06
2.7776147e-06
-1.2077138e-06
2.7277405e-06
-1.2840265e-06
2.6766194e-06
-1.3589184e-06
2.6243088e-06
-1.4323912e-06
2.5708613e-06
-1.5044459e-06
2.5163286e-06
-1.5750871e-06
2.4607583e-06
-1.6443186e-06
2.4041957e-06
-1.7121463e-06
2.3466832e-06
-1.778576e-06
2.2882618e-06
-1.8436145e-06
2.2289687e-06
-1.9072698e-06
2.1688396e-06
-1.9695485e-06
2.1079073e-06
-2.0304594e-06
2.046203e-06
-2.0900106e-06
1.9837551e-06
-2.1482096e-06
1.9205917e-06
-2.2050655e-06
1.8567364e-06
-2.2605852e-06
1.7922128e-06
-2.3147777e-06
1.7270429e-06
-2.3676501e-06
1.6612451e-06
-2.41921e-06
1.5948376e-06
-2.4694641e-06
1.5278368e-06
-2.5184186e-06
1.4602579e-06
-2.5660794e-06
1.392114e-06
-2.6124523e-06
1.3234177e-06
-2.6575415e-06
1.2541793e-06
-2.7013517e-06
1.1844094e-06
-2.7438846e-06
1.1141156e-06
-2.7851435e-06
1.0433059e-06
-2.82513e-06
9.7198635e-07
-2.8638439e-06
9.0016299e-07
-2.9012863e-06
8.2784008e-07
-2.9374547e-06
7.5502175e-07
-2.9723471e-06
6.8171124e-07
-3.0059602e-06
6.0791033e-07
-3.0382894e-06
5.3362219e-07
-3.0693291e-06
4.5884709e-07
-3.0990728e-06
3.8358587e-07
-3.1275125e-06
3.0783987e-07
-3.1546419e-06
2.3160819e-07
-3.1804578e-06
1.5489133e-07
-3.204972e-06
7.7688814e-08
-3.2282287e-06
-3.2502855e-06
2.8192227e-06
2.2461805e-06
2.8823374e-06
2.1578259e-06
2.9405315e-06
2.0673521e-06
2.9938839e-06
1.975012e-06
3.0424829e-06
1.8810463e-06
3.0864233e-06
1.7856846e-06
3.1258074e-06
1.6891438e-06
3.1607423e-06
1.5916296e-06
3.19134e-06
1.4933359e-06
3.2177156e-06
1.3944458e-06
3.2399872e-06
1.2951307e-06
3.2582751e-06
1.1955516e-06
3.2727007e-06
1.0958593e-06
3.2833864e-06
9.9619414e-07
3.2904545e-06
8.9668696e-07
3.2940272e-06
7.9745935e-07
3.2942259e-06
6.9862419e-07
3.2911712e-06
6.0028552e-07
3.2849811e-06
5.0253918e-07
3.2757733e-06
4.054734e-07
3.2636623e-06
3.0916952e-07
3.2487607e-06
2.1370092e-07
3.231179e-06
1.1913507e-07
3.2110203e-06
2.5518298e-08
3.1884002e-06
-6.7044724e-08
3.1634126e-06
-1.5855201e-07
3.1361569e-06
-2.4894557e-07
3.1067294e-06
-3.3818564e-07
3.0752224e-06
-4.2623499e-07
3.0417256e-06
-5.1306384e-07
3.0063253e-06
-5.9864407e-07
2.9691035e-06
-6.8295147e-07
2.9301414e-06
-7.6596614e-07
2.889515e-06
-8.4767025e-07
2.847298e-06
-9.2805033e-07
2.8035613e-06
-1.0070942e-06
2.7583713e-06
-1.0847912e-06
2.7117934e-06
-1.1611358e-06
2.6638881e-06
-1.2361214e-06
2.6147149e-06
-1.3097453e-06
2.5643285e-06
-1.3820048e-06
2.5127825e-06
-1.4529001e-06
2.460127e-06
-1.5224314e-06
2.4064096e-06
-1.5906013e-06
2.3516755e-06
-1.657412e-06
2.295967e-06
-1.7228674e-06
2.2393249e-06
-1.7869723e-06
2.181786e-06
-1.8497308e-06
2.1233864e-06
-1.9111492e-06
2.06416e-06
-1.9712333e-06
2.0041377e-06
-2.029988e-06
1.9433489e-06
-2.0874207e-06
1.8818208e-06
-2.1435373e-06
1.8195793e-06
-2.1983436e-06
1.7566474e-06
-2.2518457e-06
1.6930476e-06
-2.3040502e-06
1.6288002e-06
-2.3549626e-06
1.5639241e-06
-2.4045878e-06
1.4984361e-06
-2.4529307e-06
1.4323522e-06
-2.4999953e-06
1.3656868e-06
-2.5457869e-06
1.2984534e-06
-2.5903078e-06
1.230663e-06
-2.633561e-06
1.1623269e-06
-2.6755487e-06
1.0934553e-06
-2.7162717e-06
1.0240556e-06
-2.7557304e-06
9.5413674e-07
-2.7939249e-06
8.8370439e-07
-2.8308541e-06
8.1276479e-07
-2.8665152e-06
7.4132349e-07
-2.9009059e-06
6.6938427e-07
-2.9340211e-06
5.9695123e-07
-2.9658564e-06
5.2402746e-07
-2.9964053e-06
4.506157e-07
-3.0256608e-06
3.7671821e-07
-3.053615e-06
3.023375e-07
-3.080261e-06
2.2747387e-07
-3.1055942e-06
1.5212905e-07
-3.129627e-06
7.6304057e-08
-3.1524043e-06
-3.1739812e-06
2.7036144e-06
2.179036e-06
2.7660273e-06
2.095413e-06
2.8237628e-06
2.0096166e-06
2.8768854e-06
1.9218893e-06
2.9254687e-06
1.832463e-06
2.9695941e-06
1.7415592e-06
3.0093499e-06
1.6493879e-06
3.0448303e-06
1.5561492e-06
3.0761344e-06
1.4620319e-06
3.1033649e-06
1.3672152e-06
3.1266286e-06
1.2718669e-06
3.1460343e-06
1.1761461e-06
3.1616922e-06
1.0802012e-06
3.1737148e-06
9.8417153e-07
3.1822145e-06
8.8818739e-07
3.1873043e-06
7.9236963e-07
3.1890967e-06
6.9683184e-07
3.1877035e-06
6.016785e-07
3.183236e-06
5.070068e-07
3.1758037e-06
4.1290571e-07
3.1655146e-06
3.1945868e-07
3.1524748e-06
2.2674075e-07
3.1367886e-06
1.3482114e-07
3.1185496e-06
4.37574e-08
3.0978771e-06
-4.6372008e-08
3.0748537e-06
-1.3552867e-07
3.0495759e-06
-2.2366766e-07
3.0221355e-06
-3.1074542e-07
2.9926215e-06
-3.9672111e-07
2.9611197e-06
-4.815619e-07
2.9277127e-06
-5.6523734e-07
2.8924815e-06
-6.4772031e-07
2.8555032e-06
-7.2898762e-07
2.8168515e-06
-8.0901861e-07
2.7765985e-06
-8.8779705e-07
2.7348122e-06
-9.6530802e-07
2.691559e-06
-1.0415378e-06
2.6469007e-06
-1.1164777e-06
2.600899e-06
-1.1901194e-06
2.5536099e-06
-1.2624561e-06
2.5050887e-06
-1.3334836e-06
2.4553878e-06
-1.4031991e-06
2.4045567e-06
-1.4716005e-06
2.3526425e-06
-1.5386872e-06
2.2996895e-06
-1.6044588e-06
2.2457404e-06
-1.6689184e-06
2.1908354e-06
-1.7320671e-06
2.1350123e-06
-1.7939079e-06
2.0783065e-06
-1.8544432e-06
2.0207514e-06
-1.9136783e-06
1.9623792e-06
-1.971616e-06
1.9032195e-06
-2.0282608e-06
1.8432997e-06
-2.0836177e-06
1.7826458e-06
-2.1376895e-06
1.7212822e-06
-2.190482e-06
1.6592314e-06
-2.2419997e-06
1.5965144e-06
-2.2922455e-06
1.5331508e-06
-2.3412241e-06
1.4691585e-06
-2.3889386e-06
1.4045545e-06
-2.4353911e-06
1.3393532e-06
-2.480586e-06
1.2735697e-06
-2.5245243e-06
1.2072159e-06
-2.5672073e-06
1.1403046e-06
-2.6086374e-06
1.0728451e-06
-2.6488123e-06
1.0048486e-06
-2.6877335e-06
9.3632247e-07
-2.7253991e-06
8.672752e-07
-2.7618067e-06
7.9771394e-07
-2.7969539e-06
7.2764435e-07
-2.8308362e-06
6.570731e-07
-2.8634498e-06
5.8600459e-07
-2.8947875e-06
5.1444276e-07
-2.9248437e-06
4.4239232e-07
-2.9536106e-06
3.6985701e-07
-2.9810795e-06
2.9683905e-07
-3.0072433e-06
2.2334266e-07
-3.0320975e-06
1.4936816e-07
-3.0556529e-06
7.4920086e-08
-3.0779559e-06
-3.0990611e-06
2.5935428e-06
2.1129627e-06
2.655133e-06
2.0338227e-06
2.7122809e-06
1.9524687e-06
2.7650379e-06
1.8691324e-06
2.8134642e-06
1.7840368e-06
2.8576285e-06
1.6973947e-06
2.8976065e-06
1.6094099e-06
2.9334806e-06
1.5202752e-06
2.965337e-06
1.4301754e-06
2.9932682e-06
1.3392841e-06
3.0173689e-06
1.2477664e-06
3.0377373e-06
1.1557776e-06
3.054474e-06
1.0634645e-06
3.0676809e-06
9.7096455e-07
3.0774617e-06
8.7840664e-07
3.08392e-06
7.8591134e-07
3.0871601e-06
6.9359168e-07
3.087286e-06
6.0155275e-07
3.0844007e-06
5.0989188e-07
3.078607e-06
4.1869952e-07
3.0700061e-06
3.2805971e-07
3.0586978e-06
2.3804895e-07
3.0447801e-06
1.4873875e-07
3.0283458e-06
6.0191579e-08
3.0094995e-06
-2.7525477e-08
2.9883259e-06
-1.1435496e-07
2.9649151e-06
-2.0025698e-07
2.9393555e-06
-2.8518566e-07
2.9117318e-06
-3.6909745e-07
2.8821263e-06
-4.5195654e-07
2.8506194e-06
-5.3373e-07
2.8172874e-06
-6.1438845e-07
2.7822056e-06
-6.9390567e-07
2.7454461e-06
-7.7225941e-07
2.7070776e-06
-8.494287e-07
2.6671668e-06
-9.253971e-07
2.6257774e-06
-1.0001487e-06
2.5829711e-06
-1.0736715e-06
2.5388064e-06
-1.1459547e-06
2.49334e-06
-1.2169898e-06
2.4466251e-06
-1.2867687e-06
2.3987135e-06
-1.3552874e-06
2.3496537e-06
-1.4225406e-06
2.2994921e-06
-1.4885258e-06
2.2482736e-06
-1.5532403e-06
2.1960398e-06
-1.6166845e-06
2.1428306e-06
-1.6788579e-06
2.0886833e-06
-1.7397606e-06
2.033634e-06
-1.7993941e-06
1.9777161e-06
-1.8577604e-06
1.9209616e-06
-1.9148615e-06
1.8634001e-06
-1.9706995e-06
1.8050602e-06
-2.0252778e-06
1.7459681e-06
-2.0785974e-06
1.6861481e-06
-2.130662e-06
1.6256236e-06
-2.1814751e-06
1.5644161e-06
-2.2310381e-06
1.502546e-06
-2.279354e-06
1.4400315e-06
-2.3264242e-06
1.3768907e-06
-2.3722501e-06
1.3131391e-06
-2.4168343e-06
1.2487919e-06
-2.4601768e-06
1.1838627e-06
-2.5022784e-06
1.1183633e-06
-2.543138e-06
1.0523068e-06
-2.5827556e-06
9.8570314e-07
-2.62113e-06
9.1856217e-07
-2.6582577e-06
8.5089249e-07
-2.694137e-06
7.8270252e-07
-2.7287639e-06
7.139994e-07
-2.7621333e-06
6.4479047e-07
-2.7942409e-06
5.7508118e-07
-2.8250783e-06
5.048779e-07
-2.8546404e-06
4.3418549e-07
-2.8829179e-06
3.6300836e-07
-2.9099029e-06
2.9135151e-07
-2.9355863e-06
2.1921806e-07
-2.959964e-06
1.4661304e-07
-2.9830479e-06
7.353888e-08
-3.0048818e-06
-3.0255221e-06
2.4887479e-06
2.0480553e-06
2.5494105e-06
1.9731601e-06
2.6058577e-06
1.8960217e-06
2.6581285e-06
1.8168615e-06
2.7062716e-06
1.7358938e-06
2.7503434e-06
1.6533227e-06
2.7904091e-06
1.5693444e-06
2.8265381e-06
1.4841462e-06
2.858807e-06
1.3979064e-06
2.8872966e-06
1.3107947e-06
2.9120913e-06
1.2229717e-06
2.9332796e-06
1.1345892e-06
2.9509521e-06
1.0457921e-06
2.9652013e-06
9.5671517e-07
2.9761223e-06
8.674857e-07
2.9838099e-06
7.782238e-07
2.9883603e-06
6.8904124e-07
2.9898699e-06
6.0004302e-07
2.988435e-06
5.1132694e-07
2.9841503e-06
4.2298424e-07
2.9771111e-06
3.3509868e-07
2.9674109e-06
2.4774936e-07
2.9551419e-06
1.6100772e-07
2.940394e-06
7.4939318e-08
2.9232617e-06
-1.0393193e-08
2.9038277e-06
-9.4920932e-08
2.8821786e-06
-1.7860783e-07
2.8583968e-06
-2.6140385e-07
2.8325645e-06
-3.4326511e-07
2.8047603e-06
-4.2415255e-07
2.7750611e-06
-5.0403087e-07
2.7435414e-06
-5.8286846e-07
2.7102719e-06
-6.606365e-07
2.6753232e-06
-7.3731028e-07
2.6387614e-06
-8.1286716e-07
2.6006513e-06
-8.8728694e-07
2.5610555e-06
-9.6055274e-07
2.5200332e-06
-1.0326491e-06
2.4776419e-06
-1.1035634e-06
2.4339367e-06
-1.1732846e-06
2.38897e-06
-1.2418021e-06
2.342792e-06
-1.3091095e-06
2.2954506e-06
-1.3751995e-06
2.2469924e-06
-1.4400673e-06
2.197461e-06
-1.5037088e-06
2.1468978e-06
-1.5661213e-06
2.0953417e-06
-1.6273018e-06
2.0428308e-06
-1.6872498e-06
1.9894008e-06
-1.745964e-06
1.935085e-06
-1.8034448e-06
1.8799152e-06
-1.8596915e-06
1.8239216e-06
-1.9147061e-06
1.7671324e-06
-1.9684886e-06
1.7095747e-06
-2.0210398e-06
1.6512736e-06
-2.0723609e-06
1.5922518e-06
-2.1224533e-06
1.5325322e-06
-2.1713184e-06
1.4721352e-06
-2.218957e-06
1.4110801e-06
-2.265369e-06
1.3493852e-06
-2.3105552e-06
1.2870668e-06
-2.3545162e-06
1.224141e-06
-2.3972511e-06
1.1606222e-06
-2.4387597e-06
1.0965241e-06
-2.4790397e-06
1.0318586e-06
-2.5180904e-06
9.666378e-07
-2.5559088e-06
9.008723e-07
-2.5924923e-06
8.3457123e-07
-2.6278362e-06
7.6774471e-07
-2.6619374e-06
7.0040134e-07
-2.6947901e-06
6.3254815e-07
-2.7263876e-06
5.6419306e-07
-2.7567233e-06
4.9534219e-07
-2.7857896e-06
4.2600221e-07
-2.8135779e-06
3.5617885e-07
-2.8400792e-06
2.8587802e-07
-2.8652855e-06
2.1510481e-07
-2.8891909e-06
1.4386407e-07
-2.9118071e-06
7.216118e-08
-2.9331789e-06
-2.953361e-06
2.3889768e-06
1.9843947e-06
2.4486223e-06
1.9135146e-06
2.5042705e-06
1.8403736e-06
2.5559496e-06
1.7651823e-06
2.6036977e-06
1.6881459e-06
2.6475602e-06
1.60946e-06
2.6875911e-06
1.5293134e-06
2.7238503e-06
1.4478871e-06
2.7564032e-06
1.3653534e-06
2.7853209e-06
1.2818768e-06
2.8106785e-06
1.1976141e-06
2.8325541e-06
1.1127136e-06
2.8510296e-06
1.0273165e-06
2.8661893e-06
9.4155546e-07
2.8781189e-06
8.5555617e-07
2.8869055e-06
7.694373e-07
2.8926375e-06
6.8330926e-07
2.8954039e-06
5.9727674e-07
2.8952936e-06
5.1143707e-07
2.8923957e-06
4.2588209e-07
2.8867981e-06
3.4069637e-07
2.8785891e-06
2.5595855e-07
2.8678546e-06
1.7174198e-07
2.8546793e-06
8.8114824e-08
2.8391548e-06
5.1314465e-09
2.8213548e-06
-7.712108e-08
2.8013643e-06
-1.5861724e-07
2.7792626e-06
-2.3930222e-07
2.7551266e-06
-3.1912911e-07
2.7290321e-06
-3.9805803e-07
2.7010521e-06
-4.7605087e-07
2.6712581e-06
-5.5307435e-07
2.6397191e-06
-6.2909752e-07
2.6065018e-06
-7.0409295e-07
2.5716713e-06
-7.7803646e-07
2.5352897e-06
-8.5090552e-07
2.4974176e-06
-9.2268058e-07
2.4581131e-06
-9.9334466e-07
2.4174317e-06
-1.062882e-06
2.3754272e-06
-1.1312801e-06
2.3321508e-06
-1.1985257e-06
2.2876519e-06
-1.2646106e-06
2.2419775e-06
-1.3295253e-06
2.195173e-06
-1.3932629e-06
2.1472814e-06
-1.4558174e-06
2.0983438e-06
-1.5171836e-06
2.0483996e-06
-1.5773577e-06
1.9974856e-06
-1.6363358e-06
1.9456369e-06
-1.6941153e-06
1.8928875e-06
-1.7506954e-06
1.8392694e-06
-1.8060735e-06
1.7848125e-06
-1.8602488e-06
1.7295448e-06
-1.9132209e-06
1.6734939e-06
-1.9649887e-06
1.6166853e-06
-2.015552e-06
1.5591423e-06
-2.0649107e-06
1.5008881e-06
-2.1130641e-06
1.4419433e-06
-2.1600124e-06
1.3823282e-06
-2.2057539e-06
1.3220605e-06
-2.250288e-06
1.2611587e-06
-2.2936148e-06
1.1996391e-06
-2.3357314e-06
1.1375163e-06
-2.3766365e-06
1.0748051e-06
-2.4163286e-06
1.0115184e-06
-2.4548038e-06
9.4766857e-07
-2.492059e-06
8.8326768e-07