/*--------------------------------*- C++ -*----------------------------------*\
| =========                 |                                                 |
| \\      /  F ield         | OpenFOAM: The Open Source CFD Toolbox           |
|  \\    /   O peration     | Version:  2306                                  |
|   \\  /    A nd           | Website:  www.openfoam.com                      |
|    \\/     M anipulation  |                                                 |
\*---------------------------------------------------------------------------*/
FoamFile
{
    version     2.0;
    format      ascii;
    arch        "LSB;label=32;scalar=64";
    class       volVectorField;
    location    "0.22";
    object      U_0;
}
// * * * * * * * * * * * * * * * * * * * * * * * * * * * * * * * * * * * * * //

dimensions      [0 1 -1 0 0 0 0];

internalField   nonuniform List<vector> 
6400
(
(0.0015677991 0.0011286074 1.5705515e-19)
(0.0015742686 0.001059885 3.7629089e-20)
(0.0015777914 0.00099247328 -2.1694115e-20)
(0.001578567 0.00092644814 4.5632317e-20)
(0.0015767866 0.0008618726 -4.0610533e-20)
(0.0015726329 0.00079879769 5.7064366e-20)
(0.0015662803 0.00073726391 1.4232286e-20)
(0.0015578949 0.00067730215 5.6862975e-20)
(0.0015476342 0.00061893442 4.3491615e-20)
(0.0015356478 0.00056217512 3.2349463e-20)
(0.0015220771 0.00050703162 6.7399515e-21)
(0.0015070559 0.00045350494 7.116468e-20)
(0.0014907103 0.00040159072 2.3655095e-20)
(0.0014731593 0.00035127963 -3.2407637e-20)
(0.0014545146 0.00030255808 -2.2518518e-20)
(0.0014348811 0.00025540864 1.6367126e-20)
(0.0014143574 0.00020981073 3.5387e-21)
(0.0013930357 0.00016574091 3.4957053e-20)
(0.0013710021 0.00012317338 -1.8097869e-20)
(0.0013483366 8.2080068e-05 -1.8419016e-20)
(0.0013251138 4.2431947e-05 1.2563198e-20)
(0.0013014066 4.1993403e-06 -2.1613963e-20)
(0.0012772797 -3.2654296e-05 8.5539353e-21)
(0.0012527911 -6.8158746e-05 -1.3434809e-20)
(0.0012279973 -0.00010234777 -2.0898739e-20)
(0.0012029505 -0.00013525557 1.5010658e-20)
(0.0011776986 -0.0001669167 7.9869569e-21)
(0.0011522858 -0.00019736549 1.5554616e-20)
(0.0011267526 -0.00022663636 6.7237291e-21)
(0.0011011366 -0.00025476359 -1.6027614e-20)
(0.0010754721 -0.00028178107 -4.8414665e-22)
(0.0010497905 -0.00030772266 4.3137285e-20)
(0.0010241205 -0.00033262153 4.5919746e-20)
(0.00099848807 -0.0003565104 -4.3679119e-21)
(0.0009729171 -0.00037942124 -1.2419317e-20)
(0.000947429 -0.00040138579 4.101081e-21)
(0.00092204326 -0.00042243481 2.527296e-21)
(0.00089677734 -0.00044259856 2.2830505e-20)
(0.00087164676 -0.00046190633 4.1417562e-21)
(0.00084666542 -0.00048038695 -3.2893021e-20)
(0.00082184571 -0.0004980683 -5.6764479e-21)
(0.00079719845 -0.00051497751 2.0692933e-20)
(0.00077273318 -0.00053114084 9.2665228e-21)
(0.00074845799 -0.0005465837 1.2944641e-21)
(0.0007243799 -0.00056133091 -8.3164983e-21)
(0.00070050486 -0.00057540629 -4.335526e-21)
(0.00067683764 -0.00058883301 1.891318e-20)
(0.00065338226 -0.00060163327 2.452514e-20)
(0.00063014181 -0.00061382849 -1.3416221e-20)
(0.00060711842 -0.00062543956 -1.051638e-20)
(0.00058431371 -0.00063648615 -1.6166531e-21)
(0.00056172853 -0.00064698741 -2.3086278e-22)
(0.00053936298 -0.00065696195 1.850772e-20)
(0.00051721669 -0.00066642712 1.4431077e-20)
(0.00049528883 -0.00067540002 -8.7006752e-21)
(0.00047357792 -0.00068389667 -1.0721861e-22)
(0.00045208208 -0.00069193245 7.1086201e-21)
(0.00043079909 -0.00069952228 1.1147421e-20)
(0.00040972639 -0.00070668015 -5.2232854e-22)
(0.00038886106 -0.00071341952 -1.7779911e-20)
(0.00036819976 -0.00071975318 -1.3538462e-21)
(0.00034773898 -0.00072569313 1.583583e-21)
(0.00032747498 -0.00073125087 8.8781081e-21)
(0.00030740378 -0.00073643729 2.7687204e-21)
(0.0002875212 -0.00074126275 -6.0890262e-21)
(0.00026782293 -0.0007457368 -1.602505e-21)
(0.00024830449 -0.00074986866 5.1171254e-23)
(0.00022896129 -0.00075366677 9.2799787e-21)
(0.0002097886 -0.00075713921 4.4104538e-21)
(0.00019078171 -0.00076029325 -8.3589581e-21)
(0.00017193567 -0.000763136 6.8485153e-21)
(0.00015324553 -0.0007656738 4.3611737e-21)
(0.00013470644 -0.00076791245 -3.2637139e-23)
(0.00011631339 -0.00076985752 1.3864637e-21)
(9.8061366e-05 -0.00077151379 4.4269822e-21)
(7.9945841e-05 -0.00077288633 1.0902695e-20)
(6.1962312e-05 -0.00077398051 -1.9811865e-21)
(4.4099545e-05 -0.00077480424 -5.0119152e-21)
(2.6339801e-05 -0.00077537183 -7.3172149e-21)
(8.7194131e-06 -0.00077569975 -1.2554229e-20)
(0.0015000231 0.0011009194 1.7198769e-20)
(0.0015076758 0.0010353486 2.3826177e-20)
(0.0015124669 0.00097092377 1.3344578e-20)
(0.0015145824 0.00090772471 -8.6867307e-20)
(0.0015142014 0.0008458192 -9.1242493e-20)
(0.0015114956 0.00078526311 -4.9782471e-21)
(0.0015066293 0.00072610211 -1.4457319e-20)
(0.0014997593 0.00066837255 2.4157029e-20)
(0.001491035 0.00061210188 -4.4398801e-20)
(0.0014805987 0.00055731006 -1.3356172e-20)
(0.0014685851 0.00050400998 3.8900971e-21)
(0.0014551222 0.00045220828 4.923288e-20)
(0.0014403308 0.00040190607 -9.5400296e-21)
(0.0014243252 0.00035309946 -9.189251e-20)
(0.001407213 0.00030578018 -3.3865508e-20)
(0.0013890956 0.00025993598 6.5964238e-21)
(0.0013700684 0.00021555137 -1.4811076e-21)
(0.0013502209 0.00017260787 -8.2585378e-21)
(0.0013296371 0.00013108439 -4.722451e-20)
(0.0013083953 9.0957554e-05 -9.7528116e-21)
(0.0012865689 5.220286e-05 5.5587376e-21)
(0.001264226 1.4794245e-05 -4.7036989e-21)
(0.0012414327 -2.1300622e-05 4.5597364e-21)
(0.0012182484 -5.6106953e-05 -1.2934837e-20)
(0.0011947265 -8.9655078e-05 -8.8912076e-21)
(0.0011709189 -0.00012197562 1.0192323e-20)
(0.0011468734 -0.00015309983 -1.2291064e-21)
(0.0011226341 -0.00018305867 8.0173631e-21)
(0.0010982416 -0.00021188359 -3.6509833e-21)
(0.0010737336 -0.00023960591 1.1386843e-20)
(0.0010491445 -0.00026625678 2.6824384e-20)
(0.0010245061 -0.0002918673 2.1421176e-20)
(0.00099984731 -0.00031646832 2.2667039e-20)
(0.00097519492 -0.00034009006 -2.6558149e-21)
(0.00095057317 -0.00036276243 -4.7754807e-21)
(0.00092600415 -0.00038451492 4.0734657e-21)
(0.00090150794 -0.00040537651 2.9737379e-21)
(0.00087710255 -0.00042537523 8.8173373e-21)
(0.00085280424 -0.00044453889 -9.4100286e-21)
(0.00082862776 -0.0004628946 -1.2040518e-20)
(0.00080458611 -0.00048046859 2.4258782e-21)
(0.00078069086 -0.00049728669 9.8967129e-21)
(0.00075695229 -0.00051337366 7.182993e-21)
(0.00073337931 -0.00052875355 4.603633e-21)
(0.0007099797 -0.00054345018 3.7996344e-21)
(0.00068676015 -0.00055748601 7.4902864e-21)
(0.00066372632 -0.0005708832 1.6174437e-20)
(0.00064088288 -0.00058366304 1.7971221e-20)
(0.00061823373 -0.000595846 7.6248534e-21)
(0.00059578184 -0.0006074519 7.2774534e-21)
(0.00057352942 -0.00061849987 -2.5290072e-23)
(0.00055147808 -0.00062900816 -8.5538003e-21)
(0.0005296288 -0.00063899453 5.7212646e-21)
(0.00050798183 -0.00064847593 1.4084082e-20)
(0.00048653693 -0.00065746866 1.0373293e-20)
(0.00046529344 -0.00066598818 1.5341904e-20)
(0.00044425024 -0.00067404945 9.1465395e-21)
(0.00042340575 -0.00068166674 1.7682963e-20)
(0.00040275796 -0.00068885371 4.6555835e-21)
(0.00038230463 -0.0006956233 -1.7666485e-21)
(0.00036204309 -0.00070198786 6.3291217e-21)
(0.00034197041 -0.00070795916 -4.1426779e-21)
(0.00032208347 -0.00071354829 6.8928705e-21)
(0.00030237891 -0.00071876583 1.0023566e-20)
(0.00028285322 -0.00072362189 7.8976821e-21)
(0.00026350255 -0.00072812565 1.2499059e-21)
(0.00024432295 -0.00073228628 -2.0781814e-21)
(0.00022531042 -0.00073611184 4.4468105e-21)
(0.00020646079 -0.0007396103 1.4370807e-24)
(0.00018776976 -0.00074278879 5.058128e-21)
(0.00016923306 -0.00074565411 7.9117992e-21)
(0.0001508462 -0.00074821257 3.0750603e-21)
(0.00013260474 -0.00075046992 6.9424626e-21)
(0.00011450421 -0.0007524315 3.2598842e-21)
(9.6540156e-05 -0.00075410207 6.35136e-21)
(7.8708445e-05 -0.00075548667 5.2501628e-21)
(6.100494e-05 -0.00075659055 2.2622568e-21)
(4.3419106e-05 -0.0007574216 5.3745998e-21)
(2.5933795e-05 -0.00075799429 2.234789e-21)
(8.5850651e-06 -0.00075832527 -9.1415533e-21)
(0.0014354243 0.0010730027 3.6883355e-20)
(0.0014441003 0.001010466 -1.2186427e-20)
(0.0014500031 0.00094892351 -5.7525704e-20)
(0.0014533058 0.00088845844 -5.1408662e-20)
(0.0014541759 0.00082914201 -3.3505742e-20)
(0.0014527743 0.00077103434 -3.7201105e-20)
(0.0014492554 0.00071418527 -5.3236957e-20)
(0.001443767 0.00065863585 -6.1586854e-20)
(0.0014364506 0.00060441829 -5.5467726e-20)
(0.0014274409 0.00055155727 -5.1361277e-21)
(0.0014168663 0.00050007054 4.1030285e-21)
(0.0014048487 0.00044996987 -3.836127e-20)
(0.0013915037 0.00040126127 -1.1843597e-19)
(0.0013769408 0.00035394565 -8.7019786e-20)
(0.0013612635 0.00030801956 2.8380016e-20)
(0.0013445695 0.00026347558 6.2493752e-21)
(0.001326951 0.00022030279 -4.2879337e-20)
(0.0013084945 0.00017848724 -6.0550741e-20)
(0.0012892818 0.00013801218 -5.2896236e-20)
(0.0012693893 9.8858716e-05 2.6661285e-21)
(0.001248888 6.1005817e-05 1.055183e-20)
(0.0012278439 2.4430904e-05 -2.4162466e-20)
(0.001206323 -1.0891042e-05 -4.1711883e-20)
(0.001184384 -4.4984106e-05 -3.1553799e-21)
(0.001162079 -7.787565e-05 -3.6328645e-21)
(0.001139459 -0.00010959244 8.9421446e-22)
(0.0011165714 -0.00014016236 -2.4391739e-20)
(0.0010934603 -0.00016961334 -3.4825874e-20)
(0.0010701661 -0.00019797378 -1.8531486e-20)
(0.0010467264 -0.00022527227 1.2776707e-20)
(0.0010231758 -0.00025153721 1.6578328e-20)
(0.00099954621 -0.00027679733 -2.0760236e-20)
(0.00097586695 -0.00030108088 -1.8993811e-20)
(0.00095216492 -0.00032441595 5.0136414e-21)
(0.00092846489 -0.00034683042 4.0047863e-21)
(0.00090478941 -0.0003683515 -2.0843539e-20)
(0.00088115892 -0.00038900632 -3.5875662e-20)
(0.00085759213 -0.00040882105 -7.6772686e-21)
(0.00083410597 -0.00042782194 -9.2887267e-21)
(0.00081071569 -0.00044603433 -1.646642e-20)
(0.00078743497 -0.00046348302 9.6736354e-21)
(0.00076427606 -0.00048019225 -6.1331672e-21)
(0.00074124983 -0.0004961856 -1.0351107e-20)
(0.00071836599 -0.00051148574 3.6056513e-21)
(0.00069563297 -0.0005261153 -2.2052336e-21)
(0.0006730581 -0.00054009571 -7.0034805e-22)
(0.00065064781 -0.00055344792 -5.3692368e-21)
(0.0006284075 -0.00056619235 -1.2103837e-20)
(0.00060634169 -0.0005783486 2.9738335e-21)
(0.00058445414 -0.0005899354 1.8497352e-20)
(0.00056274778 -0.00060097115 6.2509971e-21)
(0.00054122476 -0.00061147341 -1.6752467e-20)
(0.00051988673 -0.0006214592 -1.2700363e-20)
(0.00049873481 -0.00063094481 2.4979453e-22)
(0.00047776939 -0.00063994584 3.948424e-21)
(0.00045699036 -0.00064847719 1.0494168e-20)
(0.00043639725 -0.00065655345 -3.4851102e-22)
(0.00041598907 -0.00066418816 4.7999902e-21)
(0.00039576454 -0.00067139467 -1.7265825e-21)
(0.000375722 -0.00067818545 -2.0546799e-21)
(0.00035585941 -0.00068457234 8.2795749e-21)
(0.00033617447 -0.00069056687 -9.9675907e-21)
(0.00031666459 -0.00069617976 1.442995e-21)
(0.00029732695 -0.00070142125 1.8952955e-21)
(0.00027815847 -0.00070630117 2.0402018e-21)
(0.00025915598 -0.00071082845 1.2329884e-21)
(0.00024031609 -0.00071501194 -7.0345599e-21)
(0.00022163531 -0.00071885962 -2.1301361e-21)
(0.00020311 -0.00072237914 -1.8305128e-21)
(0.0001847364 -0.00072557756 1.3917241e-21)
(0.00016651066 -0.00072846141 1.7664325e-21)
(0.00014842882 -0.00073103686 -3.6535524e-21)
(0.00013048692 -0.00073330967 2.0822044e-21)
(0.00011268096 -0.00073528497 -3.1960118e-21)
(9.5006912e-05 -0.00073696744 -3.222754e-21)
(7.7461104e-05 -0.00073836209 -2.8446378e-21)
(6.0039855e-05 -0.00073947408 1.3088589e-21)
(4.2733143e-05 -0.00074031132 1.5848887e-22)
(2.5524499e-05 -0.00074088823 -1.7238083e-21)
(8.4496637e-06 -0.00074122175 -3.0728279e-21)
(0.0013738778 0.0010449729 7.9932954e-20)
(0.0013834305 0.00098535238 -2.5869273e-20)
(0.0013903008 0.00092658701 -2.5799725e-20)
(0.0013946498 0.00086876225 1.103399e-20)
(0.0013966333 0.00081195213 3.211534e-20)
(0.0013964019 0.00075622001 -3.254374e-20)
(0.0013941005 0.00070161942 -6.5017764e-20)
(0.0013898683 0.00064819512 -5.8579146e-20)
(0.0013838386 0.00059598345 -2.6731156e-21)
(0.0013761392 0.00054501319 -1.7359318e-20)
(0.0013668917 0.00049530645 -3.9947669e-20)
(0.0013562122 0.0004468794 -4.7268644e-20)
(0.001344211 0.00039974228 -9.2011734e-21)
(0.001330993 0.0003539006 -4.4618076e-21)
(0.0013166573 0.00030935507 -3.3729859e-21)
(0.0013012978 0.00026610273 -6.5803144e-21)
(0.0012850034 0.00022413682 1.2880526e-21)
(0.0012678578 0.00018344748 2.2558633e-20)
(0.00124994 0.00014402206 -8.6295351e-21)
(0.0012313241 0.0001058458 1.5038131e-20)
(0.0012120795 6.8900864e-05 -1.4120667e-20)
(0.0011922708 3.3168967e-05 -1.8219529e-20)
(0.0011719629 -1.3695043e-06 7.1975156e-21)
(0.0011512121 -3.4739678e-05 -1.3444878e-22)
(0.0011300692 -6.6962546e-05 -2.8735615e-21)
(0.001108586 -9.8061938e-05 -9.4599925e-21)
(0.001086809 -0.00012806283 -2.5357685e-20)
(0.0010647816 -0.00015699048 -2.9861105e-21)
(0.0010425439 -0.00018487029 5.7112855e-21)
(0.0010201335 -0.00021172824 1.602894e-20)
(0.00099758471 -0.00023759024 2.8648453e-20)
(0.00097492972 -0.00026248257 -9.381544e-21)
(0.00095219795 -0.00028643108 -1.3963628e-20)
(0.00092941663 -0.00030946191 6.4551111e-21)
(0.00090661066 -0.00033160063 4.1745938e-21)
(0.00088380291 -0.00035287264 4.547028e-21)
(0.0008610144 -0.00037330303 -1.654288e-20)
(0.00083826417 -0.00039291639 -3.4402997e-21)
(0.00081556969 -0.00041173726 -9.6180556e-21)
(0.00079294672 -0.0004297893 -2.5465977e-21)
(0.00077040947 -0.00044709591 1.0228756e-20)
(0.00074797088 -0.00046367989 -1.9184436e-21)
(0.00072564231 -0.00047956342 1.0517175e-20)
(0.00070343406 -0.00049476814 2.5146651e-21)
(0.00068135522 -0.00050931524 6.5146213e-21)
(0.00065941381 -0.00052322525 3.2087132e-21)
(0.00063761687 -0.00053651802 -4.5614193e-21)
(0.00061597043 -0.0005492129 -5.5015314e-21)
(0.0005944796 -0.0005613286 -5.2954214e-21)
(0.00057314873 -0.00057288312 2.3950581e-20)
(0.0005519815 -0.00058389387 1.8764409e-20)
(0.00053098085 -0.00059437782 -5.9213081e-22)
(0.00051014897 -0.00060435112 6.2329575e-21)
(0.00048948739 -0.00061382949 1.2149945e-21)
(0.00046899724 -0.00062282784 2.2719004e-21)
(0.00044867907 -0.00063136064 2.4890803e-21)
(0.000428533 -0.00063944174 -2.0883878e-21)
(0.00040855874 -0.00064708437 7.9625569e-21)
(0.00038875547 -0.00065430125 -5.6722838e-22)
(0.00036912206 -0.00066110457 1.7936624e-22)
(0.00034965712 -0.0006675056 5.9001324e-21)
(0.00033035891 -0.00067351561 -4.1149084e-21)
(0.00031122539 -0.00067914488 1.1399913e-20)
(0.00029225429 -0.00068440346 1.0963148e-20)
(0.00027344307 -0.00068930073 1.703209e-21)
(0.00025478905 -0.00069384558 -2.1737692e-21)
(0.00023628947 -0.00069804631 -5.7814436e-21)
(0.00021794121 -0.00070191096 7.6856698e-21)
(0.00019974113 -0.00070544679 3.5563846e-21)
(0.00018168597 -0.00070866077 6.3066605e-22)
(0.00016377238 -0.00071155927 2.8337776e-21)
(0.00014599691 -0.00071414826 9.6168898e-22)
(0.00012835604 -0.00071643335 4.220438e-21)
(0.00011084616 -0.00071841967 6.6396189e-21)
(9.3463724e-05 -0.00072011175 -2.1587677e-21)
(7.6205519e-05 -0.0007215145 -2.105058e-21)
(5.9068296e-05 -0.00072263301 6.5461645e-21)
(4.2042546e-05 -0.00072347531 6.2001021e-21)
(2.5112342e-05 -0.00072405569 -6.6596471e-21)
(8.3132725e-06 -0.00072439129 -4.3074762e-21)
(0.0013152591 0.0010169336 1.7055588e-19)
(0.0013255545 0.00096011197 8.4389413e-20)
(0.0013332601 0.00090401819 -2.4726611e-20)
(0.0013385252 0.00084873931 6.6963417e-20)
(0.0013414947 0.00079435139 8.5020506e-20)
(0.0013423092 0.00074092034 2.2452502e-20)
(0.0013411042 0.00068850262 3.0876054e-20)
(0.0013380107 0.0006371461 -1.7151946e-21)
(0.0013331542 0.00058689046 4.8834991e-20)
(0.0013266553 0.00053776822 2.810588e-20)
(0.0013186293 0.00048980514 1.4319509e-20)
(0.0013091865 0.00044302117 6.1575722e-20)
(0.0012984318 0.00039743046 4.7577863e-20)
(0.0012864653 0.00035304243 2.3858482e-20)
(0.001273382 0.00030986168 3.5375337e-21)
(0.001259272 0.00026788922 2.1580532e-20)
(0.0012442208 0.00022712205 9.0321231e-20)
(0.0012283089 0.00018755416 4.2673948e-20)
(0.0012116127 0.00014917665 -2.7428625e-20)
(0.0011942041 0.00011197829 1.3347945e-20)
(0.0011761508 7.5944883e-05 -2.7974396e-21)
(0.0011575161 4.1061932e-05 1.2790571e-20)
(0.0011383603 7.312819e-06 3.3768686e-20)
(0.0011187404 -2.5326052e-05 -7.4257977e-21)
(0.0010987086 -5.6870275e-05 4.8416361e-21)
(0.001078313 -8.7341109e-05 -3.9491394e-21)
(0.0010576 -0.00011676078 9.2523477e-21)
(0.0010366123 -0.0001451519 7.8418051e-21)
(0.0010153901 -0.00017253717 -2.1287404e-21)
(0.00099397021 -0.00019894009 7.2523164e-21)
(0.00097238724 -0.00022438418 1.0436931e-21)
(0.00095067303 -0.00024889322 1.5740825e-20)
(0.00092885716 -0.00027249113 2.8750504e-20)
(0.00090696686 -0.00029520175 1.3130872e-20)
(0.00088502726 -0.00031704868 5.0724398e-21)
(0.00086306159 -0.00033805552 1.4815611e-21)
(0.00084109109 -0.00035824553 8.6282601e-21)
(0.00081913527 -0.00037764149 2.6171107e-20)
(0.00079721185 -0.00039626644 -6.2629243e-21)
(0.0007753371 -0.00041414246 6.9992967e-21)
(0.00075352571 -0.0004312915 1.2281578e-20)
(0.00073179101 -0.00044773499 9.1846968e-22)
(0.00071014505 -0.00046349376 1.4896601e-20)
(0.00068859856 -0.0004785883 6.7433545e-21)
(0.00066716122 -0.00049303866 2.9844488e-21)
(0.00064584166 -0.00050686427 -1.0528012e-21)
(0.00062464744 -0.00052008388 7.3805417e-21)
(0.00060358508 -0.00053271593 1.7715536e-20)
(0.0005826604 -0.00054477818 -3.6180993e-21)
(0.0005618784 -0.0005562879 6.534215e-21)
(0.00054124322 -0.0005672616 2.9433049e-21)
(0.00052075834 -0.00057771558 -3.1577406e-21)
(0.00050042663 -0.00058766509 2.34452e-20)
(0.00048025026 -0.00059712538 5.6244965e-21)
(0.00046023089 -0.00060611068 5.747114e-21)
(0.00044036964 -0.00061463491 2.3300077e-21)
(0.00042066716 -0.00062271134 -1.5333907e-21)
(0.00040112373 -0.00063035277 1.2691311e-20)
(0.0003817392 -0.00063757133 -2.9272318e-21)
(0.00036251291 -0.00064437882 -3.5832021e-21)
(0.00034344392 -0.00065078617 4.70553e-21)
(0.00032453107 -0.0006568042 -6.4932144e-21)
(0.00030577292 -0.00066244293 1.3168431e-20)
(0.00028716767 -0.00066771196 1.1101259e-20)
(0.00026871332 -0.00067262042 4.3321245e-21)
(0.00025040771 -0.00067717701 2.5616468e-21)
(0.00023224842 -0.00068138969 -6.7523675e-21)
(0.00021423293 -0.00068526631 1.1774614e-20)
(0.00019635858 -0.00068881392 2.9536911e-21)
(0.00017862252 -0.00069203925 -2.4041626e-21)
(0.00016102188 -0.00069494866 2.9747447e-21)
(0.0001435537 -0.00069754782 1.1116592e-21)
(0.00012621488 -0.00069984226 5.7372521e-21)
(0.0001090023 -0.00070183688 8.6000542e-21)
(9.1912772e-05 -0.00070353636 1.102674e-20)
(7.4943478e-05 -0.00070494537 5.9811875e-21)
(5.8091634e-05 -0.00070606895 -2.9980549e-21)
(4.1348265e-05 -0.00070691515 3.5096596e-22)
(2.469803e-05 -0.00070749831 -1.1890325e-20)
(8.17619e-06 -0.00070783559 -1.4907163e-20)
(0.001259445 0.0009889776 9.8690037e-20)
(0.0012703612 0.00093483844 1.2997651e-19)
(0.0012787809 0.00088131112 5.4054352e-22)
(0.0012848423 0.00082848345 8.3549432e-21)
(0.0012886801 0.00077643294 4.1834709e-20)
(0.0012904251 0.00072522737 8.2643091e-20)
(0.0012902041 0.00067492543 7.4248048e-20)
(0.0012881396 0.00062557743 -1.3619945e-20)
(0.0012843498 0.00057722602 -3.5295066e-20)
(0.0012789484 0.00052990675 2.3687196e-20)
(0.0012720443 0.00048364849 6.6802211e-20)
(0.0012637421 0.00043847447 6.2505487e-20)
(0.0012541417 0.00039440243 2.0174815e-20)
(0.0012433382 0.00035144499 2.2520129e-20)
(0.0012314224 0.0003096105 9.572342e-21)
(0.0012184807 0.00026890328 3.6370823e-20)
(0.0012045949 0.0002293239 6.0889096e-20)
(0.0011898428 0.00019086978 2.9440028e-21)
(0.0011742979 0.00015353545 -2.4785491e-21)
(0.0011580298 0.00011731273 3.5668606e-21)
(0.0011411042 8.2191106e-05 6.877548e-21)
(0.0011235825 4.8158735e-05 1.3457453e-20)
(0.0011055216 1.5201176e-05 2.6260482e-21)
(0.001086979 -1.6698168e-05 -1.0192854e-20)
(0.0010680067 -4.7555192e-05 1.4641733e-20)
(0.0010486505 -7.7388308e-05 1.6386422e-20)
(0.0010289559 -0.00010621678 -9.794618e-22)
(0.0010089652 -0.00013406029 1.064581e-21)
(0.0009887179 -0.00016093923 7.1332508e-21)
(0.00096825064 -0.00018687462 -5.6207627e-21)
(0.00094759761 -0.00021188771 -1.3891821e-21)
(0.0009267907 -0.00023600013 3.655585e-20)
(0.00090585931 -0.00025923344 3.2689747e-20)
(0.00088483067 -0.00028160962 -3.4280769e-21)
(0.00086373008 -0.00030315043 -8.5153973e-21)
(0.00084258088 -0.00032387757 -1.3899557e-21)
(0.00082140445 -0.00034381255 2.8059792e-20)
(0.00080022064 -0.00036297668 3.7855172e-20)
(0.00077904757 -0.00038139116 -1.1123817e-20)
(0.00075790173 -0.00039907674 -3.098483e-20)
(0.00073679834 -0.00041605391 6.0759431e-21)
(0.00071575109 -0.0004323428 3.2363604e-20)
(0.00069477242 -0.00044796299 8.5135336e-21)
(0.00067387358 -0.00046293366 -4.4030438e-21)
(0.00065306474 -0.00047727393 -7.5416625e-21)
(0.00063235499 -0.00049100199 -1.0228954e-21)
(0.00061175242 -0.00050413568 1.5385744e-20)
(0.00059126414 -0.0005166924 1.3115954e-20)
(0.00057089648 -0.0005286892 -1.6091477e-21)
(0.00055065494 -0.0005401423 -4.2100924e-21)
(0.00053054417 -0.00055106757 -9.4721603e-21)
(0.00051056825 -0.00056148049 -3.7931122e-21)
(0.00049073056 -0.00057139563 1.0679521e-20)
(0.00047103384 -0.00058082757 1.304845e-21)
(0.00045148028 -0.00058979 -3.9387077e-21)
(0.00043207157 -0.00059829616 7.8857522e-21)
(0.00041280891 -0.00060635885 1.1984738e-20)
(0.00039369301 -0.00061399034 1.1636399e-20)
(0.00037472418 -0.00062120238 -9.1524967e-21)
(0.00035590239 -0.0006280061 -8.6923091e-21)
(0.00033722725 -0.00063441228 2.5941183e-21)
(0.00031869808 -0.00064043121 -8.8850291e-21)
(0.00030031384 -0.00064607273 -1.1071055e-22)
(0.00028207333 -0.0006513459 3.1485618e-21)
(0.00026397499 -0.00065625966 -1.999623e-21)
(0.00024601706 -0.00066082242 3.5167331e-21)
(0.00022819775 -0.00066504197 -5.6310395e-21)
(0.00021051497 -0.00066892582 5.3554482e-21)
(0.00019296641 -0.0006724808 6.4091217e-21)
(0.00017554978 -0.00067571356 -4.7027394e-22)
(0.00015826259 -0.00067863017 5.9639823e-21)
(0.00014110228 -0.00068123628 4.0092751e-21)
(0.00012406621 -0.00068353716 3.9571816e-21)
(0.00010715164 -0.00068553765 1.7871763e-21)
(9.0355904e-05 -0.00068724239 5.8559724e-21)
(7.36766e-05 -0.00068865587 4.463389e-21)
(5.7111217e-05 -0.00068978312 -2.1405788e-21)
(4.0651287e-05 -0.00069063215 -3.475392e-21)
(2.4282121e-05 -0.00069121736 -9.3430793e-21)
(8.0385941e-06 -0.00069155584 -1.3615111e-20)
(0.0012063142 0.00096118695 1.4773578e-20)
(0.0012177402 0.00090961567 4.5669271e-20)
(0.0012267635 0.0008585506 -2.6647249e-20)
(0.0012335115 0.00080807985 -1.1169606e-19)
(0.0012381091 0.00075828181 -3.5588107e-20)
(0.0012406779 0.00070922545 3.7928265e-20)
(0.0012413362 0.00066097119 4.2359698e-21)
(0.0012401985 0.0006135712 -2.0816017e-20)
(0.0012373759 0.00056707057 -8.9755038e-20)
(0.0012329754 0.0005215073 -5.6084986e-21)
(0.0012270996 0.000476913 4.2110254e-20)
(0.0012198476 0.00043331372 2.6109589e-20)
(0.0012113141 0.00039073015 -2.4901636e-20)
(0.0012015896 0.00034917798 -6.1461354e-20)
(0.0011907606 0.00030866871 -8.9191242e-22)
(0.0011789098 0.0002692096 3.8506758e-20)
(0.0011661155 0.00023080456 1.2291192e-20)
(0.0011524523 0.000193454 -4.5375472e-20)
(0.001137991 0.00015715553 -4.3352695e-20)
(0.0011227987 0.00012190401 -2.1959835e-21)
(0.0011069388 8.7692038e-05 2.7671284e-20)
(0.0010904711 5.4510184e-05 4.6153937e-21)
(0.0010734512 2.2346951e-05 -2.095851e-20)
(0.0010559347 -8.8098325e-06 -1.2876177e-20)
(0.0010379715 -3.8974193e-05 8.4638489e-21)
(0.0010196072 -6.8162927e-05 2.8572941e-20)
(0.0010008863 -9.6392337e-05 -2.403281e-21)
(0.00098185044 -0.0001236793 -1.2401044e-20)
(0.00096253841 -0.00015004216 -1.0613669e-20)
(0.00094298645 -0.00017549945 -7.8419685e-22)
(0.00092322839 -0.00020007031 2.6713085e-20)
(0.00090329574 -0.00022377434 1.699142e-20)
(0.00088321775 -0.00024663083 1.1361049e-20)
(0.0008630217 -0.00026866011 2.3493934e-21)
(0.00084273283 -0.00028988195 -1.4454652e-21)
(0.0008223745 -0.00031031641 3.5819115e-21)
(0.00080196837 -0.00032998321 1.2998113e-20)
(0.00078153436 -0.00034890227 5.5792333e-21)
(0.00076109084 -0.00036709306 -9.0842303e-21)
(0.00074065467 -0.00038457503 -2.2479221e-20)
(0.00072024125 -0.00040136725 2.1847603e-21)
(0.00069986461 -0.00041748847 1.7256652e-20)
(0.00067953761 -0.00043295721 8.241932e-23)
(0.00065927203 -0.00044779148 5.499132e-21)
(0.00063907843 -0.00046200919 4.5721314e-21)
(0.00061896628 -0.00047562752 1.0665501e-20)
(0.0005989441 -0.00048866334 1.4084268e-20)
(0.0005790196 -0.00050113318 -5.4694595e-21)
(0.00055919944 -0.0005130531 1.1681307e-21)
(0.00053948957 -0.00052443857 8.3594093e-21)
(0.00051989535 -0.00053530471 4.4575254e-21)
(0.0005004212 -0.00054566614 -6.2842014e-21)
(0.00048107097 -0.00055553695 -5.0741933e-21)
(0.00046184797 -0.00056493084 7.2318674e-21)
(0.00044275492 -0.00057386103 -2.185284e-21)
(0.00042379395 -0.00058234017 1.2258256e-20)
(0.00040496675 -0.00059038049 1.2227449e-20)
(0.00038627454 -0.00059799382 9.4831407e-21)
(0.00036771819 -0.00060519142 -3.4362615e-21)
(0.00034929806 -0.0006119839 -1.4639245e-21)
(0.00033101424 -0.00061838177 1.1715205e-20)
(0.00031286655 -0.00062439489 -9.3598514e-21)
(0.00029485447 -0.00063003276 -1.2208653e-20)
(0.00027697719 -0.00063530408 2.244465e-21)
(0.00025923368 -0.00064021751 4.8158981e-21)
(0.00024162267 -0.00064478118 8.5222055e-21)
(0.00022414267 -0.00064900266 -4.5830519e-21)
(0.00020679205 -0.00065288919 -5.3324384e-21)
(0.00018956902 -0.00065644738 8.2616067e-21)
(0.00017247162 -0.00065968374 8.2161254e-21)
(0.00015549783 -0.0006626041 1.1718562e-20)
(0.00013864561 -0.00066521405 6.6232394e-21)
(0.00012191265 -0.0006675186 -1.9311915e-21)
(0.00010529662 -0.00066952267 3.9103398e-21)
(8.8795243e-05 -0.00067123059 -8.7390968e-22)
(7.2406431e-05 -0.00067264679 -2.8743411e-21)
(5.6128128e-05 -0.00067377637 3.9227975e-21)
(3.9952393e-05 -0.00067462721 2.6504382e-21)
(2.3865015e-05 -0.00067521372 -7.1655053e-22)
(7.9005665e-06 -0.00067555297 -9.2964793e-21)
(0.0011557472 0.00093363428 -3.3090477e-21)
(0.0011675827 0.00088451825 -1.2767169e-19)
(0.0011771089 0.00083581267 -1.5038354e-20)
(0.0011844431 0.00078760543 2.4660868e-21)
(0.0011897009 0.00073997517 5.0486301e-21)
(0.001192995 0.00069299162 -4.6245996e-21)
(0.0011944357 0.00064671632 -1.3821559e-19)
(0.0011941299 0.00060120305 -4.950304e-20)
(0.0011921817 0.00055649854 -7.1456434e-21)
(0.0011886915 0.00051264288 4.7600153e-21)
(0.0011837562 0.00046967008 -6.6631731e-22)
(0.0011774692 0.00042760849 -1.0561314e-19)
(0.0011699202 0.0003864813 -5.7381225e-20)
(0.0011611951 0.00034630703 -1.006481e-20)
(0.0011513764 0.00030709971 4.4087238e-20)
(0.0011405428 0.00026886949 -2.5078772e-21)
(0.0011287692 0.00023162302 -1.0594543e-19)
(0.0011161271 0.00019536359 -4.1457371e-20)
(0.0011026847 0.00016009151 -6.6375071e-21)
(0.0010885064 0.00012580451 1.7072906e-20)
(0.0010736533 9.2497938e-05 1.379112e-21)
(0.0010581833 6.0164976e-05 -7.1447441e-20)
(0.0010421504 2.8797312e-05 -2.0609e-20)
(0.0010256093 -1.6144521e-06 2.4885727e-20)
(0.0010086076 -3.1085097e-05 -3.7730709e-21)
(0.00099118894 -5.9625461e-05 -1.5219258e-20)
(0.00097339839 -8.7249989e-05 -6.3525828e-20)
(0.00095527638 -0.00011397364 -1.6388662e-20)
(0.00093686098 -0.00013981244 5.9257193e-21)
(0.0009181877 -0.00016478291 -3.398371e-21)
(0.00089928999 -0.00018890207 3.3408383e-21)
(0.00088019907 -0.00021218753 -5.5365195e-20)
(0.00086094398 -0.00023465672 -2.9781643e-20)
(0.00084155176 -0.00025632809 1.4489737e-20)
(0.00082204759 -0.00027721963 -4.3552046e-21)
(0.00080245488 -0.00029734981 -2.0098314e-20)
(0.0007827953 -0.00031673673 -4.6255405e-20)
(0.0007630889 -0.00033539872 -1.4664469e-20)
(0.0007433542 -0.00035335388 -1.7712946e-21)
(0.00072360817 -0.00037062019 -2.171774e-20)
(0.00070386657 -0.0003872155 -4.7587443e-21)
(0.00068414379 -0.00040315717 -3.9061429e-20)
(0.00066445297 -0.00041846267 -1.6963593e-20)
(0.00064480619 -0.00043314888 9.2466229e-21)
(0.00062521433 -0.00044723252 -9.5491754e-21)
(0.00060568724 -0.00046072981 -1.1307318e-20)
(0.00058623393 -0.00047365666 -2.4142274e-20)
(0.00056686248 -0.00048602883 -1.7911407e-20)
(0.00054758002 -0.00049786123 3.3828453e-21)
(0.00052839296 -0.00050916875 2.5310861e-21)
(0.00050930697 -0.00051996571 8.0591502e-23)
(0.00049032697 -0.00053026591 -2.2828601e-20)
(0.00047145737 -0.00054008294 -1.7330588e-20)
(0.00045270191 -0.00054942966 -3.8838772e-22)
(0.00043406361 -0.0005583188 -9.2287135e-21)
(0.00041554528 -0.00056676242 -6.9578776e-21)
(0.00039714901 -0.00057477228 -1.9385966e-20)
(0.00037887641 -0.00058235963 -4.9500465e-21)
(0.00036072877 -0.00058953524 -1.425887e-21)
(0.00034270702 -0.00059630942 -8.9877239e-21)
(0.00032481169 -0.00060269223 -1.0938434e-21)
(0.00030704303 -0.0006086931 -2.2791826e-20)
(0.00028940092 -0.00061432126 -1.3484757e-20)
(0.00027188503 -0.000619585 -5.5226531e-21)
(0.00025449479 -0.00062449275 -5.5142092e-21)
(0.00023722928 -0.00062905231 -5.2814792e-21)
(0.00022008748 -0.00063327097 -1.300309e-20)
(0.0002030682 -0.00063715583 -8.2632731e-21)
(0.00018617007 -0.00064071328 -6.5121265e-22)
(0.00016939155 -0.00064394954 -4.3178964e-21)
(0.00015273102 -0.00064687039 -4.079814e-21)
(0.0001361867 -0.00064948119 -6.9642625e-21)
(0.0001197568 -0.00065178686 -8.8307356e-21)
(0.00010343942 -0.00065379215 -7.515972e-21)
(8.7232515e-05 -0.00065550126 -8.3368286e-21)
(7.11345e-05 -0.00065691857 -6.9671598e-21)
(5.5143691e-05 -0.00065804917 -2.0202819e-21)
(3.9252475e-05 -0.00065890083 -3.0098382e-21)
(2.3447284e-05 -0.00065948794 -1.5267826e-21)
(7.762355e-06 -0.00065982758 -7.0812749e-21)
(0.0011076278 0.00090638323 1.2552839e-19)
(0.0011197822 0.00085961228 -8.8535665e-21)
(0.0011297198 0.00081316526 -5.8344347e-21)
(0.0011375485 0.00076712935 -4.3626376e-20)
(0.001143375 0.00072158289 -5.796079e-20)
(0.0011473038 0.00067659603 -3.9435957e-20)
(0.0011494372 0.00063223088 -4.3609585e-20)
(0.0011498753 0.00058854239 -1.8016672e-20)
(0.0011487151 0.00054557855 -2.7312866e-20)
(0.0011460508 0.00050338118 -5.5437139e-20)
(0.0011419736 0.00046198611 -2.8969324e-20)
(0.0011365715 0.00042142366 -2.1391235e-20)
(0.0011299293 0.00038171926 2.3418106e-20)
(0.0011221286 0.00034289367 -2.1917922e-20)