/*--------------------------------*- C++ -*----------------------------------*\
| =========                 |                                                 |
| \\      /  F ield         | OpenFOAM: The Open Source CFD Toolbox           |
|  \\    /   O peration     | Version:  2106                                  |
|   \\  /    A nd           | Website:  www.openfoam.com                      |
|    \\/     M anipulation  |                                                 |
\*---------------------------------------------------------------------------*/
FoamFile
{
    version     2.0;
    format      ascii;
    arch        "LSB;label=32;scalar=64";
    class       volScalarField;
    location    "0.08";
    object      p;
}
// * * * * * * * * * * * * * * * * * * * * * * * * * * * * * * * * * * * * * //

dimensions      [1 -1 -2 0 0 0 0];

internalField   nonuniform List<scalar> 
32768
(
460.60734
460.61191
460.58909
460.54622
460.48188
460.39538
460.28667
460.15569
460.00229
459.82627
459.62737
459.40552
459.16062
458.89234
458.60033
458.28424
457.94365
457.57813
457.18718
456.77026
456.32679
455.8561
455.35751
454.83024
454.27347
453.68631
453.0678
452.41689
451.73248
451.01335
450.25827
449.46571
448.63457
447.76257
446.84948
445.89115
444.88946
443.83805
442.73681
441.58912
440.36858
439.12945
437.77171
436.41704
434.95598
433.41397
431.85271
430.16654
428.40525
426.59905
424.67395
422.65606
420.56212
418.35809
416.06107
413.65045
411.10791
408.46646
405.72881
402.83328
399.77757
396.62192
393.34202
389.87952
386.25705
382.49899
378.56803
374.45517
370.1747
365.72606
361.09774
356.25701
351.20393
345.96007
340.514
334.8638
329.01071
322.9234
316.58981
310.03242
303.26829
296.30242
289.11908
281.69382
274.03403
266.16495
258.10285
249.86535
241.47546
232.95247
224.31344
215.5937
206.7872
197.87854
188.92012
179.97391
171.17166
162.67722
154.50526
146.58795
139.04067
131.96165
124.77924
117.79215
111.53397
105.19528
98.948983
93.501228
88.658239
84.133529
79.8532
75.708228
71.50022
67.257315
63.153481
59.159427
54.830123
50.172653
45.605314
41.140302
36.742999
32.417562
27.942837
22.816415
15.830714
1.1635409
0.72174581
0.71137667
0.64335985
0.54834887
0.47791859
0.42614482
0.38600506
0.35374222
0.32694656
0.30413167
0.28434501
0.26694974
0.25149132
0.23761926
0.2251014
0.21372622
0.2033358
0.19380121
0.18501938
0.17690231
0.16937768
0.16238271
0.15586359
0.14977396
0.14407386
0.13872767
0.13370501
0.12897833
0.12452339
0.1203186
0.11634465
0.11258417
0.10902157
0.10564276
0.1024351
0.099388024
0.09648668
0.093724883
0.091093959
0.088585017
0.086190898
0.083905949
0.081720099
0.07963012
0.077630706
0.075716559
0.073882788
0.072125267
0.070439883
0.068822888
0.067270815
0.065780413
0.064348633
0.062972618
0.061649695
0.060377353
0.05915324
0.057975147
0.056840996
0.055748838
0.054696805
0.053683295
0.052706379
0.05176461
0.05085659
0.049980963
0.049136412
0.048321688
0.047535611
0.046777069
0.04604501
0.045338433
0.044656403
0.04399801
0.043362392
0.042748736
0.042156261
0.041584281
0.041031947
0.04049868
0.039983865
0.039486902
0.039007206
0.038544222
0.038097425
0.037666308
0.037250396
0.03684921
0.036462396
0.036089473
0.035730133
0.035383943
0.035050571
0.034729723
0.034420636
0.034123353
0.033837874
0.033563569
0.03330018
0.033047487
0.032805253
0.032573248
0.032351252
0.032139053
0.031936448
0.031743241
0.031559288
0.031384392
0.031218393
0.031061141
0.030912496
0.030772327
0.030640475
0.030516843
0.030401303
0.030293746
0.030194206
0.030102468
0.030018461
0.029942124
0.02987339
0.029812213
0.02975848
0.029712213
0.029673362
0.029641901
0.02961787
0.029601293
0.02959172
0.02958996
451.84963
451.8538
451.83158
451.78925
451.72468
451.63798
451.52909
451.39791
451.24433
451.0682
450.86941
450.6476
450.40246
450.13377
449.84125
449.52453
449.18325
448.81696
448.42518
448.00738
447.56297
447.09132
446.59171
446.06338
445.50552
444.91723
444.29754
443.6454
442.95971
442.23921
441.48277
440.68863
439.85614
438.98204
438.06792
437.10654
436.10469
435.04916
433.9493
432.79564
431.57732
430.32656
428.9746
427.61799
426.13876
424.61902
423.03945
421.33674
419.60449
417.77518
415.82697
413.83625
411.73509
409.50224
407.20969
404.80366
402.25107
399.60329
396.8491
393.94092
390.89865
387.74031
384.42878
380.95256
377.33631
373.5701
369.62083
365.50003
361.2167
356.75375
352.09907
347.24323
342.19769
336.95429
331.48893
325.81718
319.94437
313.84156
307.49889
300.92911
294.15008
287.17502
279.98585
272.5563
264.89022
257.00483
248.92184
240.66817
232.26427
223.72143
215.06409
206.31665
197.49509
188.60321
179.66817
170.76336
161.97784
153.42897
145.19232
137.27799
129.69097
122.39583
115.22845
108.35338
101.93738
95.897137
89.966796
84.389952
79.547146
75.128844
71.111212
67.292676
63.036708
58.58143
54.355438
50.363144
46.21349
41.866518
37.312737
32.663822
27.898551
22.413725
16.571744
16.867126
3.3152103
0.51059434
0.60759157
0.60805517
0.54976834
0.49177759
0.4426142
0.40156253
0.36707296
0.33778858
0.31266491
0.29086759
0.27174442
0.25481009
0.23966683
0.22604428
0.21369504
0.2024574
0.19217252
0.18272508
0.17401669
0.16595774
0.15848345
0.15153204
0.14504942
0.13899057
0.13331712
0.12799232
0.1229898
0.11828134
0.11384212
0.109651
0.10568907
0.10193922
0.098386003
0.095015304
0.091814432
0.088771409
0.085878755
0.083123708
0.080497834
0.077993661
0.075603528
0.073319873
0.071139163
0.069053184
0.067056989
0.065146379
0.06331469
0.061559053
0.059875564
0.058260386
0.056710014
0.055221193
0.053790879
0.052416223
0.051094557
0.04982338
0.048600348
0.047423264
0.046290065
0.04519883
0.044147751
0.043135219
0.042158703
0.041217454
0.04031002
0.039434956
0.038590928
0.037776691
0.036991074
0.036232964
0.035501308
0.034795104
0.034113434
0.033455381
0.032820085
0.032206749
0.031614628
0.031043039
0.030490795
0.029957679
0.029443059
0.028946291
0.028466781
0.028003972
0.027557332
0.027126355
0.026710549
0.026309457
0.025922794
0.025549993
0.02519081
0.024844724
0.024511362
0.024190383
0.023881808
0.023585094
0.023299407
0.023025021
0.022761657
0.022509017
0.02226684
0.02203489
0.021812946
0.021600793
0.021398225
0.02120506
0.021021161
0.020846318
0.020680364
0.020523158
0.020374567
0.020234465
0.020102614
0.019979003
0.019863527
0.019756085
0.019656474
0.019564709
0.0194807
0.019404361
0.019335621
0.019274415
0.019220746
0.019174518
0.019135666
0.019104197
0.019080088
0.01906339
0.019053672
0.019051915
443.07462
443.0785
443.05622
443.0137
442.94884
442.86179
442.75251
442.62089
442.46683
442.29018
442.09079
441.8685
441.62295
441.35389
441.06099
440.74394
440.40231
440.03567
439.64351
439.22529
438.7804
438.30819
437.80796
437.27893
436.72028
436.13112
435.51046
434.85728
434.17045
433.44871
432.69095
431.89532
431.06133
430.18535
429.2697
428.30566
427.30298
426.24326
425.14468
423.98405
422.76953
421.50941
420.15923
418.79373
417.31177
415.79495
414.20094
412.5019
410.76677
408.91562
406.98138
404.98365
402.85462
400.63705
398.33884
395.90128
393.35437
390.71024
387.92592
385.00389
381.97246
378.79604
375.45752
371.97676
368.35225
364.56654
360.59937
356.46792
352.16971
347.68069
342.99999
338.13449
333.08245
327.8164
322.3277
316.63291
310.72825
304.59726
298.23713
291.65687
284.87218
277.88509
270.66801
263.20239
255.50057
247.58953
239.50042
231.2501
222.84323
214.28239
205.58832
196.7891
187.92162
179.0125
170.07646
161.17296
152.37586
143.7929
135.51221
127.53662
119.87588
112.51051
105.37392
98.551965
92.139972
86.10127
80.358588
75.102939
70.532622
66.218658
61.902321
57.831906
54.118724
50.393617
46.277903
42.177068
37.863405
33.617808
28.955348
24.669911
19.231334
13.390001
13.190008
2.4001016
0.23820929
0.37450987
0.46500283
0.47698923
0.46593126
0.43513256
0.40202642
0.37070707
0.34228303
0.31694571
0.29442655
0.2743988
0.25652286
0.24047633
0.22601035
0.21290578
0.20096411
0.19003614
0.1800118
0.17077945
0.16224588
0.15433571
0.14698436
0.14013565
0.13374178
0.12776052
0.12215405
0.11689159
0.1119399
0.10727513
0.10287541
0.098719893
0.094789865
0.091068639
0.087541201
0.084193796
0.08101425
0.077990305
0.075114337
0.072375031
0.069763662
0.067272382
0.064894225
0.062621812
0.060450724
0.058373239
0.056385627
0.05448158
0.05265832
0.050910342
0.049233383
0.047624126
0.046079238
0.044595505
0.043169917
0.041799661
0.0404821
0.039214757
0.037995309
0.036821573
0.035691486
0.03460308
0.033554474
0.03254383
0.03157039
0.030631823
0.029726688
0.028853712
0.028011635
0.027199228
0.026415337
0.025658852
0.02492873
0.024223958
0.023543683
0.022886925
0.022252835
0.021640594
0.021049396
0.020478461
0.019927569
0.019395609
0.018881964
0.018386078
0.01790739
0.017445358
0.016999465
0.016569231
0.016154218
0.015754033
0.01536784
0.014995619
0.014636796
0.014291115
0.013958198
0.013637656
0.013329357
0.013032771
0.012747736
0.012473868
0.012210918
0.011958642
0.011716799
0.011485164
0.011263522
0.011051672
0.010849422
0.010656584
0.010472845
0.010298165
0.010132398
0.0099753696
0.0098269171
0.0096868962
0.0095552879
0.0094318717
0.0093165444
0.0092092097
0.0091097519
0.0090181099
0.0089342081
0.0088579692
0.0087893126
0.0087281789
0.0086745516
0.0086283473
0.0085895618
0.0085581359
0.0085340201
0.0085172898
0.0085075767
0.0085059421
434.28091
434.28449
434.26206
434.21926
434.15399
434.06643
433.95654
433.82424
433.66941
433.49191
433.29156
433.06817
432.82146
432.55111
432.2568
431.93816
431.5948
431.22626
430.83206
430.41165
429.96444
429.48979
428.98698
428.45524
427.89374
427.30158
426.67778
426.02129
425.33099
424.6056
423.84398
423.04429
422.20602
421.32551
420.40508
419.43597
418.42809
417.3625
416.25913
415.09038
413.87325
412.6014
411.24805
409.86995
408.37805
406.86008
405.2507
403.54037
401.80248
399.9324
397.98456
395.98255
393.83528
391.60146
389.2903
386.8373
384.27261
381.61091
378.80372
375.86162
372.8173
369.61372
366.24321
362.7433
359.09799
355.2835
351.28402
347.12039
342.79034
338.26743
333.55513
328.66229
323.57837
318.27457
312.74754
307.0076
301.05838
294.89844
288.51905
281.91254
275.08726
268.04997
260.77922
253.26676
245.53407
237.60846
229.51458
221.26192
212.84164
204.24863
195.49524
186.61238
177.66301
168.70315
159.76714
150.88387
142.10196
133.50666
125.14785
117.07537
109.36239
101.98782
94.896558
88.139062
81.796295
75.888369
70.372533
65.342576
60.874203
56.789531
52.906451
49.270771
45.53133
41.706319
37.929131
33.710045
29.481903
25.154293
20.452983
15.063549
11.984067
11.524343
1.2426869
0.10076244
0.12059606
0.25422958
0.33550468
0.38376226
0.38703405
0.37475553
0.35561318
0.33405566
0.31242888
0.29179591
0.2726121
0.25497862
0.23884645
0.22410621
0.21063055
0.19828772
0.18695331
0.17651617
0.16688809
0.15798318
0.14972103
0.14204563
0.13488705
0.12820155
0.12194947
0.11609172
0.11059286
0.10542504
0.1005561
0.095964564
0.091629975
0.087532504
0.083654375
0.079979724
0.07649421
0.073184835
0.070039733
0.067048157
0.064199492
0.061485238
0.05889715
0.056427043
0.054068982
0.051816445
0.049661474
0.047600696
0.045625939
0.043734188
0.041922459
0.040185913
0.038519095
0.036919284
0.035383335
0.033907985
0.032490226
0.03112728
0.029816551
0.028555604
0.027342145
0.026174015
0.02504919
0.023965752
0.022921906
0.02191593
0.020946353
0.020011513
0.019109992
0.01824045
0.017401613
0.016592266
0.015811287
0.015057557
0.014330011
0.013627591
0.012949707
0.012295195
0.011663201
0.011052951
0.010463697
0.0098947077
0.0093453675
0.0088149402
0.0083028054
0.0078083692
0.0073310636
0.006870347
0.0064256981
0.0059966218
0.005582637
0.0051832711
0.0047983021
0.0044271533
0.0040693291
0.0037245898
0.0033926153
0.0030731116
0.0027653484
0.0024693694
0.0021849966
0.0019117975
0.0016494809
0.0013978005
0.001156524
0.00092542848
0.0007042965
0.00049291238
0.0002910669
9.8569196e-05
-8.4682911e-05
-0.00025891628
-0.00042429706
-0.00058097545
-0.00072909173
-0.00086877734
-0.0010001358
-0.0011233063
-0.001238404
-0.0013455305
-0.0014447654
-0.0015361997
-0.001619914
-0.0016959821
-0.0017644881
-0.0018254705
-0.0018790118
-0.0019251274
-0.0019638591
-0.0019952496
-0.0020193144
-0.0020360146
-0.0020456644
-0.0020471623
425.46892
425.47221
425.44946
425.40621
425.34035
425.25209
425.14139
425.00816
424.85228
424.67361
424.47197
424.24714
423.99886
423.72683
423.43073
423.11017
422.76476
422.39405
421.99753
421.57467
421.12488
420.64751
420.14184
419.60711
419.04248
418.44702
417.81976
417.15962
416.46548
415.73603
414.97013
414.16593
413.32283
412.43732
411.5114
410.53666
409.52267
408.45046
407.34107
406.16378
404.94171
403.65882
402.29998
400.90792
399.40896
397.8804
396.25713
394.53997
392.78641
390.89959
388.94385
386.92705
384.7529
382.5094
380.18842
377.70373
375.11257
372.44306
369.61155
366.63745
363.56691
360.33704
356.93504
353.40647
349.73566
345.88251
341.83967
337.6382
333.27413
328.70947
323.9548
319.02222
313.88904
308.53344
302.96028
297.17554
291.18141
284.98342
278.57053
271.9191
265.03294
257.92514
250.58908
243.03266
235.27997
227.34798
219.23808
210.9524
202.48683
193.84513
185.04007
176.09981
167.08275
158.05705
149.08687
140.20177
131.41568
122.77771
114.36097
106.23209
98.43996
91.005576
83.955057
77.345834
71.151533
65.353173
59.990597
55.113958
50.836106
47.130154
43.493703
40.025125
36.625105
33.211262
29.397219
25.364462
21.342012
16.358239
11.740243
9.199568
4.8273515
0.28773548
-0.13105818
0.017305316
0.093866958
0.184861
0.25777695
0.3048761
0.31813419
0.31751403
0.30851482
0.29504903
0.27965138
0.26372657
0.24808401
0.23312741
0.21903948
0.20587649
0.19363574
0.18225909
0.1717106
0.1619243
0.1528253
0.1443524
0.13645386
0.12908142
0.12218602
0.11572832
0.10967193
0.10398307
0.098631928
0.093589942
0.088836153
0.084347468
0.080103407
0.076086251
0.072279914
0.068669721
0.065242229
0.061985387
0.058887726
0.055940809
0.053130864
0.050451633
0.047896016
0.045457637
0.043126212
0.04089797
0.038765601
0.036724387
0.034770385
0.032898513
0.031103514
0.029381721
0.027729653
0.026143713
0.024620522
0.023156991
0.021750247
0.020397587
0.019096475
0.017844524
0.01663949
0.015479267
0.014361864
0.013285403
0.012248118
0.011248336
0.010284518
0.0093551379
0.0084587778
0.0075941012
0.0067598522
0.0059548111
0.0051779737
0.0044281817
0.0037044215
0.0030058194
0.0023310016
0.0016794574
0.0010503717
0.00044291975
-0.00014366406
-0.00071010093
-0.001257054
-0.0017851952
-0.0022951509
-0.0027875134
-0.0032628452
-0.0037216803
-0.004164547
-0.0045919287
-0.0050043041
-0.005402144
-0.0057856452
-0.0061553724
-0.0065118782
-0.006855381
-0.0071862353
-0.0075048147
-0.007811275
-0.0081060765
-0.0083894562
-0.0086617244
-0.0089231456
-0.0091739688
-0.0094144286
-0.00964475
-0.0098651507
-0.010075844
-0.010277034
-0.010468912
-0.010651569
-0.010825246
-0.010990105
-0.011146293
-0.011293944
-0.011433188
-0.011564144
-0.011686937
-0.011801681
-0.011908479
-0.012007411
-0.012098572
-0.012182043
-0.0122579
-0.012326176
-0.012386962
-0.012440336
-0.01248632
-0.012524946
-0.01255625
-0.012580242
-0.01259688
-0.012606472
-0.0126079
416.63895
416.64189
416.61869
416.57484
416.50825
416.4191
416.30737
416.17296
416.01577
415.83562
415.63235
415.40574
415.15552
414.88139
414.58304
414.26008
413.9121
413.53865
413.13923
412.71329
412.26023
411.7794
411.27007
410.73147
410.16274
409.56297
408.93115
408.2662
407.56698
406.83218
406.0606
405.25045
404.40096
403.50886
402.57565
401.59366
400.57119
399.49093
398.37214
397.1854
395.9544
394.65877
393.29166
391.88325
390.37373
388.83123
387.19008
385.46333
383.68894
381.78346
379.81566
377.77209
375.57693
373.31688
370.96633
368.45639
365.84151
363.13974
360.27783
357.27875
354.16932
350.896
347.46351
343.90264
340.1857
336.2811
332.19449
327.9435
323.53514
318.92033
314.10565
309.11325
303.9123
298.49117
292.86508
287.03549
280.98717
274.72677
268.25027
261.52934
254.56468
247.37947
239.97687
232.37954
224.6148
216.671
208.52488
200.16283
191.59501
182.86188
174.00168
165.03137
155.98675
146.91852
137.88768
128.94933
120.12544
111.42445
102.89895
94.671815
86.858113
79.459119
72.419879
65.800654
59.681887
54.022589
48.92768
44.530967
40.884411
37.770259
34.20362
31.293346
28.553099
25.28332
20.645986
16.44621
13.19391
10.329389
8.7138002
2.0309931
0.14954952
-0.21911359
-0.10269926
-0.021008527
0.061668728
0.13735773
0.20015473
0.23807359
0.25768897
0.26438325
0.26257568
0.25553218
0.24547931
0.23388932
0.22169504
0.20946965
0.19754961
0.18611783
0.17526592
0.16502303
0.15539475
0.1463609
0.13788702
0.12993995
0.12248656
0.1154884
0.10891815
0.10274205
0.096928566
0.091450707
0.086284113
0.081405652
0.076795453
0.07243375
0.068302857
0.064386907
0.06067133
0.057142746
0.053788853
0.050598442
0.047560997
0.04466733
0.04190784
0.039274881
0.036761085
0.03435901
0.032063215
0.029866764
0.027765104
0.025752432
0.023823891
0.021975111
0.020201679
0.018499278
0.016866396
0.015298313
0.013791514
0.012343174
0.010950581
0.0096111311
0.0083223718
0.0070819908
0.0058878047
0.0047377553
0.0036299046
0.0025624229
0.0015335841
0.00054175635
-0.00041458602
-0.0013369129
-0.0022266132
-0.003085009
-0.0039133512
-0.0047128988
-0.0054843736
-0.0062290853
-0.0069480772
-0.0076421784
-0.0083127343
-0.0089602423
-0.009585492
-0.010189301
-0.010772425
-0.011335574
-0.011879413
-0.012404592
-0.012911728
-0.013401402
-0.013874169
-0.01433055
-0.01477112
-0.015196297
-0.015606528
-0.01600224
-0.016384009
-0.016752148
-0.017106834
-0.017448622
-0.017777881
-0.018094945
-0.018399991
-0.018693434
-0.018975537
-0.019246583
-0.019506836
-0.019756548
-0.019995953
-0.020225273
-0.020444721
-0.020654502
-0.020854808
-0.02104582
-0.021227761
-0.021400748
-0.021564936
-0.021720482
-0.021867528
-0.022006205
-0.022136634
-0.022258934
-0.022373217
-0.022479583
-0.022578122
-0.022668919
-0.022752051
-0.022827596
-0.02289562
-0.022956186
-0.023009345
-0.023055141
-0.023093612
-0.02312479
-0.023148682
-0.023165245
-0.023174784
-0.02317618
407.79139
407.79393
407.77017
407.72558
407.65808
407.56786
407.45489
407.31907
407.16029
406.97838
406.77316
406.54441
406.29187
406.01524
405.71419
405.38834
405.03729
404.66056
404.25766
403.82803
403.37106
402.88609
402.37239
401.82916
401.25555
400.65063
400.01338
399.3427
398.63744
397.89628
397.11796
396.30075
395.4437
394.54381
393.602
392.61145
391.579
390.48917
389.35919
388.1614
386.9193
385.60941
384.23157
382.80575
381.28268
379.72339
378.06235
376.32271
374.5251
372.59737
370.61464
368.54032
366.31892
364.03916
361.657
359.11115
356.47022
353.7335
350.83681
347.8003
344.64076
341.32832
337.8617
334.25417
330.47781
326.5104
322.37739
318.08048
313.60696
308.92252
304.04539
298.97388
293.68782
288.20085
282.50922
276.61967
270.50449
264.15555
257.58032
250.76939
243.7272
236.47477
229.01856
221.37055
213.55854
205.55167
197.316
188.86985
180.22741
171.42152
162.52576
153.55025
144.488
135.36157
126.23167
117.17269
108.20817
99.382565
90.788702
82.507825
74.645021
67.261976
60.334856
53.852436
47.724238
41.886138
36.777522
32.583968
28.867786
26.549898
24.664746
21.990239
19.363535
16.071827
12.680886
10.11308
8.1020137
2.9218052
0.10732393
-0.049547268
-0.066903177
-0.12144156
-0.087571308
-0.024746952
0.040603332
0.10135777
0.15054655
0.18443089
0.20546363
0.21607524
0.21905662
0.216786
0.21106252
0.20323531
0.19420476
0.18460145
0.17484195
0.16518833
0.1557993
0.14677242
0.13814997
0.12994665
0.12217594
0.1148283
0.10788577
0.10132453
0.095129812
0.089279621
0.083749753
0.078519931
0.073571293
0.068885397
0.064445268
0.060234825
0.056239033
0.052444046
0.048837073
0.045406258
0.042140636
0.039029973
0.036064944
0.033236016
0.030537085
0.027959707
0.025496469
0.02314085
0.020887435
0.018730224
0.016664422
0.014685254
0.012787208
0.0109666
0.009219626
0.0075427235
0.0059321708
0.0043847665
0.0028975089
0.0014675185
9.2097393e-05
-0.0012312872
-0.0025050123
-0.0037313108
-0.0049122892
-0.0060499399
-0.0071461461
-0.0082026847
-0.0092212283
-0.010203357
-0.011150561
-0.012064267
-0.012945829
-0.013796522
-0.014617555
-0.015410076
-0.016175187
-0.016913906
-0.017627232
-0.018316155
-0.018981289
-0.019623695
-0.020244195
-0.020843527
-0.021422408
-0.02198153
-0.022521551
-0.0230431
-0.023546783
-0.024033169
-0.024502795
-0.024956151
-0.025393907
-0.025816394
-0.026224061
-0.026617356
-0.026996767
-0.027362658
-0.027715231
-0.028054989
-0.028382271
-0.028697357
-0.029000781
-0.029292638
-0.029573166
-0.029842703
-0.030101523
-0.030349875
-0.030587986
-0.030816073
-0.031034349
-0.031243018
-0.031442277
-0.031632305
-0.031813297
-0.031985388
-0.032148736
-0.032303492
-0.032449796
-0.032587778
-0.032717556
-0.032839247
-0.032952962
-0.033058802
-0.033156856
-0.033247206
-0.03332993
-0.033405105
-0.033472806
-0.033533084
-0.03358598
-0.033631548
-0.033669827
-0.033700846
-0.033724615
-0.033741089
-0.033750574
-0.033751951
398.92674
398.9288
398.90438
398.85892
398.79036
398.69889
398.58447
398.447
398.28636
398.10239
397.8949
397.66367
397.40844
397.1289
396.82472
396.49552
396.14088
395.76035
395.35339
394.91946
394.45794
393.96815
393.44935
392.90075
392.32147
391.71056
391.06699
390.38966
389.67737
388.92881
388.14267
387.31725
386.45143
385.54247
384.59071
383.59018
382.54617
381.44526
380.30196
379.09183
377.83575
376.51048
375.11916
373.67402
372.13518
370.55536
368.87229
367.11774
365.29102
363.3411
361.3385
359.22445
356.98018
354.6762
352.24739
349.6677
347.00113
344.21813
341.27459
338.19622
334.98985
331.62816
328.11554
324.44317
320.6047
316.58252
312.38174
308.02317
303.48084
298.70712
293.75092
288.60064
283.21829
277.64807
271.88316
265.90458
259.68841
253.23545
246.55107
239.63719
232.50823
225.17551
217.65865
209.94332
202.02996
193.91011
185.55847
177.01249
168.32671
159.51568
150.59554
141.58716
132.4761
123.25913
114.00019
104.79161
95.680441
86.691876
77.91704
69.508653
61.62315
54.293406
47.309066
40.798141
34.775074
29.029188
24.161238
20.584399
18.074765
16.485218
15.465514
13.801002
11.47564
9.6448514
6.6914898
2.5920368
-0.050704683
-0.24770522
-0.19650119
-0.16776047
-0.14356771
-0.11611961
-0.078504778
-0.030005373
0.021205942
0.069212872
0.1089961
0.13916041
0.15987498
0.17240769
0.17843272
0.17958578
0.17725251
0.17253677
0.16627268
0.15906994
0.15135857
0.14343905
0.1355145
0.12772141
0.12014186
0.11283583
0.10582406
0.099120386
0.092731733
0.086651963
0.08087396
0.075385256
0.07017233
0.065221687
0.060519439
0.056051717
0.051805427
0.047767892
0.043926716
0.040270408
0.03678821
0.033469962
0.03030615
0.02728777
0.024406591
0.021654514
0.019025235
0.016511481
0.014106634
0.01180477
0.0096006447
0.0074889273
0.0054648459
0.003523135
0.001661258
-0.00012550436
-0.0018414033
-0.0034897276
-0.0050736771
-0.0065962587
-0.0080603988
-0.0094688303
-0.010824113
-0.012128658
-0.01338474
-0.014594503
-0.015759976
-0.016883074
-0.017965604
-0.019009277
-0.020015711
-0.020986436
-0.021922892
-0.022826457
-0.023698438
-0.024540059
-0.025352493
-0.026136776
-0.026894347
-0.027625963
-0.02833249
-0.029014885
-0.029673902
-0.030310491
-0.03092545
-0.031519518
-0.032093401
-0.032647773
-0.033183278
-0.033700536
-0.034200139
-0.034682657
-0.035148638
-0.035598615
-0.036032907
-0.03645212
-0.036856726
-0.037247118
-0.037623699
-0.037986826
-0.038336975
-0.038674423
-0.038999505
-0.03931257
-0.039613821
-0.039903655
-0.040182277
-0.040450016
-0.040707139
-0.040953877
-0.041190452
-0.04141708
-0.041633972
-0.041841331
-0.04203935
-0.042228205
-0.042408072
-0.042579105
-0.042741457
-0.042895276
-0.043040701
-0.043177855
-0.043306859
-0.043427829
-0.043540874
-0.043646091
-0.043743568
-0.043833386
-0.043915626
-0.043990362
-0.04405767
-0.0441176
-0.044170189
-0.044215492
-0.044253548
-0.044284383
-0.044308011
-0.04432438
-0.044333804
-0.044335165
390.04554
390.04706
390.02188
389.97542
389.90565
389.81274
389.69667
389.55732
389.39457
389.20826
388.99819
388.76414
388.50584
388.22299
387.91525
387.58224
387.22353
386.83865
386.42709
385.98827
385.52156
385.02629
384.5017
383.94699
383.36125
382.74354
382.0928
381.40791
380.68765
379.93069
379.13568
378.30093
377.4252
376.50591
375.54292
374.531
373.47407
372.36039
371.20229
369.9777
368.70612
367.3631
365.95651
364.49017
362.93226
361.33054
359.62149
357.84965
355.99154
354.01514
351.9877
349.83235
347.56105
345.22645
342.74839
340.1298
337.43251
334.59562
331.60015
328.47706
325.21406
321.79462
318.23092
314.48498
310.57244
306.4877
302.2153
297.78408
293.15123
288.28497
283.22755
277.98772
272.51529
266.84418
260.97771
254.8823
248.53663
241.96381
235.16797
228.14869
220.92692
213.49367
205.85393
198.01866
189.97791
181.71913
173.25831
164.65954
155.95182
147.12933
138.18096
129.10582
119.90085
110.57605
101.17449
91.764726
82.427983
73.244517
64.33166
55.78471
47.724008
40.467121
33.597979
27.159768
20.995397
13.599032
8.9616725
6.145506
4.9180182
4.2302131
6.1514798
5.3154243
3.5905284
1.1161795
-0.17794954
-0.40229417
-0.32423926
-0.27015548
-0.23635475
-0.19427227
-0.15410671
-0.11839591
-0.081719457
-0.040926498
0.00073734563
0.039581389
0.073099965
0.099820503
0.11954471
0.13285558
0.14074099
0.1442901
0.14453197
0.14233211
0.13841284
0.13332422
0.12747937
0.12118783
0.11467257
0.1080977
0.10156783
0.095160364
0.088927524
0.082902336
0.077101193
0.071537556
0.066206829
0.061107345
0.056237906
0.051591464
0.047159215
0.042930435
0.038897511
0.035051691
0.031382341
0.027880458
0.024537489
0.021345101
0.018295351
0.01538061
0.012593828
0.0099275448
0.0073765498
0.0049349394
0.0025962646
0.00035485375
-0.0017935873
-0.0038536733
-0.0058301423
-0.007726943
-0.009548238
-0.011297712
-0.012978841
-0.014594949
-0.016148605
-0.017642827
-0.01908059
-0.020464421
-0.02179671
-0.023079741
-0.024315674
-0.025506547
-0.026654292
-0.02776074
-0.028827622
-0.029856579
-0.030849159
-0.031806832
-0.032730969
-0.033622904
-0.034483903
-0.035315144
-0.036117798
-0.036892877
-0.037641678
-0.038364964
-0.039063614
-0.039738539
-0.040390503
-0.041020395
-0.04162899
-0.042217009
-0.04278514
-0.043334047
-0.043864361
-0.044376685
-0.044871596
-0.045349646
-0.04581136
-0.046257242
-0.046687694
-0.047103228
-0.047504339
-0.047891389
-0.048264783
-0.04862488
-0.04897214
-0.049306831
-0.049629291
-0.049939843
-0.05023868
-0.050526188
-0.050802688
-0.05106841
-0.051323591
-0.051568471
-0.051803276
-0.052028223
-0.05224352
-0.052449364
-0.052645946
-0.052833442
-0.053012019
-0.053181833
-0.053343036
-0.053495773
-0.05364018
-0.053776381
-0.053904492
-0.054024629
-0.054136899
-0.054241394
-0.054338202
-0.054427408
-0.05450909
-0.054583323
-0.054650174
-0.054709695
-0.054761931
-0.054806926
-0.054844722
-0.05487535
-0.054898814
-0.05491507
-0.054924425
-0.054925771
381.14842
381.14935
381.12331
381.07573
381.0046
380.91009
380.79216
380.6507
380.48559
380.29665
380.0837
379.84649
379.58477
379.29821
378.98649
378.64921
378.28595
377.89622
377.4795
377.0352
376.56271
376.06131
375.53025
374.9687
374.37576
373.75045
373.09171
372.39838
371.66923
370.9029
370.09799
369.25284
368.36605
367.43522
366.45976
365.43508
364.36385
363.23593
362.06135
360.82076
359.53125
358.16939
356.74448
355.25551
353.67615
352.04907
350.31349
348.51865
346.62672
344.6239
342.56256
340.36423
338.06707
335.68908
333.16076
330.5028
327.76246
324.87005
321.81327
318.64097
315.31852
311.83515
308.20029
304.3761
300.38615
296.23609
291.8765
287.35423
282.61351
277.64724
272.49166
267.14757
261.5655
255.77482
249.77772
243.53891
237.04977
230.35183
223.43946
216.29588
208.94032
201.36177
193.57014
185.56483
177.35218
168.97744
160.44302
151.78977
143.04184
134.16734
125.1404
115.96989
106.66491
97.238545
87.694517
78.076344
68.488558
58.989039
49.756728
41.130284
33.061745
26.158333
19.185995
12.13334
7.5900128
0.9025016
-0.62566283
-0.73178949
-0.32459582
-0.32777322
-0.36458776
-0.3269383
-0.27732604
-0.23831836
-0.26897201
-0.33775167
-0.32504304
-0.28087538
-0.23716589
-0.19911759
-0.16169269
-0.12665686
-0.091470237
-0.055824043
-0.020702404
0.012137517
0.040989486
0.064830452
0.083364311
0.096828259
0.10579443
0.11098605
0.1131441
0.11294171
0.11096583
0.1076935
0.10350543
0.098701654
0.093506576
0.088092994
0.082584152
0.077068261
0.071618679
0.066280663
0.061082114
0.056045284
0.051179591
0.046491389
0.041986785
0.037664848
0.03352069
0.029550549
0.025748964
0.022108778
0.018624745
0.015290425
0.012099066
0.0090441128
0.0061191923
0.0033181348
0.00063483719
-0.0019364578
-0.0044006374
-0.0067631876
-0.0090291936
-0.011202468
-0.013289047
-0.015292661
-0.017216627
-0.019064345
-0.020840655
-0.02254798
-0.024190194
-0.025769711
-0.027289626
-0.028752671
-0.030161175
-0.03151757
-0.03282417
-0.03408314
-0.03529652
-0.036466242
-0.037594132
-0.038681922
-0.039731255
-0.0407437
-0.041720735
-0.042663783
-0.043574085
-0.044452954
-0.045301615
-0.046121179
-0.046912845
-0.047677477
-0.048416435
-0.049130395
-0.049820193
-0.05048675
-0.051130748
-0.05175306
-0.052354475
-0.052935681
-0.05349734
-0.054040093
-0.054564552
-0.055071303
-0.05556091
-0.056033912
-0.056490817
-0.056932108
-0.057358213
-0.057769576
-0.058166745
-0.058550028
-0.058919838
-0.059276505
-0.059620493
-0.059952056
-0.060271508
-0.060579146
-0.060875309
-0.061160222
-0.061434356
-0.061697804
-0.06195079
-0.062193568
-0.062426372
-0.062649416
-0.062862904
-0.063067034
-0.063261991
-0.063447947
-0.063625065
-0.063793499
-0.0639534
-0.064104912
-0.064248169
-0.064383294
-0.064510392
-0.064629584
-0.064740972
-0.064844653
-0.064940705
-0.06502922
-0.065110278
-0.065183939
-0.065250266
-0.065309316
-0.065361149
-0.065405804
-0.065443312
-0.065473702
-0.065496983
-0.065513109
-0.065522387
-0.065523718
372.2361
372.23637
372.20939
372.16057
372.08793
371.99165
371.87167
371.72789
371.56016
371.36833
371.15219
370.9115
370.64599
370.35536
370.03924
369.69726
369.32896
368.93388
368.51146
368.06114
367.58225
367.0741
366.53591
365.96683
365.36595
364.73227
364.06472
363.3621
362.62317
361.84653
361.03074
360.17414
359.27521
358.33166
357.34254
356.30376
355.21695
354.07327
352.88083
351.62232
350.31333
348.93043
347.48555
345.97133
344.36913
342.71347
340.94915
339.12768
337.19918
335.16718
333.06783
330.82417
328.4958
326.0717
323.4841
320.7921
317.99583
315.03713
311.92301
308.69242
305.30504
301.74408