/*--------------------------------*- C++ -*----------------------------------*\
| =========                 |                                                 |
| \\      /  F ield         | OpenFOAM: The Open Source CFD Toolbox           |
|  \\    /   O peration     | Version:  2106                                  |
|   \\  /    A nd           | Website:  www.openfoam.com                      |
|    \\/     M anipulation  |                                                 |
\*---------------------------------------------------------------------------*/
FoamFile
{
    version     2.0;
    format      ascii;
    arch        "LSB;label=32;scalar=64";
    class       volVectorField;
    location    "0.08";
    object      U;
}
// * * * * * * * * * * * * * * * * * * * * * * * * * * * * * * * * * * * * * //

dimensions      [0 1 -1 0 0 0 0];

internalField   nonuniform List<vector> 
32768
(
(0.001531749 -0.0016351359 0)
(0.0054027482 -0.001790834 0)
(0.0094779557 -0.0018181529 0)
(0.013576871 -0.0018356572 0)
(0.017686183 -0.0018447025 0)
(0.021811511 -0.001852305 0)
(0.025953378 -0.0018608191 0)
(0.030114105 -0.0018707458 0)
(0.034296694 -0.0018821761 0)
(0.038504405 -0.0018953076 0)
(0.04274043 -0.0019106024 0)
(0.047010435 -0.0019310601 0)
(0.051318095 -0.001957358 0)
(0.055666048 -0.0019873662 0)
(0.060057148 -0.0020200927 0)
(0.064494434 -0.0020549974 0)
(0.068981056 -0.0020917759 0)
(0.073520291 -0.0021302671 0)
(0.078115545 -0.0021704025 0)
(0.082770344 -0.0022121734 0)
(0.087488326 -0.0022556109 0)
(0.092273232 -0.0023007718 0)
(0.097128909 -0.0023477294 0)
(0.1020593 -0.0023965667 0)
(0.10706846 -0.0024473732 0)
(0.11216053 -0.0025002385 0)
(0.11733976 -0.0025552611 0)
(0.12261047 -0.0026125126 0)
(0.12797718 -0.0026721386 0)
(0.13344422 -0.0027340697 0)
(0.13901676 -0.0027987905 0)
(0.14469819 -0.0028653845 0)
(0.15049633 -0.0029361959 0)
(0.15640949 -0.0030063583 0)
(0.16245567 -0.0030857887 0)
(0.16861523 -0.0031561759 0)
(0.17493559 -0.0032490442 0)
(0.18135587 -0.0033158296 0)
(0.18797473 -0.0034247965 0)
(0.19468399 -0.0034941268 0)
(0.20160174 -0.0036032368 0)
(0.20865607 -0.0036974325 0)
(0.21586054 -0.0037757573 0)
(0.22328868 -0.0039322787 0)
(0.23083621 -0.0039509186 0)
(0.23862671 -0.0041481049 0)
(0.24655164 -0.004244648 0)
(0.25471692 -0.0042860449 0)
(0.26307696 -0.0045174166 0)
(0.27159835 -0.0046056694 0)
(0.28039365 -0.0046446691 0)
(0.28938854 -0.0048803657 0)
(0.29858031 -0.0050347292 0)
(0.30803074 -0.0050644717 0)
(0.31769561 -0.005227064 0)
(0.32760583 -0.0054445092 0)
(0.33779959 -0.0055727761 0)
(0.34818893 -0.0056725462 0)
(0.35878378 -0.005817326 0)
(0.36973176 -0.0059958644 0)
(0.3809925 -0.0061930452 0)
(0.39239022 -0.0063450448 0)
(0.40400154 -0.0064452659 0)
(0.4160072 -0.0065915458 0)
(0.42833601 -0.0067985133 0)
(0.44085902 -0.0069885302 0)
(0.45361206 -0.007137189 0)
(0.46665653 -0.0072812137 0)
(0.47999525 -0.0074290896 0)
(0.49359981 -0.0075770392 0)
(0.50748063 -0.0077324988 0)
(0.52168663 -0.0079092044 0)
(0.5361613 -0.0081097626 0)
(0.55079924 -0.0082763081 0)
(0.56560255 -0.0083761793 0)
(0.58064468 -0.0084640345 0)
(0.59602549 -0.0085900446 0)
(0.61179161 -0.0087490172 0)
(0.62780555 -0.0088990071 0)
(0.64384588 -0.0089964934 0)
(0.65981731 -0.0090493918 0)
(0.67580229 -0.0091008491 0)
(0.69197008 -0.0091635918 0)
(0.70840847 -0.0092193272 0)
(0.72502109 -0.009239413 0)
(0.74161398 -0.009193538 0)
(0.75802386 -0.0090792171 0)
(0.77414134 -0.0089227989 0)
(0.78991781 -0.0087521891 0)
(0.80537422 -0.0085845848 0)
(0.82055695 -0.0084442855 0)
(0.83552646 -0.008328841 0)
(0.85034078 -0.0082265173 0)
(0.86492513 -0.008064289 0)
(0.87897932 -0.0076785418 0)
(0.89195413 -0.0070555631 0)
(0.90335093 -0.0061121532 0)
(0.9131683 -0.0051944109 0)
(0.92193396 -0.0046967365 0)
(0.93049729 -0.0045714455 0)
(0.93966723 -0.0047322301 0)
(0.94978249 -0.005001965 0)
(0.96026395 -0.0044188194 0)
(0.96920912 -0.0021119103 0)
(0.9725487 -7.9026431e-05 0)
(0.97258737 0.00052184029 0)
(0.9712364 0.00078778443 0)
(0.96909464 0.0010831246 0)
(0.96670188 0.0012804074 0)
(0.96491773 0.0014038076 0)
(0.96421015 0.0014607006 0)
(0.96411561 0.0016588748 0)
(0.96456969 0.0015218561 0)
(0.96562632 0.00055854322 0)
(0.96718195 -0.00063875727 0)
(0.96891629 -0.0016899476 0)
(0.97132254 -0.0029715744 0)
(0.97444409 -0.0044171464 0)
(0.9785427 -0.0056344263 0)
(0.98422167 -0.0066539722 0)
(0.99193683 -0.0076808116 0)
(1.0016494 -0.0090190806 0)
(1.0125975 -0.011578938 0)
(1.0245301 -0.014846479 0)
(1.0279192 -0.016199949 0)
(1.0046367 -0.014507737 0)
(0.89315704 0.086833155 0)
(0.6190175 0.11041072 0)
(0.44558815 0.072751097 0)
(0.35631752 0.040019116 0)
(0.2940615 0.023502033 0)
(0.25233164 0.015157418 0)
(0.22234962 0.010708941 0)
(0.19941368 0.0080751734 0)
(0.181006 0.0064150177 0)
(0.16578048 0.0052983318 0)
(0.15285534 0.0044363756 0)
(0.14167011 0.0040162312 0)
(0.13190056 0.0033758501 0)
(0.12322098 0.0031013823 0)
(0.11544412 0.0026413091 0)
(0.10845905 0.0024873056 0)
(0.10214826 0.0021584614 0)
(0.096398518 0.0019319693 0)
(0.091140651 0.0017491203 0)
(0.086308427 0.0016008926 0)
(0.081849588 0.0014683687 0)
(0.077728938 0.0013477622 0)
(0.073910694 0.0012410702 0)
(0.070361767 0.0011470193 0)
(0.067058005 0.0010624074 0)
(0.063971698 0.00099099598 0)
(0.061081534 0.00092326395 0)
(0.058373428 0.00085961678 0)
(0.055830683 0.00080207026 0)
(0.053439077 0.00075019343 0)
(0.051186059 0.00070311385 0)
(0.04906039 0.00066022147 0)
(0.047052055 0.00062116303 0)
(0.045151455 0.00058601278 0)
(0.043348929 0.00055579474 0)
(0.041648993 0.00048081415 0)
(0.040035804 0.00048742839 0)
(0.038496194 0.00046539872 0)
(0.037032471 0.00044074218 0)
(0.035639508 0.00037831889 0)
(0.034308713 0.00039017628 0)
(0.033048312 0.00037929957 0)
(0.031846595 0.00036134444 0)
(0.030693841 0.00037467156 0)
(0.029591166 0.00032936986 0)
(0.028538546 0.00030598056 0)
(0.027532576 0.00029118801 0)
(0.026568489 0.00027837993 0)
(0.025644967 0.00026615063 0)
(0.024759435 0.00025448202 0)
(0.023909755 0.00024336054 0)
(0.023094106 0.0002327863 0)
(0.022310793 0.00022275959 0)
(0.02155819 0.00021326711 0)
(0.02083474 0.00020428427 0)
(0.020138967 0.00019578088 0)
(0.019469479 0.00018772337 0)
(0.018824963 0.00018007346 0)
(0.018204155 0.00017278596 0)
(0.017606004 0.0001658497 0)
(0.017028678 0.00015989348 0)
(0.016473382 0.00016852214 0)
(0.015938488 0.00014911136 0)
(0.01542102 0.00014196575 0)
(0.014921155 0.00013650089 0)
(0.01443816 0.00013142384 0)
(0.013971476 0.00012659398 0)
(0.013520377 0.00012199397 0)
(0.013084178 0.00011759618 0)
(0.012662263 0.00011339669 0)
(0.012254012 0.00010940754 0)
(0.011858693 0.00010563798 0)
(0.011475785 0.0001019741 0)
(0.0111049 9.8453063e-05 0)
(0.010745489 9.508911e-05 0)
(0.010397061 9.1890445e-05 0)
(0.010058855 8.9287672e-05 0)
(0.0097316087 9.4619149e-05 0)
(0.0094143202 8.4025106e-05 0)
(0.0091054907 8.0613567e-05 0)
(0.008805461 7.8022992e-05 0)
(0.0085138975 7.558796e-05 0)
(0.0082305698 7.3253996e-05 0)
(0.0079551576 7.1021286e-05 0)
(0.0076873377 6.8891644e-05 0)
(0.0074267637 6.6836664e-05 0)
(0.0071733083 6.4479825e-05 0)
(0.0069260772 5.6676907e-05 0)
(0.0066852528 6.0187727e-05 0)
(0.0064503956 5.3623015e-05 0)
(0.0062211991 5.7332239e-05 0)
(0.0059980226 5.6414647e-05 0)
(0.0057801009 5.5264156e-05 0)
(0.0055684361 5.3934808e-05 0)
(0.0053617646 5.2197541e-05 0)
(0.0051584944 5.4372153e-05 0)
(0.0049598926 4.9092844e-05 0)
(0.0047661496 4.7871075e-05 0)
(0.004576535 4.6860878e-05 0)
(0.0043907809 4.5825621e-05 0)
(0.0042088125 4.4801749e-05 0)
(0.0040304919 4.3812304e-05 0)
(0.0038556606 4.2865838e-05 0)
(0.0036841402 4.1952896e-05 0)
(0.0035158264 4.0888554e-05 0)
(0.0033503023 3.7298502e-05 0)
(0.0031875984 3.9240692e-05 0)
(0.0030277865 3.8743539e-05 0)
(0.0028704949 3.8055916e-05 0)
(0.0027156327 3.739408e-05 0)
(0.002563022 3.6893701e-05 0)
(0.002412772 3.8225754e-05 0)
(0.0022645816 3.5750233e-05 0)
(0.0021181273 3.5035035e-05 0)
(0.0019734796 3.4418357e-05 0)
(0.001830181 3.3883053e-05 0)
(0.0016884319 3.3572018e-05 0)
(0.0015483897 3.3350068e-05 0)
(0.0014095898 3.3185946e-05 0)
(0.001271937 3.4004672e-05 0)
(0.0011353089 3.2650077e-05 0)
(0.00099970659 3.1496687e-05 0)
(0.00086492686 3.211736e-05 0)
(0.00073077057 3.2558561e-05 0)
(0.00059719694 3.1820432e-05 0)
(0.00046402476 3.1663653e-05 0)
(0.00033186306 3.1212243e-05 0)
(0.00020527232 2.9449552e-05 0)
(8.8210655e-05 2.3642056e-05 0)
(1.2512198e-05 1.236867e-05 0)
(0.0015530791 -0.005282461 0)
(0.0058304522 -0.0062160786 0)
(0.010400014 -0.0063425725 0)
(0.014937387 -0.0063807871 0)
(0.019494037 -0.0064028148 0)
(0.024062991 -0.0064249727 0)
(0.028647563 -0.0064510536 0)
(0.033250854 -0.006481774 0)
(0.037875967 -0.00651726 0)
(0.042525973 -0.0065577583 0)
(0.047204271 -0.0066039515 0)
(0.051911949 -0.0066535594 0)
(0.056650406 -0.0067047867 0)
(0.061423829 -0.0067588704 0)
(0.066236024 -0.0068165714 0)
(0.071090863 -0.0068785002 0)
(0.075992193 -0.0069451183 0)
(0.08094386 -0.0070167717 0)
(0.085949734 -0.0070937241 0)
(0.091013717 -0.0071761818 0)
(0.096139755 -0.0072643126 0)
(0.10133184 -0.0073582607 0)
(0.10659401 -0.0074581561 0)
(0.11193036 -0.0075641207 0)
(0.11734507 -0.0076762741 0)
(0.12284235 -0.0077947285 0)
(0.12842657 -0.0079196122 0)
(0.13410194 -0.008050996 0)
(0.13987344 -0.0081891246 0)
(0.14574417 -0.0083337214 0)
(0.15172262 -0.0084859512 0)
(0.15780366 -0.0086431537 0)
(0.16401582 -0.0088121059 0)
(0.17030972 -0.0089777137 0)
(0.17680679 -0.0091714601 0)
(0.18327595 -0.0093347932 0)
(0.19016869 -0.0095620827 0)
(0.19670057 -0.0097353226 0)
(0.20417166 -0.0099304457 0)
(0.21063578 -0.010291378 0)
(0.21878179 -0.010133928 0)
(0.22531058 -0.011089362 0)
(0.23377707 -0.01030985 0)
(0.24097342 -0.011640996 0)
(0.24919501 -0.011135319 0)
(0.25741945 -0.011528777 0)
(0.26550243 -0.012264006 0)
(0.27432223 -0.011981057 0)
(0.28292553 -0.012431528 0)
(0.29183416 -0.012990652 0)
(0.30112295 -0.013016139 0)
(0.31036449 -0.013379271 0)
(0.32003206 -0.013766242 0)
(0.32992077 -0.01401497 0)
(0.33980104 -0.014490831 0)
(0.35016975 -0.014746731 0)
(0.36088598 -0.014992432 0)
(0.37152187 -0.01539107 0)
(0.38237196 -0.01594944 0)
(0.39391459 -0.016243643 0)
(0.40561582 -0.016418343 0)
(0.41715061 -0.01684679 0)
(0.42915407 -0.017343826 0)
(0.44177454 -0.017748021 0)
(0.45444183 -0.018128533 0)
(0.46719688 -0.0184659 0)
(0.48034004 -0.018750538 0)
(0.49385301 -0.019175091 0)
(0.50766047 -0.019613459 0)
(0.52161269 -0.020042084 0)
(0.53585665 -0.020524444 0)
(0.55054678 -0.020856505 0)
(0.56539252 -0.021091801 0)
(0.58033679 -0.021317346 0)
(0.59554544 -0.02158251 0)
(0.61107358 -0.022077327 0)
(0.62710708 -0.022721974 0)
(0.64358935 -0.023169739 0)
(0.66006635 -0.023278851 0)
(0.67630654 -0.023153635 0)
(0.69246185 -0.023048222 0)
(0.70888306 -0.023220044 0)
(0.72588049 -0.023613832 0)
(0.74336945 -0.023961604 0)
(0.76093884 -0.024090396 0)
(0.77828892 -0.023950904 0)
(0.79530466 -0.023595884 0)
(0.81191093 -0.023130679 0)
(0.82817809 -0.022655359 0)
(0.84424386 -0.022234358 0)
(0.8602087 -0.021862745 0)
(0.87627633 -0.021671609 0)
(0.89266487 -0.021352997 0)
(0.90917242 -0.020683106 0)
(0.92514034 -0.019455724 0)
(0.93920723 -0.017293673 0)
(0.95093512 -0.015100094 0)
(0.96075787 -0.013544157 0)
(0.96998468 -0.012766433 0)
(0.98031942 -0.013120063 0)
(0.99251543 -0.014659712 0)
(1.0058098 -0.01609653 0)
(1.0186846 -0.015016468 0)
(1.0298664 -0.01017576 0)
(1.0379348 -0.0037297981 0)
(1.0413292 0.00097088741 0)
(1.0409548 0.0029802073 0)
(1.0396218 0.0033604433 0)
(1.0380675 0.0028113697 0)
(1.0380366 0.0010350494 0)
(1.0407106 -0.00065872507 0)
(1.0455091 -0.0020024051 0)
(1.0512773 -0.0029190716 0)
(1.0566259 -0.0031303747 0)
(1.0593803 -0.0028678829 0)
(1.0605765 -0.0026745958 0)
(1.060939 -0.0025901414 0)
(1.0607245 -0.0025321809 0)
(1.0607254 -0.0041280393 0)
(1.0629264 -0.0067887603 0)
(1.066702 -0.010106542 0)
(1.068995 -0.012927846 0)
(1.0663328 -0.013581437 0)
(1.0525737 -0.01038686 0)
(1.0101402 -0.0042692596 0)
(0.99112577 0.22350535 0)
(0.73397137 0.30697724 0)
(0.58563189 0.2782068 0)
(0.51190918 0.1875862 0)
(0.45007234 0.11689362 0)
(0.3988134 0.077047865 0)
(0.35731369 0.054742799 0)
(0.3234001 0.041322075 0)
(0.29520126 0.033095499 0)
(0.2714593 0.02719178 0)
(0.25115205 0.022908477 0)
(0.23349145 0.019780079 0)
(0.21799363 0.01707005 0)
(0.20426327 0.015150439 0)
(0.19196352 0.013522092 0)
(0.18089063 0.012213032 0)
(0.1708363 0.010908277 0)
(0.16168147 0.0099892972 0)
(0.15327407 0.009162689 0)
(0.14554712 0.0084159535 0)
(0.13841061 0.007764224 0)
(0.1317844 0.0071775238 0)
(0.12563093 0.0066537862 0)
(0.11990465 0.0061844846 0)
(0.11455647 0.0057621647 0)
(0.10955762 0.00537758 0)
(0.10486562 0.0050346555 0)
(0.10044895 0.0047194409 0)
(0.096294382 0.0044339872 0)
(0.092379932 0.0041728657 0)
(0.088684054 0.0039328034 0)
(0.085188876 0.0037118164 0)
(0.081879034 0.0035080878 0)
(0.078741532 0.0033199415 0)
(0.075763107 0.0031461929 0)
(0.072936586 0.0029857242 0)
(0.070242939 0.0028389135 0)
(0.067669909 0.0026988543 0)
(0.065226647 0.0025649821 0)
(0.062897496 0.0024373756 0)
(0.060672216 0.0023665336 0)
(0.058549054 0.0022329203 0)
(0.056515743 0.002085864 0)
(0.054563989 0.0020188359 0)
(0.052700965 0.0019007546 0)
(0.050913018 0.0018443577 0)
(0.049203237 0.0017696587 0)
(0.047564996 0.0016966431 0)
(0.045988755 0.001625182 0)
(0.044474405 0.0015582798 0)
(0.043018756 0.0014955345 0)
(0.041618663 0.0014361627 0)
(0.040271349 0.0013797885 0)
(0.038974304 0.0013262287 0)
(0.03772514 0.0012753508 0)
(0.036521553 0.0012270239 0)
(0.035361343 0.0011811119 0)
(0.034242415 0.0011374827 0)
(0.03316278 0.0010960199 0)
(0.03212049 0.0010566502 0)
(0.031113774 0.0010193473 0)
(0.030140398 0.00098363502 0)
(0.029202923 0.00093030336 0)
(0.028297421 0.00091251999 0)
(0.027418951 0.00088421011 0)
(0.026568669 0.00085487352 0)
(0.025745728 0.00082636538 0)
(0.024949001 0.00079902295 0)
(0.02417727 0.00077290081 0)
(0.023429477 0.00074785932 0)
(0.022704729 0.00072386593 0)
(0.022002118 0.00070098717 0)
(0.02132037 0.00067931739 0)
(0.020658677 0.00065826503 0)
(0.020016561 0.00063806904 0)
(0.019393084 0.00061883824 0)
(0.018787368 0.00060052996 0)
(0.018198485 0.00058249039 0)
(0.017627882 0.00055499438 0)
(0.017073352 0.00054771776 0)
(0.01653233 0.00053353789 0)
(0.016005742 0.00051870178 0)
(0.015493222 0.00050422461 0)
(0.014994262 0.00049027161 0)
(0.014508332 0.00047687102 0)
(0.014034913 0.00046401359 0)
(0.01357348 0.00045165571 0)
(0.013123533 0.00044015442 0)
(0.012684142 0.00043584221 0)
(0.012255354 0.00041904597 0)
(0.011836408 0.00041471961 0)
(0.011427206 0.00039864233 0)
(0.011028028 0.00038839768 0)
(0.010637901 0.00037916784 0)
(0.010255233 0.00036535941 0)
(0.0098803143 0.00036149831 0)
(0.0095162445 0.00035321064 0)
(0.0091599972 0.00034581313 0)
(0.0088089493 0.00033875769 0)
(0.0084647455 0.0003318224 0)
(0.0081272972 0.00032507553 0)
(0.0077963164 0.0003185839 0)
(0.0074714849 0.00031237535 0)
(0.007152512 0.00030645005 0)
(0.0068391109 0.00030080927 0)
(0.0065309806 0.00029567845 0)
(0.0062276359 0.00029388075 0)
(0.0059290581 0.00028594247 0)
(0.005635224 0.00028107437 0)
(0.0053456921 0.00027677532 0)
(0.0050601909 0.00027272196 0)
(0.0047784912 0.00026868381 0)
(0.0045008049 0.00026267372 0)
(0.0042265218 0.00026154133 0)
(0.003955003 0.00025857585 0)
(0.0036864181 0.00025564217 0)
(0.0034209944 0.0002544703 0)
(0.0031582077 0.00025031288 0)
(0.0028974539 0.00024788348 0)
(0.0026389105 0.00024566377 0)
(0.0023824183 0.00024259877 0)
(0.0021277514 0.00024210426 0)
(0.0018744562 0.0002407637 0)
(0.0016225641 0.00023933773 0)
(0.0013722151 0.00023740852 0)
(0.0011229288 0.0002370579 0)
(0.00087472794 0.00023594617 0)
(0.00062874728 0.00023064462 0)
(0.0003921545 0.00021492983 0)
(0.00017415897 0.0001730495 0)
(2.4095093e-05 8.8370629e-05 0)
(0.0015535798 -0.0089694019 0)
(0.0058177946 -0.010662855 0)
(0.010361707 -0.010875219 0)
(0.014880669 -0.0109216 0)
(0.019419003 -0.010953037 0)
(0.023969368 -0.010988759 0)
(0.028534952 -0.01103159 0)
(0.033118817 -0.011082081 0)
(0.037723987 -0.011140432 0)
(0.042353527 -0.011206793 0)
(0.047010472 -0.011281211 0)
(0.051698072 -0.011363887 0)
(0.056419933 -0.011455354 0)
(0.061179471 -0.011555953 0)
(0.065979931 -0.011665794 0)
(0.070824675 -0.011784954 0)
(0.075717172 -0.011913503 0)
(0.080660975 -0.012051513 0)
(0.085659702 -0.012199075 0)
(0.090717035 -0.012356296 0)
(0.095836717 -0.012523305 0)
(0.10102256 -0.012700248 0)
(0.10627843 -0.012887289 0)
(0.11160829 -0.01308461 0)
(0.11701617 -0.013292405 0)
(0.12250617 -0.013510881 0)
(0.12808257 -0.013740257 0)
(0.13374945 -0.013980752 0)
(0.13951181 -0.014232606 0)
(0.14537237 -0.014496014 0)
(0.15134044 -0.014771278 0)
(0.15740847 -0.015058473 0)
(0.16361114 -0.015358007 0)
(0.16988343 -0.015670016 0)
(0.17638409 -0.015993677 0)
(0.18279765 -0.016334027 0)
(0.18975298 -0.016675071 0)
(0.19611908 -0.017062637 0)
(0.20381178 -0.01738513 0)
(0.20990649 -0.017894472 0)
(0.21844788 -0.018071617 0)
(0.22455115 -0.018899404 0)
(0.23325609 -0.01870428 0)
(0.24040211 -0.019992355 0)
(0.24844164 -0.019494903 0)
(0.25674058 -0.020833982 0)
(0.26490231 -0.020847886 0)
(0.27353055 -0.021242635 0)
(0.28193485 -0.022318898 0)
(0.29130603 -0.022374573 0)
(0.30027693 -0.022825975 0)
(0.30916103 -0.023948483 0)
(0.31921263 -0.024220454 0)
(0.32917649 -0.024452722 0)
(0.33869118 -0.02553666 0)
(0.34891572 -0.026208514 0)
(0.3597095 -0.026574575 0)
(0.37061898 -0.027023928 0)
(0.38135451 -0.028025698 0)
(0.39240896 -0.028813852 0)
(0.40400468 -0.029215967 0)
(0.41592311 -0.029722242 0)
(0.42807945 -0.030709975 0)
(0.44036679 -0.03151314 0)
(0.45272662 -0.032007412 0)
(0.46547269 -0.032635979 0)
(0.47864601 -0.033407722 0)
(0.49212946 -0.034312585 0)
(0.50609478 -0.034940327 0)
(0.52017279 -0.035502406 0)
(0.5341674 -0.036329715 0)
(0.54838644 -0.03707248 0)
(0.56296483 -0.037636818 0)
(0.57805127 -0.038116617 0)
(0.59365163 -0.038700685 0)
(0.60951072 -0.039666145 0)
(0.62558446 -0.040771064 0)
(0.64177341 -0.041337344 0)
(0.65779748 -0.041231811 0)
(0.67362852 -0.040976035 0)
(0.68961982 -0.041196855 0)
(0.70629423 -0.04212353 0)
(0.72387981 -0.043243921 0)
(0.74196333 -0.043862585 0)
(0.75977899 -0.043765005 0)
(0.77695324 -0.043149979 0)
(0.79361771 -0.042275104 0)
(0.81008957 -0.041368475 0)
(0.82653701 -0.04065059 0)
(0.84287343 -0.040150472 0)
(0.85887537 -0.040030138 0)
(0.87460262 -0.040333138 0)
(0.89043985 -0.04069326 0)
(0.90683315 -0.040100561 0)
(0.9234368 -0.037320701 0)
(0.93910121 -0.032500496 0)
(0.95258816 -0.027300461 0)
(0.96344225 -0.023904383 0)
(0.97301266 -0.023905285 0)
(0.98332444 -0.026726298 0)
(0.99483903 -0.029846117 0)
(1.0063105 -0.030734274 0)
(1.0165531 -0.027934092 0)
(1.0252746 -0.021060797 0)
(1.0324169 -0.01155655 0)
(1.0372619 -0.0026440069 0)
(1.0394265 0.0027942968 0)
(1.0402035 0.0042558429 0)
(1.0413472 0.0029339521 0)
(1.0442391 -0.0010905381 0)
(1.0488306 -0.0063921902 0)
(1.0536526 -0.0094537826 0)
(1.0578275 -0.0093891726 0)
(1.0600373 -0.007120915 0)
(1.0602052 -0.00455303 0)
(1.0597853 -0.0032829006 0)
(1.0596815 -0.0033560678 0)
(1.0607461 -0.0049483865 0)
(1.0638424 -0.0081991486 0)
(1.0678462 -0.012427909 0)
(1.0696364 -0.015591909 0)
(1.063538 -0.0099044057 0)
(1.0397287 0.0026395269 0)
(0.99299032 0.013590943 0)
(0.88837317 0.062264055 0)
(0.65730945 0.36273459 0)
(0.56239779 0.42139443 0)
(0.53468008 0.34125546 0)
(0.50105802 0.22885283 0)
(0.46209199 0.16094375 0)
(0.42158705 0.11860486 0)
(0.3846639 0.091185742 0)
(0.3523396 0.072766806 0)
(0.32430023 0.05948076 0)
(0.30000771 0.050015504 0)
(0.2787821 0.042841145 0)
(0.26008638 0.037266404 0)
(0.24351885 0.032802293 0)
(0.22868335 0.029166057 0)
(0.21532591 0.026150638 0)
(0.20327601 0.023609134 0)
(0.19231249 0.021433333 0)
(0.18225369 0.019559922 0)
(0.17301461 0.017937357 0)
(0.16450782 0.016466282 0)
(0.15663556 0.015325221 0)
(0.14933172 0.014148973 0)
(0.14253606 0.013128776 0)
(0.13619285 0.012224718 0)
(0.13026167 0.011417142 0)
(0.12469797 0.010662692 0)
(0.11947306 0.010085776 0)
(0.11456887 0.0094348663 0)
(0.10994376 0.0088650354 0)
(0.1055743 0.0083525654 0)
(0.10144289 0.0078844629 0)
(0.097532208 0.0074539707 0)
(0.093825558 0.0070564804 0)
(0.090308758 0.0066882471 0)
(0.086966563 0.0063461654 0)
(0.083793012 0.0060249711 0)
(0.080766445 0.0057298229 0)
(0.077874818 0.0054560864 0)
(0.075122841 0.0051995435 0)
(0.072498526 0.0049618538 0)
(0.069989859 0.0046934599 0)
(0.067592503 0.0045040683 0)
(0.065294864 0.0043517741 0)
(0.063092434 0.0041376808 0)
(0.060984111 0.0039924539 0)
(0.058963862 0.0038037628 0)
(0.05702365 0.0036067708 0)
(0.055155215 0.0034811951 0)
(0.053365547 0.0033435614 0)
(0.051647775 0.003211714 0)
(0.04999412 0.0030872109 0)
(0.048401693 0.0029688631 0)
(0.046867842 0.0028561455 0)
(0.045389945 0.0027487924 0)
(0.043965424 0.0026466083 0)
(0.042591783 0.00254939 0)
(0.041266626 0.0024569028 0)
(0.039987677 0.0023688983 0)
(0.038752802 0.002285144 0)
(0.037560062 0.0022054604 0)
(0.03640763 0.0021297051 0)
(0.035294239 0.0020575919 0)
(0.034215439 0.0019863415 0)
(0.033170553 0.0019203501 0)
(0.032161596 0.0018569576 0)
(0.031184851 0.0017963328 0)
(0.030238452 0.0017382721 0)
(0.029321182 0.0016827169 0)
(0.028431732 0.001629641 0)
(0.027569016 0.0015786133 0)
(0.026732232 0.0015296016 0)
(0.025920586 0.0014828727 0)
(0.025132158 0.0014387981 0)
(0.02436626 0.0013956171 0)
(0.02362284 0.0013541285 0)
(0.022900553 0.0013145998 0)
(0.022198549 0.0012769255 0)
(0.021516181 0.001240796 0)
(0.020851103 0.0012049615 0)
(0.020203454 0.0011719096 0)
(0.019574327 0.00113985 0)
(0.018961638 0.0011089643 0)
(0.018364581 0.0010791954 0)
(0.017782626 0.0010505397 0)
(0.017215265 0.0010230065 0)
(0.016661885 0.0009966227 0)
(0.01612183 0.00097133113 0)
(0.015594355 0.00094708421 0)
(0.015080221 0.00092390751 0)
(0.014578162 0.00090143916 0)
(0.014087178 0.0008805683 0)
(0.013607477 0.00085954719 0)
(0.013137867 0.0008397778 0)
(0.012678545 0.0008211088 0)
(0.01222845 0.00080821003 0)
(0.011787725 0.00078600656 0)
(0.011356604 0.00076342728 0)
(0.010934074 0.00075239077 0)
(0.010519814 0.00073776907 0)
(0.010113327 0.00072320323 0)
(0.0097143127 0.00070913171 0)
(0.0093224991 0.00069564287 0)
(0.0089375765 0.00068276673 0)
(0.0085592146 0.0006705002 0)
(0.0081870899 0.00065883225 0)
(0.0078208755 0.00064775468 0)
(0.0074607837 0.00063725113 0)
(0.0071061842 0.00062724439 0)
(0.0067563069 0.00061775027 0)
(0.0064113435 0.00060878213 0)
(0.0060710948 0.00060031891 0)
(0.0057353001 0.00059230451 0)
(0.0054033292 0.00058457293 0)
(0.0050751983 0.00057765454 0)
(0.0047509922 0.00057103893 0)
(0.0044301272 0.00056468797 0)
(0.004112583 0.00055715568 0)
(0.003797968 0.00055349299 0)
(0.0034858505 0.00054876092 0)
(0.0031762097 0.00054436625 0)
(0.0028688966 0.00054139947 0)
(0.0025636696 0.0005366663 0)
(0.0022600791 0.00053338977 0)
(0.0019581176 0.00053053232 0)
(0.0016576527 0.00052802437 0)
(0.0013584511 0.00052569521 0)
(0.0010608912 0.00052196116 0)
(0.00076593383 0.00051140637 0)
(0.00048111094 0.00047857759 0)
(0.0002172722 0.00039174655 0)
(3.004583e-05 0.00020669346 0)
(0.0015536222 -0.012638512 0)
(0.0058097788 -0.015083819 0)
(0.010342734 -0.015387158 0)
(0.014853385 -0.015452649 0)
(0.019384046 -0.015496375 0)
(0.023926539 -0.015545997 0)
(0.028483915 -0.015605551 0)
(0.03305936 -0.015675801 0)
(0.037655993 -0.015756984 0)
(0.042276932 -0.015849242 0)
(0.046925316 -0.015952674 0)
(0.0516044 -0.016067292 0)
(0.056317571 -0.016193199 0)
(0.061068212 -0.016330638 0)
(0.065859673 -0.016479776 0)
(0.070695337 -0.016640745 0)
(0.075578646 -0.016813691 0)
(0.080513099 -0.01699879 0)
(0.085502264 -0.017196255 0)
(0.090549783 -0.017406334 0)
(0.09565938 -0.017629312 0)
(0.10083485 -0.017865497 0)
(0.10608007 -0.018115211 0)
(0.11139899 -0.018378782 0)
(0.11679566 -0.018656543 0)
(0.12227419 -0.018948826 0)
(0.12783887 -0.019255958 0)
(0.13349379 -0.01957828 0)
(0.13924396 -0.019916072 0)
(0.14509218 -0.02026978 0)
(0.15104759 -0.02063934 0)
(0.15710322 -0.021026098 0)
(0.16329221 -0.021427571 0)
(0.16955382 -0.021851003 0)
(0.17603613 -0.022280114 0)
(0.18244816 -0.022752012 0)
(0.18936835 -0.023190032 0)
(0.19575636 -0.023744474 0)
(0.2033913 -0.024142052 0)
(0.20950196 -0.024854711 0)
(0.21806744 -0.025103086 0)
(0.2239691 -0.026149076 0)
(0.23308075 -0.025989304 0)
(0.23957966 -0.027653633 0)
(0.2482903 -0.026993768 0)
(0.25611994 -0.028789556 0)
(0.26431203 -0.028940099 0)
(0.27321076 -0.02922545 0)
(0.28134174 -0.030755061 0)
(0.29067041 -0.031168456 0)
(0.29984939 -0.031359863 0)
(0.30865382 -0.032650518 0)
(0.31855352 -0.033757789 0)
(0.32859934 -0.033952536 0)
(0.33819532 -0.034621339 0)
(0.34836725 -0.035807218 0)
(0.3590442 -0.037099758 0)
(0.37001133 -0.037448586 0)
(0.3809016 -0.037975511 0)
(0.39176636 -0.039155768 0)
(0.40324047 -0.040443517 0)
(0.41554111 -0.04122748 0)
(0.42769298 -0.042121519 0)
(0.43957257 -0.0428029 0)
(0.4518861 -0.043696178 0)
(0.46503481 -0.044809796 0)
(0.47843932 -0.045778227 0)
(0.49174331 -0.047156665 0)
(0.50545782 -0.048195129 0)
(0.51952034 -0.048619829 0)
(0.53356272 -0.049230197 0)
(0.5478994 -0.050217895 0)
(0.56272182 -0.051368914 0)
(0.57804907 -0.052507302 0)
(0.59374855 -0.053557645 0)
(0.6094895 -0.05460607 0)
(0.62517289 -0.055588627 0)
(0.64097057 -0.055956406 0)
(0.65707788 -0.055693529 0)
(0.67350145 -0.055543309 0)
(0.69027815 -0.056350092 0)
(0.70749988 -0.058166113 0)
(0.72530111 -0.059943352 0)
(0.7432065 -0.060500434 0)
(0.76047348 -0.059698449 0)
(0.77696103 -0.058389299 0)
(0.79305565 -0.057351627 0)
(0.80949276 -0.056663521 0)
(0.82681115 -0.056057231 0)
(0.84495864 -0.055178773 0)
(0.86298006 -0.054244295 0)
(0.87989101 -0.053882089 0)
(0.89524133 -0.054267255 0)
(0.90976004 -0.054318348 0)
(0.92433077 -0.052259563 0)
(0.93902576 -0.046936097 0)
(0.95308498 -0.039798623 0)
(0.96572508 -0.034399183 0)
(0.97730914 -0.033167375 0)
(0.98876303 -0.035434218 0)
(1.0002951 -0.038120627 0)
(1.0111171 -0.038204275 0)
(1.020024 -0.03426964 0)
(1.026495 -0.026355065 0)
(1.0312807 -0.015922996 0)
(1.0354638 -0.0059566161 0)
(1.0398116 0.00031882326 0)
(1.0449648 0.001329723 0)
(1.0507417 -0.0016639404 0)
(1.0569187 -0.006346595 0)
(1.0610671 -0.0095194488 0)
(1.0625429 -0.010408246 0)
(1.0622649 -0.0095235297 0)
(1.0598606 -0.0057296093 0)
(1.0575048 -0.0027047775 0)
(1.0568194 -0.0024137011 0)
(1.0571688 -0.0037515507 0)
(1.059251 -0.007544151 0)
(1.061638 -0.012046449 -1.1841369e-34)
(1.058 -0.015751477 -5.5811941e-30)
(1.0454939 -0.0065431434 0)
(1.0142113 0.011739573 0)
(0.96765008 0.032037022 0)
(0.88672534 0.15517668 0)
(0.60257568 0.35487053 0)
(0.47704693 0.47528606 0)
(0.47339434 0.44650595 0)
(0.47905302 0.34554633 0)
(0.46803355 0.25642099 -9.195516e-35)
(0.44139309 0.1960637 -1.7203379e-29)
(0.4108082 0.15396435 -4.0019493e-34)
(0.38068379 0.12344125 -2.3644027e-29)
(0.35266014 0.10141581 0)
(0.32727218 0.084992024 0)
(0.30451285 0.072471249 0)
(0.28418055 0.062676826 0)
(0.26599271 0.054889985 0)
(0.24966521 0.048524982 0)
(0.23492734 0.043366482 -2.5280645e-34)
(0.22157365 0.038833493 -1.2963631e-29)
(0.2094389 0.035202492 0)
(0.19835439 0.032046132 0)
(0.18815651 0.029299658 0)
(0.17877196 0.026912109 0)
(0.17009318 0.02480621 0)
(0.16204919 0.022956001 0)
(0.15460618 0.021299405 0)
(0.14766377 0.01981469 0)
(0.14116608 0.018480037 0)
(0.13508311 0.017270772 0)
(0.1293696 0.016198509 -1.043767e-34)
(0.12400154 0.015124088 -5.4952725e-30)
(0.11896101 0.014260843 0)
(0.11420321 0.013447326 0)
(0.10970555 0.012691304 0)
(0.10545074 0.011992661 0)
(0.10142114 0.011347187 0)
(0.097600021 0.010749864 0)
(0.093972024 0.010195865 0)
(0.090523791 0.0096819225 0)
(0.087241645 0.0091919178 5.9973749e-35)
(0.084116753 0.0088017727 3.1976159e-30)
(0.081140301 0.0083540831 0)
(0.078298424 0.0079565466 0)
(0.075584195 0.0075838788 4.9435992e-35)
(0.072988813 0.0072849048 2.6434915e-30)
(0.070501425 0.0069343401 0)
(0.068124554 0.0066251006 0)
(0.065848289 0.0063384016 0)
(0.063667847 0.0060720973 0)
(0.061583341 0.0058171784 3.7791097e-35)
(0.059573353 0.0056143564 2.0277086e-30)
(0.057634708 0.005368604 0)
(0.055777596 0.0051462126 0)
(0.053996668 0.0049439773 0)
(0.052280701 0.0047535744 0)
(0.050627857 0.0045732049 0)
(0.049035833 0.0044017582 0)
(0.047501786 0.0042385031 0)
(0.046022864 0.0040830383 0)
(0.04459641 0.0039350463 0)
(0.043219928 0.0037941703 0)
(0.041891079 0.0036600182 0)
(0.040607662 0.0035321952 0)
(0.039367648 0.003410314 0)
(0.038169034 0.0032939416 0)
(0.037010314 0.0031823649 0)
(0.035888316 0.0030743126 0)
(0.034801789 0.0029734866 0)
(0.033750941 0.0028774961 0)
(0.032733423 0.0027853423 0)
(0.031747546 0.0026969078 0)
(0.030791945 0.002612261 0)
(0.029864869 0.0025314975 0)
(0.028965184 0.0024534879 0)
(0.028092444 0.002378289 0)
(0.02724588 0.0023062386 0)
(0.026423287 0.0022386841 0)
(0.02562401 0.0021723032 0)
(0.024848057 0.0021090618 0)
(0.024093762 0.0020485084 0)
(0.023360217 0.0019904003 0)
(0.022646742 0.0019343072 0)
(0.021951769 0.0018798015 0)
(0.021274969 0.0018289777 0)
(0.020616549 0.0017802635 0)
(0.019975228 0.0017331722 0)
(0.019350234 0.0016876936 0)
(0.018740926 0.0016438522 0)
(0.018146792 0.001601679 0)
(0.017567229 0.0015613345 0)
(0.017001541 0.0015227676 0)
(0.016449244 0.001485627 -7.9557908e-36)
(0.015909193 0.0014434233 -4.2943453e-31)
(0.015381172 0.0014152902 0)
(0.014866305 0.0013830188 0)
(0.014363069 0.0013512406 0)
(0.013869904 0.0013207399 0)
(0.013386917 0.0012915535 0)
(0.012915075 0.001263544 0)
(0.012453252 0.0012365424 0)
(0.011999122 0.0012098458 0)
(0.011553797 0.0011859811 0)
(0.011117712 0.0011628487 0)
(0.010689913 0.001140469 0)
(0.010269921 0.001118908 0)
(0.009857366 0.0010982353 0)
(0.0094519311 0.0010784877 0)
(0.009053312 0.001059673 0)
(0.0086611983 0.0010417901 0)
(0.0082752955 0.0010246445 -3.8576407e-36)
(0.0078951136 0.001005323 -2.0572835e-31)
(0.0075205075 0.00099287938 0)
(0.0071514106 0.00097843982 0)
(0.0067874051 0.00096451812 0)
(0.0064281986 0.00095134514 0)
(0.0060735128 0.00093884381 0)
(0.0057229159 0.00092700334 0)