/*--------------------------------*- C++ -*----------------------------------*\
| =========                 |                                                 |
| \\      /  F ield         | OpenFOAM: The Open Source CFD Toolbox           |
|  \\    /   O peration     | Version:  2306                                  |
|   \\  /    A nd           | Website:  www.openfoam.com                      |
|    \\/     M anipulation  |                                                 |
\*---------------------------------------------------------------------------*/
FoamFile
{
    version     2.0;
    format      ascii;
    arch        "LSB;label=32;scalar=64";
    class       volVectorField;
    location    "0.43";
    object      U_0;
}
// * * * * * * * * * * * * * * * * * * * * * * * * * * * * * * * * * * * * * //

dimensions      [0 1 -1 0 0 0 0];

internalField   nonuniform List<vector> 
6400
(
(1.582594e-05 -2.1699918e-05 -3.2275384e-20)
(3.2924318e-05 -2.0819782e-05 -2.061263e-21)
(5.0649146e-05 -1.9771426e-05 4.8638036e-21)
(6.6680126e-05 -1.8817591e-05 8.5453022e-21)
(8.1676266e-05 -1.8241836e-05 1.3980289e-21)
(9.6021617e-05 -1.7863352e-05 -5.2208458e-21)
(0.00010988747 -1.7577222e-05 2.811728e-22)
(0.00012336886 -1.7320187e-05 3.3506797e-21)
(0.00013646181 -1.7063168e-05 7.3188117e-21)
(0.00014913046 -1.6794377e-05 1.13469e-20)
(0.00016132369 -1.6506551e-05 1.7081441e-20)
(0.00017298349 -1.6195891e-05 2.9077253e-20)
(0.00018405648 -1.5869552e-05 2.9461631e-20)
(0.00019449435 -1.5524216e-05 -1.452744e-21)
(0.00020425216 -1.5162743e-05 -4.6585788e-21)
(0.00021328829 -1.4786066e-05 2.2076902e-20)
(0.00022156667 -1.4395063e-05 3.7707486e-20)
(0.00022905501 -1.3989722e-05 7.3326859e-21)
(0.00023572547 -1.357476e-05 -2.3867725e-20)
(0.00024155083 -1.3136581e-05 -4.6051613e-21)
(0.00024651141 -1.2696855e-05 1.2716413e-20)
(0.0002505918 -1.2236433e-05 2.2087116e-20)
(0.00025379182 -1.1772311e-05 5.4523326e-20)
(0.00025609959 -1.1277266e-05 7.063996e-20)
(0.00025749801 -1.0782895e-05 3.666205e-20)
(0.00025799315 -1.0288232e-05 -1.099774e-19)
(0.00025758956 -9.7925137e-06 -2.0369151e-19)
(0.00025629736 -9.2945615e-06 -7.6607961e-20)
(0.00025413084 -8.7970322e-06 4.9281828e-20)
(0.00025110212 -8.3025894e-06 1.4770078e-19)
(0.00024722768 -7.8099034e-06 1.2029137e-19)
(0.00024253558 -7.3190685e-06 -7.0856065e-20)
(0.00023705234 -6.8372328e-06 -9.5374739e-20)
(0.00023082287 -6.3686497e-06 -9.3654014e-20)
(0.0002238551 -5.9487917e-06 -1.2255147e-20)
(0.00021615533 -5.5418589e-06 1.3746395e-19)
(0.00020777675 -5.1389787e-06 -8.8561664e-20)
(0.00019876118 -4.7397217e-06 -3.3099758e-19)
(0.00018914993 -4.3452703e-06 9.6264393e-20)
(0.00017898521 -3.9585898e-06 4.0423786e-19)
(0.00016830603 -3.5828357e-06 6.4305408e-20)
(0.00015715136 -3.2179321e-06 -1.4572223e-19)
(0.00014557032 -2.862904e-06 -1.3961692e-20)
(0.00013360462 -2.5235075e-06 6.4438076e-20)
(0.00012129179 -2.1965555e-06 9.1515113e-20)
(0.00010868301 -1.8804938e-06 1.7689567e-19)
(9.5824761e-05 -1.5788125e-06 -2.2530003e-19)
(8.2763215e-05 -1.291844e-06 -1.2331504e-19)
(6.9531775e-05 -1.0247045e-06 -6.26549e-20)
(5.6171384e-05 -7.6790841e-07 -5.530144e-19)
(4.2736671e-05 -5.2410235e-07 2.3635324e-19)
(2.9268197e-05 -2.9532317e-07 4.9737455e-19)
(1.5816346e-05 -8.2422754e-08 1.2070644e-19)
(2.3725383e-06 1.0305931e-07 1.275415e-19)
(-1.1005558e-05 2.9699716e-07 -5.5264032e-19)
(-2.4238655e-05 4.7301352e-07 -4.3030316e-19)
(-3.7323927e-05 6.3382447e-07 3.3401793e-19)
(-5.0228065e-05 7.8076965e-07 1.5390832e-19)
(-6.2919747e-05 9.1466264e-07 -1.2856655e-20)
(-7.5369661e-05 1.036114e-06 6.1698939e-20)
(-8.7550489e-05 1.1456367e-06 -3.9370131e-20)
(-9.94369e-05 1.2437435e-06 8.5094297e-20)
(-0.00011100556 1.330922e-06 -3.4255555e-20)
(-0.00012223515 1.4076838e-06 -3.9943324e-19)
(-0.00013310634 1.4745275e-06 -4.6850689e-19)
(-0.00014360178 1.5319684e-06 1.2436402e-19)
(-0.00015370611 1.5805167e-06 7.580489e-19)
(-0.00016340588 1.6206798e-06 9.7451371e-21)
(-0.00017268957 1.6529816e-06 -3.2260693e-19)
(-0.00018154751 1.6779169e-06 2.8357222e-19)
(-0.00018997184 1.6959913e-06 -4.0201393e-20)
(-0.00019795644 1.707695e-06 -1.5315402e-19)
(-0.00020549688 1.7135078e-06 1.1857705e-19)
(-0.00021259032 1.713895e-06 1.1946578e-19)
(-0.00021923547 1.7093097e-06 1.54242e-19)
(-0.00022543247 1.7001915e-06 -2.301129e-19)
(-0.00023118283 1.6869543e-06 -2.6755708e-19)
(-0.00023648934 1.6700019e-06 1.548256e-19)
(-0.00024135599 1.6497188e-06 2.3863766e-19)
(-0.00024578789 1.6264715e-06 -1.66328e-19)
(1.0954476e-05 -6.7083117e-05 1.2850591e-20)
(2.0862083e-05 -6.0450119e-05 -5.1560188e-22)
(3.0444039e-05 -5.6136862e-05 -9.9903204e-22)
(3.7907786e-05 -5.1926073e-05 1.6180161e-20)
(4.3547608e-05 -4.892029e-05 1.0318015e-21)
(4.8084852e-05 -4.6775864e-05 -2.0213158e-20)
(5.1708549e-05 -4.5100793e-05 3.0494606e-21)
(5.4602026e-05 -4.3650427e-05 4.2188829e-21)
(5.6790249e-05 -4.2277094e-05 1.5042877e-20)
(5.8257278e-05 -4.0901495e-05 5.4833803e-20)
(5.8957674e-05 -3.9466446e-05 6.0159516e-20)
(5.8815924e-05 -3.7962599e-05 8.9853443e-20)
(5.776841e-05 -3.6390311e-05 1.0376526e-19)
(5.5758141e-05 -3.4740395e-05 6.110613e-20)
(5.272507e-05 -3.301197e-05 4.3071418e-20)
(4.8617962e-05 -3.1209695e-05 7.2524771e-20)
(4.3393758e-05 -2.9335509e-05 1.0547626e-19)
(3.701118e-05 -2.7397234e-05 2.9084164e-20)
(2.945313e-05 -2.5400984e-05 -9.7557345e-20)
(2.0674086e-05 -2.3353795e-05 -5.2932229e-20)
(1.0664161e-05 -2.1264816e-05 1.7779411e-20)
(-5.8321669e-07 -1.9141587e-05 4.7972692e-20)
(-1.3050034e-05 -1.6998002e-05 1.3033729e-19)
(-2.6754532e-05 -1.4875694e-05 2.1585541e-19)
(-4.1722487e-05 -1.2741333e-05 1.8870858e-20)
(-5.7898457e-05 -1.0603348e-05 -4.0563222e-19)
(-7.5259278e-05 -8.4702425e-06 -3.6097628e-19)
(-9.3774936e-05 -6.3475592e-06 -1.4671936e-19)
(-0.00011340879 -4.2460403e-06 -8.8831984e-20)
(-0.00013412066 -2.1755961e-06 4.3675096e-19)
(-0.00015586469 -1.3882858e-07 4.6292772e-19)
(-0.00017858693 1.859866e-06 -3.2313204e-19)
(-0.00020223344 3.8065418e-06 -5.5570575e-19)
(-0.00022675379 5.696003e-06 -1.2853543e-19)
(-0.00025206387 7.4948619e-06 4.6522225e-19)
(-0.00027808098 9.2229503e-06 2.8216428e-19)
(-0.00030474876 1.088204e-05 -4.6065704e-19)
(-0.00033199829 1.2470135e-05 -6.5705454e-19)
(-0.00035975232 1.3984194e-05 2.8153438e-19)
(-0.00038793141 1.5418722e-05 4.8920395e-19)
(-0.00041645599 1.6768041e-05 -5.745325e-19)
(-0.00044524605 1.8031079e-05 -9.5825058e-20)
(-0.00047421892 1.9208068e-05 1.2315469e-18)
(-0.00050329387 2.0290654e-05 1.6791257e-18)
(-0.00053239136 2.1282483e-05 -1.1393214e-19)
(-0.00056142954 2.2185108e-05 -2.5447726e-18)
(-0.00059032898 2.2994321e-05 -1.4031555e-18)
(-0.00061901209 2.3710338e-05 9.9681911e-19)
(-0.00064740511 2.4327929e-05 1.0963177e-18)
(-0.00067543476 2.4859175e-05 -5.3646025e-19)
(-0.00070302739 2.530212e-05 -9.7125268e-19)
(-0.00073011414 2.5655847e-05 1.1906542e-18)
(-0.00075662935 2.5920756e-05 1.4614502e-18)
(-0.00078252138 2.6086028e-05 -2.9957411e-19)
(-0.00080772666 2.6197098e-05 -9.5940075e-19)
(-0.00083217874 2.6225847e-05 -1.0181347e-18)
(-0.00085583067 2.6177056e-05 -1.7716891e-19)
(-0.00087863596 2.6054921e-05 9.602855e-19)
(-0.00090055105 2.586333e-05 3.997227e-19)
(-0.00092153601 2.5606109e-05 -9.3642495e-19)
(-0.00094155484 2.528705e-05 -3.5966783e-19)
(-0.0009605755 2.4910008e-05 1.0847607e-18)
(-0.00097856996 2.4478838e-05 2.3708112e-19)
(-0.00099551416 2.3997459e-05 -1.431797e-18)
(-0.001011388 2.3469767e-05 -8.5434977e-19)
(-0.0010261752 2.2899672e-05 8.7081983e-19)
(-0.0010398634 2.2291046e-05 1.1884378e-18)
(-0.0010524437 2.164772e-05 2.2173484e-19)
(-0.001063911 2.097348e-05 -6.911882e-19)
(-0.0010742634 2.0272014e-05 -1.2543082e-18)
(-0.0010835024 1.9546939e-05 8.7539874e-20)
(-0.0010916327 1.8801758e-05 9.9731548e-19)
(-0.0010986619 1.8039857e-05 1.3641161e-19)
(-0.0011046004 1.7264488e-05 1.882943e-19)
(-0.0011094612 1.6478767e-05 3.0253288e-19)
(-0.0011132599 1.5685663e-05 1.5419629e-19)
(-0.0011160142 1.4887985e-05 -4.5321002e-19)
(-0.0011177438 1.4088406e-05 -8.3294041e-19)
(-0.0011184705 1.328945e-05 -2.2422729e-20)
(-0.0011182177 1.2493487e-05 3.5352591e-19)
(-5.2239135e-06 -7.5743247e-05 7.3732897e-21)
(-1.4229982e-05 -6.559972e-05 -3.855184e-20)
(-2.5015391e-05 -5.8416554e-05 -4.970584e-20)
(-3.674714e-05 -5.1199557e-05 -3.5124014e-20)
(-5.0324546e-05 -4.5637847e-05 1.164685e-21)
(-6.4857207e-05 -4.1463177e-05 -4.0734229e-20)
(-8.03497e-05 -3.8075941e-05 -1.4974014e-20)
(-9.6660401e-05 -3.5104269e-05 -4.6241583e-21)
(-0.00011375867 -3.2304087e-05 5.2474183e-20)
(-0.00013163063 -2.9525389e-05 1.3628654e-19)
(-0.00015031356 -2.6702735e-05 1.092235e-19)
(-0.0001698719 -2.3781073e-05 1.2286663e-19)
(-0.00019033173 -2.0718581e-05 7.2299518e-20)
(-0.00021172513 -1.7515188e-05 1.1196684e-19)
(-0.00023409884 -1.4172069e-05 1.6610177e-19)
(-0.00025748994 -1.0698973e-05 9.1478494e-20)
(-0.00028192758 -7.1048537e-06 8.9995495e-20)
(-0.00030743579 -3.4064692e-06 4.8764194e-21)
(-0.00033403006 3.8576547e-07 -7.4736971e-20)
(-0.0003617235 4.2393668e-06 1.7905677e-20)
(-0.00039051806 8.1599746e-06 7.3772348e-20)
(-0.00042041134 1.2107715e-05 7.6700606e-20)
(-0.00045141178 1.607932e-05 1.3481383e-19)
(-0.00048345474 2.0012348e-05 1.1305489e-19)
(-0.00051649392 2.3935617e-05 -1.2463832e-19)
(-0.00055052911 2.7833201e-05 -1.7641866e-19)
(-0.00058551813 3.1687892e-05 -9.5793169e-20)
(-0.00062141034 3.5483929e-05 -1.8205648e-19)
(-0.00065814932 3.920435e-05 -2.2837847e-19)
(-0.00069567498 4.2833349e-05 1.2923855e-19)
(-0.00073392147 4.6358337e-05 2.6989008e-19)
(-0.00077281589 4.9766963e-05 -1.7919728e-19)
(-0.00081228379 5.3045264e-05 -3.8804169e-19)
(-0.00085224827 5.6185174e-05 -1.9175508e-19)
(-0.00089262345 5.9184866e-05 2.7970851e-19)
(-0.00093331879 6.2020469e-05 3.78975e-19)
(-0.00097424497 6.4679251e-05 -9.5848653e-20)
(-0.0010153118 6.7154432e-05 -2.1213933e-19)
(-0.001056426 6.9440372e-05 -1.211155e-19)
(-0.0010974927 7.1531497e-05 -4.0019215e-19)
(-0.0011384172 7.3422946e-05 -3.8890383e-19)
(-0.0011791049 7.5111693e-05 5.1793669e-19)
(-0.00121946 7.6595702e-05 1.0254329e-18)
(-0.0012593891 7.7872153e-05 8.3065459e-19)
(-0.0012988002 7.8941446e-05 -1.7821407e-19)
(-0.0013376015 7.9804322e-05 -1.8407761e-18)
(-0.0013757038 8.04613e-05 -8.1326111e-19)
(-0.0014130214 8.0914392e-05 5.2316871e-19)
(-0.0014494724 8.1165898e-05 7.6973878e-19)
(-0.001484977 8.1221313e-05 7.8813799e-19)
(-0.0015194579 8.1084726e-05 -8.378557e-19)
(-0.0015528428 8.0760642e-05 -1.8245398e-19)
(-0.0015850645 8.0254052e-05 8.8620174e-19)
(-0.0016160623 7.9570251e-05 -9.6336468e-20)
(-0.0016457752 7.8725237e-05 -2.0083676e-19)
(-0.0016741457 7.7721443e-05 -3.4840806e-19)
(-0.001701125 7.6565633e-05 -3.3336837e-19)
(-0.0017266692 7.5265933e-05 4.4747893e-19)
(-0.0017507392 7.3831011e-05 1.021766e-19)
(-0.0017733007 7.2269795e-05 -7.3291816e-19)
(-0.0017943243 7.0591365e-05 -1.7952359e-19)
(-0.0018137857 6.8804918e-05 5.2904248e-19)
(-0.0018316655 6.691968e-05 -5.8374275e-20)
(-0.0018479493 6.4944903e-05 -3.4985847e-19)
(-0.0018626272 6.2889779e-05 3.8215177e-19)
(-0.0018756942 6.0763414e-05 3.8762958e-19)
(-0.0018871498 5.8574783e-05 -2.6402684e-19)
(-0.0018969978 5.63327e-05 -2.1043941e-19)
(-0.001905246 5.4045764e-05 -1.1094985e-19)
(-0.0019119067 5.172235e-05 -5.7463938e-19)
(-0.0019169953 4.9370551e-05 -1.084102e-19)
(-0.0019205314 4.6998172e-05 3.393777e-19)
(-0.0019225375 4.4612689e-05 3.1409998e-20)
(-0.0019230395 4.2221224e-05 3.054412e-19)
(-0.0019220661 3.9830548e-05 2.4633255e-19)
(-0.0019196484 3.7447033e-05 3.3641552e-19)
(-0.0019158203 3.5076682e-05 -4.3955888e-20)
(-0.0019106176 3.2725119e-05 -9.1105855e-19)
(-0.0019040781 3.0397592e-05 -2.7617033e-19)
(-0.0018962414 2.8098981e-05 6.6173815e-19)
(-1.9928775e-05 -3.2163876e-05 -1.2288817e-19)
(-4.660755e-05 -2.2259051e-05 -1.3826686e-19)
(-7.6250859e-05 -1.4306335e-05 -8.7003203e-20)
(-0.00010522823 -6.0555672e-06 -1.5436474e-19)
(-0.00013589888 7.3651396e-07 -1.1715711e-19)
(-0.00016713624 6.1609913e-06 -1.4734055e-19)
(-0.00019916322 1.0766581e-05 -1.0629544e-19)
(-0.00023196212 1.4931629e-05 -1.4191813e-20)
(-0.0002655295 1.8914711e-05 6.6081024e-20)
(-0.00029987752 2.288296e-05 1.4833147e-19)
(-0.00033499926 2.691564e-05 1.460847e-19)
(-0.00037088737 3.1081227e-05 1.1312614e-19)
(-0.00040758108 3.5420311e-05 3.6667527e-20)
(-0.0004451154 3.9933642e-05 1.2463276e-19)
(-0.00048350859 4.4614581e-05 1.2744217e-19)
(-0.00052277573 4.9450486e-05 2.6193913e-20)
(-0.0005629274 5.4423937e-05 1.005781e-19)
(-0.0006039692 5.9513771e-05 6.0275177e-20)
(-0.00064590079 6.4697915e-05 2.7095121e-20)
(-0.00068871668 6.9950568e-05 6.1715335e-20)
(-0.00073240441 7.5250597e-05 7.3160298e-20)
(-0.0007769453 8.057067e-05 6.9541083e-20)
(-0.00082231457 8.589141e-05 -3.8896979e-21)
(-0.00086846431 9.1207579e-05 -7.1067434e-20)
(-0.00091534558 9.6462127e-05 3.8303512e-20)
(-0.00096291741 0.00010163289 1.6631009e-20)
(-0.001011127 0.00010669798 -2.5067139e-19)
(-0.001059913 0.00011163531 -1.236562e-19)
(-0.0011092078 0.00011642212 7.5644692e-20)
(-0.0011589393 0.0001210365 1.7700384e-20)
(-0.0012090301 0.00012545849 -1.7580189e-19)
(-0.0012593974 0.00012966879 -1.904689e-19)
(-0.0013099555 0.0001336484 1.4668759e-19)
(-0.0013606154 0.0001373817 1.4190162e-19)
(-0.0014112833 0.00014085562 -1.9692903e-19)
(-0.0014618629 0.00014405568 -2.5788119e-19)
(-0.001512256 0.00014696862 1.138743e-19)
(-0.0015623639 0.00014958382 2.4613127e-19)
(-0.0016120866 0.00015189256 -1.9465789e-19)
(-0.0016613235 0.00015388744 -2.6978166e-19)
(-0.0017099743 0.00015556271 -3.9466682e-20)
(-0.0017579397 0.00015691467 1.6239645e-19)
(-0.0018051208 0.00015794121 2.9535974e-19)
(-0.0018514206 0.00015864113 1.0559934e-19)
(-0.0018967447 0.00015901572 2.873528e-20)
(-0.0019410005 0.00015906757 -3.5849576e-19)
(-0.0019840983 0.00015880005 -3.3983239e-19)
(-0.0020259526 0.00015821809 1.0700627e-19)
(-0.0020664816 0.00015732788 2.4520819e-19)
(-0.0021056074 0.00015613795 5.226207e-19)
(-0.002143256 0.00015465696 1.4081559e-20)
(-0.0021793585 0.00015289436 -5.3662369e-19)
(-0.0022138513 0.00015086073 5.1851478e-20)
(-0.0022466763 0.00014856807 2.739601e-19)
(-0.0022777792 0.0001460312 -7.0310742e-20)
(-0.0023071106 0.00014326211 -2.6486341e-19)
(-0.0023346279 0.00014027391 -1.9464726e-19)
(-0.002360294 0.00013708055 1.1887659e-19)
(-0.0023840775 0.00013369655 1.362785e-20)
(-0.0024059527 0.00013013679 -3.2994984e-19)
(-0.0024258991 0.00012641634 -2.4824382e-20)
(-0.002443902 0.00012255039 2.9577822e-19)
(-0.0024599517 0.00011855412 3.3732952e-20)
(-0.0024740441 0.00011444266 -1.1283135e-19)
(-0.0024861801 0.00011023097 9.6200118e-20)
(-0.0024963654 0.00010593379 1.3630248e-19)
(-0.0025046109 0.00010156557 -2.3595116e-19)
(-0.0025109317 9.7140447e-05 -2.5555606e-19)
(-0.0025153475 9.2672115e-05 -9.4646239e-20)
(-0.0025178819 8.8173839e-05 -7.887731e-20)
(-0.0025185626 8.3658378e-05 4.6773576e-20)
(-0.0025174209 7.9137957e-05 3.8534172e-20)
(-0.0025144914 7.4624222e-05 -1.2115399e-19)
(-0.002509812 7.0128194e-05 -8.7365776e-20)
(-0.0025034232 6.5660287e-05 2.5584715e-19)
(-0.0024953683 6.1230232e-05 3.5525629e-19)
(-0.0024856928 5.6847123e-05 -2.922332e-19)
(-0.0024744442 5.2519408e-05 -6.1086816e-19)
(-0.002461672 4.8254873e-05 -3.1634267e-20)
(-0.0024474269 4.4060699e-05 1.7746679e-19)
(-2.9424377e-05 4.7003739e-05 -3.3397509e-19)
(-6.8235283e-05 5.4731276e-05 -3.975941e-19)
(-0.00011098459 6.2085851e-05 -2.614013e-19)
(-0.00015184997 7.0012345e-05 -1.6622345e-19)
(-0.00019429259 7.7034871e-05 -3.528134e-19)
(-0.00023694962 8.306617e-05 -3.5636029e-19)
(-0.00028018446 8.8462212e-05 -2.316625e-19)
(-0.00032407298 9.3518246e-05 -1.2049632e-19)
(-0.00036865874 9.8457188e-05 4.4776826e-20)
(-0.00041395838 0.00010342643 1.8645316e-19)
(-0.00045997476 0.00010853138 8.1582089e-20)
(-0.0005067101 0.00011380909 9.034241e-20)
(-0.00055417843 0.00011927143 6.7457223e-20)
(-0.00060239321 0.00012492482 1.0678718e-19)
(-0.00065136165 0.00013076194 1.3305801e-19)
(-0.00070108664 0.00013676604 1.6728083e-20)
(-0.00075156652 0.00014291412 8.2953354e-20)
(-0.00080279465 0.00014917872 7.4581353e-20)
(-0.00085475905 0.0001555299 2.6668214e-21)
(-0.00090744207 0.00016193549 4.9929394e-20)
(-0.00096081983 0.00016836375 1.0469141e-19)
(-0.0010148617 0.00017478185 -1.2279888e-20)
(-0.0010695294 0.00018115933 -4.0701145e-20)
(-0.0011247739 0.00018746709 6.4119726e-20)
(-0.0011805413 0.00019366426 7.8624959e-20)
(-0.0012367756 0.00019971668 -1.2235512e-19)
(-0.0012934143 0.00020559264 -2.8999211e-19)
(-0.0013503885 0.00021126174 -1.0492809e-19)
(-0.0014076233 0.00021669435 1.1860139e-19)
(-0.0014650393 0.00022186221 9.54323e-20)
(-0.0015225521 0.00022673898 -2.3884088e-19)
(-0.0015800729 0.00023129983 -9.3587472e-20)
(-0.0016375097 0.00023552151 1.7343035e-19)
(-0.0016947674 0.00023938344 1.6629618e-19)
(-0.0017517474 0.00024286719 -7.5654003e-21)
(-0.0018083495 0.00024595587 -3.4073774e-19)
(-0.0018644717 0.0002486345 -1.0377304e-20)
(-0.0019200115 0.00025089054 6.2453631e-20)
(-0.0019748656 0.00025271391 -1.6587754e-19)
(-0.002028931 0.00025409667 -2.2288984e-19)
(-0.0020821055 0.00025503319 -2.082247e-19)
(-0.0021342878 0.00025552028 1.7094636e-19)
(-0.0021853782 0.00025555693 3.8168475e-19)
(-0.0022352796 0.0002551441 -2.0087487e-20)
(-0.0022838972 0.00025428515 -2.594401e-19)
(-0.0023311392 0.00025298542 -2.0259302e-19)
(-0.0023769175 0.00025125192 -6.4430333e-20)
(-0.0024211478 0.00024909358 2.3546348e-19)
(-0.0024637505 0.00024652109 1.3228107e-19)
(-0.0025046502 0.00024354711 -1.8514802e-21)
(-0.0025437765 0.00024018551 1.0735191e-19)
(-0.0025810639 0.00023645143 -7.1432202e-20)
(-0.0026164528 0.00023236137 -8.8154079e-20)
(-0.002649889 0.00022793324 1.2131041e-20)
(-0.0026813235 0.00022318631 -2.8900055e-21)
(-0.0027107129 0.00021813978 -4.0318429e-20)
(-0.0027380202 0.00021281353 -2.928509e-19)
(-0.0027632142 0.00020722806 -2.8902642e-19)
(-0.0027862699 0.00020140441 -2.4072212e-20)
(-0.0028071679 0.00019536397 -1.4556174e-20)
(-0.0028258949 0.00018912831 1.1459942e-19)
(-0.0028424432 0.00018271907 2.8719968e-19)
(-0.0028568106 0.0001761578 1.5124785e-19)
(-0.0028690004 0.00016946585 -1.0580802e-19)
(-0.0028790214 0.0001626643 -2.9735291e-19)
(-0.0028868873 0.00015577383 -8.9333864e-20)
(-0.0028926167 0.00014881464 7.2593903e-20)
(-0.002896233 0.00014180636 2.9882615e-20)
(-0.0028977638 0.00013476799 -2.533532e-19)
(-0.002897241 0.00012771783 -3.4652361e-19)
(-0.0028947005 0.0001206734 9.4452483e-20)
(-0.0028901816 0.00011365144 2.7991481e-19)
(-0.0028837271 0.0001066678 1.1714842e-19)
(-0.0028753828 9.9737411e-05 -1.4311732e-19)
(-0.0028651973 9.2874325e-05 -1.3296487e-19)
(-0.0028532216 8.6091593e-05 -7.7341933e-20)
(-0.002839509 7.9401343e-05 -2.6197839e-19)
(-0.0028241147 7.2814763e-05 -1.5744728e-19)
(-0.0028070956 6.6342081e-05 -9.2405328e-20)
(-0.0027885097 5.999263e-05 -1.7258121e-19)
(-3.4296986e-05 0.00014665504 -5.6654934e-19)
(-7.9776625e-05 0.00015198839 -7.0422931e-19)
(-0.00013004784 0.00015816675 -7.6236756e-19)
(-0.00017781921 0.00016518087 -5.4771313e-19)
(-0.000227182 0.00017190387 -4.9223143e-19)
(-0.00027653836 0.0001781243 -4.2522638e-19)
(-0.000326302 0.00018400509 -2.2471279e-19)
(-0.00037660356 0.00018972461 -2.9770733e-20)
(-0.00042752157 0.00019543555 8.2784705e-20)
(-0.00047909119 0.00020124846 2.0165063e-19)
(-0.00053132908 0.00020723572 1.4882698e-19)
(-0.00058424533 0.00021343056 1.4167058e-19)
(-0.00063784949 0.00021984248 1.3300477e-19)
(-0.00069214811 0.00022646763 2.3348553e-19)
(-0.0007471431 0.00023329075 2.1146423e-19)
(-0.00080283165 0.00024028793 3.7990497e-20)
(-0.00085920599 0.00024742905 1.6364333e-19)
(-0.00091625321 0.00025467946 1.8046329e-19)
(-0.00097395482 0.00026200153 1.5294937e-19)
(-0.0010322865 0.00026935562 1.3610828e-19)
(-0.0010912174 0.00027670131 5.695498e-20)
(-0.0011507102 0.00028399764 -2.9737078e-20)
(-0.0012107203 0.00029120406 5.9608588e-20)
(-0.0012711954 0.00029827985 1.9075366e-19)
(-0.0013320776 0.00030518168 1.6052402e-19)
(-0.0013933039 0.00031186798 5.8610757e-20)
(-0.001454806 0.00031829916 -1.1238234e-19)
(-0.0015165096 0.00032443734 -1.692902e-19)
(-0.0015783351 0.00033024623 -6.8884577e-20)
(-0.0016401982 0.00033569144 4.8693652e-20)
(-0.0017020099 0.00034074079 5.8777268e-21)
(-0.0017636775 0.00034536434 1.2080499e-19)
(-0.0018251045 0.00034953445 1.5220291e-19)
(-0.001886192 0.00035322632 6.166239e-20)
(-0.0019468381 0.00035641776 4.1644437e-20)
(-0.0020069393 0.00035908921 -6.5440919e-20)
(-0.0020663909 0.00036122382 8.3462007e-21)
(-0.0021250874 0.00036280767 -9.7438485e-20)
(-0.0021829233 0.00036382981 -1.064962e-19)
(-0.0022397934 0.00036428218 -1.5112651e-19)
(-0.0022955938 0.00036415966 -2.5110335e-19)
(-0.0023502217 0.00036346006 6.2384409e-21)
(-0.0024035765 0.00036218403 2.3200592e-19)
(-0.0024555602 0.00036033489 1.1051566e-19)
(-0.0025060777 0.00035791874 -1.6400702e-20)
(-0.0025550371 0.00035494418 5.9417248e-20)
(-0.0026023508 0.00035142219 2.70142e-20)
(-0.0026479351 0.00034736606 1.205847e-19)
(-0.0026917112 0.00034279132 1.0824334e-19)
(-0.0027336052 0.00033771556 -2.075595e-20)
(-0.0027735482 0.00033215818 1.1724391e-20)
(-0.0028114769 0.00032614025 -1.4690573e-20)
(-0.0028473339 0.00031968442 9.3802546e-23)
(-0.0028810673 0.00031281477 -9.6846301e-20)
(-0.0029126312 0.00030555663 -1.485574e-19)
(-0.0029419857 0.00029793604 6.2082064e-20)
(-0.0029690971 0.00028997978 -1.9698562e-20)
(-0.002993938 0.00028171526 -1.3957815e-19)
(-0.003016487 0.00027317037 -9.8875072e-20)
(-0.0030367292 0.00026437333 -1.1825739e-19)
(-0.0030546553 0.00025535248 2.8210525e-21)
(-0.0030702621 0.00024613615 1.8876269e-19)
(-0.0030835521 0.00023675247 2.3007205e-19)
(-0.0030945335 0.00022722924 1.1586014e-19)
(-0.0031032198 0.00021759382 -1.097075e-19)
(-0.0031096299 0.00020787295 -1.1897739e-19)
(-0.0031137873 0.00019809269 -5.8010158e-20)
(-0.0031157206 0.00018827829 -6.2630901e-20)
(-0.0031154626 0.00017845413 -1.6454738e-19)
(-0.0031130505 0.00016864356 -1.472511e-19)
(-0.0031085253 0.00015886893 3.1529595e-20)
(-0.0031019315 0.00014915146 5.8778736e-20)
(-0.0030933171 0.00013951122 7.7124755e-21)
(-0.003082733 0.00012996702 3.7654987e-20)
(-0.0030702329 0.00012053648 8.5970946e-20)
(-0.0030558728 0.00011123593 -1.2848594e-19)
(-0.0030397109 0.00010208045 -2.5425465e-19)
(-0.0030218072 9.3083873e-05 -1.7220159e-19)
(-0.0030022232 8.4258768e-05 -1.690051e-19)
(-0.0029810219 7.5616486e-05 -5.9583301e-20)
(-3.6152066e-05 0.00025547524 -7.6036147e-19)
(-8.4539642e-05 0.0002589486 -7.6246153e-19)
(-0.00013835634 0.00026396858 -8.7441236e-19)
(-0.00018951594 0.00027003066 -8.6994908e-19)
(-0.00024237957 0.00027631733 -6.8758546e-19)
(-0.00029515245 0.00028255828 -3.3886208e-19)
(-0.00034823656 0.00028876686 -2.1451831e-19)
(-0.00040177867 0.00029501697 -9.9879451e-20)
(-0.00045587595 0.0003013913 1.1669964e-19)
(-0.00051057996 0.00030795589 1.72901e-19)
(-0.00056592121 0.00031475301 1.070413e-19)
(-0.00062191963 0.00032180066 3.9358518e-20)
(-0.00067858903 0.00032909809 -4.0659868e-20)
(-0.00073593725 0.00033663131 8.1918885e-20)
(-0.00079396646 0.00034437607 1.6159673e-19)
(-0.00085267321 0.00035230014 -4.2049875e-21)
(-0.00091204842 0.00036036534 5.320067e-20)
(-0.00097207713 0.00036852905 8.235619e-20)
(-0.0010327383 0.00037674551 1.1577014e-19)
(-0.0010940047 0.0003849669 2.4068106e-19)
(-0.0011558423 0.00039314421 2.3317855e-19)
(-0.0012182103 0.00040122782 1.5543976e-19)
(-0.001281061 0.00040916804 1.8326242e-19)
(-0.0013443398 0.0004169151 3.1354954e-19)
(-0.0014079856 0.00042441904 1.8731759e-19)
(-0.001471932 0.00043163108 9.6091616e-21)
(-0.0015361066 0.00043850419 -5.1468831e-20)
(-0.0016004315 0.00044499335 -1.003334e-19)
(-0.0016648233 0.00045105564 -2.9557741e-20)
(-0.0017291941 0.00045665057 1.3756246e-19)
(-0.0017934513 0.0004617403 1.6664569e-19)
(-0.0018574985 0.00046628984 2.2827222e-19)
(-0.0019212359 0.00047026716 2.2230845e-19)
(-0.0019845608 0.0004736435 1.0077838e-19)
(-0.0020473683 0.00047639337 -3.4087076e-20)
(-0.0021095515 0.00047849464 -1.7178535e-19)
(-0.0021710027 0.00047992864 -5.5498846e-20)
(-0.0022316134 0.00048068024 -1.302209e-19)
(-0.0022912752 0.00048073791 -1.3949067e-19)
(-0.0023498804 0.0004800937 -7.0679867e-20)
(-0.0024073224 0.00047874322 -5.835564e-20)
(-0.0024634964 0.00047668561 -1.0397579e-19)
(-0.0025182996 0.00047392347 -1.2843526e-19)
(-0.0025716322 0.00047046272 1.4089709e-19)
(-0.0026233975 0.00046631254 1.8635106e-19)
(-0.0026735026 0.00046148519 2.0025925e-19)
(-0.0027218585 0.00045599584 2.1272093e-19)
(-0.0027683809 0.00044986247 7.4873898e-21)
(-0.0028129904 0.00044310566 -1.6566374e-20)
(-0.0028556128 0.00043574844 -2.0535287e-20)
(-0.0028961794 0.00042781604 -6.1102733e-20)
(-0.0029346271 0.00041933567 -6.2233132e-20)
(-0.0029708988 0.00041033639 -1.0860563e-19)
(-0.0030049435 0.00040084881 -1.0793796e-19)
(-0.0030367166 0.00039090494 -1.4835188e-19)
(-0.0030661794 0.00038053777 -5.8019197e-20)
(-0.0030932999 0.0003697812 7.4408557e-20)
(-0.0031180523 0.00035866976 9.6511881e-20)
(-0.0031404175 0.00034723845 -2.5173794e-20)
(-0.0031603824 0.00033552257 -1.2608102e-19)
(-0.0031779403 0.00032355747 -8.0899836e-20)
(-0.0031930905 0.0003113784 -2.8507797e-20)
(-0.0032058383 0.00029902025 6.57403e-20)
(-0.0032161947 0.00028651744 1.743808e-19)
(-0.0032241762 0.00027390375 6.4061808e-20)
(-0.0032298047 0.00026121215 -3.4803037e-20)
(-0.0032331071 0.00024847468 -1.0685739e-19)
(-0.0032341151 0.00023572231 -8.9538418e-20)
(-0.0032328651 0.00022298484 -7.3147398e-20)
(-0.0032293975 0.0002102908 -7.309233e-20)
(-0.0032237567 0.00019766738 1.3275293e-20)
(-0.0032159909 0.00018514033 -1.1043114e-20)
(-0.0032061513 0.00017273394 -7.6520242e-20)
(-0.0031942923 0.00016047091 -1.4471808e-20)
(-0.003180471 0.00014837245 6.1661631e-20)
(-0.0031647469 0.00013645812 -2.5961673e-20)
(-0.0031471815 0.00012474592 -1.2033449e-19)
(-0.0031278381 0.0001132523 -2.2331195e-19)
(-0.0031067815 0.00010199212 -2.0153496e-19)
(-0.0030840776 9.0978688e-05 -5.6940902e-20)
(-3.6414252e-05 0.00036701241 -1.0199006e-18)
(-8.5557946e-05 0.00036930023 -1.1913755e-18)
(-0.00014053403 0.00037346249 -1.0449275e-18)
(-0.00019294539 0.00037881179 -7.6792349e-19)
(-0.0002472137 0.00038476169 -6.2824112e-19)
(-0.00030140418 0.00039102989 -4.2988223e-19)
(-0.00035587941 0.00039753499 -2.3369596e-19)
(-0.00041077743 0.0004042748 -1.4043924e-19)
(-0.00046620007 0.00041127529 4.1929603e-20)
(-0.00052220877 0.00041856262 1.4636138e-19)
(-0.00057884503 0.0004261514 1.2020232e-19)
(-0.00063613834 0.00043404137 4.6004059e-20)
(-0.00069410952 0.00044221849 -1.2961652e-19)
(-0.00075277131 0.0004506575 -2.2554339e-20)
(-0.00081212934 0.00045932409 2.5482509e-20)
(-0.00087218252 0.00046817673 -2.7159935e-20)
(-0.00093292318 0.00047716826 6.3043989e-20)
(-0.00099433694 0.00048624727 4.8756004e-20)
(-0.0010564027 0.00049535923 2.6665342e-20)
(-0.0011190924 0.00050444747 1.4139012e-19)
(-0.0011823708 0.00051345403 2.2139376e-19)
(-0.0012461959 0.00052232029 1.2987409e-19)
(-0.0013105181 0.00053098752 2.4923396e-19)
(-0.0013752811 0.00053939725 5.3204551e-19)
(-0.001440422 0.00054749165 3.9232987e-19)
(-0.0015058713 0.00055521424 7.3780829e-21)
(-0.001571554 0.00056251047 -9.4446218e-20)
(-0.0016373888 0.00056932805 -1.6882444e-19)
(-0.0017032893 0.00057561734 -7.2312016e-20)
(-0.0017691641 0.00058133158 9.8097621e-20)
(-0.001834917 0.0005864272 1.3222552e-19)
(-0.0019004482 0.00059086407 2.966538e-19)
(-0.0019656541 0.00059460566 2.1708677e-19)
(-0.0020304284 0.00059761928 -3.0387298e-20)
(-0.0020946622 0.0005998762 -1.1497756e-19)
(-0.0021582452 0.00060135176 -1.204262e-19)
(-0.0022210657 0.00060202544 -1.4143155e-20)
(-0.0022830117 0.00060188099 -1.8168437e-19)
(-0.0023439713 0.00060090638 -3.2634484e-19)
(-0.0024038331 0.00059909388 -2.8094779e-19)
(-0.0024624872 0.00059643998 -1.5868613e-19)
(-0.0025198255 0.00059294535 9.5000505e-21)
(-0.0025757422 0.00058861471 -5.3139687e-20)
(-0.0026301346 0.00058345679 -6.6383076e-20)
(-0.0026829033 0.00057748408 6.3465305e-20)
(-0.0027339527 0.00057071274 2.8183117e-19)
(-0.002783192 0.00056316241 3.2910151e-19)
(-0.0028305345 0.00055485594 -1.2752201e-20)
(-0.0028758993 0.00054581929 -1.2280098e-19)
(-0.0029192105 0.00053608122 -2.394237e-20)
(-0.0029603982 0.00052567304 -1.218299e-19)
(-0.0029993983 0.00051462841 -6.4731893e-20)
(-0.003036153 0.00050298305 -1.0907081e-19)
(-0.003070611 0.00049077444 -1.7038294e-19)
(-0.0031027272 0.00047804164 -8.8571022e-20)
(-0.0031324633 0.00046482487 -6.9923382e-20)
(-0.0031597876 0.00045116533 -3.3067779e-20)
(-0.003184675 0.00043710495 -3.9788547e-20)
(-0.0032071069 0.00042268612 -6.7881696e-20)
(-0.0032270715 0.00040795145 -9.0658082e-20)
(-0.0032445633 0.00039294354 -6.3302689e-20)
(-0.003259583 0.00037770477 1.3269613e-22)
(-0.0032721376 0.00036227704 -6.3014976e-20)
(-0.0032822399 0.00034670156 -2.9727248e-20)
(-0.0032899084 0.00033101875 4.6920853e-20)
(-0.003295167 0.00031526793 -4.0829841e-20)
(-0.0032980451 0.00029948728 -6.4091051e-20)
(-0.0032985766 0.00028371361 -4.7232661e-20)
(-0.0032968003 0.00026798229 -5.648477e-20)
(-0.0032927593 0.00025232709 -5.0072326e-20)
(-0.0032865004 0.00023678014 -2.0804224e-20)
(-0.0032780744 0.00022137179 -3.4788291e-20)
(-0.0032675354 0.00020613059 2.933038e-20)
(-0.0032549403 0.0001910832 5.764446e-20)
(-0.003240349 0.00017625439 -1.5974167e-20)
(-0.0032238235 0.000161667 -9.6735274e-20)
(-0.0032054281 0.00014734196 -1.3360425e-19)
(-0.0031852286 0.00013329829 -1.4892456e-19)
(-0.0031632924 0.00011955311 -1.8041637e-19)
(-0.003139688 0.00010612168 -1.1514346e-19)
(-3.5961312e-05 0.00047809824 -1.1845e-18)
(-8.4794395e-05 0.0004797469 -1.3961735e-18)
(-0.00013966736 0.00048340825 -8.2095034e-19)
(-0.00019216057 0.00048835963 -4.7040978e-19)
(-0.00024665697 0.00049416707 -3.4643456e-19)
(-0.00030113937 0.00050056115 -2.784106e-19)
(-0.00035592943 0.0005074097 -3.3617054e-20)
(-0.0004111463 0.00051466248 8.3203642e-20)
(-0.00046688815 0.00052230524 2.1390216e-19)
(-0.00052322052 0.00053033287 3.1005142e-19)
(-0.00058019221 0.00053873643 3.330001e-19)