/*--------------------------------*- C++ -*----------------------------------*\
| =========                 |                                                 |
| \\      /  F ield         | OpenFOAM: The Open Source CFD Toolbox           |
|  \\    /   O peration     | Version:  2306                                  |
|   \\  /    A nd           | Website:  www.openfoam.com                      |
|    \\/     M anipulation  |                                                 |
\*---------------------------------------------------------------------------*/
FoamFile
{
    version     2.0;
    format      ascii;
    arch        "LSB;label=32;scalar=64";
    class       surfaceScalarField;
    location    "0.27";
    object      phi;
}
// * * * * * * * * * * * * * * * * * * * * * * * * * * * * * * * * * * * * * //

dimensions      [0 3 -1 0 0 0 0];

oriented        oriented;

internalField   nonuniform List<scalar> 
12640
(
1.4294006e-11
1.6392836e-09
5.7111819e-11
4.9171755e-09
1.285011e-10
8.1955864e-09
2.2864799e-10
1.1476683e-08
3.5802383e-10
1.4763873e-08
5.1731843e-10
1.8060506e-08
7.0747433e-10
2.1369552e-08
9.2967183e-10
2.4693782e-08
1.1852558e-09
2.8035781e-08
1.4758302e-09
3.1398061e-08
1.8031316e-09
3.4782973e-08
2.1692536e-09
3.8192816e-08
2.5762705e-09
4.1629719e-08
3.0267849e-09
4.5095809e-08
3.5232343e-09
4.8592904e-08
4.0686373e-09
5.2122815e-08
4.6659041e-09
5.5687178e-08
5.3182836e-09
5.9287367e-08
6.0291742e-09
6.2924494e-08
6.8022843e-09
6.6599799e-08
7.6413415e-09
7.0313751e-08
8.5503235e-09
7.4067104e-08
9.5333366e-09
7.7859965e-08
1.0594838e-08
8.1692343e-08
1.1738768e-08
8.5563892e-08
1.2969961e-08
8.9473782e-08
1.4292804e-08
9.3421154e-08
1.5712161e-08
9.7404512e-08
1.7232562e-08
1.0142225e-07
1.8858794e-08
1.0547208e-07
2.0595604e-08
1.0955148e-07
2.2447657e-08
1.1365754e-07
2.4419644e-08
1.1778698e-07
2.6515932e-08
1.2193588e-07
2.8741316e-08
1.2610004e-07
3.1099867e-08
1.3027494e-07
3.3595835e-08
1.3445538e-07
3.6233219e-08
1.3863621e-07
3.9015548e-08
1.4281139e-07
4.1946559e-08
1.4697452e-07
4.502916e-08
1.5111905e-07
4.826647e-08
1.5523784e-07
5.1660703e-08
1.5932358e-07
5.5214581e-08
1.6336841e-07
5.8929321e-08
1.6736426e-07
6.280664e-08
1.7130278e-07
6.6847286e-08
1.751754e-07
7.105198e-08
1.7897281e-07
7.5420443e-08
1.8268629e-07
7.9952538e-08
1.8630578e-07
8.4647004e-08
1.8982267e-07
8.9502613e-08
1.9322675e-07
9.4517364e-08
1.9650842e-07
9.9688399e-08
1.9965766e-07
1.0501318e-07
2.0266469e-07
1.1048772e-07
2.0551963e-07
1.1610817e-07
2.0821264e-07
1.218699e-07
2.107339e-07
1.2776769e-07
2.1307391e-07
1.337959e-07
2.1522291e-07
1.3994851e-07
2.1717151e-07
1.4621877e-07
2.1891084e-07
1.5259963e-07
2.2043146e-07
1.5908321e-07
2.2172521e-07
1.656619e-07
2.2278321e-07
1.7232716e-07
2.2359778e-07
1.790699e-07
2.2416115e-07
1.8588125e-07
2.244658e-07
1.9275142e-07
2.2450507e-07
1.9967064e-07
2.2427227e-07
2.0662836e-07
2.2376121e-07
2.1361419e-07
2.2296651e-07
2.2061787e-07
2.2188285e-07
2.2762796e-07
2.2050616e-07
2.3463308e-07
2.1883186e-07
2.4162227e-07
2.1685604e-07
2.4858394e-07
2.1457624e-07
2.5550653e-07
2.1198967e-07
2.6237819e-07
2.0909431e-07
2.05889e-07
1.5139177e-11
1.6241423e-09
6.0518232e-11
4.8718045e-09
1.3617194e-10
8.1199264e-09
2.4230224e-10
1.1370552e-08
3.7935154e-10
1.4626842e-08
5.4801301e-10
1.7891837e-08
7.4919296e-10
2.1168369e-08
9.840035e-10
2.4458951e-08
1.2537836e-09
2.7766024e-08
1.5599912e-09
3.109182e-08
1.9044135e-09
3.4438548e-08
2.2889606e-09
3.7808276e-08
2.7156781e-09
4.120302e-08
3.1869743e-09
4.4624516e-08
3.7052943e-09
4.807461e-08
4.2733509e-09
5.155475e-08
4.8940076e-09
5.5066457e-08
5.5704362e-09
5.8610944e-08
6.3057622e-09
6.2189169e-08
7.1034959e-09
6.5802044e-08
7.9671144e-09
6.9450164e-08
8.9004834e-09
7.3133736e-08
9.9074358e-09
7.6852998e-08
1.0991889e-08
8.0607835e-08
1.2158067e-08
8.4397741e-08
1.3410096e-08
8.8221772e-08
1.4752381e-08
9.2078948e-08
1.6189089e-08
9.596786e-08
1.7724797e-08
9.9886465e-08
1.9363816e-08
1.0383304e-07
2.1110641e-08
1.0780473e-07
2.296953e-08
1.1179859e-07
2.4944894e-08
1.1581163e-07
2.7040791e-08
1.1983996e-07
2.9261493e-08
1.2387928e-07
3.1611095e-08
1.279254e-07
3.4093147e-08
1.3197333e-07
3.6711577e-08
1.3601787e-07
3.9469549e-08
1.4005348e-07
4.2370397e-08
1.4407372e-07
4.5417003e-08
1.4807247e-07
4.8611918e-08
1.5204296e-07
5.195748e-08
1.5597802e-07
5.5455533e-08
1.5987034e-07
5.9107842e-08
1.6371208e-07
6.2915292e-08
1.6749521e-07
6.6879123e-08
1.7121161e-07
7.0999373e-08
1.7485265e-07
7.5275817e-08
1.7840971e-07
7.9708108e-08
1.8187359e-07
8.4295387e-08
1.852355e-07
8.9035762e-08
1.884863e-07
9.3927539e-08
1.9161666e-07
9.896816e-08
1.9461701e-07
1.0415466e-07
1.974783e-07
1.0948351e-07
2.0019076e-07
1.1495084e-07
2.0274532e-07
1.2055223e-07
2.0513244e-07
1.2628237e-07
2.0734358e-07
1.321363e-07
2.0936903e-07
1.3810777e-07
2.1120016e-07
1.4419059e-07
2.1282813e-07
1.5037771e-07
2.142444e-07
1.5666215e-07
2.1544062e-07
1.6303606e-07
2.1640942e-07
1.6949107e-07
2.1714256e-07
1.760193e-07
2.1763297e-07
1.8261131e-07
2.1787388e-07
1.8925837e-07
2.1785786e-07
1.9595106e-07
2.1757961e-07
2.026791e-07
2.1703325e-07
2.0943275e-07
2.16213e-07
2.1620179e-07
2.1511407e-07
2.2297554e-07
2.1373231e-07
2.2974327e-07
2.1206392e-07
2.3649446e-07
2.1010509e-07
2.4321758e-07
2.078529e-07
2.4990204e-07
2.053054e-07
2.5653608e-07
2.0246022e-07
1.9931613e-07
1.5934002e-11
1.6082104e-09
6.3684198e-11
4.8240499e-09
1.4329807e-10
8.0403177e-09
2.5497609e-10
1.1258878e-08
3.9914836e-10
1.448265e-08
5.7649572e-10
1.7714502e-08
7.8785993e-10
2.0956987e-08
1.0343732e-09
2.4212463e-08
1.3172144e-09
2.7483162e-08
1.6379212e-09
3.077113e-08
1.9981118e-09
3.4078356e-08
2.399608e-09
3.7406785e-08
2.8444996e-09
4.0758161e-08
3.3348172e-09
4.4134166e-08
3.8731378e-09
4.7536291e-08
4.4619335e-09
5.0965925e-08
5.1040326e-09
5.442445e-08
5.802211e-09
5.7912745e-08
6.5595869e-09
6.1431758e-08
7.3795523e-09
6.4982176e-08
8.2652706e-09
6.8564392e-08
9.2203693e-09
7.2178646e-08
1.0248525e-08
7.5824881e-08
1.1353446e-08
7.9502941e-08
1.253897e-08
8.3212146e-08
1.3809273e-08
8.6951509e-08
1.5168047e-08
9.0720171e-08
1.6619541e-08
9.4516306e-08
1.8167694e-08
9.8338295e-08
1.9816926e-08
1.0218384e-07
2.1570954e-08
1.0605066e-07
2.3434133e-08
1.0993545e-07
2.5410414e-08
1.1383537e-07
2.7503571e-08
1.1774669e-07
2.9717657e-08
1.2166531e-07
3.2056087e-08
1.2558686e-07
3.4522608e-08
1.2950684e-07
3.7120485e-08
1.3342004e-07
3.9852707e-08
1.3732114e-07
4.2722403e-08
1.4120403e-07
4.5732119e-08
1.4506267e-07
4.8884179e-08
1.4889077e-07
5.2180712e-08
1.5268153e-07
5.5623304e-08
1.5642768e-07
5.9213485e-08
1.6012184e-07
6.2952243e-08
1.6375651e-07
6.6840154e-08
1.6732358e-07
7.0877449e-08
1.7081535e-07
7.5063924e-08
1.7422318e-07
7.9399189e-08
1.7753847e-07
8.3881519e-08
1.8075309e-07
8.851001e-08
1.8385784e-07
9.328264e-08
1.8684394e-07
9.8196582e-08
1.8970288e-07
1.0324955e-07
1.9242544e-07
1.0843746e-07
1.9500263e-07
1.1375682e-07
1.9742593e-07
1.1920307e-07
1.9968636e-07
1.24772e-07
2.0177486e-07
1.3045761e-07
2.0368325e-07
1.3625487e-07
2.0540302e-07
1.421571e-07
2.0692593e-07
1.4815802e-07
2.0824323e-07
1.5425047e-07
2.0934839e-07
1.6042721e-07
2.1023247e-07
1.6668048e-07
2.1088944e-07
1.7300222e-07
2.1131136e-07
1.7938387e-07
2.1149215e-07
1.8581672e-07
2.1142505e-07
1.9229173e-07
2.111046e-07
1.9879928e-07
2.1052549e-07
2.0533001e-07
2.0968226e-07
2.1187398e-07
2.0857028e-07
2.1842072e-07
2.0718549e-07
2.2496095e-07
2.0552395e-07
2.3148317e-07
2.0358245e-07
2.379776e-07
2.0135884e-07
2.4443327e-07
1.9884952e-07
2.5083934e-07
1.9605404e-07
1.9297018e-07
1.6663439e-11
1.5915475e-09
6.6612229e-11
4.7741002e-09
1.4989619e-10
7.9570301e-09
2.6671998e-10
1.1142055e-08
4.1748217e-10
1.433188e-08
6.0285173e-10
1.7529157e-08
8.2362627e-10
2.0736202e-08
1.0808907e-09
2.3955204e-08
1.3758311e-09
2.718821e-08
1.7098717e-09
3.0437083e-08
2.0845735e-09
3.3703694e-08
2.5016038e-09
3.6989681e-08
2.9630572e-09
4.0296729e-08
3.4708944e-09
4.3626306e-08
4.0275077e-09
4.6979751e-08
4.6350949e-09
5.0358298e-08
5.2965527e-09
5.3763022e-08
6.014468e-09
5.7194792e-08
6.7918286e-09
6.0654401e-08
7.6316502e-09
6.4142312e-08
8.5371461e-09
6.765888e-08
9.5116546e-09
7.1204135e-08
1.055857e-08
7.4777985e-08
1.1681446e-08
7.838007e-08
1.2883842e-08
8.2009667e-08
1.4169596e-08
8.5665848e-08
1.5542349e-08
8.9347383e-08
1.7005921e-08
9.3052762e-08
1.8564213e-08
9.6780063e-08
2.0220947e-08
1.0052717e-07
2.1980027e-08
1.0429161e-07
2.3845058e-08
1.0807033e-07
2.5820024e-08
1.1186047e-07
2.790839e-08
1.1565834e-07
3.0113682e-08
1.1945996e-07
3.2439321e-08
1.2326128e-07
3.4888516e-08
1.2705768e-07
3.7464293e-08
1.3084424e-07
4.016975e-08
1.3461573e-07
4.3007375e-08
1.3836649e-07
4.5979468e-08
1.4209066e-07
4.9088232e-08
1.4578206e-07
5.2335606e-08
1.4943417e-07
5.5722928e-08
1.5304033e-07
5.9251637e-08
1.5659323e-07
6.2922311e-08
1.6008584e-07
6.6735685e-08
1.6351039e-07
7.0691751e-08
1.6685932e-07
7.479014e-08
1.7012464e-07
7.9030269e-08
1.7329853e-07
8.3410904e-08
1.7637224e-07
8.7930713e-08
1.7933808e-07
9.2587263e-08
1.8218734e-07
9.7378874e-08
1.849115e-07
1.0230191e-07
1.8750226e-07
1.0735353e-07
1.899511e-07
1.1252989e-07
1.9224955e-07
1.1782673e-07
1.9438946e-07
1.2323958e-07
1.9636206e-07
1.2876335e-07
1.9815964e-07
1.3439233e-07
1.997739e-07
1.4012086e-07
2.0119727e-07
1.4594236e-07
2.0242177e-07
1.5185028e-07
2.0344025e-07
1.5783776e-07
2.0424523e-07
1.6389681e-07
2.0483026e-07
1.7002012e-07
2.0518796e-07
1.761997e-07
2.0531262e-07
1.8242656e-07
2.0519813e-07
1.886926e-07
2.0483877e-07
1.9498839e-07
2.0422956e-07
2.013049e-07
2.0336581e-07
2.0763248e-07
2.022426e-07
2.1396208e-07
2.0085616e-07
2.2028295e-07
1.9920273e-07
2.2658609e-07
1.9727972e-07
2.3286046e-07
1.9508414e-07
2.3909669e-07
1.926136e-07
2.452839e-07
1.8986669e-07
1.8684201e-07
1.7337843e-11
1.5742084e-09
6.9320774e-11
4.7221248e-09
1.5599101e-10
7.8703517e-09
2.7754684e-10
1.1020507e-08
4.3438968e-10
1.4175049e-08
6.2714061e-10
1.73364e-08
8.5660394e-10
2.050673e-08
1.1237648e-09
2.3688048e-08
1.4298289e-09
2.6882156e-08
1.7760895e-09
3.0090846e-08
2.1640303e-09
3.3315706e-08
2.5953861e-09
3.6558356e-08
3.0719313e-09
3.9820153e-08
3.5956852e-09
4.3102587e-08
4.1687856e-09
4.6406631e-08
4.7936148e-09
4.9733464e-08
5.4725709e-09
5.3084047e-08
6.2082586e-09
5.6459127e-08
7.0035085e-09
5.9859205e-08
7.8611311e-09
6.3284743e-08
8.784209e-09
6.6735807e-08
9.7758167e-09
7.0212548e-08
1.0839161e-08
7.3714654e-08
1.1977542e-08
7.7241712e-08
1.3194492e-08
8.0792797e-08
1.4493354e-08
8.4366953e-08
1.5877638e-08
8.796309e-08
1.7350999e-08
9.1579385e-08
1.8916875e-08
9.5214188e-08
2.0578955e-08
9.886508e-08
2.2340781e-08
1.0252979e-07
2.4205577e-08
1.0620549e-07
2.6177192e-08
1.0988897e-07
2.8258683e-08
1.1357681e-07
3.0453406e-08
1.1726516e-07
3.2764567e-08
1.2095004e-07
3.5195131e-08
1.2462717e-07
3.7747748e-08
1.2829152e-07
4.042525e-08
1.3193832e-07
4.3229835e-08
1.3556183e-07
4.6163912e-08
1.3915671e-07
4.9229093e-08
1.4271687e-07
5.2427158e-08
1.4623612e-07
5.5759502e-08
1.4970792e-07
5.92273e-08
1.5312548e-07
6.28309e-08
1.5648216e-07
6.6570811e-08
1.5977038e-07
7.0447079e-08
1.6298306e-07
7.4459301e-08
1.6611245e-07
7.8606739e-08
1.6915103e-07
8.2888052e-08
1.7209088e-07
8.730189e-08
1.7492425e-07
9.1846325e-08
1.7764302e-07
9.6518788e-08
1.80239e-07
1.0131649e-07
1.8270458e-07
1.0623614e-07
1.8503143e-07
1.1127436e-07
1.8721149e-07
1.1642697e-07
1.8923685e-07
1.216893e-07
1.9109976e-07
1.2705665e-07
1.9279233e-07
1.3252357e-07
1.9430703e-07
1.3808465e-07
1.956363e-07
1.4373355e-07
1.9677295e-07
1.4946394e-07
1.9770984e-07
1.5526901e-07
1.9844025e-07
1.6114166e-07
1.9895758e-07
1.6707442e-07
1.9925517e-07
1.7305951e-07
1.993277e-07
1.7908866e-07
1.9916888e-07
1.8515367e-07
1.9877375e-07
1.9124589e-07
1.9813742e-07
1.9735639e-07
1.9725497e-07
2.034765e-07
1.9612236e-07
2.0959688e-07
1.9473581e-07
2.1570769e-07
1.930918e-07
2.2179968e-07
1.9118768e-07
2.2786334e-07
1.890206e-07
2.3388848e-07
1.865885e-07
2.3986561e-07
1.8389e-07
1.809232e-07
1.7962078e-11
1.5562449e-09
7.1812977e-11
4.6682696e-09
1.6160647e-10
7.7805625e-09
2.8752209e-10
1.0894584e-08
4.4995921e-10
1.4012616e-08
6.4949566e-10
1.7136856e-08
8.8691981e-10
2.0269318e-08
1.163195e-09
2.3411765e-08
1.479407e-09
2.6565935e-08
1.8368339e-09
2.9733415e-08
2.2369293e-09
3.2915662e-08
2.6812145e-09
3.611402e-08
3.1715319e-09
3.9329894e-08
3.7097185e-09
4.2564354e-08
4.2978714e-09
4.581846e-08
4.9381044e-09
4.9093243e-08
5.6328002e-09
5.2389341e-08
6.3844945e-09
5.570745e-08
7.1957115e-09
5.9047955e-08
8.0691577e-09
6.2411243e-08
9.0076504e-09
6.5797294e-08
1.0014264e-08
6.9206004e-08
1.1091896e-08
7.2637016e-08
1.2243666e-08
7.6089813e-08
1.3472899e-08
7.9563634e-08
1.4782617e-08
8.3057253e-08
1.6176282e-08
8.6569441e-08
1.7657136e-08
9.0098542e-08
1.9228551e-08
9.3642741e-08
2.0893783e-08
9.7199932e-08
2.2656098e-08
1.0076744e-07
2.4518882e-08
1.043427e-07
2.6485124e-08
1.0792265e-07
2.8558097e-08
1.1150382e-07
3.0740766e-08
1.1508254e-07
3.3035926e-08
1.1865493e-07
3.5446394e-08
1.2221668e-07
3.7974702e-08
1.2576326e-07
4.0623249e-08
1.2928965e-07
4.3394279e-08
1.327908e-07
4.6289661e-08
1.3626127e-07
4.9311092e-08
1.3969539e-07
5.2460079e-08
1.4308705e-07
5.5737803e-08
1.4643025e-07
5.9145135e-08
1.4971831e-07
6.2682576e-08
1.5294466e-07
6.6350322e-08
1.5610259e-07
7.0148525e-08
1.5918494e-07
7.4076491e-08
1.6218459e-07
7.8133356e-08
1.65094e-07
8.2318086e-08
1.6790601e-07
8.662895e-08
1.7061349e-07
9.1063964e-08
1.7320791e-07
9.5620721e-08
1.7568227e-07
1.0029706e-07
1.780285e-07
1.0508928e-07
1.8023912e-07
1.0999383e-07
1.8230681e-07
1.1500708e-07
1.8422375e-07
1.201239e-07
1.8598273e-07
1.2534042e-07
1.8757576e-07
1.3065124e-07
1.8899615e-07
1.3605101e-07
1.9023666e-07
1.4153353e-07
1.912904e-07
1.4709293e-07
1.9215035e-07
1.527227e-07
1.9281063e-07
1.5841582e-07
1.9326461e-07
1.6416519e-07
1.9350577e-07
1.6996303e-07
1.9352975e-07
1.7580218e-07
1.9332993e-07
1.816741e-07
1.9290165e-07
1.8757091e-07
1.9224056e-07
1.9348386e-07
1.9134203e-07
1.9940467e-07
1.9020167e-07
2.0532398e-07
1.8881646e-07
2.1123297e-07
1.8718291e-07
2.1712264e-07
1.8529814e-07
2.2298346e-07
1.8315981e-07
2.2880611e-07
1.8076578e-07
2.3458112e-07
1.7811478e-07
1.7520539e-07
1.8532812e-11
1.5377132e-09
7.4099696e-11
4.6126985e-09
1.6674806e-10
7.6879223e-09
2.9664971e-10
1.0764681e-08
4.6420717e-10
1.3845056e-08
6.699707e-10
1.6931094e-08
9.1468698e-10
2.0024597e-08
1.1992496e-09
2.3127207e-08
1.5247264e-09
2.6240469e-08
1.8923417e-09
2.9365802e-08
2.3034536e-09
3.2504539e-08
2.7595552e-09
3.565794e-08
3.2622837e-09
3.8827101e-08
3.8135682e-09
4.2013141e-08
4.4152208e-09
4.521684e-08
5.0693719e-09
4.8439108e-08
5.7781616e-09
5.168052e-08
6.544047e-09
5.4941543e-08
7.3693567e-09
5.8222628e-08
8.2568026e-09
6.1523859e-08
9.2088719e-09
6.4845143e-08
1.0228468e-08
6.8186401e-08
1.1318278e-08
7.154717e-08
1.248155e-08
7.492674e-08
1.372081e-08
7.8324258e-08
1.5039426e-08
8.1738598e-08
1.6440357e-08
8.5168573e-08
1.7926782e-08
8.8612159e-08
1.9501613e-08
9.2067981e-08
2.1168054e-08
9.5533429e-08
2.2929019e-08
9.900639e-08
2.4787862e-08
1.0248394e-07
2.6747119e-08
1.0596334e-07
2.8809936e-08
1.0944108e-07
3.0978917e-08
1.1291357e-07
3.3256834e-08
1.1637695e-07
3.5646138e-08
1.1982744e-07
3.8149183e-08
1.2326023e-07
4.076801e-08
1.2667079e-07
4.3504928e-08
1.3005404e-07
4.6361189e-08
1.3340499e-07
4.9338756e-08
1.367178e-07
5.2438768e-08
1.3998713e-07
5.5662116e-08
1.4320682e-07
5.9009786e-08
1.4637071e-07
6.2481966e-08
1.4947254e-07
6.6078906e-08
1.5250568e-07
6.9800449e-08
1.5546341e-07
7.3645909e-08
1.5833892e-07
7.7614455e-08
1.6112559e-07
8.1704785e-08
1.6381566e-07
8.5915643e-08
1.664027e-07
9.0244701e-08
1.6887879e-07
9.4689734e-08
1.7123714e-07
9.924802e-08
1.7347019e-07
1.0391646e-07
1.7557076e-07
1.0869175e-07
1.7753149e-07
1.1356993e-07
1.7934568e-07
1.185468e-07
1.8100581e-07
1.2361789e-07
1.8250484e-07
1.2877789e-07
1.8383603e-07
1.3402209e-07
1.8499241e-07
1.3934456e-07
1.8596795e-07
1.4473933e-07
1.8675565e-07
1.5019995e-07
1.8734951e-07
1.557205e-07
1.8774415e-07
1.6129328e-07
1.8793314e-07
1.669115e-07
1.8791139e-07
1.7256765e-07
1.8767363e-07
1.7825413e-07
1.872152e-07
1.8396293e-07
1.8653178e-07
1.896861e-07
1.8561896e-07
1.9541492e-07
1.8447271e-07
2.0114158e-07
1.8309019e-07
2.0685666e-07
1.8146769e-07
2.1255168e-07
1.7960316e-07
2.182176e-07
1.7749381e-07
2.2384561e-07
1.7513792e-07
2.2942641e-07
1.7253381e-07
1.6968067e-07
1.9053447e-11
1.5186595e-09
7.6184841e-11
4.5555723e-09
1.7143043e-10
7.592664e-09
3.0500075e-10
1.0631116e-08
4.7722104e-10
1.3672827e-08
6.8867251e-10
1.6719663e-08
9.4001391e-10
1.9773248e-08
1.2321184e-09
2.2835088e-08
1.5660619e-09
2.5906552e-08
1.9428894e-09
2.898897e-08
2.3639579e-09
3.2083452e-08
2.8307498e-09
3.5191191e-08
3.3447164e-09
3.8313135e-08
3.9077255e-09
4.1450137e-08
4.5214622e-09
4.460306e-08
5.1880023e-09
4.7772565e-08
5.9093853e-09
5.0959164e-08
6.6878431e-09
5.4163145e-08
7.5256082e-09
5.7384869e-08
8.4251815e-09
6.0624268e-08
9.389014e-09
6.3881335e-08
1.0419773e-08
6.7155747e-08
1.1520014e-08
7.0446943e-08
1.2692545e-08
7.3754136e-08
1.3940207e-08
7.7076659e-08
1.526564e-08
8.0413125e-08
1.6671946e-08
8.3762198e-08
1.8161799e-08
8.71223e-08
1.9738356e-08
9.0491485e-08
2.1404221e-08
9.3867585e-08
2.316226e-08
9.7248243e-08
2.5015372e-08
1.0063088e-07
2.6966148e-08
1.0401247e-07
2.9017293e-08
1.0738988e-07
3.1171392e-08
1.1075945e-07
3.3430781e-08
1.1411761e-07
3.5797833e-08
1.1746034e-07
3.8274633e-08
1.2078344e-07
4.0863164e-08
1.2408225e-07
4.3565235e-08
1.2735198e-07
4.6382345e-08
1.3058778e-07
4.9315931e-08
1.3378433e-07
5.2367116e-08
1.3693591e-07
5.5536661e-08
1.4003719e-07
5.8825274e-08
1.4308209e-07
6.2233226e-08
1.460646e-07
6.5760432e-08
1.4897833e-07
6.9406743e-08
1.5181718e-07
7.3171549e-08
1.5457416e-07
7.7053944e-08
1.5724316e-07
8.1052647e-08
1.5981712e-07
8.516587e-08
1.6228945e-07
8.9391979e-08
1.6465272e-07
9.3728178e-08
1.6690079e-07
9.8172323e-08
1.690261e-07
1.0272124e-07
1.7102183e-07
1.073714e-07
1.7288132e-07
1.1211924e-07
1.7459779e-07
1.169605e-07
1.7616462e-07
1.2189107e-07
1.7757437e-07
1.2690591e-07
1.7882094e-07
1.3199997e-07
1.7989842e-07
1.3716818e-07
1.8079987e-07
1.4240421e-07
1.8151954e-07
1.4770268e-07
1.8205153e-07
1.5305657e-07
1.8239002e-07
1.5845975e-07
1.8252995e-07
1.6390511e-07
1.8246614e-07
1.6938528e-07
1.8219323e-07
1.7489333e-07
1.8170726e-07
1.8042149e-07
1.8100366e-07
1.8596218e-07
1.8007843e-07
1.9150693e-07
1.7892795e-07
1.9704771e-07
1.7754909e-07
2.0257647e-07
1.75939e-07
2.0808442e-07
1.7409508e-07
2.1356334e-07
1.7201495e-07
2.1900441e-07
1.6969668e-07
2.2439866e-07
1.6713939e-07
1.6434189e-07
1.9525931e-11
1.4991355e-09
7.8074463e-11
4.4970234e-09
1.7570014e-10
7.4950391e-09
3.1257872e-10
1.0494243e-08
4.8905367e-10
1.3496364e-08
7.0563261e-10
1.6503075e-08
9.6299526e-10
1.9515875e-08
1.2619658e-09
2.2536121e-08
1.603491e-09
2.5565016e-08
1.9886872e-09
2.8603775e-08
2.4187732e-09
3.1653376e-08
2.8951025e-09
3.4714827e-08
3.419222e-09
3.778905e-08
3.9926475e-09
4.0876678e-08
4.617197e-09
4.3978506e-08
5.2947923e-09
4.7095013e-08
6.0272161e-09
5.0226667e-08
6.8166292e-09
5.3373655e-08
7.6653091e-09
5.6536191e-08
8.5753811e-09
5.9714179e-08
9.54929e-09
6.2907402e-08
1.0589463e-08
6.6115584e-08
1.1698297e-08
6.9338053e-08
1.2878413e-08
7.2573988e-08
1.4132525e-08
7.5822632e-08
1.5463132e-08
7.9082515e-08
1.6873053e-08
8.2352376e-08
1.8364757e-08
8.5630463e-08
1.9941212e-08
8.8915124e-08
2.1604768e-08
9.2204e-08
2.3358245e-08
9.5494864e-08
2.5204098e-08
9.8785093e-08
2.714496e-08
1.0207169e-07
2.9183152e-08
1.0535164e-07
3.1321052e-08
1.0862154e-07
3.3560895e-08
1.118778e-07
3.5904797e-08
1.151165e-07
3.8354634e-08
1.1833353e-07
4.0912231e-08
1.215247e-07
4.3579197e-08
1.2468502e-07
4.6356894e-08
1.2781007e-07
4.9246508e-08
1.3089461e-07
5.2249039e-08
1.3393338e-07
5.5365231e-08
1.3692101e-07
5.8595548e-08
1.3985167e-07
6.1940279e-08
1.4271994e-07
6.5399126e-08
1.4551952e-07
6.8971789e-08
1.482444e-07
7.2657737e-08
1.508883e-07
7.6456154e-08
1.5344482e-07
8.0365162e-08
1.5590797e-07
8.4383574e-08
1.58271e-07
8.8509387e-08
1.6052711e-07
9.2740388e-08
1.6266977e-07
9.7073775e-08
1.6469272e-07
1.0150665e-07
1.6658889e-07
1.0603571e-07
1.6835228e-07
1.1065752e-07
1.6997616e-07
1.1536809e-07
1.7145401e-07
1.2016307e-07
1.727794e-07
1.2503761e-07
1.7394643e-07
1.2998728e-07
1.7494874e-07
1.3500639e-07
1.7578068e-07
1.4008986e-07
1.7643614e-07
1.4523141e-07
1.7690991e-07
1.5042511e-07
1.771963e-07
1.5566489e-07
1.7729044e-07
1.609438e-07
1.7718712e-07
1.6625505e-07
1.7688218e-07
1.7159145e-07
1.7637074e-07
1.7694591e-07
1.7564911e-07
1.8231085e-07
1.7471341e-07
1.8767851e-07
1.7356027e-07
1.9304111e-07
1.7218662e-07
1.983908e-07
1.7058937e-07
2.0371921e-07
1.6876665e-07
2.0901804e-07
1.6671598e-07
2.142794e-07
1.6443571e-07
2.1949465e-07
1.6192441e-07
1.5918082e-07
1.9952175e-11
1.4791827e-09
7.9786536e-11
4.4371902e-09
1.7955292e-10
7.3952664e-09
3.194213e-10
1.0354367e-08
4.9973359e-10
1.3316051e-08
7.209652e-10
1.6281839e-08
9.8376594e-10
1.9253088e-08
1.2889127e-09
2.2230958e-08
1.6373109e-09
2.5216615e-08
2.0300062e-09
2.821108e-08
2.468143e-09
3.1215226e-08
2.9530305e-09
3.4229934e-08
3.4861376e-09
3.7255946e-08
4.0689065e-09
4.0293951e-08
4.7029807e-09
4.334443e-08
5.3901974e-09
4.640782e-08
6.1323e-09
4.9484527e-08
6.9314084e-09
5.2574664e-08
7.7893536e-09
5.5678206e-08
8.7084252e-09
5.8795082e-08
9.6908075e-09
6.192506e-08
1.0738711e-08
6.5067697e-08
1.1854583e-08
6.8222184e-08
1.3040736e-08
7.1387867e-08
1.4299626e-08
7.4563668e-08
1.5633678e-08
7.7748435e-08
1.7045522e-08
8.094058e-08
1.8537465e-08
8.4138585e-08
2.0112104e-08
8.734037e-08
2.1771882e-08
9.0544185e-08
2.3519311e-08
9.3747396e-08
2.5356621e-08
9.694768e-08
2.7286135e-08
1.0014216e-07
2.9310187e-08
1.0332762e-07
3.1430885e-08
1.0650089e-07
3.3650213e-08
1.0965849e-07
3.597013e-08
1.1279653e-07
3.8392356e-08
1.1591133e-07
4.0918475e-08
1.1899844e-07
4.3550017e-08
1.2205349e-07
4.6288166e-08
1.2507196e-07
4.913396e-08
1.2804877e-07
5.2088209e-08
1.3097912e-07
5.5151622e-08
1.3385775e-07
5.8324329e-08
1.3667899e-07
6.160664e-08
1.3943751e-07
6.4998493e-08
1.4212778e-07
6.8498985e-08
1.4474376e-07
7.2107897e-08
1.4727947e-07
7.5823913e-08
1.4972898e-07
7.9645727e-08
1.5208617e-07
8.3571922e-08
1.5434463e-07
8.760045e-08
1.5649845e-07
9.1729079e-08
1.5854119e-07
9.5955107e-08
1.6046669e-07
1.0027579e-07
1.6226814e-07
1.0468774e-07
1.6394012e-07
1.0918788e-07
1.6547604e-07
1.137718e-07
1.6686993e-07
1.1843571e-07
1.6811566e-07
1.2317492e-07
1.6920705e-07
1.2798519e-07
1.7013859e-07
1.3286088e-07
1.7090488e-07
1.377969e-07
1.7150003e-07
1.4278785e-07
1.7191898e-07
1.4782753e-07
1.7215671e-07
1.5290958e-07
1.7220815e-07
1.5802837e-07
1.7206849e-07
1.6317677e-07
1.7173351e-07
1.6834823e-07
1.7119935e-07
1.7353549e-07
1.7046182e-07
1.7873148e-07
1.6951731e-07
1.8392891e-07
1.683629e-07
1.8911999e-07
1.6699535e-07
1.9429727e-07
1.6541217e-07
1.9945295e-07
1.6361097e-07
2.0457919e-07
1.6158977e-07
2.0966779e-07
1.5934705e-07
2.147107e-07
1.5688104e-07
1.5419161e-07
2.0338e-11
1.4588443e-09
8.133013e-11
4.3762012e-09
1.8303462e-10
7.2935677e-09
3.256035e-10
1.0211799e-08
5.0935905e-10
1.3132283e-08
7.3477566e-10
1.6056425e-08
1.0024391e-09
1.8985415e-08
1.3130952e-09
2.1920317e-08
1.6676257e-09
2.4862094e-08
2.0670251e-09
2.7811696e-08
2.5123248e-09
3.0769889e-08
3.0048506e-09
3.3737434e-08
3.5458855e-09
3.671491e-08
4.1368429e-09
3.9702966e-08
4.7793339e-09
4.2701919e-08
5.4749416e-09
4.5712211e-08
6.2255121e-09
4.8733957e-08
7.0327311e-09
5.1767337e-08
7.898658e-09
5.4812304e-08
8.8252687e-09
5.7868537e-08
9.8145782e-09
6.0935737e-08
1.0868762e-08
6.4013398e-08
1.1990077e-08
6.7100926e-08
1.3180656e-08
7.019727e-08
1.4442861e-08
7.3301561e-08
1.577883e-08
7.6412388e-08
1.7191111e-08
7.952833e-08
1.8681745e-08
8.2647807e-08
2.02532e-08
8.5769006e-08
2.190782e-08
8.8889562e-08
2.3647833e-08
9.2007502e-08
2.5475297e-08
9.5120257e-08
2.7392455e-08
9.8225024e-08
2.9401201e-08
1.0131883e-07
3.1503675e-08
1.0439846e-07
3.3701593e-08
1.0746052e-07
3.5996726e-08
1.1050143e-07
3.8390892e-08
1.1351729e-07
4.0885275e-08
1.1650418e-07
4.3481038e-08
1.1945763e-07
4.617953e-08
1.2237336e-07
4.8981699e-08
1.2524675e-07
5.1887943e-08
1.2807283e-07
5.4898945e-08
1.3084666e-07
5.8014945e-08
1.3356291e-07
6.1236105e-08
1.3621649e-07
6.4561888e-08
1.3880205e-07
6.7991838e-08
1.4131374e-07
7.1525392e-08
1.4374595e-07
7.5161051e-08
1.4609315e-07
7.8898051e-08
1.4834919e-07
8.2734406e-08
1.5050831e-07
8.6668434e-08
1.5256462e-07
9.0697569e-08
1.5451203e-07
9.4819564e-08
1.5634467e-07
9.9031328e-08
1.5805637e-07
1.0333001e-07
1.5964152e-07
1.0771206e-07
1.6109418e-07
1.1217389e-07
1.6240812e-07
1.1671131e-07
1.6357819e-07
1.2132005e-07
1.6459831e-07
1.2599552e-07
1.6546314e-07
1.3073293e-07
1.6616746e-07
1.3552698e-07
1.6670607e-07
1.4037235e-07
1.6707366e-07
1.4526361e-07
1.6726555e-07
1.5019445e-07
1.6727717e-07
1.5515884e-07
1.6710406e-07
1.6015077e-07
1.667419e-07
1.6516329e-07
1.6618681e-07
1.7018973e-07
1.654355e-07
1.7522319e-07
1.6448391e-07
1.8025701e-07
1.6332919e-07
1.8528336e-07
1.6196904e-07
1.9029483e-07
1.6040056e-07
1.9528458e-07
1.5862152e-07
2.0024432e-07
1.5663002e-07
2.0516688e-07
1.5442439e-07
2.1004435e-07
1.5200382e-07
1.4936712e-07
2.0684469e-11
1.4381621e-09
8.2713626e-11
4.3141685e-09
1.8613842e-10
7.1901367e-09
3.3112674e-10
1.0066811e-08
5.1796324e-10
1.2945458e-08
7.4709524e-10
1.582729e-08
1.0191203e-09
1.8713407e-08
1.3347012e-09
2.1604727e-08
1.6946973e-09
2.4502111e-08
2.1000096e-09
2.7406376e-08
2.5516759e-09
3.031819e-08
3.0508584e-09
3.3238224e-08
3.5988708e-09
3.6166945e-08
4.1970069e-09
3.9104853e-08
4.8467418e-09
4.2052193e-08
5.5496336e-09
4.5009326e-08
6.3073035e-09
4.7976328e-08
7.1214884e-09
5.0953123e-08
7.9941023e-09
5.3939752e-08
8.9268519e-09
5.6935757e-08
9.9218099e-09
5.9940807e-08
1.0980864e-08
6.2954358e-08
1.21062e-08
6.5975581e-08
1.3299769e-08
6.9003679e-08
1.45637e-08
7.2037529e-08
1.590024e-08
7.5075856e-08
1.7311509e-08
7.8117173e-08
1.8799597e-08
8.1159835e-08
2.0366563e-08
8.4201859e-08
2.2014719e-08
8.7241341e-08
2.3745943e-08
9.0276212e-08
2.5562445e-08
9.3303721e-08
2.7466008e-08
9.6321505e-08
2.9458626e-08
9.9326209e-08
3.1542007e-08
1.0231503e-07
3.371782e-08
1.0528468e-07
3.5987677e-08
1.0823146e-07
3.8353088e-08
1.1115192e-07
4.081529e-08
1.1404193e-07
4.3375408e-08
1.1689757e-07
4.6034328e-08
1.1971453e-07
4.8792895e-08
1.2248817e-07
5.1651622e-08
1.2521407e-07
5.4610917e-08
1.2788728e-07
5.7671044e-08
1.3050285e-07
6.0831782e-08
1.3305577e-07
6.4092889e-08
1.3554092e-07
6.7453597e-08
1.3795292e-07
7.0913368e-08
1.4028623e-07
7.4471021e-08
1.4253548e-07
7.8125179e-08
1.4469506e-07
8.1874126e-08
1.4675937e-07
8.571604e-08
1.4872261e-07
8.9648728e-08
1.5057936e-07
9.366967e-08
1.5232377e-07
9.7776069e-08
1.5395013e-07
1.0196496e-07
1.5545255e-07
1.06233e-07
1.5682612e-07
1.1057664e-07
1.5806454e-07
1.149918e-07
1.5916293e-07
1.1947458e-07
1.6011565e-07
1.2402002e-07
1.6091757e-07
1.2862389e-07
1.6156372e-07
1.3328111e-07
1.620487e-07
1.3798638e-07
1.623683e-07
1.4273425e-07
1.6251761e-07
1.4751926e-07
1.6249231e-07
1.5233515e-07
1.6228798e-07
1.5717616e-07
1.6190086e-07
1.6203588e-07
1.6132713e-07
1.6690768e-07
1.6056362e-07
1.7178517e-07
1.5960649e-07
1.7666122e-07
1.5845336e-07
1.8152894e-07
1.5710129e-07
1.8638141e-07
1.5554814e-07
1.9121114e-07
1.5379144e-07
1.9601131e-07
1.5182989e-07
2.0077414e-07
1.4966154e-07
2.0549244e-07
1.4728573e-07
1.4470107e-07
2.0986704e-11
1.4171747e-09
8.3936235e-11
4.2512201e-09
1.8890744e-10
7.0851736e-09
3.3602865e-10
9.9196799e-09
5.2560919e-10
1.2755864e-08
7.5806341e-10
1.5594842e-08
1.0339072e-09
1.8437537e-08
1.3538543e-09
2.1284795e-08
1.7186455e-09
2.413731e-08
2.1291503e-09
2.6995841e-08
2.5863747e-09
2.9861001e-08
3.09144e-09
3.2733189e-08
3.6454547e-09
3.5612886e-08
4.2497576e-09
3.8500554e-08
4.9057244e-09
4.1396223e-08
5.6147748e-09
4.4300258e-08
6.3784607e-09
4.7212613e-08
7.1984582e-09
5.0133165e-08
8.0764176e-09
5.3061774e-08
9.0140889e-09
5.599804e-08
1.0013295e-08
5.8941587e-08
1.1075948e-08
6.1891687e-08
1.2203921e-08
6.4847626e-08
1.3399236e-08
6.7808428e-08
1.4663698e-08
7.0773039e-08
1.5999489e-08
7.374009e-08
1.7408358e-08
7.6708231e-08
1.8892427e-08
7.967569e-08
2.0453817e-08
8.2640465e-08
2.2094299e-08
8.5601025e-08
2.3815772e-08
8.8554693e-08
2.5620166e-08
9.1499336e-08
2.7509297e-08
9.4432326e-08
2.9484788e-08
9.7350714e-08
3.1548309e-08
1.0025154e-07
3.3701402e-08
1.0313157e-07
3.5945494e-08
1.0598741e-07
3.8281854e-08
1.0881553e-07
4.0711535e-08
1.1161217e-07
4.3235735e-08
1.1437346e-07
4.5855175e-08
1.1709504e-07
4.8570442e-08
1.1977288e-07
5.1382096e-08
1.2240239e-07
5.4290307e-08
1.2497903e-07
5.7295306e-08
1.2749793e-07
6.0396676e-08
1.2995438e-07
6.3594286e-08
1.3234341e-07
6.6887383e-08
1.3465987e-07
7.0275044e-08
1.3689857e-07
7.3756282e-08
1.3905432e-07
7.7329733e-08
1.4112155e-07
8.0993601e-08
1.4309557e-07
8.4746066e-08
1.4497008e-07
8.8585104e-08
1.4674026e-07
9.2508148e-08
1.4840072e-07
9.6512223e-08
1.4994562e-07
1.0059505e-07
1.5136996e-07
1.0475283e-07
1.5266819e-07
1.0898213e-07
1.538353e-07
1.1327908e-07
1.5486591e-07
1.1763977e-07
1.5575506e-07
1.2206018e-07
1.5649721e-07
1.2653507e-07
1.5708842e-07
1.3106022e-07
1.5752379e-07
1.3563031e-07
1.5779823e-07
1.4024055e-07
1.5790758e-07
1.4488496e-07
1.5784797e-07
1.4955807e-07
1.576152e-07
1.5425357e-07
1.5720515e-07
1.5896603e-07
1.5661477e-07
1.6368902e-07
1.5584047e-07
1.6841606e-07
1.5487936e-07
1.7314068e-07
1.5372878e-07
1.7785569e-07
1.5238601e-07
1.8255493e-07
1.5084893e-07
1.8723116e-07
1.4911519e-07
1.9187784e-07
1.4718345e-07
1.9648719e-07
1.4505209e-07
2.0105227e-07
1.4272035e-07
1.4018739e-07
2.1260556e-11
1.3959138e-09
8.5027841e-11
4.1874524e-09
1.9134721e-10
6.9788432e-09
3.4037033e-10
9.770667e-09
5.3236308e-10
1.2563881e-08
7.6771877e-10
1.5359487e-08
1.0469584e-09
1.8158285e-08
1.3706956e-09
2.0961046e-08
1.7396547e-09
2.3768353e-08
2.1546871e-09
2.6580839e-08
2.6167447e-09
2.9398938e-08
3.1267957e-09
3.2223139e-08
3.6860478e-09