/*--------------------------------*- C++ -*----------------------------------*\
| =========                 |                                                 |
| \\      /  F ield         | OpenFOAM: The Open Source CFD Toolbox           |
|  \\    /   O peration     | Version:  2306                                  |
|   \\  /    A nd           | Website:  www.openfoam.com                      |
|    \\/     M anipulation  |                                                 |
\*---------------------------------------------------------------------------*/
FoamFile
{
    version     2.0;
    format      ascii;
    arch        "LSB;label=32;scalar=64";
    class       surfaceScalarField;
    location    "0.3";
    object      phi_0;
}
// * * * * * * * * * * * * * * * * * * * * * * * * * * * * * * * * * * * * * //

dimensions      [0 3 -1 0 0 0 0];

oriented        oriented;

internalField   nonuniform List<scalar> 
12640
(
1.7802216e-07
1.831952e-07
1.8484431e-07
1.8165628e-07
1.9163109e-07
1.798089e-07
1.9836958e-07
1.7765103e-07
2.0504646e-07
1.7518159e-07
2.1164908e-07
1.724004e-07
2.1816417e-07
1.6930751e-07
2.2457921e-07
1.6590373e-07
2.3088154e-07
1.6219045e-07
2.3705841e-07
1.5816984e-07
2.4309762e-07
1.5384461e-07
2.4898681e-07
1.492177e-07
2.5471429e-07
1.4429333e-07
2.6026867e-07
1.390754e-07
2.656383e-07
1.3356928e-07
2.7081221e-07
1.277797e-07
2.7577958e-07
1.2171359e-07
2.805298e-07
1.1537663e-07
2.8505332e-07
1.0877588e-07
2.8934016e-07
1.019191e-07
2.9338088e-07
9.4813552e-08
2.9716743e-07
8.7467955e-08
3.0069053e-07
7.9890552e-08
3.0394214e-07
7.2089629e-08
3.0691501e-07
6.4075612e-08
3.0960114e-07
5.5857785e-08
3.1199483e-07
4.7445979e-08
3.1408847e-07
3.8851943e-08
3.1587729e-07
3.0083692e-08
3.1735519e-07
2.1154266e-08
3.1851717e-07
1.2072839e-08
3.193594e-07
2.8505919e-09
3.1987751e-07
-6.5026751e-09
3.2006741e-07
-1.5971028e-08
3.1992572e-07
-2.5544462e-08
3.1945082e-07
-3.5212205e-08
3.1863998e-07
-4.4961138e-08
3.174906e-07
-5.4779257e-08
3.1600249e-07
-6.465565e-08
3.1417433e-07
-7.4577021e-08
3.1200541e-07
-8.4531434e-08
3.094957e-07
-9.4506551e-08
3.0664606e-07
-1.0449095e-07
3.0345691e-07
-1.1447139e-07
2.999291e-07
-1.2443564e-07
2.9606531e-07
-1.3437221e-07
2.9186665e-07
-1.4426827e-07
2.8733645e-07
-1.5411239e-07
2.8247719e-07
-1.6389187e-07
2.7729167e-07
-1.7359503e-07
2.717837e-07
-1.8321029e-07
2.6595749e-07
-1.9272526e-07
2.5981739e-07
-2.0212911e-07
2.5336818e-07
-2.1141024e-07
2.4661468e-07
-2.2055719e-07
2.3956223e-07
-2.2955864e-07
2.3221702e-07
-2.3840353e-07
2.2458481e-07
-2.4708165e-07
2.1667196e-07
-2.5558149e-07
2.084852e-07
-2.6389314e-07
2.0003157e-07
-2.7200564e-07
1.9131855e-07
-2.7991029e-07
1.8235372e-07
-2.8759625e-07
1.7314445e-07
-2.9505408e-07
1.6369953e-07
-3.0227432e-07
1.5402716e-07
-3.0924729e-07
1.441355e-07
-3.1596534e-07
1.340345e-07
-3.2241961e-07
1.2373223e-07
-3.2860114e-07
1.1323918e-07
-3.3450184e-07
1.0256385e-07
-3.4011377e-07
9.1717412e-08
-3.4542986e-07
8.0708592e-08
-3.5044261e-07
6.9548876e-08
-3.5514541e-07
5.8248013e-08
-3.5953198e-07
4.6816936e-08
-3.6359758e-07
3.5266234e-08
-3.6733908e-07
2.3606386e-08
-3.7076194e-07
1.1847572e-08
-3.7387888e-07
-3.7669739e-07
1.7421809e-07
1.7661158e-07
1.8077976e-07
1.7509472e-07
1.8730696e-07
1.732817e-07
1.937871e-07
1.7117069e-07
2.0020778e-07
1.6876096e-07
2.0655654e-07
1.6605156e-07
2.1282108e-07
1.6304314e-07
2.1898919e-07
1.5973567e-07
2.2504829e-07
1.5613133e-07
2.3098672e-07
1.5223136e-07
2.3679269e-07
1.4803868e-07
2.4245452e-07
1.4355599e-07
2.4796038e-07
1.3878725e-07
2.5329969e-07
1.3373616e-07
2.5846117e-07
1.284077e-07
2.6343429e-07
1.2280676e-07
2.6820828e-07
1.1693946e-07
2.7277382e-07
1.1081117e-07
2.7712034e-07
1.0442939e-07
2.8123939e-07
9.7800179e-08
2.8512143e-07
9.0931657e-08
2.8875827e-07
8.3831168e-08
2.9214147e-07
7.6507108e-08
2.9526303e-07
6.8968014e-08
2.9811543e-07
6.1223187e-08
3.0069213e-07
5.3281302e-08
3.0298559e-07
4.5152341e-08
3.0499163e-07
3.6846129e-08
3.0670096e-07
2.8374331e-08
3.0811229e-07
1.9742982e-08
3.0921877e-07
1.0966346e-08
3.1001562e-07
2.0536395e-09
3.1049983e-07
-6.9868265e-09
3.1066705e-07
-1.6138348e-08
3.1051469e-07
-2.5392105e-08
3.1003948e-07
-3.4736976e-08
3.0923952e-07
-4.4161144e-08
3.0811308e-07
-5.3652999e-08
3.0665874e-07
-6.3201076e-08
3.0487533e-07
-7.2793539e-08
3.0276264e-07
-8.2418717e-08
3.0032063e-07
-9.2064565e-08
2.9754903e-07
-1.0171936e-07
2.9444911e-07
-1.1137142e-07
2.9102211e-07
-1.210086e-07
2.8726904e-07
-1.306191e-07
2.8319209e-07
-1.4019121e-07
2.7879349e-07
-1.4971393e-07
2.7407623e-07
-1.5917469e-07
2.6904333e-07
-1.6856224e-07
2.6369814e-07
-1.7786505e-07
2.5804427e-07
-1.8707163e-07
2.5208609e-07
-1.9617106e-07
2.4582884e-07
-2.0515279e-07
2.3927591e-07
-2.1400449e-07
2.3243386e-07
-2.2271655e-07
2.253075e-07
-2.3127709e-07
2.1790251e-07
-2.3967679e-07
2.1022534e-07
-2.4790456e-07
2.0228272e-07
-2.5595049e-07
1.9408157e-07
-2.6380432e-07
1.8562799e-07
-2.714568e-07
1.7693054e-07
-2.7889857e-07
1.679955e-07
-2.8611939e-07
1.5883206e-07
-2.9311076e-07
1.4944757e-07
-2.9986288e-07
1.3985087e-07
-3.0636856e-07
1.3005015e-07
-3.1261898e-07
1.2005513e-07
-3.1860571e-07
1.0987386e-07
-3.2432096e-07
9.9516585e-08
-3.2975629e-07
8.8992184e-08
-3.3490542e-07
7.8311115e-08
-3.3976151e-07
6.748301e-08
-3.4431732e-07
5.6517856e-08
-3.4856677e-07
4.542624e-08
-3.5250579e-07
3.4218629e-08
-3.5613181e-07
2.290533e-08
-3.5944847e-07
1.1495678e-08
-3.6246936e-07
-3.652017e-07
1.705178e-07
1.7027773e-07
1.768299e-07
1.6878267e-07
1.831085e-07
1.6700325e-07
1.8934115e-07
1.6493807e-07
1.955163e-07
1.6258583e-07
2.0162194e-07
1.5994578e-07
2.0764623e-07
1.570187e-07
2.1357724e-07
1.538048e-07
2.1940343e-07
1.5030501e-07
2.2511346e-07
1.4652145e-07
2.3069546e-07
1.4245657e-07
2.3613858e-07
1.3811284e-07
2.4143217e-07
1.3349385e-07
2.4656461e-07
1.2860356e-07
2.5152605e-07
1.2344616e-07
2.5630596e-07
1.1802696e-07
2.6089439e-07
1.1235106e-07
2.652815e-07
1.0642403e-07
2.6945835e-07
1.0025258e-07
2.7341558e-07
9.3843133e-08
2.7714486e-07
8.7202358e-08
2.8063754e-07
8.0338505e-08
2.8388558e-07
7.3259112e-08
2.8688146e-07
6.5972222e-08
2.8961805e-07
5.8486622e-08
2.9208837e-07
5.0810741e-08
2.9428608e-07
4.2954481e-08
2.9620514e-07
3.4927033e-08
2.9784078e-07
2.6738493e-08
2.9918714e-07
1.8396713e-08
3.002375e-07
9.9159264e-09
3.0099102e-07
1.3002156e-09
3.014419e-07
-7.4375261e-09
3.0158693e-07
-1.6283297e-08
3.0142289e-07
-2.522797e-08
3.0094735e-07
-3.426141e-08
3.0015781e-07
-4.3371546e-08
2.9905249e-07
-5.2547644e-08
2.9762996e-07
-6.1778406e-08
2.9588943e-07
-7.1053147e-08
2.938301e-07
-8.0359415e-08
2.9145263e-07
-8.9687015e-08
2.8875656e-07
-9.9023134e-08
2.8574263e-07
-1.0835763e-07
2.8241172e-07
-1.1767726e-07
2.7876501e-07
-1.2697262e-07
2.7480526e-07
-1.3623134e-07
2.7053395e-07
-1.4544261e-07
2.6595387e-07
-1.5459457e-07
2.6106787e-07
-1.6367616e-07
2.5587916e-07
-1.7267628e-07
2.5039174e-07
-1.8158398e-07
2.4460977e-07
-1.9038906e-07
2.3853652e-07
-1.9907967e-07
2.321779e-07
-2.0764556e-07
2.2553804e-07
-2.1607654e-07
2.1862275e-07
-2.2436194e-07
2.1143778e-07
-2.3249167e-07
2.0398838e-07
-2.4045539e-07
1.9628177e-07
-2.4824421e-07
1.8832399e-07
-2.5584658e-07
1.8012207e-07
-2.6325498e-07
1.7168254e-07
-2.7045903e-07
1.6301348e-07
-2.7744998e-07
1.5412185e-07
-2.8421898e-07
1.4501608e-07
-2.9075735e-07
1.3570423e-07
-2.9705699e-07
1.2619481e-07
-3.0310961e-07
1.1649573e-07
-3.0890687e-07
1.0661661e-07
-3.1444199e-07
9.6566632e-08
-3.1970609e-07
8.6354611e-08
-3.2469367e-07
7.5990624e-08
-3.2939739e-07
6.5483128e-08
-3.3381006e-07
5.4843353e-08
-3.3792682e-07
4.4080322e-08
-3.4174295e-07
3.3204526e-08
-3.4525597e-07
2.2226678e-08
-3.4847064e-07
1.1155165e-08
-3.5139782e-07
-3.5404661e-07
1.6691775e-07
1.6418279e-07
1.7299101e-07
1.6270936e-07
1.790312e-07
1.6096298e-07
1.8502711e-07
1.5894213e-07
1.9096698e-07
1.5664587e-07
1.9683954e-07
1.5407336e-07
2.0263348e-07
1.5122473e-07
2.0833745e-07
1.4810065e-07
2.1394037e-07
1.4470228e-07
2.1943074e-07
1.4103086e-07
2.2479826e-07
1.3708907e-07
2.3003175e-07
1.3287935e-07
2.3512072e-07
1.2840483e-07
2.4005508e-07
1.2366943e-07
2.4482396e-07
1.1867706e-07
2.4941829e-07
1.1343282e-07
2.5382805e-07
1.079412e-07
2.5804413e-07
1.0220799e-07
2.6205736e-07
9.6239213e-08
2.658591e-07
9.0041299e-08
2.6944079e-07
8.3620713e-08
2.7279411e-07
7.6985088e-08
2.7591229e-07
7.0140886e-08
2.7878682e-07
6.3097704e-08
2.814118e-07
5.586185e-08
2.8377975e-07
4.8442944e-08
2.8588461e-07
4.0849681e-08
2.8772081e-07
3.3090877e-08
2.8928229e-07
2.5177079e-08
2.9056492e-07
1.7113978e-08
2.9156517e-07
8.9157487e-09
2.9227436e-07
5.9100538e-10
2.9269314e-07
-7.8563829e-09
2.9281605e-07
-1.6406281e-08
2.9264044e-07
-2.5052468e-08
2.9216359e-07
-3.3784492e-08
2.9138336e-07
-4.259145e-08
2.9029809e-07
-5.1462438e-08
2.8890649e-07
-6.0386784e-08
2.8720722e-07
-6.935352e-08
2.851993e-07
-7.8351803e-08
2.8288318e-07
-8.7370665e-08
2.8025912e-07
-9.6399257e-08
2.7732725e-07
-1.0542557e-07
2.7408886e-07
-1.1443899e-07
2.7054498e-07
-1.2342868e-07
2.6669743e-07
-1.3238378e-07
2.6254843e-07
-1.4129364e-07
2.5810078e-07
-1.5014661e-07
2.5335615e-07
-1.5893179e-07
2.4831841e-07
-1.6763866e-07
2.4299154e-07
-1.7625693e-07
2.3737844e-07
-1.8477595e-07
2.3148393e-07
-1.9318517e-07
2.2531234e-07
-2.014741e-07
2.1886824e-07
-2.0963236e-07
2.1215697e-07
-2.1765046e-07
2.0518424e-07
-2.2551872e-07
1.9795548e-07
-2.3322665e-07
1.9047625e-07
-2.4076471e-07
1.8275381e-07
-2.4812417e-07
1.7479431e-07
-2.5529545e-07
1.6660475e-07
-2.6226932e-07
1.5819184e-07
-2.6903708e-07
1.4956373e-07
-2.7559067e-07
1.4072792e-07
-2.8192125e-07
1.3169145e-07
-2.8802044e-07
1.2246327e-07
-2.938811e-07
1.1305124e-07
-2.9949503e-07
1.0346452e-07
-3.0485513e-07
9.3711914e-08
-3.0995363e-07
8.3801909e-08
-3.147836e-07
7.3743715e-08
-3.1933907e-07
6.3547512e-08
-3.2361354e-07
5.3222524e-08
-3.2760152e-07
4.2777648e-08
-3.3129826e-07
3.2223758e-08
-3.3470194e-07
2.1569595e-08
-3.3781643e-07
1.0825696e-08
-3.4065394e-07
-3.4322082e-07
1.6341471e-07
1.5831683e-07
1.6925931e-07
1.5686467e-07
1.7507139e-07
1.5515087e-07
1.8084017e-07
1.5317349e-07
1.8655479e-07
1.5093116e-07
1.9220409e-07
1.4842402e-07
1.9777721e-07
1.4565169e-07
2.0326346e-07
1.4261454e-07
2.0865209e-07
1.3931363e-07
2.1393227e-07
1.3575061e-07
2.1909372e-07
1.3192771e-07
2.2412562e-07
1.278474e-07
2.2901856e-07
1.2351197e-07
2.3376213e-07
1.1892577e-07
2.3834653e-07
1.1409262e-07
2.4276248e-07
1.0901669e-07
2.4700045e-07
1.0370328e-07
2.5105192e-07
9.8156717e-08
2.5490729e-07
9.2383647e-08
2.5855944e-07
8.6389008e-08
2.6199929e-07
8.0180822e-08
2.6521916e-07
7.3765383e-08
2.6821141e-07
6.7148708e-08
2.7096958e-07
6.0339533e-08
2.7348625e-07
5.3345072e-08
2.7575496e-07
4.6174091e-08
2.7777027e-07
3.8834413e-08
2.7952578e-07
3.1335239e-08
2.8101787e-07
2.3684981e-08
2.8223868e-07
1.5893324e-08
2.8318536e-07
7.9688059e-09
2.838561e-07
-7.9741136e-11
2.8424257e-07
-8.242736e-09
2.8434339e-07
-1.650725e-08
2.841565e-07
-2.4865294e-08
2.8367814e-07
-3.3306238e-08
2.8290663e-07
-4.1819916e-08
2.8184045e-07
-5.039619e-08
2.8047732e-07
-5.9023907e-08
2.7881733e-07
-6.7693408e-08
2.7685885e-07
-7.6393544e-08
2.746021e-07
-8.5113865e-08
2.720468e-07
-9.3843597e-08
2.6919394e-07
-1.0257276e-07
2.6604457e-07
-1.1128966e-07
2.6259931e-07
-1.199837e-07
2.588602e-07
-1.2864456e-07
2.548289e-07
-1.3726256e-07
2.5050784e-07
-1.4582541e-07
2.4590014e-07
-1.5432402e-07
2.4100807e-07
-1.6274647e-07
2.3583548e-07
-1.7108452e-07
2.3038616e-07
-1.793265e-07
2.2466359e-07
-1.8746236e-07
2.186724e-07
-1.954828e-07
2.124174e-07
-2.0337747e-07
2.0590333e-07
-2.1113664e-07
1.9913499e-07
-2.187508e-07
1.9211868e-07
-2.2621034e-07
1.848603e-07
-2.3350648e-07
1.7736554e-07
-2.4062925e-07
1.6964052e-07
-2.4757036e-07
1.6169203e-07
-2.5432092e-07
1.5352795e-07
-2.6087271e-07
1.4515346e-07
-2.6721669e-07
1.3657811e-07
-2.7334584e-07
1.2780832e-07
-2.7925085e-07
1.1885225e-07
-2.8492509e-07
1.0971849e-07
-2.9036105e-07
1.0041423e-07
-2.9555099e-07
9.0948908e-08
-3.004881e-07
8.1331307e-08
-3.0516601e-07
7.1570048e-08
-3.0957802e-07
6.1674168e-08
-3.1371792e-07
5.1653371e-08
-3.175808e-07
4.1516503e-08
-3.2116156e-07
3.1273776e-08
-3.244591e-07
2.0934146e-08
-3.2747701e-07
1.0506574e-08
-3.3022624e-07
-3.3271449e-07
1.6000546e-07
1.5266976e-07
1.6563109e-07
1.5123924e-07
1.7122478e-07
1.4955721e-07
1.7677619e-07
1.4762205e-07
1.8227483e-07
1.4543269e-07
1.8771012e-07
1.4298876e-07
1.9307157e-07
1.4028994e-07
1.9834908e-07
1.3733714e-07
2.0353206e-07
1.3413061e-07
2.0861052e-07
1.3067238e-07
2.1357399e-07
1.2696408e-07
2.1841324e-07
1.2300816e-07
2.2311771e-07
1.1880753e-07
2.2767817e-07
1.143653e-07
2.3208528e-07
1.0968555e-07
2.3632989e-07
1.0477232e-07
2.4040292e-07
9.963015e-08
2.4429574e-07
9.4263808e-08
2.4800013e-07
8.8679215e-08
2.5150764e-07
8.2881763e-08
2.5481079e-07
7.6877594e-08
2.5790198e-07
7.0674153e-08
2.6077338e-07
6.4277243e-08
2.6341885e-07
5.7694204e-08
2.6583135e-07
5.0932504e-08
2.6800497e-07
4.400034e-08
2.6993336e-07
3.6905956e-08
2.7161176e-07
2.9657159e-08
2.7303447e-07
2.2262344e-08
2.7419655e-07
1.4731132e-08
2.7509376e-07
7.0713877e-09
2.7572314e-07
-7.0901686e-10
2.7607885e-07
-8.5982328e-09
2.7615944e-07
-1.6587606e-08
2.7596051e-07
-2.4666601e-08
2.7548067e-07
-3.2826465e-08
2.7471753e-07
-4.1056545e-08
2.7366871e-07
-4.9347194e-08
2.7233355e-07
-5.768866e-08
2.7071063e-07
-6.6070604e-08
2.687993e-07
-7.4482275e-08
2.6659904e-07
-8.2913771e-08
2.6411061e-07
-9.1355285e-08
2.6133377e-07
-9.979609e-08
2.5826967e-07
-1.0822534e-07
2.5491952e-07
-1.1663353e-07
2.5128461e-07
-1.2500964e-07
2.4736693e-07
-1.3334465e-07
2.4316848e-07
-1.4162709e-07
2.3869166e-07
-1.4984728e-07
2.3394025e-07
-1.5799518e-07
2.2891705e-07
-1.6606117e-07
2.2362499e-07
-1.7403439e-07
2.1806813e-07
-1.8190562e-07
2.1225114e-07
-1.8966604e-07
2.0617834e-07
-1.9730442e-07
1.9985457e-07
-2.0481273e-07
1.9328433e-07
-2.1218069e-07
1.8647352e-07
-2.1939936e-07
1.7942745e-07
-2.2646048e-07
1.7215233e-07
-2.3335424e-07
1.646541e-07
-2.4007213e-07
1.5693934e-07
-2.4660613e-07
1.4901447e-07
-2.529479e-07
1.4088655e-07
-2.5908887e-07
1.325629e-07
-2.6502211e-07
1.2405089e-07
-2.7073913e-07
1.1535847e-07
-2.7623269e-07
1.0649297e-07
-2.8149562e-07
9.7462481e-08
-2.8652042e-07
8.8275527e-08
-2.91301e-07
7.8940534e-08
-2.9583099e-07
6.9466118e-08
-3.0010366e-07
5.9861645e-08
-3.041135e-07
5.0135114e-08
-3.0785418e-07
4.0296403e-08
-3.1132281e-07
3.0354538e-08
-3.1451721e-07
2.031863e-08
-3.174409e-07
1.0197676e-08
-3.2010519e-07
-3.2251669e-07
1.566876e-07
1.4723249e-07
1.6210351e-07
1.4582335e-07
1.6748793e-07
1.4417274e-07
1.7283111e-07
1.4227894e-07
1.7812272e-07
1.4014102e-07
1.8335295e-07
1.377585e-07
1.8851159e-07
1.351313e-07
1.9358895e-07
1.3225974e-07
1.9857485e-07
1.2914473e-07
2.0345952e-07
1.2578771e-07
2.0823357e-07
1.2219005e-07
2.1288725e-07
1.1835431e-07
2.1741103e-07
1.1428372e-07
2.2179579e-07
1.0998077e-07
2.2603257e-07
1.054487e-07
2.3011237e-07
1.0069241e-07
2.3402681e-07
9.5715646e-08
2.3776736e-07
9.0523143e-08
2.4132605e-07
8.5120696e-08
2.4469498e-07
7.9512767e-08
2.4786622e-07
7.3706302e-08
2.5083325e-07
6.7707134e-08
2.5358868e-07
6.1521821e-08
2.5612577e-07
5.5157019e-08
2.5843778e-07
4.8620486e-08
2.6051918e-07
4.1919077e-08
2.623643e-07
3.5060861e-08
2.6396731e-07
2.8053888e-08
2.6532388e-07
2.0905726e-08
2.6642886e-07
1.3626409e-08
2.6727817e-07
6.2222584e-09
2.6786795e-07
-1.2989447e-09
2.6819397e-07
-8.9244714e-09
2.6825331e-07
-1.6646896e-08
2.680436e-07
-2.4456762e-08
2.6756196e-07
-3.2344772e-08
2.6680588e-07
-4.0300586e-08
2.657743e-07
-4.8315738e-08
2.6446545e-07
-5.6379872e-08
2.62878e-07
-6.4483209e-08
2.6101186e-07
-7.2615982e-08
2.5886618e-07
-8.0768077e-08
2.5644117e-07
-8.8930106e-08
2.5373718e-07
-9.7092278e-08
2.5075532e-07
-1.052435e-07
2.4749639e-07
-1.1337445e-07
2.4396201e-07
-1.2147532e-07
2.4015331e-07
-1.2953589e-07
2.3607282e-07
-1.3754646e-07
2.3172301e-07
-1.4549746e-07
2.2710709e-07
-1.5337894e-07
2.2222725e-07
-1.6118147e-07
2.1708742e-07
-1.6889477e-07
2.1169116e-07
-1.7650941e-07
2.060422e-07
-1.8401697e-07
2.0014566e-07
-1.9140806e-07
1.9400511e-07
-1.986721e-07
1.876261e-07
-2.0580169e-07
1.8101374e-07
-2.1278705e-07
1.7417323e-07
-2.1961997e-07
1.671102e-07
-2.2629113e-07
1.5983088e-07
-2.3279285e-07
1.5234178e-07
-2.3911684e-07
1.4464871e-07
-2.4525476e-07
1.3675868e-07
-2.5119865e-07
1.2867889e-07
-2.5694237e-07
1.2041642e-07
-2.624766e-07
1.1197841e-07
-2.6779463e-07
1.0337227e-07
-2.7288975e-07
9.4606559e-08
-2.7775482e-07
8.5688795e-08
-2.8238355e-07
7.6627538e-08
-2.8676966e-07
6.7430811e-08
-2.9090682e-07
5.8107323e-08
-2.9478991e-07
4.8666122e-08
-2.9841311e-07
3.9115878e-08
-3.0177238e-07
2.9465205e-08
-3.0486666e-07
1.9723291e-08
-3.0769898e-07
9.8988869e-09
-3.1028054e-07
-3.1261801e-07
1.5345855e-07
1.4199634e-07
1.5867358e-07
1.4060837e-07
1.6385763e-07
1.3898878e-07
1.6900109e-07
1.3713541e-07
1.7409451e-07
1.3504768e-07
1.7912807e-07
1.3272482e-07
1.8409241e-07
1.3016716e-07
1.8897767e-07
1.2737451e-07
1.9377458e-07
1.2434788e-07
1.9847375e-07
1.2108847e-07
2.0306566e-07
1.1759816e-07
2.0754125e-07
1.138789e-07
2.1189158e-07
1.0993344e-07
2.1610747e-07
1.0576466e-07
2.2018049e-07
1.0137565e-07
2.2410225e-07
9.6770704e-08
2.2786426e-07
9.1953597e-08
2.3145854e-07
8.6928884e-08
2.3487776e-07
8.1701448e-08
2.3811315e-07
7.6277241e-08
2.4115806e-07
7.0661532e-08
2.4400527e-07
6.4859827e-08
2.4664828e-07
5.8878716e-08
2.4908061e-07
5.2724705e-08
2.512963e-07
4.6404698e-08
2.532888e-07
3.9926645e-08
2.5505322e-07
3.3296573e-08
2.5658399e-07
2.6523009e-08
2.5787647e-07
1.9613441e-08
2.5892607e-07
1.2576814e-08
2.5972845e-07
5.4196028e-09
2.6028002e-07
-1.8504804e-09
2.6057766e-07
-9.2220456e-09
2.6061713e-07
-1.6686321e-08
2.6039596e-07
-2.423566e-08
2.599117e-07
-3.1860559e-08
2.591627e-07
-3.9551586e-08
2.5814717e-07
-4.7300052e-08
2.5686354e-07
-5.5096097e-08
2.5531013e-07
-6.292979e-08
2.5348692e-07
-7.0792976e-08
2.5139385e-07
-7.8674759e-08
2.4903033e-07
-8.6566712e-08
2.4639652e-07
-9.4458257e-08
2.4349334e-07
-1.0234023e-07
2.403224e-07
-1.1020346e-07
2.3688427e-07
-1.1803744e-07
2.3318106e-07
-1.2583275e-07
2.2921473e-07
-1.3358011e-07
2.2498717e-07
-1.412699e-07
2.2050151e-07
-1.4889325e-07
2.1576032e-07
-1.5644016e-07
2.1076688e-07
-1.639013e-07
2.0552528e-07
-1.7126771e-07
2.000391e-07
-1.7853076e-07
1.9431195e-07
-1.8568088e-07
1.8834883e-07
-1.9270891e-07
1.8215438e-07
-1.996073e-07
1.7573362e-07
-2.0636657e-07
1.690916e-07
-2.1297769e-07
1.6223364e-07
-2.1943322e-07
1.5516622e-07
-2.2572534e-07
1.478948e-07
-2.3184549e-07
1.4042606e-07
-2.3778599e-07
1.3276653e-07
-2.4353907e-07
1.2492207e-07
-2.490978e-07
1.1690022e-07
-2.5445491e-07
1.0870839e-07
-2.596026e-07
1.0035365e-07
-2.645348e-07
9.1843445e-08
-2.6924475e-07
8.318652e-08
-2.7372646e-07
7.4389641e-08
-2.779728e-07
6.5461623e-08
-2.8197897e-07
5.6410474e-08
-2.8573879e-07
4.7244981e-08
-2.8924755e-07
3.7973203e-08
-2.9250085e-07
2.860423e-08
-2.9549792e-07
1.9147288e-08
-2.9824179e-07
9.6095819e-09
-3.0074313e-07
-3.0300837e-07
1.5031574e-07
1.3695252e-07
1.5533823e-07
1.3558591e-07
1.6033018e-07
1.3399689e-07
1.652824e-07
1.321831e-07
1.7018584e-07
1.3014423e-07
1.750309e-07
1.2787969e-07
1.7980871e-07
1.2538933e-07
1.8451031e-07
1.2267302e-07
1.8912568e-07
1.1973235e-07
1.9364672e-07
1.1656763e-07
1.9806413e-07
1.1318065e-07
2.0236884e-07
1.0957421e-07
2.0655247e-07
1.057498e-07
2.1060635e-07
1.017107e-07
2.1452253e-07
9.7459819e-08
2.1829229e-07
9.3000795e-08
2.2190771e-07
8.8337981e-08
2.2536159e-07
8.3475227e-08
2.2864542e-07
7.8417614e-08
2.3175262e-07
7.3170032e-08
2.3467597e-07
6.7738275e-08
2.3740817e-07
6.2127414e-08
2.3994372e-07
5.6343405e-08
2.4227536e-07
5.0393033e-08
2.4439755e-07
4.4282732e-08
2.4630458e-07
3.8019574e-08
2.4799105e-07
3.1609949e-08
2.4945227e-07
2.5061906e-08
2.5068254e-07
1.8382976e-08
2.5167899e-07
1.1580525e-08
2.5243638e-07
4.6622684e-09
2.5295144e-07
-2.3654492e-09
2.5322015e-07
-9.4907208e-09
2.5323982e-07
-1.6706457e-08
2.5300797e-07
-2.4003664e-08
2.525218e-07
-3.1374275e-08
2.5177927e-07
-3.8809268e-08
2.5077863e-07
-4.6299462e-08
2.4951859e-07
-5.3835923e-08
2.4799813e-07
-6.1409262e-08
2.4621668e-07
-6.9011473e-08
2.4417346e-07
-7.6631478e-08
2.4186872e-07
-8.426181e-08
2.3930266e-07
-9.1892211e-08
2.3647596e-07
-9.9513638e-08
2.3338924e-07
-1.0711664e-07
2.3004428e-07
-1.1469231e-07
2.2644232e-07
-1.2223068e-07
2.2258539e-07
-1.2972319e-07
2.1847572e-07
-1.3716031e-07
2.141158e-07
-1.4453328e-07
2.0950849e-07
-1.5183276e-07
2.046566e-07
-1.590497e-07
1.9956411e-07
-1.6617521e-07
1.9423444e-07
-1.7320091e-07
1.8867127e-07
-1.8011767e-07
1.8287977e-07
-1.8691745e-07
1.7686325e-07
-1.9359084e-07
1.7062741e-07
-2.0013048e-07
1.6417686e-07
-2.0652712e-07
1.57518e-07
-2.1277444e-07
1.5065502e-07
-2.1886267e-07
1.435945e-07
-2.2478497e-07
1.3634237e-07
-2.3053406e-07
1.2890483e-07
-2.3610152e-07
1.212886e-07
-2.4148154e-07
1.1349945e-07
-2.4666597e-07
1.0554572e-07
-2.516489e-07
9.7433805e-08
-2.5642285e-07
8.9171149e-08
-2.6098232e-07
8.0765549e-08
-2.6532083e-07
7.2224551e-08
-2.6943195e-07
6.3556297e-08
-2.7331077e-07
5.4768231e-08
-2.7695088e-07
4.5869389e-08
-2.8034856e-07
3.686778e-08
-2.8349941e-07
2.7771889e-08
-2.8640196e-07
1.8590236e-08
-2.8906e-07
9.3301192e-09
-2.9148315e-07
-2.9367827e-07
1.4725621e-07
1.3209298e-07
1.5209449e-07
1.3074785e-07
1.569026e-07
1.2918862e-07
1.6167174e-07
1.2741393e-07
1.6639297e-07
1.2542307e-07
1.7105752e-07
1.2321522e-07
1.7565659e-07
1.2079009e-07
1.8018157e-07
1.1814825e-07
1.8462309e-07
1.1529064e-07
1.8897337e-07
1.1221726e-07
1.932231e-07
1.0893115e-07
1.973639e-07
1.0543323e-07
2.0138772e-07
1.0172598e-07
2.0528622e-07
9.7812145e-08
2.0905123e-07
9.3694669e-08
2.1267518e-07
8.9377198e-08
2.1614992e-07
8.4863074e-08
2.1946822e-07
8.0156982e-08
2.2262277e-07
7.5262923e-08
2.2560659e-07
7.0186308e-08
2.2841274e-07
6.4932143e-08
2.3103462e-07
5.9505371e-08
2.3346607e-07
5.391205e-08
2.35701e-07
4.8158294e-08
2.3773309e-07
4.2250451e-08
2.3955774e-07
3.6194835e-08
2.4116923e-07
2.9998511e-08
2.4256289e-07
2.366804e-08
2.4373417e-07
1.7212064e-08
2.4467861e-07
1.0635909e-08
2.4539274e-07
3.9483103e-09
2.4587222e-07
-2.8450596e-09
2.4611377e-07
-9.7323229e-09
2.4611423e-07
-1.6706528e-08
2.458713e-07
-2.3760673e-08
2.453828e-07
-3.0885632e-08
2.4464612e-07
-3.8072755e-08
2.4366002e-07
-4.5313292e-08
2.4242279e-07
-5.2598892e-08
2.409342e-07
-5.9920649e-08
2.3919194e-07
-6.7269409e-08
2.3719709e-07
-7.4636881e-08
2.3494888e-07
-8.2013644e-08
2.3244761e-07
-8.93911e-08
2.2969399e-07
-9.6759767e-08
2.2668888e-07
-1.0411154e-07
2.2343364e-07
-1.1143703e-07
2.1992942e-07
-1.1872664e-07
2.161784e-07
-1.25972e-07
2.1218206e-07
-1.3316406e-07
2.0794344e-07
-1.4029453e-07
2.0346503e-07
-1.4735415e-07
1.9874966e-07
-1.5433456e-07
1.9380105e-07
-1.6122655e-07
1.8862261e-07
-1.6802241e-07
1.8321817e-07
-1.7471325e-07
1.7759142e-07
-1.8129078e-07
1.717474e-07
-1.8774684e-07
1.6569041e-07
-1.940735e-07
1.5942554e-07
-2.0026212e-07
1.5295794e-07
-2.0630658e-07
1.4629284e-07
-2.1219725e-07
1.3943578e-07
-2.1792788e-07
1.3239279e-07
-2.2349104e-07
1.2516992e-07
-2.2887873e-07
1.1777343e-07
-2.3408504e-07
1.1021038e-07
-2.391028e-07
1.0248657e-07
-2.4392525e-07
9.4609353e-08
-2.4854577e-07
8.6586255e-08
-2.5295897e-07
7.8423961e-08
-2.5715834e-07
7.0130741e-08
-2.6113857e-07
6.1713265e-08
-2.6489345e-07
5.3180154e-08
-2.6841768e-07
4.453942e-08
-2.7170764e-07
3.5798867e-08
-2.7475864e-07
2.6966777e-08
-2.7756995e-07
1.805084e-08
-2.8014415e-07
9.0596372e-09
-2.8249164e-07
-2.8461856e-07
1.4427842e-07
1.2740989e-07
1.4894001e-07
1.2608625e-07
1.5357181e-07
1.2455686e-07
1.5816531e-07
1.2282046e-07
1.627119e-07
1.2087617e-07
1.6720348e-07
1.1872368e-07
1.7163137e-07
1.1636222e-07
1.7598689e-07
1.137928e-07
1.8026209e-07
1.1101539e-07
1.8444819e-07
1.0803122e-07
1.8853717e-07
1.048421e-07
1.925209e-07
1.014494e-07
1.963913e-07
9.7855565e-08
2.0014033e-07
9.4062958e-08
2.037605e-07
9.0074473e-08
2.0724424e-07
8.5893492e-08
2.1058386e-07
8.152349e-08
2.137721e-07
7.6968617e-08
2.1680218e-07
7.2232821e-08
2.1966737e-07
6.7321134e-08
2.2236099e-07
6.223859e-08
2.2487645e-07
5.6989985e-08
2.2720783e-07
5.1580712e-08
2.293493e-07
4.6016698e-08
2.3129535e-07
4.0304309e-08
2.3304087e-07
3.4449308e-08
2.3458068e-07
2.8458474e-08
2.3590925e-07
2.2339632e-08
2.370223e-07
1.609895e-08
2.3791723e-07
9.7409649e-09
2.3858871e-07
3.2767684e-09
2.3903371e-07
-3.2898845e-09
2.3924874e-07
-9.9473156e-09
2.3923113e-07
-1.6689029e-08
2.3897771e-07
-2.3507327e-08
2.3848662e-07
-3.0394522e-08
2.3775583e-07
-3.7341812e-08
2.3678346e-07
-4.4340891e-08
2.3556796e-07
-5.1383579e-08
2.3410888e-07
-5.8461558e-08
2.3240512e-07
-6.5565534e-08
2.3045665e-07
-7.2688219e-08
2.2826303e-07
-7.9819891e-08
2.2582431e-07
-8.6952398e-08
2.2314147e-07
-9.4076703e-08
2.2021466e-07
-1.0118496e-07
2.170456e-07
-1.0826795e-07
2.1363559e-07
-1.1531665e-07
2.0998595e-07
-1.2232251e-07
2.0609925e-07
-1.2927726e-07
2.0197739e-07
-1.3617282e-07
1.9762367e-07
-1.4300026e-07
1.9304037e-07
-1.4975115e-07
1.8823052e-07
-1.5641673e-07
1.831978e-07
-1.6298969e-07
1.7794622e-07
-1.6946158e-07
1.7247923e-07
-1.7582404e-07
1.668015e-07
-1.8206905e-07
1.6091747e-07
-1.8818918e-07
1.5483161e-07
-1.9417656e-07
1.485488e-07
-2.000238e-07
1.4207462e-07
-2.0572339e-07
1.3541421e-07
-2.112676e-07
1.2857356e-07
-2.1665006e-07
1.2155847e-07
-2.2186368e-07
1.1437506e-07
-2.2690154e-07
1.0702925e-07
-2.3175695e-07
9.9527849e-08
-2.3642393e-07
9.1877985e-08
-2.4089615e-07
8.408611e-08
-2.4516705e-07
7.6159386e-08
-2.4923174e-07
6.8105263e-08
-2.5308423e-07
5.9931335e-08
-2.5671928e-07
5.1644192e-08
-2.6013099e-07
4.3252785e-08
-2.6331601e-07
3.4764495e-08
-2.6627054e-07
2.6187332e-08
-2.6899258e-07
1.7529337e-08
-2.7148627e-07
8.7977829e-09
-2.7376011e-07
-2.7582088e-07
1.4138009e-07
1.2289598e-07
1.4587248e-07
1.2159392e-07
1.5033524e-07
1.2009401e-07
1.5476033e-07
1.1839535e-07
1.5913976e-07
1.1649687e-07
1.6346546e-07
1.1439803e-07
1.6772905e-07
1.1209863e-07
1.7192251e-07
1.0959933e-07
1.7603769e-07
1.0690011e-07
1.8006649e-07
1.0400246e-07
1.8400138e-07
1.0090731e-07
1.8783404e-07
9.7616683e-08
1.9155714e-07
9.4132578e-08
1.9516303e-07
9.0457256e-08
1.9864413e-07
8.6593395e-08
2.0199299e-07
8.2544568e-08
2.0520261e-07
7.8313897e-08
2.0826632e-07
7.390506e-08
2.1117675e-07
6.9322466e-08
2.1392789e-07
6.4570052e-08
2.16513e-07
5.9653413e-08
2.1892627e-07
5.4576717e-08
2.2116151e-07
4.9345328e-08
2.2321321e-07
4.3965217e-08
2.2507623e-07
3.8441478e-08
2.2674516e-07
3.2780612e-08
2.2821478e-07
2.6988831e-08
2.2948121e-07
2.107328e-08
2.3054015e-07
1.5039959e-08
2.313864e-07
8.8949245e-09
2.3201717e-07
2.6460995e-09
2.324287e-07
-3.7016038e-09
2.3261801e-07
-1.0136561e-08
2.3258201e-07
-1.6653142e-08
2.3231851e-07
-2.3243885e-08
2.3182472e-07
-2.990051e-08
2.3109917e-07
-3.6616201e-08
2.3013987e-07
-4.3381595e-08
2.2894565e-07
-5.018937e-08
2.2751552e-07
-5.7031419e-08
2.2584892e-07
-6.3899002e-08
2.2394471e-07
-7.0783986e-08
2.218033e-07
-7.7678312e-08
2.1942494e-07
-8.4574047e-08
2.1680995e-07
-9.146186e-08
2.1395866e-07
-9.8333769e-08
2.1087254e-07
-1.0518174e-07
2.0755291e-07
-1.1199688e-07
2.0400177e-07
-1.1877142e-07
2.0022072e-07
-1.2549636e-07
1.9621196e-07
-1.3216395e-07
1.9197841e-07
-1.3876659e-07
1.8752201e-07
-1.452948e-07
1.8284655e-07
-1.5174146e-07
1.7795473e-07
-1.5809794e-07
1.7285065e-07
-1.6435739e-07
1.6753802e-07
-1.7051114e-07
1.6202059e-07
-1.7655156e-07
1.5630335e-07
-1.824719e-07
1.5039015e-07
-1.8826317e-07
1.4428579e-07
-1.9391961e-07
1.3799625e-07
-1.9943339e-07
1.315259e-07
-2.0479737e-07
1.2488084e-07
-2.1000494e-07
1.1806606e-07
-2.1504933e-07
1.1108803e-07
-2.1992363e-07
1.0395329e-07
-2.2462208e-07
9.6666824e-08
-2.291376e-07
8.9236255e-08
-2.3346567e-07
8.1668211e-08
-2.3759904e-07
7.3969159e-08
-2.4153277e-07
6.6146605e-08
-2.4526148e-07
5.8207279e-08
-2.4878004e-07
5.0158662e-08
-2.5208248e-07
4.2008467e-08
-2.5516599e-07
3.376461e-08
-2.5802651e-07
2.5434351e-08
-2.6066256e-07
1.7025085e-08
-2.6307689e-07
8.544643e-09
-2.6527955e-07
-2.6727641e-07
1.3855895e-07
1.1854412e-07
1.4288911e-07
1.1726363e-07
1.4719012e-07
1.1579305e-07
1.5145414e-07
1.1413149e-07
1.556732e-07
1.1227762e-07
1.5983981e-07
1.1023141e-07
1.6394573e-07
1.0799278e-07
1.6798355e-07
1.0556147e-07
1.7194538e-07
1.0293854e-07
1.758234e-07
1.0012431e-07
1.7961036e-07
9.7120598e-08
1.8329829e-07
9.3928683e-08
1.8688003e-07
9.0550817e-08
1.9034828e-07
8.6989003e-08
1.9369578e-07
8.3245983e-08
1.969154e-07
7.9325005e-08
2.0000036e-07
7.522889e-08
2.0294397e-07
7.0961509e-08
2.0573967e-07
6.6526731e-08
2.0838087e-07
6.1928739e-08
2.108624e-07
5.7172007e-08
2.1317722e-07
5.2262075e-08
2.1532e-07
4.7202343e-08
2.1728562e-07
4.1999796e-08
2.1906863e-07
3.6658423e-08
2.2066379e-07
3.1185398e-08
2.2206652e-07
2.5586272e-08
2.2327274e-07
1.9867053e-08
2.2427852e-07
1.4033979e-08
2.2507759e-07
8.0959942e-09
2.2566902e-07
2.0546822e-09
2.2604864e-07
-4.0812004e-09
2.2621311e-07
-1.0301024e-08
2.2616009e-07
-1.659995e-08
2.2588635e-07
-2.2970353e-08
2.2539029e-07
-2.940458e-08
2.2466958e-07
-3.5895421e-08
2.2372289e-07
-4.2434899e-08
2.2254908e-07
-4.9015606e-08
2.2114631e-07
-5.5628643e-08
2.1951462e-07
-6.2267116e-08
2.176533e-07
-6.8922698e-08
2.1556251e-07
-7.5587727e-08
2.1324189e-07
-8.2253366e-08
2.1069227e-07
-8.8912145e-08
2.0791391e-07
-9.5555533e-08
2.0490806e-07
-1.0217574e-07
2.0167592e-07
-1.0876483e-07
1.9821939e-07
-1.1531491e-07
1.9454002e-07
-1.2181699e-07
1.9064047e-07
-1.282643e-07
1.865221e-07
-1.3464827e-07
1.8218867e-07
-1.4096131e-07
1.7764243e-07
-1.4719494e-07
1.7288674e-07
-1.5334231e-07
1.6792507e-07
-1.5939567e-07
1.6276138e-07
-1.6534761e-07
1.5739913e-07
-1.7118926e-07
1.5184265e-07
-1.7691538e-07
1.4609659e-07
-1.8251744e-07
1.401652e-07
-1.8798802e-07
1.3405377e-07
-1.9332197e-07
1.2776696e-07
-1.9851045e-07
1.2131053e-07
-2.0354847e-07
1.1468991e-07
-2.0842856e-07
1.0791059e-07
-2.1314446e-07
1.0097872e-07
-2.1769045e-07
9.3900589e-08
-2.220596e-07
8.6682359e-08
-2.2624741e-07
7.9330646e-08