/*--------------------------------*- C++ -*----------------------------------*\
| =========                 |                                                 |
| \\      /  F ield         | OpenFOAM: The Open Source CFD Toolbox           |
|  \\    /   O peration     | Version:  2306                                  |
|   \\  /    A nd           | Website:  www.openfoam.com                      |
|    \\/     M anipulation  |                                                 |
\*---------------------------------------------------------------------------*/
FoamFile
{
    version     2.0;
    format      ascii;
    arch        "LSB;label=32;scalar=64";
    class       surfaceScalarField;
    location    "0.4";
    object      phi;
}
// * * * * * * * * * * * * * * * * * * * * * * * * * * * * * * * * * * * * * //

dimensions      [0 3 -1 0 0 0 0];

oriented        oriented;

internalField   nonuniform List<scalar> 
12640
(
4.1986268e-08
-1.2035725e-07
1.67946e-07
-3.6003116e-07
3.6776807e-07
-6.3002084e-07
6.2231323e-07
-9.6123084e-07
9.0283521e-07
-1.3890319e-06
1.1752772e-06
-1.9361456e-06
1.4055716e-06
-2.6112979e-06
1.5609992e-06
-3.4128997e-06
1.6141158e-06
-4.3300787e-06
1.54317e-06
-5.3444022e-06
1.3329567e-06
-6.4317787e-06
9.7522157e-07
-7.5649687e-06
4.6856652e-07
-8.7148783e-06
-1.8132186e-07
-9.8532547e-06
-9.6936032e-07
-1.0948935e-05
-1.877513e-06
-1.1978864e-05
-2.8900999e-06
-1.2920645e-05
-3.9886196e-06
-1.3755505e-05
-5.1518392e-06
-1.446934e-05
-6.3597561e-06
-1.5050112e-05
-7.5919777e-06
-1.5491025e-05
-8.8286002e-06
-1.5788046e-05
-1.0051414e-05
-1.5940508e-05
-1.1243448e-05
-1.5950654e-05
-1.2389697e-05
-1.5822973e-05
-1.347697e-05
-1.5564083e-05
-1.4494009e-05
-1.5182135e-05
-1.5431496e-05
-1.4686503e-05
-1.6282004e-05
-1.4087578e-05
-1.7039906e-05
-1.3396353e-05
-1.7701252e-05
-1.2624163e-05
-1.8263647e-05
-1.1782467e-05
-1.8726109e-05
-1.0882654e-05
-1.9088922e-05
-9.935874e-06
-1.9353493e-05
-8.9529013e-06
-1.9522209e-05
-7.9440271e-06
-1.9598297e-05
-6.9189716e-06
-1.9585693e-05
-5.8868198e-06
-1.9488918e-05
-4.8559743e-06
-1.9312962e-05
-3.8341247e-06
-1.9063173e-05
-2.8282294e-06
-1.8745163e-05
-1.8445082e-06
-1.8364669e-05
-8.8848413e-07
-1.7927912e-05
3.54674e-08
-1.7440355e-05
9.2199601e-07
-1.690807e-05
1.7689138e-06
-1.6336797e-05
2.573054e-06
-1.5732152e-05
3.3322332e-06
-1.5099562e-05
4.0448185e-06
-1.4444235e-05
4.7096999e-06
-1.377112e-05
5.3262482e-06
-1.308489e-05
5.8942732e-06
-1.2389925e-05
6.4139789e-06
-1.1690294e-05
6.8859237e-06
-1.0989753e-05
7.3109773e-06
-1.0291738e-05
7.6902812e-06
-9.5993628e-06
8.0252071e-06
-8.9154281e-06
8.3173232e-06
-8.2424238e-06
8.5683564e-06
-7.5825384e-06
8.7801597e-06
-6.937672e-06
8.9546811e-06
-6.3094481e-06
9.0939355e-06
-5.6992299e-06
9.1999783e-06
-5.1081352e-06
9.2748821e-06
-4.5370551e-06
9.3207138e-06
-3.9866666e-06
9.3395181e-06
-3.4574611e-06
9.3333062e-06
-2.949749e-06
9.3040299e-06
-2.4636872e-06
9.2535808e-06
-1.9993044e-06
9.1837793e-06
-1.5564878e-06
9.0963648e-06
-1.1350046e-06
8.9929735e-06
-7.3461088e-07
8.8752183e-06
-3.548053e-07
8.7444961e-06
4.7691452e-09
8.6022791e-06
3.4466189e-07
8.4499151e-06
6.6534918e-07
8.2884906e-06
9.6741687e-07
8.1191301e-06
1.2514641e-06
7.9428751e-06
7.7606843e-06
3.0726848e-08
-1.510841e-07
1.2294179e-07
-4.5224611e-07
2.6916408e-07
-7.7624312e-07
4.5496638e-07
-1.1470331e-06
6.5838693e-07
-1.5924524e-06
8.5339234e-07
-2.131151e-06
1.0126331e-06
-2.7705387e-06
1.1102876e-06
-3.5105542e-06
1.123409e-06
-4.3432001e-06
1.0333652e-06
-5.2543584e-06
8.2697394e-07
-6.2253875e-06
4.9638074e-07
-7.2343755e-06
3.9303509e-08
-8.257801e-06
-5.4259892e-07
-9.2713523e-06
-1.2417054e-06
-1.0249829e-05
-2.0478421e-06
-1.1172727e-05
-2.9472234e-06
-1.2021264e-05
-3.9238133e-06
-1.2778916e-05
-4.9615764e-06
-1.3431577e-05
-6.0424873e-06
-1.3969201e-05
-7.1491151e-06
-1.4384397e-05
-8.2644322e-06
-1.4672729e-05
-9.3720966e-06
-1.4832843e-05
-1.0457066e-05
-1.4865684e-05
-1.1505623e-05
-1.4774416e-05
-1.2505621e-05
-1.4564086e-05
-1.3446502e-05
-1.4241254e-05
-1.4319346e-05
-1.3813659e-05
-1.5116879e-05
-1.3290045e-05
-1.5833402e-05
-1.2679831e-05
-1.646471e-05
-1.1992855e-05
-1.7008e-05
-1.1239176e-05
-1.7461761e-05
-1.0428894e-05
-1.7825652e-05
-9.571983e-06
-1.8100386e-05
-8.6781676e-06
-1.8287604e-05
-7.7568086e-06
-1.838976e-05
-6.8168163e-06
-1.8409997e-05
-5.866582e-06
-1.8352046e-05
-4.9139256e-06
-1.8220112e-05
-3.9660583e-06
-1.8018783e-05
-3.029559e-06
-1.7752933e-05
-2.1103578e-06
-1.7427682e-05
-1.2137345e-06
-1.7047943e-05
-3.4427176e-07
-1.6619672e-05
4.9372438e-07
-1.6147604e-05
1.2968463e-06
-1.5637059e-05
2.0625091e-06
-1.5093173e-05
2.7883465e-06
-1.4520925e-05
3.4725706e-06
-1.3925114e-05
4.1138895e-06
-1.3310331e-05
4.7114643e-06
-1.2680929e-05
5.2648718e-06
-1.2041015e-05
5.7740648e-06
-1.1394427e-05
6.2393356e-06
-1.0744728e-05
6.6612783e-06
-1.0095199e-05
7.0407523e-06
-9.4488383e-06
7.3788463e-06
-8.8083596e-06
7.6768445e-06
-8.176198e-06
7.9361948e-06
-7.5545168e-06
8.1584784e-06
-6.9452148e-06
8.3453791e-06
-6.349937e-06
8.4986579e-06
-5.7700885e-06
8.6201299e-06
-5.2068469e-06
8.7116404e-06
-4.6611763e-06
8.7750433e-06
-4.133843e-06
8.8121849e-06
-3.6254332e-06
8.8248964e-06
-3.1363612e-06
8.8149578e-06
-2.6668957e-06
8.7841151e-06
-2.2171727e-06
8.7340563e-06
-1.7871952e-06
8.6663872e-06
-1.376885e-06
8.5826633e-06
-9.8604235e-07
8.4843756e-06
-6.1439183e-07
8.3728455e-06
-2.616119e-07
8.2494992e-06
7.2789357e-08
8.1155138e-06
3.8910268e-07
7.9721773e-06
6.87826e-07
7.8204068e-06
9.6947997e-07
7.6612211e-06
7.4955795e-06
2.2056905e-08
-1.73141e-07
8.8232924e-08
-5.1842213e-07
1.9293217e-07
-8.8094238e-07
3.2520099e-07
-1.2793019e-06
4.6824846e-07
-1.7354999e-06
6.0168202e-07
-2.2645846e-06
7.0414083e-07
-2.8729976e-06
7.5449961e-07
-3.5609129e-06
7.3404189e-07
-4.3227423e-06
6.2734094e-07
-5.1476575e-06
4.2280286e-07
-6.0208494e-06
1.1317343e-07
-6.9247461e-06
-3.0392959e-07
-7.840698e-06
-8.291899e-07
-8.746092e-06
-1.4565124e-06
-9.6225063e-06
-2.1766603e-06
-1.0452579e-05
-2.9798267e-06
-1.1218097e-05
-3.853035e-06
-1.1905707e-05
-4.7821855e-06
-1.2502427e-05
-5.7525739e-06
-1.2998812e-05
-6.7492678e-06
-1.3387703e-05
-7.7572245e-06
-1.3664773e-05
-8.7622146e-06
-1.3827853e-05
-9.7507554e-06
-1.3877143e-05
-1.0710478e-05
-1.3814694e-05
-1.1630261e-05
-1.3644302e-05
-1.2500298e-05
-1.3371217e-05
-1.3312155e-05
-1.3001801e-05
-1.4058814e-05
-1.2543386e-05
-1.4734629e-05
-1.2004016e-05
-1.5335277e-05
-1.1392207e-05
-1.5857686e-05
-1.0716767e-05
-1.6299958e-05
-9.9866218e-06
-1.6661268e-05
-9.2106729e-06
-1.6941769e-05
-8.397667e-06
-1.7142486e-05
-7.5560915e-06
-1.7265217e-05
-6.6940858e-06
-1.7312427e-05
-5.8193713e-06
-1.7287156e-05
-4.9391963e-06
-1.719292e-05
-4.0602944e-06
-1.7033623e-05
-3.1888565e-06
-1.6813472e-05
-2.3305087e-06
-1.6536904e-05
-1.4903024e-06
-1.6208439e-05
-6.7273632e-07
-1.5833102e-05
1.1838654e-07
-1.5415262e-05
8.7900666e-07
-1.4959755e-05
1.6070016e-06
-1.4471218e-05
2.2998102e-06
-1.3954201e-05
2.9555529e-06
-1.341311e-05
3.5727993e-06
-1.2852188e-05
4.150542e-06
-1.2275482e-05
4.6881656e-06
-1.1686828e-05
5.1854104e-06
-1.1089833e-05
5.6423411e-06
-1.0487867e-05
6.059312e-06
-9.8840496e-06
6.4369355e-06
-9.2812531e-06
6.7760496e-06
-8.6820951e-06
7.0776866e-06
-8.0889437e-06
7.3430435e-06
-7.5039209e-06
7.5734554e-06
-6.9289082e-06
7.7703663e-06
-6.3655561e-06
7.9353058e-06
-5.8152936e-06
8.0698674e-06
-5.2793393e-06
8.1756862e-06
-4.7587122e-06
8.254416e-06
-4.2542492e-06
8.3077219e-06
-3.7666083e-06
8.3372556e-06
-3.2963004e-06
8.3446499e-06
-2.8436848e-06
8.3314996e-06
-2.4089814e-06
8.2993528e-06
-1.9923139e-06
8.2497199e-06
-1.5936824e-06
8.1840315e-06
-1.2130075e-06
8.1037009e-06
-8.5015543e-07
8.0099936e-06
-5.0481634e-07
7.9041598e-06
-1.7678273e-07
7.7874804e-06
1.3447815e-07
7.6609164e-06
4.2907326e-07
7.5258116e-06
7.0755508e-07
7.3827394e-06
7.2327854e-06
1.5350645e-08
-1.8849165e-07
6.1379465e-08
-5.6445095e-07
1.3385712e-07
-9.5342003e-07
2.2440017e-07
-1.369845e-06
3.2005042e-07
-1.8311501e-06
4.0488783e-07
-2.349422e-06
4.6175007e-07
-2.9298598e-06
4.7396677e-07
-3.5731296e-06
4.2614195e-07
-4.2749175e-06
3.0547134e-07
-5.0269869e-06
1.0200665e-07
-5.8173847e-06
-1.9043459e-07
-6.6323049e-06
-5.7655139e-07
-7.4545812e-06
-1.0548014e-06
-8.267842e-06
-1.6207538e-06
-9.0565539e-06
-2.2691185e-06
-9.8042147e-06
-2.9903354e-06
-1.049688e-05
-3.7746828e-06
-1.112136e-05
-4.6103044e-06
-1.1666805e-05
-5.4846598e-06
-1.2124457e-05
-6.3848069e-06
-1.2487556e-05
-7.2978874e-06
-1.2751692e-05
-8.2113105e-06
-1.291443e-05
-9.1131745e-06
-1.2975279e-05
-9.9923375e-06
-1.2935531e-05
-1.0838664e-05
-1.2797976e-05
-1.1643117e-05
-1.2566765e-05
-1.2397804e-05
-1.2247114e-05
-1.3096035e-05
-1.1845156e-05
-1.3732308e-05
-1.1367742e-05
-1.4302286e-05
-1.0822229e-05
-1.4802745e-05
-1.0216308e-05
-1.5231513e-05
-9.5578535e-06
-1.55874e-05
-8.8547854e-06
-1.5870115e-05
-8.1149522e-06
-1.608018e-05
-7.3460268e-06
-1.6218843e-05
-6.5554224e-06
-1.6287994e-05
-5.7502209e-06
-1.6290073e-05
-4.9371169e-06
-1.6227993e-05
-4.1223742e-06
-1.6105057e-05
-3.3117931e-06
-1.5924879e-05
-2.5106865e-06
-1.5691316e-05
-1.7238654e-06
-1.5408411e-05
-9.556415e-07
-1.5080254e-05
-2.0976978e-07
-1.4711365e-05
5.1011744e-07
-1.4305706e-05
1.2013423e-06
-1.3867533e-05
1.8616377e-06
-1.3400999e-05
2.489019e-06
-1.2910147e-05
3.0819473e-06
-1.2398887e-05
3.6392818e-06
-1.187097e-05
4.1602482e-06
-1.1329969e-05
4.6444097e-06
-1.0779266e-05
5.0916374e-06
-1.0222032e-05
5.5020789e-06
-9.661229e-06
5.8761319e-06
-9.0995926e-06
6.2144132e-06
-8.5396375e-06
6.5177315e-06
-7.9836543e-06
6.7870605e-06
-7.4337119e-06
7.023513e-06
-6.8916616e-06
7.228316e-06
-6.359145e-06
7.4027891e-06
-5.8375993e-06
7.548322e-06
-5.3282672e-06
7.6663539e-06
-4.8322101e-06
7.758359e-06
-4.350314e-06
7.8258258e-06
-3.8833034e-06
7.8702449e-06
-3.4317517e-06
7.8930982e-06
-2.9960989e-06
7.8958467e-06
-2.5766598e-06
7.8799137e-06
-2.1736298e-06
7.8466899e-06
-1.7871144e-06
7.797516e-06
-1.417095e-06
7.7336816e-06
-1.0635299e-06
7.6564286e-06
-7.2629971e-07
7.5669297e-06
-4.0510375e-07
7.4662844e-06
-9.9831105e-08
7.3556439e-06
1.9014837e-07
7.235832e-06
4.6478776e-07
7.1081001e-06
6.9729892e-06
1.012201e-08
-1.9861366e-07
4.0505211e-08
-5.9483416e-07
8.7924226e-08
-1.000839e-06
1.4590334e-07
-1.4278241e-06
2.0439732e-07
-1.8896441e-06
2.50837e-07
-2.3958616e-06
2.7169324e-07
-2.9507161e-06
2.5344239e-07
-3.5548788e-06
1.8354916e-07
-4.2050243e-06
5.1825255e-08
-4.8952629e-06
-1.5045974e-07
-5.6150997e-06
-4.3017567e-07
-6.3525889e-06
-7.8951773e-07
-7.0952392e-06
-1.2277624e-06
-7.8295973e-06
-1.7430697e-06
-8.5412466e-06
-2.3298122e-06
-9.2174723e-06
-2.9814444e-06
-9.8452481e-06
-3.6893835e-06
-1.0413421e-05
-4.4438743e-06
-1.0912314e-05
-5.2344131e-06
-1.1333918e-05
-6.0498166e-06
-1.1672152e-05
-6.8789426e-06
-1.1922566e-05
-7.7108233e-06
-1.2082549e-05
-8.534854e-06
-1.2151249e-05
-9.3410874e-06
-1.2129297e-05
-1.0120331e-05
-1.2018733e-05
-1.0864303e-05
-1.1822792e-05
-1.1565673e-05
-1.1545743e-05
-1.2218125e-05
-1.1192704e-05
-1.281637e-05
-1.0769497e-05
-1.3356133e-05
-1.0282466e-05
-1.3834127e-05
-9.7383149e-06
-1.4248005e-05
-9.1439755e-06
-1.4596308e-05
-8.5064824e-06
-1.4878399e-05
-7.8328612e-06
-1.5094393e-05
-7.1300323e-06
-1.5245086e-05
-6.4047294e-06
-1.5331877e-05
-5.6634299e-06
-1.5356696e-05
-4.9122982e-06
-1.5321929e-05
-4.1571414e-06
-1.5230348e-05
-3.403374e-06
-1.5085042e-05
-2.6559927e-06
-1.4889349e-05
-1.9195577e-06
-1.4646807e-05
-1.198184e-06
-1.4361048e-05
-4.9552893e-07
-1.4036088e-05
1.8515742e-07
-1.3675458e-05
8.4071214e-07
-1.3283031e-05
1.4692109e-06
-1.2862574e-05
2.0685623e-06
-1.2417783e-05
2.6371563e-06
-1.195225e-05
3.1737489e-06
-1.1469441e-05
3.6774396e-06
-1.0972678e-05
4.147646e-06
-1.0465116e-05
4.5840755e-06
-9.949737e-06
4.9867003e-06
-9.429336e-06
5.3557309e-06
-8.9065146e-06
5.6915919e-06
-8.3836769e-06
5.9948939e-06
-7.8630279e-06
6.2664113e-06
-7.3465742e-06
6.5070592e-06
-6.8361263e-06
6.7178683e-06
-6.3333038e-06
6.8999666e-06
-5.8395396e-06
7.0545577e-06
-5.3560895e-06
7.1829039e-06
-4.884038e-06
7.2863075e-06
-4.4243092e-06
7.3660971e-06
-3.9776773e-06
7.423613e-06
-3.5447738e-06
7.4601948e-06
-3.1261002e-06
7.4771732e-06
-2.7220352e-06
7.4758485e-06
-2.332858e-06
7.4575127e-06
-1.9587391e-06
7.4233971e-06
-1.5997505e-06
7.3746931e-06
-1.2559257e-06
7.3126038e-06
-9.2717731e-07
7.2381811e-06
-6.1340255e-07
7.1525095e-06
-3.1437163e-07
7.056613e-06
-2.9961528e-08
6.951422e-06
2.4028209e-07
6.8378562e-06
6.7167969e-06
6.0752538e-09
-2.0468891e-07
2.4323587e-08
-6.1308248e-07
5.2282766e-08
-1.0287982e-06
8.4891289e-08
-1.4604326e-06
1.1428919e-07
-1.919042e-06
1.3056495e-07
-2.4121374e-06
1.2304022e-07
-2.9431913e-06
8.0897729e-08
-3.5127363e-06
-5.5097336e-09
-4.1186168e-06
-1.4658336e-07
-4.7541893e-06
-3.4886103e-07
-5.4128221e-06
-6.1668326e-07
-6.0847666e-06
-9.528729e-07
-6.7590495e-06
-1.3577311e-06
-7.4247392e-06
-1.8291065e-06
-8.0698711e-06
-2.3636311e-06
-8.6829477e-06
-2.9553638e-06
-9.2535154e-06
-3.5973875e-06
-9.7713971e-06
-4.2815127e-06
-1.0228189e-05
-4.9986778e-06
-1.0616753e-05
-5.7395661e-06
-1.0931264e-05
-6.4944518e-06
-1.116768e-05
-7.2536558e-06
-1.1323345e-05
-8.0078516e-06
-1.1397053e-05
-8.7481442e-06
-1.1389005e-05
-9.4662544e-06
-1.1300622e-05
-1.0154619e-05
-1.1134428e-05
-1.0806469e-05
-1.0893894e-05
-1.1415889e-05
-1.0583283e-05
-1.1977847e-05
-1.0207539e-05
-1.2488192e-05
-9.7721216e-06
-1.294364e-05
-9.2828671e-06
-1.3341746e-05
-8.7458693e-06
-1.3680864e-05
-8.1673648e-06
-1.3960093e-05
-7.5536316e-06
-1.4179227e-05
-6.910899e-06
-1.4338686e-05
-6.2452697e-06
-1.4439462e-05
-5.5626539e-06
-1.4483047e-05
-4.8687129e-06
-1.4471374e-05
-4.1688147e-06
-1.4406751e-05
-3.4679975e-06
-1.42918e-05
-2.7709429e-06
-1.4129404e-05
-2.0819546e-06
-1.3922643e-05
-1.4049447e-06
-1.3674731e-05
-7.4344092e-07
-1.338914e-05
-1.0043406e-07
-1.3069202e-05
5.2077469e-07
-1.2718298e-05
1.1183071e-06
-1.2339857e-05
1.6901207e-06
-1.1937249e-05
2.2345487e-06
-1.151377e-05
2.7502696e-06
-1.1072615e-05
3.2362847e-06
-1.0616861e-05
3.6918918e-06
-1.0149449e-05
4.1166637e-06
-9.6731716e-06
4.5104226e-06
-9.1906602e-06
4.8732196e-06
-8.7043786e-06
5.2053104e-06
-8.2166177e-06
5.5071328e-06
-7.7294913e-06
5.779285e-06
-7.244936e-06
6.022504e-06
-6.7647131e-06
6.2376454e-06
-6.2904096e-06
6.4256631e-06
-5.8234445e-06
6.5875924e-06
-5.3650726e-06
6.7245318e-06
-4.9163928e-06
6.8376278e-06
-4.4783542e-06
6.9280588e-06
-4.0517652e-06
6.9970237e-06
-3.6373029e-06
7.0457328e-06
-3.235516e-06
7.0753862e-06
-2.8468504e-06
7.0871828e-06
-2.4716354e-06
7.0822979e-06
-2.110111e-06
7.0618727e-06
-1.7624427e-06
7.0270249e-06
-1.4286732e-06
6.9788343e-06
-1.1088412e-06
6.9183489e-06
-8.0287252e-07
6.846541e-06
-5.1068965e-07
6.7644301e-06
-2.3206755e-07
6.6727998e-06
3.3172557e-08
6.5726162e-06
6.46476e-06
2.9202178e-09
-2.0760913e-07
1.172435e-08
-6.2188662e-07
2.4527606e-08
-1.0416015e-06
3.7396864e-08
-1.4733019e-06
4.4106126e-08
-1.9257513e-06
3.6959908e-08
-2.4049912e-06
7.3481576e-09
-2.9135796e-06
-5.3232713e-08
-3.4521554e-06
-1.5417369e-07
-4.0176758e-06
-3.0172043e-07
-4.6066426e-06
-5.019839e-07
-5.2125586e-06
-7.5920276e-07
-5.8275478e-06
-1.0753668e-06
-6.4428855e-06
-1.4512479e-06
-7.0488581e-06
-1.8853997e-06
-7.6357194e-06
-2.3746369e-06
-8.1937105e-06
-2.914705e-06
-8.7134472e-06
-3.4995198e-06
-9.1865823e-06
-4.1222019e-06
-9.6055071e-06
-4.7752912e-06
-9.9636636e-06
-5.450516e-06
-1.0256039e-05
-6.1395443e-06
-1.0478652e-05
-6.8339595e-06
-1.062893e-05
-7.5254957e-06
-1.0705517e-05
-8.206229e-06
-1.0708272e-05
-8.8687093e-06
-1.0638142e-05
-9.5060607e-06
-1.0497076e-05
-1.0112064e-05
-1.028789e-05
-1.0681218e-05
-1.001413e-05
-1.1208771e-05
-9.6799864e-06
-1.1690736e-05
-9.2901562e-06
-1.2123888e-05
-8.8497151e-06
-1.2505743e-05
-8.3640139e-06
-1.2834533e-05
-7.8385749e-06
-1.3109165e-05
-7.2789997e-06
-1.3329178e-05
-6.6908861e-06
-1.3494693e-05
-6.0797552e-06
-1.3606358e-05
-5.4509886e-06
-1.3665298e-05
-4.8097735e-06
-1.3673053e-05
-4.1610592e-06
-1.3631529e-05
-3.5095211e-06
-1.3542942e-05
-2.8595305e-06
-1.3409761e-05
-2.2151348e-06
-1.3234666e-05
-1.58004e-06
-1.3020502e-05
-9.5760448e-07
-1.2770143e-05
-3.507936e-07
-1.2486962e-05
2.3759337e-07
-1.21737e-05
8.050458e-07
-1.1833522e-05
1.3499424e-06
-1.1469502e-05
1.8705281e-06
-1.1084653e-05
2.3654213e-06
-1.0681916e-05
2.8335471e-06
-1.0264133e-05
3.2741093e-06
-9.8340386e-06
3.6865693e-06
-9.3942402e-06
4.0706242e-06
-8.947209e-06
4.4261884e-06
-8.4952717e-06
4.753373e-06
-8.0406025e-06
5.0524636e-06
-7.5852206e-06
5.3239031e-06
-7.1309876e-06
5.5682712e-06
-6.6796082e-06
5.7862659e-06
-6.2326296e-06
5.9786845e-06
-5.7914465e-06
6.1464094e-06
-5.357304e-06
6.2903894e-06
-4.9313039e-06
6.4116278e-06
-4.5144103e-06
6.511165e-06
-4.1074561e-06
6.5900694e-06
-3.711149e-06
6.6494257e-06
-3.3260851e-06
6.6903225e-06
-2.9527491e-06
6.7138468e-06
-2.5915225e-06
6.7210711e-06
-2.2427033e-06
6.7130535e-06
-1.906502e-06
6.6908237e-06
-1.5830604e-06
6.6553927e-06
-1.2724379e-06
6.6077265e-06
-9.746604e-07
6.5487635e-06
-6.8961108e-07
6.4793807e-06
-4.1728674e-07
6.4004755e-06
-1.575194e-07
6.3128488e-06
6.2172762e-06
4.426777e-10
-2.0805181e-07
1.9567408e-09
-6.2340068e-07
2.970198e-09
-1.0426149e-06
5.3629794e-10
-1.470868e-06
-1.0175921e-08
-1.9150391e-06
-3.5514609e-08
-2.3796525e-06
-8.2296279e-08
-2.8667979e-06
-1.579492e-07
-3.3765025e-06
-2.6853469e-07
-3.9070904e-06
-4.2031918e-07
-4.4548581e-06
-6.1818774e-07
-5.0146901e-06
-8.6537227e-07
-5.5803633e-06
-1.1641805e-06
-6.1440773e-06
-1.5149168e-06
-6.6981217e-06
-1.9166096e-06
-7.2340266e-06
-2.3668698e-06
-7.7434504e-06
-2.8619002e-06
-8.2184168e-06
-3.3967654e-06
-8.6517171e-06
-3.9658133e-06
-9.0364593e-06
-4.5624518e-06
-9.3670251e-06
-5.1797135e-06
-9.6387777e-06
-5.810326e-06
-9.8480396e-06
-6.4469159e-06
-9.99234e-06
-7.082216e-06
-1.0070217e-05
-7.7091647e-06
-1.0081323e-05
-8.3210685e-06
-1.0026238e-05
-8.9116987e-06
-9.9064462e-06
-9.4753639e-06
-9.7242246e-06
-1.0006971e-05
-9.4825227e-06
-1.0502066e-05
-9.1848913e-06
-1.0956855e-05
-8.8353672e-06
-1.1368207e-05
-8.4383628e-06
-1.1733648e-05
-7.9985729e-06
-1.205134e-05
-7.5208827e-06
-1.2320055e-05
-7.0102851e-06
-1.2539137e-05
-6.4718038e-06
-1.2708466e-05
-5.9104262e-06
-1.2828411e-05
-5.331044e-06
-1.2899783e-05
-4.7384011e-06
-1.2923792e-05
-4.1370509e-06
-1.2901992e-05
-3.5313208e-06
-1.283624e-05
-2.9252825e-06
-1.2728645e-05
-2.3227301e-06
-1.2581521e-05
-1.7271637e-06
-1.2397348e-05
-1.1417773e-06
-1.2178671e-05
-5.6947134e-07
-1.192863e-05
-1.2447749e-08
-1.1649388e-05
5.2580392e-07
-1.1344013e-05
1.0445675e-06
-1.1015253e-05
1.5417682e-06
-1.0665854e-05
2.0160226e-06
-1.0298512e-05
2.4662046e-06
-9.915848e-06
2.8914458e-06
-9.5203968e-06
3.291118e-06
-9.1145881e-06
3.6648156e-06
-8.7007366e-06
4.0123371e-06
-8.2810322e-06
4.3336685e-06
-7.8575332e-06
4.6289645e-06
-7.4321615e-06
4.8985315e-06
-7.0067001e-06
5.1428097e-06
-6.5827904e-06
5.3623562e-06
-6.1619347e-06
5.5578288e-06
-5.7454959e-06
5.7299703e-06
-5.3347014e-06
5.8795951e-06
-4.9306471e-06
6.0075734e-06
-4.5343016e-06
6.1148197e-06
-4.1465134e-06
6.2022811e-06
-3.7680143e-06
6.2709268e-06
-3.3994291e-06
6.3217371e-06
-3.0412792e-06
6.355697e-06
-2.6939934e-06
6.3737851e-06
-2.3579124e-06
6.3769725e-06
-2.0332981e-06
6.3662095e-06
-1.7203294e-06
6.3424241e-06
-1.4191314e-06
6.3065286e-06
-1.1297611e-06
6.2593932e-06
-8.522466e-07
6.2018663e-06
-5.8653074e-07
6.1347595e-06
-3.3252063e-07
6.0588388e-06
5.9748902e-06
-1.4027862e-09
-2.0664902e-07
-5.5250371e-09
-6.1927843e-07
-1.3571425e-08
-1.0345686e-06
-2.7796172e-08
-1.4566432e-06
-5.2104532e-08
-1.8907307e-06
-9.1532428e-08
-2.3402246e-06
-1.5151476e-07
-2.8068156e-06
-2.3778502e-07
-3.2902323e-06
-3.5561783e-07
-3.7892575e-06
-5.0988464e-07
-4.3005913e-06
-7.0448501e-07
-4.8200897e-06
-9.4249273e-07
-5.3423555e-06
-1.2255294e-06
-5.8610406e-06
-1.5541185e-06
-6.3695327e-06
-1.9273911e-06
-6.8607539e-06
-2.3434795e-06
-7.327362e-06
-2.7991006e-06
-7.7627957e-06
-3.2903381e-06
-8.1604796e-06
-3.8121698e-06
-8.5146275e-06
-4.359031e-06
-8.8201639e-06
-4.9249651e-06
-9.0728436e-06
-5.5036192e-06
-9.2693855e-06
-6.0885608e-06
-9.4073985e-06
-6.6733416e-06
-9.4854359e-06
-7.2517057e-06
-9.5029588e-06
-7.8176465e-06
-9.4602975e-06
-8.3655325e-06
-9.3585601e-06
-8.8901698e-06
-9.1995874e-06
-9.3868633e-06
-8.9858291e-06
-9.8514609e-06
-8.7202938e-06
-1.0280377e-05
-8.4064513e-06
-1.0670604e-05
-8.048136e-06
-1.1019711e-05
-7.6494656e-06
-1.1325834e-05
-7.2147598e-06
-1.1587654e-05
-6.7484649e-06
-1.1804372e-05
-6.2550851e-06
-1.1975678e-05
-5.7391206e-06
-1.2101711e-05
-5.205011e-06
-1.2183024e-05
-4.6570881e-06
-1.2220542e-05
-4.0995333e-06
-1.2215519e-05
-3.5363435e-06
-1.2169499e-05
-2.9713018e-06
-1.2084275e-05
-2.4079544e-06
-1.1961846e-05
-1.8495929e-06
-1.1804384e-05
-1.2992392e-06
-1.1614218e-05
-7.5963722e-07
-1.1393485e-05
-2.3318102e-07
-1.1145243e-05
2.7756252e-07
-1.0871552e-05
7.7087575e-07
-1.0575001e-05
1.2452174e-06
-1.0258108e-05
1.6991294e-06
-9.9233452e-06
2.1314421e-06
-9.5731294e-06
2.5412299e-06
-9.2098042e-06
2.9277928e-06
-8.8356293e-06
3.2906405e-06
-8.452767e-06
3.6294749e-06
-8.0632741e-06
3.9441755e-06
-7.6690932e-06
4.2347834e-06
-7.272048e-06
4.5014863e-06
-6.8738397e-06
4.7446014e-06
-6.4760445e-06
4.9645611e-06
-6.0801129e-06
5.1618972e-06
-5.6873709e-06
5.3372285e-06
-5.299021e-06
5.4912451e-06
-4.9161459e-06
5.6246983e-06
-4.5397121e-06
5.7383859e-06
-4.1705738e-06
5.8331429e-06
-3.8094786e-06
5.9098316e-06
-3.4570733e-06
5.9693317e-06
-3.1139068e-06
6.0125306e-06
-2.7804432e-06
6.0403215e-06
-2.4570599e-06
6.0535891e-06
-2.1440568e-06
6.0532063e-06
-1.8416615e-06
6.0400288e-06
-1.5500521e-06
6.0149191e-06
-1.2693291e-06
5.9786703e-06
-9.9953006e-07
5.9320673e-06
-7.4069452e-07
5.875924e-06
-4.9277567e-07
5.81092e-06
5.7378067e-06
-2.8111297e-09
-2.0383789e-07
-1.1218749e-08
-6.1087082e-07
-2.6128104e-08
-1.0196592e-06
-4.9399963e-08
-1.4333714e-06
-8.4073679e-08
-1.856057e-06
-1.3409644e-07
-2.2902018e-06
-2.0390474e-07
-2.7370073e-06
-2.9784817e-07
-3.1962889e-06
-4.2050189e-07
-3.6666038e-06
-5.756613e-07
-4.1454319e-06
-7.6656379e-07
-4.6291872e-06
-9.9573946e-07
-5.1131799e-06
-1.2644411e-06
-5.5923389e-06
-1.5732546e-06
-6.0607193e-06
-1.9214951e-06
-6.5125133e-06
-2.3074085e-06
-6.9414486e-06
-2.7284564e-06
-7.3417478e-06
-3.1811451e-06
-7.707791e-06
-3.6613024e-06
-8.0344701e-06
-4.1641762e-06
-8.3172902e-06
-4.6845204e-06
-8.5524994e-06
-5.2168715e-06
-8.7370345e-06
-5.7555652e-06
-8.8687048e-06
-6.294927e-06
-8.9460741e-06
-6.8293813e-06
-8.9685045e-06
-7.3535544e-06
-8.9361243e-06
-7.8623586e-06
-8.8497559e-06
-8.3510661e-06
-8.7108799e-06
-8.8153634e-06
-8.5215318e-06
-9.2513957e-06
-8.2842615e-06
-9.6557948e-06
-8.0020522e-06
-1.0025694e-05
-7.6782371e-06
-1.0358732e-05
-7.3164271e-06
-1.0653051e-05
-6.9204407e-06
-1.090728e-05
-6.4942359e-06
-1.1120517e-05
-6.0418485e-06
-1.1292303e-05
-5.5673346e-06
-1.1422594e-05
-5.0747202e-06
-1.1511728e-05
-4.5679545e-06
-1.1560389e-05
-4.0508721e-06
-1.1569575e-05
-3.5271575e-06
-1.1540558e-05
-3.0003186e-06
-1.147485e-05
-2.4736621e-06
-1.1374167e-05
-1.9502764e-06
-1.1240389e-05
-1.4330167e-06
-1.1075532e-05
-9.2449437e-07
-1.0881651e-05
-4.270622e-07
-1.0661241e-05
5.715256e-08
-1.0416273e-05
5.2590805e-07
-1.014909e-05
9.7803417e-07
-9.8619674e-06
1.4120068e-06
-9.5571636e-06
1.8266384e-06
-9.2368981e-06
2.2209644e-06
-8.9033349e-06
2.5942297e-06
-8.5585698e-06
2.9458754e-06
-8.2046187e-06
3.2755238e-06
-7.8434078e-06
3.5829646e-06
-7.4767667e-06
3.8681422e-06
-7.1064207e-06
4.1311404e-06
-6.7339884e-06
4.3721691e-06
-6.3609772e-06
4.5915498e-06
-5.9887829e-06
4.7897029e-06
-5.6186897e-06
4.967135e-06
-5.2518695e-06
5.1244252e-06
-4.8893861e-06
5.2622149e-06
-4.5321963e-06
5.3811962e-06
-4.1811544e-06
5.4821011e-06
-3.8370155e-06
5.5656926e-06
-3.5004391e-06
5.6327555e-06
-3.1719999e-06
5.6840914e-06
-2.8521815e-06
5.7205031e-06
-2.5413934e-06
5.742801e-06
-2.2399727e-06
5.7517856e-06
-1.948192e-06
5.748248e-06
-1.666243e-06
5.73297e-06
-1.394285e-06
5.7067122e-06
-1.1324277e-06
5.6702102e-06
-8.80687e-07
5.6241834e-06
-6.3911957e-07
5.5693525e-06
5.5063046e-06
-3.8907153e-09
-1.9994718e-07
-1.5540561e-08
-5.9922097e-07
-3.5635353e-08
-9.995644e-07
-6.5660082e-08
-1.4033467e-06
-1.0805049e-07
-1.8136666e-06
-1.6590665e-07
-2.2323457e-06
-2.4273504e-07
-2.6601789e-06
-3.4220441e-07
-3.0968195e-06
-4.6769655e-07
-3.5411117e-06
-6.224575e-07
-3.9906709e-06
-8.0917822e-07
-4.4424665e-06
-1.0296805e-06
-4.8926776e-06
-1.285319e-06
-5.3367004e-06
-1.5762599e-06
-5.7697784e-06
-1.9020657e-06
-6.1867075e-06
-2.261255e-06
-6.5822593e-06
-2.6516009e-06
-6.9514019e-06
-3.0702173e-06
-7.2891745e-06
-3.5134473e-06
-7.5912402e-06
-3.9772001e-06
-7.8535373e-06
-4.4569734e-06
-8.0727262e-06
-4.9479498e-06
-8.2460579e-06
-5.4451736e-06
-8.371481e-06
-5.9436369e-06
-8.4476108e-06
-6.4383753e-06
-8.4737662e-06
-6.9245799e-06
-8.4499197e-06
-7.397659e-06
-8.3766768e-06
-7.8533168e-06
-8.2552222e-06
-8.2876003e-06
-8.0872483e-06
-8.6969435e-06
-7.8749183e-06
-9.0781968e-06
-7.6207989e-06
-9.4286453e-06
-7.3277885e-06
-9.7460174e-06
-6.999055e-06
-1.0028484e-05
-6.6379737e-06
-1.0274653e-05
-6.2480674e-06
-1.0483551e-05
-5.8329502e-06
-1.0654609e-05
-5.3962764e-06
-1.0787637e-05
-4.9416929e-06
-1.0882794e-05
-4.4727973e-06
-1.0940565e-05
-3.9931007e-06
-1.0961727e-05
-3.5059954e-06
-1.0947318e-05
-3.0147279e-06
-1.0898604e-05
-2.5223761e-06
-1.081705e-05
-2.0318309e-06
-1.0704285e-05
-1.5457815e-06
-1.0562077e-05
-1.0667025e-06
-1.0392283e-05
-5.9685573e-07
-1.0196955e-05
-1.3817594e-07
-9.9780974e-06
3.0705086e-07
-9.7376902e-06
7.3762698e-07
-9.4778166e-06
1.1521332e-06
-9.2005406e-06
1.5493623e-06
-8.9078971e-06
1.928321e-06
-8.6018807e-06
2.2882132e-06
-8.2844314e-06
2.628426e-06
-7.9574245e-06
2.9485169e-06
-7.6226608e-06
3.2482008e-06
-7.2818578e-06
3.5273394e-06
-6.9366449e-06
3.7859273e-06
-6.5885568e-06
4.024081e-06
-6.2390309e-06
4.2420242e-06
-5.8894062e-06
4.4400782e-06
-5.5409206e-06
4.6186494e-06
-5.1947122e-06
4.7782168e-06
-4.8518201e-06
4.9193226e-06
-4.5131859e-06
5.042562e-06
-4.1796578e-06
5.1485728e-06
-3.8519924e-06
5.2380272e-06
-3.530859e-06
5.3116221e-06
-3.2168402e-06
5.3700725e-06
-2.9104471e-06
5.4141099e-06
-2.6121094e-06
5.4444632e-06
-2.3221928e-06
5.461869e-06
-2.0409936e-06
5.4670489e-06
-1.7687515e-06
5.460728e-06
-1.5056461e-06
5.443607e-06
-1.2518152e-06
5.4163792e-06
-1.0073621e-06
5.3797302e-06
-7.7228431e-07
5.3342748e-06
5.2806707e-06
-4.6939491e-09
-1.9525323e-07
-1.8750458e-08
-5.8516446e-07
-4.2704412e-08
-9.7561044e-07
-7.7718339e-08
-1.3683327e-06
-1.2574428e-07
-1.7656407e-06
-1.8924402e-07
-2.1688459e-06
-2.7099502e-07
-2.5784279e-06
-3.7384665e-07
-2.9939678e-06
-5.0072977e-07
-3.4142285e-06
-6.5404268e-07
-3.837358e-06
-8.3603602e-07
-4.2604731e-06
-1.0482343e-06
-4.6804794e-06
-1.2915725e-06
-5.0933622e-06
-1.5662865e-06
-5.4950645e-06
-1.8719134e-06
-5.8810806e-06
-2.2071824e-06
-6.2469903e-06
-2.5702142e-06
-6.5883702e-06
-2.958436e-06
-6.9009527e-06
-3.3687929e-06
-7.1808833e-06
-3.7976859e-06
-7.4246443e-06
-4.2411847e-06
-7.6292274e-06
-4.6950981e-06
-7.7921445e-06
-5.1550665e-06
-7.9115127e-06
-5.6166437e-06
-7.9860335e-06
-6.0754214e-06
-8.0149884e-06
-6.5270873e-06
-7.9982538e-06
-6.9675059e-06
-7.9362581e-06
-7.3927765e-06
-7.8299515e-06
-7.7992835e-06
-7.6807413e-06
-8.1837369e-06
-7.4904649e-06
-8.5432029e-06
-7.2613328e-06
-8.8751239e-06
-6.9958676e-06
-9.1773291e-06
-6.6968498e-06
-9.4480389e-06
-6.3672639e-06
-9.6858607e-06
-6.0102455e-06
-9.8897798e-06
-5.6290312e-06
-1.0059145e-05
-5.2269112e-06
-1.019365e-05
-4.8071875e-06
-1.0293313e-05
-4.3731344e-06
-1.0358451e-05
-3.9279635e-06
-1.0389652e-05
-3.4747944e-06
-1.0387752e-05
-3.0166274e-06
-1.0353806e-05
-2.556322e-06
-1.0289058e-05
-2.0965786e-06
-1.0194917e-05
-1.6399231e-06
-1.0072924e-05
-1.1886956e-06
-9.9247354e-06
-7.4504401e-07
-9.7520215e-06
-3.1088985e-07
-9.5568626e-06
1.1189203e-07
-9.3408495e-06
5.2161381e-07
-9.1059015e-06
9.1718532e-07
-8.8539015e-06
1.2973622e-06
-8.5867135e-06
1.6611331e-06
-8.3061726e-06
2.0076723e-06
-8.0140719e-06
2.3363254e-06
-7.7121528e-06
2.6465977e-06
-7.4020946e-06
2.9381428e-06
-7.0855075e-06
3.2107522e-06
-6.7639249e-06
3.4643448e-06
-6.4387994e-06
3.6989553e-06
-6.1114978e-06
3.9147225e-06
-5.7832996e-06
4.1118801e-06
-5.4553947e-06
4.2907446e-06
-5.1288832e-06
4.4517054e-06
-4.8047765e-06
4.5952159e-06
-4.4839963e-06
4.721782e-06
-4.1673793e-06
4.8319558e-06
-3.8556778e-06
4.9263257e-06
-3.5495636e-06
5.0055077e-06
-3.2496309e-06
5.0701397e-06
-2.9563991e-06
5.1208781e-06
-2.6703205e-06
5.1583849e-06
-2.3917755e-06
5.1833239e-06
-2.1210933e-06
5.1963666e-06
-1.8585381e-06
5.1981729e-06
-1.6043258e-06
5.1893947e-06
-1.3586224e-06
5.1706758e-06
-1.1215222e-06
5.1426301e-06
-8.9314059e-07
5.1058932e-06
5.06104e-06
-5.2771668e-09
-1.8997606e-07
-2.1080445e-08
-5.6936119e-07
-4.7825041e-08
-9.4886584e-07
-8.6428914e-08
-1.3297289e-06
-1.3842531e-07
-1.7136443e-06
-2.0577764e-07
-2.1014936e-06
-2.9069176e-07
-2.4935138e-06
-3.954834e-07
-2.8891762e-06
-5.2235677e-07
-3.2873552e-06
-6.7343423e-07
-3.6862806e-06
-8.503081e-07
-4.0835993e-06
-1.0543415e-06
-4.476446e-06
-1.2861682e-06
-4.8615354e-06
-1.5459943e-06
-5.2352383e-06
-1.8333265e-06
-5.5937485e-06
-2.1470755e-06
-5.9332412e-06
-2.4855976e-06
-6.249848e-06
-2.8466536e-06
-6.5398967e-06
-3.2275866e-06
-6.7999503e-06
-3.625266e-06
-7.0269648e-06
-4.0362622e-06
-7.2182313e-06
-4.4568882e-06
-7.3715184e-06
-4.8832885e-06
-7.4851123e-06
-5.3115406e-06
-7.5577814e-06
-5.7377094e-06
-7.5888197e-06
-6.157931e-06
-7.5780323e-06
-6.5684775e-06
-7.5257116e-06
-6.9658112e-06
-7.4326177e-06
-7.3466291e-06
-7.2999235e-06
-7.7079023e-06
-7.1291917e-06
-8.0469063e-06
-6.9223287e-06
-8.3612418e-06
-6.6815322e-06
-8.6488467e-06
-6.4092449e-06
-8.9080032e-06
-6.1081074e-06
-9.1373374e-06
-5.7809114e-06
-9.3358136e-06
-5.4305549e-06
-9.5027239e-06
-5.0600008e-06
-9.6376739e-06
-4.6722375e-06