/*--------------------------------*- C++ -*----------------------------------*\
| =========                 |                                                 |
| \\      /  F ield         | OpenFOAM: The Open Source CFD Toolbox           |
|  \\    /   O peration     | Version:  2306                                  |
|   \\  /    A nd           | Website:  www.openfoam.com                      |
|    \\/     M anipulation  |                                                 |
\*---------------------------------------------------------------------------*/
FoamFile
{
    version     2.0;
    format      ascii;
    arch        "LSB;label=32;scalar=64";
    class       volVectorField;
    location    "0.4";
    object      U_0;
}
// * * * * * * * * * * * * * * * * * * * * * * * * * * * * * * * * * * * * * //

dimensions      [0 1 -1 0 0 0 0];

internalField   nonuniform List<vector> 
6400
(
(0.00084080853 -0.0064751303 -1.0686293e-16)
(0.0020907949 -0.0064543613 -1.8486563e-16)
(0.0034151831 -0.0068977157 -7.2357709e-17)
(0.0045321631 -0.0077262326 1.6545453e-17)
(0.0055003079 -0.0089646329 1.3292965e-16)
(0.0061643094 -0.010535271 1.0127873e-16)
(0.0064947905 -0.012329831 9.5488342e-17)
(0.0064821037 -0.014247294 3.7460493e-17)
(0.0061328976 -0.016195493 -1.1950289e-17)
(0.0054701329 -0.018094063 9.1189079e-18)
(0.0045266074 -0.019875586 -5.1395476e-18)
(0.0033428296 -0.021485591 -3.7187515e-18)
(0.0019644287 -0.022883371 -2.0636686e-18)
(0.0004349069 -0.024041398 -8.8982507e-18)
(-0.0011931438 -0.02494232 1.6223254e-18)
(-0.0028725686 -0.025574974 -7.9987436e-19)
(-0.0045678792 -0.025947271 6.2153295e-18)
(-0.0062436727 -0.026066859 3.32453e-18)
(-0.0078699118 -0.025947743 1.9594529e-18)
(-0.0094197676 -0.025607819 8.9392845e-18)
(-0.010871992 -0.025068216 8.1516269e-18)
(-0.012210222 -0.024350953 6.1430412e-18)
(-0.013422218 -0.023479758 2.989913e-18)
(-0.014500008 -0.022477992 4.5953203e-18)
(-0.015439108 -0.02136862 9.6622299e-18)
(-0.016238114 -0.020173605 6.6871049e-18)
(-0.01689821 -0.018913531 7.5115215e-19)
(-0.017422603 -0.017607425 2.592995e-18)
(-0.017816151 -0.01627278 6.6267252e-18)
(-0.018085119 -0.014925336 9.9452251e-18)
(-0.018236807 -0.013579072 5.4988102e-18)
(-0.018279209 -0.01224627 9.9906517e-19)
(-0.018220796 -0.010937571 8.4367332e-19)
(-0.018070307 -0.0096620521 3.7085512e-18)
(-0.017836574 -0.0084273331 6.5754695e-18)
(-0.017528379 -0.007239678 4.3452183e-19)
(-0.017154337 -0.0061041081 -1.4460496e-18)
(-0.016722802 -0.0050245146 7.1957806e-19)
(-0.016241796 -0.0040037683 2.0531443e-18)
(-0.01571895 -0.0030438271 4.8960328e-18)
(-0.015161472 -0.0021458377 3.2525826e-18)
(-0.014576097 -0.001310233 4.7892179e-19)
(-0.013969045 -0.00053685878 -3.0638089e-18)
(-0.013346355 0.00017500804 -2.1150194e-18)
(-0.012713162 0.00082671147 2.4495025e-19)
(-0.012074248 0.0014196657 -2.5779827e-19)
(-0.01143407 0.0019557764 -2.2322306e-18)
(-0.010796534 0.002437212 -2.5027883e-18)
(-0.010165121 0.0028663357 -2.4272231e-18)
(-0.0095429012 0.0032456669 -2.0981499e-19)
(-0.0089325456 0.0035778384 1.1470886e-18)
(-0.0083363532 0.0038655587 5.7707273e-20)
(-0.0077562729 0.0041115755 -9.1235843e-20)
(-0.0071939264 0.004318647 -7.1920111e-19)
(-0.0066506332 0.0044895146 -1.7397722e-19)
(-0.0061274342 0.0046268799 1.1186509e-18)
(-0.005625115 0.0047333844 1.1560399e-18)
(-0.0051442293 0.0048115945 1.2871768e-19)
(-0.0046851217 0.0048639863 -8.5663893e-19)
(-0.0042479494 0.0048929352 -1.7154901e-19)
(-0.0038327029 0.0049007077 6.9009007e-19)
(-0.0034392261 0.0048894539 2.6245047e-19)
(-0.003067236 0.0048612038 -9.4600703e-19)
(-0.0027163392 0.0048178642 -1.0026297e-18)
(-0.0023860497 0.0047612175 7.4908892e-20)
(-0.002075805 0.0046929223 5.249383e-19)
(-0.0017849792 0.0046145159 5.2560939e-19)
(-0.001512896 0.0045274146 1.2428484e-19)
(-0.0012588406 0.0044329177 -3.4273927e-19)
(-0.0010220752 0.0043322133 3.9128409e-19)
(-0.00080183614 0.0042263839 6.3547356e-19)
(-0.00059736539 0.0041164059 -3.9404341e-20)
(-0.00040787584 0.0040031651 -3.10333e-19)
(-0.00023262741 0.0038874584 -5.6381503e-19)
(-7.0907113e-05 0.0037699881 7.0531807e-20)
(7.8054131e-05 0.003651434 8.2766992e-20)
(0.00021500528 0.0035322804 -2.6703188e-20)
(0.00034064133 0.003413036 -2.3820604e-19)
(0.00045561441 0.0032941332 -3.2375187e-19)
(0.00056056931 0.0031759472 -1.7270962e-19)
(0.00061216084 -0.0087742847 9.4323301e-18)
(0.0015308888 -0.0087529695 7.8260424e-17)
(0.0024997073 -0.0090847301 2.1526472e-17)
(0.0033159719 -0.0097136573 2.4565505e-17)
(0.0040208983 -0.010663546 1.4570874e-17)
(0.0044933457 -0.011879047 3.2163721e-17)
(0.0047079452 -0.013277231 5.8371338e-17)
(0.0046539291 -0.014781398 -9.7549701e-18)
(0.0043334466 -0.01631885 -1.0842139e-17)
(0.0037594577 -0.017825743 4.2669939e-18)
(0.0029555687 -0.019246864 -1.1985076e-17)
(0.0019524104 -0.02053685 -5.7492513e-18)
(0.00078360419 -0.021660729 -3.5508225e-18)
(-0.00051374567 -0.022593926 -4.4580371e-18)
(-0.0018983683 -0.023314118 -4.1779735e-19)
(-0.003334468 -0.023818045 1.6020842e-19)
(-0.0047907226 -0.02410523 7.4325385e-18)
(-0.0062378447 -0.0241807 2.4565599e-18)
(-0.0076494249 -0.0240542 4.697741e-18)
(-0.0090017852 -0.023738592 2.7275872e-18)
(-0.010276322 -0.023250314 4.8409183e-18)
(-0.011457706 -0.022606982 8.9027989e-18)
(-0.012534391 -0.021827676 6.3183105e-18)
(-0.013498277 -0.020931758 1.0089688e-17)
(-0.014344289 -0.019938368 5.0003552e-18)
(-0.015070053 -0.018866159 4.9080203e-18)
(-0.015675512 -0.017732837 6.8708464e-18)
(-0.016162493 -0.016554926 7.386885e-18)
(-0.01653435 -0.015347788 1.2268964e-17)
(-0.016795766 -0.014125403 1.9982352e-18)
(-0.016952467 -0.012900328 1.5078161e-18)
(-0.017010904 -0.011683713 5.2456051e-18)
(-0.016978062 -0.010485325 5.3283719e-18)
(-0.016861267 -0.0093136021 8.7118852e-18)
(-0.016668028 -0.0081757179 -1.4496503e-18)
(-0.016405899 -0.0070776617 -6.199213e-20)
(-0.016082366 -0.006024323 2.0521575e-18)
(-0.015704757 -0.0050195803 3.0036284e-18)
(-0.015280166 -0.0040663914 4.7785428e-18)
(-0.014815399 -0.0031668817 -1.4282074e-18)
(-0.014316924 -0.0023224306 -2.5114317e-18)
(-0.013790845 -0.0015337534 -1.8880101e-18)
(-0.013242859 -0.00080100376 -3.6506005e-18)
(-0.012678182 -0.0001238529 -2.1193491e-18)
(-0.012101988 0.0004987469 -5.0363578e-19)
(-0.011518595 0.001067755 -4.931265e-19)
(-0.010932058 0.0015847312 -2.3516372e-18)
(-0.010346071 0.0020514525 -3.1836847e-18)
(-0.0097639448 0.0024698984 -2.3646965e-18)
(-0.00918861 0.0028422141 -4.416377e-19)
(-0.0086226376 0.003170669 3.3000202e-19)
(-0.0080682617 0.0034576214 -5.8669294e-19)
(-0.007527398 0.0037054848 -5.3376105e-19)
(-0.0070016638 0.0039166998 -1.1144275e-18)
(-0.0064923981 0.004093708 -8.1967267e-19)
(-0.006000682 0.0042389302 1.8041634e-19)
(-0.0055273598 0.0043547465 3.8058631e-19)
(-0.0050730589 0.0044434803 2.9403166e-19)
(-0.0046382099 0.0045073851 -1.0798176e-18)
(-0.0042230658 0.0045486326 -1.2414201e-18)
(-0.0038277212 0.0045693039 -2.8242137e-19)
(-0.0034521297 0.0045713821 -5.4408414e-19)
(-0.0030961215 0.0045567484 -1.1454837e-18)
(-0.0027594194 0.0045271772 -1.1109202e-18)
(-0.0024416537 0.004484334 -4.7935605e-19)
(-0.0021423779 0.0044297761 -8.6759511e-21)
(-0.0018610805 0.0043649549 2.2698154e-20)
(-0.0015971979 0.0042912106 -1.4147967e-19)
(-0.0013501237 0.0042097825 -4.4814293e-19)
(-0.0011192248 0.0041218086 -5.3474952e-20)
(-0.0009038393 0.0040283275 2.511128e-19)
(-0.0007032984 0.003930284 -6.7115452e-20)
(-0.00051691405 0.0038285504 -4.2809553e-19)
(-0.00034402072 0.0037238718 -5.6975844e-19)
(-0.000183961 0.003616986 -1.5319139e-19)
(-3.6078039e-05 0.0035085214 -1.0095583e-19)
(0.0001002957 0.0033990305 -2.3340926e-19)
(0.0002258219 0.0032889782 -3.9247455e-19)
(0.00034109697 0.0031788047 -3.713608e-19)
(0.0004467109 0.0030689022 -2.6732964e-19)
(0.0004365002 -0.01044044 4.42429e-17)
(0.001099763 -0.010419158 9.2247715e-17)
(0.0017933195 -0.010668311 -1.1473513e-17)
(0.0023748607 -0.011147881 -5.7308803e-17)
(0.002872268 -0.011879575 -5.1502847e-17)
(0.0031899235 -0.012821779 -1.6076372e-18)
(0.0033078765 -0.013912143 -5.5053429e-18)
(0.0032144959 -0.015091369 -2.9899836e-17)
(0.0029083787 -0.016303041 -3.4007603e-17)
(0.0023985029 -0.017496154 -1.0208086e-17)
(0.0017014167 -0.018625199 -1.2371825e-17)
(0.00083897954 -0.019652863 -7.5406347e-18)
(-0.00016285685 -0.020550386 -1.0977008e-18)
(-0.0012722554 -0.021291604 -1.2147944e-18)
(-0.0024577838 -0.021860932 3.7787688e-18)
(-0.0036930317 -0.022252977 -1.2596625e-18)
(-0.0049505212 -0.022464435 2.0455538e-18)
(-0.0062048453 -0.022498906 -3.1746659e-19)
(-0.0074336081 -0.022361772 -1.9964364e-18)
(-0.0086164792 -0.022063215 -6.9459999e-18)
(-0.0097367648 -0.02161544 -4.6870291e-18)
(-0.010780672 -0.02103262 4.2587146e-19)
(-0.0117375 -0.020330114 1.1884235e-18)
(-0.01259928 -0.019523866 1.8687152e-18)
(-0.013360697 -0.01862985 2.1520573e-18)
(-0.014018786 -0.017663836 1.8598263e-19)
(-0.014572616 -0.016641013 -2.229911e-18)
(-0.015022984 -0.015575698 3.6913499e-19)
(-0.015372084 -0.01448132 2.516746e-18)
(-0.015623337 -0.013370246 4.2783805e-18)
(-0.015781183 -0.012253699 2.5395209e-18)
(-0.015850794 -0.011141747 -1.3563871e-18)
(-0.015837897 -0.010043302 4.1075424e-19)
(-0.01574861 -0.0089661487 1.0372964e-18)
(-0.015589294 -0.0079169853 3.4167562e-18)
(-0.015366427 -0.0069014805 4.1488903e-18)
(-0.015086496 -0.0059243355 -2.1402992e-18)
(-0.014755908 -0.0049893533 -1.2305798e-19)
(-0.014380922 -0.0040995107 -6.6090127e-19)
(-0.013967583 -0.003257031 9.0652797e-19)
(-0.013521683 -0.0024634552 4.6497431e-18)
(-0.013048718 -0.0017197121 -8.0027674e-22)
(-0.012553854 -0.0010261849 -2.5682718e-18)
(-0.01204189 -0.00038279695 -1.1564668e-18)
(-0.011517528 0.00021092913 -4.5359542e-19)
(-0.010984757 0.00075596468 -3.2018319e-19)
(-0.010447367 0.0012534209 -1.683217e-18)
(-0.0099088236 0.0017047213 -1.8936299e-18)
(-0.0093722414 0.0021115187 -1.2120472e-18)
(-0.0088403978 0.0024756285 2.7287903e-19)
(-0.0083157529 0.0027989972 4.5315485e-19)
(-0.0078004636 0.0030836706 -2.2246014e-19)
(-0.0072963982 0.003331761 -4.5282515e-19)
(-0.0068051532 0.0035454215 -5.428176e-19)
(-0.0063280702 0.0037268209 7.7883436e-19)
(-0.0058662536 0.0038781226 -2.1549855e-19)
(-0.005420588 0.0040014661 -1.2801421e-19)
(-0.0049917563 0.0040989507 5.9447294e-19)
(-0.0045802572 0.0041726224 -9.9742505e-20)
(-0.0041864219 0.0042244624 -3.9626533e-20)
(-0.0038104312 0.0042563778 -7.2493827e-19)
(-0.0034523311 0.0042701939 -7.923586e-19)
(-0.0031120492 0.0042676498 -3.293493e-19)
(-0.0027894083 0.0042503933 -2.7298269e-19)
(-0.0024841407 0.0042199771 3.0380796e-19)
(-0.0021959015 0.00417786 -3.0547435e-19)
(-0.0019242814 0.004125407 -1.7377961e-19)
(-0.0016688161 0.004063885 3.904868e-19)
(-0.0014289961 0.0039944712 1.2977787e-19)
(-0.0012042842 0.0039182502 2.350752e-19)
(-0.00099411026 0.0038362182 -1.9906484e-19)
(-0.00079788658 0.0037492871 -2.6082294e-19)
(-0.00061502039 0.0036583007 -1.439939e-19)
(-0.00044490892 0.0035639864 -4.3541609e-20)
(-0.00028696116 0.003467055 1.6529081e-19)
(-0.00014058678 0.0033681309 -4.2353748e-19)
(-5.2032775e-06 0.0032677621 -4.6007063e-19)
(0.00011976866 0.0031664718 -1.7501221e-19)
(0.00023491162 0.0030646195 -7.1803635e-20)
(0.00034076593 0.0029626385 1.3149169e-20)
(0.00030086707 -0.011618286 -1.4338553e-17)
(0.0007665796 -0.011598039 -4.3809368e-17)
(0.0012468517 -0.011785 -3.6876956e-17)
(0.0016451055 -0.012150664 -1.9183783e-17)
(0.0019786896 -0.012714778 -1.0543033e-17)
(0.002172696 -0.013445924 2.7141041e-18)
(0.0022101771 -0.014296183 2.6273264e-18)
(0.0020808245 -0.01522005 -2.7427022e-17)
(0.001782502 -0.016172977 -9.4699994e-18)
(0.001320084 -0.017113948 1.0861683e-17)
(0.00070515622 -0.018006719 1.4637587e-17)
(-4.7149617e-05 -0.018820577 4.2784372e-18)
(-0.00091336408 -0.019529158 -2.9249265e-18)
(-0.0018692797 -0.020110106 -6.1594274e-18)
(-0.0028937765 -0.020552681 -9.8944706e-18)
(-0.00396274 -0.020849026 2.9634272e-18)
(-0.0050536509 -0.020994766 1.9768593e-18)
(-0.0061455858 -0.020991582 -5.442461e-18)
(-0.0072187367 -0.020842975 -7.7687489e-18)
(-0.0082559885 -0.020556356 -9.9936528e-18)
(-0.0092426306 -0.020140987 -5.4700609e-18)
(-0.010166385 -0.0196082 3.2207765e-18)
(-0.011017366 -0.018970297 6.2512258e-18)
(-0.011788013 -0.018240391 9.2123063e-18)
(-0.012472994 -0.017431828 6.1798931e-18)
(-0.013069038 -0.016557905 -1.186659e-18)
(-0.013574632 -0.015631612 1.4646384e-18)
(-0.013989811 -0.01466533 4.2345678e-18)
(-0.014315889 -0.013670761 6.0418673e-18)
(-0.014555291 -0.012658807 7.6444696e-18)
(-0.014711419 -0.01163946 -4.9866134e-19)
(-0.014788385 -0.010621768 -6.1855632e-19)
(-0.014790864 -0.0096138199 2.1260592e-18)
(-0.014723945 -0.0086227549 2.1392685e-18)
(-0.014593001 -0.0076547843 5.8863049e-18)
(-0.01440357 -0.006715228 -1.2497892e-18)
(-0.014161258 -0.00580856 -2.7918172e-18)
(-0.013871656 -0.0049384606 -2.4960006e-19)
(-0.013540267 -0.0041078732 7.4774238e-19)
(-0.013172451 -0.0033190623 3.543944e-18)
(-0.012773379 -0.0025736734 4.5511964e-19)
(-0.012347991 -0.0018727906 -1.100102e-18)
(-0.01190097 -0.0012169944 -1.1172132e-19)
(-0.011436697 -0.00060644189 -6.4888841e-19)
(-0.010959306 -4.0908755e-05 -1.4325486e-18)
(-0.010472737 0.00048035984 -1.3363804e-18)
(-0.0099803977 0.00095811694 -4.3747947e-19)
(-0.0094855012 0.0013935251 2.9785766e-20)
(-0.0089909626 0.0017879485 -5.6550287e-19)
(-0.0084994157 0.0021429121 -5.1258073e-19)
(-0.0080132049 0.0024600765 -6.9824932e-19)
(-0.0075344006 0.0027412079 -3.4974585e-20)
(-0.0070648123 0.0029881484 -8.5739427e-20)
(-0.0066060032 0.0032027916 3.8484964e-19)
(-0.0061593037 0.0033870581 9.0966713e-19)
(-0.0057258264 0.0035428769 -1.4305633e-18)
(-0.0053064813 0.0036721667 -7.1148019e-19)
(-0.004901991 0.0037768199 1.4305478e-19)
(-0.0045129063 0.0038586904 3.0359222e-19)
(-0.004139621 0.0039195821 3.3229058e-19)
(-0.0037823867 0.0039612388 -1.2580962e-18)
(-0.0034413269 0.0039853375 -1.1804912e-18)
(-0.0031164516 0.0039934824 -4.2258162e-19)
(-0.0028076699 0.0039872 1.2662693e-20)
(-0.0025148024 0.0039679357 5.1800444e-19)
(-0.0022375931 0.0039370524 -5.3572708e-19)
(-0.0019757226 0.0038958298 -3.5552013e-19)
(-0.0017288155 0.003845464 2.8272586e-19)
(-0.0014964497 0.0037870688 8.0171983e-20)
(-0.0012781719 0.003721674 2.7616664e-19)
(-0.0010734946 0.0036502351 -3.5037599e-19)
(-0.00088190613 0.0035736262 -4.6063857e-19)
(-0.00070289697 0.0034926562 -3.0685121e-19)
(-0.0005359358 0.0034080495 -8.2310387e-20)
(-0.00038047577 0.0033204732 2.4206613e-19)
(-0.00023601562 0.003230549 -4.4172601e-19)
(-0.00010199021 0.0031388121 -5.8900571e-19)
(2.206893e-05 0.0030457789 -3.2846244e-19)
(0.00013667089 0.002951872 -2.2840267e-19)
(0.00024239043 0.0028574507 1.456311e-19)
(0.00019516769 -0.012418681 -2.1797437e-17)
(0.00050746352 -0.012399297 -3.5484099e-17)
(0.00082260981 -0.012539025 1.3375378e-17)
(0.0010777349 -0.012817147 5.4603376e-17)
(0.0012821414 -0.013251578 3.1697622e-17)
(0.001377316 -0.013818554 4.3682269e-17)
(0.0013499428 -0.014481155 2.0294478e-17)
(0.0011903071 -0.015203032 7.1965454e-18)
(0.00089571012 -0.015949835 1.1229013e-17)
(0.00046897594 -0.016688921 2.9020528e-18)
(-8.2217081e-05 -0.017390826 -4.0352128e-18)
(-0.00074481578 -0.018028742 2.2328146e-18)
(-0.0015006616 -0.018580423 4.8118185e-19)
(-0.0023333549 -0.019030252 1.8204447e-18)
(-0.0032251874 -0.019366494 1.9634258e-18)
(-0.004155898 -0.01958132 3.7829878e-18)
(-0.0051073757 -0.019670734 9.1826146e-18)
(-0.0060618342 -0.019634142 4.0324606e-18)
(-0.0070025813 -0.019474237 3.8051646e-18)
(-0.0079148614 -0.019196248 9.1337746e-19)
(-0.0087858557 -0.018807328 2.2347034e-18)
(-0.0096047037 -0.018316338 -8.2231617e-19)
(-0.010362419 -0.017733191 1.9725923e-18)
(-0.011051993 -0.017068661 2.0863687e-18)
(-0.011668245 -0.016333887 -2.7122562e-18)
(-0.012207775 -0.015540087 5.1609132e-19)
(-0.012668703 -0.014698333 9.5065809e-19)
(-0.013050526 -0.013819311 1.3540585e-18)
(-0.013353901 -0.012913202 2.3597292e-18)
(-0.013580479 -0.011989586 -8.4331768e-19)
(-0.013732825 -0.011057331 -1.3573838e-18)
(-0.013814184 -0.010124536 -4.4779592e-19)
(-0.013828353 -0.0091985118 6.6261404e-19)
(-0.013779551 -0.0082857733 2.1025953e-18)
(-0.013672302 -0.0073920451 6.0808079e-19)
(-0.013511329 -0.0065222854 -3.9258832e-18)
(-0.013301467 -0.0056807161 -2.8060794e-18)
(-0.013047582 -0.0048708612 -1.024514e-18)
(-0.012754504 -0.0040955904 2.8235654e-18)
(-0.012426975 -0.0033571651 -2.1353297e-19)
(-0.012069599 -0.0026572882 -2.2651191e-18)
(-0.011686806 -0.0019971508 -1.6438132e-18)
(-0.011282823 -0.0013774822 -3.18595e-18)
(-0.010861637 -0.00079860326 -2.0803286e-18)
(-0.010426986 -0.00026048471 -1.1392285e-18)
(-0.0099825401 0.00023729648 5.1069662e-19)
(-0.0095314179 0.00069537038 3.0818011e-19)
(-0.0090766033 0.0011146272 -1.2745441e-18)
(-0.008620831 0.0014961681 -1.3811184e-18)
(-0.0081665804 0.0018412662 -6.3967026e-19)
(-0.0077160721 0.0021513298 1.4095884e-20)
(-0.0072712822 0.0024278761 3.4066416e-19)
(-0.006833953 0.0026725061 -6.6782381e-20)
(-0.0064056039 0.0028868793 2.7619219e-19)
(-0.0059875427 0.0030726924 -4.0321592e-20)
(-0.005580878 0.0032316609 -4.3790987e-19)
(-0.0051865322 0.0033655012 5.4259583e-20)
(-0.0048052543 0.003475916 -8.3126418e-21)
(-0.0044376336 0.0035645817 2.8553404e-19)
(-0.0040841128 0.0036331371 1.256083e-19)
(-0.0037450006 0.0036831739 -5.2702765e-19)
(-0.0034204848 0.0037162299 -6.5105064e-19)
(-0.0031106446 0.0037337819 -8.2054475e-19)
(-0.0028154627 0.0037372411 -7.4257847e-20)
(-0.0025348359 0.0037279501 3.2279701e-19)
(-0.0022685863 0.0037071797 -1.4008203e-19)
(-0.0020164727 0.0036761272 -4.0199149e-20)
(-0.0017781979 0.0036359181 1.8165804e-19)
(-0.0015534185 0.0035876037 1.1707875e-19)
(-0.0013417562 0.0035321606 3.9097342e-19)
(-0.0011427979 0.0034705009 -3.7531874e-20)
(-0.0009561041 0.0034034592 -2.4528953e-19)
(-0.00078123132 0.0033318074 -3.4483391e-19)
(-0.00061771726 0.0032562635 -6.4156258e-20)
(-0.00046507772 0.0031774625 2.3208411e-19)
(-0.00032285315 0.0030959978 -2.8203595e-19)
(-0.00019056468 0.0030124283 -4.4190516e-19)
(-6.7746867e-05 0.0029271969 -3.198528e-19)
(4.6023519e-05 0.0028408103 -9.2920304e-20)
(0.00015124204 0.0027535987 2.4031216e-19)
(0.00011392239 -0.01292587 2.2078767e-17)
(0.00030693249 -0.012907027 5.401501e-17)
(0.00049397836 -0.01301074 1.0114489e-17)
(0.00063760071 -0.013221499 3.6826605e-17)
(0.00074014584 -0.01355524 2.4111825e-17)
(0.00075675878 -0.013994026 1.931586e-17)
(0.00067720526 -0.01450849 7.397891e-18)
(0.00049264603 -0.01507071 8.2945036e-18)
(0.00019992132 -0.015653819 9.7959245e-18)
(-0.00019926128 -0.016230317 -8.9967275e-18)
(-0.00069787082 -0.016776494 -1.4886079e-17)
(-0.0012873483 -0.017270279 -3.3666597e-18)
(-0.0019549597 -0.017694558 -3.3454498e-18)
(-0.0026865825 -0.018036188 -3.4583588e-18)
(-0.003468577 -0.018283491 -2.1519652e-18)
(-0.0042843207 -0.01842989 -3.3465222e-18)
(-0.0051183863 -0.018471145 -6.571012e-19)
(-0.005956397 -0.018405821 -4.6508958e-18)
(-0.0067842461 -0.018235662 -5.5045416e-18)
(-0.007589239 -0.017964349 -4.517812e-18)
(-0.008360201 -0.017597379 -4.4461011e-18)
(-0.009087532 -0.017141714 -5.5705894e-18)
(-0.0097632214 -0.016605381 -6.373894e-18)
(-0.010380871 -0.015997204 -8.6072877e-18)
(-0.010935553 -0.015326465 -7.5000858e-18)
(-0.011423871 -0.014602626 -4.4644351e-18)
(-0.011843735 -0.013835119 -7.5949644e-18)
(-0.012194284 -0.013033153 -6.8108592e-18)
(-0.012475689 -0.012205573 -4.6737603e-18)
(-0.01268901 -0.011360778 -3.4972462e-18)
(-0.012836142 -0.010506616 -4.7768224e-18)
(-0.012919628 -0.009650315 -5.1314322e-18)
(-0.012942533 -0.0087984598 -2.4770705e-18)
(-0.012908343 -0.0079569685 1.7648336e-19)
(-0.01282086 -0.0071310921 -9.8418537e-19)
(-0.012684103 -0.0063254244 -3.2967537e-18)
(-0.012502233 -0.0055439213 -2.8446354e-18)
(-0.012279478 -0.0047899279 -1.1114413e-18)
(-0.012020069 -0.0040662108 7.801952e-19)
(-0.011728193 -0.0033749948 6.4787662e-19)
(-0.011407942 -0.0027180023 1.2638153e-18)
(-0.011063282 -0.002096492 -1.7407961e-18)
(-0.010698017 -0.0015113006 -3.4567921e-18)
(-0.010315766 -0.00096288416 -1.9499267e-18)
(-0.0099199341 -0.0004513748 -5.8471556e-19)
(-0.0095138192 2.3409809e-05 1.2785137e-18)
(-0.0091004025 0.00046202667 -8.0730619e-19)
(-0.0086823988 0.00086505032 -2.0058675e-18)
(-0.0082623568 0.001233385 -7.3369309e-19)
(-0.0078425994 0.0015680886 -3.5627374e-20)
(-0.0074252249 0.0018703472 6.5173831e-19)
(-0.0070121124 0.0021414588 5.5562894e-20)
(-0.006604931 0.0023828089 -4.1950442e-19)
(-0.0062051487 0.0025958476 -6.2624821e-19)
(-0.0058140415 0.0027820694 -2.1383673e-19)
(-0.0054327042 0.0029429961 7.9469059e-19)
(-0.0050620606 0.0030801599 2.330169e-19)
(-0.0047028749 0.0031950894 -1.6424103e-19)
(-0.0043557632 0.0032892973 -5.5045299e-19)
(-0.004021205 0.0033642699 -6.5742826e-20)
(-0.0036995546 0.0034214573 1.545555e-19)
(-0.0033910518 0.0034622667 -6.6990512e-19)
(-0.003095834 0.0034880552 -1.0584687e-18)
(-0.0028139457 0.0035001255 -6.4716786e-19)
(-0.0025453492 0.0034997215 1.6057956e-19)
(-0.0022899343 0.0034880256 6.6823874e-20)
(-0.0020475283 0.0034661567 -2.8697743e-19)
(-0.001817903 0.0034351704 -1.4429322e-19)
(-0.0016007843 0.0033960563 -8.8369169e-20)
(-0.0013958609 0.0033497401 4.5667356e-19)
(-0.0012027874 0.003297087 1.7182843e-19)
(-0.0010211906 0.0032388937 -2.2131459e-19)
(-0.00085068218 0.0031758983 -4.4193477e-19)
(-0.00069086507 0.0031087941 -2.5637758e-19)
(-0.00054131651 0.0030381972 2.2066344e-19)
(-0.00040161723 0.0029646813 -1.2786053e-19)
(-0.00027134767 0.0028887889 -4.0121884e-19)
(-0.00015009146 0.0028109668 -3.409258e-19)
(-3.7456e-05 0.0027316716 -6.364459e-20)
(6.6988163e-05 0.0026513143 1.1735222e-19)
(5.1192997e-05 -0.013204107 1.7214498e-17)
(0.00015097418 -0.013186065 1.856352e-17)
(0.00023851742 -0.013262549 -6.4088406e-18)
(0.00029538344 -0.013421203 -1.0152614e-17)
(0.00031819261 -0.01367665 -2.1033702e-17)
(0.00027350546 -0.014015109 -5.1278837e-18)
(0.00015297317 -0.014412845 -6.4877162e-19)
(-5.2160306e-05 -0.014848835 -1.2621014e-17)
(-0.00034269282 -0.015299683 -7.0098395e-18)
(-0.00071774626 -0.015744945 -1.772019e-18)
(-0.0011740143 -0.016164807 -4.6557815e-18)
(-0.0017045801 -0.016542489 -2.0990109e-18)
(-0.0022997292 -0.016863119 -5.5776758e-19)
(-0.0029481423 -0.017115174 -2.4033233e-18)
(-0.0036385841 -0.017289047 -1.2653975e-18)
(-0.0043579192 -0.017378176 -3.825017e-18)
(-0.0050931476 -0.017378774 9.798177e-19)
(-0.0058323415 -0.017289227 7.3227925e-20)
(-0.0065637929 -0.017110317 -3.9269355e-19)
(-0.0072764984 -0.016844583 -1.3076965e-18)
(-0.007960832 -0.016496282 -1.6187393e-18)
(-0.0086084191 -0.016070906 1.682681e-18)
(-0.0092120979 -0.015574974 -4.6809688e-19)
(-0.0097660655 -0.0150157 6.8833981e-19)
(-0.010265739 -0.014400825 5.8386743e-20)
(-0.010707827 -0.013738323 1.0437324e-18)
(-0.01109016 -0.013036232 1.3630216e-18)
(-0.011411641 -0.012302483 6.9271441e-19)
(-0.011672092 -0.01154475 2.7496151e-18)
(-0.011872125 -0.010770386 -2.8650858e-19)
(-0.012013108 -0.0099863196 -1.3910943e-18)
(-0.012097011 -0.0091989888 1.0990034e-18)
(-0.012126302 -0.0084143037 1.6759106e-18)
(-0.01210385 -0.0076376227 3.0650844e-18)
(-0.012032841 -0.0068737422 -3.880085e-19)
(-0.011916691 -0.0061268974 -7.6212006e-20)
(-0.011758976 -0.0054007732 1.1807308e-18)
(-0.011563361 -0.0046985221 1.5232792e-18)
(-0.011333551 -0.0040227869 2.6892072e-18)
(-0.011073233 -0.00337573 2.9107309e-18)
(-0.010786041 -0.0027590631 1.7552395e-18)
(-0.010475516 -0.0021740802 -2.1383915e-18)
(-0.01014508 -0.001621691 -3.0735325e-18)
(-0.0097980091 -0.0011024556 -1.5125506e-18)
(-0.0094374032 -0.00061662996 8.4547302e-19)
(-0.0090661784 -0.00016418798 1.0783734e-18)
(-0.0086872334 0.00025525807 -1.5465483e-18)
(-0.0083030278 0.00064207669 -1.6664441e-18)
(-0.0079158901 0.00099702804 -3.8709103e-19)
(-0.0075280058 0.0013209668 1.0919147e-18)
(-0.0071413542 0.0016148821 1.1415014e-18)
(-0.0067577144 0.0018798779 3.2904628e-19)
(-0.0063786779 0.0021171476 -4.5547941e-21)
(-0.0060056552 0.0023279543 -4.8162136e-19)
(-0.0056398839 0.0025136105 1.4198516e-18)
(-0.0052824365 0.0026754626 1.2020482e-18)
(-0.0049342295 0.0028148755 2.4940297e-19)
(-0.0045960325 0.0029332185 6.3172594e-19)
(-0.0042684786 0.0030318541 -1.9455364e-19)
(-0.003952074 0.0031121275 6.1242494e-19)
(-0.0036472079 0.0031753577 4.4404149e-19)
(-0.0033541621 0.0032228298 -5.1862129e-19)
(-0.0030731216 0.003255789 -3.4947684e-19)
(-0.002804183 0.0032754351 -2.3377048e-19)
(-0.0025473644 0.0032829191 7.8290544e-19)
(-0.0023026137 0.0032793386 3.6636104e-19)
(-0.002069818 0.0032657373 -2.2048737e-19)
(-0.0018488098 0.003243103 3.4036809e-19)
(-0.0016393756 0.0032123655 2.721859e-19)
(-0.0014412637 0.0031743997 6.9491986e-19)
(-0.0012541896 0.0031300231 4.1057557e-19)
(-0.0010778393 0.0030799962 3.5943785e-20)
(-0.00091187825 0.0030250255 3.2499465e-20)
(-0.00075596365 0.0029657694 1.5741869e-21)
(-0.00060972776 0.0029028305 4.2736896e-19)
(-0.00047279251 0.0028367618 8.4205171e-20)
(-0.00034480186 0.0027680813 -2.7644003e-19)
(-0.00022537505 0.002697238 -8.1106348e-20)
(-0.000114129 0.0026246741 2.0861946e-20)
(-1.0719074e-05 0.0025507885 8.3059226e-20)
(3.2406662e-06 -0.013305303 -4.4370111e-18)
(3.0213978e-05 -0.013289433 -1.6283902e-17)
(4.1143746e-05 -0.013344651 -1.0866463e-17)
(3.0980135e-05 -0.013462787 -2.310433e-17)
(-8.7591339e-06 -0.013656905 -6.0899578e-18)
(-0.00010136578 -0.013916052 1.4573397e-18)
(-0.00025415444 -0.014221547 -1.9736578e-17)
(-0.00047308122 -0.014556171 -1.4051065e-17)
(-0.00076044359 -0.014900861 -5.1660449e-18)
(-0.001116726 -0.015240728 -6.4252531e-18)
(-0.0015379516 -0.015559316 2.3933856e-18)
(-0.0020199423 -0.015842888 2.9379782e-18)
(-0.0025549595 -0.016078918 9.2769509e-20)
(-0.0031338551 -0.016257554 1.7265615e-18)
(-0.0037478049 -0.016370767 1.3711239e-18)
(-0.0043858694 -0.016412617 4.2191141e-18)
(-0.0050374817 -0.016379431 4.7845081e-18)
(-0.0056927459 -0.016269862 4.2191979e-18)
(-0.006341635 -0.016083835 4.7156893e-18)
(-0.006974879 -0.015823157 1.0094147e-18)
(-0.0075842071 -0.015491179 -6.6047045e-19)
(-0.0081622728 -0.015092173 -6.9434975e-19)
(-0.0087027468 -0.014631439 9.2972745e-19)
(-0.0092004075 -0.014114901 1.4146912e-18)
(-0.0096510471 -0.013549027 -8.9905323e-19)
(-0.010051543 -0.012940539 2.3343781e-19)
(-0.010399734 -0.012296288 -1.324706e-18)
(-0.010694385 -0.0116231 5.8271878e-19)
(-0.010935075 -0.010927629 2.5411347e-18)
(-0.011122079 -0.010216306 -9.6117844e-19)
(-0.011256357 -0.0094952405 -5.9853677e-19)
(-0.011339419 -0.008770152 -1.5114834e-18)
(-0.011373238 -0.0080463344 4.1655194e-19)
(-0.011360172 -0.0073286251 1.8944586e-18)
(-0.011302886 -0.0066213898 -2.1738095e-19)
(-0.01120428 -0.0059285174 1.039406e-18)
(-0.011067419 -0.0052534233 -1.425902e-18)
(-0.010895482 -0.0045990604 2.4694534e-20)
(-0.010691703 -0.0039679348 1.5012899e-19)
(-0.01045933 -0.0033621271 -2.3385134e-18)
(-0.010201583 -0.002783316 -2.333521e-18)
(-0.0099216204 -0.002232805 -4.9302724e-19)
(-0.0096225129 -0.0017115495 8.0574402e-19)
(-0.0093072154 -0.0012201865 -5.6181487e-19)
(-0.0089785399 -0.00075906428 -7.4568867e-19)
(-0.0086391444 -0.00032828314 -1.2625912e-18)
(-0.0082917214 7.2297062e-05 2.4050167e-19)
(-0.0079385095 0.00044316006 1.0726268e-18)
(-0.0075816337 0.00078471295 -2.0047639e-19)
(-0.0072231789 0.0010976621 1.8628944e-19)
(-0.0068649938 0.0013828426 -1.0649782e-19)
(-0.006508753 0.0016411895 5.5830136e-19)
(-0.0061559669 0.0018737274 2.1277347e-19)
(-0.0058079851 0.0020815526 3.9948666e-19)
(-0.0054660009 0.0022658147 1.6771886e-18)
(-0.0051310583 0.0024277022 -2.8128076e-20)
(-0.0048040592 0.0025684277 6.0307538e-19)
(-0.0044857708 0.0026892154 9.7337375e-19)
(-0.0041768346 0.0027912902 6.8920707e-19)
(-0.0038777748 0.0028758676 6.9488147e-19)
(-0.0035890065 0.0029441451 -3.9324453e-19)
(-0.0033108446 0.0029972943 -9.9645707e-20)
(-0.0030435124 0.0030364556 8.5863645e-20)
(-0.0027871503 0.0030627326 2.6844411e-19)
(-0.002541823 0.0030771877 6.4877905e-19)
(-0.0023075282 0.0030808386 -1.1806746e-19)
(-0.0020842046 0.0030746565 3.9311671e-20)
(-0.0018717379 0.0030595643 5.3107585e-19)
(-0.0016699681 0.0030364344 3.9162121e-19)
(-0.0014786968 0.0030060901 4.7236172e-19)
(-0.0012976926 0.0029693033 3.6211233e-20)
(-0.0011266937 0.0029267979 -7.4621783e-21)
(-0.00096541654 0.0028792472 1.1084415e-19)
(-0.00081356707 0.0028272777 1.7554878e-19)
(-0.00067082662 0.0027714727 3.2610161e-19)
(-0.00053686392 0.0027123652 -1.3808787e-19)
(-0.00041136199 0.0026504474 -3.0939389e-19)
(-0.00029397983 0.0025861792 -9.5847804e-20)
(-0.0001843775 0.0025199709 -1.7360511e-20)
(-8.222886e-05 0.0024522107 7.381001e-20)
(-3.6377865e-05 -0.013269052 -2.3188136e-19)
(-6.365685e-05 -0.01325603 -4.4289738e-18)
(-0.00011098149 -0.013294274 4.8887282e-18)
(-0.00017293249 -0.013381652 1.5977367e-17)
(-0.00026072325 -0.013528074 8.9468181e-18)
(-0.00039007337 -0.013724185 3.1636746e-19)
(-0.00056642889 -0.013956165 -9.3852258e-18)
(-0.00079559305 -0.014209135 -2.2267271e-18)
(-0.0010796418 -0.014470311 -3.4352354e-18)
(-0.0014189727 -0.014725512 3.5386515e-18)
(-0.0018110306 -0.014962354 5.8477189e-18)
(-0.0022523245 -0.01516968 2.7320726e-18)
(-0.0027368339 -0.015336665 -1.4136854e-18)
(-0.0032575052 -0.015455438 -5.6815496e-19)
(-0.0038069305 -0.015519007 -4.0991502e-18)
(-0.0043762443 -0.015521965 -2.2409451e-18)
(-0.0049568922 -0.015461315 4.6475174e-19)
(-0.0055404906 -0.015335457 -7.7352918e-19)
(-0.0061185155 -0.015144036 -2.2879895e-18)
(-0.0066832755 -0.014888365 -5.493124e-18)
(-0.0072275831 -0.014570959 -4.9147288e-18)
(-0.0077450092 -0.014195222 -5.8038502e-18)
(-0.008230006 -0.013765457 -3.2956204e-18)
(-0.0086779184 -0.01328655 -1.066129e-18)
(-0.009084926 -0.012763906 -1.904012e-18)
(-0.0094481025 -0.012203205 -3.579016e-18)
(-0.0097653511 -0.011610285 -3.2972701e-18)
(-0.010035375 -0.010991022 -1.8415555e-18)
(-0.01025759 -0.010351188 -6.7163819e-19)
(-0.01043203 -0.0096964006 2.8288012e-19)
(-0.010559335 -0.0090320423 -2.4294655e-18)
(-0.010640649 -0.0083631885 -2.616328e-18)
(-0.010677543 -0.0076945714 -1.1403009e-18)
(-0.010671948 -0.0070305478 -2.9813775e-19)