/*--------------------------------*- C++ -*----------------------------------*\
| =========                 |                                                 |
| \\      /  F ield         | OpenFOAM: The Open Source CFD Toolbox           |
|  \\    /   O peration     | Version:  2306                                  |
|   \\  /    A nd           | Website:  www.openfoam.com                      |
|    \\/     M anipulation  |                                                 |
\*---------------------------------------------------------------------------*/
FoamFile
{
    version     2.0;
    format      ascii;
    arch        "LSB;label=32;scalar=64";
    class       volVectorField;
    location    "0.48";
    object      U;
}
// * * * * * * * * * * * * * * * * * * * * * * * * * * * * * * * * * * * * * //

dimensions      [0 1 -1 0 0 0 0];

internalField   nonuniform List<vector> 
6400
(
(-0.0023860571 -0.082325482 3.2636944e-17)
(-0.0053613624 -0.081928796 3.7165578e-17)
(-0.0086788895 -0.080884169 -3.7496023e-17)
(-0.01171868 -0.079435625 -2.6130309e-17)
(-0.014640133 -0.07767553 -7.0503576e-17)
(-0.017340349 -0.075671601 1.8441879e-17)
(-0.019807568 -0.073475023 4.7102375e-18)
(-0.022039493 -0.071125657 -8.2029673e-18)
(-0.024037491 -0.068660563 3.849142e-18)
(-0.025808769 -0.066113687 -2.158413e-17)
(-0.027364701 -0.063514924 -1.2409099e-17)
(-0.028719502 -0.060889404 -7.9328568e-18)
(-0.029888642 -0.058257258 -1.0861416e-17)
(-0.030887725 -0.055634018 -9.7035935e-19)
(-0.031731548 -0.053031349 2.8537313e-18)
(-0.032433624 -0.050457633 9.1280608e-18)
(-0.033006005 -0.047918643 -6.0810559e-19)
(-0.033459116 -0.045418329 5.5238311e-18)
(-0.033801776 -0.042959446 1.1163246e-17)
(-0.034041356 -0.040544091 1.1749941e-17)
(-0.034184118 -0.038174024 7.4860208e-18)
(-0.034235391 -0.035850895 4.6720625e-18)
(-0.034199841 -0.033576464 1.8210076e-18)
(-0.034081696 -0.031352612 9.8493582e-18)
(-0.033884902 -0.029181379 1.6263861e-17)
(-0.033613273 -0.027064943 4.2560828e-18)
(-0.033270584 -0.025005559 -1.0629297e-19)
(-0.032860639 -0.023005523 5.9091182e-18)
(-0.032387322 -0.021067125 1.2053022e-17)
(-0.031854626 -0.019192587 1.4136453e-17)
(-0.031266659 -0.017383993 4.8387188e-18)
(-0.030627631 -0.015643254 6.8965306e-19)
(-0.029941846 -0.013972057 1.9897331e-18)
(-0.029213679 -0.012371843 6.0942172e-18)
(-0.02844755 -0.010843774 8.0574632e-18)
(-0.027647894 -0.0093887235 -7.3509957e-19)
(-0.026819135 -0.0080072608 -1.1879215e-18)
(-0.025965656 -0.0066996497 1.545948e-18)
(-0.02509177 -0.0054658487 3.4306017e-18)
(-0.024201693 -0.0043055158 6.5379294e-18)
(-0.023299522 -0.0032180174 3.9446687e-18)
(-0.022389201 -0.0022024498 5.4437978e-19)
(-0.021474513 -0.0012576702 -4.1866002e-18)
(-0.020559127 -0.00038224951 -3.4160959e-18)
(-0.019646514 0.00042556617 -2.7155363e-19)
(-0.018739701 0.0011674444 -6.9529066e-19)
(-0.017841814 0.0018455006 -3.4187801e-18)
(-0.016955612 0.0024619137 -3.8404129e-18)
(-0.016083647 0.0030190173 -3.7261355e-18)
(-0.015228242 0.0035192644 -4.2770564e-19)
(-0.01439149 0.0039652054 1.6186189e-18)
(-0.013575254 0.0043594676 2.6158562e-19)
(-0.012781169 0.0047047352 -2.9026749e-20)
(-0.012010647 0.0050037296 -1.0043806e-18)
(-0.011264882 0.005259191 -1.6287266e-19)
(-0.010544859 0.0054738602 1.6818764e-18)
(-0.0098513564 0.0056504626 1.8004189e-18)
(-0.009184962 0.0057916921 3.0064413e-19)
(-0.0085460781 0.0059001968 -1.194947e-18)
(-0.0079349336 0.0059785663 -2.3412226e-19)
(-0.0073515957 0.0060293198 1.0569755e-18)
(-0.0067959806 0.0060548952 3.8567118e-19)
(-0.0062678671 0.0060576408 -1.3586182e-18)
(-0.0057669075 0.0060398067 -1.4353026e-18)
(-0.0052926413 0.0060035388 8.4931397e-20)
(-0.0048445068 0.0059508731 7.9604726e-19)
(-0.0044218543 0.0058837328 8.022094e-19)
(-0.0040239577 0.0058039245 1.8998577e-19)
(-0.0036500265 0.0057131373 -5.180549e-19)
(-0.003299218 0.0056129422 5.4283835e-19)
(-0.0029706465 0.0055047933 8.9716579e-19)
(-0.0026633958 0.005390028 5.9954517e-20)
(-0.0023765276 0.0052698714 -4.2912803e-19)
(-0.0021090912 0.0051454379 -8.7564855e-19)
(-0.0018601315 0.005017735 4.601755e-20)
(-0.0016286944 0.0048876699 6.3595129e-20)
(-0.0014138416 0.0047560531 -5.8015741e-20)
(-0.0012146426 0.0046236017 -3.9393764e-19)
(-0.0010301969 0.0044909461 -5.912223e-19)
(-0.00085962905 0.0043586443 -3.1741235e-19)
(-0.0021206137 -0.075820648 1.9754279e-17)
(-0.0047703985 -0.075496576 -9.1418368e-17)
(-0.0077345807 -0.074628271 -1.4954557e-17)
(-0.010467615 -0.073413977 -2.3778529e-19)
(-0.013111735 -0.071924696 2.7756934e-17)
(-0.015573885 -0.070214969 3.1800766e-17)
(-0.017843332 -0.068325985 9.8756109e-18)
(-0.01991613 -0.066290429 1.3791987e-17)
(-0.021791388 -0.064138628 -6.0305844e-18)
(-0.02347267 -0.061898934 -9.2135317e-18)
(-0.024967023 -0.059596825 2.1263904e-18)
(-0.026284028 -0.05725441 3.4294807e-18)
(-0.027434647 -0.054890156 1.8719e-18)
(-0.028430421 -0.052519013 6.7283469e-18)
(-0.029282705 -0.050152789 2.5679697e-18)
(-0.030002153 -0.047800714 -1.2242472e-18)
(-0.030598572 -0.045469785 9.8923069e-18)
(-0.031080787 -0.043165324 1.0706984e-17)
(-0.031456527 -0.040891427 1.2784268e-17)
(-0.03173248 -0.038651412 1.0820231e-17)
(-0.031914508 -0.036448106 1.5754298e-17)
(-0.032007741 -0.034284041 1.1790784e-17)
(-0.032016774 -0.032161649 7.517201e-18)
(-0.03194582 -0.030083319 1.6026651e-17)
(-0.031798835 -0.02805144 3.6506827e-19)
(-0.031579632 -0.026068417 1.8163191e-18)
(-0.031291957 -0.024136644 9.1737387e-18)
(-0.030939551 -0.022258475 1.1467454e-17)
(-0.030526191 -0.020436205 1.6513253e-17)
(-0.03005572 -0.018672025 3.1565718e-19)
(-0.029532059 -0.016967981 1.181002e-18)
(-0.0289592 -0.015325936 6.216145e-18)
(-0.028341197 -0.013747542 6.4668099e-18)
(-0.027682152 -0.012234213 1.0094232e-17)
(-0.026986196 -0.010787112 -3.4532693e-18)
(-0.026257468 -0.0094071282 -3.6336779e-19)
(-0.025500089 -0.0080948765 3.2079214e-18)
(-0.02471814 -0.0068506899 3.9983658e-18)
(-0.023915636 -0.005674621 5.8450807e-18)
(-0.023096505 -0.0045664475 -2.445427e-18)
(-0.022264567 -0.003525678 -3.2937173e-18)
(-0.021423511 -0.002551566 -2.4084006e-18)
(-0.020576862 -0.0016431429 -5.1647655e-18)
(-0.019727994 -0.00079919849 -3.285749e-18)
(-0.018880332 -1.8235432e-05 -1.2907551e-18)
(-0.018036619 0.00070131638 -1.1194707e-18)
(-0.017199775 0.0013612326 -3.6654753e-18)
(-0.01637246 0.0019634715 -4.7123154e-18)
(-0.015557089 0.0025101173 -3.5166659e-18)
(-0.014755878 0.0030033694 -6.6318447e-19)
(-0.013970835 0.0034455221 5.2429934e-19)
(-0.013203755 0.0038389464 -6.668482e-19)
(-0.012456229 0.0041860716 -6.537253e-19)
(-0.011729639 0.0044893674 -1.5502462e-18)
(-0.011025169 0.0047513273 -1.0227892e-18)
(-0.010343807 0.0049744515 3.8338267e-19)
(-0.0096863553 0.0051612323 6.6075035e-19)
(-0.0090534359 0.0053141386 4.7752875e-19)
(-0.0084454996 0.0054356036 -1.4516056e-18)
(-0.0078628361 0.005528012 -1.7353252e-18)
(-0.0073055835 0.0055936891 -3.9253337e-19)
(-0.006773739 0.0056348909 -7.9643268e-19)
(-0.0062671699 0.0056537958 -1.6518988e-18)
(-0.0057856245 0.0056524965 -1.6381407e-18)
(-0.0053287434 0.0056329939 -6.8023953e-19)
(-0.0048960709 0.0055971925 1.3711515e-20)
(-0.0044870664 0.005546896 6.0580516e-20)
(-0.0041011149 0.0054838046 -1.2683683e-19)
(-0.0037375384 0.0054095131 -6.3290932e-19)
(-0.003395606 0.0053255104 -5.0188017e-20)
(-0.003074544 0.0052331797 3.9665676e-19)
(-0.0027735451 0.0051337991 -6.1402382e-20)
(-0.002491778 0.0050285446 -6.3778903e-19)
(-0.0022283962 0.0049184902 -8.5805873e-19)
(-0.0019825443 0.0048046155 -2.7856238e-19)
(-0.0017533641 0.0046878046 -2.1036721e-19)
(-0.0015400066 0.0045688516 -3.8814493e-19)
(-0.0013416275 0.0044484715 -5.981021e-19)
(-0.0011574063 0.0043272903 -5.8963772e-19)
(-0.00098654274 0.0042058706 -4.643958e-19)
(-0.0018941732 -0.070019405 1.6367846e-17)
(-0.0042651897 -0.069752249 -6.8219655e-17)
(-0.0069249816 -0.069025048 1.0217719e-17)
(-0.0093909987 -0.067999926 5.4931065e-17)
(-0.011790938 -0.066731556 5.3267713e-17)
(-0.014040421 -0.065263916 1.9436097e-17)
(-0.01612963 -0.063630301 3.3897375e-17)
(-0.018053569 -0.061857552 2.5830589e-17)
(-0.019809789 -0.059970712 2.3735002e-17)
(-0.021399323 -0.057993559 1.3196019e-17)
(-0.022826138 -0.055947887 1.3403286e-17)
(-0.024096457 -0.053853089 -3.5511899e-18)
(-0.025217886 -0.051725905 1.112176e-18)
(-0.026198827 -0.049580378 -4.0801577e-18)
(-0.027047901 -0.047428061 -3.3346028e-18)
(-0.027773447 -0.045278406 6.0194175e-18)
(-0.028383364 -0.043139035 1.9164463e-18)
(-0.028884998 -0.041016093 -4.7990434e-19)
(-0.029285 -0.038914532 -4.4301958e-18)
(-0.029589315 -0.036838506 -6.4019379e-18)
(-0.029803294 -0.034791591 -7.7402662e-18)
(-0.029931744 -0.03277697 -7.4759859e-18)
(-0.029979054 -0.030797586 4.0976451e-18)
(-0.029949301 -0.028856222 1.501843e-18)
(-0.029846345 -0.026955554 6.2488525e-18)
(-0.029673911 -0.025098179 6.4358388e-18)
(-0.029435654 -0.023286608 -1.6489506e-18)
(-0.029135201 -0.021523256 2.6359744e-18)
(-0.02877619 -0.019810434 2.5138242e-18)
(-0.0283623 -0.018150322 6.5696962e-18)
(-0.027897258 -0.016544939 7.5527535e-18)
(-0.02738484 -0.014996119 -1.4041909e-18)
(-0.02682886 -0.01350549 5.8720714e-19)
(-0.026233168 -0.012074451 4.0559002e-19)
(-0.025601628 -0.010704167 4.2733187e-18)
(-0.024938102 -0.0093955465 7.427109e-18)
(-0.024246434 -0.0081492459 -1.7552689e-18)
(-0.023530426 -0.0069656602 3.4491265e-19)
(-0.022793819 -0.0058449265 -9.2666298e-19)
(-0.022040276 -0.004786928 8.1011354e-19)
(-0.021273361 -0.0037913003 6.339311e-18)
(-0.02049652 -0.0028574408 -7.4930868e-20)
(-0.019713063 -0.0019845273 -3.7277707e-18)
(-0.018926155 -0.0011715445 -1.5941542e-18)
(-0.018138829 -0.00041725442 -9.6498918e-19)
(-0.017354031 0.00027988615 -7.9303067e-19)
(-0.016574263 0.00092129073 -2.7933513e-18)
(-0.01580209 0.001508738 -2.8871889e-18)
(-0.015039806 0.0020440905 -1.7794741e-18)
(-0.014289528 0.0025293158 3.8938856e-19)
(-0.013553179 0.0029664747 7.5656069e-19)
(-0.01283249 0.0033577049 -2.8233955e-19)
(-0.012128999 0.003705203 -7.0117156e-19)
(-0.011444058 0.004011209 -7.5643419e-19)
(-0.010778835 0.0042779903 1.1489896e-18)
(-0.010134316 0.0045078263 -2.5125545e-19)
(-0.0095113181 0.0047029947 -1.1042573e-19)
(-0.0089104888 0.0048657572 9.2268974e-19)
(-0.0083323185 0.0049983482 -1.1058237e-19)
(-0.0077771471 0.0051029628 -7.1302724e-20)
(-0.007245173 0.0051817461 -1.0905467e-18)
(-0.0067364627 0.0052367846 -1.1830173e-18)
(-0.0062509606 0.0052700981 -5.5670684e-19)
(-0.0057884987 0.0052836315 -5.1209829e-19)
(-0.0053488068 0.0052792497 3.97167e-19)
(-0.0049315229 0.0052587324 -3.9907723e-19)
(-0.0045362033 0.0052237701 -1.797294e-19)
(-0.0041623324 0.0051759612 6.1302323e-19)
(-0.0038093327 0.00511681 1.4990767e-19)
(-0.0034765745 0.0050477255 3.7253577e-19)
(-0.0031633843 0.0049700216 -2.4755618e-19)
(-0.0028690543 0.0048849177 -3.7032433e-19)
(-0.0025928503 0.00479354 -2.1891825e-19)
(-0.0023340202 0.0046969219 -1.2861024e-19)
(-0.0020918001 0.0045960114 2.1097395e-19)
(-0.0018654202 0.0044916682 -6.2169578e-19)
(-0.0016541136 0.0043846694 -6.9787914e-19)
(-0.0014571174 0.0042757195 -3.0096289e-19)
(-0.001273684 0.0041654388 -1.6741256e-19)
(-0.0011030804 0.0040543907 -1.2440938e-20)
(-0.0016998066 -0.064820977 5.8530713e-17)
(-0.0038307965 -0.06459892 7.6439252e-17)
(-0.0062270747 -0.063985404 1.9598176e-17)
(-0.0084596 -0.063113983 7.4670268e-18)
(-0.010643692 -0.062026829 1.1242652e-17)
(-0.012702675 -0.06075954 1.0985642e-17)
(-0.014627595 -0.059339128 5.3647036e-18)
(-0.016412878 -0.057787712 2.1823247e-17)
(-0.018055038 -0.056126108 2.6210287e-18)
(-0.019553395 -0.054374326 -3.9413864e-18)
(-0.020909728 -0.052551053 -4.3216502e-18)
(-0.022127823 -0.050673286 -4.9799729e-18)
(-0.023212777 -0.04875606 8.6425008e-19)
(-0.024170585 -0.046812357 -1.2046146e-18)
(-0.025007688 -0.044853224 8.2499317e-18)
(-0.025730551 -0.042887978 -1.5524996e-17)
(-0.026345488 -0.04092443 -8.0787095e-18)
(-0.026858524 -0.038969141 -5.6816991e-18)
(-0.027275298 -0.037027568 -3.639734e-18)
(-0.027601007 -0.035104395 3.9547893e-18)
(-0.027840443 -0.033203697 -9.4134537e-18)
(-0.02799802 -0.031329104 -2.0613226e-18)
(-0.028077836 -0.029483928 3.0955462e-18)
(-0.028083753 -0.027671245 7.6797385e-18)
(-0.028019457 -0.025893946 1.2830321e-17)
(-0.027888525 -0.024154778 -1.41227e-18)
(-0.027694465 -0.022456349 -8.4277191e-19)
(-0.027440758 -0.020801124 4.6152188e-18)
(-0.027130879 -0.01919143 5.9562789e-18)
(-0.026768326 -0.017629441 1.1920825e-17)
(-0.026356628 -0.016117161 -2.5108183e-20)
(-0.025899345 -0.014656404 -3.1973539e-18)
(-0.025400066 -0.013248779 1.037631e-18)
(-0.024862396 -0.01189568 1.6283305e-18)
(-0.024289951 -0.010598272 8.0264163e-18)
(-0.023686338 -0.0093574864 -1.3437006e-18)
(-0.023055142 -0.0081740161 -3.8997019e-18)
(-0.022399908 -0.0070483121 -8.2848344e-19)
(-0.021724125 -0.0059805867 6.4813747e-19)
(-0.021031209 -0.0049708169 4.6441195e-18)
(-0.020324486 -0.0040187506 2.064253e-19)
(-0.019607179 -0.0031239142 -2.0524796e-18)
(-0.018882387 -0.0022856257 -7.5997003e-19)
(-0.018153066 -0.0015030203 -1.212547e-18)
(-0.017422036 -0.00077503827 -2.4125374e-18)
(-0.016692125 -0.00010040749 -1.9731891e-18)
(-0.015965716 0.00052229003 -7.9917894e-19)
(-0.015245155 0.001094471 -2.2276073e-19)
(-0.014532653 0.0016178524 -9.3338767e-19)
(-0.013830228 0.002094186 -8.1375716e-19)
(-0.013139719 0.0025253203 -9.4605376e-19)
(-0.01246279 0.0029131802 1.007091e-20)
(-0.011800929 0.0032597507 -1.5547181e-19)
(-0.011155451 0.0035670618 5.4300269e-19)
(-0.010527503 0.0038371739 1.2957216e-18)
(-0.0099180671 0.0040721636 -2.0611909e-18)
(-0.0093279652 0.0042741114 -9.1692502e-19)
(-0.0087578652 0.0044450881 3.499302e-19)
(-0.0082082879 0.0045871444 4.9085133e-19)
(-0.0076796144 0.0047022995 4.3928751e-19)
(-0.0071720939 0.0047925317 -1.9106263e-18)
(-0.0066858522 0.0048597695 -1.752569e-18)
(-0.0062208999 0.0049058845 -6.9210754e-19)
(-0.0057771422 0.0049326834 -2.3252651e-20)
(-0.0053543872 0.0049419029 6.6328508e-19)
(-0.0049523557 0.0049352052 -8.5019768e-19)
(-0.0045706899 0.0049141732 -4.105006e-19)
(-0.0042089628 0.0048803082 5.1217195e-19)
(-0.0038666868 0.0048350278 1.3155418e-19)
(-0.003543323 0.0047796636 3.8457639e-19)
(-0.0032382886 0.0047154622 -5.3217131e-19)
(-0.0029509656 0.0046435848 -6.203405e-19)
(-0.0026807084 0.0045651079 -3.8011367e-19)
(-0.0024268504 0.0044810244 -1.103586e-19)
(-0.0021887112 0.0043922476 3.2120962e-19)
(-0.0019656023 0.0042996121 -7.4500046e-19)
(-0.0017568329 0.0042038763 -9.13882e-19)
(-0.0015617149 0.0041057287 -5.0805897e-19)
(-0.0013795686 0.0040057849 -3.2939796e-19)
(-0.0012097246 0.0039046031 1.8903507e-19)
(-0.0015319131 -0.06014225 6.3235929e-17)
(-0.003455048 -0.059956289 7.190751e-17)
(-0.005622018 -0.059435041 6.9772866e-18)
(-0.0076494681 -0.058689333 -4.3451795e-17)
(-0.0096420901 -0.057751769 -2.6200754e-18)
(-0.011530036 -0.056651268 -3.9927157e-17)
(-0.013305186 -0.055409871 -2.124455e-17)
(-0.014961762 -0.05404587 -9.7334465e-18)
(-0.016495639 -0.05257666 -2.9364953e-17)
(-0.01790498 -0.051019148 -1.1725047e-17)
(-0.019190032 -0.049389388 3.3944509e-18)
(-0.020352815 -0.047702258 2.0874185e-17)
(-0.021396553 -0.04597118 5.2762405e-18)
(-0.0223254 -0.04420804 1.230768e-17)
(-0.023144084 -0.042423209 1.5625286e-18)
(-0.023857533 -0.040625668 5.1183218e-18)
(-0.024470749 -0.038823137 1.3928351e-17)
(-0.024988631 -0.037022286 5.0022504e-18)
(-0.02541589 -0.035228827 7.3988461e-18)
(-0.025757006 -0.033447735 2.7100462e-19)
(-0.02601621 -0.031683384 6.011341e-19)
(-0.02619748 -0.029939692 -2.2452448e-18)
(-0.026304583 -0.028220212 1.9196654e-19)
(-0.026341113 -0.026528218 4.6117458e-18)
(-0.026310538 -0.024866757 -1.4161509e-18)
(-0.026216239 -0.023238679 -3.9038217e-18)
(-0.026061544 -0.021646661 -1.3411983e-18)
(-0.025849757 -0.020093204 1.4588489e-18)
(-0.025584171 -0.018580645 4.5420422e-18)
(-0.025268094 -0.017111155 7.1094388e-19)
(-0.024904854 -0.015686721 -4.1816656e-18)
(-0.0244978 -0.014309142 -3.3997174e-18)
(-0.024050298 -0.012980016 -5.5594426e-19)
(-0.023565725 -0.011700729 3.2968833e-18)
(-0.023047461 -0.010472452 1.9226723e-18)
(-0.022498873 -0.009296137 -6.0567153e-18)
(-0.021923307 -0.0081725081 -4.0184512e-18)
(-0.021324069 -0.0071020674 -1.4788462e-18)
(-0.020704414 -0.0060850936 4.4656698e-18)
(-0.020067528 -0.0051216468 6.9731333e-19)
(-0.019416517 -0.0042115746 -2.8983786e-18)
(-0.018754394 -0.0033545188 -2.4472252e-18)
(-0.01808406 -0.0025499254 -5.0042285e-18)
(-0.017408294 -0.0017970612 -3.4889717e-18)
(-0.016729748 -0.0010950351 -2.2585866e-18)
(-0.016050937 -0.00044278032 4.1809784e-19)
(-0.015374394 0.00016102032 4.3379586e-19)
(-0.014702165 0.00071764366 -1.8474177e-18)
(-0.01403633 0.0012285226 -2.118422e-18)
(-0.013378852 0.0016952488 -9.5476793e-19)
(-0.012731482 0.0021194835 9.051498e-20)
(-0.012095817 0.002502959 5.8012646e-19)
(-0.011473291 0.0028474672 -3.3200982e-20)
(-0.010865184 0.0031548466 3.7300402e-19)
(-0.010272618 0.0034269678 -7.9855063e-20)
(-0.0096965632 0.0036657216 -6.3305021e-19)
(-0.0091378437 0.0038730072 1.8904182e-19)
(-0.0085971402 0.0040507194 1.2914047e-19)
(-0.0080749969 0.0042007392 4.2050658e-19)
(-0.0075718281 0.0043249231 1.0567288e-19)
(-0.0070879254 0.0044250946 -8.24846e-19)
(-0.0066234646 0.0045030351 -1.0363615e-18)
(-0.0061785137 0.0045604779 -1.2950117e-18)
(-0.0057530411 0.0045991004 -1.7176905e-19)
(-0.0053469236 0.004620519 3.8139419e-19)
(-0.0049599545 0.0046262846 -2.5023469e-19)
(-0.0045918526 0.0046178787 1.339092e-20)
(-0.0042422695 0.00459671 3.2643923e-19)
(-0.003910798 0.0045641127 1.582834e-19)
(-0.0035969808 0.0045213444 5.2909895e-19)
(-0.0033003165 0.004469586 -2.651523e-20)
(-0.0030202682 0.0044099415 -2.6216254e-19)
(-0.0027562706 0.0043434381 -4.6960816e-19)
(-0.0025077358 0.0042710282 -1.4024205e-19)
(-0.0022740591 0.0041935895 2.453854e-19)
(-0.0020546259 0.0041119296 -4.9729717e-19)
(-0.0018488168 0.0040267864 -6.8129811e-19)
(-0.001656011 0.0039388304 -4.810602e-19)
(-0.0014755924 0.00384867 -1.4933439e-19)
(-0.0013069524 0.0037568547 2.7989476e-19)
(-0.0013859829 -0.055914349 1.7818753e-17)
(-0.0031280576 -0.055757535 -7.2495557e-17)
(-0.0050944377 -0.055311729 4.5360209e-17)
(-0.0069410098 -0.054669559 -1.9057046e-17)
(-0.0087632137 -0.053856269 5.4507707e-18)
(-0.010497292 -0.052895459 1.9709019e-17)
(-0.012135923 -0.051805223 -8.4641423e-18)
(-0.013673356 -0.050600767 -1.5745625e-17)
(-0.015105131 -0.049296676 -8.6332901e-18)
(-0.016428667 -0.047907294 -1.040903e-17)
(-0.017643145 -0.046446451 -9.4915021e-18)
(-0.018749308 -0.04492715 -1.2729174e-17)
(-0.019748998 -0.043361334 -1.5187605e-17)
(-0.020644965 -0.04175981 -1.2962283e-17)
(-0.02144059 -0.04013219 -1.0831789e-17)
(-0.022139561 -0.038486986 -6.774194e-19)
(-0.022745786 -0.036831667 -6.4559351e-18)
(-0.023263214 -0.035172803 -9.1618448e-18)
(-0.02369574 -0.033516167 -7.752411e-18)
(-0.024047176 -0.031866847 -7.9857615e-18)
(-0.024321207 -0.030229366 -6.8203791e-18)
(-0.024521375 -0.028607795 -6.9923179e-18)
(-0.024651092 -0.027005828 -9.1160695e-18)
(-0.024713661 -0.025426858 -6.4641675e-18)
(-0.0247123 -0.023874022 -5.3088271e-18)
(-0.024650167 -0.022350236 -7.9265617e-18)
(-0.024530386 -0.020858215 -9.792357e-18)
(-0.024356064 -0.01940048 -6.4874514e-18)
(-0.024130303 -0.017979371 -1.6199029e-18)
(-0.023856211 -0.016597046 -1.2543621e-18)
(-0.023536915 -0.015255479 -7.1446133e-18)
(-0.023175555 -0.013956453 -7.1513169e-18)
(-0.022775283 -0.012701553 -2.1340691e-18)
(-0.022339257 -0.011492161 2.7603181e-18)
(-0.021870632 -0.010329453 4.2171811e-19)
(-0.021372553 -0.0092143962 -4.4424752e-18)
(-0.020848141 -0.0081477458 -2.5676462e-18)
(-0.020300479 -0.0071300473 -2.3102605e-19)
(-0.019732603 -0.0061616384 2.6391317e-18)
(-0.019147488 -0.005242653 2.2254524e-18)
(-0.018548034 -0.0043730265 2.0553773e-18)
(-0.017937055 -0.003552503 -2.9448324e-18)
(-0.017317271 -0.0027806433 -5.584165e-18)
(-0.016691291 -0.0020568377 -3.0825404e-18)
(-0.016061599 -0.0013803246 -1.211937e-18)
(-0.015430567 -0.00075018808 1.4621271e-18)
(-0.01480048 -0.00016535784 -1.4255934e-18)
(-0.014173441 0.00037547304 -2.9608231e-18)
(-0.013551393 0.00087341898 -1.1101891e-18)
(-0.012936128 0.0013299495 -2.0899781e-20)
(-0.012329344 0.0017465483 9.1490687e-19)
(-0.011732573 0.00212477 1.1718631e-19)
(-0.0111472 0.0024662307 -5.3183878e-19)
(-0.010574464 0.0027725934 -9.6844957e-19)
(-0.010015461 0.0030455551 -3.2489005e-19)
(-0.0094711475 0.0032868367 1.2721713e-18)
(-0.0089423424 0.0034981702 4.5735624e-19)
(-0.0084297341 0.0036812884 -1.9236807e-19)
(-0.0079338841 0.0038379156 -8.7164764e-19)
(-0.0074552332 0.0039697582 -1.5788621e-19)
(-0.0069941075 0.0040784954 2.4311871e-19)
(-0.006550725 0.0041657724 -1.0305123e-18)
(-0.0061252029 0.0042331931 -1.5829667e-18)
(-0.0057175641 0.004282314 -9.971222e-19)
(-0.0053277452 0.0043146385 1.7053946e-19)
(-0.0049556037 0.0043316131 1.2155117e-19)
(-0.0046009254 0.0043346228 -3.8153226e-19)
(-0.0042634319 0.0043249886 -1.200164e-19)
(-0.0039427881 0.004303965 -1.5165344e-19)
(-0.0036386091 0.0042727382 6.1605205e-19)
(-0.0033504674 0.0042324258 3.5010381e-19)
(-0.0030778991 0.0041840758 -2.412289e-19)
(-0.0028204115 0.0041286669 -6.5330889e-19)
(-0.002577488 0.0040671102 -4.9395207e-19)
(-0.0023485936 0.0040002487 2.0846383e-19)
(-0.0021331814 0.003928861 -2.2293598e-19)
(-0.0019306966 0.0038536626 -6.3700616e-19)
(-0.0017405814 0.0037753059 -5.5778293e-19)
(-0.0015622785 0.0036943876 -1.3845664e-19)
(-0.0013952356 0.0036114477 9.1358145e-20)
(-0.0012584076 -0.05207982 2.7935505e-17)
(-0.0028418995 -0.051946736 5.2087038e-18)
(-0.0046319387 -0.051563071 2.5097673e-17)
(-0.0063183037 -0.051006779 4.3676754e-17)
(-0.0079883368 -0.050297391 2.5629741e-17)
(-0.0095837103 -0.04945429 2.4824336e-17)
(-0.011097864 -0.04849242 1.5425135e-17)
(-0.012525237 -0.047424473 1.7944294e-17)
(-0.013861225 -0.046262741 1.2208264e-17)
(-0.015102805 -0.045019438 4.0622425e-18)
(-0.01624844 -0.043706503 6.0589195e-18)
(-0.017297962 -0.0423353 -8.8187302e-18)
(-0.018252197 -0.040916432 -8.8960573e-19)
(-0.019112826 -0.039459672 -7.1556076e-18)
(-0.019882174 -0.037973857 1.7833265e-18)
(-0.020562938 -0.036466946 -5.0988829e-19)
(-0.02115812 -0.034946058 -4.7813835e-18)
(-0.021670871 -0.033417548 -1.0693278e-18)
(-0.022104381 -0.031887093 -4.8944372e-19)
(-0.022461853 -0.030359766 1.1466803e-18)
(-0.022746465 -0.028840126 8.026492e-18)
(-0.022961337 -0.027332292 6.5021511e-18)
(-0.023109524 -0.025840017 -1.716901e-18)
(-0.023194026 -0.024366745 2.6761984e-18)
(-0.023217795 -0.022915651 -1.33412e-18)
(-0.023183755 -0.021489679 -1.0100589e-18)
(-0.023094811 -0.020091552 2.0022383e-18)
(-0.022953864 -0.018723796 1.3336772e-18)
(-0.022763814 -0.017388738 4.6961737e-18)
(-0.022527569 -0.01608852 -9.0546351e-19)
(-0.022248054 -0.014825099 -3.129526e-18)
(-0.021928205 -0.013600238 7.941916e-19)
(-0.021570965 -0.01241551 1.6964918e-18)
(-0.021179284 -0.011272291 4.1357475e-18)
(-0.020756106 -0.01017176 -1.3853565e-18)
(-0.020304364 -0.009114896 -7.9117703e-19)
(-0.019826968 -0.0081024807 2.1408419e-18)
(-0.019326793 -0.007135098 2.2810413e-18)
(-0.018806671 -0.0062131371 3.8370477e-18)
(-0.018269379 -0.0053367964 4.0951215e-18)
(-0.017717624 -0.0045060893 1.9878934e-18)
(-0.017154038 -0.0037208505 -3.8197122e-18)
(-0.016581167 -0.0029807432 -4.8415736e-18)
(-0.016001456 -0.0022852696 -2.0119355e-18)
(-0.015417243 -0.0016337833 1.1661265e-18)
(-0.014830751 -0.0010255053 1.2962904e-18)
(-0.014244074 -0.00045950731 -2.6840956e-18)
(-0.013659351 6.5282785e-05 -2.4433112e-18)
(-0.013078312 0.00055002367 -4.1359267e-19)
(-0.012502662 0.00099589684 1.6834143e-18)
(-0.011934044 0.0014042483 1.6638689e-18)
(-0.011373922 0.0017764772 4.9502524e-19)
(-0.010823625 0.0021140392 8.4821495e-20)
(-0.010284352 0.0024184372 -6.9476018e-19)
(-0.0097571702 0.00269121 2.1516657e-18)
(-0.0092430172 0.002933922 1.8892829e-18)
(-0.0087427054 0.0031481516 4.6235295e-19)
(-0.0082569252 0.0033354828 9.4268956e-19)
(-0.0077862501 0.0034974951 -3.4166043e-19)
(-0.0073311408 0.0036357558 8.4735735e-19)
(-0.0068919517 0.0037518107 6.3946997e-19)
(-0.006468936 0.0038471781 -7.9239588e-19)
(-0.0060622522 0.0039233415 -5.611263e-19)
(-0.0056719705 0.0039817441 -3.9987045e-19)
(-0.0052980794 0.0040237837 1.1423158e-18)
(-0.0049404923 0.004050808 5.7885641e-19)
(-0.0045990544 0.0040641112 -2.9940976e-19)
(-0.0042735492 0.0040649309 4.9902551e-19)
(-0.0039637055 0.0040544457 3.5782867e-19)
(-0.0036692039 0.0040337732 1.0897193e-18)
(-0.0033896826 0.0040039699 6.8810036e-19)
(-0.003124744 0.0039660292 7.2113122e-20)
(-0.0028739605 0.0039208824 2.8474228e-20)
(-0.0026368808 0.0038693995 -9.4608225e-20)
(-0.0024130332 0.0038123886 6.0622886e-19)
(-0.0022019323 0.0037505988 9.2369758e-20)
(-0.0020030837 0.0036847214 -4.7380659e-19)
(-0.0018159866 0.0036153906 -2.1238701e-19)
(-0.0016401386 0.003543188 -5.5698163e-20)
(-0.0014750394 0.0034686435 7.1883383e-20)
(-0.0011462617 -0.048590495 3.8724521e-17)
(-0.002590108 -0.048476875 2.5055007e-17)
(-0.00422437 -0.048144755 1.5775629e-17)
(-0.0057682695 -0.047660172 4.4713246e-17)
(-0.007302014 -0.047038205 1.7886597e-17)
(-0.0087721304 -0.046294875 -3.0391392e-17)
(-0.01017274 -0.045442612 3.4950271e-17)
(-0.011498577 -0.044492038 1.4093293e-17)
(-0.01274505 -0.043453584 1.0001326e-17)
(-0.013908896 -0.042337685 2.3126498e-17)
(-0.014988111 -0.041154659 1.0142578e-17)
(-0.015981883 -0.039914452 9.2044125e-18)
(-0.0168903 -0.038626468 8.4845443e-18)
(-0.017714237 -0.037299507 6.8875527e-18)
(-0.018455198 -0.035941643 1.0522898e-17)
(-0.019115093 -0.03456025 -2.2751298e-18)
(-0.019696182 -0.033162038 1.2147041e-17)
(-0.020200939 -0.031753074 1.0146667e-17)
(-0.020631953 -0.030338838 8.3683582e-18)
(-0.020991895 -0.028924295 9.9453673e-18)
(-0.021283475 -0.02751395 -6.4540577e-20)
(-0.021509413 -0.026111897 -5.2451877e-18)
(-0.021672419 -0.024721877 2.1591045e-18)
(-0.021775192 -0.023347331 2.4656577e-18)
(-0.021820419 -0.021991432 -1.8211923e-18)
(-0.02181078 -0.02065711 1.6422288e-18)
(-0.021748959 -0.019347081 -3.0836371e-18)
(-0.021637644 -0.018063849 6.0799127e-19)
(-0.021479531 -0.01680972 3.3015965e-18)
(-0.02127733 -0.015586813 -1.5313078e-18)
(-0.021033765 -0.014397059 2.6216375e-19)
(-0.020751572 -0.013242201 -3.1076204e-18)
(-0.020433496 -0.012123796 -2.2351119e-19)
(-0.020082285 -0.011043211 2.08933e-18)
(-0.019700683 -0.010001623 -4.6173354e-19)
(-0.019291424 -0.0090000245 2.3342671e-18)
(-0.018857219 -0.0080392158 -1.4735367e-18)
(-0.018400749 -0.0071198139 -1.0479768e-20)
(-0.017924654 -0.0062422529 -1.8177762e-19)
(-0.017431525 -0.0054067877 -3.3945855e-18)
(-0.016923891 -0.0046135001 -2.9417465e-18)
(-0.016404212 -0.003862305 -5.6394676e-19)
(-0.015874871 -0.0031529567 7.1881863e-19)
(-0.01533816 -0.0024850576 -1.0673016e-18)
(-0.014796277 -0.001858069 -1.2953907e-18)
(-0.014251313 -0.0012713255 -1.7795116e-18)
(-0.013705256 -0.00072403739 2.5782374e-19)
(-0.013160001 -0.00021530464 1.3928949e-18)
(-0.012617359 0.0002560153 -3.2184488e-19)
(-0.012078927 0.00069085917 3.2815806e-19)
(-0.011546201 0.0010904598 -1.5345328e-21)
(-0.0110206 0.0014560724 9.155248e-19)
(-0.010503406 0.0017890051 3.4228616e-19)
(-0.0099957763 0.0020906145 6.465112e-19)
(-0.0094987472 0.0023622943 2.591491e-18)
(-0.0090132363 0.0026054653 -9.4648544e-21)
(-0.0085400451 0.0028215653 9.0506013e-19)
(-0.0080798625 0.0030120408 1.4653003e-18)
(-0.0076332686 0.0031783382 9.5359605e-19)
(-0.0072007393 0.0033218958 9.8027092e-19)
(-0.0067826513 0.0034441358 -5.9928704e-19)
(-0.0063792865 0.0035464586 -1.4855357e-19)
(-0.0059908385 0.0036302356 1.2063242e-19)
(-0.0056174178 0.0036968043 3.8844494e-19)
(-0.0052590576 0.003747463 9.9564119e-19)
(-0.0049157203 0.0037834671 -2.0121374e-19)
(-0.0045873033 0.0038060246 1.3835858e-19)
(-0.0042736448 0.0038162944 8.5800945e-19)
(-0.0039745305 0.0038153824 6.461317e-19)
(-0.003689699 0.0038043411 8.2011229e-19)
(-0.0034188478 0.0037841675 6.9461504e-20)
(-0.0031616389 0.0037558026 5.112913e-20)
(-0.0029177039 0.0037201313 2.2208522e-19)
(-0.0026866501 0.0036779827 2.6982918e-19)
(-0.0024680638 0.0036301304 5.0555119e-19)
(-0.002261516 0.0035772934 -2.8480216e-19)
(-0.0020665671 0.003520138 -4.7475005e-19)
(-0.0018827689 0.0034592792 -1.8321331e-19)
(-0.0017096698 0.0033952823 -3.8408424e-20)
(-0.0015468179 0.0033286652 1.2624773e-19)
(-0.0010471767 -0.045405643 3.5545694e-17)
(-0.002367444 -0.045308102 2.3755253e-17)
(-0.0038634707 -0.045019031 5.9265263e-18)
(-0.0052802067 -0.044594721 -2.9786343e-17)
(-0.0066915318 -0.044046777 -4.395192e-18)
(-0.0080483208 -0.043388504 -3.4970852e-18)
(-0.0093452938 -0.042630321 2.0817031e-18)
(-0.010577545 -0.041781161 -1.3104845e-17)
(-0.011740597 -0.040849919 1.0749448e-17)
(-0.012831087 -0.039845538 -5.3538211e-18)
(-0.01384673 -0.038776959 -1.1604661e-17)
(-0.014786275 -0.037652901 1.9039273e-18)
(-0.015649274 -0.036481696 -6.1933516e-18)
(-0.016436002 -0.035271245 -9.7164544e-19)
(-0.017147329 -0.034028898 -4.706369e-18)
(-0.017784541 -0.03276144 -2.0150536e-18)
(-0.018349295 -0.031475139 -3.2096022e-18)
(-0.018843501 -0.030175729 -5.1153359e-18)
(-0.019269235 -0.028868437 -5.5419295e-18)
(-0.019628705 -0.027558052 -8.2378788e-18)
(-0.019924201 -0.026248963 -8.9180311e-18)
(-0.020158073 -0.024945175 -1.0263713e-17)
(-0.020332706 -0.023650372 -5.6099883e-18)
(-0.020450509 -0.022367945 -2.1148122e-18)
(-0.020513906 -0.021101026 3.1734445e-18)
(-0.020525341 -0.019852512 -2.3405228e-18)
(-0.020487273 -0.018625078 -5.2339048e-18)
(-0.020402179 -0.017421198 -1.2188869e-18)
(-0.020272554 -0.016243142 -1.3575133e-19)
(-0.02010091 -0.015092997 3.9015246e-18)
(-0.019889776 -0.013972662 -1.1590327e-18)
(-0.019641695 -0.012883857 -4.2251021e-18)
(-0.01935922 -0.011828118 -1.0688179e-18)
(-0.019044908 -0.0108068 3.1809614e-19)
(-0.018701313 -0.009821077 5.0704213e-18)
(-0.018330978 -0.0088719461 -6.7039468e-20)
(-0.01793643 -0.0079602254 -3.7612739e-18)
(-0.017520165 -0.0070865586 -1.4789498e-18)
(-0.017084646 -0.0062514175 -2.717489e-19)
(-0.016632289 -0.0054551067 3.5927156e-18)
(-0.016165457 -0.0046977677 6.3159428e-18)