/*--------------------------------*- C++ -*----------------------------------*\
| =========                 |                                                 |
| \\      /  F ield         | OpenFOAM: The Open Source CFD Toolbox           |
|  \\    /   O peration     | Version:  2106                                  |
|   \\  /    A nd           | Website:  www.openfoam.com                      |
|    \\/     M anipulation  |                                                 |
\*---------------------------------------------------------------------------*/
FoamFile
{
    version     2.0;
    format      ascii;
    arch        "LSB;label=32;scalar=64";
    class       surfaceScalarField;
    location    "0.012";
    object      phi;
}
// * * * * * * * * * * * * * * * * * * * * * * * * * * * * * * * * * * * * * //

dimensions      [0 3 -1 0 0 0 0];

oriented        oriented;

internalField   nonuniform List<scalar> 
32512
(
-3.5144598e-05
3.5144597e-05
-7.021711e-05
3.5072512e-05
-0.0001051455
3.4928389e-05
-0.00013985782
3.4712326e-05
-0.0001742823
3.4424471e-05
-0.00020834733
3.4065031e-05
-0.0002419816
3.363427e-05
-0.00027511412
3.3132522e-05
-0.00030767431
3.2560195e-05
-0.00033959209
3.1917776e-05
-0.00037079794
3.1205847e-05
-0.00040122302
3.0425086e-05
-0.00043079931
2.9576284e-05
-0.00045945965
2.8660346e-05
-0.00048713796
2.7678307e-05
-0.0005137693
2.6631341e-05
-0.00053929006
2.5520764e-05
-0.00056363811
2.434805e-05
-0.00058675295
2.3114831e-05
-0.00060857586
2.1822912e-05
-0.00062905012
2.0474267e-05
-0.00064812118
1.9071056e-05
-0.0006657368
1.7615616e-05
-0.00068184727
1.6110474e-05
-0.00069640562
1.4558345e-05
-0.00070936775
1.2962132e-05
-0.00072069267
1.1324924e-05
-0.00073034267
9.6499996e-06
-0.00073828349
7.9408198e-06
-0.00074448452
6.2010261e-06
-0.00074891895
4.4344301e-06
-0.00075156393
2.6449801e-06
-0.00075240086
8.369304e-07
-0.00075141535
-9.8550473e-07
-0.00074859748
-2.817875e-06
-0.00074394189
-4.655586e-06
-0.00073744796
-6.4939347e-06
-0.00072911985
-8.3281067e-06
-0.00071896666
-1.015319e-05
-0.00070700247
-1.1964189e-05
-0.00069324643
-1.3756042e-05
-0.00067772279
-1.5523635e-05
-0.00066046097
-1.7261822e-05
-0.00064149553
-1.8965444e-05
-0.00062086618
-2.0629348e-05
-0.00059861777
-2.224841e-05
-0.00057480022
-2.3817554e-05
-0.00054946844
-2.5331778e-05
-0.00052268226
-2.6786177e-05
-0.0004945063
-2.8175966e-05
-0.00046500979
-2.9496504e-05
-0.00043426647
-3.0743321e-05
-0.00040235433
-3.191214e-05
-0.00036935543
-3.2998904e-05
-0.00033535563
-3.3999795e-05
-0.00030044437
-3.4911262e-05
-0.00026471433
-3.573004e-05
-0.00022826116
-3.6453171e-05
-0.00019118314
-3.7078022e-05
-0.00015358084
-3.7602302e-05
-0.00011555676
-3.802408e-05
-7.7214961e-05
-3.8341794e-05
-3.8660697e-05
-3.8554264e-05
2.7080049e-13
-3.8660697e-05
3.8660697e-05
-3.8660697e-05
7.7214961e-05
-3.8554264e-05
0.00011555676
-3.8341794e-05
0.00015358084
-3.802408e-05
0.00019118314
-3.7602302e-05
0.00022826116
-3.7078022e-05
0.00026471433
-3.6453171e-05
0.00030044437
-3.573004e-05
0.00033535563
-3.4911262e-05
0.00036935543
-3.3999795e-05
0.00040235433
-3.2998904e-05
0.00043426647
-3.191214e-05
0.00046500979
-3.0743321e-05
0.0004945063
-2.9496504e-05
0.00052268226
-2.8175966e-05
0.00054946844
-2.6786177e-05
0.00057480022
-2.5331778e-05
0.00059861777
-2.3817554e-05
0.00062086618
-2.224841e-05
0.00064149553
-2.0629348e-05
0.00066046097
-1.8965444e-05
0.00067772279
-1.7261822e-05
0.00069324643
-1.5523635e-05
0.00070700247
-1.3756042e-05
0.00071896666
-1.1964189e-05
0.00072911985
-1.015319e-05
0.00073744796
-8.3281066e-06
0.00074394189
-6.4939347e-06
0.00074859748
-4.6555859e-06
0.00075141535
-2.817875e-06
0.00075240086
-9.8550469e-07
0.00075156393
8.3693043e-07
0.00074891895
2.6449802e-06
0.00074448452
4.4344301e-06
0.00073828349
6.2010261e-06
0.00073034267
7.9408198e-06
0.00072069267
9.6499996e-06
0.00070936775
1.1324924e-05
0.00069640562
1.2962132e-05
0.00068184727
1.4558345e-05
0.0006657368
1.6110474e-05
0.00064812118
1.7615616e-05
0.00062905012
1.9071056e-05
0.00060857586
2.0474268e-05
0.00058675295
2.1822912e-05
0.00056363811
2.3114831e-05
0.00053929006
2.434805e-05
0.0005137693
2.5520764e-05
0.00048713796
2.6631341e-05
0.00045945965
2.7678307e-05
0.00043079931
2.8660346e-05
0.00040122302
2.9576284e-05
0.00037079794
3.0425086e-05
0.00033959209
3.1205847e-05
0.00030767431
3.1917776e-05
0.00027511412
3.2560195e-05
0.0002419816
3.3132522e-05
0.00020834733
3.363427e-05
0.0001742823
3.4065031e-05
0.00013985782
3.4424471e-05
0.0001051455
3.4712326e-05
7.0217109e-05
3.4928389e-05
3.5144597e-05
3.5072512e-05
3.5144597e-05
-3.5163071e-05
7.0307669e-05
-7.0254156e-05
7.0163597e-05
-0.00010520131
6.9875547e-05
-0.0001399327
6.944371e-05
-0.00017437661
6.8868379e-05
-0.00020846153
6.8149956e-05
-0.00024211623
6.7288965e-05
-0.00027526976
6.6286061e-05
-0.00030785162
6.5142047e-05
-0.00033979173
6.385789e-05
-0.00037102062
6.2434736e-05
-0.00040146946
6.0873929e-05
-0.00043107021
5.9177034e-05
-0.00045975572
5.7345849e-05
-0.00048745984
5.5382429e-05
-0.0005141176
5.3289104e-05
-0.00053966533
5.1068495e-05
-0.00056404082
4.8723534e-05
-0.00058718346
4.6257473e-05
-0.00060903445
4.3673907e-05
-0.00062953696
4.0976777e-05
-0.00064863629
3.8170385e-05
-0.00066628008
3.5259401e-05
-0.00068241847
3.224887e-05
-0.00069700434
2.914421e-05
-0.00070999343
2.5951222e-05
-0.00072134458
2.2676081e-05
-0.00073101992
1.9325337e-05
-0.00073898501
1.5905909e-05
-0.00074520906
1.2425075e-05
-0.00074966509
8.8904618e-06
-0.00075233014
5.3100282e-06
-0.00075318532
1.6921148e-06
-0.00075221613
-1.9547029e-06
-0.00074941246
-5.6215423e-06
-0.00074476881
-9.2992312e-06
-0.00073828439
-1.2978353e-05
-0.00072996323
-1.6649272e-05
-0.00071981427
-2.0302153e-05
-0.00070785146
-2.3926996e-05
-0.00069409384
-2.7513662e-05
-0.00067856556
-3.1051913e-05
-0.00066129594
-3.4531441e-05
-0.00064231948
-3.7941911e-05
-0.00062167582
-4.1273e-05
-0.0005994098
-4.4514439e-05
-0.00057557129
-4.7656058e-05
-0.00055021524
-5.0687831e-05
-0.00052340149
-5.3599924e-05
-0.00049519471
-5.6382745e-05
-0.00046566423
-5.9026988e-05
-0.00043488386
-6.1523689e-05
-0.00040293173
-6.3864271e-05
-0.00036989004
-6.6040595e-05
-0.00033584483
-6.8045004e-05
-0.00030088572
-6.9870373e-05
-0.00026510561
-7.1510151e-05
-0.00022860038
-7.2958403e-05
-0.00019146855
-7.4209845e-05
-0.00015381097
-7.5259881e-05
-0.00011573042
-7.6104634e-05
-7.7331247e-05
-7.6740969e-05
-3.8718993e-05
-7.7166518e-05
2.7138641e-13
-7.737969e-05
3.8718993e-05
-7.737969e-05
7.7331247e-05
-7.7166518e-05
0.00011573042
-7.6740969e-05
0.00015381097
-7.6104634e-05
0.00019146855
-7.5259881e-05
0.00022860038
-7.4209845e-05
0.00026510561
-7.2958403e-05
0.00030088572
-7.1510151e-05
0.00033584483
-6.9870373e-05
0.00036989004
-6.8045004e-05
0.00040293173
-6.6040595e-05
0.00043488386
-6.3864271e-05
0.00046566423
-6.1523689e-05
0.00049519471
-5.9026988e-05
0.00052340149
-5.6382745e-05
0.00055021524
-5.3599924e-05
0.00057557129
-5.0687831e-05
0.0005994098
-4.7656058e-05
0.00062167583
-4.4514439e-05
0.00064231948
-4.1273e-05
0.00066129594
-3.7941911e-05
0.00067856556
-3.453144e-05
0.00069409384
-3.1051913e-05
0.00070785146
-2.7513662e-05
0.00071981427
-2.3926995e-05
0.00072996323
-2.0302153e-05
0.00073828439
-1.6649272e-05
0.00074476881
-1.2978353e-05
0.00074941246
-9.2992311e-06
0.00075221613
-5.6215423e-06
0.00075318532
-1.9547028e-06
0.00075233014
1.6921148e-06
0.00074966509
5.3100283e-06
0.00074520906
8.8904619e-06
0.00073898501
1.2425075e-05
0.00073101992
1.5905909e-05
0.00072134458
1.9325337e-05
0.00070999343
2.2676081e-05
0.00069700434
2.5951222e-05
0.00068241847
2.914421e-05
0.00066628008
3.224887e-05
0.00064863629
3.5259401e-05
0.00062953696
3.8170385e-05
0.00060903445
4.0976777e-05
0.00058718346
4.3673907e-05
0.00056404082
4.6257473e-05
0.00053966533
4.8723534e-05
0.0005141176
5.1068495e-05
0.00048745984
5.3289104e-05
0.00045975572
5.5382429e-05
0.00043107021
5.7345849e-05
0.00040146946
5.9177034e-05
0.00037102062
6.0873929e-05
0.00033979173
6.2434736e-05
0.00030785162
6.385789e-05
0.00027526976
6.5142047e-05
0.00024211623
6.6286061e-05
0.00020846153
6.7288965e-05
0.00017437661
6.8149956e-05
0.0001399327
6.8868379e-05
0.00010520131
6.944371e-05
7.0254156e-05
6.9875547e-05
3.5163071e-05
7.0163597e-05
7.0307669e-05
-3.5166282e-05
0.00010547395
-7.0260796e-05
0.00010525811
-0.00010521182
0.00010482657
-0.00013994771
0.0001041796
-0.00017439697
0.00010331764
-0.00020848827
0.00010224126
-0.00024215055
0.00010095125
-0.00027531304
9.9448548e-05
-0.00030790534
9.7734348e-05
-0.00033985752
9.5810068e-05
-0.00037110018
9.3677399e-05
-0.00040156458
9.1338327e-05
-0.00043118271
8.8795165e-05
-0.00045988744
8.605058e-05
-0.00048761263
8.3107621e-05
-0.00051429328
7.996975e-05
-0.00053986565
7.6640868e-05
-0.00056426746
7.3125339e-05
-0.000587438
6.9428014e-05
-0.00060931835
6.5554255e-05
-0.00062985152
6.1509946e-05
-0.00064898265
5.7301517e-05
-0.0006666592
5.293595e-05
-0.00068283112
4.8420788e-05
-0.00069745105
4.3764144e-05
-0.00071047453
3.8974699e-05
-0.00072186015
3.4061704e-05
-0.00073156978
2.9034969e-05
-0.00073956874
2.3904865e-05
-0.00074582597
1.8682301e-05
-0.00075031422
1.3378715e-05
-0.00075301025
8.0060567e-06
-0.00075389492
2.5767861e-06
-0.00075295342
-2.8961968e-06
-0.00075017541
-8.3995557e-06
-0.00074555511
-1.3919534e-05
-0.00073909146
-1.9441999e-05
-0.00073078825
-2.4952483e-05
-0.00072065419
-3.0436219e-05
-0.00070870299
-3.5878188e-05
-0.0006949535
-4.126316e-05
-0.00067942966
-4.6575751e-05
-0.00066216062
-5.1800473e-05
-0.00064318074
-5.6921792e-05
-0.00062252955
-6.1924188e-05
-0.00060025177
-6.679222e-05
-0.00057639724
-7.1510594e-05
-0.00055102084
-7.6064228e-05
-0.00052418244
-8.0438327e-05
-0.00049594673
-8.4618455e-05
-0.00046638311
-8.8590609e-05
-0.0004355655
-9.2341292e-05
-0.00040357218
-9.5857593e-05
-0.00037048552
-9.9127253e-05
-0.00033639178
-0.00010213874
-0.00030138083
-0.00010488133
-0.00026554584
-0.00010734514
-0.000228983
-0.00010952124
-0.00019179117
-0.00011140167
-0.00015407156
-0.00011297949
-0.00011592733
-0.00011424887
-7.7463222e-05
-0.00011520508
-3.8785192e-05
-0.00011584455
2.7294892e-13
-0.00011616488
3.8785193e-05
-0.00011616488
7.7463223e-05
-0.00011584455
0.00011592733
-0.00011520508
0.00015407156
-0.00011424887
0.00019179117
-0.00011297949
0.000228983
-0.00011140167
0.00026554584
-0.00010952124
0.00030138083
-0.00010734514
0.00033639178
-0.00010488133
0.00037048552
-0.00010213874
0.00040357218
-9.9127253e-05
0.0004355655
-9.5857593e-05
0.00046638311
-9.2341292e-05
0.00049594673
-8.8590609e-05
0.00052418244
-8.4618455e-05
0.00055102084
-8.0438327e-05
0.00057639724
-7.6064228e-05
0.00060025177
-7.1510594e-05
0.00062252956
-6.679222e-05
0.00064318074
-6.1924188e-05
0.00066216062
-5.6921792e-05
0.00067942966
-5.1800473e-05
0.0006949535
-4.6575751e-05
0.00070870299
-4.126316e-05
0.00072065419
-3.5878188e-05
0.00073078825
-3.0436219e-05
0.00073909146
-2.4952483e-05
0.00074555511
-1.9441999e-05
0.00075017541
-1.3919534e-05
0.00075295342
-8.3995556e-06
0.00075389492
-2.8961967e-06
0.00075301025
2.5767862e-06
0.00075031422
8.0060568e-06
0.00074582597
1.3378715e-05
0.00073956874
1.8682301e-05
0.00073156978
2.3904865e-05
0.00072186015
2.903497e-05
0.00071047453
3.4061704e-05
0.00069745105
3.89747e-05
0.00068283112
4.3764144e-05
0.0006666592
4.8420788e-05
0.00064898265
5.293595e-05
0.00062985152
5.7301517e-05
0.00060931835
6.1509946e-05
0.000587438
6.5554255e-05
0.00056426746
6.9428015e-05
0.00053986565
7.3125339e-05
0.00051429328
7.6640868e-05
0.00048761263
7.996975e-05
0.00045988744
8.3107621e-05
0.00043118271
8.605058e-05
0.00040156458
8.8795165e-05
0.00037110018
9.1338327e-05
0.00033985752
9.3677399e-05
0.00030790534
9.5810068e-05
0.00027531304
9.7734348e-05
0.00024215055
9.9448548e-05
0.00020848827
0.00010095125
0.00017439696
0.00010224126
0.00013994771
0.00010331764
0.00010521182
0.0001041796
7.0260795e-05
0.00010482657
3.5166281e-05
0.00010525811
0.00010547395
-3.5154519e-05
0.00014062847
-7.0237609e-05
0.0001403412
-0.00010517788
0.00013976684
-0.00013990402
0.00013890574
-0.00017434484
0.00013775846
-0.00020842932
0.00013632574
-0.00024208666
0.00013460859
-0.00027524634
0.00013260823
-0.0003078382
0.00013032621
-0.00033979249
0.00012776436
-0.00037103999
0.0001249249
-0.00040151207
0.00012181041
-0.00043114084
0.00011842393
-0.00045985921
0.00011476895
-0.00048760107
0.00011084948
-0.0005143014
0.00010667008
-0.00053989643
0.0001022359
-0.00056432378
9.7552692e-05
-0.00058752265
9.2626878e-05
-0.00060943394
8.7465553e-05
-0.00063000052
8.2076517e-05
-0.00064916729
7.6468297e-05
-0.0006668815
7.065016e-05
-0.00068309284
6.4632126e-05
-0.00069775368
5.8424978e-05
-0.00071081924
5.2040259e-05
-0.00072224781
4.5490276e-05
-0.00073200093
3.8788089e-05
-0.00074004356
3.1947501e-05
-0.00074634431
2.4983047e-05
-0.00075087556
1.7909966e-05
-0.00075361369
1.0744186e-05
-0.0007545392
3.5022995e-06
-0.00075363692
-3.7984857e-06
-0.0007508961
-1.1140375e-05
-0.00074631061
-1.850502e-05
-0.00073987904
-2.5873566e-05
-0.00073160482
-3.3226705e-05
-0.00072149632
-4.0544723e-05
-0.00070956694
-4.7807566e-05
-0.0006958352
-5.4994895e-05
-0.0006803248
-6.2086157e-05
-0.00066306462
-6.9060655e-05
-0.00064408878
-7.5897628e-05
-0.00062343664
-8.2576325e-05
-0.00060115276
-8.90761e-05
-0.00057728687
-9.5376491e-05
-0.00055189377
-0.00010145732
-0.00052503331
-0.00010729879
-0.0004967702
-0.00011288157
-0.0004671739
-0.00011818691
-0.00043631846
-0.00012319674
-0.00040428229
-0.00012789376
-0.00037114801
-0.00013226154
-0.00033700211
-0.00013628464
-0.00030193476
-0.00013994867
-0.00026603951
-0.0001432404
-0.00022941292
-0.00014614783
-0.00019215428
-0.0001486603
-0.00015436526
-0.00015076852
-0.00011614948
-0.00015246464
-7.7612228e-05
-0.00015374233
-3.8859968e-05
-0.00015459681
2.7522226e-13
-0.00015502485
3.8859968e-05
-0.00015502485
7.7612229e-05
-0.00015459681
0.00011614948
-0.00015374233
0.00015436526
-0.00015246464
0.00019215428
-0.00015076852
0.00022941292
-0.0001486603
0.00026603951
-0.00014614783
0.00030193477
-0.0001432404
0.00033700211
-0.00013994867
0.00037114801
-0.00013628464
0.00040428229
-0.00013226154
0.00043631846
-0.00012789376
0.0004671739
-0.00012319674
0.0004967702
-0.00011818691
0.00052503331
-0.00011288157
0.00055189378
-0.00010729879
0.00057728687
-0.00010145732
0.00060115276
-9.5376491e-05
0.00062343664
-8.90761e-05
0.00064408878
-8.2576325e-05
0.00066306462
-7.5897627e-05
0.0006803248
-6.9060655e-05
0.0006958352
-6.2086157e-05
0.00070956694
-5.4994895e-05
0.00072149632
-4.7807566e-05
0.00073160482
-4.0544723e-05
0.00073987904
-3.3226705e-05
0.00074631061
-2.5873566e-05
0.0007508961
-1.850502e-05
0.00075363692
-1.1140375e-05
0.0007545392
-3.7984855e-06
0.00075361369
3.5022997e-06
0.00075087556
1.0744186e-05
0.00074634431
1.7909966e-05
0.00074004356
2.4983047e-05
0.00073200093
3.1947502e-05
0.00072224781
3.8788089e-05
0.00071081924
4.5490276e-05
0.00069775368
5.2040259e-05
0.00068309284
5.8424978e-05
0.0006668815
6.4632126e-05
0.00064916729
7.065016e-05
0.00063000051
7.6468297e-05
0.00060943394
8.2076517e-05
0.00058752265
8.7465553e-05
0.00056432378
9.2626878e-05
0.00053989643
9.7552692e-05
0.0005143014
0.0001022359
0.00048760107
0.00010667008
0.0004598592
0.00011084948
0.00043114084
0.00011476895
0.00040151207
0.00011842393
0.00037103999
0.00012181041
0.00033979249
0.0001249249
0.0003078382
0.00012776436
0.00027524634
0.00013032621
0.00024208666
0.00013260823
0.00020842932
0.00013460859
0.00017434484
0.00013632574
0.00013990402
0.00013775846
0.00010517788
0.00013890574
7.0237608e-05
0.00013976684
3.5154518e-05
0.0001403412
0.00014062847
-3.5126252e-05
0.00017575472
-7.0181541e-05
0.00017539649
-0.00010509494
0.00017468023
-0.00013979557
0.00017360638
-0.0001742127
0.00017217558
-0.00020827569
0.00017038874
-0.00024191414
0.00016824704
-0.00027505789
0.00016575197
-0.00030763707
0.00016290539
-0.00033958223
0.00015970952
-0.00037082438
0.00015616704
-0.00040129509
0.00015228112
-0.0004309266
0.00014805544
-0.00045965193
0.00014349428
-0.00048740503
0.00013860258
-0.00051412089
0.00013338594
-0.0005397357
0.0001278507
-0.00056418699
0.00012200398
-0.00058741383
0.00011585372
-0.00060935697
0.00010940869
-0.00062995904
0.00010267859
-0.00064916474
9.5673996e-05
-0.00066692101
8.8406425e-05
-0.00068317723
8.0888344e-05
-0.00069788542
7.3133175e-05
-0.00071100046
6.5155298e-05
-0.00072248024
5.6970053e-05
-0.00073228588
4.8593726e-05
-0.00074038191
4.004354e-05
-0.0007467365
3.1337635e-05
-0.00075132158
2.2495041e-05
-0.00075411305
1.3535654e-05
-0.00075509094
4.4801974e-06
-0.00075423961
-4.6498192e-06
-0.00075154784
-1.3832145e-05
-0.00074700902
-2.3043835e-05
-0.00074062128
-3.2261306e-05
-0.00073238759
-4.1460395e-05
-0.00072231589
-5.0616432e-05
-0.00071041915
-5.9704306e-05
-0.0006967155
-6.8698545e-05
-0.00068122825
-7.7573402e-05
-0.00066398597
-8.630294e-05
-0.00064502246
-9.4861131e-05
-0.00062437683
-0.00010322196
-0.00060209342
-0.00011135951
-0.00057822177
-0.00011924813
-0.00055281661
-0.00012686248
-0.00052593769
-0.00013417771
-0.00049764973
-0.00014116952
-0.00046802226
-0.00014781438
-0.00043712943
-0.00015408957
-0.00040504984
-0.00015997334
-0.00037186635
-0.00016544504
-0.00033766576
-0.00017048523
-0.00030253859
-0.00017507583
-0.00026657881
-0.00017920019
-0.00022988343
-0.0001828432
-0.00019255229
-0.00018599145
-0.00015468757
-0.00018863323
-0.00011639352
-0.00019075869
-7.7776025e-05
-0.00019235983
-3.8942199e-05
-0.00019343063
2.779797e-13
-0.00019396705
3.8942199e-05
-0.00019396705
7.7776025e-05
-0.00019343063
0.00011639352
-0.00019235983
0.00015468757
-0.00019075869
0.00019255229
-0.00018863323
0.00022988344
-0.00018599145
0.00026657881
-0.0001828432
0.00030253859
-0.00017920019
0.00033766576
-0.00017507583
0.00037186635
-0.00017048523
0.00040504985
-0.00016544504
0.00043712943
-0.00015997334
0.00046802226
-0.00015408957
0.00049764974
-0.00014781438
0.00052593769
-0.00014116952
0.00055281661
-0.00013417771
0.00057822177
-0.00012686248
0.00060209342
-0.00011924813
0.00062437683
-0.00011135951
0.00064502246
-0.00010322196
0.00066398597
-9.486113e-05
0.00068122825
-8.630294e-05
0.0006967155
-7.7573402e-05
0.00071041915
-6.8698545e-05
0.00072231589
-5.9704306e-05
0.00073238759
-5.0616432e-05
0.00074062129
-4.1460395e-05
0.00074700902
-3.2261305e-05
0.00075154784
-2.3043835e-05
0.00075423961
-1.3832145e-05
0.00075509094
-4.649819e-06
0.00075411305
4.4801976e-06
0.00075132158
1.3535654e-05
0.0007467365
2.2495041e-05
0.00074038191
3.1337635e-05
0.00073228588
4.004354e-05
0.00072248024
4.8593726e-05
0.00071100046
5.6970053e-05
0.00069788542
6.5155298e-05
0.00068317723
7.3133175e-05
0.00066692101
8.0888344e-05
0.00064916474
8.8406425e-05
0.00062995904
9.5673997e-05
0.00060935697
0.00010267859
0.00058741383
0.00010940869
0.00056418699
0.00011585372
0.0005397357
0.00012200398
0.00051412089
0.0001278507
0.00048740503
0.00013338594
0.00045965193
0.00013860258
0.00043092659
0.00014349428
0.00040129509
0.00014805544
0.00037082438
0.00015228112
0.00033958223
0.00015616704
0.00030763707
0.00015970952
0.00027505789
0.00016290539
0.00024191414
0.00016575197
0.00020827569
0.00016824704
0.0001742127
0.00017038874
0.00013979557
0.00017217558
0.00010509494
0.00017360638
7.018154e-05
0.00017468023
3.5126252e-05
0.00017539649
0.00017575472
-3.5078118e-05
0.00021083284
-7.0085874e-05
0.00021040425
-0.00010495293
0.00020954729
-0.00013960901
0.00020826246
-0.00017398391
0.00020655048
-0.00020800755
0.00020441238
-0.00024161002
0.0002018495
-0.00027472161
0.00019886356
-0.00030727288
0.00019545666
-0.00033919474
0.00019163139
-0.00037041853
0.00018739083
-0.00040087606
0.00018273865
-0.00043049979
0.00017767917
-0.0004592229
0.0001722174
-0.00048697942
0.0001663591
-0.00051370438
0.0001601109
-0.00053933392
0.00015348025
-0.00056380552
0.00014647558
-0.0005870581
0.0001391063
-0.00060903223
0.00013138283
-0.00062967031
0.00012331667
-0.00064891674
0.00011492043
-0.00066671815
0.00010620783
-0.00068302354
9.7193738e-05
-0.00069778455
8.7894184e-05
-0.0007109556
7.8326351e-05
-0.00072249413
6.850858e-05
-0.00073236076
5.8460358e-05
-0.00074051952
4.8202305e-05
-0.00074693804
3.7756146e-05
-0.00075158768
2.7144685e-05
-0.0007544438
1.6391773e-05
-0.00075548586
5.5222576e-06
-0.00075469762
-5.4380562e-06
-0.0007520673
-1.6462465e-05
-0.00074758771
-2.7523425e-05
-0.0007412564
-3.8592614e-05
-0.00073307579
-4.9641009e-05
-0.00072305326
-6.0638963e-05
-0.00071120127
-7.1556291e-05
-0.00069753746
-8.2362361e-05
-0.00068208466
-9.3026198e-05
-0.00066487101
-0.00010351659
-0.00064592994
-0.0001138022
-0.0006253002
-0.0001238517
-0.00060302585
-0.00013363387
-0.00057915621
-0.00014311777
-0.00055374584
-0.00015227286
-0.00052685439
-0.00016106916
-0.00049854654
-0.00016947736
-0.00046889188
-0.00017746905
-0.00043796466
-0.00018501678
-0.0004058437
-0.0001920943
-0.00037261209
-0.00019867665
-0.00033835699
-0.00020474034
-0.00030316933
-0.00021026349
-0.00026714353
-0.00021522598
-0.00023037718
-0.00021960955
-0.00019297067
-0.00022339795
-0.00015502687
-0.00022657703
-0.00011665071
-0.00022913485
-7.7948779e-05
-0.00023106176
-3.9028967e-05
-0.00023235045
2.8142136e-13
-0.00023299602
3.9028967e-05
-0.00023299602
7.7948779e-05
-0.00023235045
0.00011665071
-0.00023106176
0.00015502688
-0.00022913485
0.00019297068
-0.00022657703
0.00023037718
-0.00022339795
0.00026714353
-0.00021960955
0.00030316933
-0.00021522598
0.00033835699
-0.00021026349
0.00037261209
-0.00020474034
0.0004058437
-0.00019867665
0.00043796467
-0.0001920943
0.00046889188
-0.00018501678
0.00049854655
-0.00017746905
0.00052685439
-0.00016947736
0.00055374584
-0.00016106916
0.00057915621
-0.00015227286
0.00060302585
-0.00014311777
0.0006253002
-0.00013363387
0.00064592994
-0.0001238517
0.00066487101
-0.0001138022
0.00068208466
-0.00010351659
0.00069753746
-9.3026198e-05
0.00071120127
-8.2362361e-05
0.00072305326
-7.1556291e-05
0.00073307579
-6.0638963e-05
0.0007412564
-4.9641009e-05
0.00074758771
-3.8592614e-05
0.0007520673
-2.7523424e-05
0.00075469762
-1.6462465e-05
0.00075548586
-5.438056e-06
0.0007544438
5.5222578e-06
0.00075158768
1.6391773e-05
0.00074693804
2.7144686e-05
0.00074051952
3.7756146e-05
0.00073236076
4.8202305e-05
0.00072249413
5.8460358e-05
0.0007109556
6.850858e-05
0.00069778455
7.8326351e-05
0.00068302354
8.7894184e-05
0.00066671815
9.7193738e-05
0.00064891674
0.00010620783
0.00062967031
0.00011492043
0.00060903223
0.00012331667
0.0005870581
0.00013138283
0.00056380552
0.0001391063
0.00053933392
0.00014647558
0.00051370438
0.00015348025
0.00048697942
0.0001601109
0.0004592229
0.0001663591
0.00043049979
0.0001722174
0.00040087606
0.00017767917
0.00037041852
0.00018273865
0.00033919474
0.00018739083
0.00030727288
0.00019163139
0.00027472161
0.00019545666
0.00024161002
0.00019886356
0.00020800755
0.0002018495
0.00017398391
0.00020441238
0.00013960901
0.00020655048
0.00010495293
0.00020826246
7.0085873e-05
0.00020954729
3.5078117e-05
0.00021040425
0.00021083284
-3.5004963e-05
0.0002458378
-6.9940318e-05
0.0002453396
-0.00010473647
0.00024434345
-0.00013932387
0.00024284986
-0.00017363302
0.00024085963
-0.00020759451
0.00023837387
-0.00024113904
0.00023539404
-0.00027419751
0.00023192203
-0.000306701
0.00022796015
-0.00033858088
0.00022351127
-0.0003697689
0.00021857884
-0.00040019723
0.00021316698
-0.0004297986
0.00020728054
-0.00045850639
0.00020092519
-0.00048625477
0.00019410748
-0.00051297882
0.00018683495
-0.00053861471
0.00017911614
-0.00056309982
0.00017096069
-0.00058637294
0.00016237942
-0.00060837445
0.00015338434
-0.00062904649
0.0001439887
-0.00064833313
0.00013420708
-0.00066618065
0.00012405534
-0.00068253763
0.00011355072
-0.00069735526
0.00010271181
-0.00071058744
9.1558537e-05
-0.00072219109
8.0112224e-05
-0.00073212625
6.8395524e-05
-0.00074035637
5.6432421e-05
-0.00074684843
4.4248205e-05
-0.00075157317
3.1869431e-05
-0.00075450529
1.9323887e-05
-0.00075562356
6.6405356e-06
-0.00075491109
-6.1505338e-06
-0.00075235538
-1.901817e-05
-0.00074794858
-3.1930228e-05
-0.00074168755
-4.4853645e-05
-0.00073357403
-5.7754524e-05
-0.00072361477
-7.0598227e-05
-0.00071182159
-8.334947e-05
-0.00069821152
-9.5972436e-05
-0.00068280683
-0.00010843089
-0.00066563512
-0.0001206883
-0.00064672935
-0.00013270797
-0.00062612785
-0.0001444532
-0.0006038743
-0.00015588742
-0.00058001773
-0.00016697433
-0.00055461247
-0.00017767812
-0.00052771803
-0.0001879636
-0.00049939903
-0.00019779637
-0.00046972505
-0.00020714303
-0.00043877046
-0.00021597137
-0.00040661427
-0.0002242505
-0.00037333984
-0.00023195107
-0.00033903471
-0.00023904547
-0.00030379025
-0.00024550795
-0.00026770141
-0.00025131482
-0.00023086638
-0.00025644458
-0.00019338623
-0.0002608781
-0.00015536455
-0.00026459872
-0.00011690704
-0.00026759236
-7.8121148e-05
-0.00026984766
-3.9115597e-05
-0.000271356
2.8554042e-13
-0.00027211161
3.9115598e-05
-0.00027211161
7.8121149e-05
-0.000271356
0.00011690704
-0.00026984766
0.00015536455
-0.00026759236
0.00019338624
-0.00026459872
0.00023086638
-0.0002608781
0.00026770141
-0.00025644458
0.00030379025
-0.00025131482
0.00033903471
-0.00024550795
0.00037333985
-0.00023904547
0.00040661427
-0.00023195107
0.00043877046
-0.0002242505
0.00046972505
-0.00021597137
0.00049939903
-0.00020714303
0.00052771803
-0.00019779637
0.00055461247
-0.0001879636
0.00058001773
-0.00017767812
0.0006038743
-0.00016697433
0.00062612785
-0.00015588742
0.00064672935
-0.0001444532
0.00066563512
-0.00013270797
0.00068280683
-0.0001206883
0.00069821152
-0.00010843089
0.00071182159
-9.5972436e-05
0.00072361477
-8.334947e-05
0.00073357403
-7.0598226e-05
0.00074168755
-5.7754524e-05
0.00074794858
-4.4853644e-05
0.00075235538
-3.1930227e-05
0.00075491109
-1.9018169e-05
0.00075562356
-6.1505336e-06
0.00075450529
6.6405358e-06
0.00075157317
1.9323887e-05
0.00074684843
3.1869432e-05
0.00074035637
4.4248205e-05
0.00073212625
5.6432421e-05
0.00072219109
6.8395524e-05
0.00071058744
8.0112224e-05
0.00069735526
9.1558537e-05
0.00068253763
0.00010271181
0.00066618065
0.00011355072
0.00064833313
0.00012405534
0.00062904649
0.00013420708
0.00060837445
0.0001439887
0.00058637294
0.00015338434
0.00056309982
0.00016237942
0.00053861471
0.00017096069
0.00051297882
0.00017911614
0.00048625477
0.00018683495
0.00045850639
0.00019410748
0.0004297986
0.00020092519
0.00040019723
0.00020728054
0.0003697689
0.00021316698
0.00033858088
0.00021857884
0.000306701
0.00022351127
0.00027419751
0.00022796015
0.00024113904
0.00023192203
0.00020759451
0.00023539404
0.00017363302
0.00023837387
0.00013932387
0.00024085963
0.00010473647
0.00024284986
6.9940318e-05
0.00024434345
3.5004963e-05
0.0002453396
0.0002458378
-3.4899914e-05
0.00028073772
-6.9731143e-05
0.00028017083
-0.00010442501
0.00027903731
-0.00013891285
0.0002773377
-0.00017312603
0.00027507281
-0.00020699597
0.00027224381
-0.00024045416
0.00026885223
-0.00027343218
0.00026490005
-0.00030586181
0.00026038977
-0.00033767499
0.00025532446
-0.00036880399
0.00024970784
-0.00039918141
0.00024354441
-0.00042874035
0.00023683948
-0.00045741447
0.0002295993
-0.00048513811
0.00022183112
-0.00051184648
0.00021354332
-0.00053747577
0.00020474542
-0.00056196331
0.00019544823
-0.00058524777
0.00018566388
-0.00060726931
0.00017540588
-0.00062796979
0.00016468919
-0.00064729297
0.00015353026
-0.0006651847
0.00014194707
-0.00068159312
0.00012995915
-0.00069646889
0.00011758758
-0.00070976538
0.00010485502
-0.00072143887
9.1785716e-05
-0.00073144879
7.8405442e-05
-0.00073975789
6.4741519e-05
-0.00074633245
5.0822767e-05
-0.00075114249
3.6679469e-05
-0.00075416193
2.2343326e-05
-0.00075536879
7.8474002e-06
-0.00075474538
-6.7739468e-06
-0.00075227842
-2.1485124e-05
-0.00074795926
-3.6249389e-05
-0.00074178397
-5.1028934e-05
-0.00073375352
-6.5784981e-05
-0.00072387386
-8.0477883e-05
-0.00071215609
-9.5067238e-05
-0.00069861652
-0.00010951201
-0.00068327673
-0.00012377067
-0.0006661637
-0.00013780132
-0.0006473098
-0.00015156187
-0.00062675284
-0.00016501017
-0.00060453603
-0.00017810422
-0.00058070805
-0.00019080232
-0.00055532289
-0.00020306328
-0.00052843988
-0.00021484661
-0.0005001235
-0.00022611275
-0.00047044331
-0.00023682322
-0.00043947378
-0.0002469409
-0.00040729407
-0.00025643021
-0.00037398784
-0.0002652573
-0.00033964299
-0.00027339033
-0.00030435137
-0.00028079957
-0.0002682085
-0.00028745769
-0.00023131322
-0.00029333986
-0.00019376733
-0.00029842399
-0.00015567522
-0.00030269083
-0.00011714346
-0.00030612412
-7.8280395e-05
-0.00030871072
-3.9195715e-05
-0.00031044068
2.901199e-13
-0.00031130733
3.9195716e-05
-0.00031130733
7.8280396e-05
-0.00031044068
0.00011714346
-0.00030871072
0.00015567522
-0.00030612412
0.00019376733
-0.00030269083
0.00023131322
-0.00029842399
0.0002682085
-0.00029333986
0.00030435137
-0.00028745769
0.00033964299
-0.00028079957
0.00037398784
-0.00027339033
0.00040729407
-0.0002652573
0.00043947378
-0.00025643021
0.00047044331
-0.0002469409
0.0005001235
-0.00023682322
0.00052843988
-0.00022611275
0.00055532289
-0.00021484661
0.00058070805
-0.00020306328
0.00060453603
-0.00019080232
0.00062675284
-0.00017810422
0.00064730981
-0.00016501017
0.00066616371
-0.00015156187
0.00068327673
-0.00013780132
0.00069861652
-0.00012377067
0.00071215609
-0.00010951201
0.00072387386
-9.5067238e-05
0.00073375352
-8.0477882e-05
0.00074178397
-6.5784981e-05
0.00074795926
-5.1028934e-05
0.00075227842
-3.6249389e-05
0.00075474538
-2.1485124e-05
0.00075536879
-6.7739466e-06
0.00075416193
7.8474004e-06
0.00075114249
2.2343326e-05
0.00074633245
3.6679469e-05
0.00073975789
5.0822767e-05
0.00073144879
6.4741519e-05
0.00072143887
7.8405442e-05
0.00070976538
9.1785716e-05
0.00069646889
0.00010485502
0.00068159312
0.00011758758
0.0006651847
0.00012995915
0.00064729297
0.00014194707
0.00062796979
0.00015353026
0.00060726931
0.00016468919
0.00058524777
0.00017540588
0.00056196331
0.00018566388
0.00053747577
0.00019544823
0.00051184648
0.00020474542
0.00048513811
0.00021354332
0.00045741446
0.00022183112
0.00042874035
0.0002295993
0.00039918141
0.00023683948
0.00036880399
0.00024354441
0.00033767499