/*--------------------------------*- C++ -*----------------------------------*\
| =========                 |                                                 |
| \\      /  F ield         | OpenFOAM: The Open Source CFD Toolbox           |
|  \\    /   O peration     | Version:  2306                                  |
|   \\  /    A nd           | Website:  www.openfoam.com                      |
|    \\/     M anipulation  |                                                 |
\*---------------------------------------------------------------------------*/
FoamFile
{
    version     2.0;
    format      ascii;
    arch        "LSB;label=32;scalar=64";
    class       volVectorField;
    location    "0.33";
    object      U_0;
}
// * * * * * * * * * * * * * * * * * * * * * * * * * * * * * * * * * * * * * //

dimensions      [0 1 -1 0 0 0 0];

internalField   nonuniform List<vector> 
6400
(
(0.0057746851 -0.10021702 -5.9920856e-17)
(0.013164425 -0.099915069 -1.9954099e-16)
(0.021492004 -0.098241942 -4.1071164e-17)
(0.029297064 -0.095432039 1.1844e-16)
(0.03696582 -0.091415508 2.0976478e-17)
(0.044130761 -0.086277152 -3.9549763e-17)
(0.05070036 -0.080140344 -4.3573728e-17)
(0.056609757 -0.073120979 2.4345546e-18)
(0.061798816 -0.065328671 -3.7498365e-17)
(0.066213632 -0.05687024 -3.5414831e-17)
(0.069808261 -0.047853339 -2.1179936e-17)
(0.072545937 -0.038388452 -1.7516919e-17)
(0.074400693 -0.028589266 -8.5107542e-18)
(0.075358443 -0.01857159 6.1733681e-18)
(0.075417851 -0.0084520543 1.7363456e-17)
(0.074594027 0.0016562786 -3.3346729e-17)
(0.072917936 0.011640915 -1.6538625e-17)
(0.07041226 0.021402643 -1.243276e-17)
(0.067127152 0.030845841 -4.2371587e-18)
(0.063114242 0.03988539 2.1457229e-17)
(0.058430127 0.048445322 9.9516769e-18)
(0.053134882 0.056458807 6.9133127e-18)
(0.047290487 0.063867641 1.6648501e-17)
(0.040959811 0.070621229 8.4001251e-18)
(0.034206084 0.076675592 -1.5583986e-18)
(0.027093222 0.081991975 1.8476295e-17)
(0.019685339 0.086536823 3.4800144e-17)
(0.012046769 0.090280629 5.5064913e-17)
(0.0042408791 0.093195132 4.2881432e-17)
(-0.0036807251 0.095269538 1.8563557e-17)
(-0.011631687 0.096466042 1.0157966e-17)
(-0.019527098 0.096778776 9.8502414e-18)
(-0.027296496 0.09619915 2.8012445e-17)
(-0.034855246 0.094726706 2.6781285e-17)
(-0.042114744 0.092370759 2.462038e-17)
(-0.048983105 0.089152306 2.2125616e-17)
(-0.055366741 0.085106063 1.3858948e-17)
(-0.061172687 0.080282257 2.5830113e-17)
(-0.06631163 0.074747942 1.8577862e-17)
(-0.070701533 0.068587578 2.1348893e-17)
(-0.074271636 0.06190263 3.1781634e-17)
(-0.07696651 0.054809992 2.4913919e-17)
(-0.078749586 0.047439164 8.9890483e-18)
(-0.079605772 0.039928317 -2.0601683e-17)
(-0.079543414 0.032419661 -2.5428445e-17)
(-0.078595209 0.025054113 -1.4168493e-17)
(-0.076817584 0.017965681 -1.3087612e-17)
(-0.074288703 0.011275941 -9.2694034e-18)
(-0.07110557 0.0050897904 -4.6519226e-18)
(-0.06737423 -0.00050866784 -2.3097396e-17)
(-0.063211135 -0.0054533379 -1.4268039e-17)
(-0.058746533 -0.0097099836 -4.3209913e-18)
(-0.054098015 -0.013263254 -1.7275775e-17)
(-0.049380729 -0.016120489 -6.6947839e-18)
(-0.044700214 -0.018308561 -7.4687386e-18)
(-0.040149392 -0.019870855 -1.1863914e-17)
(-0.035806547 -0.020863846 -7.878452e-18)
(-0.031734121 -0.021353479 -5.5435901e-18)
(-0.027978343 -0.021411591 -2.7000944e-18)
(-0.024569658 -0.021112541 2.2059531e-19)
(-0.021523844 -0.020530308 -1.1938046e-18)
(-0.01884337 -0.019735894 -2.2589264e-18)
(-0.016518992 -0.018795078 -4.1731233e-18)
(-0.014531741 -0.017766675 -5.786065e-19)
(-0.012855126 -0.016701318 1.0668422e-19)
(-0.011457353 -0.015640773 -8.6011279e-19)
(-0.010303487 -0.014617725 -5.2471751e-19)
(-0.0093574539 -0.013656013 2.5308468e-19)
(-0.0085837869 -0.012771211 4.5045149e-20)
(-0.0079490825 -0.011971501 -4.1899863e-19)
(-0.0074231824 -0.011258863 -9.1914064e-19)
(-0.006979967 -0.010630414 -1.1104989e-18)
(-0.0065977351 -0.010079769 2.7456601e-19)
(-0.0062592311 -0.009598331 1.6534645e-19)
(-0.0059513906 -0.0091764111 2.047124e-19)
(-0.0056648836 -0.008804158 -2.9277529e-19)
(-0.005393528 -0.008472258 -4.8069416e-19)
(-0.0051336497 -0.0081724343 2.1169739e-19)
(-0.0048834427 -0.0078977346 1.8097649e-19)
(-0.0046423662 -0.007642623 -6.293645e-21)
(0.0066801358 -0.11835059 -3.6516355e-17)
(0.015235195 -0.11800659 -3.2547293e-16)
(0.024844646 -0.11603386 -1.1464774e-16)
(0.033805906 -0.11274579 -1.214838e-16)
(0.042572624 -0.10807498 -1.1613941e-16)
(0.050729642 -0.10214013 3.5252146e-17)
(0.058188724 -0.095092287 -6.9869461e-17)
(0.064888792 -0.087065273 -1.0580762e-17)
(0.070770482 -0.078180606 2.9910287e-17)
(0.075776812 -0.068554491 -8.802614e-18)
(0.079856417 -0.058304689 1.3998268e-17)
(0.082966551 -0.047553961 -3.1229633e-17)
(0.085076542 -0.036430745 -3.5124332e-17)
(0.086170271 -0.025067495 -1.5424162e-17)
(0.086247373 -0.013597012 -2.0014525e-17)
(0.085321246 -0.0021498585 2.4279519e-18)
(0.083434034 0.0091435279 5.4562982e-18)
(0.080618089 0.02017299 -8.4481309e-18)
(0.076928747 0.030830513 -4.7655022e-18)
(0.072429221 0.041021936 -1.2704423e-17)
(0.067186199 0.050664765 6.9994562e-18)
(0.061269311 0.059687691 2.5977228e-18)
(0.054749145 0.068029654 1.3975975e-17)
(0.047696026 0.075638464 -4.7185903e-19)
(0.040179368 0.082469256 -1.2433596e-18)
(0.032268031 0.088482835 1.371766e-17)
(0.024030674 0.093644357 2.1589067e-17)
(0.015534688 0.09792272 3.8476983e-17)
(0.0068480513 0.101289 2.5826842e-17)
(-0.00197995 0.10371886 1.0120643e-17)
(-0.010853163 0.10518596 5.6888136e-18)
(-0.019685334 0.10566931 3.2228948e-18)
(-0.028397225 0.105155 2.0997175e-17)
(-0.036895533 0.10363671 2.435314e-17)
(-0.04508067 0.10111816 1.987348e-17)
(-0.052847331 0.097615948 4.7656971e-18)
(-0.060086225 0.093162431 -1.5079698e-18)
(-0.066686787 0.087808419 1.2295222e-17)
(-0.072540867 0.081625285 1.3463631e-17)
(-0.077547303 0.074706218 1.2700114e-17)
(-0.081617147 0.067166223 1.1565564e-17)
(-0.084679099 0.05914056 1.2904401e-17)
(-0.086684423 0.050781466 2.705486e-17)
(-0.087610622 0.042253265 -2.0990018e-17)
(-0.087464205 0.033726497 -1.8668293e-17)
(-0.08628222 0.025371023 -2.4446218e-17)
(-0.084131713 0.017348623 -2.1602897e-17)
(-0.081106724 0.0098056289 -7.7450029e-18)
(-0.07732454 0.0028658947 -7.987795e-19)
(-0.072914196 -0.0033609254 -1.0472284e-17)
(-0.068020859 -0.0088112645 -1.5102242e-17)
(-0.062798626 -0.01344091 -7.3751384e-18)
(-0.057391224 -0.017236883 -1.5551881e-17)
(-0.051936303 -0.020213179 -1.3271669e-17)
(-0.046558935 -0.02240728 -1.0943506e-17)
(-0.041367989 -0.0238763 -1.3346837e-17)
(-0.036453746 -0.024692548 -9.7776485e-18)
(-0.031886639 -0.024938946 -3.0487112e-18)
(-0.027717055 -0.024704559 -5.9566708e-18)
(-0.023976174 -0.024080527 -5.2176858e-18)
(-0.020677506 -0.023156601 -1.5461884e-18)
(-0.017818628 -0.02201796 -1.9308353e-18)
(-0.015383258 -0.02074263 -3.3176537e-18)
(-0.013343816 -0.019399421 -2.3794401e-18)
(-0.011664214 -0.018046579 -2.686202e-18)
(-0.010302636 -0.016731102 -3.5338262e-19)
(-0.0092141956 -0.015488631 -8.734563e-19)
(-0.0083533667 -0.014343851 1.176198e-18)
(-0.0076760794 -0.013311276 2.8663194e-19)
(-0.0071415251 -0.012396489 -9.7054358e-19)
(-0.0067135902 -0.011597728 -5.3878141e-19)
(-0.006361737 -0.010907667 -4.2706809e-19)
(-0.0060613418 -0.010315213 5.4010311e-19)
(-0.005793573 -0.0098071446 -3.8989809e-19)
(-0.0055449213 -0.0093695101 -2.6412671e-19)
(-0.0053064912 -0.0089887209 1.0077353e-19)
(-0.0050731791 -0.0086524017 -2.999089e-19)
(-0.0048428005 -0.0083499576 4.2798883e-20)
(-0.00461521 -0.008072829 -1.736612e-19)
(-0.0043915055 -0.0078145003 -6.2796418e-19)
(0.0077702961 -0.13937489 1.460566e-16)
(0.017729176 -0.13897079 2.2294339e-16)
(0.028854067 -0.13658197 2.1735668e-16)
(0.039144095 -0.13266679 1.161216e-16)
(0.049145146 -0.12717176 -9.4006041e-18)
(0.058395137 -0.1202714 4.1042233e-18)
(0.066825408 -0.11215087 1.7126221e-17)
(0.074387733 -0.10295999 -2.9853529e-17)
(0.081027979 -0.092827184 -4.5490658e-18)
(0.086685859 -0.081872941 3.9477511e-17)
(0.091301719 -0.070222253 3.8113857e-17)
(0.094823375 -0.058010042 2.5216495e-17)
(0.097212149 -0.045381157 -1.4129025e-18)
(0.098447671 -0.032487601 8.415164e-18)
(0.098529398 -0.019483789 -4.6849825e-18)
(0.097475021 -0.0065214812 1.9478217e-17)
(0.09533067 0.0062540486 1.3412352e-17)
(0.092148721 0.018711788 1.1476704e-17)
(0.087988388 0.030732239 -5.4991703e-18)
(0.082927963 0.04221141 -1.9773228e-17)
(0.077046772 0.053060397 -9.3497775e-19)
(0.070426049 0.063204047 1.6958415e-17)
(0.063146579 0.072579589 -1.5278765e-17)
(0.055287155 0.081134739 -3.302811e-17)
(0.04692385 0.088825221 -2.2539518e-17)
(0.038130243 0.095612604 -1.0506603e-17)
(0.028978295 0.10146219 -8.157468e-18)
(0.019538028 0.1063409 -1.3660441e-17)
(0.0098808894 0.11021888 -2.5912825e-17)
(5.3854063e-05 0.11306704 -1.3154451e-17)
(-0.0098414855 0.11485516 -1.3552324e-17)
(-0.019716137 0.11555284 -2.6586247e-17)
(-0.02948377 0.11513861 -1.477877e-17)
(-0.039041829 0.11359748 -5.2738678e-18)
(-0.048278954 0.11092463 -3.5152048e-18)
(-0.057074721 0.1071293 -3.534706e-17)
(-0.065301476 0.10223876 -5.2257642e-17)
(-0.07282742 0.096302137 -2.6135391e-17)
(-0.079521052 0.089393696 -7.6281841e-18)
(-0.085256913 0.081615098 -1.6043043e-17)
(-0.089922402 0.073096098 1.7637508e-17)
(-0.093425083 0.063993175 3.0329698e-17)
(-0.095699539 0.054485797 2.4748073e-17)
(-0.096712585 0.044770325 -9.0098128e-18)
(-0.09646722 0.035052485 -2.7702536e-17)
(-0.095005083 0.025538467 -6.2148133e-18)
(-0.092406279 0.016425112 4.8697852e-18)
(-0.088786909 0.007890907 1.2179104e-17)
(-0.084283066 8.4275615e-05 1.0034524e-17)
(-0.079053411 -0.0068643396 -1.2436046e-18)
(-0.073288899 -0.012879468 1.768387e-17)
(-0.067166134 -0.017913691 1.9335468e-17)
(-0.060861428 -0.021957085 2.1370866e-18)
(-0.054540304 -0.025032749 -4.2806481e-18)
(-0.048351365 -0.027192294 -5.5998093e-19)
(-0.042422225 -0.028510611 6.1441026e-18)
(-0.036856845 -0.029080134 1.1453732e-17)
(-0.031734293 -0.029005025 7.3678145e-18)
(-0.027108897 -0.028395609 -1.9825072e-18)
(-0.02301168 -0.027363558 -1.0419191e-18)
(-0.019452352 -0.026017668 1.248658e-19)
(-0.016421594 -0.02446003 3.1974855e-18)
(-0.013893735 -0.022783125 -8.3975356e-19)
(-0.011829975 -0.021067323 -6.8764385e-20)
(-0.010181985 -0.019379411 6.0039016e-19)
(-0.0088953517 -0.017771982 5.3891569e-19)
(-0.007912819 -0.016283479 6.6229082e-19)
(-0.0071771957 -0.014938776 6.1375048e-19)
(-0.0066339242 -0.013750249 1.1308447e-18)
(-0.0062333372 -0.012719499 8.6390522e-19)
(-0.0059323853 -0.011839426 -5.6987942e-19)
(-0.0056956337 -0.011096613 -2.9960149e-19)
(-0.0054955028 -0.010473711 6.0442346e-19)
(-0.0053118953 -0.0099515164 -3.5386998e-19)
(-0.005131394 -0.0095106373 -2.8782691e-19)
(-0.0049462555 -0.0091328398 -2.8126462e-19)
(-0.0047532965 -0.008802108 3.4609305e-19)
(-0.0045526629 -0.0085052268 2.5845125e-19)
(-0.0043466302 -0.0082319616 -2.2815807e-19)
(-0.004138574 -0.0079749318 -4.537534e-19)
(0.0091175574 -0.16391065 1.4036828e-16)
(0.020811625 -0.16341099 3.3591519e-17)
(0.033750549 -0.16040179 -5.8086132e-17)
(0.045559528 -0.15562354 6.4232661e-17)
(0.056925979 -0.14905605 2.8847572e-17)
(0.067349805 -0.1409664 -8.0429811e-17)
(0.07681436 -0.13157728 -2.2846096e-17)
(0.085298869 -0.12104511 -6.7200006e-18)
(0.092760317 -0.10949257 5.6923558e-18)
(0.09913262 -0.097033666 8.3902262e-18)
(0.10434133 -0.083794906 -1.5463705e-17)
(0.10831819 -0.069922454 -8.6610187e-18)
(0.11101181 -0.055580411 -8.1110698e-18)
(0.11239419 -0.040944889 -5.9262701e-18)
(0.11246386 -0.026196504 2.5496818e-17)
(0.11124519 -0.011512225 1.1773721e-17)
(0.10878752 0.0029402411 3.1644926e-18)
(0.1051703 0.017007006 3.830302e-18)
(0.10045777 0.030556451 -1.9911399e-18)
(0.09474746 0.043473286 4.2368894e-18)
(0.088134764 0.055662553 -4.262971e-19)
(0.080715218 0.067046469 8.5762692e-18)
(0.072581805 0.077562365 4.5207633e-19)
(0.063822933 0.087159955 1.8415797e-17)
(0.054521591 0.095797801 2.944456e-17)
(0.044755822 0.10344006 3.5191227e-17)
(0.034599453 0.11005393 3.0443961e-17)
(0.024124175 0.11560636 3.4027422e-17)
(0.013402486 0.12006565 3.8148195e-17)
(0.0024799352 0.12339845 3.4820661e-17)
(-0.0085444612 0.12557152 2.5657499e-17)
(-0.01957589 0.12653865 1.3451906e-17)
(-0.030523042 0.12627118 1.0491567e-17)
(-0.041274717 0.1247419 9.1882598e-18)
(-0.051707224 0.12193355 1.5350155e-17)
(-0.061683269 0.11784395 -1.167778e-17)
(-0.071053827 0.11249138 -1.2664934e-17)
(-0.079661532 0.10591988 1.3624626e-18)
(-0.087345918 0.098204135 4.2143523e-18)
(-0.093950578 0.089453269 2.6500931e-17)
(-0.099332007 0.079812698 3.7412372e-17)
(-0.10336947 0.069463276 3.6555518e-17)
(-0.10597462 0.05861714 1.0640253e-17)
(-0.10709896 0.047510141 2.7798898e-17)
(-0.10673944 0.036392055 8.3143392e-18)
(-0.10494212 0.025514975 -1.0366061e-17)
(-0.10180181 0.0151199 -9.4244749e-18)
(-0.097461459 0.0054256057 -6.2935287e-18)
(-0.092087579 -0.0033813408 2.3149347e-18)
(-0.085877385 -0.011157208 1.1124271e-17)
(-0.079064342 -0.0178055 2.629414e-17)
(-0.071866266 -0.023276751 1.6078281e-17)
(-0.064497353 -0.027566623 4.4326903e-18)
(-0.057156705 -0.030711073 -6.8089689e-18)
(-0.050021063 -0.032780547 -1.1936791e-17)
(-0.04323995 -0.033872992 4.4087223e-18)
(-0.036932761 -0.034106426 1.3259792e-17)
(-0.031187651 -0.033611566 8.9331216e-18)
(-0.02606237 -0.03252493 -5.3388754e-18)
(-0.021586451 -0.030983278 -8.4734634e-18)
(-0.017763677 -0.029118365 -1.777052e-18)
(-0.014575251 -0.027052386 5.8316149e-18)
(-0.01198311 -0.024894874 5.5671394e-19)
(-0.0099339092 -0.022739536 -1.2070067e-18)
(-0.008363766 -0.020662647 -8.2390494e-19)
(-0.0072025064 -0.018722665 -1.7527371e-18)
(-0.0063775256 -0.016960508 3.1833625e-18)
(-0.0058172456 -0.015400269 1.9623679e-18)
(-0.0054543457 -0.014050692 -9.7234017e-19)
(-0.0052285584 -0.012907564 -1.0540871e-18)
(-0.0050887733 -0.01195633 1.4953266e-19)
(-0.0049942277 -0.011175327 6.2334711e-20)
(-0.0049145321 -0.01053899 -9.9592248e-20)
(-0.0048288373 -0.010020393 -5.8581992e-19)
(-0.0047246212 -0.0095932032 -6.2673043e-19)
(-0.0045963744 -0.0092335069 -5.2994971e-19)
(-0.004444018 -0.0089210206 4.321996e-19)
(-0.0042711539 -0.0086396406 6.0935748e-19)
(-0.0040834733 -0.0083774938 -1.3619578e-19)
(-0.0038874378 -0.0081266015 -5.8062826e-19)
(0.010850363 -0.19284198 3.6824705e-16)
(0.024768345 -0.19216954 5.0555374e-16)
(0.039908881 -0.18816128 -7.9619989e-17)
(0.053426069 -0.18212885 1.689128e-16)
(0.066253157 -0.17411445 1.2173904e-16)
(0.07787844 -0.16453578 -1.6231104e-17)
(0.088398429 -0.15364437 -1.6685848e-17)
(0.097840583 -0.14157717 1.3486959e-17)
(0.10617863 -0.1284238 7.6103294e-18)
(0.11333243 -0.11427129 4.0788095e-17)
(0.11919983 -0.099237984 4.5081595e-17)
(0.12368448 -0.083480153 3.3361599e-17)
(0.12671368 -0.067185692 4.2122085e-17)
(0.1282478 -0.0505621 1.809497e-17)
(0.12828352 -0.033823837 5.191785e-17)
(0.12685166 -0.017180553 5.959567e-17)
(0.12400987 -0.00082825042 8.7565821e-18)
(0.1198694 0.015052416 -4.696411e-18)
(0.11450553 0.030316412 -1.4566124e-17)
(0.10803774 0.044835732 2.6191968e-17)
(0.10058278 0.058510165 3.4913731e-17)
(0.092253981 0.071261319 2.201391e-18)
(0.083158983 0.083029329 3.9142542e-17)
(0.073397175 0.093768882 5.3411325e-17)
(0.063058614 0.10344457 7.4750939e-17)
(0.052225142 0.11202628 1.2887474e-16)
(0.04097128 0.11948552 1.0039277e-16)
(0.029367434 0.12579132 8.2515421e-17)
(0.01748447 0.1309096 9.2979338e-17)
(0.0053687562 0.13480237 7.6646448e-17)
(-0.0068981158 0.13743712 8.7023883e-17)
(-0.019208193 0.13874313 6.318035e-17)
(-0.031468543 0.13868488 2.593164e-17)
(-0.043561959 0.13721799 4.9427043e-17)
(-0.055352041 0.13430776 4.2877165e-17)
(-0.066682926 0.12993523 3.1211724e-17)
(-0.077380929 0.12410423 4.4949263e-17)
(-0.087258032 0.11684866 3.1223853e-17)
(-0.096117887 0.10823966 5.2974578e-17)
(-0.1037646 0.098391607 7.9667025e-17)
(-0.11001414 0.087465857 5.5566916e-17)
(-0.1147077 0.075670945 4.7290309e-17)
(-0.11772517 0.063258222 2.0447698e-17)
(-0.11899604 0.050512527 1.5719602e-17)
(-0.11850747 0.037739345 -8.8434142e-18)
(-0.11631007 0.025249381 -3.1157911e-18)
(-0.11251709 0.01334015 2.1179185e-19)
(-0.10730247 0.0022745752 3.5798719e-18)
(-0.10086806 -0.0076935048 9.1268837e-19)
(-0.093473006 -0.016414202 4.6395537e-18)
(-0.085397977 -0.023771081 2.1358658e-17)
(-0.076912385 -0.029710949 1.0877367e-17)
(-0.068277842 -0.034237769 1.6494587e-18)
(-0.059734607 -0.037405506 -4.88742e-18)
(-0.051493062 -0.039309742 -1.1296087e-17)
(-0.043728171 -0.040078352 -3.1959004e-18)
(-0.036576487 -0.039861871 7.0446603e-18)
(-0.03013536 -0.038824191 8.633598e-18)
(-0.024464955 -0.037134019 -1.7940332e-18)
(-0.019591425 -0.034958681 -3.5293047e-18)
(-0.015509739 -0.032457555 -2.3830568e-18)
(-0.012188264 -0.02977661 2.8776562e-18)
(-0.0095727878 -0.02704551 -7.0408675e-20)
(-0.0075911768 -0.024373377 4.8159118e-20)
(-0.0061598489 -0.021846834 3.69165e-19)
(-0.0051890077 -0.019530291 -3.7000367e-18)
(-0.0045870367 -0.017466593 -1.1518115e-18)
(-0.0042646031 -0.015677757 -4.0973217e-20)
(-0.0041388946 -0.014166721 1.6493688e-19)
(-0.0041369654 -0.012921108 -2.6238789e-19)
(-0.004198327 -0.011916169 -5.9725352e-19)
(-0.0042765689 -0.011119148 -6.6246938e-19)
(-0.0043388799 -0.010493785 -3.4854935e-19)
(-0.0043644307 -0.010003112 -1.8225809e-19)
(-0.0043428367 -0.0096120601 -2.0017115e-19)
(-0.0042724115 -0.0092898464 -2.5819079e-19)
(-0.0041577911 -0.0090112521 8.5248776e-21)
(-0.0040075374 -0.0087570986 3.8786808e-19)
(-0.003832051 -0.00851408 1.4077951e-19)
(-0.0036419007 -0.0082741275 -3.1873544e-19)
(0.013220123 -0.22752865 3.3917799e-16)
(0.030126976 -0.22649551 5.1970123e-16)
(0.047966604 -0.2207453 2.496019e-16)
(0.063324341 -0.2127874 1.7815987e-16)
(0.077602935 -0.20274941 3.0725459e-16)
(0.090341567 -0.19128152 7.5512575e-17)
(0.10185793 -0.17862046 -3.2327253e-17)
(0.11225147 -0.1648235 -1.4705974e-16)
(0.12151267 -0.1498931 -5.9720625e-17)
(0.12952531 -0.13385356 -1.0067229e-16)
(0.13613391 -0.11680097 -1.6694268e-16)
(0.14119347 -0.098902396 -7.6336117e-17)
(0.14459686 -0.080378076 -7.6694745e-17)
(0.14628662 -0.061478531 2.6187022e-18)
(0.14625679 -0.042463742 5.5121403e-18)
(0.14454854 -0.023586114 -1.9544487e-17)
(0.14123724 -0.005077909 -3.185369e-17)
(0.13645719 0.012851594 -4.6526131e-17)
(0.13031893 0.030037015 -1.2107446e-17)
(0.12296224 0.046339064 5.2824741e-17)
(0.11453246 0.061653695 7.0443305e-17)
(0.10516514 0.075904908 -5.0391019e-18)
(0.094985598 0.089039536 1.2150958e-17)
(0.084105849 0.10102159 4.5194401e-17)
(0.072623383 0.11182612 5.0985166e-17)
(0.060622635 0.12143303 1.119017e-16)
(0.048176112 0.12982167 8.6547499e-17)
(0.035349344 0.13696571 4.9607889e-17)
(0.022207036 0.1428308 6.9700902e-17)
(0.0088008678 0.14737335 4.0207828e-17)
(-0.0048229619 0.15055343 6.8092102e-17)
(-0.018539495 0.15228838 4.2187806e-17)
(-0.032255804 0.15252245 -2.1705637e-17)
(-0.045853688 0.15118954 1.6920179e-17)
(-0.059183959 0.14823161 1.4139883e-17)
(-0.072070892 0.14360582 3.8027916e-17)
(-0.08431274 0.13729403 4.3661356e-17)
(-0.095685019 0.12931278 8.6899032e-18)
(-0.10594707 0.11972348 4.2693184e-17)
(-0.11485261 0.10864167 5.2157589e-17)
(-0.12216437 0.09624372 1.9512451e-17)
(-0.12767201 0.08276909 3.9666559e-17)
(-0.13121128 0.068516149 6.5149424e-17)
(-0.1326799 0.053830896 -1.1806397e-18)
(-0.13204931 0.039090028 -4.0382509e-17)
(-0.12937386 0.024680142 -3.5883141e-17)
(-0.12479617 0.010974293 -1.021569e-17)
(-0.11850872 -0.001699861 2.9318107e-17)
(-0.11077461 -0.013038161 8.8995099e-18)
(-0.10194535 -0.022849079 -1.6588557e-17)
(-0.092344863 -0.030999915 4.7276496e-18)
(-0.082311983 -0.037437251 1.1339246e-17)
(-0.07216791 -0.04217881 2.1177014e-20)
(-0.062203237 -0.045303939 8.7667052e-18)
(-0.052668339 -0.046941893 1.1414674e-17)
(-0.043767383 -0.047259433 3.4157615e-18)
(-0.035655581 -0.046448394 8.1939224e-18)
(-0.028439033 -0.044714037 1.8076932e-17)
(-0.022178547 -0.042264507 3.9442381e-18)
(-0.016894231 -0.039304151 1.0407394e-18)
(-0.012568484 -0.036025486 3.8884059e-18)
(-0.009152501 -0.032602459 6.870202e-18)
(-0.006571221 -0.029188375 8.2849215e-18)
(-0.004728367 -0.025910745 2.6882614e-18)
(-0.003515375 -0.022866909 -3.0051348e-18)
(-0.0028182052 -0.020126982 -1.9479669e-18)
(-0.0025218614 -0.017734748 5.8744571e-19)
(-0.0025148934 -0.015708705 3.1070189e-18)
(-0.0026956451 -0.014042542 7.844677e-19)
(-0.0029762248 -0.012712937 -1.1462551e-18)
(-0.0032851743 -0.011681625 -8.9862591e-19)
(-0.003570238 -0.010900845 4.0163089e-19)
(-0.0037968597 -0.010320412 8.894947e-19)
(-0.0039454304 -0.0098903125 3.7753508e-19)
(-0.004009633 -0.0095646227 -1.4907986e-19)
(-0.0039938169 -0.0093042985 -1.7346205e-19)
(-0.0039095212 -0.009078516 3.7111161e-19)
(-0.003772265 -0.0088649808 9.8220779e-19)
(-0.0035988459 -0.0086494432 2.2278533e-19)
(-0.0034052175 -0.0084246158 -2.659344e-19)
(0.016752127 -0.27026034 4.5193943e-16)
(0.037909691 -0.26835988 4.7324276e-16)
(0.059031713 -0.25933248 5.6417148e-16)
(0.076155476 -0.24827397 2.2085897e-16)
(0.091629002 -0.23532259 2.1392795e-16)
(0.1051685 -0.22144852 1.275296e-16)
(0.11748748 -0.20674203 2.7673734e-16)
(0.12876841 -0.19105562 1.5103551e-16)
(0.13899847 -0.17420472 5.5505251e-17)
(0.14797387 -0.15609373 1.6997644e-16)
(0.15543795 -0.13678006 8.0009274e-17)
(0.16116407 -0.11644835 -1.2625849e-17)
(0.16499249 -0.095367922 -3.7173198e-17)
(0.16684137 -0.073851215 -2.9997785e-17)
(0.16670297 -0.052220453 2.1132981e-17)
(0.16463356 -0.030784281 -5.8673458e-17)
(0.16073535 -0.0098222479 3.0516218e-17)
(0.15517297 0.010422636 -5.7848085e-17)
(0.14810499 0.029759815 -1.1195608e-16)
(0.13969767 0.048040427 -7.9121418e-17)
(0.13013311 0.065159059 -1.5994352e-17)
(0.11957491 0.081046422 9.905376e-19)
(0.10816983 0.095661548 -9.5470508e-18)
(0.096044415 0.10898395 4.3555115e-17)
(0.083303609 0.12100533 4.3531398e-17)
(0.070032698 0.13172125 7.1036314e-17)
(0.056299319 0.14112356 1.0104335e-16)
(0.042159602 0.1491943 7.8321338e-17)
(0.027666275 0.15590163 9.0024491e-17)
(0.012865182 0.16119858 6.4259388e-17)
(-0.0022247671 0.16502709 8.3947901e-17)
(-0.017472601 0.16730208 7.9830484e-17)
(-0.032796892 0.16793637 4.099049e-17)
(-0.048076389 0.16683627 6.5640611e-17)
(-0.063151027 0.16391267 6.7326571e-17)
(-0.077825105 0.15908952 7.1848959e-17)
(-0.091865664 0.15231639 4.7593009e-17)
(-0.10500532 0.14358217 3.3631215e-17)
(-0.11694904 0.13292919 4.6384281e-17)
(-0.12738634 0.12046717 5.413744e-17)
(-0.13600977 0.1063845 5.5312759e-17)
(-0.142539 0.090954142 2.1010575e-17)
(-0.14674789 0.074530658 2.8990707e-17)
(-0.14848812 0.057536664 -3.5104117e-17)
(-0.14770659 0.040440098 -1.3676922e-17)
(-0.14445779 0.023726343 -3.4126688e-17)
(-0.13891556 0.0078689627 -5.3925936e-17)
(-0.13132187 -0.0067101189 -2.0534751e-17)
(-0.12201106 -0.019662787 1.9820498e-18)
(-0.11141873 -0.030731923 -3.5461284e-19)
(-0.09996273 -0.039769828 -4.7615781e-18)
(-0.088062741 -0.046726731 -1.357353e-17)
(-0.076113055 -0.051642015 -2.2644446e-17)
(-0.064465218 -0.054630727 5.4106519e-18)
(-0.05341664 -0.055867291 2.8658366e-17)
(-0.043204415 -0.055568989 -2.6017531e-18)
(-0.034003362 -0.053979983 -2.1629826e-17)
(-0.025927022 -0.051356973 3.7662019e-18)
(-0.019034002 -0.047956323 2.5726377e-18)
(-0.013334503 -0.044026705 1.4203725e-17)
(-0.0087935272 -0.039799475 9.030091e-18)
(-0.0053396396 -0.035483996 -5.3777962e-18)
(-0.002871923 -0.031257856 4.093054e-18)
(-0.0012627021 -0.02727283 3.0871968e-18)
(-0.00037094398 -0.023636549 2.7515985e-18)
(-5.3119586e-05 -0.020425821 3.661924e-18)
(-0.00016610181 -0.017682834 -1.4274835e-18)
(-0.00057046689 -0.015417601 2.92234e-18)
(-0.0011415641 -0.013611742 1.6917068e-18)
(-0.0017746366 -0.012227107 5.1868678e-19)
(-0.0023848757 -0.01121002 -1.6013466e-19)
(-0.0029139276 -0.010491009 1.816394e-19)
(-0.0033267908 -0.010001683 5.1106889e-19)
(-0.0036069587 -0.0096752973 7.1246608e-19)
(-0.0037550317 -0.009452453 6.5493436e-19)
(-0.00378444 -0.0092842513 6.2397276e-20)
(-0.003716584 -0.0091336357 -4.216342e-19)
(-0.0035766001 -0.0089754124 1.3257379e-19)
(-0.0033898873 -0.0087953446 2.9463385e-19)
(-0.0031793439 -0.0085883019 1.0458365e-18)
(0.022503477 -0.3251814 5.670903e-16)
(0.050049119 -0.32096163 1.368015e-15)
(0.07494918 -0.30546521 1.342741e-15)
(0.093215428 -0.28923222 8.7088086e-16)
(0.10912298 -0.2720262 3.6587214e-16)
(0.12276659 -0.25514025 6.0923138e-17)
(0.1355066 -0.23817747 -3.0326268e-17)
(0.14756187 -0.22055029 1.9435632e-16)
(0.15884555 -0.20171533 1.0999747e-16)
(0.16895709 -0.18137499 6.8673904e-17)
(0.17745495 -0.15953807 1.993258e-16)
(0.18398209 -0.13642975 7.2749148e-17)
(0.188305 -0.11240051 6.8288967e-17)
(0.1903138 -0.087854719 3.7398852e-17)
(0.19000477 -0.063201531 1.6493595e-17)
(0.18745906 -0.038824079 3.8804421e-17)
(0.18281771 -0.015061366 -3.8755082e-17)
(0.17628807 0.0078034527 -5.007706e-17)
(0.16809296 0.029549258 -4.8128225e-17)
(0.15843395 0.050019838 -1.5528168e-17)
(0.14753979 0.069112775 2.296946e-17)
(0.13560967 0.08677177 -8.5668761e-18)
(0.12281654 0.10297579 -2.9180664e-17)
(0.10930362 0.11772839 -1.6916643e-17)
(0.095182966 0.1310464 -3.2448809e-17)
(0.080537992 0.14294873 -4.025042e-17)
(0.06542703 0.15344625 -3.3360617e-17)
(0.049891021 0.1625341 -1.7552678e-17)
(0.033964433 0.17018624 -1.0134099e-17)
(0.01767624 0.1763526 1.3290874e-18)
(0.0010174609 0.18096129 -1.289481e-17)
(-0.015889457 0.18391248 -2.5561548e-18)
(-0.032975796 0.18508578 1.1822872e-17)
(-0.050125633 0.18435275 2.029639e-17)
(-0.067170363 0.18158297 2.4054088e-17)
(-0.083895454 0.17665509 -2.1856928e-17)
(-0.10003428 0.16947265 -9.3281138e-18)
(-0.11526979 0.15998239 2.2402741e-17)
(-0.12924079 0.14819375 2.4801106e-17)
(-0.14155541 0.13419917 5.1338173e-17)
(-0.15181369 0.11819255 9.0791459e-17)
(-0.1596398 0.10048135 7.0545597e-17)
(-0.16472042 0.081486751 5.8567518e-17)
(-0.16684069 0.061727929 1.7382813e-18)
(-0.16590961 0.041791455 -4.8759092e-17)
(-0.1619759 0.02229177 -7.4429344e-17)
(-0.15525365 0.0038195041 -5.3252869e-17)
(-0.14603968 -0.013036069 -1.4993341e-18)
(-0.13478333 -0.027881943 4.5056212e-18)
(-0.12202813 -0.040402766 -1.235477e-17)
(-0.1083072 -0.05042673 4.0243875e-18)
(-0.094146242 -0.057912694 -7.4058485e-18)
(-0.080031249 -0.062933192 -3.0911357e-17)
(-0.066387532 -0.065653496 2.2387925e-18)
(-0.053567151 -0.066308722 3.465808e-17)
(-0.041843362 -0.065181755 -1.6262533e-17)
(-0.031410473 -0.062582749 -1.877777e-17)
(-0.022386819 -0.058831862 3.6178054e-18)
(-0.014824302 -0.054244437 -2.263918e-18)
(-0.0087171683 -0.049123284 6.9859629e-18)
(-0.0040098539 -0.043738873 -1.2589766e-17)
(-0.00059822795 -0.03835424 -2.163616e-18)
(0.0016493768 -0.033171403 5.338216e-18)
(0.0028991018 -0.028361867 1.1891764e-18)
(0.0033356628 -0.024049383 -1.3298655e-18)
(0.0031384057 -0.020316455 -2.2171229e-18)
(0.0024884987 -0.017201941 4.5633456e-19)
(0.0015577124 -0.01470445 1.7652898e-18)
(0.00049589389 -0.012790883 2.5763906e-18)
(-0.00057364568 -0.011399619 -5.7214815e-19)
(-0.0015481036 -0.010453263 -1.4620327e-18)
(-0.0023607122 -0.0098587073 1.3488812e-18)
(-0.002979692 -0.0095223494 1.9210598e-19)
(-0.0033945035 -0.009355997 5.705693e-19)
(-0.0036166932 -0.0092834939 8.6758184e-20)
(-0.003672974 -0.0092442743 -7.0761742e-19)
(-0.0035986051 -0.0091945424 -1.99665e-19)
(-0.0034319174 -0.0091069064 9.0386959e-20)
(-0.0032097567 -0.0089687726 9.4882042e-20)
(-0.0029638113 -0.0087792694 5.4649847e-19)
(0.032210453 -0.39990716 -5.0217124e-16)
(0.069513166 -0.38945685 -9.9395196e-16)
(0.09818258 -0.36099361 1.1425413e-15)
(0.11590147 -0.3360104 8.2354172e-16)
(0.13065329 -0.31264102 5.9406461e-16)
(0.14317762 -0.29220025 -3.1431616e-16)
(0.15579851 -0.27300301 -2.4541959e-16)
(0.1685661 -0.25362494 -2.4377831e-16)
(0.1811502 -0.23289144 -2.5109281e-16)
(0.19274477 -0.21020383 -1.5486486e-16)
(0.20258815 -0.1855423 -1.164172e-16)
(0.21012911 -0.15923221 -6.7698529e-17)
(0.21504478 -0.13176479 -7.0186489e-17)
(0.21720628 -0.10368244 -1.3585439e-17)
(0.2166321 -0.075513872 -3.7384932e-17)
(0.21344788 -0.047738603 -3.1117998e-18)
(0.2078541 -0.020768422 -4.5046223e-17)
(0.20011571 0.0050637365 -4.7955157e-17)
(0.19053879 0.02950274 -1.1259056e-17)
(0.17937488 0.052388864 3.7115679e-18)
(0.16691143 0.073628949 -6.9957844e-17)
(0.1533923 0.093188628 -7.5544751e-17)
(0.13902248 0.11107748 -8.2006471e-17)
(0.12396425 0.12733465 -1.3976195e-16)
(0.10833585 0.1420135 -1.2656875e-16)
(0.092214972 0.15516674 -1.7320056e-16)
(0.075644511 0.16683326 -1.8375197e-16)
(0.058642535 0.17702824 -1.1239984e-16)
(0.041215079 0.18573491 -1.2832017e-16)
(0.023363748 0.19290101 -1.1774517e-16)
(0.0050504569 0.19844252 -1.8455542e-16)
(-0.013638496 0.20224109 -1.6204616e-16)
(-0.032639329 0.20413152 -8.5228596e-17)
(-0.051856307 0.20394572 -9.1563308e-17)
(-0.071117244 0.20149908 -8.9968724e-17)
(-0.09019212 0.19660982 -1.5612695e-16)
(-0.10877983 0.18911753 -1.0369406e-16)
(-0.12650722 0.17890683 -1.7585314e-18)
(-0.14293385 0.16593413 1.530396e-17)
(-0.15756533 0.1502566 4.0309588e-17)
(-0.16988001 0.13206125 6.1126e-17)
(-0.17937118 0.11168753 6.5817835e-17)
(-0.18560178 0.089634359 3.5558056e-17)
(-0.18825891 0.066543287 4.5841358e-17)
(-0.1871948 0.043157545 -3.2941902e-17)
(-0.18245949 0.020268789 -7.6537935e-17)
(-0.17426743 -0.0013607245 -7.7553253e-17)
(-0.16301767 -0.020985744 -4.4165076e-17)
(-0.14935643 -0.038088397 -2.4515848e-17)
(-0.13392888 -0.052290546 -2.1878128e-17)
(-0.11742867 -0.063402958 1.4107427e-17)
(-0.10051949 -0.071405865 6.1418206e-18)
(-0.083801844 -0.076423071 -1.9048227e-17)
(-0.067789432 -0.078690767 2.8742859e-18)
(-0.052896441 -0.078525706 9.2543029e-18)
(-0.039434137 -0.076295875 -1.7520533e-17)
(-0.027614254 -0.072394331 -5.8191871e-18)
(-0.017555541 -0.067218625 7.561384e-18)
(-0.0092978503 -0.061154406 -4.1829567e-18)
(-0.0028049442 -0.054567646 -4.5233578e-18)
(0.0019923701 -0.047793073 -1.8001223e-17)
(0.0052363511 -0.041130523 5.9637918e-19)
(0.0071282094 -0.034819184 -1.8498529e-19)
(0.0078662147 -0.029049059 1.4356279e-19)
(0.0076786966 -0.023965936 -1.3514017e-18)
(0.0067967034 -0.019656865 -7.7706683e-18)
(0.005447128 -0.016155695 -2.854605e-19)