/*--------------------------------*- C++ -*----------------------------------*\
| =========                 |                                                 |
| \\      /  F ield         | OpenFOAM: The Open Source CFD Toolbox           |
|  \\    /   O peration     | Version:  2106                                  |
|   \\  /    A nd           | Website:  www.openfoam.com                      |
|    \\/     M anipulation  |                                                 |
\*---------------------------------------------------------------------------*/
FoamFile
{
    version     2.0;
    format      ascii;
    arch        "LSB;label=32;scalar=64";
    class       surfaceScalarField;
    location    "0.048";
    object      phi;
}
// * * * * * * * * * * * * * * * * * * * * * * * * * * * * * * * * * * * * * //

dimensions      [0 3 -1 0 0 0 0];

oriented        oriented;

internalField   nonuniform List<scalar> 
1984
(
-0.00013754633
0.00013760896
-0.00026984919
0.00013230286
-0.00039174454
0.00012189535
-0.00049853674
0.0001067922
-0.00058611813
8.7581391e-05
-0.00065112741
6.5009281e-05
-0.00069107761
3.9950202e-05
-0.00070445146
1.3373844e-05
-0.00069075483
-1.3696625e-05
-0.00065053345
-4.0221377e-05
-0.00058534921
-6.518424e-05
-0.00049771766
-8.7631554e-05
-0.00039100984
-0.00010670782
-0.00026932233
-0.00012168751
-0.00013732048
-0.00013200184
-6.0795602e-08
-0.00013725969
0.00013720104
-0.00013726184
0.00026920928
-0.00013200824
0.00039090732
-0.00012169804
0.00049762957
-0.00010672224
0.00058527906
-8.764949e-05
0.0006504842
-6.520514e-05
0.0006907287
-4.0244507e-05
0.00070444978
-1.3721076e-05
0.00069110067
1.334911e-05
0.0006511744
3.9926272e-05
0.00058618719
6.4987205e-05
0.0004986251
8.7562098e-05
0.00039184864
0.00010677645
0.00026996492
0.00012188372
0.00013766919
0.00013229574
0.00013760656
-0.000142344
0.00028001808
-0.00027926088
0.00026921974
-0.00040540533
0.0002480398
-0.00051591745
0.00021730432
-0.00060654635
0.00017821029
-0.00067381407
0.000132277
-0.00071514873
8.1284862e-05
-0.00072898028
2.7205392e-05
-0.00071479898
-2.7877922e-05
-0.0006731709
-8.1849459e-05
-0.0006057131
-0.00013264204
-0.00051502913
-0.00017831552
-0.00040460747
-0.00021712949
-0.00027868702
-0.00024760795
-0.00014209498
-0.00026859388
-6.3039006e-08
-0.00027929163
0.0001419711
-0.00027929597
0.00027856968
-0.00026860683
0.0004045009
-0.00024762927
0.00051493739
-0.00021715873
0.00060563988
-0.00017835197
0.00067311935
-0.00013268461
0.0007147715
-8.1896663e-05
0.00072897832
-2.7927894e-05
0.00071517263
2.7154802e-05
0.00067386298
8.1235921e-05
0.0006066183
0.00013223189
0.00051600948
0.00017817092
0.0004055137
0.00021727223
0.00027938129
0.00024801613
0.00014247177
0.00026920526
0.0002800132
-0.00015022028
0.00043030832
-0.00029471311
0.00041371258
-0.00042783517
0.00038116186
-0.00054445717
0.00033392633
-0.00064009315
0.00027384627
-0.00071107355
0.00020325741
-0.00075468541
0.00012489671
-0.0007692736
4.1793581e-05
-0.00075430142
-4.2850098e-05
-0.00071036722
-0.00012578366
-0.00063917794
-0.00020383132
-0.00054348113
-0.00027401233
-0.0004269579
-0.00033365272
-0.00029408108
-0.00038048477
-0.00014994415
-0.00041273082
-6.7353695e-08
-0.00042916843
0.0001498117
-0.00042917502
0.00029395541
-0.00041275053
0.00042684346
-0.00038051732
0.00054338224
-0.00033369752
0.00063909865
-0.00027406838
0.00071031107
-0.00020389704
0.0007542712
-0.00012585679
0.00076927103
-4.2927722e-05
0.00075471094
4.1714892e-05
0.00071112625
0.00012482061
0.00064017078
0.00020318736
0.00054455642
0.00027378528
0.0004279519
0.00033387675
0.00029484263
0.00038112539
0.00015035759
0.0004136903
0.00043030083
-0.00016182166
0.00059220734
-0.00031747375
0.00056936467
-0.00046087375
0.00052456186
-0.00058649561
0.00045954819
-0.00068950729
0.00037685794
-0.0007659572
0.00027970732
-0.00081292484
0.00017186435
-0.0008286297
5.7498449e-05
-0.00081249541
-5.8984393e-05
-0.00076516719
-0.00017311188
-0.00068848361
-0.0002805149
-0.00058540371
-0.00037709224
-0.00045989193
-0.00045916449
-0.00031676568
-0.00052361103
-0.00016151102
-0.00056798547
-7.3893208e-08
-0.00059060556
0.00016136558
-0.0005906145
0.00031662729
-0.00056801224
0.00045976536
-0.00052365538
0.00058529369
-0.00045922585
0.00068839476
-0.00037716945
0.00076510371
-0.00028060599
0.00081246075
-0.00017321382
0.00082862608
-5.909306e-05
0.0008129529
5.7388071e-05
0.00076601587
0.00017175764
0.00068959386
0.00027960936
0.00058660613
0.00037677301
0.00046100342
0.00045947946
0.0003176173
0.00052451151
0.0001619736
0.00056933401
0.00059219706
-0.00017787824
0.00077017316
-0.00034897433
0.00074046076
-0.00050659755
0.00068218507
-0.00064467266
0.0005976233
-0.00075788895
0.00049007424
-0.00084190526
0.00036372362
-0.00089351491
0.000223474
-0.00091076466
7.4748199e-05
-0.00089302357
-7.6725474e-05
-0.00084100133
-0.00022513412
-0.00075671761
-0.00036479862
-0.00064342303
-0.00049038681
-0.00050547345
-0.00059711408
-0.00034816279
-0.00068092169
-0.00017752068
-0.00073862758
-8.2781655e-08
-0.00076804346
0.00017735753
-0.00076805481
0.00034800694
-0.00073866165
0.00050532999
-0.00068097844
0.00064329728
-0.00059719314
0.000756615
-0.00049048716
0.00084092711
-0.00036491811
0.00089298227
-0.00022526898
0.00091075934
-7.6870136e-05
0.00089354659
7.4600825e-05
0.00084197256
0.00022333167
0.00075798838
0.00036359354
0.00064479921
0.00048996217
0.00050674542
0.00059753326
0.0003491374
0.00068211953
0.00017805038
0.00074042104
0.00077015987
-0.00019974473
0.00097001871
-0.00039187102
0.00093258705
-0.00056885962
0.00085917367
-0.00072388714
0.00075265082
-0.00085099164
0.00061717874
-0.00094530292
0.0004580349
-0.0010032267
0.00028139782
-0.0010225767
9.4098136e-05
-0.0010026486
-9.6653559e-05
-0.00094423918
-0.00028354353
-0.00084961301
-0.00045942479
-0.00072241591
-0.00061758392
-0.00056753521
-0.00075199477
-0.00039091315
-0.00085754376
-0.00019931965
-0.00093022107
-9.4133144e-08
-0.00096726897
0.00019913379
-0.00096728273
0.00039073466
-0.00093026253
0.00056736949
-0.00085761326
0.00072226894
-0.00075209259
0.00084949138
-0.0006177096
0.00094414972
-0.00045957644
0.0010025976
-0.00028371684
0.0010225687
-9.6841244e-05
0.0010032634
9.3906109e-05
0.00094538232
0.00028121276
0.00085110889
0.00045786697
0.00072403555
0.00061703551
0.00056903185
0.00075253696
0.00039205981
0.00085909157
0.0001999432
0.00093253765
0.00097000224
-0.00023021696
0.0012003531
-0.00045164605
0.0011540162
-0.0006556139
0.0010631415
-0.00083425413
0.00093129105
-0.00098069817
0.00076362277
-0.001089341
0.00056667773
-0.0011560516
0.00034810845
-0.0011783223
0.00011636876
-0.0011553486
-0.00011962719
-0.0010880473
-0.00035084481
-0.00097902104
-0.00056845109
-0.00083246328
-0.00076414168
-0.00065399974
-0.00093045831
-0.00045047505
-0.0010610684
-0.00022969096
-0.0011510052
-1.0804451e-07
-0.0011968519
0.00022947714
-0.0011968679
0.00045026826
-0.0011510536
0.00065380552
-0.0010611505
0.00083228832
-0.00093057539
0.00097887345
-0.00076429473
0.0010879363
-0.00056863931
0.0011552834
-0.00035106391
0.00117831
-0.00011986787
0.0011560952
0.00011612093
0.0010894374
0.00034787056
0.00098083997
0.00056646438
0.00083443186
0.00076344361
0.00065581794
0.00093115089
0.00045186767
0.0010630418
0.00023044855
0.0011539568
0.0012003334
-0.00027446001
0.0014749507
-0.00053842818
0.0014179843
-0.00078155806
0.0013062714
-0.0009944685
0.0011442015
-0.0011689754
0.00093812968
-0.0012984096
0.00069611192
-0.0013778646
0.0004275635
-0.001404371
0.00014287512
-0.0013769817
-0.00014701649
-0.0012967845
-0.00043104207
-0.0011668676
-0.00069836791
-0.00099221591
-0.0009387934
-0.00077952416
-0.0011431501
-0.00053694641
-0.0013036462
-0.00027378318
-0.0014141684
-1.2457638e-07
-0.0014705105
0.00027353591
-0.0014705284
0.00053670512
-0.0014142229
0.00077929414
-0.0013037395
0.00099200441
-0.0011432857
0.0011666846
-0.00093897492
0.0012966426
-0.0006985973
0.0013768951
-0.00043131644
0.0014043518
-0.00014732458
0.0013779181
0.00014255467
0.0012985304
0.00042725824
0.0011691514
0.00069584335
0.00099468554
0.00093790951
0.00078180315
0.0011440333
0.00053869085
0.0013061541
0.00027473218
0.0014179154
0.001474928
-0.00034054553
0.0018156577
-0.00066804736
0.0017454861
-0.00096966633
0.0016078904
-0.0012337584
0.0014082936
-0.0014501745
0.0011545458
-0.0016106574
0.00085659479
-0.0017091447
0.00052605082
-0.0017419824
0.00017571282
-0.0017080134
-0.00018098549
-0.0016085747
-0.00053048085
-0.001447472
-0.00085947052
-0.0012308678
-0.0011553976
-0.00096705155
-0.0014069663
-0.00066613362
-0.0016045641
-0.00033965538
-0.0017406466
-1.4369405e-07
-0.0018100222
0.0003393691
-0.0018100412
0.00066585118
-0.0017407049
0.00096677721
-0.0016046656
0.0012306088
-0.0014071173
0.0014472402
-0.0011556063
0.0016083876
-0.00085974471
0.0017078936
-0.00053082238
0.0017419515
-0.00018138246
0.0017092133
0.00017529285
0.0016108149
0.00052565662
0.0014503995
0.00085625879
0.0012340286
0.0011542804
0.00096996405
0.0014080978
0.00066836049
0.0016077577
0.00034086619
0.0017454097
0.0018156327
-0.00043852368
0.0022543701
-0.00086021636
0.0021671788
-0.0012485551
0.0019962291
-0.0015885415
0.0017482801
-0.0018671105
0.0014331148
-0.0020736482
0.0010631325
-0.0022003752
0.00065277778
-0.0022426269
0.00021796452
-0.0021989385
-0.00022467381
-0.0020710027
-0.00065841672
-0.0018636766
-0.0010667966
-0.0015848667
-0.0014342075
-0.0012452266
-0.0017466065
-0.00085777154
-0.0019920192
-0.0004373697
-0.0021610485
-1.6516083e-07
-0.0022472267
0.00043703929
-0.0022472456
0.00085744134
-0.002161107
0.0012448986
-0.0019921228
0.0015845466
-0.0017467653
0.0018633771
-0.0014344369
0.0020707478
-0.0010671153
0.0021987642
-0.00065883884
0.0022425744
-0.00022519265
0.0022004691
0.00021739815
0.0020738639
0.00065226183
0.0018674073
0.0010627154
0.0015888839
0.0014328037
0.0012489196
0.0017480622
0.00086059007
0.0019960872
0.00043890047
0.0021670993
0.0022543444
-0.00057630044
0.0028308888
-0.0011304485
0.0027213268
-0.0016407609
0.0025065415
-0.0020875255
0.0021950447
-0.0024535683
0.0017991576
-0.0027249528
0.001334517
-0.0028914669
0.00081929188
-0.0029470274
0.00027352497
-0.0028897451
-0.00028195611
-0.0027217809
-0.00082638094
-0.0024494494
-0.0013391281
-0.0020831179
-0.001800539
-0.0016367684
-0.002192956
-0.0011275129
-0.0025012747
-0.00057490722
-0.0027136541
-1.8812024e-07
-0.0028219458
0.00057452933
-0.0028219631
0.00112713
-0.0027137076
0.0016363779
-0.0025013708
0.0020827211
-0.0021931085
0.0024490566
-0.0018007723
0.0027214215
-0.0013394803
0.0028894765
-0.00082689388
0.0029469318
-0.00028264789
0.0028916089
0.00027272102
0.0027252667
0.00081860405
0.0024539735
0.0013340086
0.002087966
0.0017988113
0.001641208
0.0021948201
0.0011308918
0.0025064034
0.00057673883
0.0027212523
0.002830865
-0.00075030371
0.0035814395
-0.001471755
0.0034427782
-0.0021361882
0.0031709746
-0.002717946
0.0027768025
-0.0031946467
0.0022758584
-0.0035481395
0.0016880098
-0.0037650844
0.0010362367
-0.003837604
0.00034604459
-0.0037632985
-0.00035626162
-0.0035448473
-0.0010448321
-0.003190367
-0.0016936083
-0.0027133676
-0.0022775384
-0.0021320482
-0.0027742753
-0.0014687239
-0.0031645991
-0.00074888669
-0.0034334913
-2.1045656e-07
-0.003570622
0.00074846261
-0.0035706362
0.0014682888
-0.0034335338
0.0021315923
-0.0031646743
0.0027128816
-0.0027743978
0.0031898498
-0.0022777405
0.003544326
-0.0016939565
0.0037628576
-0.0010454255
0.00383741
-0.00035720024
0.003765331
0.00034479998
0.0035486286
0.0010353064
0.0031952168
0.0016874204
0.0027185152
0.0022755129
0.0021367307
0.0027766046
0.0014722714
0.0031708627
0.00075080302
0.0034427207
0.003581421
-0.00092997742
0.0045116864
-0.0018242354
0.0043370361
-0.0026479782
0.0039947175
-0.0033694357
0.0034982599
-0.003960805
0.0028672276
-0.0043995589
0.0021267638
-0.0046689802
0.001305658
-0.0047593209
0.00043638529
-0.0046677291
-0.0004478535
-0.0043972562
-0.001315305
-0.0039578141
-0.0021330504
-0.0033662118
-0.0028691407
-0.0026450772
-0.0034954099
-0.0018221609
-0.0039875153
-0.0009291058
-0.0043265465
-2.2805148e-07
-0.0044994998
0.00092864623
-0.0044995104
0.0018216865
-0.004326574
0.0026445683
-0.0039875562
0.0033656401
-0.0034954695
0.0039571466
-0.0028692469
0.0043964897
-0.0021332997
0.0046669578
-0.0013158936
0.0047588692
-0.00044911165
0.0046694919
0.00043417728
0.0044003753
0.0013044231
0.0039616188
0.0021261769
0.0033701581
0.0028669736
0.0026486137
0.003498149
0.0018248132
0.0039946633
0.00093052422
0.0043370096
0.0045116758
-0.0010389137
0.0055508756
-0.0020380584
0.0053361808
-0.0029587522
0.0049154112
-0.0037655919
0.0043050997
-0.0044273806
0.0035290163
-0.0049188991
0.0026182823
-0.005221088
0.0016078469
-0.0053228966
0.00053819389
-0.0052213815
-0.00054936862
-0.0049194549
-0.0016172317
-0.0044281415
-0.0026243637
-0.003766483
-0.0035307992
-0.0029596686
-0.0043022244
-0.0020389
-0.0049082839
-0.0010396368
-0.0053258097
-2.334323e-07
-0.0055389031
0.0010391696
-0.0055389135
0.0020384227
-0.0053258271
0.0029591526
-0.0049082861
0.0037658713
-0.0043021882
0.0044273349
-0.0035307106
0.0049183478
-0.0026243126
0.0052199546
-0.0016175004
0.0053216794
-0.00055083646
0.0052223758
0.0005334809
0.0049203451
0.0016064539
0.0044285221
0.0026179998
0.0037664532
0.0035290425
0.0029594377
0.0043051645
0.0020386553
0.0049154456
0.0010394715
0.0053361934
0.0055508718
-0.00094362646
0.006494748
-0.001851409
0.0062439634
-0.0026884496
0.0057524517
-0.0034227833
0.0050394335
-0.0040259538
0.0041321867
-0.0044751996
0.0030675282
-0.0047521111
0.0018847585
-0.0048462774
0.00063236021
-0.0047557046
-0.0006399415
-0.0044818102
-0.0018911261
-0.0040345487
-0.0030716253
-0.0034320393
-0.0041333086
-0.0026969298
-0.0050373339
-0.0018579147
-0.005747299
-0.00094727706
-0.0062364474
-2.0986063e-07
-0.0064859703
0.00094686487
-0.0064859882
0.0018575108
-0.006236473
0.0026965043
-0.0057472796
0.0034315094
-0.0050371933
0.0040337167
-0.0041329179
0.0044803594
-0.0030709552
0.0047530278
-0.0018901688
0.0048425632
-0.00064037182
0.0047558865
0.00062015755
0.0044777993
0.001884541
0.0040274062
0.003068393
0.0034236607
0.004132788
0.0026890613
0.0050397639
0.001851927
0.0057525799
0.0009441153
0.0062440051
0.0064947411
-0.00047392212
0.0069688042
-0.00093045213
0.0067004934
-0.0013524957
0.0061744953
-0.0017243776
0.0054113153
-0.0020309885
0.0044387977
-0.0022615446
0.0032980842
-0.0024051481
0.0020283619
-0.0024555481
0.00068276018
-0.0024129977
-0.0006824919
-0.0022760957
-0.002028028
-0.002050101
-0.0032976199
-0.001745203
-0.0044382066
-0.0013719235
-0.0054106133
-0.00094549095
-0.0061737316
-0.00048220685
-0.0066997315
-1.147508e-07
-0.0069680624
0.00048199019
-0.0069680931
0.00094529758
-0.0066997804
0.0013717341
-0.0061737161
0.001744948
-0.0054104072
0.0020495126
-0.0044374825
0.0022746967
-0.0032961393
0.0024093075
-0.0020247797
0.0024427819
-0.00067384622
0.0024163413
0.00064659819
0.0022650928
0.0020357895
0.0020323593
0.0033011264
0.0017249791
0.0044401682
0.0013528053
0.0054119377
0.0009307085
0.0061746767
0.0004741726
0.006700541
0.0069687797
0.00047973577
0.0064889343
0.00094089394
0.0062393353
0.0013653807
0.0057500086
0.001736949
0.005039747
0.0020404246
0.0041353221
0.0022653405
0.0030731683
0.0024015452
0.0018921572
0.0024438251
0.00064048029
0.0023936048
-0.0006322716
0.0022506388
-0.001885062
0.0020211709
-0.003068152
0.0017160528
-0.0041330885
0.0013460119
-0.0050405724
0.00092607451
-0.0057537942
0.00047181562
-0.0062454726
1.1035072e-07
-0.0064963571
-0.00047160742
-0.0064963754
-0.00092588871
-0.0062454991
-0.001345829
-0.0057537759
-0.0017158035
-0.0050404326
-0.0020205886
-0.0041326975
-0.0022492481
-0.0030674798
-0.002389929
-0.0018840988
-0.0024310532
-0.00063272205
-0.0024127419
0.00062828685
-0.002268898
0.0018919457
-0.0020417998
0.0030740282
-0.001737552
0.0041359204
-0.0013656903
0.0050400759
-0.00094115014
0.0057501366
-0.00047998622
0.0062393771
0.0064889276
0.00094454483
0.0055441449
0.0018530022
0.0053308779
0.0026900162
0.0049129945
0.0034233665
0.0043063967
0.0040244142
0.0035342744
0.0044705638
0.0026270187
0.0047437388
0.0016189823
0.0048340322
0.00055018682
0.0047400572
-0.00053829653
0.0044638192
-0.001608824
0.0040157239
-0.0026200567
0.0034141366
-0.0035315012
0.0026817546
-0.0043081904
0.0018469474
-0.004918987
0.00094157864
-0.0053401038
2.0652094e-07
-0.005554985
-0.0009411731
-0.0055549957
-0.0018465499
-0.0053401223
-0.0026813351
-0.0049189907
-0.0034136119
-0.0043081558
-0.0040148953
-0.003531414
-0.0044623681
-0.002620007
-0.004737369
-0.0016090979
-0.0048303166
-0.00053977442
-0.0047475242
0.00054549441
-0.0044731626
0.0016175841
-0.0040258658
0.0026267314
-0.0034242428
0.0035342975
-0.0026906266
0.0043064597
-0.0018535181
0.0049130282
-0.00094503127
0.0053308903
0.0055441409
0.0010366573
0.004507214
0.002033541
0.0043339942
0.0029521164
0.0039944191
0.0037570031
0.0035015101
0.0044170683
0.0028742093
0.0049071838
0.0021369032
0.0052083562
0.0013178099
0.0053096028
0.00044894014
0.0052080365
-0.00043673019
0.0049066056
-0.0013073931
0.0044163457
-0.0021297969
0.0037562708
-0.0028714263
0.0029515323
-0.003503452
0.0020332421
-0.0040006967
0.0010367055
-0.0043435672
2.3034571e-07
-0.0045185099
-0.0010362444
-0.0045185209
-0.0020327707
-0.004343596
-0.002951022
-0.0040007395
-0.003755664
-0.0035035138
-0.004415543
-0.002871535
-0.004905501
-0.002130049
-0.0052066133
-0.0013079855
-0.0053083965
-0.00043799125
-0.0052096352
0.00044673306
-0.0049086249
0.0013165738
-0.0044182068
0.0021363133
-0.0037578617
0.0028739524
-0.0029527991
0.003501397
-0.0020341345
0.0039943636
-0.0010372113
0.004333967
0.0045072032
0.00092581585
0.0035811312
0.0018161769
0.0034436331
0.0026366064
0.0031739896
0.0033555565
0.0027825599
0.0039453594
0.0022844064
0.0043834578
0.0016988048
0.0046530981
0.0010481696
0.0047444096
0.00035762867
0.0046543617
-0.00034668228
0.004385805
-0.0010388364
0.0039484632
-0.0016924551
0.0033590032
-0.0022819662
0.00263988
-0.0027843288
0.0018188061
-0.0031796228
0.0009274486
-0.0034522098
2.2483573e-07
-0.0035912861
-0.0009269954
-0.0035913007
-0.0018183378
-0.0034522536
-0.002639377
-0.0031797003
-0.0033584367
-0.0027844541
-0.0039478
-0.0022821716
-0.004385042
-0.0016928071
-0.0046535936
-0.0010394339
-0.0047439599
-0.00034762494
-0.004653609
0.00035638222
-0.0043842715
0.0010472363
-0.0039461702
0.001698212
-0.0033562755
0.0022840577
-0.002637238
0.0027823595
-0.0018167504
0.003173876
-0.0009263579
0.0034435745
0.0035811123
0.00074514407
0.002835743
0.0014618135
0.0027269637
0.0021222135
0.0025135896
0.002700965
0.0022038085
0.0031758527
0.0018095187
0.0035287605
0.0013458969
0.003746243
0.00083068709
0.0038202276
0.00028364409
0.0037480549
-0.00027450955
0.003532119
-0.00082290061
0.0031802653
-0.0013406014
0.0027057746
-0.0018074755
0.0021267152
-0.0022052693
0.0014653659
-0.0025182736
0.00074726601
-0.0027341098
2.0690557e-07
-0.002844227
-0.00074684894
-0.0028442449
-0.0014649376
-0.002734165
-0.0021262656
-0.0025183723
-0.0027052943
-0.0022054254
-0.0031797528
-0.0018077131
-0.0035316016
-0.0013409583
-0.0037476168
-0.00082341864
-0.0038200351
-0.00027520664
-0.003746489
0.0002828361
-0.0035292475
0.00082999474
-0.0031764195
0.0013453841
-0.0027015302
0.0018091684
-0.0021227513
0.0022035807
-0.0014623245
0.0025134491
-0.00074563768
0.0027268877
0.0028357188
0.00057044633
0.0022650819
0.0011191459
0.0021782641
0.0016247972
0.0020079382
0.0020679832
0.0017606225
0.0024317146
0.0014457873
0.0027021115
0.0010755
0.0028688851
0.00066391357
0.002925772
0.00022675718
0.002870633
-0.00021937056
0.0027053474
-0.00065761505
0.0024359568
-0.0010712108
0.0020726007
-0.0014441193
0.0016291145
-0.0017617832
0.0011225473
-0.0020117064
0.00057246767
-0.0021840302
1.8409112e-07
-0.0022719434
-0.00057209773
-0.002271963
-0.001122172
-0.0021840907
-0.0016287311
-0.0020118132
-0.0020722101
-0.0017619464
-0.0024355693
-0.001444354
-0.0027049921
-0.0010715355
-0.0028703671
-0.0006580436
-0.0029256777
-0.00021989612
-0.0028690263
0.0002261847
-0.002702423
0.00066339148
-0.0024321161
0.0010750771
-0.0020684189
0.0014454712
-0.0016252386
0.0017604004
-0.0011195828
0.0020077933
-0.00057087789
0.0021781828
0.0022650556
0.00043167299
0.0018332244
0.0008469314
0.0017630057
0.0012296429
0.0016252267
0.0015651212
0.0014251442
0.0018405119
0.0011703966
0.0020452949
0.00087071701
0.0021716652
0.00053754326
0.0022148305
0.00018359182
0.0021731241
-0.00017766411
0.0020479952
-0.0005324862
0.001844052
-0.00086726755
0.0015689776
-0.0011690449
0.0012332536
-0.0014260592
0.00084978239
-0.0016282352
0.00043337475
-0.0017676226
1.6050142e-07
-0.0018387292
-0.00043305352
-0.001838749
-0.00084946094
-0.0017676833
-0.0012329336
-0.0016283406
-0.0015686644
-0.0014262155
-0.0018437584
-0.0011692601
-0.0020477447
-0.00086754913
-0.0021729525
-0.00053283579
-0.0022147791
-0.00017806957
-0.002171758
0.00018316358
-0.0020455076
0.00053714107
-0.0018408041
0.00087037368
-0.0015654578
0.0011701249
-0.0012300005
0.0014249432
-0.00084729737
0.0016250902
-0.00043204154
0.001762927
0.0018331986
0.00033189478
0.0015011733
0.00065119894
0.0014437016
0.00094550276
0.0013309229
0.0012035182
0.0011671287
0.0014153582
0.00095855668
0.0015729181
0.00071315707
0.0016701751
0.00044028624
0.0017034115
0.00015035548
0.0016713231
-0.00014557579
0.0015750437
-0.00043620673
0.0014181466
-0.00071037049
0.0012065597
-0.000957458
0.00094835647
-0.001167856
0.00065346025
-0.001333339
0.00033325583
-0.0014474181
1.3822947e-07
-0.0015056116
-0.0003329803
-0.0015056305
-0.00065318803
-0.0014474756
-0.00094809146
-0.0013334371
-0.0012063089
-0.0011679981
-0.0014179214
-0.00095764747
-0.0015748615
-0.00071060903
-0.0016712062
-0.00043649116
-0.0017033813
-0.00014589449
-0.0016702421
0.00015002444
-0.0015730719
0.00043997084
-0.0014155775
0.00071287926
-0.0012037811
0.00095832852
-0.00094579199
0.001166954
-0.00065150264
0.0013308008
-0.00033220543
0.0014436297
0.0015011496
0.00026262112
0.0012384208
0.00051529865
0.001191024
0.00074821195
0.0010980096
0.00095243086
0.00096290984
0.0011201272
0.00079086039
0.0012448746
0.00058840958
0.0013218898
0.00036327112
0.0013482097
0.00012403549
0.0013227921
-0.0001201582
0.001246546
-0.00035996062
0.0011223215
-0.00058614591
0.00095482739
-0.00078996393
0.00075046501
-0.0009634936
0.00051709011
-0.0010999641
0.00026370788
-0.0011940359
1.1807479e-07
-0.0012420218
-0.00026347339
-0.001242039
-0.00051686094
-0.001194088
-0.00075024602
-0.0011000521
-0.00095462545
-0.00096361866
-0.0011221461
-0.00079012678
-0.0012464097
-0.00058634544
-0.0013227087
-0.00036019218
-0.0013481911
-0.00012041205
-0.0013219411
0.00012377443
-0.0012449909
0.00036302057
-0.0011202963
0.00058818472
-0.00095263908
0.00079067129
-0.00074844666
0.00096276161
-0.00051554979
0.001097904
-0.00026288106
0.001190961
0.0012383999
0.00021461583
0.0010236951
0.00042111569
0.00098452417
0.00061147585
0.00090764942
0.00077839911
0.00079598657
0.00091548403
0.00065377547
0.0010174697
0.00048642389
0.001080435
0.00030030582
0.0011019466
0.00010252388
0.0010811469
-9.9358481e-05
0.0010187879
-0.00029760158
0.00091721441
-0.00048457244
0.00078028985
-0.00065303937
0.00061325583
-0.00079645959
0.00042253519
-0.00090924345
0.00021548336
-0.00098698407
1.0030304e-07
-0.0010266387
-0.00021528474
-0.001026654
-0.00042234278
-0.00098702997
-0.00061307464
-0.0009093202
-0.00078012609
-0.00079656722
-0.00091707574
-0.00065317712
-0.0010186832
-0.00048473803
-0.0010810851
-0.00029779024
-0.0011019348
-9.9562345e-05
-0.001080476
0.0001023156
-0.0010175606
0.00030010518
-0.00091561761
0.00048624174
-0.00077856625
0.00065361992
-0.00061166735
0.00079586272
-0.00042132335
0.00090755996
-0.00021483259
0.00098447025
0.0010236771
0.0001767115
0.00084689212
0.0003467485
0.00081448716
0.00050350802
0.0007508899
0.00064098321
0.00065851139
0.00075390073
0.00054085794
0.00083792222
0.0004024024
0.00088980969
0.00024841834
0.00090754962
8.4783949e-05
0.00089043036
-8.2239217e-05
0.00083907226
-0.00024624348
0.00075541194
-0.00040091211
0.00064263596
-0.00054026339
0.00050506462
-0.00065888825
0.00034798902
-0.00075216784
0.00017746667
-0.00081646173
8.4685265e-08
-0.00084925674
-0.00017729935
-0.00084926995
-0.00034782802
-0.0008165013
-0.00050491467
-0.00075223355
-0.00064250245
-0.00065897944
-0.00075530092
-0.00054037865
-0.00083899018
-0.00040104877
-0.00089038323
-0.00024639718
-0.00090754192
-8.2403657e-05
-0.00088984304
8.461672e-05
-0.0008379948
0.00024825694
-0.0007540079
0.00040225484
-0.00064111863
0.00054073065
-0.00050366486
0.00065840895
-0.0003469201
0.0007508152
-0.00017689167
0.00081444182
0.00084687693
0.0001566065
0.0006902082
0.00030729618
0.00066379749
0.0004462221
0.00061196398
0.00056806093
0.00053667256
0.00066813784
0.00044078103
0.00074260484
0.00032793541
0.00078858804
0.00020243514
0.00080429959
6.90724e-05
0.00078910797
-6.70476e-05
0.00074356953
-0.00020070504
0.00066940719
-0.00032674978
0.00056945062
-0.00044030682
0.00044753204
-0.00053696966
0.00030834103
-0.00061297684
0.00015724355
-0.00066536425
7.260801e-08
-0.00069208579
-0.00015710037
-0.00069209697
-0.00030820402
-0.00066539765
-0.00044740558
-0.000613032
-0.00056933938
-0.00053704564
-0.00066931603
-0.00044040199
-0.00074350327
-0.00032686153
-0.00078907084
-0.0002008296
-0.00080429461
-6.7179895e-05
-0.00078861605
6.8938159e-05
-0.00074266465
0.00020230554
-0.00066822623
0.00032781642
-0.00056817331
0.00044067773
-0.0004463532
0.00053658885
-0.00030744054
0.00061190254
-0.00015675874
0.00066376002
0.00069019561
0.00013157846
0.00055856802
0.00025818886
0.00053718709
0.00037492722
0.00049522562
0.00047732379
0.000434276
0.00056145069
0.00035665412
0.00062407153
0.00026531457
0.00066276509
0.00016374157
0.00067601891
5.5818584e-05
0.00066329041
-5.4319097e-05
0.00062504452
-0.00016245915
0.00056272787
-0.00026443312
0.00047871772
-0.00035629667
0.00037623524
-0.00043448718
0.00025922359
-0.00049596519
0.00013219574
-0.0005383364
5.8376663e-08
-0.00055994843
-0.00013208074
-0.00055995785
-0.00025911392
-0.00053836447
-0.00037613457
-0.00049601136
-0.0004786298
-0.00043455041
-0.00056265648
-0.00035637531
-0.0006249932
-0.00026452481
-0.00066326211
-0.00016256069
-0.00067601539
-5.442661e-05
-0.00066278747
5.5710241e-05
-0.00062411868
0.00016363674
-0.00056152028
0.00026521802
-0.00047741249
0.00035656994
-0.00037503108
0.00043420743
-0.0002583036
0.00049517506
-0.00013169973
0.00053715615
0.0005585576
0.00015564274
0.00040285633
0.00030539721
0.00038743262
0.00044346012
0.00035716271
0.00056453994
0.00031319617
0.00066398927
0.00025720479
0.00073798257
0.00019132127
0.00078366373
0.00011806042
0.00079925807
4.0224245e-05
0.00078413821
-3.9199242e-05
0.00073886142
-0.00011718236
0.00066514422
-0.00019071593
0.00056580354
-0.00025695599
0.00044465093
-0.00031333457
0.00030634698
-0.00035766124
0.00015622149
-0.00038821091
6.6205834e-08
-0.00040379315
-0.00015609128
-0.00040380036
-0.00030622339
-0.00038823237
-0.00044453831
-0.00035769643
-0.00056570615
-0.00031338257
-0.00066506605
-0.00025701542
-0.00073880599
-0.00019078488
-0.00078410836
-0.00011725832
-0.00079925594
-3.9279024e-05
-0.00078368887
4.0143174e-05
-0.00073803449
0.00011798236
-0.0006640658
0.00019124933
-0.00056463779
0.00025714193
-0.00044357519
0.00031314483
-0.00030552488
0.00035712476
-0.00015577808
0.00038740934
0.00040284848
0.00014757286
0.00025526097
0.00028952563
0.00024547984
0.00042040527
0.00022628308
0.00053519933
0.00019840211
0.00062950391
0.0001629002
0.00069969222
0.00012113296
0.00074305376
7.4698878e-05
0.00075789218
2.538583e-05
0.00074355567
-2.4862731e-05
0.00070062052
-7.4247209e-05
0.00063071883
-0.00012081424
0.00053651862
-0.00016275578
0.00042163166
-0.00019844761
0.00029047671
-0.00022650629
0.00014810868
-0.00024584287
2.1638261e-08
-0.00025570611
-0.00014806613
-0.0002557126
-0.00029043633
-0.00024586217
-0.00042159487
-0.00022653788
-0.00053648684
-0.00019849061
-0.00063069338
-0.00016280888
-0.00070060257
-0.00012087568
-0.00074354607
-7.4314818e-05
-0.00075789102
-2.493408e-05
-0.00074306231
2.5314469e-05
-0.00069970964
7.4629691e-05
-0.00062952935
0.00012106904
-0.00053523163
0.00016284421
-0.00042044307
0.00019835627
-0.00028956741
0.00022624911
-0.00014761705
0.00024545898
0.00025525393
0.00025031874
0.00049115969
0.00071316544
0.0009078163
0.0010676355
0.0011864761
0.0012597592
0.0012846599
0.0012602597
0.0011874065
0.0010688641
0.00090917088
0.00071445881
0.00049221746
0.00025100501
1.1682982e-07
-0.00025077549
-0.00049200031
-0.00071426197
-0.00090900183
-0.0010687296
-0.001187312
-0.0012602097
-0.001284657
-0.0012598034
-0.0011865661
-0.0010677678
-0.00090798568
-0.00071336512
-0.00049138177
-0.00025055456
)
;

boundaryField
{
    leftWall
    {
        type            cyclic;
        value           nonuniform List<scalar> 
32
(
-6.2631685e-08
-6.5123151e-08
-6.9961303e-08
-7.7367816e-08
-8.7570134e-08
-1.0082595e-07
-1.1741234e-07
-1.3758537e-07
-1.6146107e-07
-1.8873589e-07
-2.1825564e-07
-2.4705143e-07
-2.6941945e-07
-2.7554212e-07
-2.4594498e-07
-1.3400842e-07
1.3408114e-07
2.4462979e-07
2.7357378e-07
2.6698246e-07
2.4413654e-07
2.14767e-07
1.8452876e-07
1.5635869e-07
1.3135221e-07
1.098504e-07
9.1491159e-08
7.7421646e-08
6.1713244e-08
6.8955071e-08
2.2501221e-08
1.2022276e-07
)
;
    }
    rightWall
    {
        type            cyclic;
        value           nonuniform List<scalar> 
32
(
6.2631685e-08
6.5123151e-08
6.9961303e-08
7.7367816e-08
8.7570134e-08
1.0082595e-07
1.1741234e-07
1.3758537e-07
1.6146107e-07
1.8873589e-07
2.1825564e-07
2.4705143e-07
2.6941945e-07
2.7554212e-07
2.4594498e-07
1.3400842e-07
-1.3408114e-07
-2.4462979e-07
-2.7357378e-07
-2.6698246e-07
-2.4413654e-07
-2.14767e-07
-1.8452876e-07
-1.5635869e-07
-1.3135221e-07
-1.098504e-07
-9.1491159e-08
-7.7421646e-08
-6.1713244e-08
-6.8955071e-08
-2.2501221e-08
-1.2022276e-07
)
;
    }
    lowerWall
    {
        type            calculated;
        value           uniform 0;
    }
    atmosphere
    {
        type            calculated;
        value           nonuniform List<scalar> 
32
(
4.8220036e-06
4.6388886e-06
4.2773238e-06
3.7512624e-06