/*--------------------------------*- C++ -*----------------------------------*\
| =========                 |                                                 |
| \\      /  F ield         | OpenFOAM: The Open Source CFD Toolbox           |
|  \\    /   O peration     | Version:  2106                                  |
|   \\  /    A nd           | Website:  www.openfoam.com                      |
|    \\/     M anipulation  |                                                 |
\*---------------------------------------------------------------------------*/
FoamFile
{
    version     2.0;
    format      ascii;
    arch        "LSB;label=32;scalar=64";
    class       surfaceScalarField;
    location    "0.048";
    object      phi_0;
}
// * * * * * * * * * * * * * * * * * * * * * * * * * * * * * * * * * * * * * //

dimensions      [0 3 -1 0 0 0 0];

oriented        oriented;

internalField   nonuniform List<scalar> 
1984
(
-0.00013751055
0.00013757258
-0.00026977841
0.00013226786
-0.00039164147
0.00012186306
-0.00049840534
0.00010676387
-0.00058596345
8.7558107e-05
-0.00065095539
6.4991939e-05
-0.00069089486
3.9939468e-05
-0.00070426499
1.3370132e-05
-0.00069057182
-1.3693171e-05
-0.00065036093
-4.0210886e-05
-0.00058519382
-6.5167115e-05
-0.00049758536
-8.7608453e-05
-0.00039090573
-0.00010667963
-0.00026925041
-0.00012165532
-0.00013728353
-0.00013196688
-6.0217275e-08
-0.00013722331
0.00013716522
-0.00013722544
0.00026913845
-0.00013197323
0.0003908042
-0.00012166575
0.00049749812
-0.00010669392
0.00058512434
-8.7626219e-05
0.00065031215
-6.5187817e-05
0.00069054595
-4.0233795e-05
0.00070426333
-1.3717386e-05
0.0006909177
1.3345636e-05
0.00065100193
3.9915769e-05
0.00058603185
6.4970075e-05
0.00049849285
8.7539e-05
0.00039174458
0.00010674827
0.00026989304
0.00012185154
0.00013763224
0.0001322608
0.0001375702
-0.00014230621
0.00027994329
-0.00027918613
0.00026914778
-0.00040529649
0.00024797342
-0.0005157787
0.00021724609
-0.00060638302
0.00017816243
-0.00067363243
0.00013224135
-0.00071495576
8.1262795e-05
-0.00072878339
2.7197763e-05
-0.00071460574
-2.7870817e-05
-0.00067298874
-8.1827889e-05
-0.00060554902
-0.00013260683
-0.00051488945
-0.00017826803
-0.00040449755
-0.00021707153
-0.0002786111
-0.00024754176
-0.00014205597
-0.00026852201
-6.2440192e-08
-0.00027921685
0.00014193326
-0.00027922114
0.00027849487
-0.00026853484
0.00040439201
-0.00024756288
0.00051479859
-0.0002171005
0.00060547651
-0.00017830414
0.00067293769
-0.000132649
0.00071457853
-8.1874641e-05
0.00072878146
-2.7920308e-05
0.00071497943
2.7147661e-05
0.00067368087
8.1214328e-05
0.00060645428
0.00013219667
0.00051586985
0.00017812343
0.00040540382
0.0002172143
0.00027930539
0.00024794998
0.00014243276
0.00026913343
0.00027993846
-0.00015017925
0.00043019184
-0.00029463197
0.0004136005
-0.00042771703
0.00038105848
-0.00054430656
0.00033383562
-0.00063991586
0.00027377172
-0.00071087639
0.00020320188
-0.00075447595
0.00012486235
-0.00076905989
4.1781702e-05
-0.00075409168
-4.2839028e-05
-0.00071016951
-0.00012575006
-0.00063899986
-0.00020377648
-0.00054332953
-0.00027393836
-0.00042683861
-0.00033356245
-0.00029399869
-0.00038038169
-0.00014990182
-0.00041261888
-6.6715142e-08
-0.00042905195
0.00014977063
-0.00042905849
0.00029387421
-0.00041263841
0.00042672526
-0.00038041393
0.00054323159
-0.00033360684
0.00063892133
-0.00027399388
0.00071011391
-0.00020384158
0.00075406175
-0.00012582249
0.00076905735
-4.2915904e-05
0.00075450124
4.1703775e-05
0.00071092859
0.00012478698
0.00063999275
0.00020313251
0.00054440486
0.00027371132
0.00042783264
0.00033378652
0.00029476025
0.00038102236
0.00015031525
0.00041357843
0.00043018442
-0.00016177584
0.0005920443
-0.00031738313
0.00056920779
-0.00046074182
0.00052441717
-0.00058632744
0.00045942124
-0.00068930933
0.00037675361
-0.00076573705
0.00027962961
-0.00081269096
0.00017181626
-0.00082839109
5.748183e-05
-0.00081226123
-5.8968893e-05
-0.00076494644
-0.00017306484
-0.00068828479
-0.00028043814
-0.00058523445
-0.00037698869
-0.00045975876
-0.00045903815
-0.0003166737
-0.00052346674
-0.00016146378
-0.0005678288
-7.3194648e-08
-0.00059044253
0.00016131971
-0.00059045139
0.00031653663
-0.00056785533
0.00045963339
-0.00052351069
0.00058512549
-0.00045909894
0.0006881968
-0.00037706518
0.00076488359
-0.00028052837
0.00081222691
-0.00017316581
0.00082838751
-5.9076509e-05
0.00081271877
5.7372523e-05
0.00076579516
0.00017171059
0.00068939506
0.0002795326
0.00058643689
0.00037666949
0.00046087025
0.00045935317
0.00031752531
0.00052436729
0.00016192632
0.00056917742
0.00059203411
-0.00017782537
0.00076995641
-0.0003488698
0.00074025221
-0.00050644536
0.00068199273
-0.00064447868
0.00059745455
-0.00075766062
0.00048993556
-0.00084165135
0.00036362033
-0.00089324517
0.00022341008
-0.00091048946
7.472612e-05
-0.0008927535
-7.6704856e-05
-0.00084074675
-0.00022507159
-0.00075648832
-0.00036469657
-0.00064322785
-0.00049024916
-0.00050531988
-0.00059694612
-0.00034805674
-0.00068072989
-0.00017746622
-0.00073841931
-8.2002516e-08
-0.00076782675
0.00017730461
-0.000767838
0.00034790236
-0.00073845309
0.00050517779
-0.00068078612
0.00064310331
-0.00059702446
0.00075638671
-0.00049034858
0.00084067326
-0.00036481492
0.00089271261
-0.00022520515
0.00091048421
-7.6848114e-05
0.00089327655
7.4580182e-05
0.000841718
0.00022326914
0.00075775908
0.00036349152
0.00064460401
0.00048982456
0.00050659182
0.00059736536
0.00034903131
0.0006819278
0.00017799587
0.00074021286
0.00076994325
-0.00019968153
0.00096973781
-0.00039174612
0.0009323168
-0.0005686778
0.00085892442
-0.0007236554
0.00075243215
-0.00085071888
0.00061699904
-0.00094499961
0.00045790107
-0.0010029045
0.00028131501
-0.001022248
9.4069546e-05
-0.001002326
-9.6626818e-05
-0.00094393513
-0.00028346247
-0.00084933917
-0.00045929252
-0.00072218282
-0.00061740552
-0.00056735183
-0.0007517771
-0.00039078653
-0.00085729519
-0.00019925465
-0.00092995119
-9.3253099e-08
-0.00096698815
0.00019907054
-0.00096700179
0.00039060973
-0.00092999228
0.00056718769
-0.00085736409
0.00072203727
-0.00075187403
0.00084921873
-0.00061753004
0.00094384655
-0.00045944274
0.0010022755
-0.00028363412
0.0010222401
-9.6812673e-05
0.0010029409
9.3879402e-05
0.00094507824
0.00028113176
0.00085083498
0.00045773477
0.00072380237
0.00061685717
0.00056884838
0.00075231936
0.0003919331
0.00085884308
0.00019987812
0.00093226785
0.0009697215
-0.00023013901
0.0011999931
-0.00045149205
0.0011536698
-0.00065538978
0.0010628221
-0.0008339685
0.00093101087
-0.000980362
0.00076339253
-0.0010889672
0.00056650627
-0.0011556546
0.00034800237
-0.0011779172
0.00011633215
-0.0011549511
-0.00011959289
-0.0010876727
-0.00035074091
-0.00097868362
-0.00056828156
-0.00083217608
-0.00076391305
-0.00065377382
-0.00093017936
-0.00045031909
-0.0010607499
-0.00022961095
-0.0011506593
-1.0704472e-07
-0.0011964921
0.00022939912
-0.001196508
0.00045011424
-0.0011507074
0.00065358145
-0.0010608313
0.00083200283
-0.00093029541
0.00097853749
-0.00076406471
0.0010875628
-0.00056846801
0.0011548865
-0.00035095789
0.0011779051
-0.0001198312
0.0011556977
0.00011608678
0.0010890626
0.00034776682
0.00098050241
0.00056629499
0.0008341445
0.00076321507
0.00065559185
0.00093087201
0.00045171156
0.0010627234
0.00023036841
0.001153611
0.0011999736
-0.00027436212
0.0014744916
-0.00053823491
0.0014175426
-0.00078127685
0.0013058641
-0.00099411013
0.0011438442
-0.0011685536
0.00093783604
-0.0012979406
0.00069589325
-0.0013773665
0.00042742823
-0.0014038628
0.00014282846
-0.001376483
-0.0001469727
-0.0012963144
-0.00043090949
-0.0011664443
-0.00069815163
-0.00099185565
-0.00093850173
-0.0007792408
-0.0011427942
-0.00053675084
-0.0013032399
-0.00027368292
-0.0014137272
-1.2344191e-07
-0.0014700515
0.00027343791
-0.0014700693
0.00053651179
-0.0014137813
0.00077901295
-0.0013033325
0.0009916462
-0.0011429287
0.0011662631
-0.00093868162
0.001296174
-0.00069837888
0.0013763973
-0.00043118121
0.0014038438
-0.00014727773
0.0013774194
0.00014251122
0.0012980602
0.00042712599
0.0011687279
0.00069562729
0.00099432505
0.00093761794
0.00078151958
0.0011436775
0.0005384951
0.0013057479
0.00027463174
0.0014174743
0.001474469
-0.00034042331
0.0018150748
-0.00066780614
0.0017449255
-0.00096931539
0.0016073733
-0.0012333112
0.00140784
-0.0014496482
0.001154173
-0.0016100721
0.00085631717
-0.001708523
0.00052587906
-0.0017413481
0.00017565358
-0.0017073909
-0.00018092987
-0.0016079879
-0.00053031248
-0.0014469437
-0.00085919586
-0.0012304182
-0.0011550272
-0.00096669792
-0.0014065145
-0.00066588961
-0.0016040482
-0.00033953034
-0.0017400865
-1.4241809e-07
-0.0018094395
0.00033924663
-0.0018094584
0.00066560974
-0.0017401444
0.00096642615
-0.0016041489
0.0012301617
-0.0014066642
0.0014467142
-0.0011552341
0.0016078028
-0.00085946752
0.0017072723
-0.0005306507
0.0017413175
-0.00018132286
0.0017085908
0.00017523789
0.001610228
0.00052548881
0.0014498708
0.00085598442
0.0012335787
0.0011539101
0.00096961026
0.0014076459
0.00066811634
0.0016072418
0.00034074101
0.0017448497
0.0018150501
-0.00043837667
0.0022536386
-0.00085992632
0.0021664751
-0.0012481331
0.0019955801
-0.0015880038
0.0017477107
-0.0018664775
0.0014326467
-0.0020729442
0.0010627839
-0.0021996272
0.00065256201
-0.0022418636
0.00021789003
-0.0021981894
-0.00022460402
-0.0020702966
-0.0006582053
-0.0018630408
-0.0010664517
-0.0015843257
-0.0014337423
-0.0012448011
-0.001746039
-0.00085747797
-0.0019913714
-0.00043721934
-0.0021603451
-1.6374977e-07
-0.0022464951
0.00043689179
-0.0022465139
0.00085715071
-0.0021604033
0.0012444761
-0.0019914743
0.0015840086
-0.0017461967
0.0018627444
-0.0014339699
0.0020700444
-0.0010667675
0.002198017
-0.00065862334
0.0022418118
-0.00022511759
0.0021997201
0.00021732958
0.0020731576
0.00065205127
0.0018667713
0.0010623708
0.0015883428
0.0014323385
0.0012484942
0.0017474946
0.0008602966
0.0019954394
0.00043875007
0.0021663962
0.0022536131
-0.00057613727
0.0028299922
-0.0011301265
0.0027204644
-0.0016402924
0.002505746
-0.0020869283
0.0021943466
-0.0024528652
0.0017985836
-0.0027241705
0.0013340892
-0.0028906354
0.00081902691
-0.0029461787
0.0002734333
-0.002888912
-0.0002818707
-0.0027209956
-0.0008261217
-0.0024487423
-0.0013387051
-0.0020825161
-0.0017999685
-0.0016362952
-0.00219226
-0.0011271864
-0.0025004801
-0.00057474005
-0.0027127915
-1.8660253e-07
-0.0028210485
0.00057436526
-0.0028210658
0.0011268068
-0.0027128448
0.0016359083
-0.0025005758
0.0020821231
-0.0021924116
0.0024483535
-0.0018002002
0.0027206401
-0.0013390542
0.0028886465
-0.00082662973
0.0029460843
-0.00028255536
0.0028907758
0.00027263803
0.002724481
0.00081834607
0.0024532662
0.0013335856
0.0020873645
0.0017982403
0.0016407354
0.0021941237
0.0011305659
0.0025056088
0.00057657185
0.0027203903
0.0028299686
-0.00075014768
0.0035803849
-0.001471447
0.0034417637
-0.0021357397
0.0031700387
-0.0027173739
0.0027759808
-0.0031939727
0.0022751824
-0.0035473891
0.0016875056
-0.0037642862
0.001035924
-0.0038367888
0.00034593598
-0.0037624981
-0.00035616141
-0.0035440928
-0.001044527
-0.0031896876
-0.0016931103
-0.0027127894
-0.0022768667
-0.0021315936
-0.0027734558
-0.0014684102
-0.0031636634
-0.00074872604
-0.0034324757
-2.0889341e-07
-0.0035695656
0.00074830518
-0.0035695798
0.0014679786
-0.0034325183
0.0021311417
-0.0031637388
0.0027123081
-0.0027735781
0.0031891757
-0.0022770677
0.0035435772
-0.0016934557
0.0037620623
-0.0010451148
0.0038365973
-0.00035709031
0.0037645298
0.00034470544
0.0035478728
0.0010350031
0.0031945368
0.0016869216
0.0027179375
0.0022748395
0.0021362772
0.002775784
0.0014719588
0.0031699272
0.00075064287
0.0034417062
0.0035803664
-0.00092986858
0.0045105209
-0.0018240198
0.0043359149
-0.0026476639
0.0039936828
-0.0033690342
0.0034973511
-0.0039603312
0.0028664793
-0.0043990305
0.002126205
-0.0046684172
0.0013053107
-0.0047587453
0.000436264
-0.0046671636
-0.00044774306
-0.0043967232
-0.0013149674
-0.0039573342
-0.0021324993
-0.0033658035
-0.0028683974
-0.0026447561
-0.0034945032
-0.0018219393
-0.0039864802
-0.00092899212
-0.0043254229
-2.2654822e-07
-0.0044983312
0.00092853569
-0.0044983421
0.0018214684
-0.004325451
0.0026442516
-0.003986522
0.0033652373
-0.0034945638
0.0039566737
-0.0028685041
0.0043959653
-0.0021327473
0.0046664012
-0.0013155508
0.0047582992
-0.0004489883
0.0046689225
0.00043408216
0.0043998377
0.0013040879
0.0039611364
0.0021256229
0.0033697494
0.0028662265
0.0026482936
0.0034972398
0.0018245928
0.003993628
0.00093041118
0.0043358878
0.0045105101
-0.0010388988
0.0055496935
-0.0020380273
0.0053350434
-0.0029587058
0.0049143614
-0.0037655317
0.004304177
-0.0044273083
0.0035282559
-0.004918817
0.0026177137
-0.0052209987
0.0016074923
-0.0053228038
0.00053806916
-0.0052212902
-0.00054925662
-0.0049193693
-0.0016168884
-0.0044280647
-0.0026238039
-0.0037664178
-0.0035300443
-0.0029596173
-0.0043013037
-0.0020388644
-0.0049072331
-0.001039618
-0.0053246693
-2.3214838e-07
-0.0055377171
0.0010391536
-0.0055377278
0.0020383903
-0.0053246877
0.0029591056
-0.0049072373
0.0037658122
-0.0043012704
0.0044272671
-0.003529959
0.0049182749
-0.0026237551
0.0052198798
-0.0016171557
0.0053216015
-0.00055071001
0.0052222703
0.00053341337
0.0049202466
0.0016061115
0.0044284373
0.0026174322
0.003766384
0.0035282799
0.002959385
0.0043042388
0.0020386195
0.0049143934
0.0010394528
0.0053350546
0.0055496891
-0.00094372369
0.0064936618
-0.0018515986
0.0062429184
-0.0026887245
0.0057514872
-0.0034231331
0.0050385855
-0.0040263649
0.0041314877
-0.0044756564
0.0030670053
-0.0047525954
0.0018844313
-0.0048467709
0.00063224468
-0.0047561902
-0.00063983737
-0.0044822695
-0.0018908091
-0.0040349629
-0.0030711104
-0.0034323922
-0.004132615
-0.0026972074
-0.0050364885
-0.0018581058
-0.0057463347
-0.0009473742
-0.0062354009
-2.0900618e-07
-0.0064848823
0.00094696387
-0.0064849007
0.0018577043
-0.0062354282
0.0026967855
-0.0057463185
0.0034318682
-0.0050363531
0.0040341414
-0.0041322321
0.004480836
-0.0030704498
0.0047535437
-0.0018898633
0.0048430974
-0.00064026371
0.0047563288
0.00062018199
0.0044782277
0.0018842126
0.0040278007
0.0030678592
0.0034240003
0.0041320803
0.0026893304
0.0050389088
0.0018521129
0.005751611
0.00094420972
0.0062429577
0.0064936542
-0.00047404725
0.0069678427
-0.00093069783
0.0066995689
-0.0013528541
0.0061736435
-0.0017248361
0.0054105675
-0.0020315313
0.0044381829
-0.0022621521
0.0032976261
-0.0024057966
0.0020280757
-0.0024562127
0.00068266085
-0.0024136541
-0.00068239602
-0.0022767177
-0.0020277455
-0.0020506627
-0.0032971654
-0.0017456821
-0.0044375957
-0.0013723009
-0.0054098697
-0.00094575109
-0.0061728845
-0.00048233955
-0.0066988124
-1.1450912e-07
-0.0069671073
0.00048212346
-0.0069671387
0.0009455586
-0.0066988633
0.0013721131
-0.006172873
0.0017454307
-0.0054096707
0.0020500839
-0.0044368853
0.0022753376
-0.0032957035
0.0024099985
-0.0020245243
0.002443551
-0.00067381618
0.0024169167
0.00064681623
0.0022656681
0.0020354612
0.0020328842
0.0033006431
0.0017254285
0.004439536
0.0013531602
0.0054111771
0.00093095257
0.0061738186
0.00047429674
0.0066996135
0.0069678173
0.00047986948
0.0064878395
0.00094115557
0.0062382829
0.00136576
0.0057490391
0.0017374306
0.005038897
0.0020409892
0.0041346243
0.0022659656
0.0030726496
0.0024022047
0.0018918366
0.0024444929
0.00064037272
0.0023942562
-0.00063215939
0.0022512489
-0.0018847381
0.0020217159
-0.0030676324
0.0017165133
-0.004132393
0.0013463717
-0.0050397282
0.00092632109
-0.0057528339
0.00047194095
-0.0062444323
1.101256e-07
-0.0064952765
-0.00047173328
-0.0064952953
-0.00092613614
-0.0062444605
-0.0013461904
-0.0057528187
-0.0017162676
-0.0050395935
-0.0020211432
-0.0041320097
-0.0022498771
-0.0030669695
-0.0023906151
-0.0018837862
-0.0024318258
-0.00063260554
-0.0024133279
0.00062831837
-0.0022694907
0.001891624
-0.0020423463
0.0030734988
-0.0017380243
0.0041352139
-0.0013660661
0.0050392189
-0.00094141012
0.0057491626
-0.00048011896
0.0062383224
0.006487832
0.00094464404
0.0055429521
0.0018531955
0.0053297314
0.0026902963
0.0049119383
0.0034237222
0.0043054711
0.0040248314
0.0035335151
0.0044710263
0.0026264548
0.0047442276
0.0016186353
0.0048345289
0.00055007144
0.0047405444
-0.00053817493
0.0044642787
-0.0016084724
0.0040161373
-0.002619491
0.003414488
-0.0035307438
0.0026820306
-0.0043072707
0.0018471372
-0.0049179404
0.00094167505
-0.0053389701
2.0568608e-07
-0.0055538072
-0.00094127134
-0.0055538182
-0.0018467421
-0.0053389897
-0.0026816147
-0.0049179461
-0.0034139692
-0.004307239
-0.0040153191
-0.0035306598
-0.004462845
-0.0026194436
-0.0047378866
-0.0016087446
-0.0048308538
-0.00053963828
-0.0047479711
0.00054543562
-0.0044735966
0.0016172495
-0.0040262664
0.0026261686
-0.0034245884
0.0035335359
-0.0026909008
0.0043055312
-0.0018537077
0.0049119696
-0.00094512768
0.0053297423
0.0055429477
0.0010366414
0.0045060389
0.0020335082
0.0043328645
0.0029520681
0.0039933783
0.0037569411
0.0035005982
0.0044169948
0.0028734613
0.0049071017
0.0021363479
0.0052082684
0.0013174686
0.0053095134
0.00044882642
0.0052079503
-0.0004366118
0.0049065263
-0.0013070484
0.0044162757
-0.0021292404
0.0037562121
-0.0028706802
0.0029514868
-0.0035025453
0.0020332107
-0.0039996644
0.001036689
-0.0043424485
2.2908296e-07
-0.0045173472
-0.0010362307
-0.0045173585
-0.0020327426
-0.0043424778
-0.0029509807
-0.003999708
-0.0037556115
-0.0035026082
-0.004415482
-0.0028707894
-0.0049054343
-0.0021294913
-0.0052065434
-0.0013076356
-0.0053083217
-0.00043785997
-0.0052095315
0.00044664537
-0.0049085267
0.0013162447
-0.0044181209
0.0021357629
-0.0037577908
0.0028732057
-0.0029527445
0.0035004849
-0.0020340971
0.0039933222
-0.0010371916
0.0043328369
0.0045060279
0.00092570552
0.0035800684
0.0018159587
0.0034426113
0.0026362888
0.0031730482
0.0033551519
0.0027817351
0.0039448834
0.0022837298
0.0043829289
0.0016983024
0.0046525367
0.0010478607
0.0047438379
0.00035752531
0.0046538024
-0.0003465763
0.0043852798
-0.0010385259
0.0039479921
-0.0016919527
0.0033586036
-0.0022812917
0.0026395665
-0.0027835083
0.0018185901
-0.003178688
0.00092733796
-0.0034511963
2.2335568e-07
-0.0035902326
-0.00092688786
-0.0035902473
-0.0018181254
-0.0034512403
-0.0026390678
-0.0031787656
-0.0033580426
-0.0027836334
-0.0039473359
-0.002281496
-0.0043845253
-0.0016923019
-0.0046530431
-0.0010391178
-0.0047433938
-0.00034750924
-0.0046530413
0.00035629288
-0.0043837336
0.0010469369
-0.0039456857
0.001697715
-0.0033558638
0.0022833839
-0.0026369147
0.0027815358
-0.0018165274
0.0031729349
-0.00092624341
0.0034425528
0.0035800495
0.00074498709
0.0028348392
0.0014615038
0.0027260946
0.0021217632
0.0025127888
0.0027003915
0.0022031068
0.0031751782
0.0018089431
0.0035280112
0.0013454695
0.0037454478
0.00083042412
0.0038194174
0.00028355566
0.0037472613
-0.00027442017
0.0035313727
-0.00082263726
0.0031795946
-0.0013401746
0.0027052049
-0.001806902
0.0021262679
-0.0022045713
0.0014650577
-0.0025174778
0.00074710824
-0.0027332468
2.0536853e-07
-0.0028433297
-0.00074669435
-0.0028433476
-0.0014646328
-0.0027333018
-0.0021258222
-0.0025175761
-0.0027047292
-0.0022047264
-0.0031790874
-0.0018071379
-0.0035308608
-0.0013405285
-0.0037468283
-0.00082315035
-0.0038192274
-0.00027511012
-0.0037456909
0.00028275636
-0.0035284927
0.00082973879
-0.0031757391
0.0013449614
-0.0027009511
0.0018085958
-0.002122296
0.0022028807
-0.0014620104
0.0025126493
-0.00074547663
0.0027260191
0.0028348151
0.00057028314
0.0022643431
0.0011188241
0.0021775537
0.0016243293
0.0020072836
0.0020673874
0.0017600488
0.0024310139
0.0014453166
0.0027013331
0.0010751503
0.0028680589
0.00066369832
0.00292493
0.00022668452
0.0028698078
-0.00021929797
0.0027045708
-0.00065740023
0.0024352584
-0.0010708622
0.0020720071
-0.0014436506
0.0016286482
-0.0017612124
0.0011222259
-0.0020110555
0.00057230314
-0.0021833241
1.8260321e-07
-0.0022712092
-0.00057193624
-0.0022712287
-0.0011218538
-0.0021833843
-0.0016282683
-0.0020111616
-0.0020716203
-0.0017613744
-0.0024348748
-0.0014438833
-0.0027042193
-0.001071184
-0.002869545
-0.00065782467
-0.0029248369
-0.00021981822
-0.0028681985
0.00022611798
-0.0027016412
0.00066318148
-0.0024314113
0.0010747315
-0.0020678188
0.0014450034
-0.0016247666
0.0017598286
-0.0011192571
0.0020071398
-0.00057071095
0.0021774729
0.002264317
0.00043152689
0.0018326333
0.00084664328
0.0017624373
0.001229224
0.0016247029
0.0015645877
0.0014246851
0.0018398844
0.0011700199
0.0020445976
0.00087043708
0.0021709251
0.00053737083
0.0022140762
0.00018353344
0.0021723845
-0.00017760632
0.0020472989
-0.0005323146
0.0018434255
-0.00086698888
0.0015684449
-0.00116867
0.001232835
-0.0014256025
0.00084949375
-0.0016277142
0.00043322697
-0.0017670573
1.5912467e-07
-0.0018381414
-0.00043290853
-0.0018381611
-0.00084917517
-0.0017671176
-0.001232518
-0.0016278188
-0.0015681349
-0.0014257575
-0.0018431349
-0.0011688833
-0.0020470511
-0.00086726788
-0.0021722149
-0.00053266083
-0.0022140254
-0.00017800774
-0.0021710169
0.00018310953
-0.0020448081
0.00053697265
-0.0018401736
0.00087009706
-0.0015649209
0.0011697506
-0.0012295782
0.0014244858
-0.00084700587
0.0016245675
-0.00043189211
0.0017623592
0.0018326078
0.0003317744
0.001500704
0.00065096144
0.0014432503
0.00094515737
0.0013305069
0.0012030783
0.0011667642
0.0014148407
0.00095825747
0.0015723431
0.0007129347
0.0016695647
0.00044014921
0.0017027892
0.00015030897
0.0016707129
-0.00014553007
0.001574469
-0.00043607064
0.0014176295
-0.00071014935
0.0012061199
-0.00095716038
0.00094801072
-0.0011674934
0.00065322177
-0.0013329253
0.00033313367
-0.0014469692
1.3699366e-07
-0.0015051447
-0.00033286062
-0.0015051634
-0.00065295205
-0.0014470262
-0.00094774823
-0.0013330226
-0.0012058715
-0.0011676343
-0.0014174066
-0.00095734817
-0.0015742888
-0.00071038569
-0.0016705972
-0.00043635234
-0.0017027593
-0.00014584564
-0.001669631
0.00014998121
-0.0015724953
0.00043983691
-0.0014150578
0.00071265957
-0.0012033386
0.00095803144
-0.00094544382
0.001166591
-0.00065126229
0.0013303859
-0.00033208217
0.0014431791
0.0015006805
0.000262525
0.0012380489
0.00051510893
0.0011906663
0.00074793599
0.0010976799
0.00095207933
0.00096262082
0.0011197136
0.00079062316
0.0012444151
0.00058823325
0.0013214019
0.00036316241
0.0013477123
0.00012399853
0.0013223043
-0.00012012207
0.0012460865
-0.00035985285
0.0011219079
-0.00058597071
0.00095447558
-0.00078972808
0.00075018841
-0.00096320619
0.00051689927
-0.0010996362
0.00026361007
-0.00119368
1.1698754e-07
-0.0012416516
-0.00026337774
-0.0012416687
-0.00051667225
-0.0011937317
-0.00074997151
-0.0010997234
-0.00095427562
-0.00096333016
-0.0011217343
-0.00078988946
-0.0012459516
-0.00058616839
-0.0013222218
-0.00036008221
-0.0013476939
-0.00012037346
-0.0013214527
0.00012374001
-0.0012445301
0.0003629143
-0.0011198811
0.00058801054
-0.0009522855
0.00079043584
-0.00074816842
0.00096247395
-0.00051535768
0.0010975752
-0.00026278249
0.0011906039
0.0012380282
0.00021454096
0.0010233991
0.00042096782
0.00098423948
0.0006112607
0.00090738699
0.00077812501
0.00079575651
0.00091516155
0.00065358662
0.0010171113
0.00048628349
0.0010800545
0.00030021924
0.0011015586
0.0001024944
0.0010807663
-9.9329778e-05
0.0010184293
-0.00029751585
0.00091689164
-0.00048443303
0.00078001524
-0.00065285167
0.00061303989
-0.00079623084
0.00042238616
-0.00090898243
0.00021540692
-0.0009867008
9.9360115e-08
-0.001026344
-0.00021521018
-0.0010263592
-0.00042219558
-0.0009867463
-0.00061286045
-0.00090905852
-0.00077985309
-0.00079633751
-0.00091675437
-0.00065298818
-0.0010183257
-0.00048459709
-0.0010807051
-0.00029770273
-0.0011015469
-9.9531692e-05
-0.001080095
0.00010228813
-0.0010172013
0.00030002052
-0.0009152938
0.00048610308
-0.00077829049
0.00065343253
-0.00061145034
0.0007956338
-0.00042117347
0.00090729834
-0.00021475565
0.00098418604
0.0010233813
0.00017664519
0.00084666336
0.00034661757
0.0008142671
0.00050331753
0.00075068703
0.00064074052
0.00065833352
0.00075361522
0.00054071191
0.00083760489
0.00040229382
0.00088947278
0.00024835136
0.00090720608
8.47611e-05
0.00089009339
-8.2217092e-05
0.00083875481
-0.00024617727
0.00075512618
-0.0004008044
0.00064239284
-0.00054011833
0.00050487344
-0.00065871143
0.00034785708
-0.00075196607
0.00017739901
-0.00081624273
8.3872665e-08
-0.00084902891
-0.0001772333
-0.000849042
-0.00034769764
-0.00081628196
-0.00050472496
-0.0007520312
-0.00064226065
-0.00065880182
-0.00075501629
-0.00054023255
-0.00083867357
-0.0004009398
-0.00089004677
-0.00024632954
-0.00090719847
-8.2379984e-05
-0.0008895058
8.4595452e-05
-0.00083767675
0.00024819148
-0.00075372132
0.00040214764
-0.0006408746
0.00054058581
-0.00050347282
0.00065823202
-0.00034678749
0.000750613
-0.00017682361
0.00081422217
0.00084664831
0.00015655452
0.00069003219
0.00030719346
0.00066362816
0.00044607262
0.00061180787
0.00056787045
0.00053653569
0.00066791371
0.00044066865
0.00074235569
0.00032785184
0.00078832348
0.00020238357
0.00080402979
6.9054789e-05
0.0007888433
-6.7030605e-05
0.00074332015
-0.00020065413
0.00066918268
-0.00032666692
0.00056925958
-0.00044019523
0.00044738177
-0.00053683363
0.0003082373
-0.00061282159
0.00015719031
-0.00066519574
7.1888342e-08
-0.00069191048
-0.00015704855
-0.00069192156
-0.00030810166
-0.00066522886
-0.00044725658
-0.00061287627
-0.00056914946
-0.00053690894
-0.00066909245
-0.00044028955
-0.00074325459
-0.00032677767
-0.00078880657
-0.00020077755
-0.00080402487
-6.7161685e-05
-0.00078835121
6.8921791e-05
-0.0007424149
0.00020225517
-0.0006680012
0.00032773394
-0.00056798169
0.0004405663
-0.0004462024
0.00053645273
-0.00030733638
0.00061174698
-0.00015670524
0.00066359103
0.00069001971
0.00013151273
0.00055845828
0.0002580594
0.00053708149
0.00037473903
0.00049512824
0.00047708412
0.0004341906
0.00056116878
0.00035658399
0.00062375824
0.00026526238
0.00066243248
0.00016370933
0.00067567977
5.5807504e-05
0.00066295777
-5.4308609e-05
0.00062473116
-0.00016242752
0.00056244582
-0.00026438157
0.00047847779
-0.0003562272
0.00037604663
-0.00043440247
0.00025909352
-0.00049586848
0.00013212918
-0.00053823141
5.7876917e-08
-0.00055983918
-0.00013201517
-0.00055984851
-0.0002589848
-0.00053825923
-0.00037594683
-0.00049591424
-0.00047839065
-0.00043446513
-0.00056237507
-0.00035630513
-0.00062468031
-0.00026447243
-0.00066292974
-0.00016252812
-0.00067567629
-5.4415125e-05
-0.00066245467
5.5700165e-05
-0.00062380497
0.00016360547
-0.00056123776
0.00026516673
-0.00047717204
0.00035650058
-0.00037484197
0.00043412266
-0.00025817314
0.00049507815
-0.00013163294
0.00053705083
0.00055844795
0.00015560006
0.00040279012
0.00030531264
0.00038736891
0.00044333692
0.00035710396
0.00056438287
0.00031314465
0.00066380439
0.00025716247
0.00073777699
0.00019128978
0.00078344536
0.00011804096
0.00079903531
4.0217551e-05
0.00078391963
-3.919293e-05
0.00073865541
-0.00011716329
0.00066495869
-0.00019068486
0.0005656456
-0.00025691411
0.00044452663
-0.00031328349
0.00030626109
-0.00035760293
0.00015617728
-0.0003881476
6.5377518e-08
-0.00040372727
-0.00015604871
-0.00040373443
-0.00030613904
-0.0003881689
-0.00044441543
-0.00035763785
-0.00056554944
-0.00031333112
-0.0006648815
-0.00025697307
-0.00073860068
-0.00019075325
-0.00078389015
-0.00011723865
-0.00079903321
-3.9272066e-05
-0.00078347019
4.0137142e-05
-0.00073782826
0.00011796354
-0.00066387996
0.00019121843
-0.0005644795
0.00025710012
-0.00044345056
0.00031309372
-0.00030543872
0.00035706631
-0.00015573371
0.00038734582
0.00040278233
0.00014749964
0.00025526781
0.00028938218
0.00024548637
0.00042019711
0.00022628904
0.00053493446
0.00019840729
0.00062919254
0.0001629044
0.00069934632
0.000121136
0.00074268663
7.4700653e-05
0.00075751792
2.5386255e-05
0.00074318868
-2.4863688e-05
0.0007002749
-7.4249515e-05
0.00063040785
-0.00012081781
0.00053625422
-0.00016276048
0.00042142399
-0.00019845326
0.00029033373
-0.00022651268
0.00014803588
-0.00024584975
2.1806311e-08
-0.0002557132
-0.000147993
-0.00025571962
-0.00029029304
-0.00024586885
-0.00042138693
-0.00022654396
-0.00053622221
-0.00019849584
-0.00063038223
-0.00016281305
-0.00070025684
-0.00012087864
-0.00074317903
-7.4316451e-05
-0.00075751678
-2.4934325e-05
-0.00074269524
2.5315608e-05
-0.00069936386
7.4632158e-05
-0.00062921815
0.00012107272
-0.00053496699
0.00016284896
-0.00042023517
0.0001983619
-0.00028942426
0.00022625541
-0.00014754415
0.00024546571
0.00025526085
0.00025032169
0.00049116386
0.00071317069
0.00090782244
0.0010676423
0.0011864834
0.0012597667
0.0012846673
0.0012602668
0.0011874128
0.0010688696
0.00090917519
0.00071446178
0.00049221896
0.00025100497
1.1524115e-07
-0.00025077858
-0.00049200477
-0.00071426763
-0.00090900844
-0.0010687368
-0.0011873197
-0.0012602174
-0.0012846644
-0.0012598103
-0.0011865722
-0.0010677729
-0.00090798952
-0.00071336765
-0.00049138292
-0.0002505543
)
;

boundaryField
{
    leftWall
    {
        type            cyclic;
        value           nonuniform List<scalar> 
32
(
-6.2032923e-08
-6.4500939e-08
-6.9293218e-08
-7.662961e-08
-8.6736079e-08
-9.9868948e-08
-1.1630473e-07
-1.3630106e-07
-1.5998004e-07
-1.8705197e-07
-2.1638603e-07
-2.4505493e-07
-2.6741881e-07
-2.737498e-07
-2.4467644e-07
-1.3359204e-07
1.3367078e-07
2.4336777e-07
2.7179303e-07
2.64999e-07
2.4216259e-07
2.1292527e-07
1.8287829e-07
1.5491769e-07
1.3011542e-07
1.0880033e-07
9.0602096e-08
7.6647774e-08
6.1178045e-08
6.8092093e-08
2.2665608e-08
1.185888e-07
)
;
    }
    rightWall
    {
        type            cyclic;
        value           nonuniform List<scalar> 
32
(
6.2032923e-08
6.4500939e-08
6.9293218e-08
7.662961e-08
8.6736079e-08
9.9868948e-08
1.1630473e-07
1.3630106e-07
1.5998004e-07
1.8705197e-07
2.1638603e-07
2.4505493e-07
2.6741881e-07
2.737498e-07
2.4467644e-07
1.3359204e-07
-1.3367078e-07
-2.4336777e-07
-2.7179303e-07
-2.64999e-07
-2.4216259e-07
-2.1292527e-07
-1.8287829e-07
-1.5491769e-07
-1.3011542e-07
-1.0880033e-07
-9.0602096e-08
-7.6647774e-08
-6.1178045e-08
-6.8092093e-08
-2.2665608e-08
-1.185888e-07
)
;
    }
    lowerWall
    {
        type            calculated;
        value           uniform 0;
    }
    atmosphere
    {
        type            calculated;
        value           nonuniform List<scalar> 
32
(