/*--------------------------------*- C++ -*----------------------------------*\
| =========                 |                                                 |
| \\      /  F ield         | OpenFOAM: The Open Source CFD Toolbox           |
|  \\    /   O peration     | Version:  2106                                  |
|   \\  /    A nd           | Website:  www.openfoam.com                      |
|    \\/     M anipulation  |                                                 |
\*---------------------------------------------------------------------------*/
FoamFile
{
    version     2.0;
    format      ascii;
    arch        "LSB;label=32;scalar=64";
    class       volScalarField;
    location    "0.02";
    object      p_rgh;
}
// * * * * * * * * * * * * * * * * * * * * * * * * * * * * * * * * * * * * * //

dimensions      [1 -1 -2 0 0 0 0];

internalField   nonuniform List<scalar> 
16384
(
3.5250011
3.5164233
3.4992892
3.4736418
3.4395454
3.3970855
3.3463684
3.287521
3.2206905
3.146044
3.0637678
2.9740671
2.8771652
2.7733033
2.6627393
2.5457475
2.4226176
2.2936542
2.1591755
2.0195132
1.8750107
1.7260229
1.5729152
1.4160622
1.255847
1.0926603
0.92689924
0.7589664
0.58926912
0.41821825
0.24622607
0.07370332
-0.098922843
-0.27124282
-0.44284747
-0.61332468
-0.78226457
-0.9492639
-1.1139246
-1.2758546
-1.4346687
-1.5899899
-1.7414495
-1.8886889
-2.0313594
-2.1691239
-2.3016568
-2.4286456
-2.5497908
-2.664807
-2.7734236
-2.875385
-2.9704516
-3.0584001
-3.139024
-3.2121341
-3.2775589
-3.3351449
-3.3847573
-3.4262798
-3.459615
-3.484685
-3.501431
-3.5098139
-3.5098139
-3.501431
-3.484685
-3.459615
-3.4262798
-3.3847573
-3.3351449
-3.2775589
-3.2121341
-3.139024
-3.0584001
-2.9704516
-2.875385
-2.7734236
-2.664807
-2.5497908
-2.4286456
-2.3016568
-2.1691239
-2.0313594
-1.8886889
-1.7414495
-1.5899899
-1.4346687
-1.2758546
-1.1139246
-0.9492639
-0.78226457
-0.61332468
-0.44284747
-0.27124282
-0.098922843
0.07370332
0.24622607
0.41821825
0.58926912
0.7589664
0.92689924
1.0926603
1.255847
1.4160622
1.5729152
1.7260229
1.8750107
2.0195132
2.1591755
2.2936542
2.4226176
2.5457475
2.6627393
2.7733033
2.8771652
2.9740671
3.0637678
3.146044
3.2206905
3.287521
3.3463684
3.3970855
3.4395454
3.4736418
3.4992892
3.5164233
3.5250011
3.5318236
3.5232296
3.5060633
3.4803675
3.4462068
3.4036668
3.3528539
3.2938954
3.2269386
3.1521509
3.0697189
2.9798482
2.8827625
2.7787033
2.6679291
2.5507146
2.4273501
2.2981405
2.1634048
2.0234751
1.8786956
1.7294218
1.5760196
1.4188645
1.2583401
1.0948379
0.92875577
0.76049705
0.59046972
0.41908536
0.24675817
0.073903846
-0.099065676
-0.27172682
-0.44366955
-0.61448264
-0.78375666
-0.95108727
-1.1160755
-1.2783283
-1.43746
-1.5930925
-1.7448565
-1.8923925
-2.0353513
-2.1733947
-2.3061968
-2.4334441
-2.5548365
-2.670088
-2.7789272
-2.8810982
-2.9763605
-3.0644905
-3.145281
-3.2185425
-3.2841029
-3.3418086
-3.3915241
-3.433133
-3.4665377
-3.49166
-3.5084409
-3.5168412
-3.5168412
-3.5084409
-3.49166
-3.4665377
-3.433133
-3.3915241
-3.3418086
-3.2841029
-3.2185425
-3.145281
-3.0644905
-2.9763605
-2.8810982
-2.7789272
-2.670088
-2.5548365
-2.4334441
-2.3061968
-2.1733947
-2.0353513
-1.8923925
-1.7448565
-1.5930925
-1.43746
-1.2783283
-1.1160755
-0.95108727
-0.78375666
-0.61448264
-0.44366955
-0.27172682
-0.099065677
0.073903846
0.24675817
0.41908536
0.59046972
0.76049704
0.92875577
1.0948379
1.2583401
1.4188645
1.5760196
1.7294218
1.8786956
2.0234751
2.1634048
2.2981405
2.4273501
2.5507146
2.6679291
2.7787034
2.8827625
2.9798482
3.0697189
3.1521509
3.2269386
3.2938954
3.3528539
3.4036668
3.4462068
3.4803675
3.5060633
3.5232296
3.5318236
3.5476791
3.5390464
3.5218027
3.4959911
3.4616765
3.4189447
3.3679029
3.3086787
3.2414203
3.1662956
3.0834924
2.9932169
2.895694
2.7911662
2.6798933
2.5621512
2.4382314
2.3084403
2.1730984
2.0325391
1.8871083
1.737163
1.5830708
1.4252088
1.2639624
1.0997248
0.93289564
0.76388002
0.59308774
0.4209321
0.24782901
0.074195809
-0.099550273
-0.27298964
-0.44570738
-0.61729014
-0.78732727
-0.95541265
-1.1211454
-1.284131
-1.4439816
-1.6003176
-1.7527682
-1.9009721
-2.0445784
-2.1832476
-2.316652
-2.4444769
-2.5664207
-2.6821961
-2.7915304
-2.8941664
-2.9898626
-3.0783942
-3.1595531
-3.2331488
-3.2990086
-3.3569777
-3.4069204
-3.4487195
-3.4822769
-3.507514
-3.5243717
-3.5328104
-3.5328104
-3.5243717
-3.507514
-3.4822769
-3.4487195
-3.4069204
-3.3569777
-3.2990086
-3.2331488
-3.1595531
-3.0783942
-2.9898626
-2.8941664
-2.7915304
-2.6821961
-2.5664207
-2.4444769
-2.316652
-2.1832476
-2.0445784
-1.9009721
-1.7527682
-1.6003176
-1.4439816
-1.284131
-1.1211454
-0.95541265
-0.78732727
-0.61729014
-0.44570738
-0.27298964
-0.099550274
0.074195808
0.24782901
0.4209321
0.59308774
0.76388002
0.93289564
1.0997248
1.2639624
1.4252088
1.5830708
1.737163
1.8871083
2.0325391
2.1730984
2.3084403
2.4382314
2.5621512
2.6798933
2.7911662
2.895694
2.9932169
3.0834924
3.1662956
3.2414203
3.3086787
3.3679029
3.4189447
3.4616765
3.4959911
3.5218027
3.5390464
3.5476791
3.5722113
3.5635182
3.5461539
3.520162
3.4856075
3.4425772
3.3911787
3.3315409
3.2638128
3.1881638
3.1047828
3.0138775
2.9156747
2.8104184
2.6983702
2.5798082
2.4550258
2.3243317
2.1880486
2.0465123
1.900071
1.7490844
1.5939225
1.4349652
1.2726004
1.1072242
0.9392388
0.76905226
0.59707712
0.42372951
0.24942811
0.074593173
-0.10035437
-0.27499379
-0.44890651
-0.62167609
-0.79288929
-0.96213724
-1.1290164
-1.2931294
-1.4540859
-1.6115037
-1.7650093
-1.9142391
-2.0588397
-2.1984693
-2.3327979
-2.4615085
-2.5842976
-2.7008758
-2.8109684
-2.9143165
-3.010677
-3.0998232
-3.1815457
-3.2556526
-3.32197
-3.380342
-3.4306319
-3.4727215
-3.5065123
-3.5319249
-3.5488999
-3.5573973
-3.5573973
-3.5488999
-3.5319249
-3.5065123
-3.4727215
-3.4306319
-3.380342
-3.32197
-3.2556526
-3.1815457
-3.0998232
-3.010677
-2.9143165
-2.8109684
-2.7008758
-2.5842976
-2.4615085
-2.3327979
-2.1984693
-2.0588397
-1.9142391
-1.7650093
-1.6115037
-1.4540859
-1.2931294
-1.1290164
-0.96213724
-0.79288929
-0.62167609
-0.44890651
-0.27499379
-0.10035437
0.074593172
0.24942811
0.42372951
0.59707712
0.76905226
0.9392388
1.1072242
1.2726004
1.4349652
1.5939225
1.7490844
1.900071
2.0465123
2.1880486
2.3243317
2.4550258
2.5798082
2.6983702
2.8104184
2.9156747
3.0138775
3.1047828
3.1881638
3.2638128
3.3315409
3.3911787
3.4425772
3.4856075
3.520162
3.5461539
3.5635182
3.5722113
3.6053231
3.5965484
3.579021
3.5527848
3.5179059
3.4744715
3.4225906
3.3623931
3.2940297
3.2176713
3.1335086
3.0417516
2.9426291
2.8363876
2.7232912
2.6036205
2.4776721
2.3457574
2.2082022
2.0653456
1.9175391
1.7651458
1.6085391
1.4481025
1.2842276
1.117314
0.94776789
0.77600094
0.60242957
0.42747372
0.25155594
0.075100339
-0.10146834
-0.27772577
-0.4532493
-0.62761866
-0.80041689
-0.97123145
-1.1396551
-1.3052868
-1.4677329
-1.6266074
-1.7815336
-1.9321444
-2.0780834
-2.2190055
-2.3545777
-2.4844801
-2.6084062
-2.7260642
-2.8371768
-2.9414825
-3.0387359
-3.1287085
-3.2111887
-3.2859829
-3.3529152
-3.4118288
-3.4625852
-3.5050654
-3.5391697
-3.5648182
-3.5819506
-3.5905269
-3.5905269
-3.5819506
-3.5648182
-3.5391697
-3.5050654
-3.4625852
-3.4118288
-3.3529152
-3.2859829
-3.2111887
-3.1287085
-3.0387359
-2.9414825
-2.8371768
-2.7260642
-2.6084063
-2.4844801
-2.3545777
-2.2190055
-2.0780834
-1.9321444
-1.7815336
-1.6266074
-1.4677329
-1.3052868
-1.1396551
-0.97123145
-0.80041689
-0.62761866
-0.4532493
-0.27772577
-0.10146834
0.075100338
0.25155594
0.42747372
0.60242957
0.77600094
0.94776789
1.117314
1.2842276
1.4481025
1.6085391
1.7651458
1.9175391
2.0653456
2.2082022
2.3457574
2.4776721
2.6036205
2.7232912
2.8363876
2.9426291
3.0417516
3.1335086
3.2176713
3.2940297
3.3623931
3.4225906
3.4744715
3.5179059
3.5527848
3.579021
3.5965484
3.6053231
3.6471027
3.6382248
3.6204912
3.5939465
3.5586573
3.5147123
3.4622216
3.4013168
3.3321505
3.2548956
3.1697453
3.0769122
2.9766277
2.8691416
2.754721
2.63365
2.5062287
2.3727725
2.2336109
2.0890871
1.9395568
1.7853874
1.6269569
1.4646529
1.2988721
1.1300184
0.95850276
0.78474174
0.60915649
0.43217182
0.25421514
0.075715404
-0.10289783
-0.28119547
-0.45874995
-0.63513621
-0.80993259
-0.98272185
-1.1530921
-1.3206379
-1.4849609
-1.645671
-1.802387
-1.9547377
-2.1023626
-2.2449127
-2.3820512
-2.5134544
-2.6388126
-2.7578302
-2.8702269
-2.9757383
-3.074116
-3.1651289
-3.2485628
-3.324222
-3.3919285
-3.4515235
-3.5028672
-3.5458388
-3.5803378
-3.6062831
-3.6236138
-3.6322893
-3.6322893
-3.6236138
-3.6062831
-3.5803378
-3.5458388
-3.5028672
-3.4515235
-3.3919285
-3.324222
-3.2485628
-3.1651289
-3.074116
-2.9757383
-2.8702269
-2.7578302
-2.6388126
-2.5134544
-2.3820512
-2.2449127
-2.1023626
-1.9547377
-1.802387
-1.645671
-1.4849609
-1.3206379
-1.1530921
-0.98272185
-0.80993259
-0.63513621
-0.45874995
-0.28119547
-0.10289783
0.075715404
0.25421514
0.43217182
0.60915649
0.78474174
0.95850276
1.1300184
1.2988721
1.4646529
1.6269569
1.7853874
1.9395568
2.0890871
2.2336109
2.3727725
2.5062287
2.63365
2.754721
2.8691416
2.9766277
3.0769122
3.1697453
3.2548956
3.3321505
3.4013168
3.4622216
3.5147123
3.5586573
3.5939465
3.6204912
3.6382248
3.6471027
3.6976616
3.6886585
3.6706751
3.6437564
3.6079703
3.5634065
3.5101769
3.4484151
3.3782759
3.299935
3.2135882
3.1194513
3.0177592
2.9087653
2.7927407
2.6699737
2.5407687
2.4054456
2.2643388
2.1177963
1.9661789
1.8098592
1.6492207
1.4846564
1.3165685
1.1453666
0.97146749
0.79529336
0.61727125
0.43783181
0.25740832
0.076435626
-0.10465088
-0.28541627
-0.46542716
-0.64425268
-0.82146546
-0.99664262
-1.1693667
-1.3392268
-1.5058191
-1.6687482
-1.8276278
-1.9820816
-2.1317443
-2.276262
-2.4152935
-2.5485106
-2.6755992
-2.7962598
-2.9102083
-3.0171765
-3.1169126
-3.2091823
-3.2937686
-3.3704727
-3.4391146
-3.4995329
-3.5515859
-3.5951513
-3.630127
-3.6564308
-3.674001
-3.6827964
-3.6827964
-3.674001
-3.6564308
-3.630127
-3.5951513
-3.5515859
-3.4995329
-3.4391146
-3.3704727
-3.2937686
-3.2091823
-3.1169126
-3.0171765
-2.9102083
-2.7962598
-2.6755992
-2.5485106
-2.4152935
-2.276262
-2.1317443
-1.9820816
-1.8276278
-1.6687482
-1.5058191
-1.3392268
-1.1693667
-0.99664262
-0.82146547
-0.64425268
-0.46542716
-0.28541627
-0.10465088
0.076435626
0.25740832
0.43783181
0.61727125
0.79529336
0.97146749
1.1453666
1.3165685
1.4846564
1.6492207
1.8098592
1.9661789
2.1177963
2.2643388
2.4054456
2.5407687
2.6699737
2.7927407
2.9087653
3.0177592
3.1194513
3.2135882
3.299935
3.3782759
3.4484151
3.5101769
3.5634065
3.6079703
3.6437564
3.6706751
3.6886585
3.6976616
3.7571213
3.747971
3.7296934
3.7023345
3.6659631
3.6206707
3.5665712
3.5038004
3.4325159
3.3528962
3.2651409
3.1694693
3.0661203
2.9553517
2.8374393
2.7126761
2.5813719
2.4438518
2.3004559
2.151538
1.997465
1.8386156
1.6753794
1.5081562
1.3373545
1.1633907
0.98668825
0.80767617
0.62678835
0.44446232
0.26113827
0.077257931
-0.1067364
-0.29040295
-0.47330148
-0.65499434
-0.83504744
-1.0130313
-1.1885219
-1.3611017
-1.5303609
-1.6958977
-1.8573198
-2.0142449
-2.166302
-2.3131317
-2.4543872
-2.5897353
-2.718857
-2.8414478
-2.9572193
-3.0658988
-3.1672308
-3.2609769
-3.3469167
-3.4248484
-3.4945888
-3.5559742
-3.6088604
-3.6531233
-3.6886589
-3.7153838
-3.7332353
-3.7421716
-3.7421716
-3.7332353
-3.7153838
-3.6886589
-3.6531233
-3.6088604
-3.5559742
-3.4945888
-3.4248484
-3.3469167
-3.2609769
-3.1672308
-3.0658988
-2.9572193
-2.8414478
-2.718857
-2.5897353
-2.4543872
-2.3131317
-2.166302
-2.0142449
-1.8573198
-1.6958977
-1.5303609
-1.3611017
-1.1885219
-1.0130313
-0.83504744
-0.65499434
-0.47330148
-0.29040295
-0.1067364
0.07725793
0.26113826
0.44446232
0.62678835
0.80767617
0.98668825
1.1633907
1.3373545
1.5081562
1.6753794
1.8386156
1.997465
2.151538
2.3004559
2.4438518
2.5813719
2.7126761
2.8374393
2.9553517
3.0661203
3.1694693
3.2651409
3.3528962
3.4325159
3.5038004
3.5665712
3.6206707
3.6659631
3.7023345
3.7296934
3.747971
3.7571213
3.8256241
3.8163039
3.7976869
3.7698202
3.7327738
3.6866412
3.6315384
3.5676039
3.4949985
3.4139043
3.3245246
3.2270833
3.1218238
3.0090089
2.8889199
2.7618554
2.6281311
2.4880784
2.3420439
2.1903881
2.0334847
1.8717197
1.70549
1.5352027
1.3612739
1.1841278
1.0041954
0.82191375
0.63772453
0.45207325
0.26540802
0.078178524
-0.10916499
-0.29617286
-0.482397
-0.66739194
-0.85071588
-1.0319317
-1.2106078
-1.3863194
-1.5586491
-1.7271883
-1.8915376
-2.0513079
-2.2061216
-2.3556128
-2.4994287
-2.6372301
-2.768692
-2.8935048
-3.0113747
-3.1220242
-3.225193
-3.3206385
-3.4081364
-3.487481
-3.558486
-3.6209845
-3.6748297
-3.7198953
-3.7560754
-3.783285
-3.8014603
-3.8105586
-3.8105586
-3.8014603
-3.783285
-3.7560754
-3.7198953
-3.6748297
-3.6209845
-3.558486
-3.487481
-3.4081364
-3.3206385
-3.225193
-3.1220242
-3.0113747
-2.8935048
-2.768692
-2.6372301
-2.4994287
-2.3556128
-2.2061216
-2.0513079
-1.8915376
-1.7271883
-1.5586491
-1.3863194
-1.2106078
-1.0319317
-0.85071588
-0.66739195
-0.482397
-0.29617286
-0.10916499
0.078178524
0.26540802
0.45207325
0.63772453
0.82191375
1.0041954
1.1841278
1.3612739
1.5352027
1.70549
1.8717197
2.0334847
2.1903881
2.3420439
2.4880784
2.6281311
2.7618554
2.8889199
3.0090089
3.1218238
3.2270833
3.3245246
3.4139043
3.4949985
3.5676039
3.6315384
3.6866412
3.7327738
3.7698202
3.7976869
3.8163039
3.8256241
3.9033343
3.8938212
3.8748188
3.8463753
3.8085625
3.7614756
3.7052334
3.6399775
3.5658722
3.4831036
3.3918796
3.2924288
3.1850002
3.0698622
2.9473021
2.8176252
2.6811537
2.5382263
2.3891969
2.2344337
2.0743183
1.9092447
1.7396181
1.565854
1.3883772
1.2076205
1.0240239
0.83803312
0.65009895
0.46067583
0.27022087
0.07919279
-0.11194913
-0.30274633
-0.49274182
-0.68148128
-0.86851417
-1.0533947
-1.2356828
-1.4149452
-1.5907565
-1.7626997
-1.9303676
-2.0933636
-2.2513025
-2.4038111
-2.5505296
-2.691112
-2.825227
-2.9525587
-3.0728073
-3.1856899
-3.290941
-3.388313
-3.4775771
-3.5585234
-3.6309618
-3.6947221
-3.7496545
-3.7956299
-3.8325406
-3.8602996
-3.878842
-3.888124
-3.888124
-3.878842
-3.8602996
-3.8325406
-3.7956299
-3.7496545
-3.6947221
-3.6309618
-3.5585234
-3.4775771
-3.388313
-3.290941
-3.1856899
-3.0728073
-2.9525587
-2.825227
-2.691112
-2.5505296
-2.4038111
-2.2513025
-2.0933636
-1.9303676
-1.7626997
-1.5907565
-1.4149452
-1.2356828
-1.0533947
-0.86851417
-0.68148129
-0.49274182
-0.30274634
-0.11194913
0.079192789
0.27022087
0.46067582
0.65009895
0.83803312
1.0240239
1.2076205
1.3883772
1.565854
1.7396181
1.9092447
2.0743183
2.2344337
2.3891969
2.5382263
2.6811537
2.8176252
2.9473021
3.0698622
3.1850002
3.2924288
3.3918796
3.4831036
3.5658722
3.6399775
3.7052334
3.7614756
3.8085625
3.8463753
3.8748188
3.8938212
3.9033343
3.9904388
3.9807091
3.9612744
3.9321837
3.8935106
3.845353
3.7878322
3.7210936
3.6453053
3.5606581
3.4673648
3.3656596
3.2557976
3.1380535
3.0127215
2.8801142
2.7405615
2.59441
2.4420219
2.283774
2.1200567
1.9512732
1.7778378
1.6001757
1.4187213
1.2339171
1.046213
0.85606471
0.66393305
0.47028251
0.27558034
0.080295348
-0.11510321
-0.31014665
-0.50436803
-0.69730319
-0.88849176
-1.0774783
-1.2638132
-1.4470538
-1.6267655
-1.8025222
-1.9739081
-2.1405177
-2.3019575
-2.4578463
-2.6078163
-2.7515141
-2.8886011
-3.0187545
-3.1416679
-3.2570521
-3.3646357
-3.4641657
-3.5554082
-3.6381488
-3.7121929
-3.7773666
-3.8335169
-3.8805117
-3.9182406
-3.9466152
-3.9655687
-3.9750566
-3.9750566
-3.9655687
-3.9466152
-3.9182406
-3.8805117
-3.8335169
-3.7773666
-3.7121929
-3.6381488
-3.5554082
-3.4641657
-3.3646357
-3.2570521
-3.1416679
-3.0187545
-2.8886011
-2.7515141
-2.6078163
-2.4578463
-2.3019575
-2.1405177
-1.9739081
-1.8025222
-1.6267655
-1.4470538
-1.2638132
-1.0774783
-0.88849176
-0.69730319
-0.50436803
-0.31014665
-0.11510321
0.080295347
0.27558034
0.47028251
0.66393305
0.85606471
1.046213
1.2339171
1.4187213
1.6001757
1.7778378
1.9512732
2.1200567
2.283774
2.4420219
2.59441
2.7405615
2.8801142
3.0127215
3.1380535
3.2557976
3.3656596
3.4673648
3.5606581
3.6453053
3.7210936
3.7878322
3.845353
3.8935106
3.9321837
3.9612744
3.9807091
3.9904388
4.0871471
4.0771767
4.0572613
4.0274512
3.987822
3.938474
3.8795322
3.8111456
3.7334867
3.6467516
3.5511585
3.4469481
3.3343818
3.2137418
3.0853299
2.9494667
2.8064908
2.6567575
2.5006382
2.3385195
2.1708015
1.9978974
1.8202321
1.6382412
1.4523697
1.2630712
1.0708065
0.87604226
0.67925053
0.48090698
0.28149001
0.081479662
-0.11864366
-0.31840017
-0.51731188
-0.71490365
-0.91070431
-1.1042477
-1.2950736
-1.482729
-1.666769
-1.8467576
-2.0222691
-2.1928886
-2.3582133
-2.5178529
-2.6714311
-2.8185859
-2.9589707
-3.0922551
-3.2181254
-3.3362854
-3.4464573
-3.5483821
-3.64182
-3.7265515
-3.8023775
-3.8691197
-3.9266213
-3.9747472
-4.0133843
-4.0424419
-4.0618516
-4.0715679
-4.0715679
-4.0618516
-4.0424419
-4.0133843
-3.9747472
-3.9266213
-3.8691197
-3.8023775
-3.7265515
-3.64182
-3.5483821
-3.4464573
-3.3362854
-3.2181254
-3.0922551
-2.9589707
-2.8185859
-2.6714311
-2.5178529
-2.3582133
-2.1928886
-2.0222691
-1.8467576
-1.666769
-1.482729
-1.2950736
-1.1042477
-0.91070431
-0.71490365
-0.51731188
-0.31840017
-0.11864366
0.081479661
0.28149001
0.48090697
0.67925053
0.87604226
1.0708065
1.2630712
1.4523697
1.6382412
1.8202321
1.9978974
2.1708015
2.3385195
2.5006382
2.6567575
2.8064908
2.9494667
3.0853299
3.2137418
3.3343818
3.4469481
3.5511585
3.6467516
3.7334867
3.8111456
3.8795322
3.938474
3.987822
4.0274512
4.0572613
4.0771767
4.0871471
4.193692
4.1834561
4.1630103
4.1324066
4.0917226
4.0410618
3.9805524
3.9103479
3.8306259
3.7415879
3.6434586
3.5364852
3.4209368
3.2971035
3.1652956
3.0258426
2.8790924
2.7254104
2.5651781
2.3987926
2.2266649
2.0492194
1.8668925
1.6801313
1.4893926
1.2951421
1.0978525
0.89800282
0.69607732
0.49256397
0.28795352
0.082738255
-0.12258908
-0.3275365
-0.53161388
-0.73433403
-0.93521385
-1.1337754
-1.3295468
-1.5220638
-1.71087
-1.8955186
-2.0755731
-2.2506081
-2.4202105
-2.5839803
-2.7415315
-2.8924929
-3.0365091
-3.1732412
-3.3023675
-3.4235842
-3.5366062
-3.6411679
-3.7370234
-3.8239474
-3.9017354
-3.9702049
-4.0291946
-4.0785661
-4.1182033
-4.148013
-4.1679252
-4.1778929
-4.1778929
-4.1679252
-4.148013
-4.1182033
-4.0785661
-4.0291946
-3.9702049
-3.9017355
-3.8239474
-3.7370234
-3.6411679
-3.5366062
-3.4235842
-3.3023675
-3.1732412
-3.0365091
-2.8924929
-2.7415315
-2.5839803
-2.4202105
-2.2506081
-2.0755731
-1.8955187
-1.71087
-1.5220638
-1.3295468
-1.1337754
-0.93521385
-0.73433403
-0.53161388
-0.3275365
-0.12258908
0.082738254
0.28795351
0.49256397
0.69607732
0.89800282
1.0978524
1.2951421
1.4893926
1.6801313
1.8668925
2.0492194
2.2266649
2.3987926
2.5651781
2.7254104
2.8790924
3.0258426
3.1652956
3.2971035
3.4209368
3.5364852
3.6434586
3.7415879
3.8306259
3.9103479
3.9805524
4.0410618
4.0917226
4.1324066
4.1630103
4.1834561
4.193692
4.3103298
4.2998028
4.2787757
4.247302
4.2054619
4.1533618
4.0911342
4.0189371
3.9369538
3.8453918
3.7444827
3.6344814
3.5156651
3.3883326
3.2528036
3.1094174
2.9585324
2.8005246
2.6357869
2.4647278
2.2877704
2.1053514
1.9179195
1.7259346
1.5298667
1.3301943
1.1274035
0.92198671
0.71444148
0.50526929
0.29497434
0.084062403
-0.12696038
-0.33758868
-0.54731907
-0.75565124
-0.96208905
-1.1661417
-1.3673247
-1.5651611
-1.7591825
-1.94893
-2.1339552
-2.3138214
-2.4881044
-2.6563932
-2.8182914
-2.9734179
-3.1214076
-3.2619121
-3.394601
-3.5191623
-3.635303
-3.7427501
-3.841251
-3.930574
-4.0105092
-4.0808687
-4.1414869
-4.1922215
-4.232953
-4.2635858
-4.2840478
-4.2942908
-4.2942908
-4.2840478
-4.2635858
-4.232953
-4.1922215
-4.1414869
-4.0808687
-4.0105092
-3.930574
-3.841251
-3.7427501
-3.635303
-3.5191623
-3.394601
-3.2619121
-3.1214076
-2.9734179
-2.8182914
-2.6563932
-2.4881044
-2.3138214
-2.1339552
-1.94893
-1.7591825
-1.5651611
-1.3673247
-1.1661417
-0.96208905
-0.75565124
-0.54731908
-0.33758868
-0.12696038
0.084062402
0.29497434
0.50526929
0.71444148
0.92198671
1.1274035
1.3301943
1.5298667
1.7259346
1.9179195
2.1053514
2.2877704
2.4647278
2.6357869
2.8005246
2.9585324
3.1094174
3.2528036
3.3883326
3.5156651
3.6344814
3.7444827
3.8453918
3.9369538
4.0189371
4.0911342
4.1533618
4.2054619
4.247302
4.2787757
4.2998028
4.3103298
4.4373416
4.4264972
4.4048361
4.3724136
4.3293126
4.2756431
4.2115418
4.137172
4.0527229
3.9584089
3.8544693
3.7411669
3.6187881
3.4876413
3.3480563
3.2003834
3.0449921
2.8822702
2.7126231
2.5364718
2.3542525
2.1664152
1.9734223
1.7757477
1.5738754
1.3682981
1.1595165
0.94803747
0.73437314
0.51903963
0.30255579
0.085442017
-0.13178096
-0.3485933
-0.56447719
-0.778918
-0.99140546
-1.2014348
-1.4085077
-1.6121338
-1.8118313
-2.0071282
-2.1975634
-2.3826877
-2.5620648
-2.735272
-2.9019015
-3.0615612
-3.2138754
-3.3584859
-3.4950525
-3.6232542
-3.7427894
-3.8533772
-3.9547576
-4.046692
-4.1289644
-4.2013812
-4.2637721
-4.3159904
-4.3579132
-4.389442
-4.4105024
-4.4210451
-4.4210451
-4.4105024
-4.389442
-4.3579132
-4.3159904
-4.2637721
-4.2013812
-4.1289644
-4.046692
-3.9547576
-3.8533772
-3.7427894
-3.6232542
-3.4950525
-3.3584859
-3.2138754
-3.0615612
-2.9019015
-2.735272
-2.5620648
-2.3826877
-2.1975634
-2.0071282
-1.8118313
-1.6121338
-1.4085077
-1.2014348
-0.99140546
-0.778918
-0.56447719
-0.3485933
-0.13178096
0.085442016
0.30255579
0.51903963
0.73437314
0.94803747
1.1595165
1.3682981
1.5738754
1.7757477
1.9734223
2.1664152
2.3542525
2.5364718
2.7126231
2.8822702
3.0449921
3.2003834
3.3480563
3.4876413
3.6187881
3.7411669
3.8544693
3.9584089
4.0527229
4.137172
4.2115418
4.2756431
4.3293126
4.3724136
4.4048361
4.4264972
4.4373416
4.5750335
4.5638444
4.5414949
4.5080422
4.4635721
4.4081985
4.3420629
4.2653342
4.1782083
4.0809069
3.9736774
3.8567921
3.7305467
3.5952603
3.4512737
3.2989491
3.1386682
2.970832
2.7958588
2.6141836
2.4262569
2.2325431
2.0335194
1.8296748
1.6215087
1.4095293
1.1942527
0.97620181
0.75590441
0.53389252
0.31070081
0.0868655
-0.13707686
-0.3605908
-0.5831429
-0.80420308
-1.0232458
-1.2397511
-1.453206
-1.6631053
-1.8689527
-2.0702623
-2.2665592
-2.4573806
-2.6422771
-2.8208133
-2.9925692
-3.1571408
-3.3141408
-3.4632003
-3.6039688
-3.7361152
-3.8593288
-3.97332
-4.0778206
-4.172585
-4.2573901
-4.3320365
-4.3963485
-4.4501748
-4.4933887
-4.5258885
-4.5475976
-4.5584649
-4.5584649
-4.5475976
-4.5258885
-4.4933887
-4.4501748
-4.3963485
-4.3320365
-4.2573901
-4.172585
-4.0778206
-3.97332
-3.8593288
-3.7361152
-3.6039688
-3.4632003
-3.3141408
-3.1571408
-2.9925692
-2.8208133
-2.6422771
-2.4573806
-2.2665592
-2.0702623
-1.8689527
-1.6631053
-1.453206
-1.2397511
-1.0232458
-0.80420309
-0.5831429
-0.3605908
-0.13707686
0.086865498
0.31070081
0.53389252
0.75590441
0.9762018
1.1942527
1.4095293
1.6215087
1.8296748
2.0335194
2.2325431
2.4262569
2.6141836
2.7958588
2.970832
3.1386682
3.2989491
3.4512737
3.5952602
3.7305467
3.8567921
3.9736774
4.0809069
4.1782083
4.2653342
4.3420629
4.4081985
4.4635721
4.5080422
4.5414949
4.5638444
4.5750335
4.7237373
4.7121753
4.689081
4.6545139
4.6085627
4.5513457
4.4830095
4.4037292
4.3137079
4.2131754
4.1023881
3.9816279
3.8512014
3.711439
3.5626936
3.4053401
3.2397738
3.0664093
2.8856798
2.6980351
2.5039409
2.3038775
2.0983381
1.8878281
1.6728633
1.4539688
1.2316776
1.0065294
0.77906924
0.5498461
0.31941179
0.088319497
-0.14287707
-0.37362569
-0.60337613
-0.83158166
-1.0577003
-1.2811959
-1.5015392
-1.7182095
-1.9306949
-2.1384943
-2.3411179
-2.5380885
-2.7289424
-2.9132307
-3.09052
-3.2603933
-3.4224515
-3.5763135
-3.7216176
-3.8580223
-3.9852068
-4.1028721
-4.2107414
-4.3085609
-4.3961004
-4.4731539
-4.53954
-4.5951024
-4.6397102
-4.6732584
-4.6956678
-4.7068858
-4.7068858
-4.6956678
-4.6732584
-4.6397102
-4.5951024
-4.53954
-4.4731539
-4.3961004
-4.3085609
-4.2107414
-4.1028721
-3.9852068
-3.8580223
-3.7216176
-3.5763135
-3.4224515
-3.2603934
-3.09052
-2.9132307
-2.7289424
-2.5380885
-2.3411179
-2.1384943
-1.9306949
-1.7182095
-1.5015392
-1.2811959
-1.0577003
-0.83158167
-0.60337613
-0.37362569
-0.14287707
0.088319495
0.31941179
0.5498461
0.77906924
1.0065294
1.2316776
1.4539688
1.6728633
1.8878281
2.0983381
2.3038775
2.5039409
2.6980351
2.8856798
3.0664093
3.2397738
3.4053401
3.5626936
3.711439
3.8512014
3.9816279
4.1023881
4.2131754
4.3137079
4.4037292
4.4830095
4.5513457
4.6085627
4.6545139
4.689081
4.7121753
4.7237373
4.8838117
4.8718475
4.84795
4.8121809
4.7646326
4.7054275
4.6347183
4.5526867
4.4595435
4.3555273
4.2409042
4.1159669
3.9810334
3.8364465
3.6825723
3.5197994
3.3485376
3.1692169
2.9822858
2.7882105
2.5874732
2.3805711
2.168015
1.9503276
1.7280427
1.5017034
1.2718608
1.039073
0.80390322
0.56691896
0.32869033
0.089788915
-0.14921375
-0.3877469
-0.62524238
-0.86113565
-1.0948671
-1.325883
-1.5536372
-1.7775918
-1.9972184
-2.2119995
-2.4214294
-2.6250153
-2.8222784
-3.012755
-3.1959973
-3.3715749
-3.539075
-3.6981042
-3.8482885
-3.9892751
-4.1207324
-4.2423511
-4.3538453
-4.4549524
-4.5454345
-4.6250784
-4.6936967
-4.7511274
-4.7972354
-4.8319118
-4.8550749
-4.8666702
-4.8666702
-4.8550749
-4.8319118
-4.7972354
-4.7511274
-4.6936967
-4.6250785
-4.5454345
-4.4549524
-4.3538453
-4.2423511
-4.1207324
-3.9892751
-3.8482885
-3.6981042
-3.539075
-3.3715749
-3.1959974
-3.012755
-2.8222784
-2.6250153
-2.4214295
-2.2119995
-1.9972184
-1.7775918
-1.5536372
-1.325883
-1.0948671
-0.86113565
-0.62524238
-0.3877469
-0.14921375
0.089788912
0.32869032
0.56691895
0.80390322
1.039073
1.2718608
1.5017034
1.7280427
1.9503276
2.168015
2.3805711
2.5874732
2.7882105
2.9822858
3.1692169
3.3485376
3.5197994
3.6825723
3.8364465
3.9810334
4.1159669
4.2409042
4.3555273
4.4595435
4.5526867
4.6347183
4.7054275
4.7646326
4.8121809
4.84795
4.8718475
4.8838117
5.055643
5.0432462
5.0184847
4.9814228
4.9321565
4.8708133
4.7975519
4.7125615
4.616061
4.5082988
4.3895515
4.2601232
4.1203446
3.9705716
3.8111848
3.6425875
3.4652055
3.2794847
3.0858908
2.8849072
2.6770342
2.4627873
2.2426957
2.0173012
1.7871568
1.5528248
1.3148759
1.0738878
0.83044341
0.58512981
0.33853682
0.091255595
-0.15612275
-0.40300813
-0.64881311
-0.89295409
-1.1348525
-1.3739362
-1.6096405
-1.8414092
-2.0686965
-2.2909672
-2.5076985
-2.7183811
-2.9225198
-3.119635
-3.309264
-3.4909612
-3.6642999
-3.8288729
-3.9842935
-4.1301963
-4.2662382
-4.3920992
-4.5074831
-4.6121182
-4.7057581
-4.7881819
-4.8591956
-4.9186315
-4.9663494
-5.0022367
-5.0262088
-5.038209
-5.038209
-5.0262088
-5.0022367
-4.9663494
-4.9186315
-4.8591956
-4.7881819
-4.7057581
-4.6121182
-4.5074831
-4.3920992
-4.2662382
-4.1301963
-3.9842935
-3.8288729
-3.6642999
-3.4909612
-3.309264
-3.119635
-2.9225198
-2.7183811
-2.5076986
-2.2909672
-2.0686965
-1.8414092
-1.6096405
-1.3739362
-1.1348525
-0.8929541
-0.64881312
-0.40300813
-0.15612276
0.091255591
0.33853681
0.58512981
0.83044341
1.0738878
1.3148759
1.5528248
1.7871568
2.0173012
2.2426957
2.4627873
2.6770342
2.8849072
3.0858908
3.2794847
3.4652055
3.6425875
3.8111848
3.9705716
4.1203446
4.2601232
4.3895515
4.5082988
4.616061
4.7125615
4.7975519
4.8708133
4.9321565
4.9814228
5.0184847
5.0432462
5.055643
5.239646
5.2267849
5.2010962
5.1626468
5.1115369
5.0478993
4.9718994
4.883734
4.7836316
4.6718506
4.548679
4.4144335
4.2694582
4.1141236
3.9488254
3.7739833
3.5900397
3.3974583
3.1967229
2.9883357
2.7728162
2.5506996
2.322535
2.0888846
1.8503219
1.6074299
1.3608004
1.1110318
0.85872804
0.60449733
0.34895042
0.092699411
-0.16364371
-0.41946823
-0.67416619
-0.92713367
-1.177772
-1.4254891
-1.6697006
-1.9098312
-2.1453159
-2.3756011
-2.6001457
-2.8184224
-3.0299188
-3.2341385
-3.4306022
-3.6188488
-3.7984362
-3.9689428
-4.1299677
-4.2811327
-4.422082
-4.5524841
-4.6720319
-4.7804438
-4.8774641
-4.9628641
-5.0364423
-5.0980249
-5.1474665
-5.1846504
-5.2094885
-5.2219223
-5.2219223
-5.2094885
-5.1846504
-5.1474665
-5.0980249
-5.0364423
-4.9628641
-4.8774641
-4.7804438
-4.6720319
-4.5524841
-4.422082
-4.2811327
-4.1299677
-3.9689428
-3.7984362
-3.6188488
-3.4306022
-3.2341385
-3.0299188
-2.8184224
-2.6001457
-2.3756011
-2.1453159
-1.9098312
-1.6697006
-1.4254891
-1.177772
-0.92713367
-0.6741662
-0.41946823
-0.16364372
0.092699406
0.34895041
0.60449733
0.85872804
1.1110318
1.3608004
1.6074299
1.8503219
2.0888846
2.322535
2.5506996
2.7728162
2.9883357
3.1967229
3.3974583
3.5900397
3.7739833
3.9488254
4.1141236
4.2694582
4.4144335
4.548679
4.6718506
4.7836316
4.883734
4.9718994
5.0478993
5.1115369
5.1626468
5.2010962
5.2267849
5.239646
5.4362649
5.4229065
5.3962247
5.3562893
5.3032047
5.2371098
5.158177
5.0666118
4.9626523
4.8465683
4.71866
4.5792576
4.4287198
4.2674326
4.0958082
3.9142838
3.7233199
3.5233992
3.3150249
3.0987196
2.8750232
2.644492
2.4076967
2.1652212
1.9176607
1.6656208
1.4097152
1.1505649
0.88879622
0.62503973
0.35992853
0.094097031
-0.17182059
-0.43719165
-0.70138639
-0.96377921
-1.2237501
-1.4806857
-1.733981
-1.98304
-2.2272776
-2.4661203
-2.6990076
-2.9253933
-3.1447464
-3.3565526
-3.5603151
-3.7555558
-3.9418166
-4.1186602
-4.2856709
-4.4424563
-4.5886475
-4.7239003
-4.847896
-4.9603424
-5.0609741
-5.1495536
-5.2258716
-5.2897478
-5.3410311
-5.3796001
-5.4053636
-5.4182606
-5.4182606
-5.4053636
-5.3796001
-5.3410311
-5.2897478
-5.2258716
-5.1495536
-5.0609741
-4.9603424
-4.847896
-4.7239003
-4.5886475
-4.4424563
-4.2856709
-4.1186602
-3.9418166
-3.7555558
-3.5603151
-3.3565526
-3.1447464
-2.9253933
-2.6990076
-2.4661203
-2.2272776
-1.9830401
-1.733981
-1.4806857
-1.2237501
-0.96377922
-0.70138639
-0.43719166
-0.1718206
0.094097024
0.35992853
0.62503972
0.88879621
1.1505649
1.4097152
1.6656208
1.9176607
2.1652212
2.4076967
2.644492
2.8750232
3.0987196
3.3150249
3.5233992
3.7233199
3.9142838
4.0958082
4.2674326
4.4287198
4.5792576
4.71866
4.8465683
4.9626523
5.0666118
5.158177
5.2371098
5.3032047
5.3562893
5.3962247
5.4229065
5.4362649
5.6459748
5.6320846
5.6043408
5.5628163
5.5076204
5.438898
5.3568295
5.2616295
5.1535469
5.0328634
4.8998925
4.754979
4.5984972
4.4308499
4.2524672
4.0638049
3.8653431
3.6575849
3.4410544
3.2162957
2.9838711
2.7443591
2.4983536
2.2464617
1.9893021
1.7275038
1.4617045
1.192549
0.92068747
0.64677423
0.3714662
0.09542142
-0.18070237
-0.45624916
-0.73056599
-1.0030043
-1.2729214
-1.5396816
-1.8026576
-2.0612317
-2.3147974
-2.5627599
-2.8045383
-3.0395662
-3.2672929
-3.487185
-3.6987269
-3.9014229
-4.0947972
-4.2783961
-4.451788
-4.6145654
-4.7663452
-4.9067698
-5.0355082
-5.1522566
-5.2567393
-5.3487094
-5.4279492
-5.4942713
-5.5475187
-5.587565
-5.6143154
-5.6277065