/*--------------------------------*- C++ -*----------------------------------*\
| =========                 |                                                 |
| \\      /  F ield         | OpenFOAM: The Open Source CFD Toolbox           |
|  \\    /   O peration     | Version:  2106                                  |
|   \\  /    A nd           | Website:  www.openfoam.com                      |
|    \\/     M anipulation  |                                                 |
\*---------------------------------------------------------------------------*/
FoamFile
{
    version     2.0;
    format      ascii;
    arch        "LSB;label=32;scalar=64";
    class       surfaceScalarField;
    location    "0.02";
    object      phi;
}
// * * * * * * * * * * * * * * * * * * * * * * * * * * * * * * * * * * * * * //

dimensions      [0 3 -1 0 0 0 0];

oriented        oriented;

internalField   nonuniform List<scalar> 
32512
(
4.8938055e-05
-4.8938055e-05
9.7749859e-05
-4.8811805e-05
0.00014630955
-4.8559691e-05
0.00019449203
-4.8182484e-05
0.00024217337
-4.7681335e-05
0.00028923114
-4.7057773e-05
0.00033554483
-4.6313692e-05
0.00038099618
-4.5451349e-05
0.00042546953
-4.4473347e-05
0.00046885216
-4.3382628e-05
0.00051103462
-4.2182459e-05
0.00055191103
-4.0876417e-05
0.0005913794
-3.9468371e-05
0.00062934187
-3.7962469e-05
0.00066570499
-3.636312e-05
0.00070037997
-3.4674973e-05
0.00073328287
-3.2902902e-05
0.00076433485
-3.1051982e-05
0.00079346233
-2.9127474e-05
0.00082059713
-2.71348e-05
0.00084567665
-2.5079529e-05
0.000868644
-2.2967349e-05
0.00088944806
-2.0804054e-05
0.00090804358
-1.859552e-05
0.00092439126
-1.6347684e-05
0.00093845779
-1.4066529e-05
0.00095021585
-1.175806e-05
0.00095964414
-9.4282888e-06
0.00096672735
-7.0832124e-06
0.00097145615
-4.728799e-06
0.00097382714
-2.3709872e-06
0.00097384264
-1.550051e-08
0.00097151113
2.3315041e-06
0.00096684626
4.6648749e-06
0.00095986752
6.9787433e-06
0.00095059985
9.26767e-06
0.00093907347
1.1526379e-05
0.00092532376
1.3749707e-05
0.00090939111
1.5932648e-05
0.00089132075
1.8070363e-05
0.00087116256
2.0158186e-05
0.00084897093
2.2191638e-05
0.0008248045
2.4166426e-05
0.00079872605
2.6078454e-05
0.00077080222
2.7923823e-05
0.00074110339
2.9698837e-05
0.00070970338
3.1400003e-05
0.00067667935
3.3024034e-05
0.0006421115
3.4567849e-05
0.00060608293
3.6028569e-05
0.00056867941
3.740352e-05
0.00052998918
3.8690229e-05
0.00049010276
3.9886422e-05
0.00044911274
4.099002e-05
0.00040711361
4.1999133e-05
0.00036420154
4.2912063e-05
0.00032047425
4.3727295e-05
0.00027603076
4.4443493e-05
0.00023097126
4.5059498e-05
0.00018539693
4.5574325e-05
0.00013940978
4.5987158e-05
9.3112428e-05
4.6297347e-05
4.660802e-05
4.6504408e-05
2.8150982e-13
4.6608019e-05
-4.6608019e-05
4.6608019e-05
-9.3112427e-05
4.6504408e-05
-0.00013940977
4.6297347e-05
-0.00018539693
4.5987158e-05
-0.00023097126
4.5574325e-05
-0.00027603076
4.5059498e-05
-0.00032047425
4.4443493e-05
-0.00036420154
4.3727295e-05
-0.00040711361
4.2912063e-05
-0.00044911274
4.1999133e-05
-0.00049010276
4.099002e-05
-0.00052998918
3.9886422e-05
-0.00056867941
3.8690229e-05
-0.00060608293
3.740352e-05
-0.0006421115
3.6028569e-05
-0.00067667935
3.4567849e-05
-0.00070970338
3.3024034e-05
-0.00074110339
3.1400003e-05
-0.00077080222
2.9698837e-05
-0.00079872605
2.7923823e-05
-0.0008248045
2.6078454e-05
-0.00084897092
2.4166426e-05
-0.00087116256
2.2191638e-05
-0.00089132075
2.0158186e-05
-0.00090939111
1.8070363e-05
-0.00092532376
1.5932648e-05
-0.00093907347
1.3749707e-05
-0.00095059985
1.1526379e-05
-0.00095986752
9.2676701e-06
-0.00096684626
6.9787433e-06
-0.00097151113
4.6648749e-06
-0.00097384264
2.3315041e-06
-0.00097382714
-1.5500481e-08
-0.00097145615
-2.3709872e-06
-0.00096672735
-4.728799e-06
-0.00095964414
-7.0832124e-06
-0.00095021585
-9.4282887e-06
-0.00093845779
-1.175806e-05
-0.00092439126
-1.4066529e-05
-0.00090804358
-1.6347684e-05
-0.00088944806
-1.859552e-05
-0.000868644
-2.0804054e-05
-0.00084567666
-2.2967349e-05
-0.00082059713
-2.5079529e-05
-0.00079346233
-2.71348e-05
-0.00076433485
-2.9127474e-05
-0.00073328287
-3.1051982e-05
-0.00070037997
-3.2902902e-05
-0.00066570499
-3.4674973e-05
-0.00062934187
-3.636312e-05
-0.0005913794
-3.7962469e-05
-0.00055191103
-3.9468371e-05
-0.00051103462
-4.0876417e-05
-0.00046885216
-4.2182459e-05
-0.00042546953
-4.3382628e-05
-0.00038099618
-4.4473347e-05
-0.00033554484
-4.5451349e-05
-0.00028923114
-4.6313692e-05
-0.00024217337
-4.7057773e-05
-0.00019449203
-4.7681335e-05
-0.00014630955
-4.8182484e-05
-9.774986e-05
-4.8559691e-05
-4.8938055e-05
-4.8811805e-05
-4.8938055e-05
4.9165974e-05
-9.8104029e-05
9.820508e-05
-9.7850911e-05
0.00014699084
-9.7345448e-05
0.00019539754
-9.6589188e-05
0.00024330065
-9.5584441e-05
0.00029057714
-9.433427e-05
0.00033710593
-9.2842477e-05
0.00038276817
-9.1113586e-05
0.00042744764
-8.9152822e-05
0.0004710311
-8.6966084e-05
0.00051340856
-8.4559924e-05
0.00055447366
-8.1941514e-05
0.00059412391
-7.9118617e-05
0.00063226099
-7.6099552e-05
0.00066879103
-7.2893157e-05
0.00070362481
-6.9508758e-05
0.00073667804
-6.5956127e-05
0.0007678715
-6.2245443e-05
0.00079713127
-5.8387252e-05
0.0008243889
-5.439243e-05
0.00084958151
-5.0272139e-05
0.00087265195
-4.6037788e-05
0.00089354889
-4.1700991e-05
0.0009122269
-3.7273529e-05
0.00092864652
-3.2767308e-05
0.00094277432
-2.8194321e-05
0.00095458286
-2.3566608e-05
0.0009640508
-1.8896221e-05
0.00097116277
-1.4195185e-05
0.00097590943
-9.4754632e-06
0.00097828737
-4.7489226e-06
0.00097829917
-2.7302542e-08
0.0009759529
4.6777745e-06
0.00097126272
9.3550551e-06
0.00096424817
1.3993295e-05
0.00095493429
1.8581552e-05
0.00094335147
2.3109196e-05
0.0009295353
2.7565879e-05
0.00091352638
3.1941568e-05
0.00089537018
3.6226562e-05
0.00087511685
4.0411513e-05
0.00085282105
4.4487441e-05
0.00082854173
4.8445745e-05
0.00080234197
5.2278215e-05
0.00077428875
5.5977037e-05
0.00074445278
5.9534807e-05
0.00071290826
6.2944527e-05
0.00067973268
6.6199609e-05
0.00064500665
6.9293882e-05
0.00060881364
7.222158e-05
0.00057123981
7.4977347e-05
0.00053237381
7.7556231e-05
0.00049230656
7.9953677e-05
0.00045113106
8.216552e-05
0.00040894221
8.4187983e-05
0.00036583661
8.6017662e-05
0.00032191238
8.7651523e-05
0.00027726898
8.9086896e-05
0.00023200701
9.032146e-05
0.00018622809
9.1353244e-05
0.00014003464
9.2180614e-05
9.3529714e-05
9.2802272e-05
4.6816876e-05
9.3217247e-05
2.8210095e-13
9.3424895e-05
-4.6816875e-05
9.3424895e-05
-9.3529714e-05
9.3217247e-05
-0.00014003464
9.2802272e-05
-0.00018622809
9.2180614e-05
-0.00023200701
9.1353244e-05
-0.00027726898
9.032146e-05
-0.00032191238
8.9086896e-05
-0.00036583661
8.7651523e-05
-0.00040894221
8.6017662e-05
-0.00045113106
8.4187983e-05
-0.00049230656
8.216552e-05
-0.00053237381
7.9953677e-05
-0.00057123981
7.7556231e-05
-0.00060881364
7.4977347e-05
-0.00064500665
7.222158e-05
-0.00067973268
6.9293882e-05
-0.00071290826
6.6199609e-05
-0.00074445278
6.2944527e-05
-0.00077428875
5.9534807e-05
-0.00080234197
5.5977038e-05
-0.00082854173
5.2278215e-05
-0.00085282105
4.8445745e-05
-0.00087511685
4.4487441e-05
-0.00089537018
4.0411513e-05
-0.00091352638
3.6226562e-05
-0.0009295353
3.1941568e-05
-0.00094335147
2.7565879e-05
-0.00095493429
2.3109196e-05
-0.00096424817
1.8581553e-05
-0.00097126272
1.3993295e-05
-0.0009759529
9.3550552e-06
-0.00097829917
4.6777745e-06
-0.00097828737
-2.7302483e-08
-0.00097590943
-4.7489225e-06
-0.00097116277
-9.4754631e-06
-0.0009640508
-1.4195185e-05
-0.00095458287
-1.8896221e-05
-0.00094277432
-2.3566608e-05
-0.00092864652
-2.8194321e-05
-0.0009122269
-3.2767308e-05
-0.00089354889
-3.7273529e-05
-0.00087265195
-4.1700991e-05
-0.00084958151
-4.6037788e-05
-0.0008243889
-5.0272139e-05
-0.00079713127
-5.439243e-05
-0.0007678715
-5.8387252e-05
-0.00073667804
-6.2245443e-05
-0.00070362481
-6.5956127e-05
-0.00066879103
-6.9508758e-05
-0.00063226099
-7.2893157e-05
-0.00059412391
-7.6099551e-05
-0.00055447366
-7.9118617e-05
-0.00051340856
-8.1941514e-05
-0.0004710311
-8.4559924e-05
-0.00042744764
-8.6966084e-05
-0.00038276817
-8.9152822e-05
-0.00033710593
-9.1113586e-05
-0.00029057714
-9.2842477e-05
-0.00024330065
-9.433427e-05
-0.00019539754
-9.5584441e-05
-0.00014699084
-9.6589188e-05
-9.820508e-05
-9.7345448e-05
-4.9165975e-05
-9.7850911e-05
-9.8104029e-05
4.9560079e-05
-0.00014766411
9.8992241e-05
-0.00014728307
0.00014816896
-0.00014652217
0.0001969635
-0.00014538373
0.00024525029
-0.00014387123
0.0002929053
-0.00014198928
0.00033980644
-0.00013974362
0.0003858339
-0.00013714105
0.00043087052
-0.00013418944
0.00047480211
-0.00013089767
0.00051751781
-0.00012727563
0.00055891039
-0.00012333409
0.00059887654
-0.00011908477
0.00063731715
-0.00011454017
0.0006741376
-0.00010971361
0.00070924797
-0.00010461913
0.00074256329
-9.9271445e-05
0.00077400373
-9.3685879e-05
0.00080349479
-8.7878312e-05
0.00083096747
-8.1865115e-05
0.00085635843
-7.5663093e-05
0.00087961006
-6.9289421e-05
0.00090067065
-6.2761584e-05
0.00091949444
-5.6097314e-05
0.00093604166
-4.9314535e-05
0.00095027864
-4.24313e-05
0.00096217777
-3.5465733e-05
0.00097171752
-2.8435976e-05
0.00097888246
-2.1360129e-05
0.0009836632
-1.4256199e-05
0.00098605633
-7.1420527e-06
0.00098606439
-3.5362976e-08
0.00098369571
7.0464526e-06
0.00097896448
1.4086292e-05
0.00097189045
2.1067323e-05
0.0009624989
2.7973098e-05
0.0009508205
3.4787595e-05
0.00093689115
4.1495237e-05
0.00092075179
4.808092e-05
0.00090244831
5.4530045e-05
0.00088203128
6.0828544e-05
0.00085955582
6.6962902e-05
0.00083508139
7.2920175e-05
0.0008086716
7.8688009e-05
0.00078039398
8.4254648e-05
0.00075031984
8.9608951e-05
0.00071852398
9.474039e-05
0.00068508453
9.9639057e-05
0.00065008274
0.00010429567
0.00061360277
0.00010870155
0.00057573147
0.00011284865
0.00053655817
0.00011672953
0.00049617452
0.00012033733
0.00045467425
0.00012366579
0.00041215299
0.00012670924
0.00036870809
0.00012946256
0.00032443842
0.0001319212
0.00027944418
0.00013408113
0.00023382677
0.00013593888
0.00018768853
0.00013749148
0.00014113267
0.00013873647
9.4263028e-05
0.00013967192
4.718392e-05
0.00014029635
2.8309982e-13
0.00014060881
-4.7183919e-05
0.00014060881
-9.4263027e-05
0.00014029635
-0.00014113267
0.00013967192
-0.00018768853
0.00013873647
-0.00023382677
0.00013749148
-0.00027944418
0.00013593888
-0.00032443842
0.00013408113
-0.00036870809
0.0001319212
-0.00041215299
0.00012946256
-0.00045467425
0.00012670924
-0.00049617452
0.00012366579
-0.00053655817
0.00012033733
-0.00057573147
0.00011672953
-0.00061360277
0.00011284865
-0.00065008274
0.00010870155
-0.00068508453
0.00010429567
-0.00071852398
9.9639057e-05
-0.00075031984
9.474039e-05
-0.00078039398
8.9608951e-05
-0.0008086716
8.4254649e-05
-0.00083508139
7.8688009e-05
-0.00085955582
7.2920175e-05
-0.00088203128
6.6962902e-05
-0.00090244831
6.0828545e-05
-0.00092075179
5.4530045e-05
-0.00093689115
4.808092e-05
-0.0009508205
4.1495237e-05
-0.0009624989
3.4787595e-05
-0.00097189045
2.7973098e-05
-0.00097896448
2.1067323e-05
-0.00098369571
1.4086292e-05
-0.00098606439
7.0464527e-06
-0.00098605633
-3.536289e-08
-0.0009836632
-7.1420526e-06
-0.00097888246
-1.4256199e-05
-0.00097171752
-2.1360128e-05
-0.00096217777
-2.8435976e-05
-0.00095027864
-3.5465733e-05
-0.00093604166
-4.24313e-05
-0.00091949444
-4.9314535e-05
-0.00090067065
-5.6097314e-05
-0.00087961006
-6.2761584e-05
-0.00085635843
-6.9289421e-05
-0.00083096747
-7.5663093e-05
-0.00080349479
-8.1865115e-05
-0.00077400373
-8.7878312e-05
-0.00074256329
-9.3685879e-05
-0.00070924797
-9.9271444e-05
-0.0006741376
-0.00010461913
-0.00063731715
-0.00010971361
-0.00059887654
-0.00011454017
-0.00055891039
-0.00011908477
-0.00051751781
-0.00012333409
-0.00047480211
-0.00012727563
-0.00043087052
-0.00013089767
-0.0003858339
-0.00013418944
-0.00033980644
-0.00013714105
-0.0002929053
-0.00013974362
-0.00024525029
-0.00014198928
-0.0001969635
-0.00014387123
-0.00014816896
-0.00014538373
-9.8992242e-05
-0.00014652217
-4.9560079e-05
-0.00014728307
-0.00014766411
5.0121526e-05
-0.00019778563
0.00010011365
-0.0001972752
0.00014984739
-0.0001962559
0.00019919452
-0.00019473086
0.00024802802
-0.00019270473
0.00029622245
-0.00019018371
0.0003436543
-0.00018717546
0.00039020238
-0.00018368913
0.00043574819
-0.00017973525
0.00048017625
-0.00017532573
0.00052337441
-0.00017047379
0.00056523423
-0.00016519392
0.00060565123
-0.00015950176
0.00064452519
-0.00015341412
0.0006817604
-0.00014694882
0.00071726594
-0.00014012467
0.00075095589
-0.00013296139
0.00078274952
-0.00012547951
0.00081257152
-0.00011770031
0.00084035212
-0.00010964571
0.00086602726
-0.00010133824
0.00088953873
-9.2800887e-05
0.00091083423
-8.4057086e-05
0.0009298675
-7.5130588e-05
0.00094659837
-6.6045402e-05
0.00096099278
-5.6825709e-05
0.00097302283
-4.7495788e-05
0.00098266679
-3.8079938e-05
0.00098990907
-2.8602404e-05
0.00099474018
-1.9087309e-05
0.00099715671
-9.5585795e-06
0.00099716123
-3.9882654e-08
0.00099476223
9.4454462e-06
0.00098997406
1.8874467e-05
0.00098281672
2.8224658e-05
0.00097331582
3.7473997e-05
0.0009615024
4.6601018e-05
0.00094741279
5.5584852e-05
0.00093108844
6.440527e-05
0.00091257577
7.3042716e-05
0.00089192596
8.1478347e-05
0.0008691948
8.9694063e-05
0.00084444245
9.7672529e-05
0.00081773326
0.0001053972
0.00078913556
0.00011285234
0.00075872149
0.00012002303
0.00072656671
0.00012689517
0.00069275027
0.0001334555
0.00065735434
0.00013969159
0.00062046404
0.00014559185
0.00058216721
0.00015114549
0.00054255419
0.00015634254
0.00050171766
0.00016117386
0.00045975239
0.00016563106
0.00041675507
0.00016970656
0.00037282412
0.00017339351
0.00032805951
0.00017668581
0.00028256252
0.00017957811
0.00023643565
0.00018206575
0.00018978237
0.00018414476
0.00014270698
0.00018581186
9.5314434e-05
0.00018706446
4.7710184e-05
0.0001879006
2.8447809e-13
0.000188319
-4.7710184e-05
0.000188319
-9.5314433e-05
0.0001879006
-0.00014270698
0.00018706446
-0.00018978237
0.00018581186
-0.00023643565
0.00018414476
-0.00028256252
0.00018206575
-0.0003280595
0.00017957811
-0.00037282412
0.00017668581
-0.00041675507
0.00017339351
-0.00045975239
0.00016970656
-0.00050171766
0.00016563106
-0.00054255419
0.00016117386
-0.00058216721
0.00015634254
-0.00062046404
0.00015114549
-0.00065735434
0.00014559185
-0.00069275027
0.00013969159
-0.00072656671
0.0001334555
-0.00075872149
0.00012689517
-0.00078913556
0.00012002303
-0.00081773325
0.00011285234
-0.00084444245
0.0001053972
-0.0008691948
9.7672529e-05
-0.00089192596
8.9694063e-05
-0.00091257576
8.1478347e-05
-0.00093108844
7.3042716e-05
-0.00094741279
6.440527e-05
-0.0009615024
5.5584853e-05
-0.00097331582
4.6601018e-05
-0.00098281672
3.7473997e-05
-0.00098997406
2.8224658e-05
-0.00099476223
1.8874468e-05
-0.00099716123
9.4454463e-06
-0.00099715671
-3.9882541e-08
-0.00099474018
-9.5585794e-06
-0.00098990907
-1.9087309e-05
-0.0009826668
-2.8602404e-05
-0.00097302283
-3.8079938e-05
-0.00096099278
-4.7495788e-05
-0.00094659837
-5.6825709e-05
-0.0009298675
-6.6045402e-05
-0.00091083423
-7.5130588e-05
-0.00088953873
-8.4057086e-05
-0.00086602726
-9.2800887e-05
-0.00084035212
-0.00010133824
-0.00081257152
-0.00010964571
-0.00078274952
-0.00011770031
-0.00075095589
-0.00012547951
-0.00071726594
-0.00013296139
-0.0006817604
-0.00014012467
-0.00064452519
-0.00014694882
-0.00060565123
-0.00015341412
-0.00056523423
-0.00015950176
-0.00052337441
-0.00016519392
-0.00048017625
-0.00017047379
-0.00043574819
-0.00017532573
-0.00039020238
-0.00017973525
-0.0003436543
-0.00018368913
-0.00029622245
-0.00018717546
-0.00024802802
-0.00019018371
-0.00019919452
-0.00019270473
-0.00014984739
-0.00019473086
-0.00010011366
-0.0001962559
-5.0121526e-05
-0.0001972752
-0.00019778563
5.0851469e-05
-0.0002486371
0.00010157163
-0.00024799536
0.00015202956
-0.00024671384
0.00020209517
-0.00024479647
0.00025163956
-0.00024224912
0.00030053542
-0.00023907957
0.00034865742
-0.00023529747
0.00039588261
-0.00023091431
0.00044209072
-0.00022594336
0.00048716459
-0.00022039959
0.00053099044
-0.00021429964
0.00057345823
-0.00020766171
0.00061446197
-0.0002005055
0.00065389997
-0.00019285212
0.00069167516
-0.000184724
0.00072769529
-0.0001761448
0.00076187319
-0.0001671393
0.000794127
-0.00015773332
0.00082438029
-0.00014795361
0.00085256232
-0.00013782774
0.00087860811
-0.00012738403
0.00090245861
-0.00011665139
0.0009240608
-0.00010565927
0.00094336774
-9.4437529e-05
0.00096033869
-8.3016356e-05
0.00097493913
-7.1426148e-05
0.00098714077
-5.9697425e-05
0.00099692156
-4.7860735e-05
0.0010042657
-3.5946559e-05
0.0010091636
-2.3985219e-05
0.0010116118
-1.2006797e-05
0.001011613
-4.1042212e-08
0.0010091757
1.1882703e-05
0.0010043146
2.3735586e-05
0.00099704999
3.54893e-05
0.00098740782
4.7116165e-05
0.00097541965
5.8589192e-05
0.00096112235
6.9882144e-05
0.00094455804
8.0969585e-05
0.00092577382
9.1826932e-05
0.00090482167
0.0001024305
0.00088175821
0.00011275752
0.00085664451
0.00012278623
0.0008295459
0.00013249581
0.00080053174
0.0001418665
0.00076967524
0.00015087953
0.00073705319
0.00015951721
0.00070274582
0.00016776287
0.00066683652
0.0001756009
0.00062941165
0.00018301672
0.00059056033
0.0001899968
0.00055037424
0.00019652864
0.00050894738
0.00020260072
0.0004663759
0.00020820255
0.00042275788
0.00021332458
0.00037819314
0.00021795825
0.00033278305
0.0002220959
0.00028663036
0.0002257308
0.00023983899
0.00022885712
0.00019251387
0.00023146988
0.00014476075
0.00023356498
9.6686073e-05
0.00023513914
4.839674e-05
0.00023618994
2.8623847e-13
0.00023671574
-4.839674e-05
0.00023671574
-9.6686073e-05
0.00023618994
-0.00014476075
0.00023513914
-0.00019251387
0.00023356498
-0.00023983899
0.00023146988
-0.00028663036
0.00022885712
-0.00033278305
0.0002257308
-0.00037819314
0.0002220959
-0.00042275788
0.00021795825
-0.0004663759
0.00021332458
-0.00050894738
0.00020820255
-0.00055037424
0.00020260072
-0.00059056033
0.00019652864
-0.00062941165
0.0001899968
-0.00066683652
0.00018301672
-0.00070274582
0.0001756009
-0.00073705319
0.00016776287
-0.00076967524
0.00015951721
-0.00080053174
0.00015087953
-0.0008295459
0.0001418665
-0.00085664451
0.00013249581
-0.00088175821
0.00012278623
-0.00090482167
0.00011275752
-0.00092577382
0.0001024305
-0.00094455804
9.1826932e-05
-0.00096112235
8.0969585e-05
-0.00097541965
6.9882144e-05
-0.00098740782
5.8589192e-05
-0.00099704999
4.7116165e-05
-0.0010043146
3.54893e-05
-0.0010091757
2.3735586e-05
-0.001011613
1.1882703e-05
-0.0010116118
-4.1042071e-08
-0.0010091636
-1.2006797e-05
-0.0010042657
-2.3985219e-05
-0.00099692156
-3.5946559e-05
-0.00098714077
-4.7860735e-05
-0.00097493913
-5.9697425e-05
-0.00096033869
-7.1426148e-05
-0.00094336774
-8.3016356e-05
-0.0009240608
-9.4437529e-05
-0.00090245861
-0.00010565927
-0.00087860811
-0.00011665139
-0.00085256232
-0.00012738403
-0.00082438029
-0.00013782774
-0.000794127
-0.00014795361
-0.00076187319
-0.00015773332
-0.00072769529
-0.0001671393
-0.00069167516
-0.0001761448
-0.00065389997
-0.000184724
-0.00061446197
-0.00019285212
-0.00057345823
-0.0002005055
-0.00053099044
-0.00020766171
-0.00048716459
-0.00021429964
-0.00044209072
-0.00022039959
-0.00039588261
-0.00022594336
-0.00034865742
-0.00023091431
-0.00030053542
-0.00023529747
-0.00025163956
-0.00023907957
-0.00020209517
-0.00024224912
-0.00015202956
-0.00024479647
-0.00010157163
-0.00024671384
-5.085147e-05
-0.00024799536
-0.0002486371
5.1751068e-05
-0.00030038817
0.00010336847
-0.00029961276
0.00015471895
-0.00029806432
0.00020567007
-0.00029574759
0.00025609063
-0.00029266968
0.00030585105
-0.00028883998
0.00035482376
-0.00028427018
0.0004028836
-0.00027897416
0.00044990819
-0.00027296795
0.00049577826
-0.00026626967
0.00054037804
-0.00025889941
0.00058359552
-0.0002508792
0.00062532284
-0.00024223282
0.00066545653
-0.00023298581
0.00070389779
-0.00022316527
0.00074055277
-0.00021279978
0.00077533278
-0.0002019193
0.0008081545
-0.00019055504
0.00083894019
-0.0001787393
0.00086761786
-0.00016650541
0.0008941214
-0.00015388757
0.00091839073
-0.00014092072
0.00094037191
-0.00012764044
0.00096001719
-0.00011408281
0.00097728512
-0.00010028429
0.00099214057
-8.6281603e-05
0.0010045548
-7.211163e-05
0.0010145053
-5.7811272e-05
0.0010219761
-4.3417355e-05
0.0010269574
-2.8966516e-05
0.0010294457
-1.4495095e-05
0.0010294437
-3.9039814e-08
0.0010269602
1.4366195e-05
0.0010220101
2.8685744e-05
0.0010146139
4.2885407e-05
0.0010047984
5.6931738e-05
0.00099259544
7.0792127e-05
0.00097804271
8.4434871e-05
0.00096118306
9.7829234e-05
0.00094206448
0.00011094551
0.00092073989
0.00012375508
0.00089726696
0.00013623046
0.00087170787
0.00014834532
0.00084412915
0.00016007454
0.00081460142
0.00017139422
0.00078319923
0.00018228173
0.00075000076
0.00019271568
0.00071508768
0.00020267595
0.00067854489
0.00021214369
0.00064046029
0.00022110132
0.0006009246
0.00022953249
0.00056003112
0.00023742212
0.0005178755
0.00024475633
0.00047455559
0.00025152246
0.00043017119
0.00025770899
0.00038482385
0.00026330559
0.00033861671
0.00026830304
0.00029165429
0.00027269323
0.00024404229
0.00027646912
0.00019588744
0.00027962473
0.00014729732
0.0002821551
9.8380159e-05
0.0002840563
4.9244696e-05
0.0002853254
2.8837938e-13
0.00028596043
-4.9244696e-05
0.00028596043
-9.8380158e-05
0.0002853254
-0.00014729732
0.0002840563
-0.00019588744
0.0002821551
-0.00024404229
0.00027962473
-0.00029165429
0.00027646912
-0.00033861671
0.00027269323
-0.00038482385
0.00026830304
-0.00043017119
0.00026330559
-0.00047455559
0.00025770899
-0.0005178755
0.00025152246
-0.00056003112
0.00024475633
-0.0006009246
0.00023742212
-0.00064046029
0.00022953249
-0.00067854489
0.00022110132
-0.00071508768
0.00021214369
-0.00075000076
0.00020267595
-0.00078319923
0.00019271568
-0.00081460142
0.00018228173
-0.00084412915
0.00017139422
-0.00087170787
0.00016007454
-0.00089726696
0.00014834532
-0.00092073989
0.00013623046
-0.00094206448
0.00012375508
-0.00096118306
0.00011094551
-0.00097804271
9.7829234e-05
-0.00099259544
8.4434871e-05
-0.0010047984
7.0792128e-05
-0.0010146139
5.6931738e-05
-0.0010220101
4.2885407e-05
-0.0010269602
2.8685744e-05
-0.0010294437
1.4366196e-05
-0.0010294457
-3.9039645e-08
-0.0010269574
-1.4495095e-05
-0.0010219761
-2.8966515e-05
-0.0010145053
-4.3417355e-05
-0.0010045548
-5.7811272e-05
-0.00099214057
-7.211163e-05
-0.00097728512
-8.6281603e-05
-0.00096001719
-0.00010028429
-0.00094037191
-0.00011408281
-0.00091839073
-0.00012764044
-0.0008941214
-0.00014092072
-0.00086761786
-0.00015388757
-0.00083894019
-0.00016650541
-0.0008081545
-0.0001787393
-0.00077533278
-0.00019055504
-0.00074055277
-0.0002019193
-0.00070389779
-0.00021279978
-0.00066545653
-0.00022316527
-0.00062532284
-0.00023298581
-0.00058359552
-0.00024223282
-0.00054037804
-0.0002508792
-0.00049577826
-0.00025889941
-0.00044990819
-0.00026626967
-0.0004028836
-0.00027296795
-0.00035482376
-0.00027897416
-0.00030585105
-0.00028427018
-0.00025609063
-0.00028883998
-0.00020567007
-0.00029266968
-0.00015471895
-0.00029574759
-0.00010336847
-0.00029806432
-5.1751069e-05
-0.00029961276
-0.00030038817
5.2821501e-05
-0.00035320967
0.00010550654
-0.0003522978
0.00015791908
-0.00035047685
0.00020992391
-0.00034775242
0.00026138709
-0.00034413286
0.00031217634
-0.00033962923
0.00036216143
-0.00033425527
0.0004112146
-0.00032802733
0.00045921092
-0.00032096427
0.00050602866
-0.00031308741
0.00055154963
-0.00030442038
0.00059565954
-0.0002949891
0.00063824827
-0.00028482156
0.00067921024
-0.00027394778
0.00071844461
-0.00026239964
0.0007558556
-0.00025021077
0.00079135271
-0.00023741641
0.0008248509
-0.00022405323
0.00085627086
-0.00021015925
0.0008855391
-0.00019577366
0.00091258818
-0.00018093665
0.00093735679
-0.00016568933
0.00095978986
-0.00015007352
0.0009798387
-0.00013413164
0.00099746098
-0.00011790657
0.0010126209
-0.00010144149
0.001025289
-8.4779759e-05
0.0010354425
-6.7964764e-05
0.0010430649
-5.1039808e-05
0.0010481464
-3.4047971e-05
0.0010506833
-1.7031987e-05
0.0010506784
-3.412887e-08
0.0010481407
1.6903908e-05
0.0010430853
3.3741118e-05
0.0010355334
5.043728e-05
0.0010255121
6.6953062e-05
0.0010130541
8.3250111e-05
0.00099819785
9.9291137e-05
0.00098098709
0.00011503999
0.00096147085
0.00013046175
0.0009397032
0.00014552274
0.00091574302
0.00016019064
0.00088965385
0.00017443449
0.00086150363
0.00018822476
0.00083136449
0.00020153336
0.00079931254
0.00021433368
0.00076542765
0.00022660057
0.0007297932
0.00023831039
0.00069249589
0.00024944101
0.00065362545
0.00025997175
0.0006132745
0.00026988344
0.00057153828
0.00027915834
0.00052851444
0.00028778018
0.00048430282
0.00029573407
0.00043900528
0.00030300653
0.00039272544
0.00030958542
0.00034556855
0.00031545993
0.00029764123
0.00032062055
0.00024905134
0.00032505902
0.00019990774
0.00032876833
0.00015032016
0.00033174268
0.00010039902
0.00033397745
5.0255215e-05
0.0003354692
2.9090631e-13
0.00033621565
-5.0255215e-05
0.00033621565
-0.00010039902
0.0003354692
-0.00015032016
0.00033397745
-0.00019990774
0.00033174268
-0.00024905134
0.00032876833
-0.00029764123
0.00032505902
-0.00034556855
0.00032062055
-0.00039272544
0.00031545993
-0.00043900528
0.00030958542
-0.00048430282
0.00030300653
-0.00052851444
0.00029573407
-0.00057153828
0.00028778018
-0.0006132745
0.00027915834
-0.00065362545
0.00026988344
-0.00069249588
0.00025997175
-0.0007297932
0.00024944101
-0.00076542765
0.00023831039
-0.00079931254
0.00022660057
-0.00083136449
0.00021433368
-0.00086150363
0.00020153336
-0.00088965385
0.00018822476
-0.00091574302
0.00017443449
-0.0009397032
0.00016019064
-0.00096147085
0.00014552274
-0.00098098709
0.00013046175
-0.00099819785
0.00011503999
-0.0010130541
9.9291137e-05
-0.0010255121
8.3250111e-05
-0.0010355334
6.6953062e-05
-0.0010430853
5.043728e-05
-0.0010481407
3.3741118e-05
-0.0010506784
1.6903908e-05
-0.0010506833
-3.4128672e-08
-0.0010481464
-1.7031987e-05
-0.0010430649
-3.404797e-05
-0.0010354425
-5.1039808e-05
-0.001025289
-6.7964764e-05
-0.0010126209
-8.4779759e-05
-0.00099746098
-0.00010144149
-0.0009798387
-0.00011790657
-0.00095978986
-0.00013413164
-0.00093735679
-0.00015007352
-0.00091258818
-0.00016568933
-0.0008855391
-0.00018093665
-0.00085627086
-0.00019577366
-0.0008248509
-0.00021015925
-0.00079135271
-0.00022405323
-0.0007558556
-0.00023741641
-0.00071844461
-0.00025021077
-0.00067921024
-0.00026239964
-0.00063824827
-0.00027394778
-0.00059565954
-0.00028482156
-0.00055154963
-0.0002949891
-0.00050602866
-0.00030442038
-0.00045921092
-0.00031308741
-0.0004112146
-0.00032096427
-0.00036216143
-0.00032802733
-0.00031217634
-0.00033425527
-0.00026138709
-0.00033962923
-0.00020992391
-0.00034413286
-0.00015791908
-0.00034775242
-0.00010550654
-0.00035047685
-5.2821502e-05
-0.0003522978
-0.00035320967
5.4064016e-05
-0.00040727369
0.00010798833
-0.00040622212
0.00016163368
-0.0004041222
0.00021486164
-0.00040098039
0.00026753511
-0.00039680633
0.00031951867
-0.00039161279
0.00037067901
-0.00038541562
0.00042088536
-0.00037823368
0.00047000983
-0.00037008875
0.00051792783
-0.00036100541
0.0005645184
-0.00035101095
0.00060966454
-0.00034013524
0.00065325357
-0.0003284106
0.00069517744
-0.00031587164
0.00073533295
-0.00030255515
0.00077362207
-0.0002884999
0.0008099522
-0.00027374653
0.00084423632
-0.00025833735
0.00087639325
-0.00024231619
0.00090634782
-0.00022572822
0.00093403098
-0.00020861982
0.00095938001
-0.00019103835
0.00098233855
-0.00017303206
0.0010028567
-0.00015464984
0.0010208913
-0.00013594113
0.0010364055
-0.00011695572
0.0010493694
-9.7743597e-05
0.0010597594
-7.835479e-05
0.0010675588
-5.8839227e-05
0.0010727574
-3.9246585e-05
0.0010753516
-1.9626143e-05
0.0010753441
-2.6647698e-08
0.0010727442
1.9503812e-05
0.0010675674
3.8917944e-05
0.0010598353
5.8169361e-05
0.0010495757
7.7212696e-05
0.0010368221
9.6003714e-05
0.0010216138
0.0001144994
0.0010039957
0.00013265807
0.00098401803
0.00015043943
0.00096173612
0.00016780465
0.0009372103
0.00018471645
0.00091050566
0.00020113913
0.00088169178
0.00021703864
0.00085084255
0.00023238259
0.00081803593
0.0002471403
0.0007833537
0.00026128279
0.00074688126
0.00027478283
0.00070870738
0.00028761489
0.00066892395
0.00029975518
0.00062762579
0.0003111816
0.00058491039
0.00032187374
0.00054087771
0.00033181286
0.00049562994
0.00034098184
0.00044927132
0.00034936515
0.00040190789
0.00035694885
0.00035364733
0.00036372049
0.00030459873
0.00036966914
0.00025487243
0.00037478532
0.0002045798
0.00037906096
0.00015383307
0.0003824894
0.00010274518
0.00038506534
5.1429564e-05
0.00038678482
2.9381591e-13
0.00038764521
-5.1429564e-05
0.00038764521
-0.00010274518
0.00038678482
-0.00015383307
0.00038506534
-0.0002045798
0.0003824894
-0.00025487243
0.00037906096
-0.00030459873
0.00037478532
-0.00035364733
0.00036966914
-0.00040190789
0.00036372049
-0.00044927132
0.00035694885
-0.00049562994
0.00034936515
-0.00054087771
0.00034098184
-0.00058491039
0.00033181286
-0.00062762579
0.00032187374
-0.00066892395
0.0003111816
-0.00070870738
0.00029975518
-0.00074688126
0.00028761489
-0.0007833537
0.00027478283
-0.00081803593
0.00026128279
-0.00085084255
0.0002471403
-0.00088169178
0.00023238259
-0.00091050566
0.00021703864
-0.0009372103
0.00020113913
-0.00096173612
0.00018471645
-0.00098401803
0.00016780465
-0.0010039957
0.00015043943
-0.0010216138
0.00013265807
-0.0010368221
0.0001144994
-0.0010495757
9.6003715e-05
-0.0010598353
7.7212697e-05
-0.0010675674
5.8169361e-05
-0.0010727442
3.8917944e-05
-0.0010753441
1.9503812e-05
-0.0010753516
-2.6647472e-08
-0.0010727574
-1.9626143e-05
-0.0010675588
-3.9246585e-05
-0.0010597594
-5.8839227e-05
-0.0010493694
-7.8354789e-05
-0.0010364055
-9.7743597e-05
-0.0010208913
-0.00011695572
-0.0010028567
-0.00013594113
-0.00098233855
-0.00015464984
-0.00095938001
-0.00017303206
-0.00093403098
-0.00019103835
-0.00090634782
-0.00020861982
-0.00087639325
-0.00022572822
-0.00084423632
-0.00024231619
-0.0008099522
-0.00025833735
-0.00077362207
-0.00027374653
-0.00073533295
-0.0002884999
-0.00069517744
-0.00030255515
-0.00065325358
-0.00031587164
-0.00060966454
-0.0003284106
-0.0005645184
-0.00034013524
-0.00051792783
-0.00035101095
-0.00047000983
-0.00036100541
-0.00042088536
-0.00037008875
-0.00037067901
-0.00037823368