/*--------------------------------*- C++ -*----------------------------------*\
| =========                 |                                                 |
| \\      /  F ield         | OpenFOAM: The Open Source CFD Toolbox           |
|  \\    /   O peration     | Version:  2106                                  |
|   \\  /    A nd           | Website:  www.openfoam.com                      |
|    \\/     M anipulation  |                                                 |
\*---------------------------------------------------------------------------*/
FoamFile
{
    version     2.0;
    format      ascii;
    arch        "LSB;label=32;scalar=64";
    class       volVectorField;
    location    "0.02";
    object      U;
}
// * * * * * * * * * * * * * * * * * * * * * * * * * * * * * * * * * * * * * //

dimensions      [0 1 -1 0 0 0 0];

internalField   nonuniform List<vector> 
16384
(
(0.0031340511 -0.0031298223 0)
(0.0093940672 -0.0031217483 0)
(0.015629849 -0.0031056249 0)
(0.021825324 -0.0030815014 0)
(0.027964542 -0.0030494515 0)
(0.034031723 -0.0030095728 0)
(0.040011309 -0.0029619866 0)
(0.045888006 -0.0029068371 0)
(0.051646833 -0.0028442908 0)
(0.057273162 -0.0027745359 0)
(0.062752765 -0.0026977812 0)
(0.068071851 -0.0026142555 0)
(0.073217108 -0.0025242062 0)
(0.078175735 -0.0024278985 0)
(0.082935482 -0.0023256144 0)
(0.087484677 -0.0022176513 0)
(0.091812259 -0.0021043207 0)
(0.095907804 -0.0019859473 0)
(0.099761552 -0.0018628674 0)
(0.10336442 -0.0017354279 0)
(0.10670805 -0.0016039849 0)
(0.10978477 -0.0014689021 0)
(0.11258768 -0.00133055 0)
(0.1151106 -0.0011893045 0)
(0.11734812 -0.0010455453 0)
(0.1192956 -0.00089965492 0)
(0.12094915 -0.00075201749 0)
(0.12230566 -0.00060301743 0)
(0.12336279 -0.00045303831 0)
(0.12411896 -0.00030246181 0)
(0.12457336 -0.00015166687 0)
(0.12472591 -1.0230499e-06 0)
(0.12457735 0.00014907401 0)
(0.12412905 0.00029830958 0)
(0.12338314 0.00044629722 0)
(0.12234249 0.00059268768 0)
(0.12101062 0.00073714524 0)
(0.11939174 0.00087934028 0)
(0.11749071 0.0010189526 0)
(0.11531299 0.0011556727 0)
(0.1128647 0.0012892022 0)
(0.11015251 0.0014192547 0)
(0.10718365 0.0015455555 0)
(0.10396591 0.0016678427 0)
(0.10050758 0.0017858669 0)
(0.096817429 0.0018993916 0)
(0.092904693 0.0020081936 0)
(0.088779042 0.0021120625 0)
(0.084450555 0.0022108011 0)
(0.079929689 0.0023042255 0)
(0.075227259 0.0023921645 0)
(0.070354406 0.0024744599 0)
(0.065322578 0.0025509663 0)
(0.0601435 0.0026215505 0)
(0.054829152 0.0026860919 0)
(0.049391742 0.0027444816 0)
(0.043843684 0.0027966228 0)
(0.038197575 0.00284243 0)
(0.03246617 0.002881829 0)
(0.026662364 0.0029147568 0)
(0.020799164 0.0029411612 0)
(0.014889673 0.0029610006 0)
(0.0089470651 0.0029742441 0)
(0.0029845663 0.002980871 0)
(-0.0029845662 0.002980871 0)
(-0.008947065 0.0029742441 0)
(-0.014889673 0.0029610006 0)
(-0.020799164 0.0029411612 0)
(-0.026662364 0.0029147568 0)
(-0.03246617 0.002881829 0)
(-0.038197575 0.00284243 0)
(-0.043843684 0.0027966228 0)
(-0.049391742 0.0027444816 0)
(-0.054829152 0.0026860919 0)
(-0.0601435 0.0026215505 0)
(-0.065322578 0.0025509663 0)
(-0.070354406 0.0024744599 0)
(-0.075227259 0.0023921645 0)
(-0.079929689 0.0023042255 0)
(-0.084450555 0.0022108011 0)
(-0.088779042 0.0021120625 0)
(-0.092904693 0.0020081936 0)
(-0.096817428 0.0018993916 0)
(-0.10050758 0.0017858669 0)
(-0.10396591 0.0016678427 0)
(-0.10718365 0.0015455555 0)
(-0.11015251 0.0014192547 0)
(-0.1128647 0.0012892022 0)
(-0.11531299 0.0011556727 0)
(-0.11749071 0.0010189526 0)
(-0.11939174 0.00087934028 0)
(-0.12101062 0.00073714524 0)
(-0.12234249 0.00059268768 0)
(-0.12338314 0.00044629723 0)
(-0.12412905 0.00029830958 0)
(-0.12457735 0.00014907402 0)
(-0.12472591 -1.023048e-06 0)
(-0.12457336 -0.00015166687 0)
(-0.12411896 -0.00030246181 0)
(-0.12336279 -0.0004530383 0)
(-0.12230566 -0.00060301743 0)
(-0.12094915 -0.00075201749 0)
(-0.1192956 -0.00089965491 0)
(-0.11734812 -0.0010455453 0)
(-0.1151106 -0.0011893045 0)
(-0.11258768 -0.00133055 0)
(-0.10978477 -0.0014689021 0)
(-0.10670805 -0.0016039849 0)
(-0.10336442 -0.0017354279 0)
(-0.099761552 -0.0018628674 0)
(-0.095907805 -0.0019859473 0)
(-0.091812259 -0.0021043207 0)
(-0.087484677 -0.0022176513 0)
(-0.082935482 -0.0023256144 0)
(-0.078175735 -0.0024278985 0)
(-0.073217108 -0.0025242062 0)
(-0.068071851 -0.0026142555 0)
(-0.062752765 -0.0026977812 0)
(-0.057273162 -0.0027745359 0)
(-0.051646833 -0.0028442908 0)
(-0.045888006 -0.0029068371 0)
(-0.040011309 -0.0029619866 0)
(-0.034031723 -0.0030095728 0)
(-0.027964542 -0.0030494515 0)
(-0.021825325 -0.0030815014 0)
(-0.01562985 -0.0031056249 0)
(-0.0093940673 -0.0031217483 0)
(-0.0031340512 -0.0031298223 0)
(0.0031486483 -0.0094005296 0)
(0.0094378193 -0.0093762772 0)
(0.015702638 -0.0093278466 0)
(0.021926952 -0.009255386 0)
(0.028094733 -0.0091591165 0)
(0.034190126 -0.0090393317 0)
(0.040197495 -0.0088963956 0)
(0.046101474 -0.0087307417 0)
(0.051887008 -0.0085428703 0)
(0.0575394 -0.0083333467 0)
(0.063044354 -0.0081027984 0)
(0.068388013 -0.0078519123 0)
(0.073557001 -0.0075814322 0)
(0.078538459 -0.0072921549 0)
(0.083320078 -0.0069849272 0)
(0.087890132 -0.0066606425 0)
(0.092237512 -0.0063202369 0)
(0.096351744 -0.0059646856 0)
(0.10022302 -0.005594999 0)
(0.10384223 -0.0052122191 0)
(0.10720097 -0.0048174153 0)
(0.11029153 -0.0044116807 0)
(0.11310699 -0.003996128 0)
(0.11564114 -0.0035718861 0)
(0.11788855 -0.0031400957 0)
(0.11984456 -0.0027019059 0)
(0.12150526 -0.0022584705 0)
(0.12286754 -0.001810944 0)
(0.12392905 -0.0013604787 0)
(0.1246882 -0.0009082211 0)
(0.12514419 -0.00045530971 0)
(0.12529696 -2.8716981e-06 0)
(0.1251472 0.00044799174 0)
(0.12469633 0.00089619456 0)
(0.12394651 0.001340656 0)
(0.12290061 0.0017803286 0)
(0.12156216 0.0022141951 0)
(0.11993541 0.0026412642 0)
(0.11802523 0.0030605742 0)
(0.11583713 0.0034711956 0)
(0.11337725 0.0038722326 0)
(0.11065229 0.0042628245 0)
(0.10766953 0.004642147 0)
(0.1044368 0.0050094131 0)
(0.10096241 0.0053638743 0)
(0.097255185 0.0057048205 0)
(0.093324411 0.006031581 0)
(0.0891798 0.0063435244 0)
(0.084831478 0.006640059 0)
(0.080289951 0.006920632 0)
(0.075566082 0.0071847299 0)
(0.070671067 0.0074318779 0)
(0.065616402 0.007661639 0)
(0.060413867 0.0078736141 0)
(0.055075492 0.0080674407 0)
(0.049613539 0.0082427924 0)
(0.044040477 0.0083993782 0)
(0.038368955 0.0085369419 0)
(0.032611785 0.0086552608 0)
(0.026781912 0.0087541459 0)
(0.020892401 0.0088334404 0)
(0.014956407 0.0088930197 0)
(0.00898716 0.0089327908 0)
(0.0029979403 0.0089526917 0)
(-0.0029979403 0.0089526917 0)
(-0.0089871599 0.0089327908 0)
(-0.014956407 0.0088930197 0)
(-0.020892401 0.0088334404 0)
(-0.026781912 0.0087541459 0)
(-0.032611785 0.0086552608 0)
(-0.038368955 0.0085369419 0)
(-0.044040477 0.0083993782 0)
(-0.049613539 0.0082427924 0)
(-0.055075492 0.0080674407 0)
(-0.060413867 0.0078736141 0)
(-0.065616402 0.007661639 0)
(-0.070671067 0.0074318779 0)
(-0.075566082 0.0071847299 0)
(-0.08028995 0.006920632 0)
(-0.084831478 0.006640059 0)
(-0.0891798 0.0063435244 0)
(-0.093324411 0.006031581 0)
(-0.097255185 0.0057048205 0)
(-0.10096241 0.0053638743 0)
(-0.1044368 0.0050094131 0)
(-0.10766953 0.004642147 0)
(-0.11065229 0.0042628245 0)
(-0.11337725 0.0038722326 0)
(-0.11583713 0.0034711956 0)
(-0.11802523 0.0030605742 0)
(-0.11993541 0.0026412642 0)
(-0.12156216 0.0022141951 0)
(-0.12290061 0.0017803286 0)
(-0.12394651 0.0013406561 0)
(-0.12469633 0.00089619457 0)
(-0.1251472 0.00044799174 0)
(-0.12529696 -2.8716926e-06 0)
(-0.12514419 -0.0004553097 0)
(-0.1246882 -0.0009082211 0)
(-0.12392905 -0.0013604787 0)
(-0.12286754 -0.001810944 0)
(-0.12150526 -0.0022584705 0)
(-0.11984456 -0.0027019059 0)
(-0.11788855 -0.0031400957 0)
(-0.11564114 -0.0035718861 0)
(-0.11310699 -0.003996128 0)
(-0.11029153 -0.0044116807 0)
(-0.10720097 -0.0048174153 0)
(-0.10384223 -0.0052122191 0)
(-0.10022302 -0.005594999 0)
(-0.096351744 -0.0059646856 0)
(-0.092237512 -0.0063202369 0)
(-0.087890133 -0.0066606425 0)
(-0.083320078 -0.0069849272 0)
(-0.078538459 -0.0072921549 0)
(-0.073557001 -0.0075814322 0)
(-0.068388013 -0.0078519123 0)
(-0.063044354 -0.0081027984 0)
(-0.0575394 -0.0083333467 0)
(-0.051887008 -0.0085428703 0)
(-0.046101474 -0.0087307417 0)
(-0.040197495 -0.0088963956 0)
(-0.034190126 -0.0090393316 0)
(-0.028094733 -0.0091591165 0)
(-0.021926952 -0.009255386 0)
(-0.015702638 -0.0093278466 0)
(-0.0094378194 -0.0093762772 0)
(-0.0031486484 -0.0094005296 0)
(0.0031738878 -0.015713756 0)
(0.0095134705 -0.015673211 0)
(0.0158285 -0.015592245 0)
(0.02210269 -0.015471106 0)
(0.028319881 -0.015310163 0)
(0.034464086 -0.015109909 0)
(0.040519543 -0.014870952 0)
(0.046470757 -0.014594016 0)
(0.052302552 -0.014279939 0)
(0.058000111 -0.013929665 0)
(0.06354902 -0.013544246 0)
(0.068935312 -0.013124828 0)
(0.074145503 -0.012672657 0)
(0.079166629 -0.012189065 0)
(0.083986284 -0.011675467 0)
(0.088592649 -0.011133358 0)
(0.092974524 -0.010564303 0)
(0.097121356 -0.0099699322 0)
(0.10102326 -0.0093519358 0)
(0.10467105 -0.0087120557 0)
(0.10805626 -0.0080520798 0)
(0.11117113 -0.0073738356 0)
(0.11400867 -0.0066791838 0)
(0.11656263 -0.0059700111 0)
(0.11882755 -0.005248225 0)
(0.12079871 -0.0045157462 0)
(0.12247221 -0.0037745036 0)
(0.12384489 -0.0030264275 0)
(0.12491438 -0.0022734441 0)
(0.12567911 -0.0015174695 0)
(0.12613825 -0.00076040483 0)
(0.12629175 -4.1310948e-06 0)
(0.12614031 0.00074949638 0)
(0.12568537 0.001498663 0)
(0.12492912 0.0022415745 0)
(0.12387442 0.0029764797 0)
(0.12252488 0.0037016744 0)
(0.12088476 0.004415501 0)
(0.11895898 0.0051163524 0)
(0.11675309 0.0058026749 0)
(0.11427329 0.0064729714 0)
(0.11152634 0.0071258035 0)
(0.10851958 0.0077597936 0)
(0.1052609 0.0083736268 0)
(0.10175869 0.0089660521 0)
(0.098021842 0.0095358833 0)
(0.094059719 0.010082 0)
(0.089882114 0.010603347 0)
(0.085499235 0.011098936 0)
(0.080921672 0.011567844 0)
(0.076160378 0.012009214 0)
(0.071226634 0.012422252 0)
(0.06613203 0.012806229 0)
(0.060888437 0.013160479 0)
(0.055507979 0.013484397 0)
(0.050003013 0.013777437 0)
(0.044386102 0.014039115 0)
(0.038669995 0.014269002 0)
(0.032867598 0.014466728 0)
(0.026991956 0.014631976 0)
(0.02105623 0.014764486 0)
(0.015073675 0.014864049 0)
(0.0090576199 0.01493051 0)
(0.0030214435 0.014963767 0)
(-0.0030214434 0.014963767 0)
(-0.0090576199 0.01493051 0)
(-0.015073675 0.014864049 0)
(-0.02105623 0.014764486 0)
(-0.026991955 0.014631976 0)
(-0.032867597 0.014466728 0)
(-0.038669995 0.014269002 0)
(-0.044386102 0.014039115 0)
(-0.050003012 0.013777437 0)
(-0.055507978 0.013484397 0)
(-0.060888437 0.013160479 0)
(-0.06613203 0.012806229 0)
(-0.071226634 0.012422252 0)
(-0.076160378 0.012009214 0)
(-0.080921672 0.011567844 0)
(-0.085499235 0.011098936 0)
(-0.089882114 0.010603347 0)
(-0.094059719 0.010082 0)
(-0.098021842 0.0095358833 0)
(-0.10175869 0.0089660521 0)
(-0.1052609 0.0083736268 0)
(-0.10851958 0.0077597936 0)
(-0.11152634 0.0071258035 0)
(-0.11427329 0.0064729714 0)
(-0.11675309 0.005802675 0)
(-0.11895898 0.0051163524 0)
(-0.12088476 0.004415501 0)
(-0.12252488 0.0037016744 0)
(-0.12387442 0.0029764797 0)
(-0.12492912 0.0022415745 0)
(-0.12568537 0.001498663 0)
(-0.12614031 0.00074949639 0)
(-0.12629175 -4.1310857e-06 0)
(-0.12613825 -0.00076040482 0)
(-0.12567911 -0.0015174694 0)
(-0.12491438 -0.002273444 0)
(-0.12384489 -0.0030264275 0)
(-0.12247221 -0.0037745036 0)
(-0.12079871 -0.0045157462 0)
(-0.11882755 -0.0052482249 0)
(-0.11656263 -0.0059700111 0)
(-0.11400867 -0.0066791837 0)
(-0.11117113 -0.0073738356 0)
(-0.10805626 -0.0080520798 0)
(-0.10467105 -0.0087120557 0)
(-0.10102326 -0.0093519358 0)
(-0.097121356 -0.0099699322 0)
(-0.092974524 -0.010564303 0)
(-0.088592649 -0.011133358 0)
(-0.083986284 -0.011675467 0)
(-0.079166629 -0.012189065 0)
(-0.074145503 -0.012672657 0)
(-0.068935312 -0.013124828 0)
(-0.06354902 -0.013544246 0)
(-0.058000111 -0.013929665 0)
(-0.052302552 -0.014279939 0)
(-0.046470757 -0.014594016 0)
(-0.040519543 -0.014870952 0)
(-0.034464086 -0.015109909 0)
(-0.028319881 -0.015310163 0)
(-0.02210269 -0.015471106 0)
(-0.0158285 -0.015592245 0)
(-0.0095134706 -0.015673211 0)
(-0.0031738879 -0.015713756 0)
(0.0032098441 -0.022088164 0)
(0.0096212445 -0.022031164 0)
(0.016007807 -0.02191734 0)
(0.022353058 -0.021747039 0)
(0.028640651 -0.021520782 0)
(0.034854414 -0.021239259 0)
(0.040978404 -0.020903328 0)
(0.046996947 -0.020514007 0)
(0.052894693 -0.020072474 0)
(0.058656655 -0.019580059 0)
(0.064268255 -0.019038237 0)
(0.069715366 -0.018448625 0)
(0.074984351 -0.017812971 0)
(0.080062101 -0.017133149 0)
(0.084936067 -0.016411151 0)
(0.089594299 -0.015649078 0)
(0.09402547 -0.014849129 0)
(0.098218911 -0.014013599 0)
(0.10216463 -0.013144862 0)
(0.10585333 -0.012245368 0)
(0.10927645 -0.01131763 0)
(0.11242616 -0.010364218 0)
(0.11529537 -0.009387748 0)
(0.1178778 -0.0083908719 0)
(0.12016789 -0.007376271 0)
(0.12216089 -0.0063466459 0)
(0.12385285 -0.0053047078 0)
(0.12524058 -0.0042531703 0)
(0.1263217 -0.0031947412 0)
(0.1270946 -0.0021321141 0)
(0.12755846 -0.0010679612 0)
(0.12771323 -4.9255031e-06 0)
(0.12755962 0.0010543863 0)
(0.12709909 0.0021074146 0)
(0.12633385 0.0031516433 0)
(0.12526682 0.0041846125 0)
(0.12390162 0.0052039253 0)
(0.12224258 0.0062072514 0)
(0.12029469 0.0071923314 0)
(0.11806356 0.0081569816 0)
(0.11555545 0.0090990978 0)
(0.11277722 0.010016658 0)
(0.10973628 0.010907727 0)
(0.10644063 0.011770457 0)
(0.10289874 0.012603089 0)
(0.099119629 0.013403957 0)
(0.095112752 0.014171486 0)
(0.090888019 0.014904196 0)
(0.086455757 0.015600697 0)
(0.081826677 0.016259693 0)
(0.077011856 0.01687998 0)
(0.072022704 0.017460444 0)
(0.066870941 0.018000062 0)
(0.061568569 0.018497898 0)
(0.056127848 0.018953103 0)
(0.050561273 0.019364912 0)
(0.044881545 0.019732644 0)
(0.03910155 0.020055698 0)
(0.033234336 0.020333555 0)
(0.027293091 0.020565772 0)
(0.021291116 0.020751981 0)
(0.01524181 0.020891892 0)
(0.0091586447 0.020985286 0)
(0.0030551424 0.021032019 0)
(-0.0030551423 0.021032019 0)
(-0.0091586446 0.020985286 0)
(-0.01524181 0.020891892 0)
(-0.021291116 0.020751981 0)
(-0.02729309 0.020565772 0)
(-0.033234336 0.020333556 0)
(-0.03910155 0.020055698 0)
(-0.044881545 0.019732644 0)
(-0.050561273 0.019364912 0)
(-0.056127848 0.018953103 0)
(-0.061568569 0.018497898 0)
(-0.066870941 0.018000062 0)
(-0.072022704 0.017460444 0)
(-0.077011856 0.01687998 0)
(-0.081826677 0.016259693 0)
(-0.086455757 0.015600697 0)
(-0.090888019 0.014904196 0)
(-0.095112751 0.014171486 0)
(-0.099119629 0.013403957 0)
(-0.10289874 0.012603089 0)
(-0.10644063 0.011770457 0)
(-0.10973628 0.010907727 0)
(-0.11277722 0.010016658 0)
(-0.11555545 0.0090990978 0)
(-0.11806356 0.0081569816 0)
(-0.12029469 0.0071923314 0)
(-0.12224258 0.0062072514 0)
(-0.12390162 0.0052039253 0)
(-0.12526682 0.0041846125 0)
(-0.12633385 0.0031516433 0)
(-0.12709909 0.0021074146 0)
(-0.12755962 0.0010543863 0)
(-0.12771323 -4.9254903e-06 0)
(-0.12755846 -0.0010679611 0)
(-0.1270946 -0.0021321141 0)
(-0.1263217 -0.0031947412 0)
(-0.12524058 -0.0042531703 0)
(-0.12385285 -0.0053047078 0)
(-0.12216089 -0.0063466459 0)
(-0.12016789 -0.007376271 0)
(-0.1178778 -0.0083908719 0)
(-0.11529537 -0.009387748 0)
(-0.11242616 -0.010364218 0)
(-0.10927645 -0.01131763 0)
(-0.10585333 -0.012245368 0)
(-0.10216463 -0.013144862 0)
(-0.098218911 -0.014013599 0)
(-0.094025471 -0.014849129 0)
(-0.089594299 -0.015649078 0)
(-0.084936067 -0.016411151 0)
(-0.080062101 -0.017133149 0)
(-0.074984352 -0.017812971 0)
(-0.069715366 -0.018448625 0)
(-0.064268255 -0.019038237 0)
(-0.058656655 -0.019580059 0)
(-0.052894693 -0.020072474 0)
(-0.046996947 -0.020514007 0)
(-0.040978404 -0.020903328 0)
(-0.034854415 -0.021239259 0)
(-0.028640651 -0.021520782 0)
(-0.022353058 -0.021747039 0)
(-0.016007807 -0.02191734 0)
(-0.0096212446 -0.022031164 0)
(-0.0032098441 -0.022088164 0)
(0.0032565911 -0.028545047 0)
(0.0097613629 -0.028471376 0)
(0.016240929 -0.02832426 0)
(0.022678572 -0.028104149 0)
(0.029057704 -0.027811717 0)
(0.035361914 -0.027447856 0)
(0.041575022 -0.027013675 0)
(0.047681126 -0.026510492 0)
(0.053664649 -0.025939829 0)
(0.059510383 -0.025303405 0)
(0.065203539 -0.02460313 0)
(0.070729782 -0.023841091 0)
(0.076075277 -0.023019552 0)
(0.081226722 -0.022140933 0)
(0.086171389 -0.021207811 0)
(0.090897153 -0.0202229 0)
(0.095392526 -0.019189046 0)
(0.099646683 -0.018109212 0)
(0.10364949 -0.01698647 0)
(0.10739151 -0.015823983 0)
(0.11086407 -0.014625003 0)
(0.11405923 -0.013392849 0)
(0.11696979 -0.012130903 0)
(0.11958938 -0.010842591 0)
(0.12191236 -0.0095313804 0)
(0.12393393 -0.00820076 0)
(0.12565007 -0.0068542341 0)
(0.12705755 -0.0054953096 0)
(0.12815395 -0.0041274859 0)
(0.12893765 -0.0027542443 0)
(0.12940781 -0.001379038 0)
(0.12956439 -5.2826331e-06 0)
(0.12940811 0.0013636536 0)
(0.12894046 0.0027244589 0)
(0.12816367 0.0040738834 0)
(0.12708071 0.0054087491 0)
(0.12569528 0.0067259578 0)
(0.12401174 0.0080224976 0)
(0.12203517 0.0092954485 0)
(0.11977129 0.010541988 0)
(0.11722642 0.011759398 0)
(0.11440754 0.012945064 0)
(0.11132219 0.014096487 0)
(0.10797845 0.015211277 0)
(0.10438495 0.016287164 0)
(0.10055084 0.017321995 0)
(0.096485701 0.018313737 0)
(0.092199607 0.019260475 0)
(0.087703029 0.020160417 0)
(0.08300684 0.021011889 0)
(0.078122278 0.021813336 0)
(0.07306092 0.022563321 0)
(0.067834655 0.023260523 0)
(0.062455661 0.023903734 0)
(0.056936374 0.024491858 0)
(0.051289465 0.025023909 0)
(0.045527819 0.02549901 0)
(0.039664503 0.025916385 0)
(0.033712749 0.026275363 0)
(0.027685931 0.026575374 0)
(0.021597538 0.026815945 0)
(0.015461154 0.026996701 0)
(0.0092904397 0.027117359 0)
(0.0030991055 0.027177735 0)
(-0.0030991054 0.027177735 0)
(-0.0092904397 0.027117359 0)
(-0.015461154 0.026996701 0)
(-0.021597538 0.026815945 0)
(-0.027685931 0.026575374 0)
(-0.033712749 0.026275363 0)
(-0.039664502 0.025916385 0)
(-0.045527819 0.02549901 0)
(-0.051289465 0.025023909 0)
(-0.056936374 0.024491858 0)
(-0.062455661 0.023903734 0)
(-0.067834655 0.023260523 0)
(-0.07306092 0.022563321 0)
(-0.078122278 0.021813336 0)
(-0.08300684 0.021011889 0)
(-0.087703029 0.020160417 0)
(-0.092199606 0.019260475 0)
(-0.096485701 0.018313737 0)
(-0.10055084 0.017321995 0)
(-0.10438495 0.016287164 0)
(-0.10797845 0.015211277 0)
(-0.11132219 0.014096487 0)
(-0.11440754 0.012945064 0)
(-0.11722642 0.011759398 0)
(-0.11977129 0.010541988 0)
(-0.12203517 0.0092954485 0)
(-0.12401174 0.0080224976 0)
(-0.12569528 0.0067259578 0)
(-0.12708071 0.0054087491 0)
(-0.12816367 0.0040738834 0)
(-0.12894046 0.0027244589 0)
(-0.12940811 0.0013636536 0)
(-0.12956439 -5.2826168e-06 0)
(-0.12940781 -0.001379038 0)
(-0.12893765 -0.0027542442 0)
(-0.12815395 -0.0041274859 0)
(-0.12705755 -0.0054953096 0)
(-0.12565007 -0.0068542341 0)
(-0.12393393 -0.00820076 0)
(-0.12191236 -0.0095313804 0)
(-0.11958938 -0.010842591 0)
(-0.11696979 -0.012130903 0)
(-0.11405923 -0.013392849 0)
(-0.11086407 -0.014625003 0)
(-0.10739151 -0.015823983 0)
(-0.10364949 -0.01698647 0)
(-0.099646683 -0.018109212 0)
(-0.095392526 -0.019189046 0)
(-0.090897153 -0.0202229 0)
(-0.086171389 -0.021207811 0)
(-0.081226722 -0.022140933 0)
(-0.076075277 -0.023019552 0)
(-0.070729782 -0.023841091 0)
(-0.065203539 -0.02460313 0)
(-0.059510383 -0.025303405 0)
(-0.053664649 -0.025939829 0)
(-0.047681126 -0.026510492 0)
(-0.041575022 -0.027013675 0)
(-0.035361914 -0.027447856 0)
(-0.029057704 -0.027811717 0)
(-0.022678572 -0.028104149 0)
(-0.016240929 -0.02832426 0)
(-0.009761363 -0.028471376 0)
(-0.0032565912 -0.028545047 0)
(0.003314203 -0.035106164 0)
(0.0099340479 -0.035015548 0)
(0.016528235 -0.034834594 0)
(0.023079748 -0.034563858 0)
(0.029571701 -0.034204167 0)
(0.03598739 -0.033756621 0)
(0.042310346 -0.033222583 0)
(0.048524383 -0.032603676 0)
(0.054613645 -0.031901773 0)
(0.060562657 -0.03111899 0)
(0.066356364 -0.030257675 0)
(0.071980179 -0.0293204 0)
(0.077420022 -0.028309946 0)
(0.082662356 -0.027229296 0)
(0.087694229 -0.026081615 0)
(0.092503303 -0.024870246 0)
(0.097077889 -0.023598688 0)
(0.10140697 -0.022270586 0)
(0.10548024 -0.020889719 0)
(0.10928809 -0.019459979 0)
(0.11282171 -0.017985363 0)
(0.11607299 -0.016469956 0)
(0.11903465 -0.014917915 0)
(0.12170016 -0.013333456 0)
(0.12406383 -0.011720842 0)
(0.12612075 -0.010084364 0)
(0.12786682 -0.0084283312 0)
(0.12929878 -0.0067570577 0)
(0.13041415 -0.0050748468 0)
(0.1312113 -0.0033859801 0)
(0.13168936 -0.0016947048 0)
(0.1318483 -5.2216825e-06 0)
(0.13168885 0.0016783262 0)
(0.13121253 0.0033518644 0)
(0.13042161 0.0050113961 0)
(0.12931913 0.0066530131 0)
(0.12790883 0.0082729046 0)
(0.12619518 0.0098673656 0)
(0.12418334 0.011432805 0)
(0.12187912 0.01296575 0)
(0.11928899 0.014462859 0)
(0.11642004 0.015920916 0)
(0.11327993 0.017336847 0)
(0.10987692 0.018707714 0)
(0.10621979 0.020030727 0)
(0.10231784 0.021303237 0)
(0.09818084 0.022522745 0)
(0.093819042 0.023686899 0)
(0.089243107 0.024793495 0)
(0.084464102 0.025840477 0)
(0.079493466 0.026825935 0)
(0.074342982 0.027748102 0)
(0.06902475 0.028605357 0)
(0.063551162 0.029396217 0)
(0.057934872 0.030119337 0)
(0.052188773 0.030773506 0)
(0.046325972 0.031357646 0)
(0.040359765 0.031870808 0)
(0.034303611 0.032312168 0)
(0.028171113 0.032681025 0)
(0.021975991 0.0329768 0)
(0.015732062 0.033199032 0)
(0.0094532178 0.033347377 0)
(0.0031534038 0.033421607 0)
(-0.0031534037 0.033421607 0)
(-0.0094532177 0.033347377 0)
(-0.015732062 0.033199032 0)
(-0.021975991 0.0329768 0)
(-0.028171113 0.032681025 0)
(-0.034303611 0.032312168 0)
(-0.040359765 0.031870808 0)
(-0.046325972 0.031357646 0)
(-0.052188773 0.030773506 0)
(-0.057934872 0.030119337 0)
(-0.063551162 0.029396217 0)
(-0.06902475 0.028605357 0)
(-0.074342982 0.027748102 0)
(-0.079493466 0.026825935 0)
(-0.084464102 0.025840477 0)
(-0.089243107 0.024793495 0)
(-0.093819042 0.023686899 0)
(-0.09818084 0.022522745 0)
(-0.10231784 0.021303237 0)
(-0.10621979 0.020030727 0)
(-0.10987692 0.018707714 0)
(-0.11327993 0.017336847 0)
(-0.11642004 0.015920916 0)
(-0.11928899 0.014462859 0)
(-0.12187912 0.01296575 0)
(-0.12418334 0.011432805 0)
(-0.12619518 0.0098673656 0)
(-0.12790883 0.0082729046 0)
(-0.12931913 0.0066530132 0)
(-0.13042161 0.0050113962 0)
(-0.13121253 0.0033518644 0)
(-0.13168885 0.0016783262 0)
(-0.1318483 -5.2216627e-06 0)
(-0.13168936 -0.0016947048 0)
(-0.1312113 -0.0033859801 0)
(-0.13041415 -0.0050748468 0)
(-0.12929878 -0.0067570577 0)
(-0.12786682 -0.0084283312 0)
(-0.12612075 -0.010084364 0)
(-0.12406383 -0.011720842 0)
(-0.12170016 -0.013333456 0)
(-0.11903465 -0.014917915 0)
(-0.11607299 -0.016469956 0)
(-0.11282171 -0.017985363 0)
(-0.10928809 -0.019459979 0)
(-0.10548024 -0.020889719 0)
(-0.10140697 -0.022270586 0)
(-0.097077889 -0.023598688 0)
(-0.092503303 -0.024870246 0)
(-0.087694229 -0.026081615 0)
(-0.082662356 -0.027229296 0)
(-0.077420022 -0.028309946 0)
(-0.071980179 -0.0293204 0)
(-0.066356364 -0.030257675 0)
(-0.060562657 -0.03111899 0)
(-0.054613645 -0.031901773 0)
(-0.048524383 -0.032603676 0)
(-0.042310346 -0.033222583 0)
(-0.03598739 -0.033756621 0)
(-0.029571701 -0.034204167 0)
(-0.023079748 -0.034563858 0)
(-0.016528235 -0.034834594 0)
(-0.009934048 -0.035015548 0)
(-0.0033142031 -0.035106164 0)
(0.0033827554 -0.041793331 0)
(0.010139526 -0.041685441 0)
(0.016870103 -0.041469993 0)
(0.023557113 -0.041147647 0)
(0.030183317 -0.04071939 0)
(0.036731665 -0.040186533 0)
(0.043185342 -0.039550699 0)
(0.049527827 -0.038813822 0)
(0.055742934 -0.037978133 0)
(0.061814865 -0.037046153 0)
(0.067728255 -0.03602068 0)
(0.073468214 -0.034904776 0)
(0.079020371 -0.033701754 0)
(0.084370912 -0.032415166 0)
(0.089506617 -0.031048783 0)
(0.094414895 -0.029606583 0)
(0.099083816 -0.028092735 0)
(0.10350214 -0.026511579 0)
(0.10765934 -0.024867613 0)
(0.11154563 -0.023165472 0)
(0.115152 -0.021409915 0)
(0.11847019 -0.019605804 0)
(0.12149275 -0.017758088 0)
(0.12421305 -0.015871787 0)
(0.12662525 -0.013951974 0)
(0.12872435 -0.012003759 0)
(0.13050617 -0.010032273 0)
(0.13196738 -0.0080426488 0)
(0.13310546 -0.0060400111 0)
(0.13391873 -0.0040294568 0)
(0.13440631 -0.0020160425 0)
(0.13456817 -4.7697283e-06 0)
(0.13440506 0.0019994286 0)
(0.13391852 0.0039917009 0)
(0.13311088 0.0059672885 0)
(0.13198524 0.0079215381 0)
(0.13054543 0.0098499121 0)
(0.128796 0.011747999 0)
(0.12674223 0.013611522 0)
(0.12439006 0.015436349 0)
(0.12174608 0.017218497 0)
(0.11881755 0.018954141 0)
(0.11561229 0.020639619 0)
(0.11213873 0.022271436 0)
(0.10840584 0.023846268 0)
(0.10442312 0.025360965 0)
(0.10020056 0.026812552 0)
(0.095748604 0.028198231 0)
(0.091078154 0.029515381 0)
(0.086200506 0.030761555 0)
(0.081127338 0.031934482 0)
(0.07587068 0.033032064 0)
(0.070442883 0.03405237 0)
(0.064856594 0.03499364 0)
(0.059124727 0.035854276 0)
(0.053260441 0.036632839 0)
(0.047277109 0.037328048 0)
(0.041188297 0.037938777 0)
(0.035007736 0.038464047 0)
(0.028749303 0.038903027 0)
(0.022426994 0.039255029 0)
(0.016054904 0.039519506 0)
(0.0096472024 0.039696049 0)
(0.0032181118 0.039784389 0)
(-0.0032181118 0.039784389 0)
(-0.0096472023 0.039696049 0)
(-0.016054904 0.039519506 0)
(-0.022426994 0.039255029 0)
(-0.028749303 0.038903027 0)
(-0.035007736 0.038464047 0)
(-0.041188297 0.037938777 0)
(-0.047277109 0.037328048 0)
(-0.053260441 0.036632839 0)
(-0.059124727 0.035854276 0)
(-0.064856594 0.03499364 0)
(-0.070442883 0.03405237 0)
(-0.07587068 0.033032064 0)
(-0.081127338 0.031934482 0)
(-0.086200506 0.030761555 0)
(-0.091078154 0.029515381 0)
(-0.095748604 0.028198231 0)
(-0.10020056 0.026812552 0)
(-0.10442312 0.025360965 0)
(-0.10840584 0.023846268 0)
(-0.11213873 0.022271436 0)
(-0.11561229 0.020639619 0)
(-0.11881755 0.018954141 0)
(-0.12174608 0.017218497 0)
(-0.12439006 0.015436349 0)
(-0.12674223 0.013611523 0)
(-0.128796 0.011747999 0)
(-0.13054543 0.0098499122 0)
(-0.13198524 0.0079215381 0)
(-0.13311088 0.0059672885 0)
(-0.13391852 0.0039917009 0)
(-0.13440506 0.0019994286 0)
(-0.13456817 -4.7697049e-06 0)
(-0.13440631 -0.0020160425 0)
(-0.13391873 -0.0040294568 0)
(-0.13310546 -0.006040011 0)
(-0.13196738 -0.0080426488 0)
(-0.13050617 -0.010032273 0)
(-0.12872435 -0.012003759 0)
(-0.12662525 -0.013951974 0)
(-0.12421305 -0.015871787 0)
(-0.12149275 -0.017758088 0)
(-0.11847019 -0.019605804 0)
(-0.115152 -0.021409915 0)
(-0.11154564 -0.023165472 0)
(-0.10765934 -0.024867613 0)
(-0.10350214 -0.026511579 0)
(-0.099083816 -0.028092735 0)
(-0.094414895 -0.029606583 0)
(-0.089506617 -0.031048783 0)
(-0.084370912 -0.032415166 0)
(-0.079020372 -0.033701754 0)
(-0.073468214 -0.034904776 0)
(-0.067728255 -0.03602068 0)
(-0.061814865 -0.037046153 0)
(-0.055742934 -0.037978133 0)
(-0.049527827 -0.038813822 0)
(-0.043185343 -0.039550699 0)
(-0.036731665 -0.040186533 0)
(-0.030183317 -0.04071939 0)
(-0.023557113 -0.041147647 0)
(-0.016870103 -0.041469993 0)
(-0.010139526 -0.041685441 0)
(-0.0033827555 -0.041793331 0)
(0.0034623281 -0.048628489 0)
(0.010378037 -0.048502938 0)
(0.01726693 -0.048252224 0)
(0.024111222 -0.047877115 0)
(0.030893267 -0.047378761 0)
(0.037595608 -0.046758688 0)
(0.044201035 -0.046018786 0)
(0.050692634 -0.045161307 0)
(0.057053838 -0.04418885 0)
(0.063268478 -0.043104349 0)
(0.069320826 -0.041911061 0)
(0.075195642 -0.040612552 0)
(0.080878219 -0.039212679 0)
(0.086354418 -0.037715574 0)
(0.091610711 -0.03612563 0)
(0.096634211 -0.034447475 0)
(0.10141271 -0.03268596 0)
(0.10593471 -0.030846137 0)
(0.11018943 -0.028933239 0)
(0.11416687 -0.026952661 0)
(0.11785779 -0.024909938 0)
(0.12125375 -0.022810728 0)
(0.12434713 -0.02066079 0)
(0.12713113 -0.018465964 0)
(0.12959978 -0.016232153 0)
(0.13174797 -0.013965301 0)
(0.13357142 -0.011671377 0)
(0.13506671 -0.009356355 0)
(0.13623126 -0.007026197 0)
(0.13706335 -0.004686834 0)
(0.1375621 -0.0023441495 0)
(0.13772746 -3.9638468e-06 0)
(0.13756019 0.0023279823 0)
(0.13706188 0.0046460426 0)
(0.13623492 0.0069446793 0)
(0.13508247 0.0092184767 0)
(0.13360846 0.011462154 0)
(0.13181756 0.013670576 0)
(0.12971515 0.015838767 0)
(0.12730734 0.017961915 0)
(0.12460087 0.020035387 0)
(0.12160318 0.022054731 0)
(0.11832228 0.024015685 0)
(0.1147668 0.025914184 0)
(0.11094593 0.02774636 0)
(0.10686941 0.029508548 0)
(0.10254745 0.03119729 0)
(0.097990773 0.032809332 0)
(0.093210523 0.034341624 0)
(0.088218274 0.035791325 0)
(0.083025982 0.037155794 0)
(0.077645962 0.038432592 0)
(0.072090858 0.039619479 0)
(0.066373614 0.040714409 0)
(0.060507448 0.041715527 0)
(0.054505825 0.042621162 0)
(0.04838243 0.04342983 0)
(0.042151141 0.044140221 0)
(0.035826009 0.044751202 0)
(0.029421228 0.045261807 0)
(0.022951116 0.04567124 0)
(0.016430087 0.045978865 0)
(0.0098726366 0.046184211 0)
(0.0032933107 0.046286962 0)
(-0.0032933106 0.046286962 0)
(-0.0098726366 0.046184211 0)
(-0.016430087 0.045978865 0)
(-0.022951115 0.04567124 0)
(-0.029421228 0.045261807 0)
(-0.035826009 0.044751202 0)
(-0.042151141 0.044140221 0)
(-0.04838243 0.04342983 0)
(-0.054505825 0.042621162 0)
(-0.060507448 0.041715527 0)
(-0.066373613 0.040714409 0)
(-0.072090858 0.039619479 0)
(-0.077645962 0.038432592 0)
(-0.083025982 0.037155794 0)
(-0.088218274 0.035791325 0)
(-0.093210523 0.034341624 0)
(-0.097990773 0.032809332 0)
(-0.10254745 0.03119729 0)
(-0.10686941 0.029508548 0)
(-0.11094593 0.02774636 0)
(-0.1147668 0.025914184 0)
(-0.11832228 0.024015685 0)
(-0.12160318 0.022054731 0)
(-0.12460087 0.020035387 0)
(-0.12730734 0.017961915 0)
(-0.12971515 0.015838767 0)
(-0.13181756 0.013670576 0)
(-0.13360846 0.011462154 0)
(-0.13508247 0.0092184767 0)
(-0.13623492 0.0069446794 0)
(-0.13706188 0.0046460427 0)
(-0.13756019 0.0023279823 0)
(-0.13772746 -3.9638197e-06 0)
(-0.1375621 -0.0023441495 0)
(-0.13706335 -0.0046868339 0)
(-0.13623126 -0.007026197 0)
(-0.13506671 -0.0093563549 0)
(-0.13357142 -0.011671377 0)
(-0.13174797 -0.013965301 0)
(-0.12959978 -0.016232153 0)
(-0.12713113 -0.018465964 0)
(-0.12434713 -0.02066079 0)
(-0.12125375 -0.022810728 0)
(-0.11785779 -0.024909938 0)
(-0.11416687 -0.026952661 0)
(-0.11018943 -0.028933239 0)
(-0.10593471 -0.030846137 0)