/*--------------------------------*- C++ -*----------------------------------*\
| =========                 |                                                 |
| \\      /  F ield         | OpenFOAM: The Open Source CFD Toolbox           |
|  \\    /   O peration     | Version:  2106                                  |
|   \\  /    A nd           | Website:  www.openfoam.com                      |
|    \\/     M anipulation  |                                                 |
\*---------------------------------------------------------------------------*/
FoamFile
{
    version     2.0;
    format      ascii;
    arch        "LSB;label=32;scalar=64";
    class       volVectorField;
    location    "0.002";
    object      U;
}
// * * * * * * * * * * * * * * * * * * * * * * * * * * * * * * * * * * * * * //

dimensions      [0 1 -1 0 0 0 0];

internalField   nonuniform List<vector> 
4096
(
(-0.025278103 0.025169355 0)
(-0.075588468 0.02492461 0)
(-0.12516378 0.024437577 0)
(-0.1735222 0.023713137 0)
(-0.2201941 0.022758546 0)
(-0.26472672 0.021583349 0)
(-0.3066887 0.020199273 0)
(-0.34567429 0.018620095 0)
(-0.38130736 0.016861492 0)
(-0.41324501 0.014940871 0)
(-0.44118088 0.012877175 0)
(-0.46484802 0.010690691 0)
(-0.48402125 0.0084028216 0)
(-0.49851908 0.0060357173 0)
(-0.50820888 0.0036115358 0)
(-0.51299201 0.0011575946 0)
(-0.51284077 -0.001307412 0)
(-0.50775177 -0.0037573396 0)
(-0.49778073 -0.0061690682 0)
(-0.48302747 -0.0085195751 0)
(-0.46363735 -0.010786502 0)
(-0.43979985 -0.012948345 0)
(-0.41174664 -0.014984648 0)
(-0.37974919 -0.016876183 0)
(-0.34411618 -0.018605125 0)
(-0.30519051 -0.020155211 0)
(-0.26334601 -0.021511884 0)
(-0.21898391 -0.022662418 0)
(-0.17252904 -0.023596035 0)
(-0.1244258 -0.024303996 0)
(-0.075134025 -0.024779679 0)
(-0.025124657 -0.025018637 0)
(0.025124657 -0.025018637 0)
(0.075134025 -0.024779679 0)
(0.1244258 -0.024303996 0)
(0.17252904 -0.023596035 0)
(0.21898391 -0.022662418 0)
(0.26334601 -0.021511884 0)
(0.30519051 -0.020155211 0)
(0.34411618 -0.018605125 0)
(0.37974919 -0.016876183 0)
(0.41174664 -0.014984648 0)
(0.43979985 -0.012948345 0)
(0.46363735 -0.010786502 0)
(0.48302747 -0.0085195751 0)
(0.49778073 -0.0061690682 0)
(0.50775177 -0.0037573396 0)
(0.51284077 -0.001307412 0)
(0.51299201 0.0011575946 0)
(0.50820888 0.0036115358 0)
(0.49851908 0.0060357173 0)
(0.48402125 0.0084028216 0)
(0.46484802 0.010690691 0)
(0.44118088 0.012877175 0)
(0.41324501 0.014940871 0)
(0.38130736 0.016861492 0)
(0.34567429 0.018620095 0)
(0.3066887 0.020199273 0)
(0.26472672 0.021583349 0)
(0.2201941 0.022758546 0)
(0.1735222 0.023713137 0)
(0.12516378 0.024437577 0)
(0.075588468 0.02492461 0)
(0.025278103 0.025169355 0)
(-0.025606575 0.075761963 0)
(-0.076570584 0.07502518 0)
(-0.12678968 0.073559009 0)
(-0.17577556 0.071378157 0)
(-0.22305234 0.068504475 0)
(-0.26816126 0.064966709 0)
(-0.31066525 0.060800174 0)
(-0.35015327 0.056046365 0)
(-0.38624432 0.050752488 0)
(-0.41859112 0.044970954 0)
(-0.44688343 0.038758802 0)
(-0.47085098 0.032177104 0)
(-0.49026589 0.025290306 0)
(-0.50494476 0.018165444 0)
(-0.51475137 0.01087115 0)
(-0.51959406 0.0034797046 0)
(-0.51943277 -0.0039380457 0)
(-0.51427238 -0.011311885 0)
(-0.50416762 -0.018570842 0)
(-0.48921979 -0.025645512 0)
(-0.46957632 -0.032468574 0)
(-0.44542927 -0.038975303 0)
(-0.41701333 -0.045104132 0)
(-0.38460353 -0.0507972 0)
(-0.34851252 -0.056000871 0)
(-0.30908758 -0.060666206 0)
(-0.2667073 -0.0647494 0)
(-0.22177796 -0.068212163 0)
(-0.17472971 -0.07102206 0)
(-0.12601255 -0.073152798 0)
(-0.076092034 -0.07458445 0)
(-0.025444989 -0.075303636 0)
(0.025444989 -0.075303636 0)
(0.076092034 -0.07458445 0)
(0.12601255 -0.073152798 0)
(0.17472971 -0.07102206 0)
(0.22177796 -0.068212163 0)
(0.2667073 -0.0647494 0)
(0.30908758 -0.060666206 0)
(0.34851252 -0.056000871 0)
(0.38460353 -0.0507972 0)
(0.41701333 -0.045104132 0)
(0.44542927 -0.038975303 0)
(0.46957632 -0.032468574 0)
(0.48921979 -0.025645512 0)
(0.50416762 -0.018570842 0)
(0.51427238 -0.011311885 0)
(0.51943277 -0.0039380457 0)
(0.51959406 0.0034797046 0)
(0.51475137 0.01087115 0)
(0.50494476 0.018165444 0)
(0.49026589 0.025290306 0)
(0.47085098 0.032177104 0)
(0.44688343 0.038758802 0)
(0.41859112 0.044970954 0)
(0.38624432 0.050752488 0)
(0.35015327 0.056046365 0)
(0.31066525 0.060800174 0)
(0.26816126 0.064966709 0)
(0.22305234 0.068504475 0)
(0.17577556 0.071378157 0)
(0.12678968 0.073559009 0)
(0.076570584 0.07502518 0)
(0.025606575 0.075761963 0)
(-0.026154495 0.12729052 0)
(-0.078208834 0.12605229 0)
(-0.12950179 0.12358828 0)
(-0.17953431 0.11992324 0)
(-0.22782005 0.11509391 0)
(-0.2738902 0.10914868 0)
(-0.31729824 0.10214693 0)
(-0.35762427 0.094158475 0)
(-0.39447916 0.0852627 0)
(-0.42750832 0.075547738 0)
(-0.45639509 0.065109494 0)
(-0.48086369 0.054050624 0)
(-0.50068175 0.042479444 0)
(-0.51566246 0.030508762 0)
(-0.5256665 0.018254734 0)
(-0.53060211 0.0058368548 0)
(-0.53042689 -0.006625449 0)
(-0.52514745 -0.019012998 0)
(-0.51481965 -0.031207092 0)
(-0.49954733 -0.043091319 0)
(-0.47948132 -0.05455264 0)
(-0.45481795 -0.065482365 0)
(-0.42579705 -0.075777117 0)
(-0.39269953 -0.085339749 0)
(-0.35584467 -0.094080211 0)
(-0.31558706 -0.10191634 0)
(-0.2723132 -0.1087746 0)
(-0.22643781 -0.11459071 0)
(-0.17839995 -0.11931022 0)
(-0.12865889 -0.12288899 0)
(-0.077689783 -0.12529357 0)
(-0.025979233 -0.1265015 0)
(0.025979233 -0.1265015 0)
(0.077689783 -0.12529357 0)
(0.12865889 -0.12288899 0)
(0.17839995 -0.11931022 0)
(0.22643781 -0.11459071 0)
(0.2723132 -0.1087746 0)
(0.31558706 -0.10191634 0)
(0.35584467 -0.094080211 0)
(0.39269953 -0.085339749 0)
(0.42579705 -0.075777117 0)
(0.45481795 -0.065482365 0)
(0.47948132 -0.05455264 0)
(0.49954733 -0.043091319 0)
(0.51481965 -0.031207092 0)
(0.52514745 -0.019012998 0)
(0.53042689 -0.006625449 0)
(0.53060211 0.0058368548 0)
(0.5256665 0.018254734 0)
(0.51566246 0.030508762 0)
(0.50068175 0.042479444 0)
(0.48086369 0.054050624 0)
(0.45639509 0.065109494 0)
(0.42750832 0.075547738 0)
(0.39447916 0.0852627 0)
(0.35762427 0.094158475 0)
(0.31729824 0.10214693 0)
(0.2738902 0.10914868 0)
(0.22782005 0.11509391 0)
(0.17953431 0.11992324 0)
(0.12950179 0.12358828 0)
(0.078208834 0.12605229 0)
(0.026154495 0.12729052 0)
(-0.026935512 0.18013963 0)
(-0.080544025 0.17838668 0)
(-0.13336767 0.17489844 0)
(-0.18489203 0.16970998 0)
(-0.23461584 0.16287343 0)
(-0.28205602 0.15445734 0)
(-0.3267525 0.14454593 0)
(-0.36827277 0.13323813 0)
(-0.40621615 0.12064644 0)
(-0.44021763 0.10689574 0)
(-0.46995139 0.092121888 0)
(-0.49513384 0.076470285 0)
(-0.51552618 0.060094332 0)
(-0.53093663 0.043153835 0)
(-0.54122207 0.025813449 0)
(-0.5462889 0.0082413949 0)
(-0.54609389 -0.0093930482 0)
(-0.54064453 -0.026920774 0)
(-0.52999873 -0.044174051 0)
(-0.51426385 -0.060988327 0)
(-0.49359561 -0.077203764 0)
(-0.46819642 -0.092666673 0)
(-0.43831338 -0.10723088 0)
(-0.40423582 -0.12075905 0)
(-0.36629248 -0.13312384 0)
(-0.32484834 -0.14420913 0)
(-0.28030116 -0.15391093 0)
(-0.23307772 -0.16213839 0)
(-0.18362974 -0.16881453 0)
(-0.13242971 -0.17387696 0)
(-0.079966438 -0.1772784 0)
(-0.026740485 -0.17898709 0)
(0.026740485 -0.17898709 0)
(0.079966438 -0.1772784 0)
(0.13242971 -0.17387696 0)
(0.18362974 -0.16881453 0)
(0.23307772 -0.16213839 0)
(0.28030116 -0.15391093 0)
(0.32484834 -0.14420913 0)
(0.36629248 -0.13312384 0)
(0.40423582 -0.12075905 0)
(0.43831338 -0.10723088 0)
(0.46819642 -0.092666673 0)
(0.49359561 -0.077203764 0)
(0.51426385 -0.060988327 0)
(0.52999873 -0.044174051 0)
(0.54064453 -0.026920774 0)
(0.54609389 -0.0093930482 0)
(0.5462889 0.0082413949 0)
(0.54122207 0.025813449 0)
(0.53093663 0.043153835 0)
(0.51552618 0.060094332 0)
(0.49513384 0.076470285 0)
(0.46995139 0.092121888 0)
(0.44021763 0.10689574 0)
(0.40621615 0.12064644 0)
(0.36827277 0.13323813 0)
(0.3267525 0.14454593 0)
(0.28205602 0.15445734 0)
(0.23461584 0.16287343 0)
(0.18489203 0.16970998 0)
(0.13336767 0.17489844 0)
(0.080544025 0.17838668 0)
(0.026935512 0.18013963 0)
(-0.027963955 0.23478319 0)
(-0.083618991 0.23249747 0)
(-0.13845818 0.22794908 0)
(-0.19194687 0.22118386 0)
(-0.24356412 0.2122699 0)
(-0.29280802 0.20129676 0)
(-0.33920066 0.18837444 0)
(-0.38229294 0.17363211 0)
(-0.42166894 0.15721669 0)
(-0.45694998 0.13929117 0)
(-0.48779819 0.12003286 0)
(-0.51391971 0.099631473 0)
(-0.53506732 0.078287121 0)
(-0.55104263 0.05620824 0)
(-0.56169781 0.033609517 0)
(-0.56693656 0.010709869 0)
(-0.56671484 -0.012270011 0)
(-0.56104117 -0.035109613 0)
(-0.54997628 -0.057590514 0)
(-0.53363217 -0.079498458 0)
(-0.51217093 -0.10062533 0)
(-0.48580301 -0.12077104 0)
(-0.45478509 -0.1397453 0)
(-0.41941756 -0.15736929 0)
(-0.3800416 -0.1734773 0)
(-0.33703588 -0.18791813 0)
(-0.29081298 -0.20055647 0)
(-0.24181549 -0.21127403 0)
(-0.19051182 -0.21997066 0)
(-0.13739186 -0.22656513 0)
(-0.082962358 -0.2309959 0)
(-0.027742238 -0.23322167 0)
(0.027742238 -0.23322167 0)
(0.082962358 -0.2309959 0)
(0.13739186 -0.22656513 0)
(0.19051182 -0.21997066 0)
(0.24181549 -0.21127403 0)
(0.29081298 -0.20055647 0)
(0.33703588 -0.18791813 0)
(0.3800416 -0.1734773 0)
(0.41941756 -0.15736929 0)
(0.45478509 -0.1397453 0)
(0.48580301 -0.12077104 0)
(0.51217093 -0.10062533 0)
(0.53363217 -0.079498458 0)
(0.54997628 -0.057590514 0)
(0.56104117 -0.035109613 0)
(0.56671484 -0.012270011 0)
(0.56693656 0.010709869 0)
(0.56169781 0.033609517 0)
(0.55104263 0.05620824 0)
(0.53506732 0.078287121 0)
(0.51391971 0.099631473 0)
(0.48779819 0.12003286 0)
(0.45694998 0.13929117 0)
(0.42166894 0.15721669 0)
(0.38229294 0.17363211 0)
(0.33920066 0.18837444 0)
(0.29280802 0.20129676 0)
(0.24356412 0.2122699 0)
(0.19194687 0.22118386 0)
(0.13845818 0.22794908 0)
(0.083618991 0.23249747 0)
(0.027963955 0.23478319 0)
(-0.029255012 0.29173228 0)
(-0.087479123 0.28889054 0)
(-0.14484843 0.28323578 0)
(-0.2008028 0.27482515 0)
(-0.25479659 0.26374349 0)
(-0.30630419 0.2501024 0)
(-0.35482531 0.23403891 0)
(-0.39988999 0.21571392 0)
(-0.4410632 0.19531038 0)
(-0.47794911 0.17303121 0)
(-0.51019478 0.14909711 0)
(-0.53749349 0.1237441 0)
(-0.55958749 0.097221097 0)
(-0.5762702 0.069787264 0)
(-0.58738796 0.041709443 0)
(-0.5928411 0.013259518 0)
(-0.59258462 -0.015288334 0)
(-0.58662838 -0.043660195 0)
(-0.5750367 -0.071584886 0)
(-0.55792744 -0.098796468 0)
(-0.5354707 -0.12503666 0)
(-0.507887 -0.15005716 0)
(-0.47544505 -0.17362183 0)
(-0.43845912 -0.19550885 0)
(-0.39728597 -0.21551259 0)
(-0.35232142 -0.23344549 0)
(-0.30399665 -0.24913966 0)
(-0.25277406 -0.26244839 0)
(-0.19914298 -0.27324742 0)
(-0.14361509 -0.281436 0)
(-0.086719644 -0.2869378 0)
(-0.028998568 -0.28970157 0)
(0.028998568 -0.28970157 0)
(0.086719644 -0.2869378 0)
(0.14361509 -0.281436 0)
(0.19914298 -0.27324742 0)
(0.25277406 -0.26244839 0)
(0.30399665 -0.24913966 0)
(0.35232142 -0.23344549 0)
(0.39728597 -0.21551259 0)
(0.43845912 -0.19550885 0)
(0.47544505 -0.17362183 0)
(0.507887 -0.15005716 0)
(0.5354707 -0.12503666 0)
(0.55792744 -0.098796468 0)
(0.5750367 -0.071584886 0)
(0.58662838 -0.043660195 0)
(0.59258462 -0.015288334 0)
(0.5928411 0.013259518 0)
(0.58738796 0.041709443 0)
(0.5762702 0.069787264 0)
(0.55958749 0.097221097 0)
(0.53749349 0.1237441 0)
(0.51019478 0.14909711 0)
(0.47794911 0.17303121 0)
(0.4410632 0.19531038 0)
(0.39988999 0.21571392 0)
(0.35482531 0.23403891 0)
(0.30630419 0.2501024 0)
(0.25479659 0.26374349 0)
(0.2008028 0.27482515 0)
(0.14484843 0.28323578 0)
(0.087479123 0.28889054 0)
(0.029255012 0.29173228 0)
(-0.030825069 0.35152715 0)
(-0.092173398 0.34810063 0)
(-0.15261942 0.34128235 0)
(-0.21157196 0.33114138 0)
(-0.26845524 0.31778033 0)
(-0.32271481 0.30133413 0)
(-0.37382311 0.28196842 0)
(-0.42128481 0.25987764 0)
(-0.46464168 0.23528284 0)
(-0.50347703 0.20842909 0)
(-0.53741968 0.17958285 0)
(-0.56614735 0.14902899 0)
(-0.58938955 0.11706778 0)
(-0.60692985 0.08401176 0)
(-0.61860765 0.050182551 0)
(-0.62431926 0.015907698 0)
(-0.62401857 -0.018482551 0)
(-0.61771715 -0.052658344 0)
(-0.60548376 -0.08629325 0)
(-0.58744343 -0.11906723 0)
(-0.56377602 -0.1506695 0)
(-0.5347143 -0.18080134 0)
(-0.50054158 -0.2091787 0)
(-0.461589 -0.23553472 0)
(-0.41823222 -0.25962211 0)
(-0.37088792 -0.28121525 0)
(-0.3200098 -0.30011223 0)
(-0.26608435 -0.31613662 0)
(-0.20962626 -0.32913897 0)
(-0.15117366 -0.33899813 0)
(-0.091283116 -0.3456223 0)
(-0.03052446 -0.34894987 0)
(0.03052446 -0.34894987 0)
(0.091283116 -0.3456223 0)
(0.15117366 -0.33899813 0)
(0.20962626 -0.32913897 0)
(0.26608435 -0.31613662 0)
(0.3200098 -0.30011223 0)
(0.37088792 -0.28121525 0)
(0.41823222 -0.25962211 0)
(0.461589 -0.23553472 0)
(0.50054158 -0.2091787 0)
(0.5347143 -0.18080134 0)
(0.56377602 -0.1506695 0)
(0.58744343 -0.11906723 0)
(0.60548376 -0.08629325 0)
(0.61771715 -0.052658344 0)
(0.62401857 -0.018482551 0)
(0.62431926 0.015907698 0)
(0.61860765 0.050182551 0)
(0.60692985 0.08401176 0)
(0.58938955 0.11706778 0)
(0.56614735 0.14902899 0)
(0.53741968 0.17958285 0)
(0.50347703 0.20842909 0)
(0.46464168 0.23528284 0)
(0.42128481 0.25987764 0)
(0.37382311 0.28196842 0)
(0.32271481 0.30133413 0)
(0.26845524 0.31778033 0)
(0.21157196 0.33114138 0)
(0.15261942 0.34128235 0)
(0.092173398 0.34810063 0)
(0.030825069 0.35152715 0)
(-0.032692192 0.41474135 0)
(-0.097755803 0.41069541 0)
(-0.16186044 0.40264469 0)
(-0.22437789 0.39067107 0)
(-0.28469648 0.3748961 0)
(-0.34222736 0.35547961 0)
(-0.39641051 0.33261774 0)
(-0.44672041 0.30654074 0)
(-0.49267125 0.27751019 0)
(-0.53382162 0.24581608 0)
(-0.5697787 0.2117735 0)
(-0.60020183 0.17571918 0)
(-0.62480552 0.13800789 0)
(-0.64336178 0.099008686 0)
(-0.65570189 0.059101172 0)
(-0.66171757 0.018671729 0)
(-0.66136149 -0.021890218 0)
(-0.65464734 -0.062195847 0)
(-0.64164928 -0.1018605 0)
(-0.62250091 -0.14050716 0)
(-0.59739372 -0.17776978 0)
(-0.56657504 -0.21329656 0)
(-0.53034556 -0.24675305 0)
(-0.4890564 -0.27782501 0)
(-0.4431057 -0.30622129 0)
(-0.39293484 -0.33167627 0)
(-0.33902428 -0.35395224 0)
(-0.28188906 -0.3728415 0)
(-0.22207396 -0.38816813 0)
(-0.1601485 -0.3997895 0)
(-0.096701615 -0.4075976 0)
(-0.03233624 -0.41151986 0)
(0.03233624 -0.41151986 0)
(0.096701615 -0.4075976 0)
(0.1601485 -0.3997895 0)
(0.22207396 -0.38816813 0)
(0.28188906 -0.3728415 0)
(0.33902428 -0.35395224 0)
(0.39293484 -0.33167627 0)
(0.4431057 -0.30622129 0)
(0.4890564 -0.27782501 0)
(0.53034556 -0.24675305 0)
(0.56657504 -0.21329656 0)
(0.59739372 -0.17776978 0)
(0.62250091 -0.14050716 0)
(0.64164928 -0.1018605 0)
(0.65464734 -0.062195847 0)
(0.66136149 -0.021890218 0)
(0.66171757 0.018671729 0)
(0.65570189 0.059101172 0)
(0.64336178 0.099008686 0)
(0.62480552 0.13800789 0)
(0.60020183 0.17571918 0)
(0.5697787 0.2117735 0)
(0.53382162 0.24581608 0)
(0.49267125 0.27751019 0)
(0.44672041 0.30654074 0)
(0.39641051 0.33261774 0)
(0.34222736 0.35547961 0)
(0.28469648 0.3748961 0)
(0.22437789 0.39067107 0)
(0.16186044 0.40264469 0)
(0.097755803 0.41069541 0)
(0.032692192 0.41474135 0)
(-0.034876646 0.48198645 0)
(-0.10428689 0.47728009 0)
(-0.17267161 0.46791547 0)
(-0.23935914 0.45398819 0)
(-0.30369563 0.43564021 0)
(-0.36505191 0.41305812 0)
(-0.42282992 0.38647091 0)
(-0.47646882 0.35614721 0)
(-0.52545052 0.32239217 0)
(-0.56930477 0.28554389 0)
(-0.60761356 0.24596957 0)
(-0.6400149 0.20406141 0)
(-0.66620593 0.16023235 0)
(-0.68594536 0.11491173 0)
(-0.69905523 0.068540874 0)
(-0.70542204 0.021568717 0)
(-0.70499723 -0.025552487 0)
(-0.69779713 -0.07237139 0)
(-0.68390234 -0.11844164 0)
(-0.66345655 -0.16332587 0)
(-0.63666487 -0.20659956 0)
(-0.60379168 -0.24785474 0)
(-0.56515797 -0.28670358 0)
(-0.52113819 -0.32278178 0)
(-0.4721567 -0.35575173 0)
(-0.41868371 -0.38530552 0)
(-0.36123092 -0.41116756 0)
(-0.30034664 -0.43309708 0)
(-0.23661079 -0.45089015 0)
(-0.17062946 -0.46438146 0)
(-0.10302936 -0.4734458 0)
(-0.034452035 -0.47799909 0)
(0.034452035 -0.47799909 0)
(0.10302936 -0.4734458 0)
(0.17062946 -0.46438146 0)
(0.23661079 -0.45089015 0)
(0.30034664 -0.43309708 0)
(0.36123092 -0.41116756 0)
(0.41868371 -0.38530552 0)
(0.4721567 -0.35575173 0)
(0.52113819 -0.32278178 0)
(0.56515797 -0.28670358 0)
(0.60379168 -0.24785474 0)
(0.63666487 -0.20659956 0)
(0.66345655 -0.16332587 0)
(0.68390234 -0.11844164 0)
(0.69779713 -0.07237139 0)
(0.70499723 -0.025552487 0)
(0.70542204 0.021568717 0)
(0.69905523 0.068540874 0)
(0.68594536 0.11491173 0)
(0.66620593 0.16023235 0)
(0.6400149 0.20406141 0)
(0.60761356 0.24596957 0)
(0.56930477 0.28554389 0)
(0.52545052 0.32239217 0)
(0.47646882 0.35614721 0)
(0.42282992 0.38647091 0)
(0.36505191 0.41305812 0)
(0.30369563 0.43564021 0)
(0.23935914 0.45398819 0)
(0.17267161 0.46791547 0)
(0.10428689 0.47728009 0)
(0.034876646 0.48198645 0)
(-0.037401403 0.55391695 0)
(-0.11183531 0.54850234 0)
(-0.18516644 0.53772872 0)
(-0.25667268 0.52170659 0)
(-0.32565131 0.50060001 0)
(-0.39142639 0.47462456 0)
(-0.45335581 0.44404476 0)
(-0.51083784 0.40917079 0)
(-0.56331716 0.37035487 0)
(-0.61029029 0.32798703 0)
(-0.65131025 0.28249063 0)
(-0.68599062 0.23431758 0)
(-0.71400875 0.18394335 0)
(-0.73510827 0.13186189 0)
(-0.74910084 0.078580615 0)
(-0.75586724 0.024615313 0)
(-0.75535774 -0.029514734 0)
(-0.74759192 -0.083291548 0)
(-0.73265796 -0.13620311 0)
(-0.71071129 -0.18774785 0)
(-0.68197281 -0.23743904 0)
(-0.64672658 -0.28480899 0)
(-0.60531699 -0.32941314 0)
(-0.55814541 -0.3708339 0)
(-0.50566639 -0.4086843 0)
(-0.44838339 -0.44261143 0)
(-0.38684404 -0.47229944 0)
(-0.32163505 -0.49747239 0)
(-0.25337677 -0.51789657 0)
(-0.18271744 -0.53338259 0)
(-0.11032725 -0.54378695 0)
(-0.036892201 -0.54901332 0)
(0.036892201 -0.54901332 0)
(0.11032725 -0.54378695 0)
(0.18271744 -0.53338259 0)
(0.25337677 -0.51789657 0)
(0.32163505 -0.49747239 0)
(0.38684404 -0.47229944 0)
(0.44838339 -0.44261143 0)
(0.50566639 -0.4086843 0)
(0.55814541 -0.3708339 0)
(0.60531699 -0.32941314 0)
(0.64672658 -0.28480899 0)
(0.68197281 -0.23743904 0)
(0.71071129 -0.18774785 0)
(0.73265796 -0.13620311 0)
(0.74759192 -0.083291548 0)
(0.75535774 -0.029514734 0)
(0.75586724 0.024615313 0)
(0.74910084 0.078580615 0)
(0.73510827 0.13186189 0)
(0.71400875 0.18394335 0)
(0.68599062 0.23431758 0)
(0.65131025 0.28249063 0)
(0.61029029 0.32798703 0)
(0.56331716 0.37035487 0)
(0.51083784 0.40917079 0)
(0.45335581 0.44404476 0)
(0.39142639 0.47462456 0)
(0.32565131 0.50060001 0)
(0.25667268 0.52170659 0)
(0.18516644 0.53772872 0)
(0.11183531 0.54850234 0)
(0.037401403 0.55391695 0)
(-0.040292626 0.63123611 0)
(-0.12047922 0.62505798 0)
(-0.19947415 0.6127655 0)
(-0.27649725 0.59448542 0)
(-0.35078958 0.57040589 0)
(-0.42162148 0.5407741 0)
(-0.48830026 0.50589325 0)
(-0.55017734 0.46611877 0)
(-0.6066548 0.42185405 0)
(-0.65719121 0.37354553 0)
(-0.70130666 0.32167749 0)
(-0.73858705 0.26676646 0)
(-0.76868745 0.20935545 0)
(-0.79133463 0.15000811 0)
(-0.8063288 0.089302905 0)
(-0.81354457 0.027827405 0)
(-0.81293119 -0.033827299 0)
(-0.80451226 -0.095071956 0)
(-0.78838481 -0.15532436 0)
(-0.7647178 -0.21401439 0)
(-0.73375026 -0.27058889 0)
(-0.69578873 -0.3245164 0)
(-0.65120431 -0.37529176 0)
(-0.60042908 -0.42244047 0)
(-0.54395207 -0.46552284 0)
(-0.48231465 -0.50413786 0)
(-0.41610549 -0.5379267 0)
(-0.34595507 -0.56657583 0)
(-0.27252988 -0.58981978 0)
(-0.19652625 -0.60744342 0)
(-0.11866397 -0.61928377 0)
(-0.039679699 -0.62523142 0)
(0.039679699 -0.62523142 0)
(0.11866397 -0.61928377 0)
(0.19652625 -0.60744342 0)
(0.27252988 -0.58981978 0)
(0.34595507 -0.56657583 0)
(0.41610549 -0.5379267 0)
(0.48231465 -0.50413786 0)
(0.54395207 -0.46552284 0)
(0.60042908 -0.42244047 0)
(0.65120431 -0.37529176 0)
(0.69578873 -0.3245164 0)
(0.73375026 -0.27058889 0)
(0.7647178 -0.21401439 0)
(0.78838481 -0.15532436 0)
(0.80451226 -0.095071956 0)
(0.81293119 -0.033827299 0)
(0.81354457 0.027827405 0)
(0.8063288 0.089302905 0)
(0.79133463 0.15000811 0)
(0.76868745 0.20935545 0)
(0.73858705 0.26676646 0)
(0.70130666 0.32167749 0)
(0.65719121 0.37354553 0)
(0.6066548 0.42185405 0)
(0.55017734 0.46611877 0)
(0.48830026 0.50589325 0)
(0.42162148 0.5407741 0)
(0.35078958 0.57040589 0)
(0.27649725 0.59448542 0)
(0.19947415 0.6127655 0)
(0.12047922 0.62505798 0)
(0.040292626 0.63123611 0)
(-0.043580123 0.71470277 0)
(-0.13030769 0.70769774 0)
(-0.21574194 0.69376041 0)
(-0.29903637 0.67303537 0)
(-0.3793678 0.64573718 0)
(-0.45594524 0.61214767 0)
(-0.52801833 0.57261242 0)
(-0.59488515 0.52753641 0)
(-0.65589936 0.47737897 0)
(-0.71047656 0.42264819 0)
(-0.75809969 0.36389476 0)
(-0.7983236 0.30170555 0)
(-0.83077849 0.23669691 0)
(-0.85517255 0.16950796 0)
(-0.87129352 0.10079394 0)
(-0.87900953 0.031219735 0)
(-0.87826918 -0.03854638 0)
(-0.86910094 -0.10783867 0)
(-0.8516121 -0.17599971 0)
(-0.82598716 -0.24238593 0)
(-0.7924857 -0.306373 0)
(-0.75143976 -0.36736115 0)
(-0.70325069 -0.42478025 0)
(-0.64838537 -0.47809476 0)
(-0.58737182 -0.52680845 0)
(-0.52079436 -0.57046871 0)
(-0.44928814 -0.60867058 0)
(-0.37353324 -0.64106028 0)
(-0.29424838 -0.66733828 0)
(-0.21218432 -0.68726185 0)
(-0.12811699 -0.70064716 0)
(-0.04284043 -0.7073708 0)
(0.04284043 -0.7073708 0)
(0.12811699 -0.70064716 0)
(0.21218432 -0.68726185 0)
(0.29424838 -0.66733828 0)
(0.37353324 -0.64106028 0)
(0.44928814 -0.60867058 0)
(0.52079436 -0.57046871 0)
(0.58737182 -0.52680845 0)
(0.64838537 -0.47809476 0)
(0.70325069 -0.42478025 0)
(0.75143976 -0.36736115 0)
(0.7924857 -0.306373 0)
(0.82598716 -0.24238593 0)
(0.8516121 -0.17599971 0)
(0.86910094 -0.10783867 0)
(0.87826918 -0.03854638 0)
(0.87900953 0.031219735 0)
(0.87129352 0.10079394 0)
(0.85517255 0.16950796 0)
(0.83077849 0.23669691 0)
(0.7983236 0.30170555 0)
(0.75809969 0.36389476 0)
(0.71047656 0.42264819 0)
(0.65589936 0.47737897 0)
(0.59488515 0.52753641 0)
(0.52801833 0.57261242 0)
(0.45594524 0.61214767 0)
(0.3793678 0.64573718 0)
(0.29903637 0.67303537 0)
(0.21574194 0.69376041 0)
(0.13030769 0.70769774 0)
(0.043580123 0.71470277 0)
(-0.04729778 0.80513906 0)
(-0.14142194 0.79723483 0)
(-0.23413712 0.781509 0)
(-0.32452133 0.75812577 0)
(-0.41167837 0.72732881 0)
(-0.49474757 0.68943814 0)
(-0.57291311 0.644846 0)
(-0.64541264 0.59401187 0)
(-0.71154512 0.53745663 0)
(-0.77067777 0.47575604 0)
(-0.82225189 0.40953361 0)
(-0.86578774 0.33945315 0)
(-0.9008881 0.266211 0)
(-0.92724086 0.19052837 0)
(-0.94462046 0.11314369 0)
(-0.95288844 0.034805396 0)
(-0.95199323 -0.04373506 0)
(-0.94196927 -0.12172971 0)
(-0.92293573 -0.19844034 0)
(-0.89509471 -0.27314451 0)
(-0.85872899 -0.34514147 0)
(-0.81419933 -0.41375801 0)
(-0.76194109 -0.47835412 0)
(-0.70246022 -0.53832858 0)
(-0.63632871 -0.59312426 0)
(-0.56417919 -0.64223302 0)
(-0.48669915 -0.68520024 0)
(-0.40462451 -0.72162881 0)
(-0.31873282 -0.75118257 0)
(-0.22983613 -0.77358916 0)
(-0.13877352 -0.78864235 0)
(-0.046403537 -0.7962037 0)
(0.046403537 -0.7962037 0)
(0.13877352 -0.78864235 0)
(0.22983613 -0.77358916 0)
(0.31873282 -0.75118257 0)
(0.40462451 -0.72162881 0)
(0.48669915 -0.68520024 0)
(0.56417919 -0.64223302 0)
(0.63632871 -0.59312426 0)
(0.70246022 -0.53832858 0)
(0.76194109 -0.47835412 0)
(0.81419933 -0.41375801 0)
(0.85872899 -0.34514147 0)
(0.89509471 -0.27314451 0)
(0.92293573 -0.19844034 0)
(0.94196927 -0.12172971 0)
(0.95199323 -0.04373506 0)
(0.95288844 0.034805396 0)
(0.94462046 0.11314369 0)
(0.92724086 0.19052837 0)
(0.9008881 0.266211 0)
(0.86578774 0.33945315 0)
(0.82225189 0.40953361 0)
(0.77067777 0.47575604 0)
(0.71154512 0.53745663 0)
(0.64541264 0.59401187 0)
(0.57291311 0.644846 0)
(0.49474757 0.68943814 0)
(0.41167837 0.72732881 0)
(0.32452133 0.75812577 0)
(0.23413712 0.781509 0)
(0.14142194 0.79723483 0)
(0.04729778 0.80513906 0)
(-0.05148398 0.90343894 0)
(-0.15393663 0.89455341 0)
(-0.25484916 0.87687592 0)
(-0.35321404 0.85059241 0)
(-0.4480523 0.81597873 0)
(-0.53842439 0.77339715 0)
(-0.62344048 0.72329153 0)
(-0.70227003 0.66618164 0)
(-0.77415044 0.60265637 0)
(-0.83839466 0.53336615 0)
(-0.89439762 0.45901474 0)
(-0.94164129 0.38035046 0)
(-0.97969848 0.29815734 0)
(-1.0082353 0.21324616 0)
(-1.0270121 0.12644582 0)
(-1.0358842 0.038595193 0)
(-1.0348005 -0.049464494 0)
(-1.0238027 -0.13689676 0)
(-1.0030237 -0.22287652 0)
(-0.97268534 -0.30659655 0)
(-0.93309651 -0.38727387 0)
(-0.88464998 -0.4641561 0)
(-0.8278191 -0.53652789 0)
(-0.76315359 -0.60371706 0)
(-0.69127459 -0.66510068 0)
(-0.61286893 -0.72011063 0)
(-0.52868276 -0.76823864 0)
(-0.43951462 -0.80904085 0)
(-0.346208 -0.84214161 0)
(-0.24964359 -0.86723665 0)
(-0.15073122 -0.88409561 0)
(-0.050401673 -0.89256389 0)
(0.050401673 -0.89256389 0)
(0.15073122 -0.88409561 0)
(0.24964359 -0.86723665 0)
(0.346208 -0.84214161 0)
(0.43951462 -0.80904085 0)
(0.52868276 -0.76823864 0)
(0.61286893 -0.72011063 0)
(0.69127459 -0.66510068 0)
(0.76315359 -0.60371706 0)
(0.8278191 -0.53652789 0)
(0.88464998 -0.4641561 0)
(0.93309651 -0.38727387 0)
(0.97268534 -0.30659655 0)
(1.0030237 -0.22287652 0)
(1.0238027 -0.13689676 0)
(1.0348005 -0.049464494 0)
(1.0358842 0.038595193 0)
(1.0270121 0.12644582 0)
(1.0082353 0.21324616 0)
(0.97969848 0.29815734 0)
(0.94164129 0.38035046 0)
(0.89439762 0.45901474 0)
(0.83839466 0.53336615 0)
(0.77415044 0.60265637 0)
(0.70227003 0.66618164 0)
(0.62344048 0.72329153 0)
(0.53842439 0.77339715 0)
(0.4480523 0.81597873 0)
(0.35321404 0.85059241 0)
(0.25484916 0.87687592 0)
(0.15393663 0.89455341 0)
(0.05148398 0.90343894 0)
(-0.056181948 1.0105776 0)
(-0.1679809 1.0006178 0)
(-0.27809145 0.98080399 0)
(-0.38540936 0.95134613 0)
(-0.48886215 0.91255591 0)
(-0.58742121 0.86484247 0)
(-0.68011323 0.80870705 0)
(-0.7660309 0.74473636 0)
(-0.84434252 0.67359479 0)
(-0.91430046 0.59601559 0)
(-0.97524812 0.51279132 0)
(-1.0266255 0.42476369 0)
(-1.0679729 0.33281313 0)
(-1.0989332 0.23784856 0)
(-1.1192528 0.14079748 0)
(-1.1287808 0.042596845 0)
(-1.127468 -0.055815233 0)
(-1.115365 -0.15350699 0)
(-1.0926201 -0.24955996 0)
(-1.0594776 -0.34307572 0)
(-1.0162751 -0.43318265 0)
(-0.96344094 -0.51904294 0)
(-0.90149071 -0.59985965 0)
(-0.83102282 -0.67488376 0)
(-0.75271323 -0.74342099 0)
(-0.66730929 -0.80483819 0)
(-0.57562272 -0.858569 0)
(-0.47852204 -0.90411897 0)
(-0.3769244 -0.94106977 0)
(-0.27178711 -0.9690827 0)
(-0.16409895 -0.98790143 0)
(-0.054871215 -0.99735395 0)
(0.054871215 -0.99735395 0)
(0.16409895 -0.98790143 0)
(0.27178711 -0.9690827 0)
(0.3769244 -0.94106977 0)
(0.47852204 -0.90411897 0)
(0.57562272 -0.858569 0)
(0.66730929 -0.80483819 0)
(0.75271323 -0.74342099 0)
(0.83102282 -0.67488376 0)
(0.90149071 -0.59985965 0)
(0.96344094 -0.51904294 0)
(1.0162751 -0.43318265 0)
(1.0594776 -0.34307572 0)
(1.0926201 -0.24955996 0)
(1.115365 -0.15350699 0)
(1.127468 -0.055815233 0)
(1.1287808 0.042596845 0)
(1.1192528 0.14079748 0)
(1.0989332 0.23784856 0)
(1.0679729 0.33281313 0)
(1.0266255 0.42476369 0)
(0.97524812 0.51279132 0)
(0.91430046 0.59601559 0)
(0.84434252 0.67359479 0)
(0.7660309 0.74473636 0)
(0.68011323 0.80870705 0)
(0.58742121 0.86484247 0)
(0.48886215 0.91255591 0)
(0.38540936 0.95134613 0)
(0.27809145 0.98080399 0)
(0.1679809 1.0006178 0)
(0.056181948 1.0105776 0)
(-0.061439917 1.1276214 0)
(-0.1836988 1.1164824 0)
(-0.30410201 1.0943236 0)
(-0.42143622 1.061382 0)
(-0.5345235 1.018009 0)
(-0.64223484 0.96466597 0)
(-0.74350295 0.90191818 0)
(-0.83733424 0.83042697 0)
(-0.92281964 0.75094088 0)
(-0.99914396 0.66428547 0)
(-1.0655937 0.57135208 0)
(-1.1215629 0.47308598 0)
(-1.1665571 0.37047418 0)
(-1.2001952 0.26453343 0)
(-1.2222095 0.15629892 0)
(-1.2324443 0.046814025 0)
(-1.2308538 -0.062878646 0)
(-1.2174992 -0.17174495 0)
(-1.1925467 -0.27876616 0)
(-1.156265 -0.38294581 0)
(-1.1090235 -0.48331669 0)
(-1.0512897 -0.57894851 0)
(-0.9836258 -0.66895582 0)
(-0.90668414 -0.75250602 0)
(-0.82120166 -0.82882724 0)
(-0.72799311 -0.89721555 0)
(-0.62794333 -0.95704153 0)
(-0.52199883 -1.0077559 0)
(-0.41115885 -1.0488941 0)
(-0.29646605 -1.0800803 0)
(-0.17899695 -1.1010301 0)
(-0.059852355 -1.1115529 0)
(0.059852355 -1.1115529 0)
(0.17899695 -1.1010301 0)
(0.29646605 -1.0800803 0)
(0.41115885 -1.0488941 0)
(0.52199883 -1.0077559 0)
(0.62794333 -0.95704153 0)
(0.72799311 -0.89721555 0)
(0.82120166 -0.82882724 0)
(0.90668414 -0.75250602 0)
(0.9836258 -0.66895582 0)
(1.0512897 -0.57894851 0)
(1.1090235 -0.48331669 0)
(1.156265 -0.38294581 0)
(1.1925467 -0.27876616 0)
(1.2174992 -0.17174495 0)
(1.2308538 -0.062878646 0)
(1.2324443 0.046814025 0)
(1.2222095 0.15629892 0)
(1.2001952 0.26453343 0)
(1.1665571 0.37047418 0)
(1.1215629 0.47308598 0)
(1.0655937 0.57135208 0)
(0.99914396 0.66428547 0)
(0.92281964 0.75094088 0)
(0.83733424 0.83042697 0)
(0.74350295 0.90191818 0)
(0.64223484 0.96466597 0)
(0.5345235 1.018009 0)
(0.42143622 1.061382 0)
(0.30410201 1.0943236 0)
(0.1836988 1.1164824 0)
(0.061439917 1.1276214 0)
(-0.067310779 1.2557378 0)
(-0.20124834 1.2433013 0)
(-0.33314192 1.2185625 0)
(-0.46165538 1.1817883 0)
(-0.58549208 1.1333747 0)
(-0.70341002 1.0738415 0)
(-0.81423622 1.0038252 0)
(-0.91688028 0.92407081 0)
(-1.0103465 0.8354211 0)
(-1.0937446 0.73880491 0)
(-1.1662982 0.63522403 0)
(-1.2273517 0.52573918 0)
(-1.2763735 0.41145567 0)
(-1.3129583 0.29350922 0)
(-1.3368253 0.17305285 0)
(-1.3478159 0.051245328 0)
(-1.3458898 -0.070758275 0)
(-1.3311212 -0.1918142 0)
(-1.3036962 -0.31079647 0)
(-1.2639103 -0.42660331 0)
(-1.2121675 -0.53816442 0)
(-1.1489777 -0.64444919 0)
(-1.0749544 -0.74447575 0)
(-0.99080939 -0.83732028 0)
(-0.89734729 -0.9221261 0)
(-0.7954578 -0.99811213 0)
(-0.68610717 -1.0645802 0)
(-0.57032878 -1.1209215 0)
(-0.44921313 -1.1666216 0)
(-0.32389766 -1.2012643 0)
(-0.19555625 -1.2245353 0)
(-0.065388882 -1.2362237 0)
(0.065388882 -1.2362237 0)
(0.19555625 -1.2245353 0)
(0.32389766 -1.2012643 0)
(0.44921313 -1.1666216 0)
(0.57032878 -1.1209215 0)
(0.68610717 -1.0645802 0)
(0.7954578 -0.99811213 0)
(0.89734729 -0.9221261 0)
(0.99080939 -0.83732028 0)
(1.0749544 -0.74447575 0)
(1.1489777 -0.64444919 0)
(1.2121675 -0.53816442 0)
(1.2639103 -0.42660331 0)
(1.3036962 -0.31079647 0)
(1.3311212 -0.1918142 0)
(1.3458898 -0.070758275 0)
(1.3478159 0.051245328 0)
(1.3368253 0.17305285 0)
(1.3129583 0.29350922 0)