/*--------------------------------*- C++ -*----------------------------------*\
| =========                 |                                                 |
| \\      /  F ield         | OpenFOAM: The Open Source CFD Toolbox           |
|  \\    /   O peration     | Version:  2306                                  |
|   \\  /    A nd           | Website:  www.openfoam.com                      |
|    \\/     M anipulation  |                                                 |
\*---------------------------------------------------------------------------*/
FoamFile
{
    version     2.0;
    format      ascii;
    arch        "LSB;label=32;scalar=64";
    class       surfaceScalarField;
    location    "0.46";
    object      phi_0;
}
// * * * * * * * * * * * * * * * * * * * * * * * * * * * * * * * * * * * * * //

dimensions      [0 3 -1 0 0 0 0];

oriented        oriented;

internalField   nonuniform List<scalar> 
12640
(
4.3404464e-07
-4.4326955e-06
1.7336768e-06
-1.3295034e-05
3.8693169e-06
-2.2012878e-05
6.8028806e-06
-3.0468664e-05
1.0493444e-05
-3.8523755e-05
1.4898336e-05
-4.6051043e-05
1.9966836e-05
-5.2924807e-05
2.5631679e-05
-5.9012332e-05
3.1803841e-05
-6.4180034e-05
3.8372026e-05
-6.8303943e-05
4.5206277e-05
-7.1280521e-05
5.216433e-05
-7.3035145e-05
5.9099109e-05
-7.3526946e-05
6.586607e-05
-7.2749967e-05
7.2329551e-05
-7.0731258e-05
7.8367659e-05
-6.7526759e-05
8.3875552e-05
-6.3215883e-05
8.8767186e-05
-5.7895554e-05
9.2975687e-05
-5.1674256e-05
9.6452608e-05
-4.466651e-05
9.9166341e-05
-3.6988112e-05
0.00010109993
-2.8752203e-05
0.00010224844
-2.0066292e-05
0.00010261655
-1.1030174e-05
0.00010221432
-1.7341838e-06
0.00010106044
7.7332631e-06
9.9170952e-05
1.730652e-05
9.6564166e-05
2.6916647e-05
9.3257737e-05
3.6503257e-05
8.9267881e-05
4.6010434e-05
8.4609043e-05
5.5384852e-05
7.9294051e-05
6.4573898e-05
7.3334674e-05
7.3523922e-05
6.6742536e-05
8.2178641e-05
5.953041e-05
9.0477831e-05
5.1713491e-05
9.8356436e-05
4.3311321e-05
0.00010574388
3.4349534e-05
0.00011256379
2.4860752e-05
0.00011873476
1.4888961e-05
0.00012417058
4.4853391e-06
0.00012878361
-6.2788848e-06
0.00013247748
-1.7326504e-05
0.00013516369
-2.8561566e-05
0.00013675386
-3.9873841e-05
0.00013716794
-5.1138742e-05
0.00013633602
-6.2218359e-05
0.00013420262
-7.2963478e-05
0.00013073105
-8.3216513e-05
0.00012590764
-9.2815381e-05
0.00011974566
-0.00010159827
0.00011228857
-0.00010940911
0.0001036123
-0.00011610359
9.3826299e-05
-0.00012155521
8.3072833e-05
-0.00012566121
7.1524561e-05
-0.00012834764
5.9380224e-05
-0.00012957355
4.6859243e-05
-0.00012933377
3.4194446e-05
-0.00012766081
2.1624805e-05
-0.00012462746
9.3904073e-06
-0.00012030221
-2.3206162e-06
-0.00011485322
-1.3274939e-05
-0.00010842417
-2.328354e-05
-0.00010119068
-3.2210696e-05
-9.3339591e-05
-3.9949856e-05
-8.5063514e-05
-4.6428309e-05
-7.6554481e-05
-5.1609499e-05
-6.7998143e-05
-5.5493061e-05
-5.9568598e-05
-5.8112388e-05
-5.1423974e-05
-5.953137e-05
-4.3702877e-05
-5.984028e-05
-3.6521768e-05
-5.9151095e-05
-2.9973185e-05
-5.7592659e-05
-2.4124671e-05
-5.5305715e-05
-1.9018703e-05
-5.243761e-05
-1.467344e-05
-4.9137638e-05
-1.1082942e-05
-4.5554158e-05
-8.2209469e-06
-4.1825238e-05
-6.0414911e-06
-3.8081217e-05
-3.4436933e-05
4.9447837e-07
-4.9271739e-06
1.9660636e-06
-1.476662e-05
4.3604263e-06
-2.4407241e-05
7.6199633e-06
-3.3728201e-05
1.1699785e-05
-4.2603577e-05
1.6563967e-05
-5.0915226e-05
2.2170372e-05
-5.8531212e-05
2.8454165e-05
-6.5296125e-05
3.5319033e-05
-7.1044902e-05
4.2636848e-05
-7.5621758e-05
5.0253788e-05
-7.8897461e-05
5.8000129e-05
-8.0781486e-05
6.5701044e-05
-8.1227861e-05
7.3186579e-05
-8.0235502e-05
8.029976e-05
-7.7844438e-05
8.6902425e-05
-7.4129424e-05
9.2878818e-05
-6.9192275e-05
9.8137134e-05
-6.315387e-05
0.00010260938
-5.6146498e-05
0.0001062499
-4.830703e-05
0.00010903288
-3.97711e-05
0.00011094936
-3.0668676e-05
0.00011200365
-2.112058e-05
0.00011220983
-1.1236359e-05
0.0001115875
-1.1118559e-06
0.00011016493
9.1558354e-06
0.00010796451
1.9506935e-05
0.00010501043
2.9870734e-05
0.0001013243
4.0189384e-05
9.6924446e-05
5.041029e-05
9.1825616e-05
6.0483683e-05
8.6039276e-05
7.0360238e-05
7.9574399e-05
7.9988799e-05
7.2438668e-05
8.9314371e-05
6.4640006e-05
9.8276493e-05
5.6188471e-05
0.00010680797
4.7098409e-05
0.00011483394
3.7390411e-05
0.00012227179
2.7093203e-05
0.00012903197
1.6247337e-05
0.00013501644
4.9076922e-06
0.00014012325
-6.8625558e-06
0.00014424773
-1.8975243e-05
0.00014727638
-3.1328795e-05
0.00014910741
-4.3802702e-05
0.00014964185
-5.6258213e-05
0.00014879154
-6.8539474e-05
0.00014648388
-8.0475645e-05
0.00014266722
-9.1884195e-05
0.00013731619
-0.00010257542
0.00013043689
-0.00011235814
0.00012207129
-0.00012104645
0.00011230061
-0.00012846715
0.000101247
-0.00013446752
8.9073205e-05
-0.00013892278
7.597982e-05
-0.00014174278
6.2200224e-05
-0.00014287729
4.7993754e-05
-0.00014231949
3.3636646e-05
-0.00014010813
1.941345e-05
-0.00013632888
5.6111536e-06
-0.00013107885
-7.5706421e-06
-0.00012454228
-1.9811516e-05
-0.00011690415
-3.0921667e-05
-0.00010837386
-4.0740987e-05
-9.917461e-05
-4.9149105e-05
-8.9535386e-05
-5.6067533e-05
-7.968309e-05
-6.1461795e-05
-6.9835552e-05
-6.5340598e-05
-6.0195465e-05
-6.7752476e-05
-5.09453e-05
-6.8781535e-05
-4.2243315e-05
-6.8542265e-05
-3.422071e-05
-6.7173699e-05
-2.697979e-05
-6.4833579e-05
-2.0592895e-05
-6.1692609e-05
-1.5102377e-05
-5.7928128e-05
-1.0521716e-05
-5.3718299e-05
-6.8359572e-06
-4.9239916e-05
-4.0071617e-06
-4.4654034e-05
-1.973768e-06
-4.011461e-05
-3.5756304e-05
5.7170249e-07
-5.4988764e-06
2.2525355e-06
-1.6447452e-05
4.9447586e-06
-2.7099464e-05
8.560073e-06
-3.7343515e-05
1.305436e-05
-4.7097863e-05
1.8409828e-05
-5.6270694e-05
2.4603854e-05
-6.4725238e-05
3.1579254e-05
-7.2271525e-05
3.9231222e-05
-7.8696869e-05
4.7408702e-05
-8.3799239e-05
5.5925341e-05
-8.74141e-05
6.4574878e-05
-8.9431023e-05
7.3146797e-05
-8.9799779e-05
8.143972e-05
-8.8528425e-05
8.9271494e-05
-8.5676213e-05
9.6485849e-05
-8.1343779e-05
0.00010295597
-7.5662398e-05
0.00010858553
-6.8783425e-05
0.00011330763
-6.0868604e-05
0.0001170823
-5.2081699e-05
0.00011989287
-4.2581666e-05
0.00012174166
-3.2517475e-05
0.00012264571
-2.2024627e-05
0.00012263115
-1.1221798e-05
0.0001217325
-2.1320519e-07
0.00011998514
1.0903195e-05
0.00011742218
2.2069891e-05
0.00011407442
3.3218495e-05
0.00010996784
4.4295968e-05
0.00010512273
5.5255403e-05
9.9553549e-05
6.605286e-05
9.3269409e-05
7.6644377e-05
8.6275106e-05
8.6983103e-05
7.8572689e-05
9.7016788e-05
7.016347e-05
0.00010668571
6.1050338e-05
0.0001159211
5.1240028e-05
0.00012464425
4.0746087e-05
0.00013276573
2.9592025e-05
0.00014018603
1.7813325e-05
0.00014679514
5.4607505e-06
0.00015247582
-7.4000828e-06
0.00015710856
-2.0679349e-05
0.00016055564
-3.4268578e-05
0.00016269664
-4.8036247e-05
0.00016340952
-6.1828108e-05
0.0001625834
-7.5468083e-05
0.00016012385
-8.8760382e-05
0.00015595952
-0.00010149312
0.00015004893
-0.00011344354
0.00014238731
-0.00012438482
0.00013301257
-0.00013409434
0.00012201012
-0.00014236302
0.00010951568
-0.00014900517
9.571536e-05
-0.00015386822
8.0842864e-05
-0.00015684121
6.5173216e-05
-0.0001578618
4.9014347e-05
-0.00015692088
3.2695727e-05
-0.00015406541
1.6557979e-05
-0.0001493985
9.4424339e-07
-0.00014304041
-1.3928734e-05
-0.00013521561
-2.7636319e-05
-0.00012614825
-3.9989021e-05
-0.00011609073
-5.0798513e-05
-0.00010531072
-5.9929108e-05
-9.4081099e-05
-6.7297158e-05
-8.2670317e-05
-7.2872578e-05
-7.1334111e-05
-7.6676803e-05
-6.0308424e-05
-7.8778164e-05
-4.9803645e-05
-7.9286313e-05
-4.0000214e-05
-7.8345696e-05
-3.1045578e-05
-7.6128335e-05
-2.3052314e-05
-7.2826843e-05
-1.6097341e-05
-6.8647583e-05
-1.0221862e-05
-6.3803607e-05
-5.4326657e-06
-5.8507495e-05
-1.7062845e-06
-5.2966297e-05
1.0234756e-06
-4.7383794e-05
2.8368076e-06
-4.1927942e-05
-3.6749077e-05
6.6686621e-07
-6.1657426e-06
2.5906719e-06
-1.8371258e-05
5.6102598e-06
-3.0119052e-05
9.5961417e-06
-4.1329397e-05
1.4517527e-05
-5.2019248e-05
2.0392177e-05
-6.2145345e-05
2.7232082e-05
-7.1565143e-05
3.4992728e-05
-8.0032171e-05
4.3556355e-05
-8.7260496e-05
5.2738152e-05
-9.2981036e-05
6.2305739e-05
-9.6981686e-05
7.2003347e-05
-9.9128631e-05
8.1574307e-05
-9.9370739e-05
9.0778693e-05
-9.7732811e-05
9.9405333e-05
-9.4302853e-05
0.00010727876
-8.9217206e-05
0.00011426213
-8.2645767e-05
0.00012025709
-7.4778384e-05
0.00012520138
-6.58129e-05
0.00012906484
-5.5945159e-05
0.00013184429
-4.5361107e-05
0.00013355785
-3.4231034e-05
0.00013423908
-2.2705862e-05
0.00013393107
-1.0913787e-05
0.00013268629
1.03157e-06
0.00013054764
1.3041846e-05
0.00012756274
2.5054794e-05
0.00012376973
3.7011508e-05
0.00011919923
4.886646e-05
0.00011387325
6.0581384e-05
0.0001078051
7.2121014e-05
0.00010100015
8.3449326e-05
9.3457272e-05
9.452598e-05
8.5170828e-05
0.00010530323
7.6133101e-05
0.00011572344
6.6337159e-05
0.00012571705
5.5780068e-05
0.00013520134
4.4465653e-05
0.00014408014
3.2409288e-05
0.0001522424
1.9637342e-05
0.00015956709
6.1959187e-06
0.00016591725
-7.8447557e-06
0.00017114924
-2.2400143e-05
0.00017511103
-3.7353975e-05
0.00017765047
-5.2563365e-05
0.00017861891
-6.785734e-05
0.00017787737
-8.3037204e-05
0.00017530372
-9.7878489e-05
0.0001708008
-0.00011213482
0.00016430526
-0.00012554386
0.00015579634
-0.00013783539
0.0001453041
-0.00014874146
0.00013291619
-0.00015800811
0.00011878233
-0.00016540803
0.00010311528
-0.00017075308
8.618791e-05
-0.0001739058
6.8325936e-05
-0.00017478872
4.9897266e-05
-0.00017339212
3.1299128e-05
-0.00016977902
1.2944878e-05
-0.00016401016
-4.8246163e-06
-0.00015634557
-2.1593322e-05
-0.00014699208
-3.6989813e-05
-0.00013623168
-5.0749417e-05
-0.00012437188
-6.2658311e-05
-0.0001117351
-7.2565888e-05
-9.8647215e-05
-8.0385046e-05
-8.5426208e-05
-8.6093585e-05
-7.2372381e-05
-8.973063e-05
-5.9760195e-05
-9.139035e-05
-4.7831879e-05
-9.1214628e-05
-3.6792697e-05
-8.9384879e-05
-2.6807819e-05
-8.6113213e-05
-1.800031e-05
-8.1634352e-05
-1.0451155e-05
-7.6196738e-05
-4.2031184e-06
-7.0051644e-05
7.5824304e-07
-6.3468857e-05
4.477708e-06
-5.6685762e-05
7.0205327e-06
-4.9926619e-05
8.4923726e-06
-4.3399782e-05
-3.7281401e-05
7.66711e-07
-6.9324536e-06
2.9295975e-06
-2.0534145e-05
6.262591e-06
-3.3452045e-05
1.0595287e-05
-4.5662093e-05
1.5937201e-05
-5.7361162e-05
2.2361346e-05
-6.856949e-05
2.9930528e-05
-7.9134325e-05
3.8613271e-05
-8.8714914e-05
4.8267392e-05
-9.6914617e-05
5.8655946e-05
-0.00010336959
6.9480182e-05
-0.00010780592
8.0416589e-05
-0.00011006504
9.1148676e-05
-0.00011010283
0.00010138975
-0.00010797388
0.00011089644
-0.00010380954
0.0001194748
-9.7795568e-05
0.00012698126
-9.0152228e-05
0.00013332025
-8.1117374e-05
0.0001384397
-7.0932348e-05
0.00014232509
-5.9830547e-05
0.00014499258
-4.8028606e-05
0.00014648173
-3.572018e-05
0.00014684809
-2.3072221e-05
0.00014615643
-1.0222124e-05
0.00014447618
2.7118162e-06
0.00014186987
1.5648156e-05
0.00013839547
2.8529196e-05
0.00013410042
4.130656e-05
0.00012902043
5.3946448e-05
0.0001231787
6.6423113e-05
0.00011658618
7.8713535e-05
0.00010924273
9.0792778e-05
0.00010113903
0.00010262967
9.2259121e-05
0.00011418315
8.2583436e-05
0.00012539912
7.2092264e-05
0.00013620822
6.0769444e-05
0.00014652416
4.8606469e-05
0.00015624312
3.5605753e-05
0.00016524311
2.1786954e-05
0.00017338589
7.1865122e-06
0.00018051769
-8.133256e-06
0.00018646901
-2.4082914e-05
0.00019106069
-4.054276e-05
0.00019411032
-5.735926e-05
0.00019543541
-7.4343824e-05
0.00019486194
-9.1272745e-05
0.00019223264
-0.0001078888
0.00018741686
-0.00012390518
0.00018032165
-0.00013901215
0.00017090331
-0.00015288656
0.00015917851
-0.00016520429
0.00014523393
-0.00017565501
0.00012923305
-0.00018395846
0.00011141873
-0.00018988098
9.2110423e-05
-0.00019325013
7.1695087e-05
-0.00019396751
5.0614649e-05
-0.00019201599
2.9347605e-05
-0.00018747464
8.4035314e-06
-0.00018044111
-1.1858144e-05
-0.00017119147
-3.0842969e-05
-0.00016001008
-4.81712e-05
-0.00014723702
-6.3522477e-05
-0.00013324515
-7.6650184e-05
-0.00011842319
-8.7387845e-05
-0.00010316087
-9.5647361e-05
-8.7835081e-05
-0.00010141938
-7.2798308e-05
-0.0001047674
-5.8369389e-05
-0.00010581927
-4.4826567e-05
-0.00010475745
-3.240255e-05
-0.0001018089
-2.1281984e-05
-9.7233779e-05
-1.1599766e-05
-9.131657e-05
-3.4415822e-06
-8.4354923e-05
3.179286e-06
-7.6672512e-05
8.2640133e-06
-6.8553584e-05
1.187124e-05
-6.0292988e-05
1.4103616e-05
-5.2158995e-05
1.5096221e-05
-4.4392388e-05
-3.7198413e-05
8.296073e-07
-7.7620609e-06
3.127546e-06
-2.2832083e-05
6.658108e-06
-3.6982607e-05
1.1236915e-05
-5.02409e-05
1.6968167e-05
-6.3092415e-05
2.3989239e-05
-7.5590563e-05
3.2424509e-05
-8.7569594e-05
4.2242774e-05
-9.853318e-05
5.3254189e-05
-0.00010792603
6.5141646e-05
-0.00011525705
7.7511613e-05
-0.00012017589
8.9948036e-05
-0.00012250146
0.00010205629
-0.00012221108
0.00011349261
-0.0001194102
0.00012397891
-0.00011429584
0.00013330634
-0.00010712299
0.00014133185
-9.8177741e-05
0.00014797149
-8.775701e-05
0.00015319235
-7.6153208e-05
0.00015700406
-6.3642262e-05
0.00015944998
-5.0474518e-05
0.00016059812
-3.6868324e-05
0.00016053235
-2.3006451e-05
0.00015934239
-9.0321591e-06
0.00015712424
4.9299649e-06
0.00015395841
1.8813983e-05
0.00014991721
3.2570391e-05
0.00014505806
4.6165715e-05
0.00013942168
5.9582826e-05
0.00013303155
7.2813244e-05
0.00012589454
8.5850551e-05
0.00011800262
9.8684693e-05
0.00010933542
0.00011129688
9.9863445e-05
0.00012365512
8.9551812e-05
0.00013571076
7.8364273e-05
0.00014739576
6.626789e-05
0.00015862055
5.3237651e-05
0.00016927336
3.9260425e-05
0.00017922034
2.4341922e-05
0.00018830439
8.5086295e-06
0.00019635098
-8.185158e-06
0.00020316279
-2.5653474e-05
0.00020852901
-4.3773211e-05
0.00021223006
-6.2380946e-05
0.00021404314
-8.1270048e-05
0.00021375104
-0.00010018953
0.00021115212
-0.00011884507
0.00020607239
-0.00013690267
0.00019837924
-0.00015399587
0.00018799651
-0.00016973688
0.00017491952
-0.00018373165
0.0001592287
-0.00019559858
0.00014109998
-0.0002049897
0.00012080985
-0.00021161218
9.8732909e-05
-0.00021524889
7.5331798e-05
-0.00021577396
5.1139711e-05
-0.00021316399
2.6737639e-05
-0.00020750145
2.7409883e-06
-0.00019893583
-2.0423763e-05
-0.00018779089
-4.1987908e-05
-0.00017442358
-6.1538513e-05
-0.00015925245
-7.86936e-05
-0.00014273255
-9.3170083e-05
-0.00012533407
-0.00010478633
-0.00010752383
-0.0001134576
-8.9748619e-05
-0.00011919459
-7.2421774e-05
-0.00012209425
-5.5912977e-05
-0.00012232806
-4.0541014e-05
-0.00012012941
-2.6569101e-05
-0.00011578081
-1.4201968e-05
-0.00010960091
-3.582046e-06
-0.00010193649
5.2202131e-06
-9.3157182e-05
1.2163712e-05
-8.3616011e-05
1.7284844e-05
-7.3674716e-05
2.0666639e-05
-6.3674783e-05
2.244051e-05
-5.3932866e-05
2.2778903e-05
-4.4730781e-05
-3.6307088e-05
7.8453771e-07
-8.5465986e-06
2.9459459e-06
-2.4993492e-05
6.3954846e-06
-4.0432146e-05
1.0994624e-05
-5.4840039e-05
1.7056872e-05
-6.9154662e-05
2.4753764e-05
-8.3287455e-05
3.4271966e-05
-9.7087796e-05
4.5542549e-05
-0.00010980376
5.8290386e-05
-0.00012067387
7.2082871e-05
-0.00012904953
8.6397724e-05
-0.00013449074
0.000100695
-0.00013679874
0.00011447606
-0.00013599214
0.00012732341
-0.00013225755
0.00013891909
-0.00012589152
0.00014904479
-0.00011724869
0.00015757054
-0.0001067035
0.00016443942
-9.4625886e-05
0.00016965273
-8.1366518e-05
0.00017325736
-6.7246897e-05
0.0001753347
-5.2551857e-05
0.00017599033
-3.7523955e-05
0.00017534381
-2.2359932e-05
0.00017351661
-7.2049527e-06
0.00017063615
7.8104191e-06
0.00016680371
2.2646427e-05
0.00016210829
3.726581e-05
0.00015661809
5.1655918e-05
0.00015037841
6.5822499e-05
0.0001434115
7.9780163e-05
0.00013571772
9.3544322e-05
0.00012727811
0.0001071243
0.00011805762
0.00012051737
0.00010800925
0.00013370349
9.7078549e-05
0.00014664146
8.5208557e-05
0.00015926575
7.2345065e-05
0.00017148404
5.8441828e-05
0.00018317659
4.3466577e-05
0.00019419559
2.7405766e-05
0.0002043652
1.0271948e-05
0.0002134848
-7.8950953e-06
0.00022132984
-2.7012621e-05
0.00022764653
-4.6958576e-05
0.00023217601
-6.7561602e-05
0.00023464617
-8.859745e-05
0.00023478689
-0.00010978609
0.00023234076
-0.00013079168
0.00022707799
-0.00015122552
0.00021881308
-0.00017065348
0.00020742447
-0.00018860871
0.00019287475
-0.00020460992
0.00017522991
-0.00021818498
0.00015467505
-0.00022889842
0.00013152328
-0.00023638065
0.00010621514
-0.00024035487
7.9306017e-05
-0.0002406606
5.1445444e-05
-0.00023728018
2.3357212e-05
-0.00023022704
-4.3121453e-06
-0.00021982449
-3.0826317e-05
-0.00020639986
-5.5412541e-05
-0.00019040869
-7.7529677e-05
-0.00017237143
-9.6730858e-05
-0.00015284647
-0.00011269505
-0.00013240425
-0.00012522855
-0.00011160466
-0.00013425719
-9.0977153e-05
-0.00013982209
-7.1005557e-05
-0.00014206585
-5.2116949e-05
-0.00014121667
-3.4674431e-05
-0.00013757193
-1.8972257e-05
-0.00013148298
-5.2338674e-06
-0.0001233393
6.3926584e-06
-0.00011356302
1.5817968e-05
-0.00010258249
2.3031674e-05
-9.0829717e-05
2.8085187e-05
-7.8728228e-05
3.1091455e-05
-6.6681052e-05
3.2219092e-05
-5.5060504e-05
3.1685269e-05
-4.4196957e-05
-3.4368397e-05
5.5834861e-07
-9.1049472e-06
2.1320505e-06
-2.6567194e-05
5.0583693e-06
-4.3358465e-05
9.3001574e-06
-5.9081827e-05
1.5618188e-05
-7.5472693e-05
2.4097351e-05
-9.1766618e-05
3.4989738e-05
-0.00010798018
4.8112769e-05
-0.00012292679
6.3060478e-05
-0.00013562158
7.9254584e-05
-0.00014524364
9.6015668e-05
-0.00015125183
0.00011264698
-0.00015343005
0.00012850921
-0.00015185437
0.00014307878
-0.00014682712
0.00015597916
-0.0001387919
0.00016698211
-0.00012825165
0.00017598612
-0.0001157075
0.00018298524
-0.00010162501
0.00018804021
-8.6421488e-05
0.00019125686
-7.0463547e-05
0.0001927714
-5.4066403e-05
0.00019273957
-3.7492126e-05
0.00019132641
-2.0946764e-05
0.00018869053
-4.5690813e-06
0.00018499947
1.1501488e-05
0.000180376
2.7269897e-05
0.00017492846
4.2713348e-05
0.0001687363
5.7848077e-05
0.00016184832
7.2710476e-05
0.00015428319
8.7345293e-05
0.00014603155
0.00010179597
0.00013705941
0.00011609644
0.00012731259
0.00013026419
0.0001167217
0.00014429437
0.00010520778
0.00015815538
9.2688082e-05
0.00017178545
7.9081733e-05
0.00018509039
6.4316234e-05
0.00019794209
4.8333511e-05
0.00021017831
3.1097503e-05
0.00022160121
1.2599626e-05
0.00023198268
-7.1302762e-06
0.00024105974
-2.8031082e-05
0.00024854734
-4.9981122e-05
0.00025412605
-7.2804077e-05
0.00025746913
-9.625975e-05
0.00025824256
-0.00012003832
0.00025611933
-0.00014375828
0.00025079794
-0.00016696812
0.00024202293
-0.00018915334
0.00022960969
-0.00020975047
0.00021347188
-0.00022816898
0.00019364842
-0.00024382103
0.0001703271
-0.00025615763
0.00014385988
-0.00026470734
0.00011476485
-0.00026911446
8.3713137e-05
-0.00026916899
5.1499975e-05
-0.00026483749
1.9025706e-05
-0.00025616287
-1.2986761e-05
-0.00024351006
-4.3479129e-05
-0.00022732122
-7.1601386e-05
-0.00020816527
-9.668562e-05
-0.00018669015
-0.00011820598
-0.00016358346
-0.00013580173
-0.00013953895
-0.00014927306
-0.00011522844
-0.0001585677
-9.127844e-05
-0.0001637721
-6.8253326e-05
-0.00016509096
-4.6644416e-05
-0.00016282558
-2.6861689e-05
-0.00015735466
-9.230682e-06
-0.00014911399
6.0010573e-06
-0.00013857104
1.867534e-05
-0.0001262373
2.8714048e-05
-0.0001126212
3.6119008e-05
-9.8234677e-05
4.096754e-05
-8.3576761e-05
4.340832e-05
-6.9121832e-05
4.3655147e-05
-5.5307331e-05
4.1978987e-05
-4.2520797e-05
-3.108702e-05
1.1762753e-07
-9.2225748e-06
5.9294495e-07
-2.7042511e-05
2.480817e-06
-4.5246337e-05
5.9283998e-06
-6.252941e-05
1.2442591e-05
-8.1986885e-05
2.1807498e-05
-0.00010113152
3.437729e-05
-0.00012054998
4.9732293e-05
-0.0001382818
6.7304522e-05
-0.00015319381
8.6369487e-05
-0.0001643086
0.00010609061
-0.00017097295
0.00012559596
-0.00017293539
0.00014406195
-0.00017032037
0.00016080063
-0.0001635658
0.00017532495
-0.00015331622
0.00018736991
-0.00014029661
0.00019686698
-0.00012520457
0.00020388998
-0.000108648
0.00020859794
-9.1129448e-05
0.00021119237
-7.3057977e-05
0.00021189267
-5.4766704e-05
0.00021092469
-3.652415e-05
0.00020851233
-1.8534402e-05
0.00020486203
-9.1878027e-07
0.00020018208
1.6181433e-05
0.0001946231
3.2828876e-05
0.0001883148
4.9021652e-05
0.00018134721
6.4815667e-05
0.00017377043
8.0287256e-05
0.00016559609
9.5519626e-05
0.00015680064
0.00011059143
0.00014732995
0.00012556713
0.00013710504
0.0001404891
0.00012602841
0.00015537101
0.00011399068
0.00017019311
0.00010087724
0.00018489889
8.6574989e-05
0.00019939264
7.0979188e-05
0.00021353789
5.4001499e-05
0.000227156
3.5575013e-05
0.00024002769
1.5666725e-05
0.00025189096
-5.7214711e-06
0.00026244794
-2.8542776e-05
0.00027136864
-5.2685277e-05
0.00027826855
-7.7973685e-05
0.00028275753
-0.00010415555
0.00028442443
-0.00013089232
0.0002828561
-0.00015775363
0.00027765925
-0.00018421696
0.00026848626
-0.000209673
0.00025506573
-0.00023344047
0.00023723934
-0.0002547919
0.00021499985
-0.00027299089
0.00018852609
-0.00028733969
0.00015820868
-0.00029723228
0.00012465745
-0.00030220479
8.8685651e-05
-0.00030198038
5.1275563e-05
-0.0002965064
1.3551727e-05
-0.0002858493
-2.3643862e-05
-0.00027045806
-5.8870372e-05
-0.0002509061
-9.115335e-05
-0.00022791634
-0.00011967538
-0.00020230228
-0.00014382004
-0.00017491495
-0.00016318907
-0.00014659978
-0.00017758823
-0.00011816263
-0.00018700485
-9.0342843e-05
-0.00019159188
-6.3795868e-05
-0.00019163793
-3.9082565e-05
-0.00018753888
-1.666437e-05
-0.00017977285
3.1016367e-06
-0.00016888
1.9950015e-05
-0.00015541942
3.3716366e-05
-0.00014000365
4.4332373e-05
-0.00012323721
5.1819207e-05
-0.00010572151
5.628521e-05
-8.8042764e-05
5.7921588e-05
-7.075821e-05
5.6996074e-05
-5.4381816e-05
5.3844045e-05
-3.9368768e-05
-2.6099396e-05
-4.7825645e-07
-8.7443183e-06
-1.5434159e-06
-2.5977352e-05
-1.0056879e-06
-4.5784065e-05
1.4175272e-06
-6.4952625e-05
8.0769782e-06
-8.8646336e-05
1.8442081e-05
-0.00011149663
3.2900119e-05
-0.00013500801
5.0675263e-05
-0.00015605694
7.105766e-05
-0.0001735762
9.3227337e-05
-0.00018647828
0.0001162447
-0.00019399031
0.00013908739
-0.00019577809
0.00016072005
-0.00019195303
0.00018021193
-0.00018305768
0.00019686393
-0.00016996823
0.00021028969
-0.00015372237
0.00022041573
-0.00013533061
0.00022740921
-0.00011564148
0.00023157545
-9.5295687e-05
0.00023326948
-7.4752008e-05
0.00023284341
-5.4340641e-05
0.00023062696
-3.4307694e-05
0.0002269219
-1.4829344e-05
0.00022202005
3.9830689e-06
0.00021613316
2.2068322e-05
0.00020947241
3.9489624e-05
0.00020218468
5.6309387e-05
0.00019436796
7.2632388e-05
0.00018606997
8.8585248e-05
0.00017729035
0.00010429925
0.00016798533
0.00011989644
0.00015807402
0.00013547844
0.00014744575
0.00015111736
0.00013596794
0.00016684882
0.00012349388
0.00018266717
0.00010987048
0.00019852228
9.4945825e-05
0.0002143173
7.8576839e-05
0.00022990688
6.0636073e-05
0.00024509677
4.1022393e-05
0.00025964137
1.9665147e-05
0.00027324821
-3.4605233e-06
0.00028557361
-2.8338258e-05
0.00029624638
-5.4869817e-05
0.00030480011
-8.2890012e-05
0.00031077773
-0.00011214053
0.00031367495
-0.00014225759
0.00031297316
-0.00017276098
0.00030816264
-0.00020304936
0.00029877465
-0.00023240274
0.0002844191
-0.00025999658
0.00026483318
-0.00028493127
0.00023993454
-0.00030627848
0.0002098733
-0.00032314397
0.00017507417
-0.00033474065
0.00013625413
-0.00034046134
9.4406344e-05
-0.000339936
5.0750222e-05
-0.00033309186
6.7075795e-06
-0.00031999546
-3.6740261e-05
-0.00030124067
-7.7625162e-05
-0.00027756914
-0.00011482488
-0.0002499091
-0.00014733542
-0.00021929091
-0.00017443823
-0.0001867731
-0.00019570688
-0.00015338738
-0.00021097395
-0.00012009847
-0.00022029376
-8.7775305e-05
-0.00022391505
-5.7172749e-05
-0.00022224049
-2.8921635e-05
-0.00021579
-3.5285041e-06
-0.00020516599
1.8573583e-05
-0.00019098208
3.7152956e-05
-0.00017399879
5.2038024e-05
-0.00015488872
6.3168974e-05
-0.00013436816
7.0590699e-05
-0.00011314324
7.4448122e-05
-9.1900187e-05
7.498177e-05
-7.1291858e-05
7.2521936e-05
-5.1921982e-05
6.7480254e-05
-3.4327086e-05
-1.8956501e-05
-1.1043438e-06
-7.6399746e-06
-3.9093356e-06
-2.317236e-05
-4.321409e-06
-4.5371991e-05
-3.0627966e-06
-6.6211237e-05
3.9271516e-06
-9.5636284e-05
1.5473693e-05
-0.00012304317
3.1810153e-05
-0.00015134447
5.1854175e-05
-0.00017610096
7.4826865e-05
-0.00019654889
9.9903614e-05
-0.00021155503
0.00012615392
-0.00022024061
0.00015249733
-0.0002221215
0.0001777177
-0.0002171734
0.00020058485
-0.00020592482
0.00022005384
-0.00018943721
0.00023545612
-0.00016912466
0.00024658952
-0.000146464
0.00025366858
-0.00012272054
0.00025717529
-9.88024e-05
0.00025769216
-7.5268873e-05
0.00025578411
-5.2432593e-05
0.00025194751
-3.0471096e-05
0.0002465996
-9.481435e-06
0.00024012389
1.045878e-05
0.00023279364
2.9398575e-05
0.00022484603
4.7437234e-05
0.00021645192
6.4703495e-05
0.00020771557
8.1368735e-05
0.00019867714
9.7623686e-05
0.0001893172
0.00011365919
0.00017956368
0.00012964996
0.00016930032
0.0001457418
0.0001583762
0.00016204148
0.00014661533
0.00017860969
0.00013382586
0.00019545664
0.00011980878
0.00021253936
0.00010436594
0.00022976014
8.7307949e-05
0.00024696487
6.8462482e-05
0.00026394224
4.7681812e-05
0.00028042204
2.4856481e-05
0.00029607354
-8.2789558e-08
0.00031051288
-2.7142994e-05
0.00032330658
-5.6266452e-05
0.00033392357
-8.7306848e-05
0.00034181812
-0.00012000901
0.00034637711
-0.00015399111
0.00034695525
-0.00018872571
0.00034289724
-0.00022352684
0.00033357578
-0.00025754716
0.00031843942
-0.00028978913
0.00029707516
-0.00031913739
0.0002692828
-0.00034441481
0.00023515072
-0.00036446571
0.00019512507
-0.00037825979
0.0001500482
-0.00038499067
0.00010113723
-0.00038418052
4.9940069e-05
-0.00037555005
-1.9228874e-06
-0.00035948234
-5.2807979e-05
-0.00033656917
-0.00010053833
-0.00030780883
-0.00014358522
-0.00027441826
-0.00018072599
-0.00023771794
-0.00021113854
-0.00019903149
-0.00023439333
-0.00015961748
-0.00025038796
-0.00012062583
-0.00025928541
-8.306995e-05
-0.00026147093
-4.7812829e-05
-0.00025749761
-1.5552986e-05
-0.00024804984
1.3104135e-05
-0.00023382311
3.7804684e-05
-0.00021568263
5.82381e-05
-0.00019443221
7.4250134e-05
-0.00017090075
8.5800992e-05
-0.00014591902
9.2965412e-05
-0.00012030766
9.5930876e-05
-9.4865652e-05
9.4995149e-05
-7.0356131e-05
9.0561944e-05
-4.7488778e-05
8.3133822e-05
-2.6898964e-05
-9.1169103e-06
-1.533531e-06
-6.1064436e-06
-6.0183477e-06
-1.8687543e-05
-6.2521428e-06
-4.5138196e-05
-5.6298039e-06
-6.6833576e-05
2.002186e-06
-0.00010326827
1.4877643e-05
-0.00013591863
3.2769102e-05
-0.00016923593
5.4588192e-05
-0.00019792005
7.952182e-05
-0.00022148252
0.0001068376
-0.00023887081
0.00013574961
-0.00024915262
0.00016526681
-0.0002516387
0.00019411127
-0.00024601786
0.00022078606
-0.00023259961
0.00024380797
-0.00021245912
0.00026202734
-0.00018734403
0.00027488641
-0.00015932308
0.00028248558
-0.00013031971
0.00028543755
-0.00010175437
0.00028460793
-7.4439256e-05
0.00028087953
-4.8704195e-05
0.00027501786
-2.4609422e-05
0.00026761606
-2.0796367e-06
0.00025921548
1.8859362e-05
0.00025014849
3.8465567e-05
0.00024070144
5.6884279e-05
0.00023106671
7.4338227e-05
0.000221349
9.1086441e-05
0.00021157231
0.00010740038
0.00020168785
0.00012354365
0.00019158408
0.00013975373
0.00018109818
0.0001562277
0.00017002824
0.00017311142
0.00015814499
0.00019049294
0.00014520244
0.00020839919
0.00013094729
0.00022679451
0.00011512732
0.00024558012
9.7499242e-05
0.00026459295
7.7837009e-05
0.00028360447
5.5939929e-05
0.00030231913
3.1644356e-05
0.00032036911
4.8345597e-06
0.00033732267
-2.4538186e-05
0.00035267933
-5.646879e-05
0.00036585417
-9.0846103e-05
0.00037619544
-0.00012743408
0.00038296508
-0.00016584609
0.00038536727
-0.00020551586
0.00038256701
-0.0002456714
0.00037373132
-0.00028532056
0.00035808859
-0.00032325653
0.00033501112
-0.0003580915
0.00030411777
-0.000388321
0.00026538022
-0.0004124359
0.00021923997
-0.00042907414
0.00016668644
-0.00043717177
0.00010923486
-0.00043610524
4.8873542e-05
-0.00042546241
-1.2565716e-05
-0.00040557008
-7.2700308e-05
-0.00037740687
-0.00012870155
-0.00034227307
-0.00017871901
-0.00030177609
-0.00022122297
-0.0002576266
-0.00025528804
-0.00021148845
-0.00028053148
-0.000164893
-0.00029698341
-0.00011919898
-0.00030497943
-7.5576567e-05
-0.00030509334
-3.499673e-05
-0.00029807745
1.7505254e-06
-0.0002847971
3.4078933e-05
-0.00026615151
6.1573562e-05
-0.00024317726
8.3951664e-05
-0.00021681031
0.00010106746
-0.00018801655
0.00011290345
-0.000157755
0.00011956795
-0.00012697216
0.00012129503
-9.6592737e-05
0.00011844539
-6.7506483e-05
0.00011150479
-4.0548183e-05
0.00010108518
-1.647935e-05
4.0886066e-06
-1.2627187e-06
-4.8437249e-06
-7.4373895e-06
-1.2512872e-05
-5.6121722e-06
-4.6963414e-05
-4.2966786e-06
-6.814907e-05
4.1786276e-06
-0.00011174358
1.8311763e-05
-0.00015005176
3.7216948e-05
-0.00018814112
6.0098811e-05
-0.00022080192
8.6122236e-05
-0.00024750595
0.00011470942
-0.000267458
0.00014531548
-0.00027975868
0.00017718022
-0.00028350343
0.0002091414
-0.00027797904
0.0002395911
-0.00026304932
0.00026665398
-0.000239522
0.00028857551
-0.00020926556
0.00030417675
-0.00017492431
0.00031315159
-0.00013929454
0.00031605113
-0.0001046539
0.0003139876
-7.2375735e-05
0.00030824638
-4.2962966e-05
0.00029998796
-1.6351005e-05
0.00029015483
7.7534881e-06
0.00027940899
2.9605202e-05
0.00026827406
4.9600503e-05
0.0002570958
6.8062534e-05
0.00024608788
8.5346147e-05
0.00023534807
0.00010182626
0.00022487206
0.00011787639
0.00021456722
0.00013384848
0.0002042673
0.00015005365
0.0001937482
0.0001667468
0.00018274363
0.00018411599
0.00017095926
0.00020227731
0.00015808476
0.00022127368
0.00014380366
0.00024107561
0.0001278015
0.00026158227
0.00010977286
0.00028262159
8.9429044e-05
0.00030394829
6.6506762e-05
0.00032524141
4.0775784e-05
0.00034610009
1.2064606e-05
0.00036603385
-1.9747611e-05
0.00038449154
-5.4707337e-05
0.0004008139
-9.2764363e-05
0.00041425246
-0.00013372868
0.0004239294
-0.00017723169
0.00042887029
-0.00022268699
0.00042802231
-0.00026924833
0.00042029266
-0.00031576889
0.00040460914
-0.00036079753
0.00038003976
-0.00040261593
0.00034593617
-0.00043929675
0.00030206104
-0.00046883263
0.00024877586
-0.00048935073
0.00018720454
-0.00049931575
0.00011919988
-0.00049743997
4.6997763e-05
-0.00048435039