/*--------------------------------*- C++ -*----------------------------------*\
| =========                 |                                                 |
| \\      /  F ield         | OpenFOAM: The Open Source CFD Toolbox           |
|  \\    /   O peration     | Version:  2106                                  |
|   \\  /    A nd           | Website:  www.openfoam.com                      |
|    \\/     M anipulation  |                                                 |
\*---------------------------------------------------------------------------*/
FoamFile
{
    version     2.0;
    format      ascii;
    arch        "LSB;label=32;scalar=64";
    class       volVectorField;
    location    "0.021";
    object      U;
}
// * * * * * * * * * * * * * * * * * * * * * * * * * * * * * * * * * * * * * //

dimensions      [0 1 -1 0 0 0 0];

internalField   nonuniform List<vector> 
4096
(
(0.0054244992 -0.005395813 0)
(0.016221555 -0.0053444409 0)
(0.026864172 -0.0052421699 0)
(0.037250969 -0.0050899413 0)
(0.047282923 -0.0048891574 0)
(0.056864278 -0.0046416708 0)
(0.065903441 -0.0043497696 0)
(0.074313835 -0.0040161581 0)
(0.082014713 -0.0036439358 0)
(0.088931932 -0.0032365707 0)
(0.094998658 -0.0027978711 0)
(0.10015602 -0.0023319526 0)
(0.10435369 -0.0018432027 0)
(0.10755041 -0.0013362424 0)
(0.10971439 -0.00081588528 0)
(0.11082367 -0.00028709441 0)
(0.11086625 0.00024508195 0)
(0.10984096 0.00077540352 0)
(0.10775575 0.0012989869 0)
(0.10463003 0.0018105571 0)
(0.10049271 0.0023051639 0)
(0.095382766 0.0027779697 0)
(0.089348694 0.0032243227 0)
(0.082448112 0.0036398129 0)
(0.07474721 0.0040203199 0)
(0.066320134 0.004362057 0)
(0.057248269 0.0046616125 0)
(0.047619448 0.0049159877 0)
(0.037527087 0.0051226298 0)
(0.027069264 0.005279461 0)
(0.01634773 0.0053849018 0)
(0.0054668997 0.0054378892 0)
(-0.005467208 0.0054378884 0)
(-0.016348035 0.0053848996 0)
(-0.027069563 0.0052794573 0)
(-0.037527378 0.0051226247 0)
(-0.047619726 0.0049159812 0)
(-0.057248533 0.0046616047 0)
(-0.066320381 0.0043620478 0)
(-0.074747438 0.0040203096 0)
(-0.082448318 0.0036398015 0)
(-0.089348876 0.0032243104 0)
(-0.095382922 0.0027779565 0)
(-0.10049284 0.00230515 0)
(-0.10463013 0.0018105426 0)
(-0.10775582 0.001298972 0)
(-0.109841 0.00077538836 0)
(-0.11086626 0.00024506669 0)
(-0.11082365 -0.0002871096 0)
(-0.10971434 -0.00081590025 0)
(-0.10755033 -0.001336257 0)
(-0.10435359 -0.0018432167 0)
(-0.10015588 -0.002331966 0)
(-0.094998496 -0.0027978838 0)
(-0.088931746 -0.0032365825 0)
(-0.082014505 -0.0036439465 0)
(-0.074313605 -0.0040161678 0)
(-0.065903194 -0.0043497781 0)
(-0.056864015 -0.0046416781 0)
(-0.047282646 -0.0048891634 0)
(-0.037250682 -0.005089946 0)
(-0.026863876 -0.0052421733 0)
(-0.016221254 -0.005344443 0)
(-0.0054241955 -0.0053958137 0)
(0.005523209 -0.016261844 0)
(0.016516751 -0.016107027 0)
(0.027353068 -0.015798818 0)
(0.037928951 -0.015340054 0)
(0.048143588 -0.01473496 0)
(0.057899492 -0.013989119 0)
(0.067103413 -0.013109425 0)
(0.075667203 -0.012104026 0)
(0.08350865 -0.010982263 0)
(0.090552259 -0.0097545846 0)
(0.096729974 -0.0084324673 0)
(0.10198184 -0.0070283127 0)
(0.10625662 -0.0055553426 0)
(0.10951225 -0.0040274828 0)
(0.11171637 -0.0024592409 0)
(0.11284659 -0.00086557889 0)
(0.11289075 0.00073822041 0)
(0.11184724 0.0023367791 0)
(0.10972473 0.0039146701 0)
(0.10654257 0.0054564754 0)
(0.10233028 0.0069471841 0)
(0.097127487 0.008372197 0)
(0.090983571 0.0097174916 0)
(0.083957183 0.010969775 0)
(0.076115715 0.012116627 0)
(0.067534661 0.013146632 0)
(0.058296898 0.014049506 0)
(0.048491871 0.014816208 0)
(0.038214719 0.015439042 0)
(0.02756533 0.015911744 0)
(0.01664734 0.016229552 0)
(0.0055670983 0.01638926 0)
(-0.0055674094 0.016389258 0)
(-0.016647648 0.016229545 0)
(-0.027565632 0.015911733 0)
(-0.038215012 0.015439027 0)
(-0.048492152 0.014816188 0)
(-0.058297164 0.014049483 0)
(-0.067534911 0.013146605 0)
(-0.076115944 0.012116596 0)
(-0.083957391 0.010969741 0)
(-0.090983755 0.0097174544 0)
(-0.097127645 0.0083721573 0)
(-0.10233041 0.0069471423 0)
(-0.10654268 0.0054564319 0)
(-0.1097248 0.0039146252 0)
(-0.11184728 0.0023367334 0)
(-0.11289076 0.0007381745 0)
(-0.11284657 -0.0008656246 0)
(-0.11171632 -0.0024592859 0)
(-0.10951217 -0.0040275268 0)
(-0.10625651 -0.0055553849 0)
(-0.10198171 -0.0070283531 0)
(-0.09672981 -0.0084325053 0)
(-0.090552071 -0.0097546199 0)
(-0.08350844 -0.010982295 0)
(-0.075666972 -0.012104055 0)
(-0.067103163 -0.01310945 0)
(-0.057899226 -0.013989141 0)
(-0.048143309 -0.014734978 0)
(-0.037928661 -0.015340068 0)
(-0.02735277 -0.015798828 0)
(-0.016516447 -0.016107033 0)
(-0.0055229028 -0.016261846 0)
(0.0056951274 -0.027416055 0)
(0.017030873 -0.027155069 0)
(0.028204524 -0.0266355 0)
(0.039109674 -0.025862128 0)
(0.049642387 -0.024842074 0)
(0.059702154 -0.023584746 0)
(0.069192832 -0.022101764 0)
(0.078023538 -0.020406862 0)
(0.086109505 -0.018515779 0)
(0.093372887 -0.01644613 0)
(0.099743508 -0.014217256 0)
(0.10515954 -0.011850059 0)
(0.10956814 -0.0093668246 0)
(0.11292592 -0.0067910267 0)
(0.11519948 -0.0041471174 0)
(0.11636572 -0.0014603098 0)
(0.11641209 0.0012436572 0)
(0.11533681 0.0039387963 0)
(0.11314893 0.0065990708 0)
(0.10986826 0.0091985953 0)
(0.10552525 0.011712015 0)
(0.10016073 0.014114704 0)
(0.093825594 0.016383014 0)
(0.086580291 0.018494527 0)
(0.078494305 0.020428295 0)
(0.069645482 0.022165064 0)
(0.060119284 0.023687483 0)
(0.050007959 0.024980303 0)
(0.03940963 0.026030541 0)
(0.028427327 0.026827627 0)
(0.017167952 0.027363528 0)
(0.0057412046 0.027632836 0)
(-0.0057415209 0.027632832 0)
(-0.017168265 0.027363517 0)
(-0.028427634 0.026827608 0)
(-0.039409928 0.026030515 0)
(-0.050008245 0.024980271 0)
(-0.060119556 0.023687444 0)
(-0.069645736 0.022165018 0)
(-0.078494539 0.020428244 0)
(-0.086580502 0.01849447 0)
(-0.093825781 0.016382951 0)
(-0.1001609 0.014114637 0)
(-0.10552538 0.011711945 0)
(-0.10986837 0.0091985222 0)
(-0.113149 0.0065989956 0)
(-0.11533686 0.0039387198 0)
(-0.1164121 0.0012435802 0)
(-0.1163657 -0.0014603865 0)
(-0.11519943 -0.0041471929 0)
(-0.11292584 -0.0067911003 0)
(-0.10956802 -0.0093668956 0)
(-0.1051594 -0.011850126 0)
(-0.099743341 -0.014217319 0)
(-0.093372695 -0.016446189 0)
(-0.08610929 -0.018515833 0)
(-0.078023303 -0.02040691 0)
(-0.069192579 -0.022101807 0)
(-0.059701884 -0.023584783 0)
(-0.049642103 -0.024842104 0)
(-0.03910938 -0.025862152 0)
(-0.028204221 -0.026635517 0)
(-0.017030565 -0.027155079 0)
(-0.0056948164 -0.027416058 0)
(0.0059416426 -0.038986932 0)
(0.017768072 -0.038615828 0)
(0.029425411 -0.037877034 0)
(0.040802661 -0.036777347 0)
(0.051791399 -0.035326891 0)
(0.062286778 -0.03353904 0)
(0.072188504 -0.031430314 0)
(0.081401769 -0.029020239 0)
(0.089838143 -0.02633119 0)
(0.097416417 -0.02338821 0)
(0.10406338 -0.020218794 0)
(0.10971452 -0.01685266 0)
(0.11431469 -0.01332149 0)
(0.11781864 -0.0096586558 0)
(0.12019148 -0.0058989216 0)
(0.12140908 -0.0020781293 0)
(0.12145834 0.0017671327 0)
(0.12033737 0.0055998847 0)
(0.11805555 0.0093830865 0)
(0.11463353 0.013079975 0)
(0.11010303 0.016654479 0)
(0.10450662 0.020071566 0)
(0.09789736 0.023297595 0)
(0.090338296 0.026300676 0)
(0.081901904 0.029051004 0)
(0.072669395 0.031521181 0)
(0.062729936 0.033686523 0)
(0.052179784 0.035525326 0)
(0.041121338 0.037019113 0)
(0.029662124 0.038152843 0)
(0.017913713 0.038915083 0)
(0.0059906059 0.039298136 0)
(-0.0059909302 0.03929813 0)
(-0.017914035 0.038915067 0)
(-0.029662439 0.038152817 0)
(-0.041121644 0.037019076 0)
(-0.052180077 0.035525279 0)
(-0.062730214 0.033686467 0)
(-0.072669655 0.031521116 0)
(-0.081902144 0.02905093 0)
(-0.090338513 0.026300595 0)
(-0.097897552 0.023297507 0)
(-0.10450679 0.020071472 0)
(-0.11010317 0.01665438 0)
(-0.11463364 0.013079872 0)
(-0.11805563 0.0093829802 0)
(-0.12033741 0.0055997766 0)
(-0.12145835 0.0017670239 0)
(-0.12140906 -0.0020782376 0)
(-0.12019142 -0.0058990283 0)
(-0.11781855 -0.0096587598 0)
(-0.11431458 -0.01332159 0)
(-0.10971438 -0.016852755 0)
(-0.10406321 -0.020218884 0)
(-0.09741622 -0.023388293 0)
(-0.089837923 -0.026331266 0)
(-0.081401527 -0.029020307 0)
(-0.072188244 -0.031430374 0)
(-0.062286501 -0.033539092 0)
(-0.051791108 -0.035326933 0)
(-0.040802359 -0.03677738 0)
(-0.029425101 -0.037877058 0)
(-0.017767756 -0.038615842 0)
(-0.005941324 -0.038986937 0)
(0.0062653916 -0.051124099 0)
(0.018736232 -0.050637498 0)
(0.031028782 -0.049668775 0)
(0.043026003 -0.048226837 0)
(0.054613574 -0.046324961 0)
(0.065680945 -0.043980682 0)
(0.076122367 -0.041215655 0)
(0.085837877 -0.038055482 0)
(0.094734239 -0.034529499 0)
(0.10272583 -0.030670536 0)
(0.10973544 -0.026514639 0)
(0.11569508 -0.022100767 0)
(0.12054657 -0.017470455 0)
(0.12424218 -0.012667452 0)
(0.12674514 -0.007737331 0)
(0.12802996 -0.0027270777 0)
(0.12808281 0.0023153398 0)
(0.12690166 0.0073414252 0)
(0.12449636 0.012302604 0)
(0.12088863 0.017150688 0)
(0.11611188 0.021838372 0)
(0.11021097 0.026319703 0)
(0.1032418 0.030550556 0)
(0.095270828 0.034489093 0)
(0.086374451 0.03809621 0)
(0.076638298 0.041335959 0)
(0.066156396 0.044175945 0)
(0.055030264 0.046587686 0)
(0.043367909 0.048546933 0)
(0.031282753 0.050033945 0)
(0.018892497 0.051033712 0)
(0.0063179349 0.051536132 0)
(-0.0063182704 0.051536125 0)
(-0.018892829 0.051033691 0)
(-0.031283079 0.050033911 0)
(-0.043368225 0.048546886 0)
(-0.055030567 0.046587626 0)
(-0.066156684 0.044175872 0)
(-0.076638567 0.041335874 0)
(-0.0863747 0.038096115 0)
(-0.095271053 0.034488988 0)
(-0.103242 0.030550442 0)
(-0.11021114 0.02631958 0)
(-0.11611202 0.021838242 0)
(-0.12088874 0.017150554 0)
(-0.12449643 0.012302466 0)
(-0.1269017 0.0073412844 0)
(-0.12808282 0.0023151981 0)
(-0.12802994 -0.0027272187 0)
(-0.12674508 -0.0077374699 0)
(-0.1242421 -0.012667588 0)
(-0.12054645 -0.017470586 0)
(-0.11569493 -0.022100891 0)
(-0.10973526 -0.026514755 0)
(-0.10272562 -0.030670644 0)
(-0.09473401 -0.034529598 0)
(-0.085837627 -0.038055571 0)
(-0.076122097 -0.041215733 0)
(-0.065680658 -0.043980749 0)
(-0.054613273 -0.046325016 0)
(-0.043025692 -0.048226881 0)
(-0.031028462 -0.049668806 0)
(-0.018735906 -0.050637517 0)
(-0.0062650627 -0.051124105 0)
(0.0066703594 -0.063985712 0)
(0.019947269 -0.063376727 0)
(0.033034363 -0.06216436 0)
(0.045807041 -0.060359761 0)
(0.058143595 -0.057979546 0)
(0.069926336 -0.05504566 0)
(0.08104269 -0.051585205 0)
(0.091386244 -0.04763022 0)
(0.10085775 -0.043217417 0)
(0.10936607 -0.038387879 0)
(0.11682902 -0.033186711 0)
(0.12317422 -0.027662662 0)
(0.12833976 -0.021867702 0)
(0.13227483 -0.015856569 0)
(0.13494026 -0.0096862823 0)
(0.13630891 -0.0034156308 0)
(0.13636604 0.0028953666 0)
(0.13510944 0.0091860208 0)
(0.13254957 0.015395544 0)
(0.12870951 0.021463637 0)
(0.12362476 0.02733109 0)
(0.11734304 0.03294038 0)
(0.1099238 0.038236264 0)
(0.10143777 0.043166354 0)
(0.091966252 0.04768168 0)
(0.081600386 0.05173722 0)
(0.070440279 0.055292397 0)
(0.058594023 0.058311531 0)
(0.046176633 0.060764244 0)
(0.033308904 0.0626258 0)
(0.020116196 0.063877396 0)
(0.0067271689 0.064506373 0)
(-0.0067275188 0.064506364 0)
(-0.020116542 0.06387737 0)
(-0.033309244 0.062625758 0)
(-0.046176963 0.060764185 0)
(-0.05859434 0.058311457 0)
(-0.07044058 0.055292307 0)
(-0.081600667 0.051737115 0)
(-0.091966511 0.047681561 0)
(-0.10143801 0.043166223 0)
(-0.10992401 0.038236122 0)
(-0.11734322 0.032940228 0)
(-0.12362491 0.02733093 0)
(-0.12870962 0.02146347 0)
(-0.13254965 0.015395372 0)
(-0.13510949 0.0091858459 0)
(-0.13636605 0.0028951905 0)
(-0.13630889 -0.003415806 0)
(-0.1349402 -0.0096864548 0)
(-0.13227474 -0.015856737 0)
(-0.12833964 -0.021867864 0)
(-0.12317407 -0.027662816 0)
(-0.11682884 -0.033186855 0)
(-0.10936585 -0.038388012 0)
(-0.10085751 -0.043217539 0)
(-0.091385983 -0.04763033 0)
(-0.081042408 -0.051585301 0)
(-0.069926037 -0.055045742 0)
(-0.058143281 -0.057979614 0)
(-0.045806716 -0.060359815 0)
(-0.03303403 -0.062164398 0)
(-0.019946929 -0.06337675 0)
(-0.0066700171 -0.06398572 0)
(0.0071621587 -0.077738679 0)
(0.021417964 -0.076998821 0)
(0.035469938 -0.075525915 0)
(0.049184284 -0.073333511 0)
(0.062430313 -0.070441795 0)
(0.075081662 -0.066877436 0)
(0.087017462 -0.062673364 0)
(0.098123469 -0.057868507 0)
(0.10829314 -0.052507466 0)
(0.11742863 -0.046640152 0)
(0.12544175 -0.040321357 0)
(0.1322548 -0.033610297 0)
(0.13780133 -0.026570095 0)
(0.14202682 -0.019267231 0)
(0.1448892 -0.011770956 0)
(0.14635936 -0.0041526689 0)
(0.14642144 0.0035147369 0)
(0.14507304 0.011157549 0)
(0.14232536 0.01870193 0)
(0.13820312 0.026074632 0)
(0.13274438 0.033203722 0)
(0.12600031 0.040019303 0)
(0.1180347 0.046454237 0)
(0.10892342 0.052444848 0)
(0.098753741 0.057931603 0)
(0.087623493 0.062859763 0)
(0.075640152 0.067179986 0)
(0.062919787 0.070848879 0)
(0.049585918 0.073829493 0)
(0.035768285 0.076091742 0)
(0.021601543 0.077612753 0)
(0.0072239044 0.078377125 0)
(-0.0072242723 0.078377115 0)
(-0.021601908 0.077612722 0)
(-0.035768642 0.076091691 0)
(-0.049586265 0.073829422 0)
(-0.06292012 0.070848789 0)
(-0.075640468 0.067179877 0)
(-0.087623789 0.062859637 0)
(-0.098754013 0.057931461 0)
(-0.10892367 0.05244469 0)
(-0.11803492 0.046454066 0)
(-0.1260005 0.04001912 0)
(-0.13274453 0.033203529 0)
(-0.13820324 0.026074431 0)
(-0.14232545 0.018701723 0)
(-0.14507309 0.011157338 0)
(-0.14642145 0.0035145247 0)
(-0.14635933 -0.0041528801 0)
(-0.14488914 -0.011771164 0)
(-0.14202672 -0.019267433 0)
(-0.1378012 -0.026570289 0)
(-0.13225464 -0.033610482 0)
(-0.12544156 -0.040321531 0)
(-0.1174284 -0.046640312 0)
(-0.10829288 -0.052507613 0)
(-0.098123193 -0.057868638 0)
(-0.087017165 -0.06267348 0)
(-0.075081348 -0.066877535 0)
(-0.062429984 -0.070441876 0)
(-0.049183943 -0.073333574 0)
(-0.035469588 -0.075525961 0)
(-0.021417608 -0.076998849 0)
(-0.0071617997 -0.077738689 0)
(0.0077484841 -0.092562694 0)
(0.023171324 -0.09168175 0)
(0.038373598 -0.089927974 0)
(0.053210526 -0.087317506 0)
(0.067540705 -0.083874393 0)
(0.081227413 -0.079630399 0)
(0.094139892 -0.074624747 0)
(0.10615456 -0.068903798 0)
(0.11715618 -0.062520668 0)
(0.12703894 -0.055534788 0)
(0.13570748 -0.048011397 0)
(0.14307778 -0.040020992 0)
(0.14907801 -0.031638713 0)
(0.15364923 -0.022943692 0)
(0.15674598 -0.01401835 0)
(0.15833676 -0.0049476627 0)
(0.15840443 0.0041816156 0)
(0.15694637 0.013281751 0)
(0.15397465 0.022264858 0)
(0.14951596 0.031043741 0)
(0.14361143 0.039532756 0)
(0.13631631 0.047648673 0)
(0.12769957 0.055311529 0)
(0.11784321 0.062445469 0)
(0.10684158 0.068979565 0)
(0.094800492 0.074848586 0)
(0.081836196 0.079993721 0)
(0.06807426 0.084363249 0)
(0.053648336 0.087913121 0)
(0.038698821 0.090607466 0)
(0.023371446 0.092419011 0)
(0.007815802 0.093329395 0)
(-0.0078161915 0.093329383 0)
(-0.023371832 0.092418975 0)
(-0.038699199 0.090607406 0)
(-0.053648703 0.087913038 0)
(-0.068074613 0.084363144 0)
(-0.081836531 0.079993594 0)
(-0.094800806 0.074848437 0)
(-0.10684187 0.068979398 0)
(-0.11784347 0.062445284 0)
(-0.1276998 0.055311327 0)
(-0.13631651 0.047648457 0)
(-0.14361159 0.039532528 0)
(-0.14951609 0.031043503 0)
(-0.15397474 0.022264613 0)
(-0.15694642 0.013281502 0)
(-0.15840444 0.0041813648 0)
(-0.15833673 -0.0049479121 0)
(-0.15674591 -0.014018595 0)
(-0.15364912 -0.02294393 0)
(-0.14907787 -0.031638942 0)
(-0.1430776 -0.04002121 0)
(-0.13570727 -0.048011601 0)
(-0.1270387 -0.055534976 0)
(-0.11715591 -0.06252084 0)
(-0.10615427 -0.068903951 0)
(-0.094139577 -0.074624882 0)
(-0.08122708 -0.079630514 0)
(-0.067540356 -0.083874488 0)
(-0.053210166 -0.08731758 0)
(-0.038373228 -0.089928027 0)
(-0.023170948 -0.091681782 0)
(-0.0077481054 -0.092562705 0)
(0.0084396831 -0.10865517 0)
(0.025238288 -0.10762102 0)
(0.041796564 -0.10556226 0)
(0.057956763 -0.10249783 0)
(0.073564829 -0.098456004 0)
(0.088471823 -0.093474074 0)
(0.10253532 -0.087598114 0)
(0.11562072 -0.080882571 0)
(0.12760256 -0.07338982 0)
(0.13836563 -0.065189639 0)
(0.14780615 -0.056358618 0)
(0.15583268 -0.046979503 0)
(0.16236706 -0.037140478 0)
(0.16734518 -0.026934399 0)
(0.17071759 -0.016457971 0)
(0.17245004 -0.0058108896 0)
(0.17252386 0.0049050671 0)
(0.17093622 0.015586969 0)
(0.16770022 0.026131698 0)
(0.16284487 0.036436938 0)
(0.15641489 0.046402174 0)
(0.1484704 0.055929702 0)
(0.1390864 0.064925637 0)
(0.12835213 0.073300898 0)
(0.11637029 0.080972167 0)
(0.10325606 0.087862805 0)
(0.08913604 0.093903708 0)
(0.074146974 0.099034086 0)
(0.058434447 0.10320216 0)
(0.042151411 0.10636577 0)
(0.025456645 0.10849285 0)
(0.008513142 0.10956182 0)
(-0.0085135567 0.1095618 0)
(-0.025457056 0.10849281 0)
(-0.042151814 0.10636571 0)
(-0.058434839 0.10320207 0)
(-0.074147351 0.099033964 0)
(-0.089136398 0.09390356 0)
(-0.1032564 0.087862633 0)
(-0.1163706 0.080971972 0)
(-0.12835241 0.073300683 0)
(-0.13908664 0.064925403 0)
(-0.14847061 0.055929451 0)
(-0.15641507 0.046401909 0)
(-0.162845 0.036436661 0)
(-0.16770031 0.026131413 0)
(-0.17093627 0.015586678 0)
(-0.17252387 0.0049047751 0)
(-0.17245001 -0.00581118 0)
(-0.17071752 -0.016458257 0)
(-0.16734507 -0.026934676 0)
(-0.16236691 -0.037140744 0)
(-0.15583248 -0.046979755 0)
(-0.14780592 -0.056358854 0)
(-0.13836537 -0.065189857 0)
(-0.12760227 -0.073390018 0)
(-0.11562041 -0.080882748 0)
(-0.10253498 -0.087598269 0)
(-0.088471468 -0.093474206 0)
(-0.073564458 -0.098456112 0)
(-0.05795638 -0.10249792 0)
(-0.041796171 -0.10556232 0)
(-0.02523789 -0.10762106 0)
(-0.0084392812 -0.10865518 0)
(0.0092493529 -0.12623712 0)
(0.027659514 -0.12503551 0)
(0.045806146 -0.12264339 0)
(0.063516286 -0.11908279 0)
(0.080621033 -0.11438659 0)
(0.096957117 -0.10859816 0)
(0.11236843 -0.10177108 0)
(0.12670749 -0.093968656 0)
(0.13983683 -0.085263405 0)
(0.15163028 -0.075736432 0)
(0.16197418 -0.065476742 0)
(0.17076847 -0.054580474 0)
(0.1779276 -0.043150066 0)
(0.18338145 -0.031293358 0)
(0.18707591 -0.019122645 0)
(0.18897356 -0.0067536769 0)
(0.18905399 0.005695382 0)
(0.18731411 0.01810503 0)
(0.18376826 0.03035554 0)
(0.17844817 0.042328098 0)
(0.17140279 0.05390596 0)
(0.16269789 0.064975622 0)
(0.15241556 0.075427988 0)
(0.1406535 0.085159515 0)
(0.12752417 0.09407334 0)
(0.11315372 0.10208034 0)
(0.097680816 0.10910014 0)
(0.081255316 0.11506202 0)
(0.064036758 0.11990573 0)
(0.046192782 0.12358222 0)
(0.027897436 0.12605417 0)
(0.0093294002 0.12729646 0)
(-0.0093298438 0.12729644 0)
(-0.027897876 0.12605412 0)
(-0.046193213 0.12358214 0)
(-0.064037177 0.11990562 0)
(-0.081255719 0.11506188 0)
(-0.097681199 0.10909997 0)
(-0.11315408 0.10208014 0)
(-0.1275245 0.094073118 0)
(-0.1406538 0.085159268 0)
(-0.15241582 0.075427719 0)
(-0.16269812 0.064975334 0)
(-0.17140298 0.053905655 0)
(-0.17844832 0.042327779 0)
(-0.18376836 0.030355212 0)
(-0.18731416 0.018104695 0)
(-0.189054 0.0056950453 0)
(-0.18897353 -0.0067540116 0)
(-0.18707583 -0.019122974 0)
(-0.18338132 -0.031293677 0)
(-0.17792743 -0.043150372 0)
(-0.17076826 -0.054580764 0)
(-0.16197393 -0.065477012 0)
(-0.15163 -0.075736681 0)
(-0.13983652 -0.085263631 0)
(-0.12670715 -0.093968857 0)
(-0.11236807 -0.10177125 0)
(-0.096956737 -0.10859831 0)
(-0.080620637 -0.11438671 0)
(-0.063515877 -0.11908289 0)
(-0.045805727 -0.12264346 0)
(-0.027659089 -0.12503556 0)
(-0.0092489248 -0.12623713 0)
(0.010194838 -0.14556023 0)
(0.030486861 -0.14417447 0)
(0.050488204 -0.14141574 0)
(0.070008098 -0.13730952 0)
(0.088860276 -0.13189375 0)
(0.10686471 -0.12521854 0)
(0.12384931 -0.11734573 0)
(0.13965152 -0.1083484 0)
(0.15411989 -0.098310262 0)
(0.16711545 -0.087324891 0)
(0.17851307 -0.075494969 0)
(0.18820263 -0.06293137 0)
(0.19609002 -0.049752202 0)
(0.20209812 -0.036081766 0)
(0.2061675 -0.022049468 0)
(0.20825702 -0.007788674 0)
(0.20834429 0.0065644832 0)
(0.20642597 0.020872333 0)
(0.20251787 0.034996934 0)
(0.19665491 0.048801379 0)
(0.18889097 0.062151114 0)
(0.17929842 0.074915288 0)
(0.16796762 0.086968092 0)
(0.15500613 0.09819009 0)
(0.14053778 0.10846951 0)
(0.12470151 0.11770349 0)
(0.10765009 0.12579925 0)
(0.089548623 0.13267512 0)
(0.070572938 0.13826154 0)
(0.050907804 0.14250184 0)
(0.030745072 0.14535291 0)
(0.010281716 0.14678574 0)
(-0.010282192 0.14678572 0)
(-0.030745544 0.14535286 0)
(-0.050908267 0.14250175 0)
(-0.070573389 0.13826142 0)
(-0.089549056 0.13267496 0)
(-0.1076505 0.12579906 0)
(-0.12470189 0.11770327 0)
(-0.14053813 0.10846926 0)
(-0.15500645 0.098189809 0)
(-0.1679679 0.086967786 0)
(-0.17929866 0.074914959 0)
(-0.18889117 0.062150765 0)
(-0.19665507 0.048801014 0)
(-0.20251797 0.034996558 0)
(-0.20642603 0.02087195 0)
(-0.2083443 0.0065640978 0)
(-0.20825697 -0.007789057 0)
(-0.2061674 -0.022049844 0)
(-0.20209798 -0.03608213 0)
(-0.19608983 -0.04975255 0)
(-0.1882024 -0.062931699 0)
(-0.1785128 -0.075495275 0)
(-0.16711515 -0.087325173 0)
(-0.15411955 -0.098310516 0)
(-0.13965115 -0.10834863 0)
(-0.12384892 -0.11734592 0)
(-0.1068643 -0.1252187 0)
(-0.088859851 -0.13189389 0)
(-0.07000766 -0.13730963 0)
(-0.050487756 -0.14141582 0)
(-0.030486407 -0.14417451 0)
(-0.010194381 -0.14556024 0)
(0.011297455 -0.16691472 0)
(0.033784065 -0.16532527 0)
(0.055948254 -0.16216108 0)
(0.077578442 -0.15745141 0)
(0.098468068 -0.15123987 0)
(0.11841753 -0.14358401 0)
(0.13723607 -0.1345549 0)
(0.15474358 -0.12423646 0)
(0.17077228 -0.11272479 0)
(0.18516831 -0.10012734 0)
(0.19779319 -0.08656192 0)
(0.20852512 -0.072155724 0)
(0.21726008 -0.057044187 0)
(0.22391285 -0.041369797 0)
(0.22841784 -0.025280848 0)
(0.23072968 -0.008930133 0)
(0.23082371 0.007526407 0)
(0.22869634 0.023931077 0)
(0.22436512 0.040125865 0)
(0.21786873 0.055953914 0)
(0.20926679 0.071261031 0)
(0.1986394 0.085897219 0)
(0.18608653 0.099718212 0)
(0.17172723 0.11258701 0)
(0.15569856 0.12437535 0)
(0.13815437 0.13496518 0)
(0.11926383 0.14424996 0)
(0.099209823 0.15213592 0)
(0.078187114 0.15854317 0)
(0.05640042 0.16340659 0)
(0.034062319 0.16667669 0)
(0.011391079 0.16832011 0)
(-0.01139159 0.16832009 0)
(-0.034062826 0.16667663 0)
(-0.056400918 0.16340649 0)
(-0.078187599 0.15854303 0)
(-0.099210289 0.15213574 0)
(-0.11926428 0.14424974 0)
(-0.13815479 0.13496493 0)
(-0.15569895 0.12437506 0)
(-0.17172758 0.11258669 0)
(-0.18608684 0.099717865 0)
(-0.19863967 0.085896846 0)
(-0.20926701 0.071260635 0)
(-0.2178689 0.055953499 0)
(-0.22436524 0.040125437 0)
(-0.2286964 0.023930641 0)
(-0.23082372 0.007525968 0)
(-0.23072963 -0.0089305689 0)
(-0.22841774 -0.025281275 0)
(-0.2239127 -0.04137021 0)
(-0.21725987 -0.057044581 0)
(-0.20852486 -0.072156095 0)
(-0.1977929 -0.086562265 0)
(-0.18516798 -0.10012766 0)
(-0.17077191 -0.11272508 0)
(-0.15474318 -0.12423671 0)
(-0.13723565 -0.13455512 0)
(-0.11841709 -0.1435842 0)
(-0.098467611 -0.15124002 0)
(-0.077577972 -0.15745153 0)
(-0.055947774 -0.16216116 0)
(-0.033783579 -0.16532532 0)
(-0.011296966 -0.16691473 0)
(0.012582209 -0.19063731 0)
(0.037625891 -0.18882135 0)
(0.062310074 -0.18520627 0)
(0.086398869 -0.17982559 0)
(0.10966202 -0.17272923 0)
(0.13187707 -0.16398309 0)
(0.15283151 -0.15366852 0)
(0.17232471 -0.14188158 0)
(0.19016993 -0.12873222 0)
(0.20619596 -0.11434332 0)
(0.22024881 -0.098849593 0)
(0.23219313 -0.082396393 0)
(0.24191341 -0.065138425 0)
(0.24931513 -0.047238382 0)
(0.25432555 -0.028865514 0)
(0.25689447 -0.01019415 0)
(0.25699469 0.0085978265 0)
(0.25462236 0.027330547 0)
(0.24979712 0.045823773 0)
(0.24256209 0.063898555 0)
(0.23298357 0.081378935 0)
(0.22115067 0.098093684 0)
(0.20717458 0.11387806 0)
(0.19118772 0.12857554 0)
(0.17334256 0.14203956 0)
(0.15381028 0.15413516 0)
(0.13277913 0.1647405 0)
(0.11045265 0.17374835 0)
(0.087047659 0.1810673 0)
(0.062792048 0.18662287 0)
(0.037922489 0.19035841 0)
(0.012682003 0.19223576 0)
(-0.012682553 0.19223574 0)
(-0.037923035 0.19035834 0)
(-0.062792583 0.18662276 0)
(-0.087048181 0.18106715 0)
(-0.11045315 0.17374815 0)
(-0.13277961 0.16474026 0)
(-0.15381073 0.15413488 0)
(-0.17334298 0.14203924 0)
(-0.1911881 0.12857518 0)
(-0.20717492 0.11387767 0)
(-0.22115096 0.098093264 0)
(-0.23298381 0.081378488 0)
(-0.24256227 0.063898087 0)
(-0.24979725 0.045823289 0)
(-0.25462242 0.027330053 0)
(-0.25699469 0.0085973284 0)
(-0.25689441 -0.010194644 0)
(-0.25432544 -0.028865998 0)
(-0.24931495 -0.047238849 0)
(-0.24191318 -0.06513887 0)
(-0.23219285 -0.08239681 0)
(-0.22024849 -0.098849979 0)
(-0.20619559 -0.11434367 0)
(-0.19016953 -0.12873254 0)
(-0.17232429 -0.14188186 0)
(-0.15283105 -0.15366877 0)
(-0.1318766 -0.1639833 0)
(-0.10966153 -0.17272939 0)
(-0.086398365 -0.17982572 0)
(-0.062309561 -0.18520636 0)
(-0.037625372 -0.1888214 0)
(-0.012581686 -0.19063733 0)
(0.014076724 -0.217118 0)
(0.042094937 -0.21504887 0)
(0.069710404 -0.21092987 0)
(0.09665889 -0.20479928 0)
(0.12268251 -0.19671414 0)
(0.14753219 -0.18674974 0)
(0.17097003 -0.17499899 0)
(0.19277159 -0.16157157 0)
(0.21272799 -0.146593 0)
(0.23064792 -0.1302035 0)
(0.24635939 -0.11255669 0)
(0.25971132 -0.093818279 0)
(0.27057498 -0.074164518 0)
(0.27884505 -0.053780656 0)
(0.28444066 -0.032859313 0)
(0.28730606 -0.011598807 0)
(0.28741118 0.009798562 0)
(0.28475198 0.031128262 0)
(0.27935063 0.052185334 0)
(0.27125539 0.072766252 0)
(0.26054046 0.092670833 0)
(0.24730541 0.1117042 0)
(0.2316745 0.12967879 0)
(0.2137957 0.14641632 0)
(0.19383938 0.16174977 0)
(0.17199686 0.17552531 0)
(0.14847856 0.18760403 0)
(0.12351201 0.19786363 0)
(0.097339586 0.20619984 0)
(0.070216085 0.2125277 0)
(0.042406123 0.21678258 0)
(0.014181419 0.21892096 0)
(-0.01418201 0.21892094 0)
(-0.042406709 0.21678251 0)
(-0.070216661 0.21252758 0)
(-0.097340147 0.20619966 0)
(-0.12351255 0.19786341 0)
(-0.14847908 0.18760377 0)
(-0.17199735 0.175525 0)
(-0.19383984 0.16174942 0)
(-0.21379611 0.14641592 0)
(-0.23167488 0.12967835 0)
(-0.24730573 0.11170373 0)
(-0.26054073 0.092670331 0)
(-0.2712556 0.072765724 0)
(-0.27935077 0.052184786 0)
(-0.28475206 0.031127702 0)
(-0.28741118 0.0097979981 0)
(-0.28730599 -0.011599366 0)
(-0.28444053 -0.03285986 0)
(-0.27884486 -0.053781183 0)
(-0.27057472 -0.074165017 0)
(-0.25971101 -0.093818746 0)
(-0.24635903 -0.11255712 0)
(-0.23064752 -0.13020389 0)
(-0.21272756 -0.14659335 0)
(-0.19277112 -0.16157188 0)
(-0.17096954 -0.17499925 0)
(-0.14753168 -0.18674996 0)
(-0.12268198 -0.19671432 0)
(-0.09665835 -0.20479942 0)
(-0.069709855 -0.21092997 0)
(-0.042094382 -0.21504893 0)
(-0.014076166 -0.21711802 0)
(0.015809051 -0.24680372 0)
(0.047275073 -0.24445037 0)
(0.078288093 -0.23976565 0)
(0.10855094 -0.23279324 0)
(0.13777362 -0.22359822 0)
(0.16567614 -0.2122665 0)
(0.19199116 -0.19890404 0)
(0.21646657 -0.18363592 0)
(0.23886786 -0.16660523 0)
(0.25898041 -0.14797171 0)
(0.2766114 -0.12791035 0)
(0.29159166 -0.10660973 0)
(0.30377714 -0.084270302 0)
(0.31305021 -0.061102637 0)
(0.31932062 -0.037325529 0)
(0.32252637 -0.013164128 0)
(0.32263418 0.011151978 0)
(0.31963992 0.035390715 0)
(0.31356873 0.059319525 0)
(0.304475 0.082707432 0)
(0.29244208 0.10532719 0)
(0.27758174 0.12695749 0)
(0.26003342 0.14738522 0)
(0.23996311 0.16640774 0)
(0.21756196 0.18383514 0)
(0.19304458 0.19949241 0)
(0.16664706 0.21322152 0)
(0.13862466 0.22488326 0)
(0.10924933 0.23435897 0)
(0.07880693 0.24155194 0)
(0.047594353 0.24638858 0)
(0.015916454 0.24881936 0)
(-0.015917086 0.24881933 0)
(-0.047594979 0.2463885 0)
(-0.078807547 0.2415518 0)
(-0.10924993 0.23435878 0)
(-0.13862525 0.22488302 0)
(-0.16664762 0.21322122 0)
(-0.19304511 0.19949207 0)
(-0.21756245 0.18383475 0)
(-0.23996356 0.1664073 0)
(-0.26003383 0.14738474 0)
(-0.27758209 0.12695697 0)
(-0.29244237 0.10532663 0)
(-0.30447523 0.082706839 0)
(-0.31356889 0.059318907 0)
(-0.31964 0.035390083 0)
(-0.32263418 0.011151341 0)
(-0.32252629 -0.013164761 0)
(-0.31932047 -0.037326146 0)
(-0.31304998 -0.06110323 0)
(-0.30377685 -0.084270861 0)
(-0.29159131 -0.10661025 0)
(-0.276611 -0.12791083 0)
(-0.25897996 -0.14797214 0)
(-0.23886739 -0.16660561 0)
(-0.21646606 -0.18363625 0)
(-0.19199063 -0.19890432 0)
(-0.16567559 -0.21226674 0)
(-0.13777305 -0.22359842 0)
(-0.10855036 -0.23279339 0)
(-0.078287508 -0.23976575 0)
(-0.047274483 -0.24445044 0)
(-0.015808458 -0.24680374 0)
(0.017804002 -0.28019639 0)
(0.053240487 -0.27752282 0)
(0.088165953 -0.27220072 0)
(0.1222452 -0.26427992 0)
(0.15515121 -0.25383463 0)
(0.18656829 -0.24096277 0)
(0.21619513 -0.22578515 0)
(0.24374772 -0.20844429 0)
(0.26896203 -0.18910318 0)
(0.29159658 -0.16794373 0)
(0.31143465 -0.14516503 0)
(0.32828626 -0.12098153 0)
(0.34198986 -0.095621011 0)
(0.35241372 -0.069322548 0)
(0.35945701 -0.042334368 0)
(0.36305062 -0.014911748 0)
(0.36315776 0.012685128 0)
(0.35977431 0.040193323 0)
(0.35292901 0.067349365 0)
(0.34268338 0.093891531 0)
(0.32913142 0.11956224 0)
(0.31239905 0.14411055 0)
(0.29264322 0.16729467 0)
(0.27005072 0.18888462 0)
(0.24483664 0.20866477 0)
(0.21724241 0.22643634 0)
(0.18753362 0.24201979 0)
(0.1559974 0.25525695 0)
(0.12293964 0.26601296 0)
(0.088681859 0.27417791 0)
(0.053557955 0.27966819 0)
(0.01791077 0.28242748 0)
(-0.017911444 0.28242745 0)
(-0.053558625 0.2796681 0)
(-0.088682519 0.27417777 0)
(-0.12294029 0.26601275 0)
(-0.15599803 0.25525669 0)
(-0.18753422 0.24201947 0)
(-0.21724298 0.22643597 0)
(-0.24483717 0.20866434 0)
(-0.27005122 0.18888414 0)
(-0.29264366 0.16729413 0)
(-0.31239944 0.14410996 0)
(-0.32913175 0.11956162 0)
(-0.34268364 0.093890866 0)
(-0.35292919 0.06734867 0)
(-0.3597744 0.040192609 0)
(-0.36315776 0.012684406 0)
(-0.36305053 -0.014912464 0)
(-0.35945684 -0.042335065 0)
(-0.35241347 -0.069323213 0)
(-0.34198954 -0.095621636 0)
(-0.32828587 -0.1209821 0)
(-0.31143421 -0.14516555 0)
(-0.29159609 -0.1679442 0)
(-0.2689615 -0.1891036 0)
(-0.24374716 -0.20844465 0)
(-0.21619456 -0.22578546 0)
(-0.1865677 -0.24096303 0)
(-0.15515061 -0.25383483 0)
(-0.12224459 -0.26428008 0)
(-0.088165331 -0.27220083 0)
(-0.053239862 -0.27752289 0)
(-0.017803374 -0.28019641 0)
(0.020077683 -0.31784195 0)
(0.060039333 -0.31480674 0)
(0.099423698 -0.30876487 0)
(0.13785216 -0.29977314 0)
(0.17495538 -0.28791613 0)
(0.21037693 -0.27330547 0)
(0.24377671 -0.25607878 0)
(0.27483429 -0.23639845 0)
(0.30325198 -0.21445007 0)
(0.32875768 -0.1904407 0)