/*--------------------------------*- C++ -*----------------------------------*\
| =========                 |                                                 |
| \\      /  F ield         | OpenFOAM: The Open Source CFD Toolbox           |
|  \\    /   O peration     | Version:  2106                                  |
|   \\  /    A nd           | Website:  www.openfoam.com                      |
|    \\/     M anipulation  |                                                 |
\*---------------------------------------------------------------------------*/
FoamFile
{
    version     2.0;
    format      ascii;
    arch        "LSB;label=32;scalar=64";
    class       volVectorField;
    location    "0.026";
    object      U;
}
// * * * * * * * * * * * * * * * * * * * * * * * * * * * * * * * * * * * * * //

dimensions      [0 1 -1 0 0 0 0];

internalField   nonuniform List<vector> 
4096
(
(-0.0059889495 0.0059676601 0)
(-0.017910382 0.0059113804 0)
(-0.029662906 0.0057993103 0)
(-0.041135547 0.0056324263 0)
(-0.052219771 0.0054121888 0)
(-0.062810449 0.0051405355 0)
(-0.072806804 0.0048198729 0)
(-0.082113339 0.0044530631 0)
(-0.090640738 0.0040434078 0)
(-0.098306723 0.003594626 0)
(-0.10503687 0.0031108279 0)
(-0.11076535 0.0025964833 0)
(-0.11543565 0.002056383 0)
(-0.1190011 0.0014955896 0)
(-0.12142566 0.00091936548 0)
(-0.12268342 0.00033339418 0)
(-0.12276089 -0.00025695184 0)
(-0.1216547 -0.00084586056 0)
(-0.11937355 -0.0014276318 0)
(-0.11593744 -0.0019965856 0)
(-0.11137768 -0.0025471358 0)
(-0.10573666 -0.0030738441 0)
(-0.099067472 -0.0035714758 0)
(-0.091433458 -0.0040350534 0)
(-0.082907649 -0.0044599107 0)
(-0.073572083 -0.0048417435 0)
(-0.063517028 -0.0051766595 0)
(-0.05284011 -0.0054612246 0)
(-0.041645354 -0.005692505 0)
(-0.030042139 -0.0058681053 0)
(-0.018144087 -0.0059861997 0)
(-0.0060678921 -0.0060455569 0)
(0.0060678921 -0.0060455569 0)
(0.018144087 -0.0059861997 0)
(0.030042139 -0.0058681053 0)
(0.041645354 -0.005692505 0)
(0.05284011 -0.0054612246 0)
(0.063517028 -0.0051766595 0)
(0.073572083 -0.0048417435 0)
(0.082907649 -0.0044599107 0)
(0.091433458 -0.0040350534 0)
(0.099067472 -0.0035714758 0)
(0.10573666 -0.0030738441 0)
(0.11137768 -0.0025471358 0)
(0.11593744 -0.0019965856 0)
(0.11937355 -0.0014276318 0)
(0.1216547 -0.00084586056 0)
(0.12276089 -0.00025695184 0)
(0.12268342 0.00033339418 0)
(0.12142566 0.00091936548 0)
(0.1190011 0.0014955896 0)
(0.11543565 0.002056383 0)
(0.11076535 0.0025964833 0)
(0.10503687 0.0031108279 0)
(0.098306723 0.003594626 0)
(0.090640738 0.0040434078 0)
(0.082113339 0.0044530631 0)
(0.072806804 0.0048198729 0)
(0.062810449 0.0051405355 0)
(0.052219771 0.0054121888 0)
(0.041135547 0.0056324263 0)
(0.029662906 0.0057993103 0)
(0.017910382 0.0059113804 0)
(0.0059889495 0.0059676601 0)
(-0.0060407731 0.017944474 0)
(-0.018065391 0.017775266 0)
(-0.029919717 0.017438318 0)
(-0.041491862 0.016936565 0)
(-0.052672387 0.016274392 0)
(-0.063355278 0.015457622 0)
(-0.073438894 0.014493485 0)
(-0.082826908 0.013390581 0)
(-0.091429211 0.012158833 0)
(-0.099162783 0.010809419 0)
(-0.10595252 0.0093546974 0)
(-0.11173198 0.007808104 0)
(-0.1164441 0.0061840457 0)
(-0.12004181 0.0044977643 0)
(-0.12248856 0.0027651812 0)
(-0.12375864 0.0010028897 0)
(-0.12383775 -0.0007722311 0)
(-0.12272287 -0.0025431161 0)
(-0.12042268 -0.0042925585 0)
(-0.11695732 -0.0060034733 0)
(-0.11235835 -0.00765906 0)
(-0.1066685 -0.0092429649 0)
(-0.099941303 -0.010739445 0)
(-0.092240642 -0.012133533 0)
(-0.083640163 -0.013411193 0)
(-0.07422261 -0.014559479 0)
(-0.064079037 -0.015566684 0)
(-0.053307932 -0.016422475 0)
(-0.042014251 -0.017118026 0)
(-0.03030836 -0.017646129 0)
(-0.018304916 -0.01800129 0)
(-0.0061216851 -0.018179804 0)
(0.0061216851 -0.018179804 0)
(0.018304916 -0.01800129 0)
(0.03030836 -0.017646129 0)
(0.042014251 -0.017118026 0)
(0.053307932 -0.016422475 0)
(0.064079037 -0.015566684 0)
(0.07422261 -0.014559479 0)
(0.083640163 -0.013411193 0)
(0.092240642 -0.012133533 0)
(0.099941303 -0.010739445 0)
(0.1066685 -0.0092429649 0)
(0.11235835 -0.00765906 0)
(0.11695732 -0.0060034733 0)
(0.12042268 -0.0042925585 0)
(0.12272287 -0.0025431161 0)
(0.12383775 -0.0007722311 0)
(0.12375864 0.0010028897 0)
(0.12248856 0.0027651812 0)
(0.12004181 0.0044977643 0)
(0.1164441 0.0061840457 0)
(0.11173198 0.007808104 0)
(0.10595252 0.0093546974 0)
(0.099162783 0.010809419 0)
(0.091429211 0.012158833 0)
(0.082826908 0.013390581 0)
(0.073438894 0.014493485 0)
(0.063355278 0.015457622 0)
(0.052672387 0.016274392 0)
(0.041491862 0.016936565 0)
(0.029919717 0.017438318 0)
(0.018065391 0.017775266 0)
(0.0060407731 0.017944474 0)
(-0.0061182781 0.030062193 0)
(-0.018297211 0.029778795 0)
(-0.03030377 0.029214455 0)
(-0.042024687 0.028374074 0)
(-0.053349167 0.027264986 0)
(-0.064169859 0.025896924 0)
(-0.074383826 0.024281981 0)
(-0.083893491 0.022434544 0)
(-0.09260756 0.02037122 0)
(-0.1004419 0.018110723 0)
(-0.10732038 0.015673743 0)
(-0.11317567 0.013082786 0)
(-0.1179499 0.010361988 0)
(-0.12159533 0.0075368952 0)
(-0.1240749 0.0046342291 0)
(-0.12536258 0.0016816956 0)
(-0.12544377 -0.0012924048 0)
(-0.12431548 -0.004259406 0)
(-0.12198642 -0.0071905061 0)
(-0.11847701 -0.010057089 0)
(-0.1138192 -0.01283101 0)
(-0.10805624 -0.015484869 0)
(-0.10124234 -0.017992292 0)
(-0.093442184 -0.020328197 0)
(-0.084730337 -0.022469065 0)
(-0.075190597 -0.024393196 0)
(-0.064915186 -0.026080961 0)
(-0.054003867 -0.027515035 0)
(-0.042562971 -0.028680613 0)
(-0.030704324 -0.029565603 0)
(-0.018544114 -0.030160786 0)
(-0.0062016886 -0.030459943 0)
(0.0062016886 -0.030459943 0)
(0.018544114 -0.030160786 0)
(0.030704324 -0.029565603 0)
(0.042562971 -0.028680613 0)
(0.054003867 -0.027515035 0)
(0.064915186 -0.026080961 0)
(0.075190597 -0.024393196 0)
(0.084730337 -0.022469065 0)
(0.093442184 -0.020328197 0)
(0.10124234 -0.017992292 0)
(0.10805624 -0.015484869 0)
(0.1138192 -0.01283101 0)
(0.11847701 -0.010057089 0)
(0.12198642 -0.0071905061 0)
(0.12431548 -0.004259406 0)
(0.12544377 -0.0012924048 0)
(0.12536258 0.0016816956 0)
(0.1240749 0.0046342291 0)
(0.12159533 0.0075368952 0)
(0.1179499 0.010361988 0)
(0.11317567 0.013082786 0)
(0.10732038 0.015673743 0)
(0.1004419 0.018110723 0)
(0.09260756 0.02037122 0)
(0.083893491 0.022434544 0)
(0.074383826 0.024281981 0)
(0.064169859 0.025896924 0)
(0.053349167 0.027264986 0)
(0.042024687 0.028374074 0)
(0.03030377 0.029214455 0)
(0.018297211 0.029778795 0)
(0.0061182781 0.030062193 0)
(-0.0062234861 0.042361913 0)
(-0.01861189 0.04196269 0)
(-0.030825089 0.041167692 0)
(-0.042747943 0.039983807 0)
(-0.054267806 0.038421339 0)
(-0.065275511 0.03649397 0)
(-0.075666356 0.034218705 0)
(-0.085341063 0.031615785 0)
(-0.094206717 0.028708581 0)
(-0.10217767 0.02552344 0)
(-0.10917642 0.022089505 0)
(-0.11513437 0.018438489 0)
(-0.11999259 0.014604405 0)
(-0.12370246 0.01062327 0)
(-0.12622621 0.0065327674 0)
(-0.12753735 0.0023719082 0)
(-0.127621 -0.0018193986 0)
(-0.12647411 -0.0060007191 0)
(-0.12410554 -0.01013147 0)
(-0.12053607 -0.014171333 0)
(-0.11579818 -0.018080649 0)
(-0.10993588 -0.021820816 0)
(-0.10300428 -0.025354667 0)
(-0.095069147 -0.02864686 0)
(-0.086206323 -0.031664243 0)
(-0.076501019 -0.034376224 0)
(-0.066047032 -0.036755122 0)
(-0.054945847 -0.038776496 0)
(-0.043305647 -0.040419456 0)
(-0.031240227 -0.041666933 0)
(-0.018867839 -0.042505913 0)
(-0.0063099622 -0.042927614 0)
(0.0063099622 -0.042927614 0)
(0.018867839 -0.042505913 0)
(0.031240227 -0.041666933 0)
(0.043305647 -0.040419456 0)
(0.054945847 -0.038776496 0)
(0.066047032 -0.036755122 0)
(0.076501019 -0.034376224 0)
(0.086206323 -0.031664243 0)
(0.095069147 -0.02864686 0)
(0.10300428 -0.025354667 0)
(0.10993588 -0.021820816 0)
(0.11579818 -0.018080649 0)
(0.12053607 -0.014171333 0)
(0.12410554 -0.01013147 0)
(0.12647411 -0.0060007191 0)
(0.127621 -0.0018193986 0)
(0.12753735 0.0023719082 0)
(0.12622621 0.0065327674 0)
(0.12370246 0.01062327 0)
(0.11999259 0.014604405 0)
(0.11513437 0.018438489 0)
(0.10917642 0.022089505 0)
(0.10217767 0.02552344 0)
(0.094206717 0.028708581 0)
(0.085341063 0.031615785 0)
(0.075666356 0.034218705 0)
(0.065275511 0.03649397 0)
(0.054267806 0.038421339 0)
(0.042747943 0.039983807 0)
(0.030825089 0.041167692 0)
(0.01861189 0.04196269 0)
(0.0062234861 0.042361913 0)
(-0.0063585328 0.054899666 0)
(-0.019015818 0.054382476 0)
(-0.031494268 0.053352548 0)
(-0.043676338 0.051818775 0)
(-0.055447006 0.049794464 0)
(-0.066694774 0.047297293 0)
(-0.077312665 0.044349241 0)
(-0.087199207 0.040976489 0)
(-0.096259401 0.037209275 0)
(-0.10440565 0.033081714 0)
(-0.11155864 0.028631557 0)
(-0.1176482 0.023899899 0)
(-0.122614 0.018930838 0)
(-0.1264063 0.013771077 0)
(-0.12898642 0.0084694862 0)
(-0.13032729 0.0030766381 0)
(-0.13041369 -0.0023557123 0)
(-0.12924252 -0.0077751327 0)
(-0.12682286 -0.013129022 0)
(-0.12317596 -0.018365131 0)
(-0.11833503 -0.023432076 0)
(-0.11234504 -0.028279841 0)
(-0.10526229 -0.032860273 0)
(-0.097153947 -0.037127571 0)
(-0.088097468 -0.04103877 0)
(-0.078179884 -0.044554206 0)
(-0.067497006 -0.047637976 0)
(-0.05615252 -0.050258369 0)
(-0.04425697 -0.05238827 0)
(-0.031926664 -0.054005514 0)
(-0.019282488 -0.055093198 0)
(-0.006448645 -0.055639913 0)
(0.006448645 -0.055639913 0)
(0.019282488 -0.055093198 0)
(0.031926664 -0.054005514 0)
(0.04425697 -0.05238827 0)
(0.05615252 -0.050258369 0)
(0.067497006 -0.047637976 0)
(0.078179884 -0.044554206 0)
(0.088097468 -0.04103877 0)
(0.097153947 -0.037127571 0)
(0.10526229 -0.032860273 0)
(0.11234504 -0.028279841 0)
(0.11833503 -0.023432076 0)
(0.12317596 -0.018365131 0)
(0.12682286 -0.013129022 0)
(0.12924252 -0.0077751327 0)
(0.13041369 -0.0023557123 0)
(0.13032729 0.0030766381 0)
(0.12898642 0.0084694862 0)
(0.1264063 0.013771077 0)
(0.122614 0.018930838 0)
(0.1176482 0.023899899 0)
(0.11155864 0.028631557 0)
(0.10440565 0.033081714 0)
(0.096259401 0.037209275 0)
(0.087199207 0.040976489 0)
(0.077312665 0.044349241 0)
(0.066694774 0.047297293 0)
(0.055447006 0.049794464 0)
(0.043676338 0.051818775 0)
(0.031494268 0.053352548 0)
(0.019015818 0.054382476 0)
(0.0063585328 0.054899666 0)
(-0.0065258445 0.067737697 0)
(-0.019516256 0.067099844 0)
(-0.032323343 0.065829604 0)
(-0.044826592 0.0639379 0)
(-0.056908036 0.061441078 0)
(-0.068453286 0.058360868 0)
(-0.079352541 0.054724303 0)
(-0.089501602 0.050563601 0)
(-0.098802868 0.045916006 0)
(-0.1071663 0.040823559 0)
(-0.11451037 0.035332818 0)
(-0.12076287 0.029494492 0)
(-0.12586177 0.02336302 0)
(-0.1297559 0.016996073 0)
(-0.13240552 0.010454009 0)
(-0.13378278 0.0037992775 0)
(-0.13387211 -0.0029042114 0)
(-0.13267035 -0.0095917253 0)
(-0.13018692 -0.016198348 0)
(-0.12644365 -0.02265962 0)
(-0.1214747 -0.028912159 0)
(-0.11532625 -0.034894284 0)
(-0.10805608 -0.04054661 0)
(-0.099733115 -0.045812644 0)
(-0.090436814 -0.050639376 0)
(-0.080256454 -0.054977851 0)
(-0.069290333 -0.058783736 0)
(-0.057644842 -0.062017855 0)
(-0.045433441 -0.064646693 0)
(-0.032775532 -0.066642842 0)
(-0.019795244 -0.06798539 0)
(-0.0066201386 -0.068660219 0)
(0.0066201386 -0.068660219 0)
(0.019795244 -0.06798539 0)
(0.032775532 -0.066642842 0)
(0.045433441 -0.064646693 0)
(0.057644842 -0.062017855 0)
(0.069290333 -0.058783736 0)
(0.080256454 -0.054977851 0)
(0.090436814 -0.050639376 0)
(0.099733115 -0.045812644 0)
(0.10805608 -0.04054661 0)
(0.11532625 -0.034894284 0)
(0.1214747 -0.028912159 0)
(0.12644365 -0.02265962 0)
(0.13018692 -0.016198348 0)
(0.13267035 -0.0095917253 0)
(0.13387211 -0.0029042114 0)
(0.13378278 0.0037992775 0)
(0.13240552 0.010454009 0)
(0.1297559 0.016996073 0)
(0.12586177 0.02336302 0)
(0.12076287 0.029494492 0)
(0.11451037 0.035332818 0)
(0.1071663 0.040823559 0)
(0.098802868 0.045916006 0)
(0.089501602 0.050563601 0)
(0.079352541 0.054724303 0)
(0.068453286 0.058360868 0)
(0.056908036 0.061441078 0)
(0.044826592 0.0639379 0)
(0.032323343 0.065829604 0)
(0.019516256 0.067099844 0)
(0.0065258445 0.067737697 0)
(-0.0067284691 0.080943173 0)
(-0.020122323 0.080181369 0)
(-0.033327439 0.078664252 0)
(-0.046219713 0.076404798 0)
(-0.058677623 0.073422438 0)
(-0.070583274 0.069743015 0)
(-0.081823438 0.065398701 0)
(-0.092290599 0.060427877 0)
(-0.10188398 0.054874945 0)
(-0.11051058 0.048790075 0)
(-0.11808609 0.042228869 0)
(-0.12453589 0.035251937 0)
(-0.12979583 0.027924381 0)
(-0.133813 0.020315197 0)
(-0.13654635 0.012496607 0)
(-0.13796716 0.004543333 0)
(-0.13805942 -0.0034681717 0)
(-0.13681996 -0.011460495 0)
(-0.13425861 -0.019356042 0)
(-0.13039801 -0.027077795 0)
(-0.12527348 -0.034550057 0)
(-0.11893271 -0.041699173 0)
(-0.1114353 -0.048454233 0)
(-0.10285232 -0.054747777 0)
(-0.093265648 -0.060516478 0)
(-0.082767275 -0.065701829 0)
(-0.071458497 -0.070250814 0)
(-0.059448964 -0.074116559 0)
(-0.046855645 -0.077258935 0)
(-0.033801666 -0.07964511 0)
(-0.020415063 -0.081250021 0)
(-0.0068274374 -0.08205674 0)
(0.0068274374 -0.08205674 0)
(0.020415063 -0.081250021 0)
(0.033801666 -0.07964511 0)
(0.046855645 -0.077258935 0)
(0.059448965 -0.074116559 0)
(0.071458497 -0.070250814 0)
(0.082767275 -0.065701829 0)
(0.093265648 -0.060516478 0)
(0.10285232 -0.054747777 0)
(0.1114353 -0.048454233 0)
(0.11893271 -0.041699173 0)
(0.12527348 -0.034550057 0)
(0.13039801 -0.027077795 0)
(0.13425861 -0.019356042 0)
(0.13681996 -0.011460495 0)
(0.13805942 -0.0034681717 0)
(0.13796716 0.004543333 0)
(0.13654635 0.012496607 0)
(0.133813 0.020315197 0)
(0.12979583 0.027924381 0)
(0.12453589 0.035251937 0)
(0.11808609 0.042228869 0)
(0.11051058 0.048790075 0)
(0.10188398 0.054874945 0)
(0.092290599 0.060427877 0)
(0.081823438 0.065398701 0)
(0.070583274 0.069743015 0)
(0.058677623 0.073422438 0)
(0.046219713 0.076404798 0)
(0.033327439 0.078664252 0)
(0.020122323 0.080181369 0)
(0.0067284691 0.080943173 0)
(-0.0069705758 0.094590011 0)
(-0.020846496 0.093700323 0)
(-0.034527243 0.091928476 0)
(-0.04788444 0.089289523 0)
(-0.060792327 0.085806025 0)
(-0.073128823 0.081508002 0)
(-0.084776595 0.076432867 0)
(-0.095624141 0.070625295 0)
(-0.10556687 0.064137029 0)
(-0.11450815 0.057026601 0)
(-0.12236039 0.049358947 0)
(-0.12904598 0.041204921 0)
(-0.13449821 0.032640685 0)
(-0.13866209 0.023747004 0)
(-0.14149497 0.014608435 0)
(-0.14296713 0.0053124574 0)
(-0.14306204 -0.0040514463 0)
(-0.14177662 -0.013392717 0)
(-0.13912123 -0.022620639 0)
(-0.13511954 -0.031645227 0)
(-0.12980834 -0.040378084 0)
(-0.12323716 -0.048733227 0)
(-0.11546782 -0.05662789 0)
(-0.10657396 -0.063983318 0)
(-0.096640356 -0.070725555 0)
(-0.085762246 -0.076786237 0)
(-0.074044481 -0.082103373 0)
(-0.061600582 -0.086622111 0)
(-0.048551679 -0.090295458 0)
(-0.035025317 -0.09308494 0)
(-0.021154166 -0.094961167 0)
(-0.0070746274 -0.095904284 0)
(0.0070746274 -0.095904284 0)
(0.021154166 -0.094961167 0)
(0.035025317 -0.09308494 0)
(0.048551679 -0.090295458 0)
(0.061600582 -0.086622111 0)
(0.074044481 -0.082103373 0)
(0.085762246 -0.076786237 0)
(0.096640356 -0.070725555 0)
(0.10657396 -0.063983318 0)
(0.11546782 -0.05662789 0)
(0.12323716 -0.048733227 0)
(0.12980834 -0.040378084 0)
(0.13511954 -0.031645227 0)
(0.13912123 -0.022620639 0)
(0.14177662 -0.013392717 0)
(0.14306204 -0.0040514463 0)
(0.14296713 0.0053124574 0)
(0.14149497 0.014608435 0)
(0.13866209 0.023747004 0)
(0.13449821 0.032640685 0)
(0.12904598 0.041204921 0)
(0.12236039 0.049358947 0)
(0.11450815 0.057026601 0)
(0.10556687 0.064137029 0)
(0.095624141 0.070625295 0)
(0.084776595 0.076432867 0)
(0.073128823 0.081508002 0)
(0.060792327 0.085806025 0)
(0.04788444 0.089289523 0)
(0.034527243 0.091928476 0)
(0.020846496 0.093700323 0)
(0.0069705758 0.094590011 0)
(-0.007258121 0.10876187 0)
(-0.021706598 0.10773964 0)
(-0.035952306 0.10570378 0)
(-0.049861822 0.10267142 0)
(-0.063304367 0.098668299 0)
(-0.076152894 0.093728689 0)
(-0.088285184 0.087895342 0)
(-0.099584972 0.081219374 0)
(-0.10994308 0.073760074 0)
(-0.11925856 0.065584602 0)
(-0.12743979 0.05676757 0)
(-0.13440557 0.047390492 0)
(-0.14008609 0.037541077 0)
(-0.14442384 0.027312398 0)
(-0.14737431 0.016801935 0)
(-0.14890653 0.0061105294 0)
(-0.14900349 -0.0046587089 0)
(-0.14766221 -0.015401501 0)
(-0.14489383 -0.026013475 0)
(-0.14072333 -0.036391189 0)
(-0.13518931 -0.046433105 0)
(-0.12834358 -0.056040504 0)
(-0.12025065 -0.065118382 0)
(-0.11098724 -0.073576325 0)
(-0.10064157 -0.081329395 0)
(-0.089312728 -0.088299018 0)
(-0.077109757 -0.09441389 0)
(-0.064150745 -0.099610856 0)
(-0.050561722 -0.10383576 0)
(-0.036475441 -0.10704424 0)
(-0.022030032 -0.10920236 0)
(-0.0073675522 -0.1102872 0)
(0.0073675522 -0.1102872 0)
(0.022030032 -0.10920236 0)
(0.036475441 -0.10704424 0)
(0.050561722 -0.10383576 0)
(0.064150745 -0.099610856 0)
(0.077109757 -0.09441389 0)
(0.089312728 -0.088299018 0)
(0.10064157 -0.081329395 0)
(0.11098724 -0.073576325 0)
(0.12025065 -0.065118382 0)
(0.12834358 -0.056040504 0)
(0.13518931 -0.046433105 0)
(0.14072333 -0.036391189 0)
(0.14489383 -0.026013475 0)
(0.14766221 -0.015401501 0)
(0.14900349 -0.0046587089 0)
(0.14890653 0.0061105294 0)
(0.14737431 0.016801935 0)
(0.14442384 0.027312398 0)
(0.14008609 0.037541077 0)
(0.13440557 0.047390492 0)
(0.12743979 0.05676757 0)
(0.11925856 0.065584602 0)
(0.10994308 0.073760074 0)
(0.099584972 0.081219374 0)
(0.088285184 0.087895342 0)
(0.076152894 0.093728689 0)
(0.063304367 0.098668299 0)
(0.049861822 0.10267142 0)
(0.035952306 0.10570378 0)
(0.021706598 0.10773964 0)
(0.007258121 0.10876187 0)
(-0.0075996654 0.12355646 0)
(-0.022728245 0.12239622 0)
(-0.037645099 0.12008538 0)
(-0.052210845 0.11664322 0)
(-0.06628877 0.11209867 0)
(-0.079745935 0.10649032 0)
(-0.092454308 0.099866355 0)
(-0.10429194 0.092284502 0)
(-0.11514414 0.083811811 0)
(-0.12490474 0.074524377 0)
(-0.13347727 0.064506887 0)
(-0.14077614 0.05385201 0)
(-0.14672781 0.042659593 0)
(-0.15127169 0.031035692 0)
(-0.15436101 0.019091435 0)
(-0.15596341 0.0069417795 0)
(-0.1560613 -0.0052957911 0)
(-0.154652 -0.017502573 0)
(-0.15174764 -0.029559893 0)
(-0.14737491 -0.041350277 0)
(-0.14157472 -0.05275853 0)
(-0.13440164 -0.06367274 0)
(-0.12592348 -0.073985238 0)
(-0.11622062 -0.083593545 0)
(-0.10538543 -0.09240134 0)
(-0.093521518 -0.10031945 0)
(-0.08074289 -0.10726686 0)
(-0.067173009 -0.11317174 0)
(-0.052943675 -0.11797243 0)
(-0.038193769 -0.12161835 0)
(-0.02306785 -0.12407081 0)
(-0.0077146331 -0.12530364 0)
(0.0077146331 -0.12530364 0)
(0.02306785 -0.12407081 0)
(0.038193769 -0.12161835 0)
(0.052943675 -0.11797243 0)
(0.067173009 -0.11317174 0)
(0.08074289 -0.10726686 0)
(0.093521518 -0.10031945 0)
(0.10538543 -0.09240134 0)
(0.11622062 -0.083593545 0)
(0.12592348 -0.073985238 0)
(0.13440164 -0.06367274 0)
(0.14157472 -0.05275853 0)
(0.14737491 -0.041350277 0)
(0.15174764 -0.029559893 0)
(0.154652 -0.017502573 0)
(0.1560613 -0.0052957911 0)
(0.15596341 0.0069417796 0)
(0.15436101 0.019091435 0)
(0.15127169 0.031035692 0)
(0.14672781 0.042659593 0)
(0.14077614 0.05385201 0)
(0.13347727 0.064506887 0)
(0.12490474 0.074524377 0)
(0.11514414 0.083811811 0)
(0.10429194 0.092284502 0)
(0.092454308 0.099866355 0)
(0.079745935 0.10649032 0)
(0.06628877 0.11209867 0)
(0.052210845 0.11664322 0)
(0.037645099 0.12008538 0)
(0.022728245 0.12239622 0)
(0.0075996654 0.12355646 0)
(-0.0080073087 0.13909163 0)
(-0.023947639 0.13778691 0)
(-0.039665639 0.13518818 0)
(-0.055014861 0.13131684 0)
(-0.069851543 0.12620508 0)
(-0.084035732 0.11989583 0)
(-0.09743245 0.11244286 0)
(-0.10991291 0.10391061 0)
(-0.12135581 0.094374161 0)
(-0.13164861 0.083918875 0)
(-0.14068894 0.072639978 0)
(-0.14838587 0.060641885 0)
(-0.15466123 0.048037307 0)
(-0.15945071 0.034946113 0)
(-0.16270479 0.021493998 0)
(-0.16438947 0.0078109849 0)
(-0.16448657 -0.0059701383 0)
(-0.16299387 -0.019715367 0)
(-0.1599249 -0.033290941 0)
(-0.15530857 -0.04656467 0)
(-0.14918866 -0.059407113 0)
(-0.14162325 -0.071692647 0)
(-0.1326841 -0.083300469 0)
(-0.12245609 -0.094115588 0)
(-0.11103648 -0.10402986 0)
(-0.098534294 -0.11294305 0)
(-0.085069407 -0.120764 0)
(-0.070771644 -0.12741177 0)
(-0.055779622 -0.13281678 0)
(-0.040239465 -0.1369219 0)
(-0.024303332 -0.13968338 0)
(-0.0081278106 -0.14107159 0)
(0.0081278106 -0.14107159 0)
(0.024303332 -0.13968338 0)
(0.040239465 -0.1369219 0)
(0.055779622 -0.13281678 0)
(0.070771644 -0.12741177 0)
(0.085069407 -0.120764 0)
(0.098534294 -0.11294305 0)
(0.11103648 -0.10402986 0)
(0.12245609 -0.094115588 0)
(0.1326841 -0.083300469 0)
(0.14162325 -0.071692647 0)
(0.14918866 -0.059407113 0)
(0.15530857 -0.04656467 0)
(0.1599249 -0.033290941 0)
(0.16299387 -0.019715367 0)
(0.16448657 -0.0059701383 0)
(0.16438947 0.0078109849 0)
(0.16270479 0.021493998 0)
(0.15945071 0.034946113 0)
(0.15466123 0.048037307 0)
(0.14838587 0.060641885 0)
(0.14068894 0.072639978 0)
(0.13164861 0.083918875 0)
(0.12135581 0.094374161 0)
(0.10991291 0.10391061 0)
(0.09743245 0.11244286 0)
(0.084035732 0.11989583 0)
(0.069851543 0.12620508 0)
(0.055014861 0.13131684 0)
(0.039665639 0.13518818 0)
(0.023947639 0.13778691 0)
(0.0080073087 0.13909163 0)
(-0.0084976737 0.1555134 0)
(-0.025414516 0.15405653 0)
(-0.042096374 0.15115454 0)
(-0.058388362 0.14683101 0)
(-0.074138288 0.14112136 0)
(-0.089197787 0.13407296 0)
(-0.10342352 0.12574517 0)
(-0.11667845 0.11620937 0)
(-0.1288332 0.1055489 0)
(-0.13976749 0.093858753 0)
(-0.14937167 0.08124524 0)
(-0.1575482 0.067825229 0)
(-0.1642132 0.053725178 0)
(-0.16929771 0.039079822 0)
(-0.1727489 0.024030578 0)
(-0.17453075 0.0087237439 0)
(-0.17462452 -0.0066913976 0)
(-0.17302873 -0.022064445 0)
(-0.16975882 -0.037245588 0)
(-0.16484659 -0.052087105 0)
(-0.15833953 -0.066444631 0)
(-0.15030006 -0.080178257 0)
(-0.14080486 -0.093153533 0)
(-0.12994422 -0.10524247 0)
(-0.11782136 -0.11632459 0)
(-0.10455174 -0.12628812 0)
(-0.09026227 -0.13503122 0)
(-0.075090337 -0.14246335 0)
(-0.05918269 -0.14850652 0)
(-0.042694076 -0.15309662 0)
(-0.025785706 -0.15618449 0)
(-0.0086235434 -0.15773683 0)
(0.0086235435 -0.15773683 0)
(0.025785706 -0.15618449 0)
(0.042694076 -0.15309662 0)
(0.05918269 -0.14850652 0)
(0.075090337 -0.14246335 0)
(0.09026227 -0.13503122 0)
(0.10455174 -0.12628812 0)
(0.11782136 -0.11632459 0)
(0.12994422 -0.10524247 0)
(0.14080486 -0.093153533 0)
(0.15030006 -0.080178257 0)
(0.15833953 -0.066444631 0)
(0.16484659 -0.052087105 0)
(0.16975882 -0.037245588 0)
(0.17302873 -0.022064445 0)
(0.17462452 -0.0066913976 0)
(0.17453075 0.008723744 0)
(0.1727489 0.024030578 0)
(0.16929771 0.039079822 0)
(0.1642132 0.053725178 0)
(0.1575482 0.067825229 0)
(0.14937167 0.08124524 0)
(0.13976749 0.093858753 0)
(0.1288332 0.1055489 0)
(0.11667845 0.11620937 0)
(0.10342352 0.12574517 0)
(0.089197787 0.13407296 0)
(0.074138288 0.14112136 0)
(0.058388362 0.14683101 0)
(0.042096374 0.15115454 0)
(0.025414516 0.15405653 0)
(0.0084976737 0.1555134 0)
(-0.0090928253 0.17300598 0)
(-0.027194893 0.17138775 0)
(-0.045046736 0.16816413 0)
(-0.062483308 0.1633608 0)
(-0.079342242 0.15701647 0)
(-0.095465006 0.14918295 0)
(-0.11069812 0.13992529 0)
(-0.12489451 0.12932194 0)
(-0.1379149 0.11746471 0)
(-0.14962948 0.1044587 0)
(-0.15991955 0.090421882 0)
(-0.16867934 0.075484429 0)
(-0.17581776 0.059787643 0)
(-0.1812601 0.043482444 0)
(-0.18494932 0.026727462 0)
(-0.18684704 0.0096868323 0)
(-0.18693394 -0.0074721423 0)
(-0.18520968 -0.024581268 0)
(-0.18169231 -0.04147349 0)
(-0.17641746 -0.05798458 0)
(-0.16943737 -0.073954471 0)
(-0.16081996 -0.089228333 0)
(-0.15064802 -0.10365751 0)
(-0.13901845 -0.11710048 0)
(-0.12604169 -0.1294239 0)
(-0.111841 -0.14050386 0)
(-0.096551738 -0.15022726 0)
(-0.080320408 -0.15849332 0)
(-0.063303523 -0.16521511 0)
(-0.045666199 -0.17032102 0)
(-0.02758053 -0.1737561 0)
(-0.0092237514 -0.17548305 0)
(0.0092237514 -0.17548305 0)
(0.02758053 -0.1737561 0)
(0.045666199 -0.17032102 0)
(0.063303523 -0.16521511 0)
(0.080320408 -0.15849332 0)
(0.096551738 -0.15022726 0)
(0.111841 -0.14050386 0)
(0.12604169 -0.1294239 0)
(0.13901845 -0.11710048 0)
(0.15064802 -0.10365751 0)
(0.16081996 -0.089228333 0)
(0.16943737 -0.073954471 0)
(0.17641746 -0.05798458 0)
(0.18169231 -0.04147349 0)
(0.18520968 -0.024581268 0)
(0.18693394 -0.0074721423 0)
(0.18684704 0.0096868323 0)
(0.18494932 0.026727462 0)
(0.1812601 0.043482444 0)
(0.17581776 0.059787643 0)
(0.16867934 0.075484429 0)
(0.15991955 0.090421882 0)
(0.14962948 0.1044587 0)
(0.1379149 0.11746471 0)
(0.12489451 0.12932194 0)
(0.11069812 0.13992529 0)
(0.095465006 0.14918295 0)
(0.079342242 0.15701647 0)
(0.062483308 0.1633608 0)
(0.045046736 0.16816413 0)
(0.027194893 0.17138775 0)
(0.0090928253 0.17300598 0)
(-0.0098209465 0.19180347 0)
(-0.029373087 0.19001277 0)
(-0.048656496 0.18644525 0)
(-0.067493771 0.18112874 0)
(-0.085710186 0.17410521 0)
(-0.10313483 0.16543089 0)
(-0.11960186 0.1551766 0)
(-0.13495186 0.14342795 0)
(-0.14903342 0.13028552 0)
(-0.16170485 0.11586489 0)
(-0.17283617 0.1002964 0)
(-0.18231122 0.083724559 0)
(-0.19002983 0.066306857 0)
(-0.19590993 0.04821208 0)
(-0.19988922 0.029618 0)
(-0.20192641 0.010708629 0)
(-0.20200166 -0.0083287202 0)
(-0.2001163 -0.02730627 0)
(-0.19629197 -0.046038227 0)
(-0.19056936 -0.064342686 0)
(-0.18300688 -0.082042988 0)
(-0.17367941 -0.098968687 0)
(-0.1626773 -0.11495633 0)
(-0.15010567 -0.12985028 0)
(-0.13608373 -0.14350371 0)
(-0.12074424 -0.15577991 0)
(-0.1042328 -0.16655381 0)
(-0.086706983 -0.17571369 0)
(-0.068335149 -0.18316296 0)
(-0.049294996 -0.18882192 0)
(-0.029771818 -0.19262931 0)
(-0.0099565255 -0.19454351 0)
(0.0099565255 -0.19454351 0)
(0.029771818 -0.19262931 0)
(0.049294996 -0.18882192 0)
(0.068335149 -0.18316296 0)
(0.086706983 -0.17571369 0)
(0.1042328 -0.16655381 0)
(0.12074424 -0.15577991 0)
(0.13608373 -0.14350371 0)
(0.15010567 -0.12985028 0)
(0.1626773 -0.11495633 0)
(0.17367941 -0.098968687 0)
(0.18300688 -0.082042988 0)
(0.19056936 -0.064342686 0)
(0.19629197 -0.046038227 0)
(0.2001163 -0.02730627 0)
(0.20200166 -0.0083287202 0)
(0.20192641 0.010708629 0)
(0.19988922 0.029618 0)
(0.19590993 0.04821208 0)
(0.19002983 0.066306857 0)
(0.18231122 0.083724559 0)
(0.17283617 0.1002964 0)
(0.16170485 0.11586489 0)
(0.14903342 0.13028552 0)
(0.13495186 0.14342795 0)
(0.11960186 0.1551766 0)
(0.10313483 0.16543089 0)
(0.085710186 0.17410521 0)
(0.067493771 0.18112874 0)
(0.048656496 0.18644525 0)
(0.029373087 0.19001277 0)
(0.0098209465 0.19180347 0)
(-0.010716519 0.21220257 0)
(-0.032052264 0.21022584 0)
(-0.053096649 0.20628731 0)
(-0.073657181 0.20041692 0)
(-0.093544022 0.19265988 0)
(-0.11257113 0.18307686 0)
(-0.13055751 0.17174444 0)
(-0.14732861 0.15875547 0)
(-0.16271797 0.14421951 0)
(-0.17656916 0.12826309 0)
(-0.18873804 0.11102969 0)
(-0.19909528 0.092679331 0)
(-0.20752915 0.073387376 0)
(-0.21394815 0.053342626 0)
(-0.21828329 0.032744504 0)
(-0.22048966 0.011799585 0)
(-0.22054697 -0.0092821878 0)
(-0.21845901 -0.030291134 0)
(-0.21425233 -0.051020844 0)
(-0.20797431 -0.071270328 0)
(-0.19969133 -0.090845332 0)
(-0.18948709 -0.10955905 0)
(-0.17746143 -0.12723261 0)
(-0.16372952 -0.14369564 0)
(-0.14842136 -0.15878712 0)
(-0.1316813 -0.17235677 0)
(-0.11366747 -0.18426666 0)
(-0.094550928 -0.19439326 0)
(-0.074514513 -0.20262951 0)
(-0.053751297 -0.20888686 0)
(-0.032462705 -0.21309714 0)
(-0.010856351 -0.21521399 0)
(0.010856351 -0.21521399 0)
(0.032462705 -0.21309714 0)
(0.053751297 -0.20888686 0)
(0.074514513 -0.20262951 0)
(0.094550928 -0.19439326 0)
(0.11366747 -0.18426666 0)
(0.1316813 -0.17235677 0)
(0.14842136 -0.15878712 0)
(0.16372952 -0.14369564 0)
(0.17746143 -0.12723261 0)
(0.18948709 -0.10955905 0)
(0.19969133 -0.090845332 0)
(0.20797431 -0.071270328 0)
(0.21425233 -0.051020844 0)
(0.21845901 -0.030291134 0)
(0.22054697 -0.0092821878 0)
(0.22048966 0.011799585 0)
(0.21828329 0.032744504 0)
(0.21394815 0.053342626 0)
(0.20752915 0.073387376 0)
(0.19909528 0.092679331 0)
(0.18873804 0.11102969 0)
(0.17656916 0.12826309 0)
(0.16271797 0.14421951 0)
(0.14732861 0.15875547 0)
(0.13055751 0.17174444 0)
(0.11257113 0.18307686 0)
(0.093544022 0.19265988 0)
(0.073657181 0.20041692 0)
(0.053096649 0.20628731 0)
(0.032052264 0.21022584 0)
(0.010716519 0.21220257 0)
(-0.011819679 0.23457505 0)
(-0.035352496 0.23239568 0)
(-0.058566214 0.2280529 0)
(-0.081249852 0.22157878 0)
(-0.10319508 0.21302173 0)
(-0.12419734 0.20244683 0)
(-0.14405709 0.1899364 0)
(-0.16258119 0.17559059 0)
(-0.17958462 0.15952808 0)
(-0.19489263 0.14188677 0)
(-0.20834329 0.12282412 0)
(-0.21979063 0.10251705 0)
(-0.2291081 0.081160868 0)
(-0.23619209 0.058967113 0)
(-0.24096503 0.036160153 0)
(-0.24337747 0.012972684 0)
(-0.2434088 -0.010359257 0)
(-0.24106636 -0.033601065 0)
(-0.23638334 -0.056523346 0)
(-0.22941599 -0.078904361 0)
(-0.22024094 -0.10053115 0)
(-0.20895305 -0.12119979 0)
(-0.1956639 -0.14071535 0)
(-0.18050106 -0.15889204 0)
(-0.16360772 -0.17555385 0)
(-0.14514237 -0.19053594 0)
(-0.12527845 -0.20368651 0)
(-0.10420358 -0.21486913 0)
(-0.082118323 -0.22396521 0)
(-0.059234612 -0.23087646 0)
(-0.035773647 -0.23552705 0)
(-0.011963505 -0.2378654 0)
(0.011963505 -0.2378654 0)
(0.035773647 -0.23552705 0)
(0.059234612 -0.23087646 0)
(0.082118323 -0.22396521 0)
(0.10420358 -0.21486913 0)
(0.12527845 -0.20368651 0)
(0.14514237 -0.19053594 0)
(0.16360772 -0.17555385 0)
(0.18050106 -0.15889204 0)
(0.1956639 -0.14071535 0)
(0.20895305 -0.12119979 0)
(0.22024094 -0.10053115 0)
(0.22941599 -0.078904361 0)
(0.23638334 -0.056523346 0)
(0.24106636 -0.033601065 0)
(0.2434088 -0.010359257 0)
(0.24337747 0.012972684 0)
(0.24096503 0.036160153 0)
(0.23619209 0.058967113 0)
(0.2291081 0.081160868 0)
(0.21979063 0.10251705 0)
(0.20834329 0.12282412 0)
(0.19489263 0.14188677 0)
(0.17958462 0.15952808 0)
(0.16258119 0.17559059 0)
(0.14405709 0.1899364 0)
(0.12419734 0.20244683 0)
(0.10319508 0.21302173 0)
(0.081249852 0.22157878 0)
(0.058566214 0.2280529 0)
(0.035352496 0.23239568 0)
(0.011819679 0.23457505 0)
(-0.01317433 0.25937783 0)
(-0.039405126 0.25697543 0)
(-0.06528287 0.25218767 0)
(-0.090573982 0.24504872 0)
(-0.11504756 0.2356102 0)
(-0.1384765 0.22394158 0)
(-0.16063862 0.21013084 0)
(-0.18131812 0.1942854 0)
(-0.20030724 0.17653317 0)