/*--------------------------------*- C++ -*----------------------------------*\
| =========                 |                                                 |
| \\      /  F ield         | OpenFOAM: The Open Source CFD Toolbox           |
|  \\    /   O peration     | Version:  2106                                  |
|   \\  /    A nd           | Website:  www.openfoam.com                      |
|    \\/     M anipulation  |                                                 |
\*---------------------------------------------------------------------------*/
FoamFile
{
    version     2.0;
    format      ascii;
    arch        "LSB;label=32;scalar=64";
    class       surfaceScalarField;
    location    "0.025";
    object      phi;
}
// * * * * * * * * * * * * * * * * * * * * * * * * * * * * * * * * * * * * * //

dimensions      [0 3 -1 0 0 0 0];

oriented        oriented;

internalField   nonuniform List<scalar> 
32512
(
-3.9444834e-05
3.9444834e-05
-7.8800166e-05
3.9355332e-05
-0.00011797665
3.9176489e-05
-0.00015688528
3.8908624e-05
-0.0001954375
3.855222e-05
-0.00023354542
3.8107918e-05
-0.00027112194
3.7576524e-05
-0.00030808095
3.6959005e-05
-0.00034433744
3.6256495e-05
-0.00037980773
3.5470289e-05
-0.00041440958
3.4601854e-05
-0.0004480624
3.3652819e-05
-0.00048068739
3.2624987e-05
-0.00051220772
3.1520326e-05
-0.00054254869
3.0340974e-05
-0.00057163793
2.9089242e-05
-0.00059940554
2.7767607e-05
-0.00062578426
2.6378717e-05
-0.00065070964
2.4925386e-05
-0.00067412024
2.3410597e-05
-0.00069595773
2.1837494e-05
-0.00071616712
2.0209383e-05
-0.00073469684
1.8529726e-05
-0.00075149898
1.6802142e-05
-0.00076652938
1.5030394e-05
-0.00077974777
1.3218389e-05
-0.00079111794
1.137017e-05
-0.00080060785
9.4899108e-06
-0.00080818975
7.5819048e-06
-0.00081384031
5.6505561e-06
-0.00081754066
3.7003469e-06
-0.00081927657
1.7359098e-06
-0.00081903859
-2.3797708e-07
-0.00081682189
-2.2167036e-06
-0.0008126265
-4.1953815e-06
-0.00080645736
-6.1691482e-06
-0.00079832426
-8.1330937e-06
-0.00078824197
-1.0082288e-05
-0.00077623018
-1.2011792e-05
-0.00076231351
-1.3916671e-05
-0.0007465215
-1.5792009e-05
-0.00072888858
-1.7632922e-05
-0.000709454
-1.9434576e-05
-0.0006882618
-2.11922e-05
-0.0006653607
-2.29011e-05
-0.00064080403
-2.4556679e-05
-0.00061464958
-2.6154448e-05
-0.00058695954
-2.7690041e-05
-0.0005578003
-2.9159235e-05
-0.00052724234
-3.0557961e-05
-0.00049536002
-3.1882321e-05
-0.00046223142
-3.3128601e-05
-0.00042793813
-3.4293285e-05
-0.00039256506
-3.5373072e-05
-0.00035620018
-3.6364883e-05
-0.0003189343
-3.726588e-05
-0.00028086083
-3.8073471e-05
-0.0002420755
-3.8785325e-05
-0.00020267612
-3.9399382e-05
-0.00016276227
-3.9913857e-05
-0.00012243501
-4.0327251e-05
-8.1796654e-05
-4.063836e-05
-4.0950381e-05
-4.0846273e-05
2.3414624e-13
-4.0950382e-05
4.0950382e-05
-4.0950382e-05
8.1796655e-05
-4.0846273e-05
0.00012243501
-4.063836e-05
0.00016276227
-4.0327251e-05
0.00020267612
-3.9913857e-05
0.0002420755
-3.9399382e-05
0.00028086083
-3.8785325e-05
0.0003189343
-3.8073471e-05
0.00035620018
-3.726588e-05
0.00039256506
-3.6364883e-05
0.00042793813
-3.5373072e-05
0.00046223142
-3.4293285e-05
0.00049536002
-3.3128601e-05
0.00052724234
-3.1882321e-05
0.0005578003
-3.0557961e-05
0.00058695954
-2.9159235e-05
0.00061464958
-2.7690041e-05
0.00064080403
-2.6154448e-05
0.0006653607
-2.4556679e-05
0.00068826181
-2.29011e-05
0.000709454
-2.11922e-05
0.00072888858
-1.9434576e-05
0.0007465215
-1.7632922e-05
0.00076231351
-1.5792009e-05
0.00077623018
-1.3916671e-05
0.00078824197
-1.2011792e-05
0.00079832426
-1.0082288e-05
0.00080645736
-8.1330937e-06
0.0008126265
-6.1691482e-06
0.00081682189
-4.1953815e-06
0.00081903859
-2.2167036e-06
0.00081927657
-2.3797705e-07
0.00081754066
1.7359099e-06
0.00081384031
3.700347e-06
0.00080818975
5.6505561e-06
0.00080060785
7.5819048e-06
0.00079111794
9.4899108e-06
0.00077974777
1.137017e-05
0.00076652938
1.3218389e-05
0.00075149898
1.5030394e-05
0.00073469684
1.6802142e-05
0.00071616712
1.8529727e-05
0.00069595773
2.0209383e-05
0.00067412024
2.1837494e-05
0.00065070964
2.3410597e-05
0.00062578426
2.4925386e-05
0.00059940554
2.6378717e-05
0.00057163793
2.7767607e-05
0.00054254869
2.9089242e-05
0.00051220772
3.0340974e-05
0.00048068739
3.1520326e-05
0.0004480624
3.2624987e-05
0.00041440958
3.365282e-05
0.00037980773
3.4601854e-05
0.00034433744
3.5470289e-05
0.00030808095
3.6256495e-05
0.00027112194
3.6959006e-05
0.00023354542
3.7576524e-05
0.0001954375
3.8107918e-05
0.00015688528
3.855222e-05
0.00011797665
3.8908624e-05
7.8800165e-05
3.9176489e-05
3.9444833e-05
3.9355332e-05
3.9444834e-05
-3.9523302e-05
7.8968135e-05
-7.8956953e-05
7.8788983e-05
-0.00011821146
7.8431e-05
-0.00015719767
7.7894826e-05
-0.00019582687
7.7181423e-05
-0.00023401103
7.6292076e-05
-0.0002716629
7.5228394e-05
-0.0003086962
7.3992313e-05
-0.00034502581
7.2586097e-05
-0.00038056786
7.1012341e-05
-0.00041523998
6.9273974e-05
-0.00044896142
6.7374259e-05
-0.00048165323
6.5316796e-05
-0.00051323843
6.3105526e-05
-0.00054364218
6.0744726e-05
-0.00057279195
5.8239016e-05
-0.0006006177
5.5593354e-05
-0.00062705202
5.2813036e-05
-0.00065203033
4.9903696e-05
-0.00067549103
4.68713e-05
-0.00069737568
4.3722139e-05
-0.00071762913
4.0462831e-05
-0.00073619971
3.7100306e-05
-0.00075303937
3.3641803e-05
-0.00076810383
3.0094855e-05
-0.00078135272
2.6467283e-05
-0.00079274973
2.2767181e-05
-0.00080226272
1.90029e-05
-0.00080986385
1.5183035e-05
-0.0008155297
1.1316402e-05
-0.00081924137
7.4120199e-06
-0.00082098459
3.4791292e-06
-0.00082074972
-4.7284623e-07
-0.00081853199
-4.4344389e-06
-0.00081433138
-8.3959834e-06
-0.00080815281
-1.2347725e-05
-0.00080000607
-1.6279836e-05
-0.00078990591
-2.0182445e-05
-0.00077787204
-2.4045663e-05
-0.0007639291
-2.7859607e-05
-0.00074810668
-3.1614433e-05
-0.00073043924
-3.5300363e-05
-0.0007109661
-3.8907716e-05
-0.00068973136
-4.2426936e-05
-0.00066678383
-4.5848626e-05
-0.00064217694
-4.9163576e-05
-0.00061596859
-5.2362796e-05
-0.00058822109
-5.5437543e-05
-0.00055900096
-5.837936e-05
-0.00052837883
-6.1180095e-05
-0.00049642921
-6.383194e-05
-0.00046323035
-6.6327456e-05
-0.00042886404
-6.8659601e-05
-0.00039341535
-7.0821761e-05
-0.00035697246
-7.2807769e-05
-0.0003196264
-7.4611938e-05
-0.0002814708
-7.6229078e-05
-0.0002426016
-7.7654518e-05
-0.00020311686
-7.8884129e-05
-0.00016311638
-7.9914336e-05
-0.00012270149
-8.0742139e-05
-8.197473e-05
-8.1365119e-05
-4.1039547e-05
-8.1781455e-05
2.3437102e-13
-8.1989929e-05
4.1039548e-05
-8.1989929e-05
8.197473e-05
-8.1781455e-05
0.00012270149
-8.1365119e-05
0.00016311638
-8.0742139e-05
0.00020311686
-7.9914336e-05
0.0002426016
-7.8884129e-05
0.0002814708
-7.7654518e-05
0.0003196264
-7.6229078e-05
0.00035697246
-7.4611938e-05
0.00039341535
-7.2807769e-05
0.00042886404
-7.0821761e-05
0.00046323035
-6.8659601e-05
0.00049642921
-6.6327456e-05
0.00052837883
-6.383194e-05
0.00055900096
-6.1180095e-05
0.00058822109
-5.837936e-05
0.00061596859
-5.5437543e-05
0.00064217694
-5.2362795e-05
0.00066678383
-4.9163576e-05
0.00068973136
-4.5848626e-05
0.0007109661
-4.2426936e-05
0.00073043924
-3.8907716e-05
0.00074810668
-3.5300363e-05
0.0007639291
-3.1614433e-05
0.00077787204
-2.7859607e-05
0.00078990591
-2.4045663e-05
0.00080000607
-2.0182445e-05
0.00080815281
-1.6279836e-05
0.00081433138
-1.2347725e-05
0.00081853199
-8.3959833e-06
0.00082074972
-4.4344389e-06
0.00082098459
-4.7284618e-07
0.00081924137
3.4791293e-06
0.0008155297
7.4120199e-06
0.00080986385
1.1316402e-05
0.00080226272
1.5183035e-05
0.00079274973
1.90029e-05
0.00078135272
2.2767181e-05
0.00076810383
2.6467283e-05
0.00075303937
3.0094855e-05
0.00073619971
3.3641803e-05
0.00071762913
3.7100306e-05
0.00069737568
4.0462831e-05
0.00067549103
4.3722139e-05
0.00065203033
4.68713e-05
0.00062705202
4.9903697e-05
0.0006006177
5.2813036e-05
0.00057279195
5.5593354e-05
0.00054364218
5.8239016e-05
0.00051323843
6.0744726e-05
0.00048165323
6.3105526e-05
0.00044896142
6.5316796e-05
0.00041523998
6.7374259e-05
0.00038056786
6.9273974e-05
0.00034502581
7.1012341e-05
0.0003086962
7.2586097e-05
0.0002716629
7.3992313e-05
0.00023401103
7.5228394e-05
0.00019582687
7.6292076e-05
0.00015719767
7.7181423e-05
0.00011821146
7.7894826e-05
7.8956953e-05
7.8431e-05
3.9523301e-05
7.8788983e-05
7.8968135e-05
-3.9636785e-05
0.00011860492
-7.91837e-05
0.0001183359
-0.00011855104
0.00011779834
-0.00015764941
0.0001169932
-0.0001963899
0.00011592192
-0.00023468425
0.00011458643
-0.000272445
0.00011298914
-0.00030958564
0.00011113296
-0.00034602082
0.00010902128
-0.00038166647
0.00010665799
-0.00041643999
0.00010404749
-0.0004502604
0.00010119467
-0.00048304854
9.810494e-05
-0.00051472722
9.4784201e-05
-0.00054522137
9.1238877e-05
-0.00057445825
8.7475899e-05
-0.00060236761
8.3502709e-05
-0.00062888183
7.9327255e-05
-0.00065393612
7.4957992e-05
-0.0006774687
7.0403876e-05
-0.00069942091
6.5674353e-05
-0.00071973744
6.0779355e-05
-0.00073836642
5.5729289e-05
-0.00075525964
5.0535023e-05
-0.00077037265
4.5207868e-05
-0.00078366494
3.9759569e-05
-0.00079510004
3.4202279e-05
-0.00080464568
2.8548539e-05
-0.0008122739
2.2811257e-05
-0.00081796118
1.7003679e-05
-0.00082168852
1.1139362e-05
-0.00082344155
5.2321644e-06
-0.0008232106
-7.0380227e-07
-0.00082099079
-6.6542454e-06
-0.00081678211
-1.2604668e-05
-0.00081058941
-1.8540421e-05
-0.0008024225
-2.4446745e-05
-0.00079229614
-3.0308811e-05
-0.00078023004
-3.6111761e-05
-0.00076624889
-4.1840752e-05
-0.00075038233
-4.7480994e-05
-0.0007326649
-5.3017796e-05
-0.000713136
-5.8436615e-05
-0.00069183984
-6.3723093e-05
-0.00066882536
-6.886311e-05
-0.00064414611
-7.384283e-05
-0.00061786016
-7.8648742e-05
-0.00059002999
-8.3267712e-05
-0.00056072233
-8.7687025e-05
-0.00053000798
-9.1894436e-05
-0.00049796172
-9.5878209e-05
-0.00046466201
-9.9627162e-05
-0.0004301909
-0.00010313071
-0.00039463374
-0.00010637892
-0.00035807899
-0.00010936252
-0.00032061798
-0.00011207295
-0.00028234464
-0.00011450242
-0.00024335526
-0.0001166439
-0.00020374819
-0.00011849119
-0.00016362361
-0.00012003892
-0.00012308318
-0.00012128257
-8.2229794e-05
-0.0001222185
-4.1167261e-05
-0.00012284399
2.3475993e-13
-0.00012315719
4.1167262e-05
-0.00012315719
8.2229795e-05
-0.00012284399
0.00012308318
-0.0001222185
0.00016362361
-0.00012128257
0.00020374819
-0.00012003892
0.00024335526
-0.00011849119
0.00028234464
-0.0001166439
0.00032061798
-0.00011450242
0.00035807899
-0.00011207295
0.00039463374
-0.00010936252
0.0004301909
-0.00010637892
0.00046466201
-0.00010313071
0.00049796172
-9.9627162e-05
0.00053000799
-9.5878209e-05
0.00056072233
-9.1894436e-05
0.00059002999
-8.7687025e-05
0.00061786016
-8.3267712e-05
0.00064414611
-7.8648742e-05
0.00066882536
-7.384283e-05
0.00069183985
-6.886311e-05
0.000713136
-6.3723093e-05
0.0007326649
-5.8436615e-05
0.00075038233
-5.3017796e-05
0.00076624889
-4.7480994e-05
0.00078023004
-4.1840752e-05
0.00079229614
-3.6111761e-05
0.0008024225
-3.030881e-05
0.00081058941
-2.4446745e-05
0.00081678211
-1.8540421e-05
0.00082099079
-1.2604668e-05
0.0008232106
-6.6542453e-06
0.00082344155
-7.0380219e-07
0.00082168852
5.2321644e-06
0.00081796118
1.1139362e-05
0.0008122739
1.7003679e-05
0.00080464568
2.2811257e-05
0.00079510004
2.854854e-05
0.00078366494
3.4202279e-05
0.00077037265
3.975957e-05
0.00075525964
4.5207868e-05
0.00073836642
5.0535023e-05
0.00071973744
5.5729289e-05
0.00069942091
6.0779355e-05
0.0006774687
6.5674353e-05
0.00065393612
7.0403876e-05
0.00062888183
7.4957993e-05
0.00060236761
7.9327255e-05
0.00057445825
8.3502709e-05
0.00054522137
8.7475899e-05
0.00051472722
9.1238877e-05
0.00048304854
9.4784201e-05
0.0004502604
9.810494e-05
0.00041643999
0.00010119467
0.00038166647
0.00010404749
0.00034602082
0.00010665799
0.00030958564
0.00010902128
0.000272445
0.00011113296
0.00023468425
0.00011298914
0.0001963899
0.00011458643
0.00015764941
0.00011592192
0.00011855104
0.0001169932
7.91837e-05
0.00011779834
3.9636784e-05
0.0001183359
0.00011860492
-3.978632e-05
0.00015839124
-7.9482479e-05
0.00015803206
-0.00011899848
0.00015731433
-0.00015824463
0.00015623935
-0.00019713174
0.00015480902
-0.00023557124
0.00015302593
-0.00027347538
0.00015089328
-0.00031075738
0.00014841495
-0.00034733156
0.00014559546
-0.00038311359
0.00014244001
-0.00041802055
0.00013895445
-0.00045197119
0.00013514531
-0.00048488605
0.0001310198
-0.00051668765
0.0001265858
-0.00054730063
0.00012185186
-0.00057665199
0.00011682725
-0.00060467117
0.00011152189
-0.00063129029
0.00010594638
-0.00065644431
0.00010011201
-0.00068007116
9.4030727e-05
-0.00070211195
8.7715142e-05
-0.0007225111
8.1178513e-05
-0.00074121654
7.4434729e-05
-0.00075817982
6.7498299e-05
-0.00077335628
6.0384328e-05
-0.0007867052
5.3108492e-05
-0.00079818994
4.5687019e-05
-0.00080777806
3.8136657e-05
-0.00081544144
3.047464e-05
-0.00082115642
2.2718659e-05
-0.00082490389
1.4886824e-05
-0.00082666935
6.9976315e-06
-0.00082644307
-9.3008769e-07
-0.00082422009
-8.8772233e-06
-0.00082000034
-1.6824413e-05
-0.00081378867
-2.4752095e-05
-0.00080559486
-3.2640555e-05
-0.00079543368
-4.0469991e-05
-0.00078332489
-4.8220555e-05
-0.00076929322
-5.587242e-05
-0.00075336838
-6.340583e-05
-0.00073558502
-7.0801161e-05
-0.00071598265
-7.8038982e-05
-0.00069460563
-8.5100115e-05
-0.00067150304
-9.1965695e-05
-0.00064672864
-9.8617234e-05
-0.0006203407
-0.00010503668
-0.00059240193
-0.00011120648
-0.0005629793
-0.00011710966
-0.0005321439
-0.00012272983
-0.00049997078
-0.00012805133
-0.00046653874
-0.0001330592
-0.00043193015
-0.0001377393
-0.00039623072
-0.00014207835
-0.00035952929
-0.00014606395
-0.00032191756
-0.00014968468
-0.00028348987
-0.0001529301
-0.00024434294
-0.00015579084
-0.00020457555
-0.00015825858
-0.00016428832
-0.00016032615
-0.00012358336
-0.00016198752
-8.2564038e-05
-0.00016323783
-4.133462e-05
-0.00016407341
2.3525681e-13
-0.00016449181
4.133462e-05
-0.00016449181
8.2564039e-05
-0.00016407341
0.00012358336
-0.00016323783
0.00016428832
-0.00016198752
0.00020457555
-0.00016032615
0.00024434294
-0.00015825858
0.00028348987
-0.00015579084
0.00032191756
-0.0001529301
0.00035952929
-0.00014968468
0.00039623072
-0.00014606395
0.00043193015
-0.00014207835
0.00046653874
-0.0001377393
0.00049997078
-0.0001330592
0.0005321439
-0.00012805133
0.0005629793
-0.00012272983
0.00059240193
-0.00011710966
0.0006203407
-0.00011120648
0.00064672864
-0.00010503668
0.00067150304
-9.8617234e-05
0.00069460563
-9.1965695e-05
0.00071598265
-8.5100115e-05
0.00073558502
-7.8038982e-05
0.00075336838
-7.0801161e-05
0.00076929322
-6.3405829e-05
0.00078332489
-5.587242e-05
0.00079543368
-4.8220555e-05
0.00080559486
-4.0469991e-05
0.00081378867
-3.2640555e-05
0.00082000034
-2.4752095e-05
0.00082422009
-1.6824413e-05
0.00082644307
-8.8772232e-06
0.00082666935
-9.3008759e-07
0.00082490389
6.9976316e-06
0.00082115642
1.4886825e-05
0.00081544144
2.2718659e-05
0.00080777806
3.047464e-05
0.00079818994
3.8136657e-05
0.0007867052
4.5687019e-05
0.00077335628
5.3108492e-05
0.00075817982
6.0384328e-05
0.00074121654
6.74983e-05
0.0007225111
7.4434729e-05
0.00070211195
8.1178513e-05
0.00068007116
8.7715142e-05
0.00065644431
9.4030727e-05
0.00063129029
0.00010011201
0.00060467117
0.00010594638
0.00057665199
0.00011152189
0.00054730063
0.00011682725
0.00051668765
0.00012185186
0.00048488605
0.0001265858
0.00045197119
0.0001310198
0.00041802055
0.00013514531
0.00038311359
0.00013895445
0.00034733156
0.00014244001
0.00031075738
0.00014559546
0.00027347538
0.00014841495
0.00023557124
0.00015089328
0.00019713174
0.00015302593
0.00015824463
0.00015480902
0.00011899848
0.00015623935
7.9482479e-05
0.00015731433
3.978632e-05
0.00015803206
0.00015839124
-3.9972796e-05
0.00019836404
-7.9855064e-05
0.00019791433
-0.00011955644
0.00019701571
-0.00015898687
0.00019566978
-0.00019805678
0.00019387894
-0.00023667726
0.00019164641
-0.00027476017
0.00018897619
-0.00031221836
0.00018587314
-0.00034896581
0.00018234291
-0.00038491779
0.00017839199
-0.00041999104
0.0001740277
-0.00045410393
0.0001692582
-0.00048717663
0.00016409251
-0.00051913131
0.00015854047
-0.00054989226
0.00015261282
-0.00057938611
0.0001463211
-0.00060754196
0.00013967774
-0.00063429161
0.00013269602
-0.00065956965
0.00012539005
-0.00068331371
0.00011777479
-0.00070546458
0.00010986601
-0.00072596639
0.00010168032
-0.00074476676
9.32351e-05
-0.00076181698
8.4548512e-05
-0.00077707212
7.5639465e-05
-0.00079049122
6.6527592e-05
-0.00080203741
5.7233209e-05
-0.00081167804
4.7777288e-05
-0.00081938481
3.8181411e-05
-0.00082513388
2.8467735e-05
-0.000828906
1.8658938e-05
-0.00083068655
8.7781795e-06
-0.00083046567
-1.1509599e-06
-0.00082823836
-1.1104539e-05
-0.00082400447
-2.1058304e-05
-0.00081776881
-3.0987754e-05
-0.00080954116
-4.0868199e-05
-0.00079933632
-5.0674833e-05
-0.00078717408
-6.0382796e-05
-0.00077307925
-6.996725e-05
-0.00075708163
-7.9403446e-05
-0.00073921599
-8.8666802e-05
-0.000719522
-9.7732974e-05
-0.00069804418
-0.00010657793
-0.00067483184
-0.00011517804
-0.00064993894
-0.00012351014
-0.00062342402
-0.00013155159
-0.00059535008
-0.00013928043
-0.0005657844
-0.00014667534
-0.00053479841
-0.00015371582
-0.00050246752
-0.00016038222
-0.00046887093
-0.00016665579
-0.00043409142
-0.00017251882
-0.00039821513
-0.00017795464
-0.00036133136
-0.00018294772
-0.00032353231
-0.00018748373
-0.00028491281
-0.0001915496
-0.0002455701
-0.00019513355
-0.0002056035
-0.00019822518
-0.00016511417
-0.00020081549
-0.00012420479
-0.0002028969
-8.2979301e-05
-0.00020446332
-4.1542544e-05
-0.00020551016
2.3582368e-13
-0.00020603436
4.1542545e-05
-0.00020603436
8.2979301e-05
-0.00020551016
0.00012420479
-0.00020446332
0.00016511417
-0.0002028969
0.0002056035
-0.00020081549
0.0002455701
-0.00019822518
0.00028491281
-0.00019513355
0.00032353231
-0.0001915496
0.00036133136
-0.00018748373
0.00039821513
-0.00018294772
0.00043409142
-0.00017795464
0.00046887093
-0.00017251882
0.00050246752
-0.00016665579
0.00053479841
-0.00016038222
0.0005657844
-0.00015371582
0.00059535008
-0.00014667534
0.00062342402
-0.00013928043
0.00064993894
-0.00013155159
0.00067483184
-0.00012351014
0.00069804418
-0.00011517804
0.000719522
-0.00010657793
0.00073921599
-9.7732974e-05
0.00075708163
-8.8666802e-05
0.00077307925
-7.9403446e-05
0.00078717408
-6.9967249e-05
0.00079933632
-6.0382796e-05
0.00080954116
-5.0674832e-05
0.00081776881
-4.0868199e-05
0.00082400447
-3.0987754e-05
0.00082823836
-2.1058304e-05
0.00083046567
-1.1104539e-05
0.00083068655
-1.1509598e-06
0.000828906
8.7781796e-06
0.00082513388
1.8658938e-05
0.00081938481
2.8467735e-05
0.00081167804
3.8181411e-05
0.00080203741
4.7777288e-05
0.00079049122
5.7233209e-05
0.00077707211
6.6527592e-05
0.00076181698
7.5639466e-05
0.00074476676
8.4548512e-05
0.00072596639
9.3235101e-05
0.00070546458
0.00010168032
0.00068331371
0.00010986601
0.00065956965
0.00011777479
0.00063429161
0.00012539005
0.00060754196
0.00013269602
0.00057938611
0.00013967774
0.00054989226
0.0001463211
0.00051913131
0.00015261282
0.00048717663
0.00015854047
0.00045410392
0.00016409251
0.00041999104
0.0001692582
0.00038491779
0.0001740277
0.00034896581
0.00017839199
0.00031221836
0.00018234291
0.00027476017
0.00018587314
0.00023667726
0.00018897619
0.00019805678
0.00019164641
0.00015898687
0.00019387894
0.00011955644
0.00019566978
7.9855064e-05
0.00019701571
3.9972796e-05
0.00019791433
0.00019836404
-4.0196947e-05
0.00023856098
-8.0302924e-05
0.0002380203
-0.00012022712
0.0002369399
-0.00015987904
0.0002353217
-0.00019916868
0.00023316858
-0.00023800666
0.00023048439
-0.00027630442
0.00022727395
-0.00031397436
0.00022354308
-0.00035093
0.00021929856
-0.00038708618
0.00021454817
-0.0004223592
0.00020930072
-0.00045666698
0.00020356599
-0.00048992928
0.0001973548
-0.0005220678
0.000190679
-0.00055300642
0.00018355144
-0.00058267133
0.00017598601
-0.00061099124
0.00016799765
-0.00063789751
0.00015960229
-0.00066332436
0.0001508169
-0.00068720901
0.00014165944
-0.00070949188
0.00013214888
-0.00073011673
0.00012230518
-0.00074903085
0.00011214922
-0.00076618519
0.00010170285
-0.00078153451
9.0988787e-05
-0.00079503756
8.0030647e-05
-0.00080665721
6.8852856e-05
-0.00081636055
5.748063e-05
-0.00082411907
4.5939925e-05
-0.00082990872
3.4257384e-05
-0.00083371006
2.2460281e-05
-0.00083550835
1.0576467e-05
-0.00083529361
-1.3657003e-06
-0.00083306072
-1.3337423e-05
-0.0008288095
-2.5309529e-05
-0.00082254471
-3.7252546e-05
-0.00081427612
-4.913678e-05
-0.00080401857
-6.093239e-05
-0.00079179189
-7.2609475e-05
-0.00077762098
-8.4138154e-05
-0.00076153577
-9.5488656e-05
-0.00074357117
-0.00010663141
-0.00072376703
-0.00011753712
-0.00070216808
-0.00012817687
-0.00067882389
-0.00013852224
-0.00065378868
-0.00014854534
-0.00062712132
-0.00015821895
-0.00059888514
-0.00016751661
-0.00056914779
-0.00017641269
-0.00053798111
-0.0001848825
-0.00050546096
-0.00019290237
-0.00047166698
-0.00020044977
-0.00043668247
-0.00020750334
-0.00040059408
-0.00021404302
-0.00036349168
-0.00022005012
-0.00032546802
-0.00022550739
-0.00028661856
-0.00023039906
-0.00024704113
-0.00023471098
-0.00020683571
-0.0002384306
-0.00016610411
-0.00024154708
-0.00012494969
-0.00024405131
-8.3477069e-05
-0.00024593594
-4.1791779e-05
-0.00024719545
2.3634508e-13
-0.00024782613
4.179178e-05
-0.00024782613
8.347707e-05
-0.00024719545
0.0001249497
-0.00024593594
0.00016610411
-0.00024405131
0.00020683571
-0.00024154708
0.00024704113
-0.0002384306
0.00028661856
-0.00023471098
0.00032546802
-0.00023039906
0.00036349168
-0.00022550739
0.00040059408
-0.00022005012
0.00043668247
-0.00021404302
0.00047166698
-0.00020750334
0.00050546096
-0.00020044977
0.00053798111
-0.00019290237
0.00056914779
-0.00018488249
0.00059888514
-0.00017641269
0.00062712132
-0.00016751661
0.00065378868
-0.00015821895
0.00067882389
-0.00014854534
0.00070216809
-0.00013852224
0.00072376703
-0.00012817687
0.00074357117
-0.00011753712
0.00076153577
-0.00010663141
0.00077762098
-9.5488656e-05
0.00079179189
-8.4138154e-05
0.00080401857
-7.2609475e-05
0.00081427613
-6.093239e-05
0.00082254471
-4.913678e-05
0.0008288095
-3.7252546e-05
0.00083306072
-2.5309528e-05
0.00083529361
-1.3337423e-05
0.00083550835
-1.3657001e-06
0.00083371006
1.0576467e-05
0.00082990872
2.2460281e-05
0.00082411907
3.4257384e-05
0.00081636055
4.5939925e-05
0.00080665721
5.7480631e-05
0.00079503756
6.8852856e-05
0.00078153451
8.0030647e-05
0.00076618519
9.0988787e-05
0.00074903085
0.00010170285
0.00073011673
0.00011214922
0.00070949188
0.00012230518
0.00068720901
0.00013214888
0.00066332436
0.00014165944
0.00063789751
0.0001508169
0.00061099124
0.00015960229
0.00058267133
0.00016799765
0.00055300642
0.00017598601
0.0005220678
0.00018355144
0.00048992928
0.000190679
0.00045666698
0.0001973548
0.0004223592
0.00020356599
0.00038708618
0.00020930072
0.00035093
0.00021454817
0.00031397436
0.00021929856
0.00027630442
0.00022354308
0.00023800666
0.00022727395
0.00019916868
0.00023048439
0.00015987904
0.00023316858
0.00012022712
0.0002353217
8.0302923e-05
0.0002369399
4.0196947e-05
0.0002380203
0.00023856098
-4.045937e-05
0.00027902035
-8.0827249e-05
0.00027838818
-0.00012101231
0.00027712496
-0.00016092353
0.00027523292
-0.00020047039
0.00027271544
-0.00023956299
0.00026957699
-0.00027811224
0.00026582321
-0.00031603003
0.00026146086
-0.00035322935
0.00025649788
-0.00038962453
0.00025094335
-0.00042513134
0.00024480752
-0.00045966719
0.00023810184
-0.00049315131
0.00023083892
-0.00052550492
0.0002230326
-0.00055665137
0.00021469789
-0.00058651638
0.00020585102
-0.00061502814
0.00019650941
-0.00064211755
0.0001866917
-0.00066771835
0.0001764177
-0.00069176731
0.00016570841
-0.00071420442
0.000154586
-0.00073497302
0.00014307377
-0.00075401998
0.00013119618
-0.00077129586
0.00011897873
-0.00078675508
0.00010644801
-0.00080035605
9.3631616e-05
-0.00081206131
8.0558117e-05
-0.00082183768
6.7257e-05
-0.00082965638
5.3758621e-05
-0.00083549314
4.009414e-05
-0.00083932831
2.6295458e-05
-0.00084114699
1.2395146e-05
-0.00084093907
-1.5736266e-06
-0.00083869931
-1.5577173e-05
-0.00083442747
-2.9581371e-05
-0.00082812827
-4.3551745e-05
-0.0008198115
-5.7453557e-05
-0.00080949199
-7.12519e-05
-0.00079718967
-8.4911794e-05
-0.00078292954
-9.8398282e-05
-0.00076674167
-0.00011167653
-0.00074866113
-0.00012471194
-0.00072872801
-0.00013747024
-0.00070698728
-0.0001499176
-0.00068348879
-0.00016202073
-0.0006582871
-0.00017374703
-0.00063144144
-0.00018506462
-0.00060301553
-0.00019594252
-0.00057307747
-0.00020635075
-0.00054169956
-0.0002162604
-0.00050895818
-0.00022564376
-0.00047493352
-0.00023447443
-0.00043970943
-0.00024272742
-0.00040337321
-0.00025037924
-0.00036601534
-0.00025740799
-0.00032772927
-0.00026379346
-0.00028861113
-0.0002695172
-0.00024875949
-0.00027456261
-0.00020827508
-0.00027891501
-0.00016726048
-0.00028256169
-0.00012581982
-0.00028549197
-8.4058512e-05
-0.00028769725
-4.208291e-05
-0.00028917106
2.36805e-13
-0.00028990904
4.208291e-05
-0.00028990904
8.4058513e-05
-0.00028917106
0.00012581982
-0.00028769725
0.00016726048
-0.00028549197
0.00020827508
-0.00028256169
0.00024875949
-0.00027891501
0.00028861113
-0.00027456261
0.00032772927
-0.0002695172
0.00036601534
-0.00026379346
0.00040337321
-0.00025740799
0.00043970943
-0.00025037924
0.00047493352
-0.00024272742
0.00050895818
-0.00023447443
0.00054169957
-0.00022564376
0.00057307747
-0.0002162604
0.00060301553
-0.00020635075
0.00063144144
-0.00019594252
0.0006582871
-0.00018506462
0.00068348879
-0.00017374703
0.00070698728
-0.00016202073
0.00072872801
-0.0001499176
0.00074866113
-0.00013747024
0.00076674167
-0.00012471194
0.00078292954
-0.00011167653
0.00079718967
-9.8398282e-05
0.00080949199
-8.4911794e-05
0.0008198115
-7.12519e-05
0.00082812827
-5.7453557e-05
0.00083442747
-4.3551744e-05
0.00083869931
-2.9581371e-05
0.00084093907
-1.5577173e-05
0.00084114699
-1.5736265e-06
0.00083932831
1.2395146e-05
0.00083549314
2.6295458e-05
0.00082965638
4.0094141e-05
0.00082183768
5.3758622e-05
0.00081206131
6.7257e-05
0.00080035605
8.0558117e-05
0.00078675508
9.3631616e-05
0.00077129586
0.00010644801
0.00075401998
0.00011897873
0.00073497302
0.00013119618
0.00071420442
0.00014307377
0.00069176731
0.000154586
0.00066771835
0.00016570841
0.00064211755
0.0001764177
0.00061502814
0.0001866917
0.00058651638
0.00019650941
0.00055665137
0.00020585102
0.00052550492
0.00021469789
0.00049315131
0.0002230326
0.00045966719
0.00023083893
0.00042513134
0.00023810184
0.00038962453
0.00024480752
0.00035322935
0.00025094335
0.00031603002
0.00025649788
0.00027811224
0.00026146086
0.00023956299
0.00026582321
0.00020047039
0.00026957699
0.00016092353
0.00027271544
0.00012101231
0.00027523292
8.0827249e-05
0.00027712496
4.0459369e-05
0.00027838818
0.00027902035
-4.0760555e-05
0.00031978091
-8.1429022e-05
0.00031905665
-0.00012191347
0.00031760941
-0.00016212229
0.00031544174
-0.00020196435
0.00031255749
-0.00024134915
0.00030896179
-0.00028018702
0.00030466107
-0.00031838922
0.00029966307
-0.00035586817
0.00029397683
-0.00039253758
0.00028761276
-0.00042831263
0.00028058257
-0.00046311015
0.00027289935
-0.00049684876
0.00026457754
-0.00052944909
0.00025563293
-0.00056083393
0.00024608273
-0.00059092841
0.0002359455
-0.00061966018
0.00022524118
-0.00064695956
0.00021399108
-0.00067275978
0.00020221791
-0.00069699708
0.00018994571
-0.00071961093
0.00017719985
-0.0007405442
0.00016400705
-0.0007597433
0.00015039527
-0.00077715835
0.00013639378
-0.00079274335
0.00012203301
-0.00080645633
0.00010734459
-0.00081825947
9.2361256e-05
-0.00082811927
7.7116795e-05
-0.00083600664
6.1645995e-05
-0.00084189707
4.5984567e-05
-0.00084577068
3.0169073e-05
-0.00084761238
1.4236842e-05
-0.0008474119
-1.774107e-06
-0.00084516391
-1.7825164e-05
-0.00084086806
-3.3877216e-05
-0.00083452906
-4.9890744e-05
-0.00082615669
-6.5825932e-05
-0.00081576582
-8.1642763e-05
-0.00080337648
-9.7301139e-05
-0.00078901378
-0.00011276098
-0.00077270794
-0.00012798237
-0.00075449427
-0.00014292561
-0.00073441307
-0.00015755143
-0.00071250964
-0.00017182103
-0.00068883412
-0.00018569625
-0.00066344147
-0.00019913967
-0.00063639133
-0.00021211476
-0.00060774787
-0.00022458598
-0.0005775797
-0.00023651892
-0.00054595968
-0.00024788042
-0.00051296473
-0.0002586387
-0.0004786757
-0.00026876347
-0.00044317708
-0.00027822604
-0.00040655688
-0.00028699945
-0.00036890631
-0.00029505856
-0.00033031959
-0.00030238019
-0.00029089364
-0.00030894314
-0.00025072788
-0.00031472838
-0.00020992387
-0.00031971902
-0.00016858508
-0.00032390049
-0.00012681653
-0.00032726052
-8.4724538e-05
-0.00032978924
-4.241639e-05
-0.0003314792
2.3727884e-13
-0.00033232543
4.241639e-05
-0.00033232543
8.4724539e-05
-0.0003314792
0.00012681653
-0.00032978924
0.00016858508
-0.00032726052
0.00020992387
-0.00032390049
0.00025072788
-0.00031971902
0.00029089364
-0.00031472838
0.00033031959
-0.00030894314
0.00036890631
-0.00030238019
0.00040655688
-0.00029505856
0.00044317708
-0.00028699945
0.0004786757
-0.00027822604
0.00051296473
-0.00026876347
0.00054595968
-0.0002586387
0.0005775797
-0.00024788042
0.00060774787
-0.00023651892
0.00063639133
-0.00022458598
0.00066344147
-0.00021211476
0.00068883412
-0.00019913967
0.00071250964
-0.00018569625
0.00073441307
-0.00017182103
0.00075449427
-0.00015755143
0.00077270794
-0.00014292561
0.00078901378
-0.00012798237
0.00080337648
-0.00011276098
0.00081576582
-9.7301139e-05
0.00082615669
-8.1642763e-05
0.00083452906
-6.5825931e-05
0.00084086806
-4.9890744e-05
0.00084516391
-3.3877215e-05
0.0008474119
-1.7825164e-05
0.00084761238
-1.7741068e-06
0.00084577068
1.4236843e-05
0.00084189707
3.0169073e-05
0.00083600664
4.5984567e-05
0.00082811926
6.1645995e-05
0.00081825947
7.7116795e-05
0.00080645633
9.2361256e-05
0.00079274335
0.00010734459
0.00077715835
0.00012203301
0.0007597433
0.00013639378
0.0007405442
0.00015039527
0.00071961093
0.00016400705
0.00069699708
0.00017719985
0.00067275978
0.00018994571
0.00064695956
0.00020221791
0.00061966018
0.00021399108
0.00059092841
0.00022524118
0.00056083393
0.0002359455
0.00052944909
0.00024608273
0.00049684876
0.00025563293
0.00046311015
0.00026457754
0.00042831263
0.00027289935
0.00039253758
0.00028058258
0.00035586817
0.00028761276