/*--------------------------------*- C++ -*----------------------------------*\
| =========                 |                                                 |
| \\      /  F ield         | OpenFOAM: The Open Source CFD Toolbox           |
|  \\    /   O peration     | Version:  2106                                  |
|   \\  /    A nd           | Website:  www.openfoam.com                      |
|    \\/     M anipulation  |                                                 |
\*---------------------------------------------------------------------------*/
FoamFile
{
    version     2.0;
    format      ascii;
    arch        "LSB;label=32;scalar=64";
    class       volVectorField;
    location    "0.025";
    object      U;
}
// * * * * * * * * * * * * * * * * * * * * * * * * * * * * * * * * * * * * * //

dimensions      [0 1 -1 0 0 0 0];

internalField   nonuniform List<vector> 
16384
(
(-0.0025258914 0.0025237551 0)
(-0.0075719436 0.0025180284 0)
(-0.012600814 0.0025065852 0)
(-0.017601083 0.002489446 0)
(-0.02256138 0.0024666416 0)
(-0.027470409 0.0024382131 0)
(-0.032316966 0.0024042121 0)
(-0.037089959 0.0023647005 0)
(-0.041778432 0.0023197508 0)
(-0.046371583 0.002269446 0)
(-0.050858788 0.0022138798 0)
(-0.05522962 0.0021531568 0)
(-0.059473873 0.002087392 0)
(-0.063581582 0.0020167115 0)
(-0.067543043 0.0019412523 0)
(-0.071348839 0.001861162 0)
(-0.074989858 0.0017765992 0)
(-0.078457316 0.0016877335 0)
(-0.081742781 0.0015947448 0)
(-0.084838189 0.0014978241 0)
(-0.087735869 0.0013971724 0)
(-0.090428564 0.0012930015 0)
(-0.092909449 0.0011855328 0)
(-0.095172154 0.0010749978 0)
(-0.09721078 0.00096163739 0)
(-0.099019919 0.00084570151 0)
(-0.10059467 0.00072744889 0)
(-0.10193067 0.00060714651 0)
(-0.10302408 0.00048506907 0)
(-0.10387163 0.00036149799 0)
(-0.10447062 0.00023671873 0)
(-0.10481892 0.00011103037 0)
(-0.10491501 -1.5251608e-05 0)
(-0.10475799 -0.00014185695 0)
(-0.10434754 -0.0002684551 0)
(-0.10368398 -0.00039473813 0)
(-0.10276824 -0.00052039243 0)
(-0.10160191 -0.00064510266 0)
(-0.10018719 -0.00076855282 0)
(-0.098526908 -0.00089042719 0)
(-0.096624537 -0.0010104112 0)
(-0.094484171 -0.0011281926 0)
(-0.092110528 -0.0012434619 0)
(-0.089508941 -0.0013559139 0)
(-0.086685348 -0.0014652484 0)
(-0.083646284 -0.0015711712 0)
(-0.080398865 -0.0016733951 0)
(-0.076950774 -0.0017716409 0)
(-0.073310244 -0.0018656384 0)
(-0.069486041 -0.0019551273 0)
(-0.065487439 -0.0020398581 0)
(-0.061324201 -0.0021195933 0)
(-0.057006552 -0.0021941081 0)
(-0.052545156 -0.0022631911 0)
(-0.047951084 -0.0023266455 0)
(-0.043235785 -0.0023842896 0)
(-0.038411058 -0.0024359578 0)
(-0.033489017 -0.0024815009 0)
(-0.028482056 -0.002520787 0)
(-0.023402817 -0.002553702 0)
(-0.018264151 -0.0025801502 0)
(-0.013079083 -0.0026000542 0)
(-0.0078607738 -0.002613356 0)
(-0.0026224805 -0.0026200167 0)
(0.0026224806 -0.0026200167 0)
(0.0078607738 -0.002613356 0)
(0.013079083 -0.0026000542 0)
(0.018264151 -0.0025801502 0)
(0.023402817 -0.002553702 0)
(0.028482056 -0.002520787 0)
(0.033489017 -0.0024815009 0)
(0.038411058 -0.0024359578 0)
(0.043235785 -0.0023842896 0)
(0.047951084 -0.0023266455 0)
(0.052545156 -0.0022631911 0)
(0.057006552 -0.0021941081 0)
(0.061324201 -0.0021195933 0)
(0.065487439 -0.0020398581 0)
(0.069486041 -0.0019551273 0)
(0.073310244 -0.0018656384 0)
(0.076950774 -0.0017716409 0)
(0.080398865 -0.0016733951 0)
(0.083646284 -0.0015711712 0)
(0.086685348 -0.0014652484 0)
(0.089508941 -0.0013559139 0)
(0.092110528 -0.0012434619 0)
(0.094484171 -0.0011281926 0)
(0.096624537 -0.0010104112 0)
(0.098526908 -0.00089042719 0)
(0.10018719 -0.00076855282 0)
(0.10160191 -0.00064510266 0)
(0.10276824 -0.00052039243 0)
(0.10368398 -0.00039473813 0)
(0.10434754 -0.0002684551 0)
(0.10475799 -0.00014185695 0)
(0.10491501 -1.5251607e-05 0)
(0.10481892 0.00011103037 0)
(0.10447062 0.00023671873 0)
(0.10387163 0.00036149799 0)
(0.10302408 0.00048506908 0)
(0.10193067 0.00060714651 0)
(0.10059467 0.00072744889 0)
(0.099019919 0.00084570151 0)
(0.097210779 0.0009616374 0)
(0.095172154 0.0010749978 0)
(0.092909449 0.0011855328 0)
(0.090428564 0.0012930015 0)
(0.087735869 0.0013971724 0)
(0.084838189 0.0014978241 0)
(0.081742781 0.0015947448 0)
(0.078457316 0.0016877335 0)
(0.074989858 0.0017765992 0)
(0.071348839 0.001861162 0)
(0.067543043 0.0019412523 0)
(0.063581582 0.0020167115 0)
(0.059473873 0.002087392 0)
(0.05522962 0.0021531568 0)
(0.050858788 0.0022138798 0)
(0.046371583 0.002269446 0)
(0.041778432 0.0023197508 0)
(0.037089959 0.0023647005 0)
(0.032316966 0.0024042121 0)
(0.027470409 0.0024382131 0)
(0.02256138 0.0024666416 0)
(0.017601083 0.002489446 0)
(0.012600814 0.0025065852 0)
(0.0075719435 0.0025180284 0)
(0.0025258914 0.0025237551 0)
(-0.0025309166 0.007575333 0)
(-0.0075870097 0.0075581451 0)
(-0.012625893 0.0075238001 0)
(-0.017636126 0.0074723594 0)
(-0.022606322 0.0074039155 0)
(-0.027525164 0.0073185917 0)
(-0.032381429 0.0072165425 0)
(-0.037164005 0.0070979537 0)
(-0.041861919 0.0069630429 0)
(-0.046464348 0.006812059 0)
(-0.050960649 0.0066452832 0)
(-0.055340377 0.0064630289 0)
(-0.059593304 0.0062656416 0)
(-0.063709448 0.0060534995 0)
(-0.067679085 0.0058270133 0)
(-0.071492778 0.0055866262 0)
(-0.075141398 0.0053328143 0)
(-0.078616142 0.0050660857 0)
(-0.081908558 0.0047869812 0)
(-0.085010565 0.004496073 0)
(-0.087914475 0.0041939653 0)
(-0.090613013 0.0038812926 0)
(-0.093099338 0.0035587203 0)
(-0.095367063 0.0032269426 0)
(-0.097410274 0.0028866825 0)
(-0.09922355 0.0025386903 0)
(-0.10080198 0.0021837424 0)
(-0.10214117 0.0018226403 0)
(-0.10323729 0.0014562083 0)
(-0.10408706 0.0010852922 0)
(-0.10468775 0.00071075608 0)
(-0.10503724 0.00033348708 0)
(-0.10513401 -4.5608618e-05 0)
(-0.10497712 -0.00042562386 0)
(-0.10456627 -0.00080563328 0)
(-0.10390177 -0.0011847004 0)
(-0.10298456 -0.0015618824 0)
(-0.10181621 -0.0019362322 0)
(-0.10039893 -0.0023068013 0)
(-0.098735552 -0.0026726419 0)
(-0.096829551 -0.0030328097 0)
(-0.094685027 -0.0033863669 0)
(-0.092306704 -0.003732385 0)
(-0.089699923 -0.0040699475 0)
(-0.086870632 -0.0043981531 0)
(-0.083825379 -0.0047161186 0)
(-0.080571291 -0.0050229817 0)
(-0.077116068 -0.0053179042 0)
(-0.073467958 -0.0056000748 0)
(-0.069635744 -0.005868712 0)
(-0.065628722 -0.0061230669 0)
(-0.061456673 -0.0063624262 0)
(-0.057129847 -0.0065861148 0)
(-0.05265893 -0.0067934982 0)
(-0.048055017 -0.0069839854 0)
(-0.043329586 -0.007157031 0)
(-0.038494463 -0.0073121372 0)
(-0.033561788 -0.0074488564 0)
(-0.028543987 -0.0075667926 0)
(-0.023453731 -0.007665603 0)
(-0.018303903 -0.0077450001 0)
(-0.013107559 -0.0078047519 0)
(-0.0078778922 -0.0078446839 0)
(-0.0026281921 -0.0078646792 0)
(0.0026281922 -0.0078646792 0)
(0.0078778922 -0.0078446839 0)
(0.013107559 -0.0078047519 0)
(0.018303903 -0.0077450001 0)
(0.023453731 -0.007665603 0)
(0.028543987 -0.0075667926 0)
(0.033561788 -0.0074488564 0)
(0.038494463 -0.0073121372 0)
(0.043329586 -0.007157031 0)
(0.048055017 -0.0069839854 0)
(0.05265893 -0.0067934982 0)
(0.057129847 -0.0065861148 0)
(0.061456673 -0.0063624262 0)
(0.065628722 -0.0061230669 0)
(0.069635744 -0.005868712 0)
(0.073467958 -0.0056000748 0)
(0.077116068 -0.0053179042 0)
(0.080571291 -0.0050229817 0)
(0.083825379 -0.0047161186 0)
(0.086870632 -0.0043981531 0)
(0.089699923 -0.0040699475 0)
(0.092306704 -0.003732385 0)
(0.094685027 -0.0033863669 0)
(0.096829551 -0.0030328097 0)
(0.098735552 -0.0026726419 0)
(0.10039893 -0.0023068013 0)
(0.10181621 -0.0019362322 0)
(0.10298456 -0.0015618823 0)
(0.10390177 -0.0011847004 0)
(0.10456627 -0.00080563328 0)
(0.10497712 -0.00042562385 0)
(0.10513401 -4.5608613e-05 0)
(0.10503724 0.00033348708 0)
(0.10468775 0.00071075609 0)
(0.10408706 0.0010852922 0)
(0.10323729 0.0014562083 0)
(0.10214117 0.0018226403 0)
(0.10080198 0.0021837425 0)
(0.09922355 0.0025386903 0)
(0.097410274 0.0028866825 0)
(0.095367063 0.0032269426 0)
(0.093099338 0.0035587203 0)
(0.090613013 0.0038812927 0)
(0.087914475 0.0041939653 0)
(0.085010565 0.004496073 0)
(0.081908558 0.0047869812 0)
(0.078616142 0.0050660857 0)
(0.075141398 0.0053328143 0)
(0.071492778 0.0055866262 0)
(0.067679084 0.0058270133 0)
(0.063709448 0.0060534995 0)
(0.059593304 0.0062656416 0)
(0.055340377 0.0064630289 0)
(0.050960649 0.0066452832 0)
(0.046464348 0.006812059 0)
(0.041861919 0.0069630429 0)
(0.037164005 0.0070979537 0)
(0.032381429 0.0072165425 0)
(0.027525164 0.0073185917 0)
(0.022606322 0.0074039155 0)
(0.017636126 0.0074723595 0)
(0.012625893 0.0075238001 0)
(0.0075870096 0.0075581451 0)
(0.0025309166 0.007575333 0)
(-0.002538183 0.012640451 0)
(-0.0076087948 0.012611776 0)
(-0.012662154 0.012554477 0)
(-0.017686794 0.012468658 0)
(-0.022671298 0.012354471 0)
(-0.027604322 0.012212122 0)
(-0.032474614 0.012041869 0)
(-0.037271036 0.011844022 0)
(-0.041982583 0.011618942 0)
(-0.046598406 0.011367046 0)
(-0.051107834 0.0110888 0)
(-0.055500392 0.010784728 0)
(-0.059765826 0.010455406 0)
(-0.063894124 0.010101464 0)
(-0.067875536 0.0097235873 0)
(-0.071700597 0.009322514 0)
(-0.075360149 0.008899038 0)
(-0.078845364 0.0084540069 0)
(-0.082147763 0.0079883223 0)
(-0.08525924 0.0075029387 0)
(-0.08817208 0.0069988634 0)
(-0.090878985 0.0064771553 0)
(-0.09337309 0.0059389236 0)
(-0.095647986 0.0053853267 0)
(-0.097697738 0.0048175707 0)
(-0.099516903 0.0042369072 0)
(-0.10110055 0.0036446316 0)
(-0.10244428 0.0030420806 0)
(-0.10354422 0.00243063 0)
(-0.10439709 0.0018116914 0)
(-0.10500016 0.0011867091 0)
(-0.10535129 0.0005571609 0)
(-0.10544894 -7.5447749e-05 0)
(-0.10529217 -0.00070959566 0)
(-0.10488067 -0.001343738 0)
(-0.10421475 -0.0019763131 0)
(-0.10329535 -0.0026057482 0)
(-0.10212403 -0.0032304629 0)
(-0.10070301 -0.0038488739 0)
(-0.09903512 -0.0044593995 0)
(-0.097123847 -0.0050604636 0)
(-0.094973296 -0.0056505009 0)
(-0.092588202 -0.0062279616 0)
(-0.089973918 -0.006791316 0)
(-0.087136407 -0.0073390595 0)
(-0.084082232 -0.0078697178 0)
(-0.080818542 -0.0083818515 0)
(-0.077353056 -0.0088740612 0)
(-0.073694047 -0.0093449924 0)
(-0.069850322 -0.0097933403 0)
(-0.065831205 -0.010217855 0)
(-0.061646509 -0.010617345 0)
(-0.057306513 -0.010990683 0)
(-0.052821938 -0.01133681 0)
(-0.048203915 -0.011654738 0)
(-0.043463958 -0.011943558 0)
(-0.038613933 -0.012202438 0)
(-0.033666021 -0.01243063 0)
(-0.028632688 -0.012627472 0)
(-0.023526651 -0.012792394 0)
(-0.018360834 -0.012924913 0)
(-0.01314834 -0.013024643 0)
(-0.0079024073 -0.013091293 0)
(-0.0026363716 -0.013124667 0)
(0.0026363716 -0.013124667 0)
(0.0079024074 -0.013091293 0)
(0.01314834 -0.013024643 0)
(0.018360834 -0.012924913 0)
(0.023526651 -0.012792394 0)
(0.028632688 -0.012627472 0)
(0.033666021 -0.01243063 0)
(0.038613933 -0.012202438 0)
(0.043463958 -0.011943558 0)
(0.048203915 -0.011654738 0)
(0.052821938 -0.01133681 0)
(0.057306513 -0.010990683 0)
(0.061646509 -0.010617345 0)
(0.065831206 -0.010217855 0)
(0.069850323 -0.0097933403 0)
(0.073694047 -0.0093449924 0)
(0.077353056 -0.0088740612 0)
(0.080818542 -0.0083818515 0)
(0.084082232 -0.0078697178 0)
(0.087136407 -0.0073390595 0)
(0.089973918 -0.0067913159 0)
(0.092588202 -0.0062279616 0)
(0.094973296 -0.0056505009 0)
(0.097123847 -0.0050604636 0)
(0.09903512 -0.0044593995 0)
(0.10070301 -0.0038488739 0)
(0.10212403 -0.0032304629 0)
(0.10329535 -0.0026057482 0)
(0.10421475 -0.0019763131 0)
(0.10488067 -0.001343738 0)
(0.10529217 -0.00070959566 0)
(0.10544894 -7.5447741e-05 0)
(0.10535129 0.00055716091 0)
(0.10500016 0.0011867091 0)
(0.10439709 0.0018116914 0)
(0.10354422 0.00243063 0)
(0.10244428 0.0030420806 0)
(0.10110055 0.0036446316 0)
(0.099516903 0.0042369072 0)
(0.097697738 0.0048175707 0)
(0.095647986 0.0053853267 0)
(0.09337309 0.0059389236 0)
(0.090878985 0.0064771553 0)
(0.08817208 0.0069988634 0)
(0.08525924 0.0075029387 0)
(0.082147763 0.0079883223 0)
(0.078845364 0.0084540069 0)
(0.075360149 0.008899038 0)
(0.071700597 0.009322514 0)
(0.067875536 0.0097235873 0)
(0.063894124 0.010101464 0)
(0.059765826 0.010455406 0)
(0.055500392 0.010784728 0)
(0.051107834 0.0110888 0)
(0.046598406 0.011367046 0)
(0.041982583 0.011618942 0)
(0.037271036 0.011844022 0)
(0.032474614 0.012041869 0)
(0.027604322 0.012212122 0)
(0.022671298 0.012354471 0)
(0.017686794 0.012468658 0)
(0.012662154 0.012554477 0)
(0.0076087947 0.012611776 0)
(0.0025381829 0.012640451 0)
(-0.0025477579 0.017722449 0)
(-0.0076375007 0.017682254 0)
(-0.012709935 0.017601937 0)
(-0.017753557 0.01748164 0)
(-0.022756912 0.017321578 0)
(-0.027708618 0.017122041 0)
(-0.032597386 0.016883387 0)
(-0.037412041 0.016606051 0)
(-0.04214154 0.01629054 0)
(-0.046774997 0.015937434 0)
(-0.051301702 0.01554739 0)
(-0.055711145 0.01512114 0)
(-0.059993033 0.014659488 0)
(-0.064137317 0.01416332 0)
(-0.06813421 0.013633592 0)
(-0.071974211 0.013071342 0)
(-0.075648127 0.012477679 0)
(-0.079147093 0.011853792 0)
(-0.082462597 0.011200944 0)
(-0.085586497 0.010520472 0)
(-0.088511047 0.0098137871 0)
(-0.091228917 0.009082374 0)
(-0.093733211 0.0083277869 0)
(-0.096017491 0.0075516495 0)
(-0.098075794 0.006755652 0)
(-0.09990265 0.0059415491 0)
(-0.1014931 0.0051111564 0)
(-0.10284273 0.0042663481 0)
(-0.10394765 0.0034090526 0)
(-0.10480455 0.0025412494 0)
(-0.10541068 0.0016649646 0)
(-0.1057639 0.00078226816 0)
(-0.10586264 -0.0001047322 0)
(-0.10570597 -0.00099389929 0)
(-0.10529356 -0.0018830669 0)
(-0.10462572 -0.002770046 0)
(-0.10370338 -0.0036526312 0)
(-0.10252811 -0.0045286068 0)
(-0.10110213 -0.0053957524 0)
(-0.099428273 -0.0062518497 0)
(-0.097510035 -0.0070946886 0)
(-0.095351532 -0.0079220738 0)
(-0.092957512 -0.0087318316 0)
(-0.090333345 -0.0095218166 0)
(-0.087485015 -0.010289918 0)
(-0.084419106 -0.011034069 0)
(-0.081142792 -0.01175225 0)
(-0.07766382 -0.012442497 0)
(-0.073990494 -0.01310291 0)
(-0.070131656 -0.01373166 0)
(-0.066096663 -0.014326992 0)
(-0.061895369 -0.014887234 0)
(-0.057538094 -0.015410806 0)
(-0.053035603 -0.01589622 0)
(-0.048399075 -0.016342092 0)
(-0.043640072 -0.016747143 0)
(-0.038770509 -0.017110208 0)
(-0.033802622 -0.017430236 0)
(-0.028748932 -0.0177063 0)
(-0.02362221 -0.017937597 0)
(-0.018435439 -0.018123451 0)
(-0.013201781 -0.01826332 0)
(-0.0079345324 -0.018356795 0)
(-0.0026470901 -0.018403601 0)
(0.0026470901 -0.018403601 0)
(0.0079345325 -0.018356795 0)
(0.013201781 -0.01826332 0)
(0.018435439 -0.018123451 0)
(0.02362221 -0.017937597 0)
(0.028748932 -0.0177063 0)
(0.033802622 -0.017430236 0)
(0.038770509 -0.017110208 0)
(0.043640072 -0.016747143 0)
(0.048399075 -0.016342092 0)
(0.053035603 -0.01589622 0)
(0.057538094 -0.015410806 0)
(0.061895369 -0.014887234 0)
(0.066096663 -0.014326992 0)
(0.070131656 -0.01373166 0)
(0.073990494 -0.01310291 0)
(0.07766382 -0.012442497 0)
(0.081142792 -0.01175225 0)
(0.084419106 -0.011034069 0)
(0.087485015 -0.010289918 0)
(0.090333345 -0.0095218166 0)
(0.092957512 -0.0087318316 0)
(0.095351532 -0.0079220738 0)
(0.097510035 -0.0070946886 0)
(0.099428274 -0.0062518497 0)
(0.10110213 -0.0053957524 0)
(0.10252811 -0.0045286068 0)
(0.10370338 -0.0036526312 0)
(0.10462572 -0.002770046 0)
(0.10529356 -0.0018830669 0)
(0.10570597 -0.00099389928 0)
(0.10586264 -0.00010473219 0)
(0.1057639 0.00078226817 0)
(0.10541068 0.0016649646 0)
(0.10480455 0.0025412494 0)
(0.10394765 0.0034090526 0)
(0.10284273 0.0042663481 0)
(0.1014931 0.0051111565 0)
(0.09990265 0.0059415491 0)
(0.098075794 0.006755652 0)
(0.096017491 0.0075516495 0)
(0.093733211 0.0083277869 0)
(0.091228917 0.009082374 0)
(0.088511047 0.0098137871 0)
(0.085586497 0.010520472 0)
(0.082462597 0.011200944 0)
(0.079147093 0.011853792 0)
(0.075648127 0.012477679 0)
(0.071974211 0.013071342 0)
(0.06813421 0.013633592 0)
(0.064137316 0.01416332 0)
(0.059993033 0.014659488 0)
(0.055711145 0.01512114 0)
(0.051301702 0.01554739 0)
(0.046774997 0.015937434 0)
(0.04214154 0.01629054 0)
(0.037412041 0.016606051 0)
(0.032597386 0.016883387 0)
(0.027708618 0.017122041 0)
(0.022756911 0.017321578 0)
(0.017753557 0.01748164 0)
(0.012709935 0.017601937 0)
(0.0076375007 0.017682254 0)
(0.0025477578 0.017722449 0)
(-0.0025596981 0.022825865 0)
(-0.007673298 0.022774109 0)
(-0.012769519 0.022670689 0)
(-0.01783681 0.022515788 0)
(-0.02286367 0.022309685 0)
(-0.02783867 0.022052748 0)
(-0.032750473 0.021745442 0)
(-0.037587857 0.021388323 0)
(-0.042339733 0.020982043 0)
(-0.046995168 0.02052735 0)
(-0.051543404 0.020025087 0)
(-0.055973884 0.019476194 0)
(-0.060276269 0.018881709 0)
(-0.064440464 0.018242768 0)
(-0.068456635 0.017560604 0)
(-0.072315237 0.016836549 0)
(-0.076007031 0.016072033 0)
(-0.079523108 0.015268584 0)
(-0.082854913 0.014427828 0)
(-0.085994262 0.013551486 0)
(-0.088933369 0.012641374 0)
(-0.091664863 0.011699404 0)
(-0.094181812 0.010727575 0)
(-0.09647774 0.0097279797 0)
(-0.09854665 0.0087027932 0)
(-0.10038304 0.0076542749 0)
(-0.10198193 0.0065847632 0)
(-0.10333885 0.0054966712 0)
(-0.10444992 0.0043924827 0)
(-0.10531178 0.0032747473 0)
(-0.10592168 0.0021460746 0)
(-0.10627744 0.0010091298 0)
(-0.1063775 -0.00013337362 0)
(-0.10622089 -0.001278681 0)
(-0.10580731 -0.0024240019 0)
(-0.10513702 -0.0035665169 0)
(-0.10421098 -0.0047033852 0)
(-0.10303076 -0.0058317526 0)
(-0.10159855 -0.0069487589 0)
(-0.099917234 -0.0080515463 0)
(-0.097990292 -0.0091372673 0)
(-0.09582186 -0.010203094 0)
(-0.093416706 -0.011246225 0)
(-0.090780218 -0.012263897 0)
(-0.087918406 -0.01325339 0)
(-0.084837881 -0.014212039 0)
(-0.081545848 -0.015137243 0)
(-0.078050089 -0.016026471 0)
(-0.074358947 -0.016877275 0)
(-0.070481304 -0.017687296 0)
(-0.066426565 -0.018454272 0)
(-0.062204629 -0.019176049 0)
(-0.05782587 -0.019850588 0)
(-0.053301107 -0.020475973 0)
(-0.048641575 -0.021050419 0)
(-0.043858899 -0.021572277 0)
(-0.038965055 -0.022040044 0)
(-0.033972346 -0.022452366 0)
(-0.028893359 -0.022808047 0)
(-0.023740935 -0.023106051 0)
(-0.01852813 -0.023345508 0)
(-0.013268176 -0.023525718 0)
(-0.0079744443 -0.023646152 0)
(-0.0026604065 -0.023706458 0)
(0.0026604066 -0.023706458 0)
(0.0079744443 -0.023646152 0)
(0.013268176 -0.023525718 0)
(0.01852813 -0.023345508 0)
(0.023740935 -0.023106051 0)
(0.028893359 -0.022808047 0)
(0.033972346 -0.022452366 0)
(0.038965055 -0.022040044 0)
(0.043858899 -0.021572277 0)
(0.048641576 -0.021050419 0)
(0.053301107 -0.020475973 0)
(0.05782587 -0.019850588 0)
(0.062204629 -0.019176049 0)
(0.066426565 -0.018454272 0)
(0.070481304 -0.017687296 0)
(0.074358947 -0.016877275 0)
(0.078050089 -0.016026471 0)
(0.081545848 -0.015137243 0)
(0.084837881 -0.014212039 0)
(0.087918406 -0.01325339 0)
(0.090780218 -0.012263897 0)
(0.093416706 -0.011246225 0)
(0.09582186 -0.010203094 0)
(0.097990292 -0.0091372673 0)
(0.099917234 -0.0080515462 0)
(0.10159855 -0.0069487589 0)
(0.10303076 -0.0058317526 0)
(0.10421098 -0.0047033852 0)
(0.10513702 -0.0035665168 0)
(0.10580731 -0.0024240019 0)
(0.10622089 -0.001278681 0)
(0.1063775 -0.0001333736 0)
(0.10627744 0.0010091298 0)
(0.10592168 0.0021460746 0)
(0.10531178 0.0032747473 0)
(0.10444992 0.0043924828 0)
(0.10333885 0.0054966712 0)
(0.10198193 0.0065847632 0)
(0.10038304 0.007654275 0)
(0.09854665 0.0087027932 0)
(0.09647774 0.0097279797 0)
(0.094181812 0.010727575 0)
(0.091664863 0.011699404 0)
(0.088933369 0.012641374 0)
(0.085994262 0.013551486 0)
(0.082854913 0.014427828 0)
(0.079523108 0.015268584 0)
(0.076007031 0.016072033 0)
(0.072315237 0.016836549 0)
(0.068456635 0.017560604 0)
(0.064440464 0.018242768 0)
(0.060276269 0.018881709 0)
(0.055973884 0.019476194 0)
(0.051543404 0.020025087 0)
(0.046995168 0.02052735 0)
(0.042339733 0.020982043 0)
(0.037587857 0.021388323 0)
(0.032750473 0.021745442 0)
(0.027838669 0.022052748 0)
(0.02286367 0.022309685 0)
(0.01783681 0.022515788 0)
(0.012769519 0.022670689 0)
(0.0076732979 0.022774109 0)
(0.002559698 0.022825865 0)
(-0.0025740507 0.027955529 0)
(-0.0077163275 0.027892159 0)
(-0.012841141 0.027765532 0)
(-0.017936882 0.027575873 0)
(-0.022991993 0.02732352 0)
(-0.027994989 0.027008926 0)
(-0.032934478 0.026632656 0)
(-0.037799178 0.026195391 0)
(-0.042577943 0.025697928 0)
(-0.047259785 0.025141181 0)
(-0.05183389 0.024526181 0)
(-0.056289643 0.023854077 0)
(-0.060616649 0.023126138 0)
(-0.064804756 0.022343753 0)
(-0.068844078 0.02150843 0)
(-0.072725012 0.0206218 0)
(-0.076438267 0.01968561 0)
(-0.07997488 0.018701731 0)
(-0.083326245 0.017672151 0)
(-0.086484127 0.016598978 0)
(-0.089440691 0.015484435 0)
(-0.09218852 0.01433086 0)
(-0.094720634 0.013140703 0)
(-0.097030516 0.011916523 0)
(-0.099112126 0.010660984 0)
(-0.10095993 0.0093768537 0)
(-0.1025689 0.008066994 0)
(-0.10393455 0.0067343604 0)
(-0.10505294 0.0053819947 0)
(-0.10592072 0.0040130191 0)
(-0.10653509 0.0026306298 0)
(-0.10689386 0.0012380904 0)
(-0.10699545 -0.00016127589 0)
(-0.10683888 -0.0015640947 0)
(-0.10642383 -0.0029669478 0)
(-0.10575058 -0.0043663819 0)
(-0.10482005 -0.0057589174 0)
(-0.10363383 -0.0071410578 0)
(-0.10219413 -0.0085092997 0)
(-0.10050381 -0.0098601419 0)
(-0.098566389 -0.011190096 0)
(-0.096386013 -0.012495698 0)
(-0.093967469 -0.013773516 0)
(-0.091316173 -0.015020162 0)
(-0.088438162 -0.016232305 0)
(-0.085340081 -0.01740668 0)
(-0.082029174 -0.018540097 0)
(-0.078513264 -0.019629457 0)
(-0.074800739 -0.020671758 0)
(-0.070900533 -0.021664107 0)
(-0.066822102 -0.022603735 0)
(-0.062575405 -0.023487999 0)
(-0.058170878 -0.0243144 0)
(-0.053619404 -0.02508059 0)
(-0.048932288 -0.025784377 0)
(-0.044121225 -0.026423742 0)
(-0.039198269 -0.026996841 0)
(-0.0341758 -0.027502014 0)
(-0.029066486 -0.027937794 0)
(-0.023883252 -0.02830291 0)
(-0.018639237 -0.028596296 0)
(-0.013347762 -0.028817092 0)
(-0.0080222858 -0.02896465 0)
(-0.0026763687 -0.029038538 0)
(0.0026763688 -0.029038538 0)
(0.0080222858 -0.02896465 0)
(0.013347762 -0.028817092 0)
(0.018639237 -0.028596296 0)
(0.023883252 -0.02830291 0)
(0.029066486 -0.027937794 0)
(0.0341758 -0.027502014 0)
(0.039198269 -0.026996841 0)
(0.044121225 -0.026423742 0)
(0.048932288 -0.025784377 0)
(0.053619404 -0.02508059 0)
(0.058170878 -0.0243144 0)
(0.062575405 -0.023487999 0)
(0.066822102 -0.022603735 0)
(0.070900533 -0.021664107 0)
(0.074800739 -0.020671758 0)
(0.078513264 -0.019629457 0)
(0.082029174 -0.018540097 0)
(0.085340081 -0.01740668 0)
(0.088438162 -0.016232305 0)
(0.091316173 -0.015020162 0)
(0.093967469 -0.013773516 0)
(0.096386013 -0.012495698 0)
(0.098566389 -0.011190096 0)
(0.10050381 -0.0098601419 0)
(0.10219413 -0.0085092997 0)
(0.10363383 -0.0071410578 0)
(0.10482005 -0.0057589173 0)
(0.10575058 -0.0043663819 0)
(0.10642383 -0.0029669478 0)
(0.10683888 -0.0015640947 0)
(0.10699545 -0.00016127587 0)
(0.10689386 0.0012380904 0)
(0.10653509 0.0026306298 0)
(0.10592072 0.0040130191 0)
(0.10505294 0.0053819947 0)
(0.10393455 0.0067343604 0)
(0.1025689 0.008066994 0)
(0.10095993 0.0093768537 0)
(0.099112126 0.010660984 0)
(0.097030516 0.011916523 0)
(0.094720634 0.013140703 0)
(0.09218852 0.01433086 0)
(0.089440691 0.015484435 0)
(0.086484127 0.016598978 0)
(0.083326245 0.017672151 0)
(0.07997488 0.018701731 0)
(0.076438267 0.01968561 0)
(0.072725012 0.0206218 0)
(0.068844078 0.021508431 0)
(0.064804756 0.022343753 0)
(0.060616649 0.023126138 0)
(0.056289643 0.023854077 0)
(0.05183389 0.024526181 0)
(0.047259785 0.025141181 0)
(0.042577943 0.025697928 0)
(0.037799177 0.026195391 0)
(0.032934478 0.026632656 0)
(0.027994989 0.027008926 0)
(0.022991993 0.02732352 0)
(0.017936881 0.027575873 0)
(0.012841141 0.027765532 0)
(0.0077163275 0.027892159 0)
(0.0025740507 0.027955529 0)
(-0.002590854 0.033116319 0)
(-0.007766704 0.033041275 0)
(-0.01292499 0.032891318 0)
(-0.018054038 0.032666715 0)
(-0.023142224 0.032367867 0)
(-0.028177994 0.031995306 0)
(-0.03314989 0.031549702 0)
(-0.038046564 0.031031859 0)
(-0.042856804 0.03044272 0)
(-0.047569554 0.029783364 0)
(-0.052173933 0.02905501 0)
(-0.056659261 0.028259017 0)
(-0.061015076 0.027396886 0)
(-0.065231163 0.026470258 0)
(-0.069297567 0.025480918 0)
(-0.073204624 0.024430794 0)
(-0.076942978 0.023321954 0)
(-0.080503606 0.022156613 0)
(-0.083877839 0.020937122 0)
(-0.087057385 0.019665977 0)
(-0.090034351 0.018345808 0)
(-0.092801263 0.016979384 0)
(-0.095351091 0.015569606 0)
(-0.097677265 0.014119504 0)
(-0.099773699 0.012632233 0)
(-0.10163481 0.011111068 0)
(-0.10325553 0.0095594024 0)
(-0.10463135 0.0079807347 0)
(-0.10575828 0.0063786684 0)
(-0.10663292 0.0047569018 0)
(-0.10725248 0.0031192211 0)
(-0.10761473 0.0014694922 0)
(-0.10771806 -0.00018834811 0)
(-0.1075615 -0.001850302 0)
(-0.10714469 -0.0035123198 0)
(-0.10646791 -0.0051703099 0)
(-0.1055321 -0.0068201499 0)
(-0.10433882 -0.0084576971 0)
(-0.10289031 -0.0100788 0)
(-0.10118944 -0.011679311 0)
(-0.099239737 -0.013255096 0)
(-0.097045364 -0.014802049 0)
(-0.094611138 -0.016316103 0)
(-0.091942505 -0.017793245 0)
(-0.089045535 -0.019229526 0)
(-0.085926914 -0.020621074 0)
(-0.082593929 -0.02196411 0)
(-0.079054452 -0.023254959 0)
(-0.075316924 -0.024490062 0)
(-0.071390338 -0.025665991 0)
(-0.067284213 -0.026779459 0)
(-0.063008576 -0.027827335 0)
(-0.058573933 -0.028806654 0)
(-0.053991245 -0.02971463 0)
(-0.049271897 -0.030548666 0)
(-0.044427668 -0.031306365 0)
(-0.0394707 -0.03198554 0)
(-0.034413463 -0.032584221 0)
(-0.029268721 -0.033100668 0)
(-0.024049494 -0.033533374 0)
(-0.018769023 -0.033881073 0)
(-0.013440727 -0.034142745 0)
(-0.0080781693 -0.034317622 0)
(-0.002695014 -0.034405189 0)
(0.002695014 -0.034405189 0)
(0.0080781693 -0.034317622 0)
(0.013440727 -0.034142745 0)
(0.018769023 -0.033881073 0)
(0.024049494 -0.033533374 0)
(0.029268721 -0.033100668 0)
(0.034413463 -0.032584221 0)
(0.0394707 -0.03198554 0)
(0.044427668 -0.031306365 0)
(0.049271897 -0.030548666 0)
(0.053991245 -0.02971463 0)
(0.058573933 -0.028806654 0)
(0.063008576 -0.027827335 0)
(0.067284213 -0.026779459 0)
(0.071390338 -0.025665991 0)
(0.075316924 -0.024490062 0)
(0.079054452 -0.023254959 0)
(0.082593929 -0.02196411 0)
(0.085926914 -0.020621074 0)
(0.089045535 -0.019229526 0)
(0.091942505 -0.017793245 0)
(0.094611138 -0.016316103 0)
(0.097045364 -0.014802049 0)
(0.099239737 -0.013255096 0)
(0.10118944 -0.011679311 0)
(0.10289031 -0.0100788 0)
(0.10433882 -0.0084576971 0)
(0.1055321 -0.0068201499 0)
(0.10646791 -0.0051703099 0)
(0.10714469 -0.0035123198 0)
(0.1075615 -0.001850302 0)
(0.10771806 -0.0001883481 0)
(0.10761473 0.0014694923 0)
(0.10725248 0.0031192211 0)
(0.10663292 0.0047569018 0)
(0.10575828 0.0063786684 0)
(0.10463135 0.0079807348 0)
(0.10325553 0.0095594024 0)
(0.10163481 0.011111068 0)
(0.099773699 0.012632233 0)
(0.097677265 0.014119504 0)
(0.095351091 0.015569606 0)
(0.092801263 0.016979384 0)
(0.090034351 0.018345808 0)
(0.087057385 0.019665977 0)
(0.083877839 0.020937122 0)
(0.080503606 0.022156613 0)
(0.076942978 0.023321954 0)
(0.073204624 0.024430794 0)
(0.069297567 0.025480918 0)
(0.065231163 0.026470258 0)
(0.061015076 0.027396886 0)
(0.056659261 0.028259017 0)
(0.052173933 0.02905501 0)
(0.047569554 0.029783364 0)
(0.042856804 0.03044272 0)
(0.038046564 0.031031859 0)
(0.03314989 0.031549702 0)
(0.028177994 0.031995306 0)
(0.023142223 0.032367867 0)
(0.018054038 0.032666715 0)
(0.01292499 0.032891318 0)
(0.0077667039 0.033041275 0)
(0.0025908539 0.033116319 0)
(-0.0026101393 0.038313168 0)
(-0.0078245215 0.038226376 0)
(-0.013021225 0.038052947 0)
(-0.018188499 0.037793186 0)
(-0.023314642 0.037447555 0)
(-0.028388026 0.03701667 0)
(-0.033397113 0.036501303 0)
(-0.03833048 0.035902381 0)
(-0.043176838 0.035220992 0)
(-0.047925053 0.034458382 0)
(-0.052564169 0.033615958 0)
(-0.05708343 0.032695289 0)
(-0.061472298 0.031698107 0)
(-0.06572048 0.030626308 0)
(-0.06981795 0.029481954 0)
(-0.073754968 0.02826727 0)
(-0.077522106 0.026984649 0)
(-0.08111027 0.025636646 0)
(-0.084510721 0.024225981 0)
(-0.087715099 0.022755538 0)
(-0.090715445 0.021228358 0)
(-0.093504223 0.019647641 0)
(-0.096074341 0.018016743 0)
(-0.098419173 0.016339166 0)
(-0.10053258 0.01461856 0)
(-0.10240892 0.012858715 0)
(-0.10404308 0.011063552 0)
(-0.10543051 0.0092371203 0)
(-0.10656718 0.0073835882 0)
(-0.10744967 0.005507234 0)
(-0.10807513 0.0036124382 0)
(-0.10844131 0.0017036734 0)
(-0.1085466 -0.00021450583 0)
(-0.10838999 -0.0021374737 0)
(-0.10797112 -0.0040605443 0)
(-0.10729026 -0.0059789835 0)
(-0.10634834 -0.0078880209 0)
(-0.10514694 -0.0097828631 0)
(-0.10368829 -0.011658706 0)
(-0.10197528 -0.013510749 0)
(-0.10001145 -0.015334209 0)
(-0.097801002 -0.017124333 0)
(-0.095348771 -0.018876415 0)
(-0.092660237 -0.020585809 0)
(-0.089741513 -0.022247943 0)
(-0.086599329 -0.023858336 0)
(-0.083241022 -0.025412613 0)
(-0.07967452 -0.026906518 0)
(-0.075908326 -0.028335931 0)
(-0.0719515 -0.029696881 0)
(-0.067813632 -0.030985561 0)
(-0.063504827 -0.032198346 0)
(-0.059035673 -0.033331801 0)
(-0.054417217 -0.034382697 0)
(-0.049660938 -0.035348028 0)
(-0.04477871 -0.036225014 0)
(-0.039782775 -0.037011122 0)
(-0.034685708 -0.037704071 0)
(-0.02950038 -0.038301842 0)
(-0.024239922 -0.038802688 0)
(-0.018917689 -0.039205144 0)
(-0.013547215 -0.039508026 0)
(-0.008142182 -0.039710445 0)
(-0.0027163715 -0.039811803 0)
(0.0027163716 -0.039811803 0)
(0.0081421821 -0.039710445 0)
(0.013547215 -0.039508026 0)
(0.018917689 -0.039205144 0)
(0.024239922 -0.038802688 0)
(0.02950038 -0.038301842 0)
(0.034685708 -0.037704071 0)
(0.039782775 -0.037011122 0)
(0.04477871 -0.036225014 0)
(0.049660938 -0.035348028 0)
(0.054417218 -0.034382697 0)
(0.059035673 -0.033331801 0)
(0.063504827 -0.032198346 0)
(0.067813632 -0.030985561 0)
(0.0719515 -0.029696881 0)
(0.075908326 -0.028335931 0)
(0.07967452 -0.026906518 0)
(0.083241022 -0.025412613 0)
(0.086599329 -0.023858336 0)
(0.089741513 -0.022247943 0)
(0.092660237 -0.020585809 0)
(0.095348771 -0.018876415 0)
(0.097801002 -0.017124333 0)
(0.10001145 -0.015334209 0)
(0.10197528 -0.013510749 0)
(0.10368829 -0.011658706 0)
(0.10514694 -0.0097828631 0)
(0.10634834 -0.0078880209 0)
(0.10729026 -0.0059789835 0)
(0.10797112 -0.0040605443 0)
(0.10838999 -0.0021374737 0)
(0.1085466 -0.00021450581 0)
(0.10844131 0.0017036734 0)
(0.10807513 0.0036124383 0)
(0.10744967 0.005507234 0)
(0.10656718 0.0073835882 0)
(0.10543051 0.0092371203 0)