/*--------------------------------*- C++ -*----------------------------------*\
| =========                 |                                                 |
| \\      /  F ield         | OpenFOAM: The Open Source CFD Toolbox           |
|  \\    /   O peration     | Version:  2106                                  |
|   \\  /    A nd           | Website:  www.openfoam.com                      |
|    \\/     M anipulation  |                                                 |
\*---------------------------------------------------------------------------*/
FoamFile
{
    version     2.0;
    format      ascii;
    arch        "LSB;label=32;scalar=64";
    class       volVectorField;
    location    "0.025";
    object      U_0;
}
// * * * * * * * * * * * * * * * * * * * * * * * * * * * * * * * * * * * * * //

dimensions      [0 1 -1 0 0 0 0];

internalField   nonuniform List<vector> 
16384
(
(-0.0025248903 0.0025227552 0)
(-0.0075689427 0.0025170309 0)
(-0.012595821 0.0025055925 0)
(-0.017594109 0.0024884606 0)
(-0.022552443 0.0024656659 0)
(-0.027459531 0.0024372495 0)
(-0.032304173 0.0024032629 0)
(-0.037075282 0.002363768 0)
(-0.041761906 0.0023188372 0)
(-0.04635325 0.0022685536 0)
(-0.050838691 0.0022130109 0)
(-0.055207809 0.0021523133 0)
(-0.059450401 0.002086576 0)
(-0.063556505 0.0020159251 0)
(-0.067516423 0.0019404972 0)
(-0.07132074 0.0018604402 0)
(-0.074960349 0.0017759124 0)
(-0.078426469 0.0016870833 0)
(-0.08171067 0.0015941329 0)
(-0.084804892 0.0014972518 0)
(-0.087701468 0.0013966412 0)
(-0.090393141 0.0012925126 0)
(-0.092873091 0.0011850874 0)
(-0.095134949 0.001074597 0)
(-0.097172818 0.00096128203 0)
(-0.098981292 0.00084539249 0)
(-0.10055547 0.00072718693 0)
(-0.101891 0.00060693222 0)
(-0.10298402 0.00048490294 0)
(-0.10383129 0.0003613804 0)
(-0.10443009 0.00023664992 0)
(-0.1047783 0.00011101049 0)
(-0.1048744 -1.5222557e-05 0)
(-0.10471749 -0.00014177906 0)
(-0.10430724 -0.0002683286 0)
(-0.10364398 -0.00039456335 0)
(-0.10272865 -0.00052016983 0)
(-0.10156281 -0.00064483281 0)
(-0.10014867 -0.0007682364 0)
(-0.098489073 -0.000890065 0)
(-0.096587471 -0.0010100042 0)
(-0.094447965 -0.0011277417 0)
(-0.092075267 -0.0012429682 0)
(-0.08947471 -0.0013553787 0)
(-0.086652229 -0.001464673 0)
(-0.083614356 -0.001570557 0)
(-0.080368204 -0.0016727436 0)
(-0.076921453 -0.0017709536 0)
(-0.073282334 -0.001864917 0)
(-0.069459607 -0.0019543735 0)
(-0.065462545 -0.0020390739 0)
(-0.061300906 -0.0021187804 0)
(-0.056984912 -0.0021932685 0)
(-0.052525221 -0.0022623268 0)
(-0.047932902 -0.0023257586 0)
(-0.043219399 -0.0023833823 0)
(-0.038396507 -0.0024350321 0)
(-0.033476336 -0.002480559 0)
(-0.028471275 -0.0025198313 0)
(-0.023393961 -0.0025527347 0)
(-0.018257241 -0.0025791735 0)
(-0.013074136 -0.0025990705 0)
(-0.0078578007 -0.0026123677 0)
(-0.0026214887 -0.002619026 0)
(0.0026214888 -0.002619026 0)
(0.0078578007 -0.0026123677 0)
(0.013074136 -0.0025990705 0)
(0.018257241 -0.0025791735 0)
(0.023393961 -0.0025527347 0)
(0.028471275 -0.0025198313 0)
(0.033476336 -0.002480559 0)
(0.038396507 -0.0024350321 0)
(0.043219399 -0.0023833823 0)
(0.047932902 -0.0023257586 0)
(0.052525221 -0.0022623268 0)
(0.056984912 -0.0021932685 0)
(0.061300906 -0.0021187804 0)
(0.065462545 -0.0020390739 0)
(0.069459607 -0.0019543735 0)
(0.073282334 -0.001864917 0)
(0.076921453 -0.0017709536 0)
(0.080368204 -0.0016727436 0)
(0.083614356 -0.001570557 0)
(0.086652229 -0.001464673 0)
(0.08947471 -0.0013553787 0)
(0.092075267 -0.0012429682 0)
(0.094447965 -0.0011277417 0)
(0.096587472 -0.0010100042 0)
(0.098489073 -0.000890065 0)
(0.10014867 -0.0007682364 0)
(0.10156281 -0.0006448328 0)
(0.10272865 -0.00052016983 0)
(0.10364398 -0.00039456335 0)
(0.10430724 -0.0002683286 0)
(0.10471749 -0.00014177906 0)
(0.1048744 -1.5222556e-05 0)
(0.1047783 0.00011101049 0)
(0.10443009 0.00023664993 0)
(0.10383129 0.0003613804 0)
(0.10298402 0.00048490294 0)
(0.101891 0.00060693222 0)
(0.10055547 0.00072718693 0)
(0.098981292 0.00084539249 0)
(0.097172818 0.00096128203 0)
(0.095134949 0.001074597 0)
(0.092873091 0.0011850874 0)
(0.090393141 0.0012925126 0)
(0.087701468 0.0013966412 0)
(0.084804892 0.0014972518 0)
(0.08171067 0.0015941329 0)
(0.078426469 0.0016870833 0)
(0.074960349 0.0017759124 0)
(0.07132074 0.0018604402 0)
(0.067516423 0.0019404972 0)
(0.063556505 0.0020159251 0)
(0.059450401 0.002086576 0)
(0.055207809 0.0021523133 0)
(0.050838691 0.0022130109 0)
(0.046353249 0.0022685536 0)
(0.041761906 0.0023188372 0)
(0.037075282 0.002363768 0)
(0.032304173 0.0024032629 0)
(0.027459531 0.0024372495 0)
(0.022552443 0.0024656659 0)
(0.017594109 0.0024884606 0)
(0.012595821 0.0025055925 0)
(0.0075689427 0.0025170309 0)
(0.0025248903 0.0025227552 0)
(-0.002529912 0.0075723304 0)
(-0.0075839982 0.0075551499 0)
(-0.012620882 0.0075208195 0)
(-0.017629128 0.0074694007 0)
(-0.022597353 0.0074009858 0)
(-0.027514247 0.0073156982 0)
(-0.03236859 0.0072136922 0)
(-0.037149276 0.0070951537 0)
(-0.041845335 0.0069602998 0)
(-0.04644595 0.0068093796 0)
(-0.050940481 0.006642674 0)
(-0.055318488 0.0064604962 0)
(-0.059569749 0.0062631916 0)
(-0.063684282 0.0060511381 0)
(-0.06765237 0.0058247461 0)
(-0.07146458 0.0055844589 0)
(-0.075111785 0.005330752 0)
(-0.078585186 0.0050641335 0)
(-0.081876333 0.0047851436 0)
(-0.084977151 0.0044943546 0)
(-0.087879952 0.0041923701 0)
(-0.090577465 0.0038798246 0)
(-0.093062851 0.0035573828 0)
(-0.095329726 0.0032257389 0)
(-0.097372178 0.0028856154 0)
(-0.099184786 0.0025377624 0)
(-0.10076264 0.0021829559 0)
(-0.10210136 0.0018219968 0)
(-0.1031971 0.0014557094 0)
(-0.10404657 0.0010849391 0)
(-0.10464708 0.0007105495 0)
(-0.10499648 0.0003334274 0)
(-0.10509326 -4.5521354e-05 0)
(-0.10493648 -0.00042538995 0)
(-0.10452583 -0.0008052534 0)
(-0.10386163 -0.0011841756 0)
(-0.10294482 -0.0015612139 0)
(-0.10177697 -0.0019354219 0)
(-0.10036028 -0.0023058512 0)
(-0.098697583 -0.0026715543 0)
(-0.096792355 -0.0030315874 0)
(-0.094648693 -0.0033850129 0)
(-0.092271319 -0.0037309026 0)
(-0.089665571 -0.0040683404 0)
(-0.086837397 -0.0043964253 0)
(-0.083793339 -0.0047142742 0)
(-0.080540523 -0.0050210253 0)
(-0.077086644 -0.0053158405 0)
(-0.07343995 -0.0055979087 0)
(-0.069609218 -0.0058664488 0)
(-0.065603741 -0.0061207121 0)
(-0.061433297 -0.0063599854 0)
(-0.057108131 -0.0065835938 0)
(-0.052638925 -0.0067909032 0)
(-0.048036772 -0.0069813225 0)
(-0.043313144 -0.0071543065 0)
(-0.038479861 -0.0073093577 0)
(-0.033549063 -0.0074460284 0)
(-0.028533168 -0.0075639229 0)
(-0.023444844 -0.0076626985 0)
(-0.018296969 -0.0077420675 0)
(-0.013102595 -0.0078017982 0)
(-0.0078749087 -0.0078417162 0)
(-0.0026271968 -0.0078617044 0)
(0.0026271969 -0.0078617044 0)
(0.0078749087 -0.0078417162 0)
(0.013102595 -0.0078017982 0)
(0.018296969 -0.0077420675 0)
(0.023444844 -0.0076626985 0)
(0.028533168 -0.0075639229 0)
(0.033549063 -0.0074460284 0)
(0.038479861 -0.0073093577 0)
(0.043313144 -0.0071543065 0)
(0.048036772 -0.0069813225 0)
(0.052638925 -0.0067909032 0)
(0.057108131 -0.0065835938 0)
(0.061433297 -0.0063599854 0)
(0.065603741 -0.0061207121 0)
(0.069609218 -0.0058664488 0)
(0.07343995 -0.0055979087 0)
(0.077086644 -0.0053158405 0)
(0.080540523 -0.0050210253 0)
(0.083793339 -0.0047142742 0)
(0.086837397 -0.0043964253 0)
(0.089665571 -0.0040683404 0)
(0.092271319 -0.0037309026 0)
(0.094648693 -0.0033850129 0)
(0.096792355 -0.0030315874 0)
(0.098697583 -0.0026715543 0)
(0.10036028 -0.0023058512 0)
(0.10177697 -0.0019354219 0)
(0.10294482 -0.0015612139 0)
(0.10386163 -0.0011841756 0)
(0.10452583 -0.0008052534 0)
(0.10493648 -0.00042538995 0)
(0.10509326 -4.5521349e-05 0)
(0.10499648 0.0003334274 0)
(0.10464708 0.0007105495 0)
(0.10404657 0.0010849392 0)
(0.1031971 0.0014557094 0)
(0.10210136 0.0018219968 0)
(0.10076264 0.0021829559 0)
(0.099184786 0.0025377624 0)
(0.097372178 0.0028856154 0)
(0.095329726 0.0032257389 0)
(0.093062851 0.0035573828 0)
(0.090577465 0.0038798246 0)
(0.087879952 0.0041923701 0)
(0.084977151 0.0044943546 0)
(0.081876333 0.0047851436 0)
(0.078585186 0.0050641335 0)
(0.075111785 0.005330752 0)
(0.07146458 0.0055844589 0)
(0.06765237 0.0058247461 0)
(0.063684282 0.0060511381 0)
(0.059569749 0.0062631916 0)
(0.055318488 0.0064604962 0)
(0.050940481 0.006642674 0)
(0.046445949 0.0068093796 0)
(0.041845335 0.0069602998 0)
(0.037149276 0.0070951537 0)
(0.03236859 0.0072136922 0)
(0.027514247 0.0073156982 0)
(0.022597353 0.0074009858 0)
(0.017629128 0.0074694007 0)
(0.012620882 0.0075208195 0)
(0.0075839981 0.0075551499 0)
(0.0025299119 0.0075723304 0)
(-0.0025371725 0.012635435 0)
(-0.0076057658 0.012606773 0)
(-0.012657114 0.012549499 0)
(-0.017679755 0.012463716 0)
(-0.022662278 0.012349577 0)
(-0.027593342 0.012207289 0)
(-0.032461701 0.012037109 0)
(-0.037256221 0.011839345 0)
(-0.041965902 0.01161436 0)
(-0.0465799 0.01136257 0)
(-0.051087548 0.011084442 0)
(-0.055478376 0.010780498 0)
(-0.059742133 0.010451314 0)
(-0.063868812 0.01009752 0)
(-0.067848666 0.0097198004 0)
(-0.071672235 0.0093188938 0)
(-0.075330364 0.0088955933 0)
(-0.078814228 0.008450746 0)
(-0.082115351 0.007985253 0)
(-0.085225631 0.0075000684 0)
(-0.088137356 0.006996199 0)
(-0.09084323 0.0064747032 0)
(-0.093336391 0.0059366896 0)
(-0.095610432 0.0053833162 0)
(-0.097659419 0.0048157884 0)
(-0.099477913 0.0042353573 0)
(-0.10106098 0.0036433177 0)
(-0.10240423 0.0030410059 0)
(-0.10350379 0.0024297969 0)
(-0.10435638 0.0018111016 0)
(-0.10495926 0.0011863641 0)
(-0.10531029 0.00055706127 0)
(-0.10540795 -7.5301915e-05 0)
(-0.10525129 -0.00070920489 0)
(-0.10484 -0.0013431034 0)
(-0.10417438 -0.0019754364 0)
(-0.10325538 -0.0026046316 0)
(-0.10208456 -0.0032291093 0)
(-0.10066413 -0.0038472868 0)
(-0.09899693 -0.0044575828 0)
(-0.097086435 -0.0050584219 0)
(-0.094936751 -0.0056482393 0)
(-0.092552611 -0.0062254855 0)
(-0.089939367 -0.0067886316 0)
(-0.087102979 -0.0073361734 0)
(-0.084050007 -0.007866637 0)
(-0.080787596 -0.0083785836 0)
(-0.077323462 -0.008870614 0)
(-0.073665877 -0.0093413743 0)
(-0.069823643 -0.0097895601 0)
(-0.06580608 -0.010213922 0)
(-0.061622998 -0.010613268 0)
(-0.057284671 -0.010986472 0)
(-0.052801818 -0.011332475 0)
(-0.048185564 -0.011650291 0)
(-0.04344742 -0.011939007 0)
(-0.038599247 -0.012197795 0)
(-0.033653222 -0.012425906 0)
(-0.028621807 -0.012622679 0)
(-0.023517712 -0.012787542 0)
(-0.01835386 -0.012920015 0)
(-0.013143347 -0.01301971 0)
(-0.0078994066 -0.013086336 0)
(-0.0026353706 -0.013119698 0)
(0.0026353706 -0.013119698 0)
(0.0078994067 -0.013086336 0)
(0.013143347 -0.01301971 0)
(0.01835386 -0.012920015 0)
(0.023517712 -0.012787542 0)
(0.028621807 -0.012622679 0)
(0.033653222 -0.012425906 0)
(0.038599247 -0.012197795 0)
(0.043447421 -0.011939007 0)
(0.048185564 -0.011650291 0)
(0.052801818 -0.011332475 0)
(0.057284672 -0.010986472 0)
(0.061622998 -0.010613268 0)
(0.06580608 -0.010213921 0)
(0.069823643 -0.0097895601 0)
(0.073665877 -0.0093413743 0)
(0.077323462 -0.008870614 0)
(0.080787596 -0.0083785835 0)
(0.084050007 -0.007866637 0)
(0.087102979 -0.0073361734 0)
(0.089939367 -0.0067886316 0)
(0.092552612 -0.0062254855 0)
(0.094936751 -0.0056482392 0)
(0.097086435 -0.0050584219 0)
(0.09899693 -0.0044575828 0)
(0.10066413 -0.0038472868 0)
(0.10208456 -0.0032291093 0)
(0.10325538 -0.0026046316 0)
(0.10417438 -0.0019754364 0)
(0.10484 -0.0013431034 0)
(0.10525129 -0.00070920488 0)
(0.10540795 -7.5301907e-05 0)
(0.10531029 0.00055706128 0)
(0.10495926 0.0011863641 0)
(0.10435638 0.0018111016 0)
(0.10350379 0.0024297969 0)
(0.10240423 0.0030410059 0)
(0.10106098 0.0036433177 0)
(0.099477913 0.0042353573 0)
(0.097659419 0.0048157884 0)
(0.095610432 0.0053833162 0)
(0.093336391 0.0059366896 0)
(0.09084323 0.0064747032 0)
(0.088137356 0.006996199 0)
(0.085225631 0.0075000684 0)
(0.082115351 0.007985253 0)
(0.078814228 0.008450746 0)
(0.075330364 0.0088955933 0)
(0.071672235 0.0093188938 0)
(0.067848666 0.0097198004 0)
(0.063868812 0.01009752 0)
(0.059742133 0.010451314 0)
(0.055478376 0.010780498 0)
(0.051087548 0.011084442 0)
(0.0465799 0.01136257 0)
(0.041965902 0.01161436 0)
(0.037256221 0.011839345 0)
(0.032461701 0.012037109 0)
(0.027593342 0.012207289 0)
(0.022662278 0.012349577 0)
(0.017679755 0.012463716 0)
(0.012657114 0.012549499 0)
(0.0076057657 0.012606773 0)
(0.0025371724 0.012635435 0)
(-0.0025467392 0.017715407 0)
(-0.0076344472 0.017675229 0)
(-0.012704854 0.017594946 0)
(-0.017746461 0.0174747 0)
(-0.022747818 0.017314707 0)
(-0.027697548 0.017115255 0)
(-0.032584368 0.016876703 0)
(-0.037397106 0.016599484 0)
(-0.042124724 0.016284106 0)
(-0.046756342 0.01593115 0)
(-0.051281253 0.015541271 0)
(-0.055688951 0.015115199 0)
(-0.059969148 0.014653742 0)
(-0.0641118 0.014157781 0)
(-0.068107122 0.013628275 0)
(-0.071945619 0.013066259 0)
(-0.0756181 0.012472842 0)
(-0.079115704 0.011849213 0)
(-0.082429922 0.011196634 0)
(-0.085552616 0.010516441 0)
(-0.088476042 0.009810046 0)
(-0.091192873 0.0090789309 0)
(-0.093696215 0.0083246501 0)
(-0.095979633 0.0075488265 0)
(-0.098037165 0.0067531495 0)
(-0.099863345 0.0059393729 0)
(-0.10145322 0.0051093117 0)
(-0.10280236 0.0042648391 0)
(-0.10390689 0.0034078828 0)
(-0.1047635 0.0025404214 0)
(-0.10536945 0.0016644802 0)
(-0.10572257 0.00078212838 0)
(-0.10582132 -0.00010452731 0)
(-0.10566476 -0.00099335047 0)
(-0.10525256 -0.0018821757 0)
(-0.10458503 -0.0027688148 0)
(-0.10366309 -0.0036510633 0)
(-0.10248833 -0.0045267061 0)
(-0.10106294 -0.0053935238 0)
(-0.099389776 -0.0062492987 0)
(-0.097472322 -0.0070918217 0)
(-0.095314692 -0.007918898 0)
(-0.092921635 -0.0087283548 0)
(-0.090298517 -0.0095180473 0)
(-0.087451318 -0.010285866 0)
(-0.084386622 -0.011029743 0)
(-0.081111597 -0.011747661 0)
(-0.077633989 -0.012437656 0)
(-0.073962098 -0.01309783 0)
(-0.070104762 -0.013726352 0)
(-0.066071336 -0.014321469 0)
(-0.061871669 -0.01488151 0)
(-0.057516077 -0.015404893 0)
(-0.053015322 -0.015890134 0)
(-0.048380578 -0.016335847 0)
(-0.043623402 -0.016740754 0)
(-0.038755706 -0.017103689 0)
(-0.033789721 -0.017423604 0)
(-0.028737964 -0.01769957 0)
(-0.0236132 -0.017930785 0)
(-0.01842841 -0.018116574 0)
(-0.013196748 -0.018256393 0)
(-0.0079315077 -0.018349835 0)
(-0.002646081 -0.018396624 0)
(0.0026460811 -0.018396624 0)
(0.0079315078 -0.018349835 0)
(0.013196748 -0.018256393 0)
(0.01842841 -0.018116574 0)
(0.0236132 -0.017930785 0)
(0.028737964 -0.01769957 0)
(0.033789721 -0.017423604 0)
(0.038755706 -0.017103689 0)
(0.043623402 -0.016740754 0)
(0.048380578 -0.016335847 0)
(0.053015322 -0.015890134 0)
(0.057516077 -0.015404893 0)
(0.061871669 -0.01488151 0)
(0.066071336 -0.014321469 0)
(0.070104762 -0.013726352 0)
(0.073962098 -0.01309783 0)
(0.077633989 -0.012437656 0)
(0.081111597 -0.011747661 0)
(0.084386622 -0.011029743 0)
(0.087451318 -0.010285866 0)
(0.090298517 -0.0095180473 0)
(0.092921635 -0.0087283548 0)
(0.095314692 -0.007918898 0)
(0.097472322 -0.0070918217 0)
(0.099389776 -0.0062492987 0)
(0.10106294 -0.0053935238 0)
(0.10248833 -0.0045267061 0)
(0.10366309 -0.0036510633 0)
(0.10458503 -0.0027688148 0)
(0.10525256 -0.0018821757 0)
(0.10566476 -0.00099335045 0)
(0.10582132 -0.0001045273 0)
(0.10572257 0.00078212839 0)
(0.10536945 0.0016644802 0)
(0.1047635 0.0025404214 0)
(0.10390689 0.0034078828 0)
(0.10280236 0.0042648391 0)
(0.10145322 0.0051093118 0)
(0.099863345 0.0059393729 0)
(0.098037165 0.0067531495 0)
(0.095979633 0.0075488265 0)
(0.093696215 0.0083246502 0)
(0.091192873 0.0090789309 0)
(0.088476042 0.009810046 0)
(0.085552616 0.010516441 0)
(0.082429922 0.011196634 0)
(0.079115704 0.011849213 0)
(0.0756181 0.012472842 0)
(0.071945619 0.013066259 0)
(0.068107122 0.013628275 0)
(0.0641118 0.014157781 0)
(0.059969148 0.014653742 0)
(0.055688951 0.015115199 0)
(0.051281253 0.015541271 0)
(0.046756341 0.01593115 0)
(0.042124724 0.016284106 0)
(0.037397106 0.016599484 0)
(0.032584368 0.016876703 0)
(0.027697548 0.017115255 0)
(0.022747818 0.017314707 0)
(0.017746461 0.0174747 0)
(0.012704854 0.017594946 0)
(0.0076344471 0.017675229 0)
(0.0025467391 0.017715407 0)
(-0.002558669 0.022816778 0)
(-0.007670213 0.022765044 0)
(-0.012764386 0.022661667 0)
(-0.017829641 0.022506833 0)
(-0.022854482 0.022300818 0)
(-0.027827486 0.022043991 0)
(-0.032737321 0.021736815 0)
(-0.037572769 0.021379848 0)
(-0.042322745 0.020973741 0)
(-0.04697632 0.02051924 0)
(-0.051522744 0.02001719 0)
(-0.055951461 0.019468529 0)
(-0.060252139 0.018874294 0)
(-0.064414684 0.018235621 0)
(-0.068429269 0.017553743 0)
(-0.072286351 0.01682999 0)
(-0.075976694 0.016065792 0)
(-0.079491396 0.015262676 0)
(-0.082821901 0.014422266 0)
(-0.085960032 0.013546285 0)
(-0.088898003 0.012636546 0)
(-0.091628448 0.01169496 0)
(-0.094144435 0.010723528 0)
(-0.096439492 0.0097243369 0)
(-0.098507623 0.0086995639 0)
(-0.10034333 0.0076514668 0)
(-0.10194163 0.0065823827 0)
(-0.10329807 0.005494724 0)
(-0.10440874 0.0043909733 0)
(-0.10527031 0.003273679 0)
(-0.10588001 0.0021454497 0)
(-0.10623568 0.0010089495 0)
(-0.10633575 -0.00013310904 0)
(-0.10617926 -0.0012779726 0)
(-0.10576588 -0.0024228516 0)
(-0.10509591 -0.0035649279 0)
(-0.10417028 -0.0047013616 0)
(-0.10299056 -0.0058292996 0)
(-0.10155896 -0.0069458827 0)
(-0.099878341 -0.0080482541 0)
(-0.097952191 -0.0091335675 0)
(-0.095784643 -0.010198995 0)
(-0.093380461 -0.011241738 0)
(-0.090745033 -0.012259033 0)
(-0.087884364 -0.01324816 0)
(-0.084805063 -0.014206457 0)
(-0.081514333 -0.015131322 0)
(-0.078019952 -0.016020225 0)
(-0.07433026 -0.01687072 0)
(-0.070454135 -0.017680446 0)
(-0.066400979 -0.018447145 0)
(-0.062180687 -0.019168662 0)
(-0.057803628 -0.019842959 0)
(-0.053280619 -0.02046812 0)
(-0.048622889 -0.02104236 0)
(-0.043842058 -0.021564032 0)
(-0.038950101 -0.022031632 0)
(-0.033959313 -0.022443808 0)
(-0.028882279 -0.022799362 0)
(-0.023731834 -0.023097261 0)
(-0.018521028 -0.023336633 0)
(-0.013263091 -0.023516779 0)
(-0.0079713887 -0.023637171 0)
(-0.0026593872 -0.023697456 0)
(0.0026593873 -0.023697456 0)
(0.0079713888 -0.023637171 0)
(0.013263091 -0.023516779 0)
(0.018521028 -0.023336633 0)
(0.023731834 -0.023097261 0)
(0.028882279 -0.022799362 0)
(0.033959313 -0.022443808 0)
(0.038950101 -0.022031632 0)
(0.043842058 -0.021564032 0)
(0.048622889 -0.02104236 0)
(0.053280619 -0.02046812 0)
(0.057803628 -0.019842959 0)
(0.062180687 -0.019168662 0)
(0.066400979 -0.018447145 0)
(0.070454135 -0.017680446 0)
(0.07433026 -0.01687072 0)
(0.078019953 -0.016020225 0)
(0.081514333 -0.015131322 0)
(0.084805063 -0.014206457 0)
(0.087884364 -0.01324816 0)
(0.090745033 -0.012259033 0)
(0.093380461 -0.011241738 0)
(0.095784643 -0.010198995 0)
(0.097952191 -0.0091335675 0)
(0.099878341 -0.0080482541 0)
(0.10155896 -0.0069458827 0)
(0.10299056 -0.0058292996 0)
(0.10417028 -0.0047013616 0)
(0.10509591 -0.0035649278 0)
(0.10576588 -0.0024228516 0)
(0.10617926 -0.0012779726 0)
(0.10633575 -0.00013310903 0)
(0.10623568 0.0010089496 0)
(0.10588001 0.0021454497 0)
(0.10527031 0.003273679 0)
(0.10440874 0.0043909733 0)
(0.10329807 0.005494724 0)
(0.10194163 0.0065823828 0)
(0.10034333 0.0076514668 0)
(0.098507623 0.0086995639 0)
(0.096439492 0.0097243369 0)
(0.094144435 0.010723528 0)
(0.091628448 0.011694961 0)
(0.088898003 0.012636546 0)
(0.085960032 0.013546285 0)
(0.082821901 0.014422267 0)
(0.079491396 0.015262676 0)
(0.075976694 0.016065792 0)
(0.07228635 0.01682999 0)
(0.068429269 0.017553743 0)
(0.064414684 0.018235621 0)
(0.060252139 0.018874294 0)
(0.055951461 0.019468529 0)
(0.051522744 0.02001719 0)
(0.04697632 0.02051924 0)
(0.042322745 0.020973741 0)
(0.037572769 0.021379848 0)
(0.032737321 0.021736815 0)
(0.027827486 0.022043991 0)
(0.022854482 0.022300818 0)
(0.017829641 0.022506833 0)
(0.012764386 0.022661667 0)
(0.0076702129 0.022765044 0)
(0.0025586689 0.022816778 0)
(-0.0025730087 0.027944373 0)
(-0.007713204 0.02788103 0)
(-0.012835943 0.027754457 0)
(-0.017929623 0.02756488 0)
(-0.022982691 0.027312635 0)
(-0.027983666 0.026998175 0)
(-0.032921161 0.026622065 0)
(-0.0377839 0.026184987 0)
(-0.042560742 0.025687736 0)
(-0.047240702 0.025131225 0)
(-0.051812972 0.024516486 0)
(-0.05626694 0.023844666 0)
(-0.060592216 0.023117035 0)
(-0.064778654 0.022334979 0)
(-0.068816369 0.021500007 0)
(-0.072695764 0.020613747 0)
(-0.076407551 0.019677947 0)
(-0.079942771 0.018694477 0)
(-0.08329282 0.017665324 0)
(-0.086449469 0.016592593 0)
(-0.089404883 0.015478508 0)
(-0.092151648 0.014325406 0)
(-0.094682789 0.013135734 0)
(-0.096991789 0.011912051 0)
(-0.099072611 0.01065702 0)
(-0.10091972 0.0093734064 0)
(-0.10252809 0.0080640718 0)
(-0.10389325 0.0067319701 0)
(-0.10501125 0.0053801418 0)
(-0.10587873 0.0040117077 0)
(-0.1064929 0.0026298629 0)
(-0.10685158 0.0012378694 0)
(-0.10695318 -0.00016095083 0)
(-0.10679673 -0.0015632247 0)
(-0.10638189 -0.0029655354 0)
(-0.10570895 -0.0043644309 0)
(-0.10477884 -0.0057564328 0)
(-0.10359313 -0.0071380461 0)
(-0.10215404 -0.0085057684 0)
(-0.10046443 -0.0098561001 0)
(-0.098527814 -0.011185554 0)
(-0.096348332 -0.012490666 0)
(-0.093930773 -0.013768007 0)
(-0.091280549 -0.01501419 0)
(-0.088403696 -0.016225885 0)
(-0.085306855 -0.017399826 0)
(-0.081997268 -0.018532828 0)
(-0.078482753 -0.019621789 0)
(-0.074771696 -0.020663709 0)
(-0.070873027 -0.021655699 0)
(-0.066796198 -0.022594986 0)
(-0.062551166 -0.023478931 0)
(-0.05814836 -0.024305034 0)
(-0.053598661 -0.025070948 0)
(-0.048913369 -0.025774484 0)
(-0.044104176 -0.02641362 0)
(-0.03918313 -0.026986515 0)
(-0.034162606 -0.027491508 0)
(-0.029055269 -0.027927133 0)
(-0.023874038 -0.028292119 0)
(-0.018632048 -0.028585401 0)
(-0.013342615 -0.028806119 0)
(-0.0080191924 -0.028953625 0)
(-0.0026753368 -0.029027487 0)
(0.0026753368 -0.029027487 0)
(0.0080191925 -0.028953625 0)
(0.013342615 -0.028806119 0)
(0.018632048 -0.028585401 0)
(0.023874038 -0.028292119 0)
(0.029055269 -0.027927133 0)
(0.034162606 -0.027491508 0)
(0.03918313 -0.026986515 0)
(0.044104176 -0.02641362 0)
(0.048913369 -0.025774484 0)
(0.053598661 -0.025070948 0)
(0.05814836 -0.024305034 0)
(0.062551166 -0.023478931 0)
(0.066796198 -0.022594986 0)
(0.070873027 -0.021655698 0)
(0.074771696 -0.020663709 0)
(0.078482753 -0.019621789 0)
(0.081997268 -0.018532828 0)
(0.085306855 -0.017399826 0)
(0.088403696 -0.016225885 0)
(0.091280549 -0.01501419 0)
(0.093930773 -0.013768007 0)
(0.096348332 -0.012490666 0)
(0.098527814 -0.011185554 0)
(0.10046443 -0.0098561 0)
(0.10215404 -0.0085057684 0)
(0.10359313 -0.0071380461 0)
(0.10477884 -0.0057564328 0)
(0.10570895 -0.0043644309 0)
(0.10638189 -0.0029655354 0)
(0.10679673 -0.0015632247 0)
(0.10695318 -0.00016095082 0)
(0.10685158 0.0012378694 0)
(0.1064929 0.0026298629 0)
(0.10587873 0.0040117078 0)
(0.10501125 0.0053801418 0)
(0.10389325 0.0067319702 0)
(0.10252809 0.0080640718 0)
(0.10091972 0.0093734064 0)
(0.099072611 0.01065702 0)
(0.096991789 0.011912051 0)
(0.094682789 0.013135734 0)
(0.092151648 0.014325406 0)
(0.089404883 0.015478508 0)
(0.086449469 0.016592593 0)
(0.08329282 0.017665324 0)
(0.079942771 0.018694477 0)
(0.076407551 0.019677947 0)
(0.072695764 0.020613747 0)
(0.068816369 0.021500007 0)
(0.064778654 0.022334979 0)
(0.060592216 0.023117035 0)
(0.056266939 0.023844666 0)
(0.051812971 0.024516486 0)
(0.047240702 0.025131225 0)
(0.042560742 0.025687736 0)
(0.0377839 0.026184987 0)
(0.032921161 0.026622065 0)
(0.027983666 0.026998175 0)
(0.022982691 0.027312635 0)
(0.017929623 0.02756488 0)
(0.012835943 0.027754457 0)
(0.0077132039 0.02788103 0)
(0.0025730087 0.027944373 0)
(-0.0025897967 0.033103066 0)
(-0.0077635346 0.033028054 0)
(-0.012919717 0.032878162 0)
(-0.018046673 0.032653656 0)
(-0.023132785 0.032354935 0)
(-0.028166505 0.031982534 0)
(-0.033136378 0.031537121 0)
(-0.038031062 0.0310195 0)
(-0.042839351 0.030430613 0)
(-0.047550191 0.029771537 0)
(-0.052152707 0.029043493 0)
(-0.056636224 0.028247838 0)
(-0.060990285 0.027386071 0)
(-0.065204677 0.026459835 0)
(-0.069269451 0.025470911 0)
(-0.073174947 0.024421227 0)
(-0.076911811 0.023312852 0)
(-0.080471025 0.022147995 0)
(-0.083843924 0.020929011 0)
(-0.087022217 0.019658392 0)
(-0.089998016 0.018338767 0)
(-0.092763849 0.016972905 0)
(-0.095312689 0.015563703 0)
(-0.097637969 0.014114191 0)
(-0.099733604 0.012627523 0)
(-0.10159401 0.011106973 0)
(-0.10321413 0.009555931 0)
(-0.10458944 0.0079778953 0)
(-0.10571597 0.0063764675 0)
(-0.10659032 0.0047553442 0)
(-0.10720968 0.0031183103 0)
(-0.10757183 0.00146923 0)
(-0.10767517 -0.00018796163 0)
(-0.10751872 -0.0018492682 0)
(-0.10710213 -0.0035106415 0)
(-0.10642567 -0.0051679918 0)
(-0.10549028 -0.0068171979 0)
(-0.10429753 -0.0084541189 0)
(-0.10284964 -0.010074605 0)
(-0.10114949 -0.011674509 0)
(-0.099200596 -0.013249699 0)
(-0.097007131 -0.014796071 0)
(-0.094573905 -0.016309559 0)
(-0.09190636 -0.017786151 0)
(-0.089010565 -0.019221898 0)
(-0.085893203 -0.020612932 0)
(-0.082561556 -0.021955474 0)
(-0.079023495 -0.02324585 0)
(-0.075287457 -0.024480502 0)
(-0.07136243 -0.025656002 0)
(-0.067257932 -0.026769066 0)
(-0.062983983 -0.027816562 0)
(-0.058551088 -0.028795528 0)
(-0.053970201 -0.029703177 0)
(-0.049252703 -0.030536914 0)
(-0.044410371 -0.031294341 0)
(-0.03945534 -0.031973273 0)
(-0.034400077 -0.032571741 0)
(-0.02925734 -0.033088004 0)
(-0.024040146 -0.033520556 0)
(-0.018761729 -0.033868131 0)
(-0.013435504 -0.03412971 0)
(-0.008075031 -0.034304525 0)
(-0.0026939671 -0.034392061 0)
(0.0026939671 -0.034392061 0)
(0.008075031 -0.034304525 0)
(0.013435505 -0.03412971 0)
(0.018761729 -0.033868131 0)
(0.024040146 -0.033520556 0)
(0.029257341 -0.033088004 0)
(0.034400077 -0.032571741 0)
(0.03945534 -0.031973273 0)
(0.044410371 -0.031294341 0)
(0.049252703 -0.030536914 0)
(0.053970201 -0.029703177 0)
(0.058551088 -0.028795528 0)
(0.062983983 -0.027816562 0)
(0.067257932 -0.026769066 0)
(0.07136243 -0.025656002 0)
(0.075287457 -0.024480501 0)
(0.079023495 -0.02324585 0)
(0.082561556 -0.021955474 0)
(0.085893203 -0.020612932 0)
(0.089010565 -0.019221898 0)
(0.09190636 -0.017786151 0)
(0.094573905 -0.016309559 0)
(0.097007131 -0.014796071 0)
(0.099200596 -0.013249699 0)
(0.10114949 -0.011674509 0)
(0.10284964 -0.010074605 0)
(0.10429753 -0.0084541188 0)
(0.10549028 -0.0068171979 0)
(0.10642567 -0.0051679918 0)
(0.10710213 -0.0035106415 0)
(0.10751872 -0.0018492682 0)
(0.10767517 -0.00018796162 0)
(0.10757183 0.00146923 0)
(0.10720968 0.0031183103 0)
(0.10659032 0.0047553442 0)
(0.10571597 0.0063764675 0)
(0.10458944 0.0079778954 0)
(0.10321413 0.009555931 0)
(0.10159401 0.011106973 0)
(0.099733604 0.012627523 0)
(0.097637969 0.014114191 0)
(0.095312689 0.015563703 0)
(0.092763849 0.016972905 0)
(0.089998016 0.018338767 0)
(0.087022217 0.019658392 0)
(0.083843924 0.020929011 0)
(0.080471025 0.022147995 0)
(0.076911811 0.023312852 0)
(0.073174947 0.024421227 0)
(0.069269451 0.025470911 0)
(0.065204677 0.026459835 0)
(0.060990285 0.027386071 0)
(0.056636224 0.028247838 0)
(0.052152707 0.029043493 0)
(0.047550191 0.029771537 0)
(0.042839351 0.030430613 0)
(0.038031062 0.0310195 0)
(0.033136378 0.031537121 0)
(0.028166505 0.031982534 0)
(0.023132785 0.032354935 0)
(0.018046673 0.032653656 0)
(0.012919717 0.032878162 0)
(0.0077635346 0.033028054 0)
(0.0025897966 0.033103066 0)
(-0.0026090642 0.038297785 0)
(-0.0078212989 0.038211031 0)
(-0.013015863 0.038037676 0)
(-0.01818101 0.037778028 0)
(-0.023305045 0.037432546 0)
(-0.028376343 0.037001846 0)
(-0.033383373 0.0364867 0)
(-0.038314717 0.035888036 0)
(-0.04315909 0.035206939 0)
(-0.047905364 0.034444655 0)
(-0.052542586 0.03360259 0)
(-0.057060005 0.032682313 0)
(-0.061447089 0.031685555 0)
(-0.065693548 0.03061421 0)
(-0.06978936 0.029470339 0)
(-0.07372479 0.028256166 0)
(-0.077490414 0.026974083 0)
(-0.08107714 0.025626643 0)
(-0.084476233 0.024216567 0)
(-0.087679338 0.022746734 0)
(-0.090678498 0.021220185 0)
(-0.093466179 0.01964012 0)
(-0.096035292 0.018009891 0)
(-0.098379214 0.016332999 0)
(-0.1004918 0.014613094 0)
(-0.10236743 0.012853962 0)
(-0.10400098 0.011059523 0)
(-0.1053879 0.0092338248 0)
(-0.10652416 0.0073810337 0)
(-0.10740634 0.0055054264 0)
(-0.1080316 0.0036113814 0)
(-0.10839769 0.0017033694 0)
(-0.10850299 -0.00021405681 0)
(-0.1083465 -0.0021362732 0)
(-0.10792784 -0.0040585958 0)
(-0.10724731 -0.0059762922 0)
(-0.10630582 -0.007884594 0)
(-0.10510495 -0.0097787092 0)
(-0.10364693 -0.011653836 0)
(-0.10193465 -0.013505175 0)
(-0.099971653 -0.015327944 0)
(-0.097762127 -0.017117394 0)
(-0.095310912 -0.018868819 0)
(-0.092623485 -0.020577574 0)
(-0.089705956 -0.022239089 0)
(-0.086565052 -0.023848886 0)
(-0.083208106 -0.025402589 0)
(-0.079643044 -0.026895945 0)
(-0.075878365 -0.028324833 0)
(-0.071923125 -0.029685286 0)
(-0.067786911 -0.030973497 0)
(-0.063479823 -0.032185842 0)
(-0.059012445 -0.033318886 0)
(-0.054395821 -0.034369404 0)
(-0.049641424 -0.035334387 0)
(-0.044761123 -0.036211059 0)
(-0.039767159 -0.036996885 0)
(-0.034672098 -0.037689586 0)
(-0.029488809 -0.038287143 0)
(-0.024230418 -0.038787811 0)
(-0.018910273 -0.039190123 0)
(-0.013541906 -0.039492898 0)
(-0.0081389914 -0.039695244 0)
(-0.0027153071 -0.039796567 0)
(0.0027153072 -0.039796567 0)
(0.0081389914 -0.039695244 0)
(0.013541906 -0.039492898 0)
(0.018910273 -0.039190123 0)
(0.024230418 -0.038787811 0)
(0.029488809 -0.038287143 0)
(0.034672098 -0.037689586 0)
(0.039767159 -0.036996885 0)
(0.044761124 -0.036211059 0)
(0.049641424 -0.035334387 0)
(0.054395821 -0.034369404 0)
(0.059012445 -0.033318886 0)
(0.063479823 -0.032185842 0)
(0.067786911 -0.030973497 0)
(0.071923125 -0.029685286 0)
(0.075878366 -0.028324833 0)
(0.079643044 -0.026895945 0)
(0.083208106 -0.025402589 0)
(0.086565052 -0.023848886 0)
(0.089705956 -0.022239089 0)
(0.092623485 -0.020577574 0)
(0.095310912 -0.018868819 0)
(0.097762127 -0.017117394 0)
(0.099971653 -0.015327944 0)
(0.10193465 -0.013505175 0)
(0.10364693 -0.011653836 0)
(0.10510495 -0.0097787092 0)
(0.10630582 -0.007884594 0)
(0.10724731 -0.0059762922 0)
(0.10792784 -0.0040585958 0)
(0.1083465 -0.0021362732 0)
(0.10850299 -0.00021405679 0)
(0.10839769 0.0017033694 0)
(0.1080316 0.0036113814 0)
(0.10740634 0.0055054264 0)
(0.10652416 0.0073810337 0)