/*--------------------------------*- C++ -*----------------------------------*\
| =========                 |                                                 |
| \\      /  F ield         | OpenFOAM: The Open Source CFD Toolbox           |
|  \\    /   O peration     | Version:  2306                                  |
|   \\  /    A nd           | Website:  www.openfoam.com                      |
|    \\/     M anipulation  |                                                 |
\*---------------------------------------------------------------------------*/
FoamFile
{
    version     2.0;
    format      ascii;
    arch        "LSB;label=32;scalar=64";
    class       volVectorField;
    location    "0.27";
    object      U_0;
}
// * * * * * * * * * * * * * * * * * * * * * * * * * * * * * * * * * * * * * //

dimensions      [0 1 -1 0 0 0 0];

internalField   nonuniform List<vector> 
6400
(
(0.0010670089 0.019203507 1.3891466e-18)
(0.0023411122 0.019037302 -4.9057946e-18)
(0.0037989125 0.018559385 1.137401e-17)
(0.0051421103 0.017849579 1.7769441e-18)
(0.0064194462 0.016924045 1.5286706e-17)
(0.0075805738 0.015801319 -6.0556413e-18)
(0.0086012233 0.014503189 -6.781909e-19)
(0.0094602719 0.013054185 2.4413469e-19)
(0.010140152 0.011483085 -5.1721025e-18)
(0.010628012 0.0098220248 3.098789e-18)
(0.010916665 0.0081053384 -2.207683e-19)
(0.011004781 0.0063688114 1.0564025e-18)
(0.010896853 0.0046476134 2.0214051e-18)
(0.010602705 0.0029751946 3.8300942e-19)
(0.010136776 0.001382307 1.7323427e-18)
(0.0095179458 -0.00010402845 -1.3355926e-18)
(0.0087693375 -0.0014618791 2.9417631e-18)
(0.0079156581 -0.0026745671 1.42045e-18)
(0.0069818073 -0.0037306378 9.7833348e-19)
(0.0059928559 -0.0046237577 2.9625828e-18)
(0.0049728962 -0.0053520313 2.2494768e-18)
(0.0039441436 -0.0059180399 1.5227084e-18)
(0.0029267935 -0.0063280226 1.0077116e-18)
(0.0019382906 -0.0065902747 7.2359993e-19)
(0.00099288734 -0.0067162013 1.4184135e-18)
(0.00010553935 -0.0067178458 1.687232e-18)
(-0.00071397231 -0.0066108535 -1.332909e-19)
(-0.0014611591 -0.0064084353 2.697042e-19)
(-0.0021310129 -0.0061248974 1.278099e-18)
(-0.0027210389 -0.0057740883 2.3635622e-18)
(-0.0032306167 -0.0053692388 1.6094769e-18)
(-0.0036607274 -0.0049227634 -1.0326006e-19)
(-0.0040136588 -0.0044461012 -1.7147736e-19)
(-0.0042927453 -0.0039496258 6.8318436e-19)
(-0.0045021307 -0.003442595 1.8151459e-18)
(-0.0046465564 -0.0029331287 -1.4402933e-21)
(-0.0047311404 -0.002428254 -8.3628933e-19)
(-0.0047612705 -0.0019339493 3.0177735e-20)
(-0.0047424 -0.0014551784 3.0630123e-19)
(-0.0046799555 -0.00099598752 1.3856608e-18)
(-0.0045792565 -0.00055958357 1.0436222e-18)
(-0.0044453807 -0.00014837229 1.0094878e-19)
(-0.0042834226 0.0002359442 -1.2318632e-18)
(-0.0040980488 0.00059221076 -8.9106369e-19)
(-0.0038934087 0.00091980548 -5.3185492e-20)
(-0.0036734737 0.0012185616 -2.3366468e-19)
(-0.0034418685 0.0014886883 -8.1664742e-19)
(-0.0032018732 0.0017307095 -9.1953381e-19)
(-0.0029564317 0.0019454053 -1.0195062e-18)
(-0.0027081625 0.0021337608 -2.6235346e-19)
(-0.0024593732 0.0022969201 2.6589708e-19)
(-0.0022120772 0.0024361454 -9.5051163e-20)
(-0.0019680121 0.0025527819 -1.0606027e-19)
(-0.0017286598 0.0026482263 -3.1418359e-19)
(-0.0014952707 0.0027239044 -5.3133558e-21)
(-0.0012688761 0.0027812476 4.4781539e-19)
(-0.0010503048 0.0028216641 3.4098638e-19)
(-0.00084021584 0.0028465442 -7.1945943e-20)
(-0.00063911836 0.0028572364 -3.8869728e-19)
(-0.00044737029 0.0028550261 -7.8385252e-20)
(-0.00026521005 0.0028411621 2.3450024e-19)
(-9.2781811e-05 0.0028168147 5.118616e-20)
(6.9776497e-05 0.0027831896 -4.1571918e-19)
(0.00022256616 0.0027412232 -4.2945672e-19)
(0.00036577805 0.0026919465 8.8085975e-20)
(0.00049950535 0.0026362701 1.989954e-19)
(0.00062395508 0.002575041 1.9970428e-19)
(0.0007393719 0.0025090442 3.7483107e-20)
(0.0008460309 0.0024390028 -1.2563001e-19)
(0.0009442308 0.0023655803 1.9211022e-19)
(0.0010342884 0.0022893837 3.1734394e-19)
(0.0011165331 0.0022109656 -8.50405e-20)
(0.0011913025 0.0021308285 -1.4721377e-19)
(0.0012589389 0.0020494267 -2.2585378e-19)
(0.0013197855 0.0019671702 6.2487168e-20)
(0.0013741842 0.0018844269 6.0155331e-20)
(0.0014224727 0.0018015266 -9.8083702e-21)
(0.0014649831 0.0017187628 -8.8013979e-20)
(0.0015020403 0.0016363964 -1.1411592e-19)
(0.0015339602 0.0015546577 -4.4981333e-20)
(0.00091079374 0.016420247 -2.3480817e-18)
(0.0020006443 0.016279259 2.4314836e-17)
(0.0032464583 0.015871141 6.1395879e-18)
(0.0043941081 0.015265053 3.9572944e-18)
(0.0054850753 0.01447475 -5.8937003e-18)
(0.0064760339 0.013517039 -5.3458554e-18)
(0.0073471833 0.012410865 2.8544123e-18)
(0.0080812087 0.011177558 -3.245193e-18)
(0.0086638685 0.0098412745 2.1198253e-18)
(0.0090848117 0.0084289023 2.9358578e-18)
(0.0093384611 0.0069689432 -9.5054222e-19)
(0.0094233479 0.0054908847 6.0165493e-19)
(0.0093430302 0.00402364 7.277306e-19)
(0.0091056338 0.0025948072 9.6764873e-20)
(0.0087227092 0.0012302042 5.7997191e-19)
(0.0082092939 -4.7853247e-05 1.6705982e-18)
(0.0075838396 -0.0012205987 1.4136217e-18)
(0.0068664596 -0.002273586 6.9276381e-19)
(0.0060775144 -0.0031965149 1.9928953e-18)
(0.0052377388 -0.0039831273 1.0639206e-18)
(0.004367151 -0.0046310508 -2.8563985e-19)
(0.0034843857 -0.0051414106 1.1420893e-18)
(0.0026068864 -0.0055183661 1.3863323e-18)
(0.0017496889 -0.0057683329 1.4996477e-18)
(0.00092535706 -0.0058999695 2.4112608e-18)
(0.00014675786 -0.0059228212 1.5174168e-18)
(-0.00057696187 -0.0058494565 1.2881692e-18)
(-0.0012408543 -0.0056908785 1.6906324e-18)
(-0.0018402333 -0.0054589627 3.2316521e-18)
(-0.0023721969 -0.0051653862 8.2494489e-19)
(-0.0028355486 -0.0048214346 1.9625444e-19)
(-0.0032305061 -0.0044378141 1.1104956e-18)
(-0.0035584684 -0.0040244978 1.1690323e-18)
(-0.0038218052 -0.0035906273 2.3944771e-18)
(-0.0040236478 -0.0031444545 -8.656338e-19)
(-0.0041677219 -0.0026933044 -3.4706172e-19)
(-0.0042581955 -0.0022435883 4.8698099e-19)
(-0.0042994801 -0.001800838 8.7250788e-19)
(-0.004296119 -0.0013696803 1.3979394e-18)
(-0.0042527407 -0.00095399985 -9.2360737e-19)
(-0.0041739114 -0.00055690803 -1.2667991e-18)
(-0.0040640671 -0.00018086599 -9.2476231e-19)
(-0.003927601 0.0001722775 -1.4819971e-18)
(-0.0037686213 0.00050132727 -1.0251342e-18)
(-0.0035908926 0.00080546923 -3.7046443e-19)
(-0.0033979706 0.0010843187 -3.1025911e-19)
(-0.003193137 0.001337851 -9.2618223e-19)
(-0.0029793896 0.0015663433 -1.2734038e-18)
(-0.0027594428 0.0017703238 -1.0263941e-18)
(-0.002535732 0.0019505248 -3.8160146e-19)
(-0.0023104231 0.0021078414 -9.9893419e-20)
(-0.002085424 0.0022432944 -4.0648522e-19)
(-0.0018623985 0.0023579973 -3.1791797e-19)
(-0.0016427821 0.0024531272 -4.7348405e-19)
(-0.0014278015 0.0025299028 -3.6221113e-19)
(-0.0012184883 0.002589564 3.1930834e-20)
(-0.0010156838 0.0026333423 8.0326375e-20)
(-0.00082007073 0.0026624631 -1.6080378e-20)
(-0.00063219928 0.002678128 -5.3539632e-19)
(-0.00045247329 0.0026814952 -5.8602501e-19)
(-0.00028117731 0.0026736854 -1.5618711e-19)
(-0.00011849969 0.0026557734 -2.4311434e-19)
(3.5346386e-05 0.0026287809 -5.1650218e-19)
(0.00018039081 0.0025937073 -4.9024508e-19)
(0.00031677606 0.0025514275 -2.0002201e-19)
(0.00044452896 0.0025027964 -2.7711179e-20)
(0.00056379661 0.0024486088 -1.9574269e-21)
(0.00067476464 0.002389603 -1.2645899e-19)
(0.00077765081 0.0023264626 -2.0616379e-19)
(0.0008726989 0.002259818 -1.9105815e-20)
(0.00096017294 0.0021902485 1.1922213e-19)
(0.0010403524 0.0021182848 -4.9927558e-20)
(0.0011135279 0.0020444113 -2.0714199e-19)
(0.0011799971 0.0019690688 -2.3096341e-19)
(0.0012400617 0.0018926566 -4.7002227e-20)
(0.0012940249 0.0018155358 -3.0473598e-20)
(0.0013421885 0.0017380315 -7.0130167e-20)
(0.001384851 0.0016604349 -1.6312966e-19)
(0.0014223063 0.0015830063 -1.4715354e-19)
(0.001454842 0.0015059773 -7.2378154e-20)
(0.00077761445 0.014042596 1.1629938e-18)
(0.0017096954 0.013922822 2.1939144e-17)
(0.0027745466 0.013574518 4.303859e-18)
(0.0037554675 0.013057214 -5.0529656e-18)
(0.0046878596 0.012382679 -6.7316327e-18)
(0.0055345772 0.011565808 2.0204386e-18)
(0.0062793813 0.010622974 -1.3900889e-18)
(0.0069077931 0.0095725391 5.1279251e-19)
(0.0074081413 0.0084348232 -2.1202569e-18)
(0.0077719745 0.0072323612 9.6254455e-20)
(0.0079946609 0.0059888486 -1.6076129e-18)
(0.0080751581 0.0047285419 7.0629872e-19)
(0.0080161573 0.0034758892 7.5563202e-19)
(0.0078243505 0.0022535019 1.3729191e-18)
(0.0075088312 0.0010829116 2.5387987e-18)
(0.0070814657 -1.7177996e-05 -1.9551584e-18)
(0.0065574224 -0.0010307259 -3.3057747e-19)
(0.0059530323 -0.0019451829 3.1295085e-19)
(0.0052849967 -0.0027513112 1.248653e-18)
(0.0045704418 -0.0034432218 -1.4329181e-19)
(0.0038261197 -0.0040182054 -2.2934145e-19)
(0.0030677201 -0.0044764825 4.2590718e-19)
(0.0023101385 -0.0048205447 -1.3018172e-18)
(0.0015663042 -0.0050555049 5.4437586e-19)
(0.0008473649 -0.0051877801 1.1415263e-20)
(0.00016441101 -0.0052249853 -1.1349302e-18)
(-0.00047425154 -0.0051771269 -7.7974233e-19)
(-0.0010634932 -0.005053411 -4.4124718e-19)
(-0.0015989255 -0.0048636571 6.9233367e-19)
(-0.0020774569 -0.0046176953 9.0788259e-19)
(-0.0024975124 -0.0043251323 -2.9706917e-19)
(-0.0028587569 -0.0039951779 -9.6920863e-19)
(-0.0031619128 -0.0036365017 -6.9180974e-19)
(-0.0034085906 -0.00325713 -2.6152752e-19)
(-0.0036011187 -0.0028643803 7.1225756e-19)
(-0.0037424004 -0.002464834 8.8462795e-19)
(-0.0038357556 -0.0020643038 -8.5032019e-19)
(-0.0038847893 -0.0016678399 -2.7046618e-19)
(-0.0038933075 -0.0012797895 -6.8568693e-19)
(-0.0038652223 -0.00090382885 -8.491575e-20)
(-0.0038044384 -0.00054292588 1.2344456e-18)
(-0.0037147655 -0.00019949715 -2.7837429e-19)
(-0.0036000299 0.0001245841 -1.0771875e-18)
(-0.0034638664 0.00042799439 -6.3824521e-19)
(-0.0033096157 0.00070980982 -2.8052068e-19)
(-0.0031404621 0.00096949025 -1.924435e-19)
(-0.0029593683 0.0012068291 -6.6021592e-19)
(-0.0027690625 0.0014219053 -7.3778477e-19)
(-0.0025720345 0.0016150389 -5.1369685e-19)
(-0.0023705372 0.0017867499 -6.402058e-22)
(-0.002166591 0.0019377212 4.1138744e-20)
(-0.0019619919 0.0020687646 -1.8823873e-19)
(-0.0017583213 0.0021807914 -1.7375907e-19)
(-0.001556957 0.0022747852 -1.4946897e-19)
(-0.0013590896 0.0023517803 3.4825414e-19)
(-0.0011657366 0.0024128433 -6.6884989e-20)
(-0.00097774131 0.0024590483 -1.1142686e-19)
(-0.00079579649 0.0024914682 1.5874733e-19)
(-0.00062047631 0.0025111684 -4.3979675e-20)
(-0.00045221995 0.0025191911 -2.1124146e-21)
(-0.00029135161 0.0025165364 -3.0942921e-19)
(-0.00013811687 0.0025041705 -3.4324694e-19)
(7.2745533e-06 0.0024830167 -1.477365e-19)
(0.00014477512 0.002454027 -3.4705113e-20)
(0.00027442993 0.0024179844 1.4164857e-19)
(0.00039625206 0.0023756827 -1.5617636e-19)
(0.0005103321 0.0023278632 -1.2173354e-19)
(0.00061680277 0.0022752177 1.1253464e-19)
(0.00071583083 0.0022183893 9.3261755e-20)
(0.00080761082 0.0021579747 7.6317017e-20)
(0.0008923595 0.0020945244 -1.1430242e-19)
(0.00097031114 0.0020285455 -1.2809748e-19)
(0.0010417132 0.0019605031 -8.8643942e-20)
(0.0011068229 0.0018908225 2.3928565e-20)
(0.0011659037 0.0018198909 7.8921658e-20)
(0.0012192225 0.0017480604 -2.0115934e-19)
(0.0012670477 0.0016756494 -2.0119577e-19)
(0.0013096465 0.0016029453 -5.4746122e-20)
(0.0013472837 0.0015302059 5.7999593e-21)
(0.00138022 0.0014576623 2.8427276e-20)
(0.0006640844 0.012010993 -2.2419821e-18)
(0.0014612954 0.011909153 -7.4582599e-18)
(0.0023716993 0.011611904 2.1787393e-19)
(0.0032105547 0.011170416 5.2693385e-19)
(0.0040080096 0.010594667 2.5978113e-19)
(0.0047321132 0.0098978403 -1.4745489e-18)
(0.005369607 0.0090939048 2.0938329e-18)
(0.0059083651 0.0081984114 -2.96317e-18)
(0.0063386584 0.0072287444 7.2691355e-19)
(0.0066534711 0.0062035356 3.1589354e-18)
(0.0068489758 0.0051429275 4.6694683e-18)
(0.0069244793 0.0040670302 2.8850858e-18)
(0.0068818509 0.002995927 9.172661e-19)
(0.0067262622 0.0019487438 7.038471e-19)
(0.0064652956 0.00094334797 -3.5804533e-18)
(0.0061085673 -4.4298444e-06 3.1272653e-18)
(0.0056683083 -0.00088084519 7.4344912e-19)
(0.0051578975 -0.0016751291 -7.7058276e-19)
(0.0045910005 -0.0023789048 -6.6690561e-19)
(0.0039818465 -0.0029868213 -3.2859557e-18)
(0.0033443718 -0.0034959872 -4.6684857e-19)
(0.002691972 -0.0039059448 3.8091622e-19)
(0.0020372279 -0.0042182342 1.2592779e-18)
(0.0013912672 -0.0044366184 2.7795899e-18)
(0.00076410442 -0.004565888 9.0443811e-19)
(0.00016509484 -0.0046122161 -3.3656384e-19)
(-0.00039821976 -0.004583467 4.9036334e-19)
(-0.00092075646 -0.0044873408 1.0243754e-18)
(-0.0013984079 -0.0043319461 2.1291663e-18)
(-0.0018280517 -0.0041255463 1.9354886e-18)
(-0.0022078833 -0.0038763048 -5.4548618e-19)
(-0.0025371789 -0.0035921282 -4.4118041e-19)
(-0.0028161534 -0.003280533 1.6368952e-19)
(-0.003045825 -0.0029485461 4.3315707e-19)
(-0.003227879 -0.0026026367 1.700412e-18)
(-0.0033645361 -0.0022486831 -4.2931073e-19)
(-0.003458433 -0.0018919207 -8.051742e-19)
(-0.0035125169 -0.0015369763 -1.3759873e-19)
(-0.0035299566 -0.0011878692 4.8636125e-20)
(-0.0035140027 -0.00084801746 9.6237125e-19)
(-0.0034679613 -0.00052024854 -4.6107881e-20)
(-0.0033951701 -0.00020691469 -5.3703497e-19)
(-0.0032989357 9.0107679e-05 -1.5859615e-19)
(-0.0031824196 0.00036946337 -3.5635967e-19)
(-0.0030485995 0.00063014429 -6.0143792e-19)
(-0.0029003157 0.00087149433 -5.9192383e-19)
(-0.0027402321 0.001093167 -2.1611604e-19)
(-0.0025708207 0.0012950835 1.1426248e-20)
(-0.0023943558 0.0014773936 -2.2060598e-19)
(-0.002212911 0.0016404408 -2.1654489e-19)
(-0.002028361 0.0017847282 -3.413895e-19)
(-0.0018423864 0.0019108886 -6.4627254e-20)
(-0.0016564801 0.0020196577 -5.1976192e-20)
(-0.0014719552 0.0021118495 1.7623305e-19)
(-0.0012899573 0.0021883352 4.5036624e-19)
(-0.0011114782 0.0022500261 -5.336652e-19)
(-0.00093735284 0.0022978536 -4.1614401e-19)
(-0.00076827507 0.0023327545 -6.9569396e-20)
(-0.00060482618 0.0023556672 7.4699808e-20)
(-0.00044747397 0.0023675233 1.8495875e-19)
(-0.00029657979 0.002369215 -4.710682e-19)
(-0.00015241279 0.0023616146 -5.3353978e-19)
(-1.5197769e-05 0.0023455746 -2.1592668e-19)
(0.00011495477 0.0023219291 -6.4766162e-22)
(0.00023802704 0.0022914253 2.5865952e-19)
(0.00035400412 0.0022547914 -1.6120875e-19)
(0.000462931 0.0022127148 -2.4166974e-19)
(0.00056489519 0.0021658406 2.3990688e-20)
(0.00066001878 0.002114772 3.0852598e-20)
(0.00074845257 0.0020600708 1.3031086e-19)
(0.00083037108 0.0020022587 -1.1287343e-19)
(0.00090596795 0.0019418179 -2.6791873e-19)
(0.00097545171 0.001879193 -2.0213254e-19)
(0.0010390424 0.0018147927 -3.9165819e-20)
(0.0010969683 0.0017489906 1.2565285e-19)
(0.0011494633 0.0016821281 -1.0481964e-19)
(0.0011967645 0.0016145159 -2.314774e-19)
(0.00123911 0.0015464353 -1.4141837e-19)
(0.0012767373 0.0014781405 -1.2538167e-19)
(0.0013098816 0.0014098604 6.8016921e-20)
(0.00056744393 0.010274611 -5.6425708e-18)
(0.0012493847 0.010187895 -9.2645665e-18)
(0.0020280043 0.00993414 1.0972451e-18)
(0.002745629 0.0095572342 6.7097459e-18)
(0.0034281142 0.009065618 -2.2649795e-18)
(0.0040479721 0.0084708373 5.1080863e-18)
(0.0045940488 0.0077848019 5.0174606e-19)
(0.0050563783 0.0070208069 -3.8937661e-19)
(0.0054266917 0.0061934756 2.5987393e-18)
(0.0056993501 0.0053185238 -2.2537299e-19)
(0.0058711193 0.0044127144 -1.1303378e-18)
(0.0059409145 0.0034928958 -1.1162065e-18)
(0.0059103946 0.0025758539 6.8655722e-19)
(0.0057840355 0.0016776267 -2.3264833e-19)
(0.0055676303 0.00081323769 1.0237007e-18)
(0.0052689281 -3.9204092e-06 -2.8584336e-21)
(0.004898007 -0.00076207351 3.5959794e-19)
(0.0044658692 -0.0014519944 8.4024293e-19)
(0.0039837562 -0.0020662023 1.0754175e-18)
(0.0034633726 -0.0025997833 1.197813e-18)
(0.0029165477 -0.003049867 5.0194935e-19)
(0.0023545195 -0.0034154289 -8.2035039e-19)
(0.0017880144 -0.003697489 4.5154553e-19)
(0.0012267205 -0.0038985345 3.1939789e-19)
(0.00067932452 -0.0040223436 -4.4545141e-19)
(0.00015390474 -0.0040738599 6.711655e-19)
(-0.00034277129 -0.0040591959 1.638675e-19)
(-0.00080584823 -0.0039847878 5.6410927e-19)
(-0.0012314711 -0.0038573324 9.4566031e-19)
(-0.001616598 -0.0036837677 -1.2201604e-19)
(-0.001959304 -0.0034710211 -1.7233031e-19)
(-0.0022586036 -0.0032258679 -3.0588114e-19)
(-0.0025143404 -0.0029548109 1.0199582e-19)
(-0.0027270775 -0.0026639869 6.4530301e-19)
(-0.0028979898 -0.0023590993 2.2275118e-19)
(-0.0030287484 -0.0020453738 -9.0268101e-19)
(-0.0031214285 -0.0017275222 -6.8413242e-19)
(-0.003178414 -0.0014097475 -1.3832957e-19)
(-0.0032022994 -0.0010957244 1.1489623e-18)
(-0.0031958073 -0.00078860699 1.7744537e-20)
(-0.003161777 -0.00049111571 -7.3039063e-19)
(-0.0031030673 -0.00020549732 -6.6412321e-19)
(-0.00302251 6.6452368e-05 -1.2171117e-18)
(-0.0029228735 0.00032334284 -8.0093666e-19)
(-0.0028067961 0.00056411894 -5.1966043e-19)
(-0.0026768027 0.00078804575 2.6278009e-21)
(-0.0025352803 0.00099467221 7.6900576e-21)
(-0.0023844609 0.001183796 -4.5719593e-19)
(-0.0022264132 0.0013554302 -4.9414825e-19)
(-0.0020630377 0.0015097726 -3.2578838e-19)
(-0.001896066 0.0016471751 -1.8661329e-19)
(-0.0017270624 0.0017681185 -1.9051497e-20)
(-0.0015574278 0.001873187 -1.0102527e-19)
(-0.0013884056 0.0019630466 1.9897104e-19)
(-0.0012210898 0.0020384249 2.00942e-19)
(-0.0010564385 0.0021000955 -1.2058486e-19)
(-0.00089526933 0.0021488615 -1.1416545e-19)
(-0.00073826977 0.002185537 -1.3268467e-19)
(-0.00058602027 0.0022109469 1.4367353e-19)
(-0.00043900462 0.0022259134 2.1385991e-19)
(-0.00029760667 0.0022312359 -1.8899527e-19)
(-0.00016211583 0.0022277064 -3.2837703e-19)
(-3.2778963e-05 0.0022160852 -3.6448297e-19)
(9.0253373e-05 0.0021971306 -1.9366248e-20)
(0.00020691762 0.0021715316 2.3991479e-19)
(0.00031716679 0.0021399584 -3.3759253e-20)
(0.00042100805 0.0021030469 -1.0017825e-19)
(0.00051849027 0.0020613967 3.8753375e-20)
(0.00060969658 0.0020155716 7.4585458e-20)
(0.00069473942 0.0019660991 2.5404041e-19)
(0.00077375576 0.0019134712 -1.1368064e-20)
(0.00084690286 0.0018581451 -1.8967479e-19)
(0.00091435414 0.001800544 -1.6725321e-19)
(0.00097629594 0.0017410588 1.1846244e-20)
(0.0010329246 0.0016800487 1.7349627e-19)
(0.0010844435 0.0016178433 -5.4707095e-20)
(0.0011310607 0.0015547439 -1.8528514e-19)
(0.0011729874 0.0014910249 -1.5287941e-19)
(0.0012104355 0.0014269354 -5.1223715e-20)
(0.0012436168 0.0013627007 1.628711e-19)
(0.00048504973 0.0087899546 -5.5497308e-19)
(0.001068595 0.0087159693 1.9025696e-17)
(0.0017347389 0.0084992498 -5.9545971e-18)
(0.0023489135 0.0081772606 4.6327008e-18)
(0.0029332497 0.0077573406 9.8722779e-19)
(0.0034640839 0.0072493172 -2.2337986e-18)
(0.0039323261 0.0066635179 -3.3092234e-19)
(0.0043294906 0.0060111534 1.7389654e-18)
(0.004648553 0.0053045523 9.0560125e-19)
(0.004884669 0.0045569997 -1.4330006e-18)
(0.0050350917 0.0037824728 -1.741971e-18)
(0.0050991723 0.0029950762 6.6375775e-19)
(0.005077911 0.0022090236 -5.3936362e-20)
(0.0049747486 0.0014378533 -2.9833521e-19)
(0.0047946053 0.00069387824 3.7304091e-20)
(0.0045438179 -1.119553e-05 -1.5031984e-18)
(0.0042304693 -0.00066739739 -9.7590495e-20)
(0.0038636594 -0.0012666864 -1.0224241e-18)
(0.0034527034 -0.0018025881 -8.9894582e-19)
(0.0030072908 -0.0022705163 -2.9467968e-19)
(0.0025374258 -0.0026676481 -3.330814e-19)
(0.0020526065 -0.0029928149 -1.1451898e-18)
(0.0015619528 -0.0032463183 -1.1068811e-18)
(0.0010738059 -0.0034300898 -2.1982766e-18)
(0.00059572066 -0.0035468085 -2.0397993e-18)
(0.00013475445 -0.0036005635 -1.037454e-18)
(-0.00030306091 -0.0035960631 -2.1815166e-18)
(-0.00071323416 -0.0035386477 -1.6812217e-18)
(-0.0010921444 -0.0034338623 -1.1788403e-18)
(-0.0014368963 -0.0032875252 -9.6872093e-19)
(-0.0017455258 -0.0031055081 -1.2929077e-18)
(-0.0020168816 -0.0028936085 -1.8154843e-18)
(-0.0022505413 -0.0026574415 -8.9029106e-19)
(-0.0024467228 -0.0024023546 4.3532029e-20)
(-0.0026061976 -0.0021333614 -1.7933474e-19)
(-0.002730196 -0.0018550928 -7.1179317e-19)
(-0.0028203334 -0.0015717779 -7.0982384e-19)
(-0.0028785153 -0.0012872034 -7.6724376e-20)
(-0.0029068629 -0.0010047243 6.0777665e-19)
(-0.0029076757 -0.00072728123 4.5655185e-19)
(-0.0028833536 -0.00045742016 5.2893628e-19)
(-0.0028363096 -0.00019721423 -6.3547623e-19)
(-0.0027689902 5.1579634e-05 -1.2082038e-18)
(-0.0026838193 0.00028756734 -7.120492e-19)
(-0.0025831197 0.00050967888 -3.5152711e-19)
(-0.0024691287 0.00071712992 2.2278537e-19)
(-0.002343978 0.00090939437 -3.9460679e-19)
(-0.0022096763 0.0010861759 -6.928608e-19)
(-0.0020680984 0.0012473791 -2.3853792e-19)
(-0.0019209797 0.0013930827 -9.9731148e-20)
(-0.0017699125 0.0015235136 3.7749075e-20)
(-0.0016163463 0.0016390236 -1.8269967e-19)
(-0.0014615892 0.0017400672 -2.4756894e-19)
(-0.0013068117 0.0018271821 -1.4643123e-19)
(-0.0011530521 0.00190097 1.0460611e-19)
(-0.0010012279 0.0019620831 2.7878578e-19)
(-0.00085213359 0.0020112098 -4.9530934e-20)
(-0.0007064424 0.0020490536 -1.4872062e-19)
(-0.00056472879 0.0020763379 -1.168732e-19)
(-0.00042748414 0.0020937852 1.1772117e-19)
(-0.0002951009 0.0021021077 8.3604724e-21)
(-0.00016789048 0.0021020165 -3.4045551e-19)
(-4.6110805e-05 0.0020942001 -4.7617881e-19)
(7.0058083e-05 0.0020793407 -2.2327426e-19)
(0.0001805083 0.0020580683 1.8541165e-19)
(0.00028517156 0.0020309995 8.8308091e-21)
(0.00038402194 0.0019987206 -1.8490809e-19)
(0.00047707482 0.0019617875 -1.2031436e-19)
(0.00056437986 0.0019207254 2.8473187e-20)
(0.00064601592 0.0018760279 2.926947e-19)
(0.00072208691 0.0018281576 -1.167156e-20)
(0.00079271759 0.0017775461 -1.5685081e-19)
(0.00085804989 0.0017245952 -1.8217027e-19)
(0.00091823983 0.0016696773 -2.6144368e-20)
(0.00097345447 0.0016131362 1.7975761e-19)
(0.0010238693 0.001555289 -5.765535e-20)
(0.0010696661 0.0014964265 -1.6251395e-19)
(0.0011110309 0.0014368151 -1.2763744e-19)
(0.0011481521 0.0013766976 -1.1545274e-21)
(0.0011812189 0.0013162948 1.2118426e-19)
(0.00041483187 0.0075200652 4.1788962e-19)
(0.00091430838 0.0074569122 5.2159281e-18)
(0.0014844653 0.0072715489 3.6499332e-18)
(0.0020103378 0.0069962996 4.5449797e-19)
(0.0025108852 0.0066373327 -9.390142e-19)
(0.0029658459 0.0062031869 4.9525912e-20)
(0.0033675167 0.0057026092 3.8823496e-18)
(0.0037087809 0.0051450145 3.9564498e-20)
(0.0039836499 0.004540955 6.3456603e-19)
(0.0041881422 0.0039014761 2.6087068e-18)
(0.0043198496 0.003238526 1.0713661e-19)
(0.0043779479 0.0025638329 8.761244e-19)
(0.0043634542 0.0018892861 -3.4142076e-19)
(0.004278963 0.0012263503 5.3959604e-20)
(0.0041284327 0.00058559287 -3.7586075e-19)
(0.0039172302 -2.313807e-05 -1.2476084e-18)
(0.0036518108 -0.00059134091 6.1657574e-19)
(0.0033396631 -0.0011119605 4.3313487e-20)
(0.0029885647 -0.0015793875 5.0974965e-19)
(0.002606605 -0.0019893607 7.182961e-19)
(0.0022021823 -0.0023392523 -4.4817667e-19)
(0.0017834045 -0.0026277153 4.2437533e-19)
(0.0013579119 -0.0028547683 5.3365548e-19)
(0.00093301118 -0.0030216191 4.4506866e-19)
(0.00051522605 -0.0031303672 5.5389026e-19)
(0.00011064672 -0.0031841391 4.5728106e-19)
(-0.00027524358 -0.003186753 2.0552177e-19)
(-0.0006384174 -0.0031425441 5.0963358e-19)
(-0.00097549103 -0.003056114 1.1687689e-18)
(-0.001283747 -0.0029323385 3.0929573e-19)
(-0.0015612402 -0.0027761892 -3.1919237e-19)
(-0.0018067268 -0.0025926207 1.2604065e-19)
(-0.0020196001 -0.0023864747 4.6145213e-19)
(-0.0021998204 -0.0021624023 1.0034526e-18)
(-0.0023478466 -0.0019248026 9.7800107e-20)
(-0.0024645634 -0.0016777737 2.516699e-19)
(-0.0025511992 -0.001425088 5.91458e-19)
(-0.0026092688 -0.0011701579 7.5957616e-19)
(-0.0026405236 -0.00091603681 1.1269987e-18)
(-0.0026468696 -0.00066541339 1.1528338e-18)
(-0.0026302774 -0.00042063639 7.7649296e-19)
(-0.0025928238 -0.0001836935 -6.5108589e-19)
(-0.0025366584 4.3762929e-05 -1.0231911e-18)
(-0.0024638647 0.00026036277 -5.3812281e-19)
(-0.0023764714 0.00046503782 2.4295842e-19)
(-0.0022764598 0.00065697744 3.1480278e-19)
(-0.0021657293 0.00083560512 -5.3707866e-19)
(-0.0020460823 0.0010005547 -5.6612781e-19)
(-0.0019192127 0.0011516463 -9.4637133e-20)
(-0.0017866995 0.0012888631 3.7939991e-19)
(-0.0016500016 0.0014123287 3.0870791e-19)
(-0.0015104565 0.0015222868 1.4504951e-20)
(-0.0013692803 0.0016190818 1.4385505e-20)
(-0.0012275691 0.0017031404 -2.3156947e-20)
(-0.001086303 0.0017749551 6.455135e-19)
(-0.00094635473 0.0018350713 4.1892939e-19)
(-0.00080849016 0.0018840751 3.6316124e-20)
(-0.00067336299 0.0019225715 2.7777315e-19)
(-0.0005415365 0.00195119 5.4057956e-20)
(-0.00041350374 0.0019705651 3.093602e-19)
(-0.00028966069 0.0019813367 1.6039286e-19)
(-0.00017032181 0.0019841265 -2.2217046e-19)
(-5.5763484e-05 0.0019795654 -1.1440341e-19)
(5.3806053e-05 0.0019682585 -1.235547e-20)
(0.00015825615 0.0019507875 3.4748442e-19)
(0.00025749637 0.0019277149 1.3549162e-19)
(0.00035147295 0.0018995797 -1.1254811e-19)
(0.00044017306 0.0018668957 1.4778091e-19)
(0.00052361745 0.0018301505 1.939646e-19)
(0.000601856 0.0017898049 2.6640551e-19)
(0.00067496349 0.0017462924 1.2297927e-19)
(0.00074303593 0.0017000192 8.3674649e-21)
(0.00080618727 0.0016513653 4.3324957e-20)
(0.00086454612 0.0016006844 8.0128358e-20)
(0.00091825323 0.0015483044 1.7632312e-19)
(0.0009674588 0.0014945289 3.1835317e-20)
(0.0010123203 0.0014396379 -8.9638961e-20)
(0.0010530006 0.0013838888 2.7745854e-21)
(0.0010896663 0.0013275172 6.6096558e-20)
(0.001122486 0.0012707385 5.9372196e-20)
(0.00035494523 0.0064334894 -1.1364864e-18)
(0.00078255576 0.0063794807 6.6184332e-19)
(0.001270688 0.0062208181 4.570064e-18)
(0.0017211519 0.0059853166 -2.886485e-18)
(0.0021501545 0.0056782204 1.4681835e-18)
(0.0025401794 0.0053068303 8.3216124e-18)
(0.0028848382 0.0048786477 -1.2886142e-18)
(0.0031782449 0.0044016775 2.1171475e-18)
(0.0034151514 0.0038846779 3.5769448e-18)
(0.0035921633 0.0033371444 -5.4922153e-19)
(0.0037071721 0.0027689857 1.5544428e-18)
(0.0037594675 0.0021902095 6.6015151e-19)
(0.0037497548 0.0016109247 -8.6794589e-20)
(0.0036802033 0.0010406375 5.9023565e-19)
(0.0035540648 0.0004883845 -1.3352244e-19)
(0.0033755917 -3.7453016e-05 2.1348077e-18)
(0.0031500991 -0.00052964959 -9.1417998e-20)
(0.0028837862 -0.00098197079 5.6203031e-19)
(0.0025831824 -0.0013895098 1.4991508e-18)
(0.0022549927 -0.0017484212 9.3832946e-20)
(0.0019063193 -0.0020562826 6.6410847e-19)
(0.0015440011 -0.002311589 5.7262766e-19)
(0.0011746168 -0.0025142901 3.160717e-20)
(0.0008044255 -0.0026648679 5.764139e-19)
(0.00043906483 -0.0027651932 3.3305268e-19)
(8.3890776e-05 -0.0028174125 -7.7728735e-20)
(-0.00025628756 -0.002824792 -1.7019437e-19)
(-0.0005777598 -0.0027907732 3.2436764e-19)
(-0.00087743935 -0.0027191771 1.0281805e-18)
(-0.0011527982 -0.0026140893 1.8767612e-19)
(-0.001401951 -0.0024797163 -2.448373e-19)
(-0.0016236153 -0.0023202889 -4.8392175e-19)
(-0.0018170651 -0.0021399772 3.4153451e-20)
(-0.0019820755 -0.0019428199 6.2455488e-19)
(-0.0021188643 -0.0017326689 1.2435814e-19)
(-0.0022280338 -0.0015131443 4.6341097e-19)
(-0.0023105125 -0.0012875957 -2.3450462e-19)
(-0.0023674886 -0.0010590915 2.4248065e-19)
(-0.0024003587 -0.00083040328 2.3097005e-19)
(-0.0024107161 -0.00060398568 -5.9495682e-19)
(-0.0024002616 -0.00038198303 -6.432504e-19)
(-0.0023707145 -0.00016628717 -6.4837861e-20)
(-0.0023239014 4.1546862e-05 4.2139274e-19)
(-0.0022616619 0.00024021011 -1.1363534e-19)
(-0.0021857605 0.00042864775 -1.9267948e-19)
(-0.0020979434 0.00060603944 -3.8020615e-19)
(-0.0019998981 0.00077177752 1.417143e-19)
(-0.0018932373 0.0009254461 4.5418441e-19)
(-0.0017794872 0.0010668009 5.382771e-21)
(-0.0016600799 0.0011957494 1.1375434e-19)
(-0.0015363478 0.0013123312 -1.8013418e-20)
(-0.0014095205 0.0014167002 2.2221501e-19)
(-0.0012807239 0.0015091074 2.0728977e-19)
(-0.0011509799 0.0015898847 3.0555739e-19)
(-0.0010212092 0.0016594299 6.9742303e-19)
(-0.0008922371 0.0017181953 2.008587e-20)
(-0.00076479751 0.0017666757 1.6661697e-19)
(-0.00063952091 0.0018053895 3.7534964e-19)
(-0.00051695457 0.0018348806 3.3495418e-19)
(-0.00039757854 0.0018557048 3.1027697e-19)
(-0.00028179776 0.0018684352 -1.2190849e-19)
(-0.00016993317 0.0018736201 -7.292683e-20)
(-6.2261524e-05 0.0018718166 4.5301602e-20)
(4.098992e-05 0.0018635769 1.505813e-19)
(0.00013966897 0.0018494326 2.551877e-19)
(0.00023366442 0.0018298936 3.6583786e-21)
(0.000322902 0.0018054543 -3.5844668e-20)
(0.00040734527 0.0017765886 1.7929718e-19)
(0.00048699031 0.0017437478 1.425856e-19)
(0.0005618618 0.0017073608 1.1385493e-19)
(0.00063200932 0.0016678325 3.6375339e-20)
(0.00069750364 0.0016255445 -5.2247422e-20)
(0.00075843371 0.0015808548 2.3400778e-20)
(0.00081490378 0.0015340983 9.0737978e-20)
(0.00086703073 0.0014855866 1.045156e-19)
(0.00091494184 0.0014356096 -1.1215006e-20)
(0.00095877253 0.0013844359 -1.4516378e-19)
(0.00099866452 0.001332313 -3.2788759e-20)
(0.0010347642 0.0012794688 -1.3809305e-20)
(0.0010672212 0.0012261126 -3.9128711e-21)
(0.0003038431 0.0055033417 1.3089528e-18)
(0.00067006205 0.0054570407 2.2084184e-18)
(0.0010881382 0.0053210997 -2.0474614e-18)
(0.0014741092 0.005119403 3.2214482e-18)
(0.0018417992 0.0048564539 1.1594453e-18)
(0.0021763037 0.0045385005 1.2670823e-18)
(0.0024722216 0.0041719505 3.65415e-19)
(0.0027243788 0.0037635475 3.2879098e-18)
(0.0029284089 0.0033206631 -9.3512743e-19)
(0.0030815057 0.0028514475 1.5146458e-18)
(0.0031817882 0.0023640871 2.0912691e-18)
(0.0032285941 0.0018671791 3.2090704e-19)
(0.0032224007 0.0013691353 8.109111e-19)
(0.0031647646 0.00087822518 6.7925401e-19)
(0.0030584846 0.00040191776 1.5046544e-19)
(0.0029071231 -5.2554155e-05 -5.1613373e-19)
(0.0027149939 -0.00047903298 4.077248e-19)
(0.0024872531 -0.00087200565 1.0773431e-19)
(0.0022293079 -0.0012271911 -6.6110714e-20)
(0.0019467467 -0.001541194 -5.9695756e-19)
(0.0016456404 -0.0018116922 -7.2713365e-19)
(0.0013317212 -0.0020372523 -1.3504702e-18)
(0.0010106561 -0.0022175498 -6.3623115e-19)
(0.00068781343 -0.0023528239 3.0897393e-19)
(0.00036808255 -0.0024445035 -7.5759894e-19)
(5.6132049e-05 -0.002494132 -1.0679729e-18)
(-0.00024382422 -0.0025044824 -9.3910559e-19)
(-0.00052833055 -0.0024782564 -7.2913157e-19)
(-0.00079463881 -0.0024186251 1.9815816e-20)
(-0.0010404128 -0.002329012 -1.0306703e-19)
(-0.001263853 -0.0022129746 -1.0158029e-18)