/*--------------------------------*- C++ -*----------------------------------*\
| =========                 |                                                 |
| \\      /  F ield         | OpenFOAM: The Open Source CFD Toolbox           |
|  \\    /   O peration     | Version:  2106                                  |
|   \\  /    A nd           | Website:  www.openfoam.com                      |
|    \\/     M anipulation  |                                                 |
\*---------------------------------------------------------------------------*/
FoamFile
{
    version     2.0;
    format      ascii;
    arch        "LSB;label=32;scalar=64";
    class       volScalarField;
    location    "0.014";
    object      p_rgh;
}
// * * * * * * * * * * * * * * * * * * * * * * * * * * * * * * * * * * * * * //

dimensions      [1 -1 -2 0 0 0 0];

internalField   nonuniform List<scalar> 
65536
(
-3.9944638
-3.9921241
-3.9874459
-3.9804318
-3.9710855
-3.959412
-3.9454175
-3.9291097
-3.9104971
-3.88959
-3.8663994
-3.8409378
-3.8132191
-3.783258
-3.7510709
-3.716675
-3.6800891
-3.6413329
-3.6004274
-3.557395
-3.512259
-3.4650441
-3.415776
-3.3644817
-3.3111894
-3.2559282
-3.1987287
-3.1396224
-3.078642
-3.0158211
-2.9511948
-2.884799
-2.8166706
-2.7468479
-2.6753698
-2.6022766
-2.5276093
-2.4514103
-2.3737224
-2.2945899
-2.2140577
-2.1321716
-2.0489786
-1.9645263
-1.8788632
-1.7920386
-1.7041027
-1.6151063
-1.5251012
-1.4341397
-1.3422748
-1.2495604
-1.1560507
-1.0618007
-0.96686607
-0.8713028
-0.77516751
-0.67851729
-0.58140968
-0.48390261
-0.38605422
-0.28792276
-0.18956867
-0.091055969
0.0075653207
0.1062393
0.20489255
0.30347029
0.40191347
0.50016182
0.59815509
0.69583321
0.79313616
0.89000404
0.98637708
1.0821957
1.1774007
1.2719329
1.3657335
1.4587442
1.550907
1.6421643
1.732459
1.8217346
1.9099349
1.9970045
2.0828886
2.1675331
2.2508845
2.3328902
2.4134981
2.4926572
2.5703173
2.646429
2.7209439
2.7938145
2.8649944
2.934438
3.0021012
3.0679405
3.1319139
3.1939803
3.2541
3.3122343
3.368346
3.4223988
3.4743582
3.5241906
3.5718639
3.6173473
3.6606117
3.701629
3.7403728
3.776818
3.810941
3.8427199
3.8721341
3.8991645
3.9237936
3.9460055
3.9657859
3.9831218
3.9980021
4.0104171
4.0203587
4.0278206
4.0327979
4.0352874
4.0352874
4.0327979
4.0278206
4.0203587
4.0104171
3.9980021
3.9831218
3.9657858
3.9460055
3.9237936
3.8991645
3.8721341
3.8427199
3.810941
3.776818
3.7403728
3.701629
3.6606117
3.6173474
3.5718639
3.5241906
3.4743582
3.4223988
3.368346
3.3122343
3.2541
3.1939803
3.1319139
3.0679405
3.0021012
2.9344381
2.8649944
2.7938145
2.7209439
2.646429
2.5703173
2.4926572
2.4134981
2.3328902
2.2508845
2.1675331
2.0828886
1.9970045
1.9099348
1.8217345
1.732459
1.6421643
1.550907
1.4587442
1.3657335
1.2719328
1.1774007
1.0821957
0.98637708
0.89000404
0.79313616
0.69583322
0.5981551
0.50016182
0.40191348
0.30347029
0.20489256
0.1062393
0.0075653266
-0.091055963
-0.18956866
-0.28792276
-0.38605421
-0.48390261
-0.58140968
-0.67851728
-0.7751675
-0.87130279
-0.96686606
-1.0618007
-1.1560507
-1.2495604
-1.3422748
-1.4341397
-1.5251012
-1.6151063
-1.7041027
-1.7920386
-1.8788632
-1.9645263
-2.0489787
-2.1321717
-2.2140577
-2.2945899
-2.3737224
-2.4514103
-2.5276094
-2.6022766
-2.6753698
-2.7468479
-2.8166706
-2.884799
-2.9511948
-3.0158211
-3.078642
-3.1396224
-3.1987287
-3.2559282
-3.3111894
-3.3644817
-3.415776
-3.4650441
-3.512259
-3.557395
-3.6004274
-3.6413329
-3.6800891
-3.716675
-3.7510709
-3.783258
-3.8132191
-3.8409378
-3.8663994
-3.88959
-3.9104971
-3.9291097
-3.9454175
-3.959412
-3.9710855
-3.9804318
-3.9874459
-3.9921241
-3.9944638
-3.9961698
-3.9938291
-3.9891488
-3.9821316
-3.9727811
-3.9611025
-3.9471019
-3.9307868
-3.9121661
-3.8912497
-3.8680489
-3.8425762
-3.8148452
-3.784871
-3.7526697
-3.7182587
-3.6816567
-3.6428835
-3.6019601
-3.5589088
-3.513753
-3.4665174
-3.4172278
-3.365911
-3.3125954
-3.2573101
-3.2000857
-3.1409536
-3.0799466
-3.0170984
-2.952444
-2.8860193
-2.8178615
-2.7480084
-2.6764994
-2.6033746
-2.5286752
-2.4524432
-2.3747219
-2.2955554
-2.2149886
-2.1330675
-2.0498389
-1.9653505
-1.8796508
-1.7927893
-1.704816
-1.6157819
-1.5257386
-1.4347386
-1.342835
-1.2500815
-1.1565325
-1.0622431
-0.96726871
-0.87166554
-0.77549022
-0.67879985
-0.58165201
-0.48410467
-0.38621614
-0.28804508
-0.18965131
-0.091095286
0.0075692335
0.10627902
0.20497217
0.30359019
0.40207329
0.50036126
0.59839393
0.69611121
0.79345304
0.89035951
0.98677084
1.0826274
1.17787
1.2724394
1.3662768
1.4593239
1.5515227
1.6428155
1.7331452
1.8224552
1.9106895
1.9977925
2.0837096
2.1683864
2.2517695
2.3338062
2.4144446
2.4936336
2.5713229
2.6474631
2.7220058
2.7949035
2.8661098
2.9355793
3.0032674
3.069131
3.1331278
3.195217
3.2553586
3.3135141
3.3696461
3.4237186
3.4756967
3.5255471
3.5732376
3.6187374
3.6620173
3.7030492
3.7418068
3.778265
3.8124002
3.8441904
3.873615
3.900655
3.9252928
3.9475126
3.9672999
3.984642
3.9995275
4.0119469
4.021892
4.0293566
4.0343356
4.0368259
4.0368259
4.0343356
4.0293566
4.021892
4.0119468
3.9995275
3.9846419
3.9672999
3.9475126
3.9252928
3.900655
3.873615
3.8441904
3.8124002
3.778265
3.7418068
3.7030492
3.6620173
3.6187374
3.5732376
3.5255471
3.4756967
3.4237186
3.3696461
3.3135141
3.2553586
3.195217
3.1331278
3.069131
3.0032674
2.9355793
2.8661098
2.7949035
2.7220058
2.6474631
2.5713229
2.4936336
2.4144446
2.3338062
2.2517695
2.1683864
2.0837096
1.9977925
1.9106895
1.8224552
1.7331452
1.6428155
1.5515227
1.4593239
1.3662768
1.2724394
1.17787
1.0826274
0.98677084
0.89035951
0.79345304
0.69611121
0.59839394
0.50036126
0.40207329
0.30359019
0.20497218
0.10627902
0.007569238
-0.091095281
-0.1896513
-0.28804508
-0.38621613
-0.48410466
-0.581652
-0.67879985
-0.77549021
-0.87166553
-0.9672687
-1.0622431
-1.1565325
-1.2500815
-1.342835
-1.4347386
-1.5257386
-1.6157819
-1.704816
-1.7927893
-1.8796508
-1.9653505
-2.0498389
-2.1330675
-2.2149886
-2.2955554
-2.374722
-2.4524432
-2.5286752
-2.6033746
-2.6764994
-2.7480084
-2.8178615
-2.8860194
-2.952444
-3.0170984
-3.0799466
-3.1409536
-3.2000857
-3.2573101
-3.3125954
-3.365911
-3.4172278
-3.4665174
-3.513753
-3.5589088
-3.6019601
-3.6428835
-3.6816567
-3.7182587
-3.7526697
-3.784871
-3.8148452
-3.8425762
-3.8680489
-3.8912497
-3.9121661
-3.9307868
-3.9471019
-3.9611025
-3.9727812
-3.9821316
-3.9891488
-3.9938291
-3.9961698
-4.0004872
-3.998144
-3.9934588
-3.9864342
-3.9770738
-3.9653828
-3.9513674
-3.935035
-3.9163946
-3.8954561
-3.8722307
-3.8467309
-3.8189706
-3.7889646
-3.7567292
-3.7222817
-3.6856409
-3.6468265
-3.6058597
-3.5627627
-3.517559
-3.4702732
-3.4209312
-3.3695599
-3.3161876
-3.2608436
-3.2035582
-3.1443633
-3.0832913
-3.0203762
-2.955653
-2.8891576
-2.8209271
-2.7509996
-2.6794144
-2.6062116
-2.5314325
-2.4551193
-2.3773151
-2.2980641
-2.2174114
-2.1354029
-2.0520855
-1.9675069
-1.8817158
-1.7947616
-1.7066944
-1.6175653
-1.527426
-1.436329
-1.3443273
-1.2514749
-1.1578262
-1.0634363
-0.96836071
-0.87265572
-0.776378
-0.67958474
-0.58233357
-0.48468253
-0.38669005
-0.28841492
-0.18991648
-0.091254217
0.0075141386
0.10632741
0.20512516
0.30384771
0.402435
0.50082684
0.59896301
0.69678335
0.79422775
0.89123624
0.98774897
1.0837063
1.1790488
1.2737173
1.3676531
1.4607975
1.5530926
1.6444807
1.7349046
1.8243077
1.9126337
1.9998273
2.0858335
2.1705981
2.2540675
2.3361891
2.4169107
2.4961814
2.5739507
2.6501693
2.7247886
2.7977611
2.8690404
2.938581
3.0063383
3.0722692
3.1363313
3.1984838
3.2586866
3.3169012
3.3730903
3.4272176
3.4792484
3.5291493
3.576888
3.6224338
3.6657574
3.7068307
3.7456274
3.7821223
3.8162919
3.8481141
3.8775682
3.9046354
3.929298
3.95154
3.9713472
3.9887066
4.0036071
4.0160389
4.025994
4.033466
4.0384501
4.0409429
4.0409429
4.0384501
4.033466
4.025994
4.0160389
4.0036071
3.9887066
3.9713472
3.95154
3.929298
3.9046354
3.8775682
3.8481141
3.8162919
3.7821223
3.7456274
3.7068307
3.6657574
3.6224338
3.576888
3.5291493
3.4792484
3.4272176
3.3730903
3.3169012
3.2586866
3.1984838
3.1363314
3.0722692
3.0063383
2.938581
2.8690404
2.7977611
2.7247886
2.6501692
2.5739507
2.4961814
2.4169107
2.3361891
2.2540675
2.1705981
2.0858335
1.9998273
1.9126337
1.8243077
1.7349046
1.6444807
1.5530926
1.4607975
1.3676531
1.2737173
1.1790488
1.0837063
0.98774897
0.89123624
0.79422775
0.69678335
0.59896301
0.50082684
0.40243501
0.30384771
0.20512516
0.10632742
0.0075141421
-0.091254213
-0.18991648
-0.28841492
-0.38669004
-0.48468253
-0.58233356
-0.67958474
-0.776378
-0.87265571
-0.9683607
-1.0634363
-1.1578262
-1.2514749
-1.3443273
-1.436329
-1.527426
-1.6175653
-1.7066944
-1.7947616
-1.8817158
-1.9675069
-2.0520855
-2.1354029
-2.2174114
-2.2980641
-2.3773151
-2.4551193
-2.5314326
-2.6062117
-2.6794144
-2.7509996
-2.8209271
-2.8891576
-2.955653
-3.0203762
-3.0832913
-3.1443633
-3.2035582
-3.2608436
-3.3161876
-3.3695599
-3.4209312
-3.4702732
-3.517559
-3.5627627
-3.6058597
-3.6468265
-3.6856409
-3.7222817
-3.7567292
-3.7889646
-3.8189706
-3.8467309
-3.8722307
-3.8954561
-3.9163946
-3.935035
-3.9513674
-3.9653828
-3.9770738
-3.9864342
-3.9934588
-3.998144
-4.0004872
-4.0073032
-4.0049561
-4.0002632
-3.9932269
-3.9838511
-3.9721408
-3.9581022
-3.9417429
-3.9230716
-3.9020984
-3.8788346
-3.8532927
-3.8254864
-3.7954307
-3.7631419
-3.7286373
-3.6919357
-3.653057
-3.6120222
-3.5688537
-3.5235749
-3.4762106
-3.4267865
-3.3753298
-3.3218687
-3.2664325
-3.2090518
-3.1497582
-3.0885844
-3.0255644
-2.9607331
-2.8941267
-2.8257822
-2.7557378
-2.6840329
-2.6107077
-2.5358034
-2.4593624
-2.3814278
-2.302044
-2.221256
-2.13911
-2.0556527
-1.9709322
-1.884997
-1.7978967
-1.7096816
-1.6204027
-1.5301119
-1.4388617
-1.3467053
-1.2536967
-1.1598905
-1.0653418
-0.97010625
-0.87424025
-0.77780057
-0.68084448
-0.58342973
-0.48561445
-0.38745719
-0.28901683
-0.19035263
-0.091524036
0.0074098468
0.10638878
0.20535243
0.30424072
0.40299344
0.50155028
0.59985095
0.69783518
0.79544275
0.89261357
0.98928771
1.0854054
1.1809072
1.2757337
1.3698261
1.4631258
1.5555746
1.6471148
1.7376891
1.8272406
1.9157133
2.0030515
2.0892002
2.1741051
2.2577126
2.3399699
2.4208249
2.5002263
2.5781238
2.6544678
2.7292099
2.8023024
2.8736987
2.9433534
3.0112218
3.0772606
3.1414276
3.2036816
3.2639827
3.3222924
3.378573
3.4327885
3.484904
3.534886
3.5827023
3.6283221
3.671716
3.712856
3.7517155
3.7882696
3.8224945
3.8543681
3.8838699
3.9109808
3.9356832
3.9579612
3.9778004
3.9951878
4.0101123
4.0225642
4.0325354
4.0400194
4.0450115
4.0475083
4.0475083
4.0450115
4.0400194
4.0325354
4.0225642
4.0101123
3.9951878
3.9778004
3.9579612
3.9356832
3.9109808
3.8838699
3.8543681
3.8224945
3.7882696
3.7517155
3.712856
3.671716
3.6283221
3.5827023
3.534886
3.484904
3.4327885
3.378573
3.3222924
3.2639827
3.2036816
3.1414276
3.0772606
3.0112218
2.9433534
2.8736987
2.8023024
2.7292099
2.6544678
2.5781238
2.5002263
2.4208249
2.3399699
2.2577126
2.1741051
2.0892002
2.0030515
1.9157133
1.8272406
1.7376891
1.6471148
1.5555746
1.4631258
1.3698261
1.2757337
1.1809072
1.0854054
0.98928771
0.89261357
0.79544274
0.69783517
0.59985095
0.50155028
0.40299344
0.30424072
0.20535243
0.10638878
0.0074098498
-0.091524033
-0.19035263
-0.28901682
-0.38745718
-0.48561445
-0.58342972
-0.68084448
-0.77780056
-0.87424025
-0.97010625
-1.0653418
-1.1598905
-1.2536967
-1.3467053
-1.4388617
-1.5301119
-1.6204027
-1.7096816
-1.7978967
-1.884997
-1.9709322
-2.0556527
-2.13911
-2.221256
-2.302044
-2.3814278
-2.4593624
-2.5358034
-2.6107077
-2.6840329
-2.7557378
-2.8257822
-2.8941267
-2.9607331
-3.0255644
-3.0885844
-3.1497582
-3.2090518
-3.2664325
-3.3218687
-3.3753298
-3.4267865
-3.4762106
-3.5235749
-3.5688537
-3.6120222
-3.653057
-3.6919357
-3.7286373
-3.7631419
-3.7954307
-3.8254864
-3.8532927
-3.8788346
-3.9020984
-3.9230716
-3.9417429
-3.9581022
-3.9721408
-3.9838511
-3.9932269
-4.0002632
-4.0049561
-4.0073032
-4.0165611
-4.0142088
-4.0095054
-4.0024534
-3.9930566
-3.9813201
-3.9672502
-3.9508543
-3.9321413
-3.9111213
-3.8878055
-3.8622064
-3.8343379
-3.8042149
-3.7718538
-3.737272
-3.7004881
-3.6615222
-3.6203954
-3.57713
-3.5317495
-3.4842788
-3.4347436
-3.3831712
-3.3295898
-3.2740288
-3.2165188
-3.1570915
-3.0957797
-3.0326175
-2.9676398
-2.9008828
-2.8323838
-2.762181
-2.6903138
-2.6168225
-2.5417485
-2.4651341
-2.3870228
-2.3074587
-2.2264873
-2.1441545
-2.0605076
-1.9755944
-1.8894637
-1.8021651
-1.7137491
-1.6242668
-1.5337702
-1.442312
-1.3499455
-1.2567248
-1.1627046
-1.0679401
-0.97248723
-0.87640242
-0.77974259
-0.68256517
-0.58492802
-0.48688943
-0.38850808
-0.28984298
-0.19095348
-0.09189915
0.0072603873
0.106465
0.20565435
0.30476815
0.40374599
0.50252745
0.60105206
0.69925942
0.79708918
0.89448109
0.99137507
1.0877112
1.1834299
1.2784718
1.3727777
1.466289
1.5589473
1.6506948
1.741474
1.8312281
1.9199007
2.0074361
2.0937792
2.1788755
2.2626714
2.3451139
2.4261507
2.5057305
2.5838029
2.6603183
2.7352279
2.8084841
2.8800403
2.9498507
3.0178707
3.084057
3.1483671
3.2107598
3.2711953
3.3296347
3.3860405
3.4403765
3.4926077
3.5427006
3.590623
3.6363438
3.6798338
3.7210648
3.7600103
3.7966452
3.8309457
3.8628897
3.8924567
3.9196274
3.9443843
3.9667114
3.9865943
4.00402
4.0189774
4.0314567
4.0414498
4.0489504
4.0539534
4.0564558
4.0564558
4.0539534
4.0489504
4.0414498
4.0314567
4.0189774
4.00402
3.9865943
3.9667114
3.9443843
3.9196274
3.8924567
3.8628897
3.8309457
3.7966452
3.7600103
3.7210648
3.6798338
3.6363438
3.5906229
3.5427006
3.4926077
3.4403765
3.3860405
3.3296347
3.2711953
3.2107598
3.1483671
3.084057
3.0178707
2.9498507
2.8800403
2.8084841
2.7352279
2.6603183
2.5838029
2.5057305
2.4261507
2.3451138
2.2626714
2.1788755
2.0937792
2.0074361
1.9199007
1.8312281
1.741474
1.6506948
1.5589473
1.466289
1.3727777
1.2784718
1.1834299
1.0877112
0.99137507
0.89448108
0.79708917
0.69925942
0.60105206
0.50252744
0.40374599
0.30476815
0.20565436
0.106465
0.0072603898
-0.091899148
-0.19095347
-0.28984297
-0.38850807
-0.48688943
-0.58492802
-0.68256517
-0.77974259
-0.87640242
-0.97248723
-1.0679401
-1.1627046
-1.2567248
-1.3499455
-1.442312
-1.5337702
-1.6242668
-1.7137491
-1.8021651
-1.8894637
-1.9755944
-2.0605076
-2.1441545
-2.2264873
-2.3074587
-2.3870228
-2.4651341
-2.5417485
-2.6168225
-2.6903138
-2.762181
-2.8323838
-2.9008829
-2.9676398
-3.0326175
-3.0957797
-3.1570915
-3.2165188
-3.2740288
-3.3295898
-3.3831712
-3.4347436
-3.4842788
-3.5317495
-3.57713
-3.6203954
-3.6615222
-3.7004881
-3.737272
-3.7718538
-3.8042149
-3.8343379
-3.8622064
-3.8878055
-3.9111213
-3.9321413
-3.9508543
-3.9672502
-3.9813201
-3.9930566
-4.0024534
-4.0095054
-4.0142088
-4.0165611
-4.0282675
-4.0259085
-4.0211919
-4.0141201
-4.0046969
-3.9929274
-3.9788179
-3.9623759
-3.9436103
-3.9225311
-3.8991496
-3.8734785
-3.8455315
-3.8153236
-3.7828712
-3.7481919
-3.7113042
-3.6722283
-3.6309853
-3.5875976
-3.5420889
-3.4944838
-3.4448084
-3.3930899
-3.3393566
-3.283638
-3.2259648
-3.1663687
-3.1048827
-3.0415409
-2.9763783
-2.9094313
-2.8407371
-2.7703342
-2.6982619
-2.6245608
-2.5492723
-2.472439
-2.3941043
-2.3143125
-2.2331093
-2.1505407
-2.0666539
-1.9814972
-1.8951194
-1.8075702
-1.7189002
-1.6291608
-1.5384041
-1.4466829
-1.3540507
-1.2605617
-1.1662708
-1.0712335
-0.97550576
-0.87914417
-0.78220586
-0.68474842
-0.5868299
-0.48850876
-0.38984385
-0.29089436
-0.1917198
-0.092379926
0.0070653313
0.10655572
0.20603079
0.30543005
0.40469291
0.50375875
0.60256693
0.70105685
0.79916798
0.89683989
0.99401233
1.0906252
1.1866187
1.2819333
1.3765097
1.4702891
1.5632128
1.655223
1.746262
1.8362727
1.9251987
2.0129841
2.0995736
2.1849126
2.2689472
2.3516244
2.4328918
2.512698
2.5909921
2.6677247
2.7428468
2.8163107
2.8880695
2.9580774
3.0262898
3.0926631
3.1571547
3.2197236
3.2803294
3.3389334
3.395498
3.4499868
3.5023649
3.5525985
3.6006554
3.6465046
3.6901165
3.7314631
3.7705177
3.807255
3.8416515
3.8736849
3.9033345
3.9305811
3.9554072
3.9777966
3.997735
4.0152094
4.0302085
4.0427226
4.0527436
4.0602651
4.0652821
4.0677914
4.0677914
4.0652821
4.0602651
4.0527436
4.0427226
4.0302085
4.0152094
3.997735
3.9777966
3.9554072
3.9305811
3.9033345
3.8736849
3.8416515
3.807255
3.7705176
3.7314631
3.6901165
3.6465046
3.6006554
3.5525985
3.5023649
3.4499868
3.395498
3.3389334
3.2803294
3.2197236
3.1571547
3.0926631
3.0262898
2.9580774
2.8880695
2.8163107
2.7428468
2.6677247
2.5909922
2.512698
2.4328918
2.3516244
2.2689472
2.1849126
2.0995736
2.0129841
1.9251987
1.8362727
1.746262
1.655223
1.5632128
1.470289
1.3765097
1.2819333
1.1866187
1.0906252
0.99401232
0.89683988
0.79916797
0.70105685
0.60256693
0.50375875
0.40469291
0.30543005
0.20603079
0.10655572
0.0070653335
-0.092379923
-0.1917198
-0.29089436
-0.38984385
-0.48850876
-0.5868299
-0.68474842
-0.78220586
-0.87914417
-0.97550576
-1.0712335
-1.1662708
-1.2605617
-1.3540507
-1.4466829
-1.5384041
-1.6291608
-1.7189002
-1.8075702
-1.8951194
-1.9814972
-2.0666539
-2.1505406
-2.2331092
-2.3143125
-2.3941043
-2.472439
-2.5492723
-2.6245608
-2.6982619
-2.7703341
-2.8407371
-2.9094313
-2.9763783
-3.0415409
-3.1048827
-3.1663687
-3.2259648
-3.283638
-3.3393566
-3.3930899
-3.4448084
-3.4944838
-3.5420889
-3.5875976
-3.6309853
-3.6722283
-3.7113042
-3.7481919
-3.7828712
-3.8153236
-3.8455315
-3.8734785
-3.8991496
-3.9225311
-3.9436103
-3.9623759
-3.9788179
-3.9929274
-4.0046969
-4.0141201
-4.0211919
-4.0259085
-4.0282675
-4.0424335
-4.0400666
-4.035334
-4.0282382
-4.0187832
-4.0069738
-3.9928165
-3.9763188
-3.9574895
-3.9363389
-3.9128781
-3.8871199
-3.859078
-3.8287676
-3.796205
-3.7614077
-3.7243947
-3.6851858
-3.6438024
-3.6002669
-3.5546031
-3.5068357
-3.4569908
-3.4050957
-3.3511789
-3.2952698
-3.2373993
-3.1775992
-3.1159026
-3.0523436
-2.9869575
-2.9197807
-2.8508505
-2.7802056
-2.7078854
-2.6339306
-2.5583828
-2.4812847
-2.4026798
-2.3226127
-2.241129
-2.1582751
-2.0740984
-1.9886471
-1.9019702
-1.8141179
-1.7251407
-1.6350902
-1.5440187
-1.4519792
-1.3590255
-1.2652119
-1.1705935
-1.0752259
-0.97916545
-0.88246884
-0.78519343
-0.68739702
-0.58913787
-0.49047466
-0.39146643
-0.29217262
-0.19265292
-0.09296734
0.0068239339
0.10666044
0.20648157
0.30622657
0.40583465
0.50524494
0.6043966
0.7032288
0.80168078
0.89969191
0.9972017
1.0941499
1.1904764
1.2861214
1.3810256
1.4751297
1.5683752
1.6607037
1.7520575
1.8423793
1.9316124
2.0197008
2.106589
2.1922221
2.2765462
2.359508
2.4410549
2.5211354
2.5996985
2.6766944
2.7520741
2.8257897
2.8977943
2.9680418
3.0364874
3.1030875
3.1677993
3.2305816
3.2913941
3.3501978
3.406955
3.4616292
3.5141854
3.5645897
3.6128097
3.6588145
3.7025744
3.7440611
3.783248
3.8201098
3.8546227
3.8867644
3.9165143
3.943853
3.968763
3.9912281
4.0112338
4.0287671
4.0438169
4.0563732
4.066428
4.0739749
4.0790088
4.0815266
4.0815266
4.0790088
4.0739749
4.066428
4.0563732
4.0438169
4.0287672
4.0112338
3.9912281
3.968763
3.943853
3.9165143
3.8867644
3.8546227
3.8201098
3.783248
3.7440611
3.7025743
3.6588145
3.6128097
3.5645897
3.5141854
3.4616292
3.406955
3.3501978
3.2913941
3.2305816
3.1677994
3.1030875
3.0364874
2.9680418
2.8977943
2.8257897
2.7520741
2.6766944
2.5996985
2.5211354
2.4410549
2.359508
2.2765462
2.1922221
2.106589
2.0197008
1.9316125
1.8423793
1.7520575
1.6607037
1.5683752
1.4751297
1.3810256
1.2861214
1.1904764
1.0941499
0.9972017
0.8996919
0.80168077
0.70322879
0.6043966
0.50524494
0.40583464
0.30622657
0.20648157
0.10666045
0.0068239354
-0.092967338
-0.19265292
-0.29217262
-0.39146643
-0.49047465
-0.58913787
-0.68739702
-0.78519343
-0.88246884
-0.97916545
-1.0752259
-1.1705935
-1.2652119
-1.3590255
-1.4519792
-1.5440187
-1.6350902
-1.7251406
-1.8141178
-1.9019702
-1.988647
-2.0740984
-2.1582751
-2.241129
-2.3226127
-2.4026798
-2.4812847
-2.5583828
-2.6339306
-2.7078854
-2.7802056
-2.8508505
-2.9197807
-2.9869575
-3.0523436
-3.1159026
-3.1775992
-3.2373993
-3.2952698
-3.3511789
-3.4050957
-3.4569908
-3.5068357
-3.5546031
-3.6002669
-3.6438024
-3.6851858
-3.7243947
-3.7614077
-3.796205
-3.8287676
-3.859078
-3.8871199
-3.9128781
-3.9363389
-3.9574895
-3.9763188
-3.9928165
-4.0069738
-4.0187832
-4.0282382
-4.035334
-4.0400666
-4.0424335
-4.059068
-4.0566917
-4.0519404
-4.0448166
-4.0353241
-4.023468
-4.0092546
-3.9926915
-3.9737877
-3.9525532
-3.9289994
-3.903139
-3.8749859
-3.8445552
-3.8118633
-3.7769278
-3.7397676
-3.7004028
-3.6588548
-3.615146
-3.5693002
-3.5213424
-3.4712987
-3.4191964
-3.3650642
-3.3089317
-3.2508297
-3.1907902
-3.1288465
-3.0650328
-2.9993844
-2.9319379
-2.8627309
-2.7918019
-2.7191908
-2.6449383
-2.5690862
-2.4916772
-2.4127552
-2.332365
-2.2505521
-2.1673633
-2.0828461
-1.9970489
-1.9100211
-1.8218128
-1.7324749
-1.6420591
-1.5506181
-1.4582049
-1.3648736
-1.2706788
-1.1756758
-1.0799204
-0.98346914
-0.88637907
-0.78870773
-0.69051317
-0.59185391
-0.49278887
-0.39337736
-0.29367906
-0.19375392
-0.09366221
0.0065355972
0.1067788
0.20700652
0.30715777
0.40717149
0.50698655
0.60654183
0.70577625
0.8046288
0.90303858
1.0009449
1.0982871
1.1950049
1.2910384
1.3863278
1.4808138
1.5744374
1.6671402
1.758864
1.8495515
1.9391457
2.0275903
2.1148295
2.2008085
2.285473
2.3687693
2.4506449
2.5310479
2.6099272
2.6872327
2.7629154
2.8369271
2.9092206
2.9797498
3.0484698
3.1153365
3.1803074
3.2433407
3.3043962
3.3634347
3.4204184
3.4753106
3.5280763
3.5786814
3.6270934
3.6732811
3.717215
3.7588666
3.7982091
3.8352172
3.8698671
3.9021363
3.9320041
3.9594512
3.9844598
4.0070138
4.0270988
4.0447015
4.0598108
4.0724168
4.0825114
4.0900881
4.0951419
4.0976697
4.0976697
4.0951419
4.0900881
4.0825114
4.0724168
4.0598108
4.0447015
4.0270988
4.0070138
3.9844598
3.9594512
3.9320041
3.9021363
3.8698671
3.8352172
3.7982091
3.7588666
3.717215
3.6732811
3.6270934
3.5786814
3.5280763
3.4753107
3.4204184
3.3634347
3.3043962
3.2433407
3.1803074
3.1153365
3.0484698
2.9797498
2.9092206
2.8369271
2.7629155
2.6872328
2.6099272
2.5310479
2.4506449
2.3687693
2.285473
2.2008085
2.1148295
2.0275903
1.9391457
1.8495515
1.758864
1.6671402
1.5744374
1.4808138
1.3863278
1.2910384
1.1950049
1.0982871
1.0009449
0.90303858
0.8046288
0.70577625
0.60654183
0.50698654
0.40717149
0.30715777
0.20700652
0.1067788
0.0065355972
-0.09366221
-0.19375392
-0.29367905
-0.39337736
-0.49278887
-0.59185391
-0.69051317
-0.78870773
-0.88637907
-0.98346914
-1.0799204
-1.1756758
-1.2706788
-1.3648736
-1.4582049
-1.5506181
-1.6420591
-1.7324749
-1.8218128
-1.9100211
-1.9970489
-2.0828461
-2.1673633
-2.2505521
-2.332365
-2.4127552
-2.4916772
-2.5690862
-2.6449383
-2.7191908
-2.7918019
-2.8627309
-2.9319379
-2.9993844
-3.0650328
-3.1288465
-3.1907902
-3.2508297
-3.3089317
-3.3650642
-3.4191964
-3.4712987
-3.5213424
-3.5693002
-3.615146
-3.6588548
-3.7004028
-3.7397676
-3.7769278
-3.8118633
-3.8445552
-3.8749859
-3.903139
-3.9289994
-3.9525532
-3.9737877
-3.9926915
-4.0092546
-4.0234679
-4.0353241
-4.0448166
-4.0519404
-4.0566917
-4.059068
-4.0781806
-4.0757935
-4.0710207
-4.0638647
-4.0543292
-4.0424194
-4.0281417
-4.0115037
-3.9925142
-3.9711835
-3.947523
-3.9215454
-3.8932646
-3.8626958
-3.8298554
-3.7947613
-3.7574322
-3.7178884
-3.6761514
-3.6322436
-3.5861889
-3.5380125
-3.4877406
-3.4354005
-3.381021
-3.3246319
-3.2662642
-3.2059499
-3.1437225
-3.0796162
-3.0136667
-2.9459105
-2.8763855
-2.8051305
-2.7321853
-2.6575909
-2.5813892
-2.5036233
-2.4243371
-2.3435756
-2.2613846
-2.1778111
-2.0929029
-2.0067084
-1.9192774
-1.8306602
-1.7409078
-1.6500725
-1.5582068
-1.4653643
-1.3715992
-1.2769663
-1.1815213
-1.0853203
-0.98842001
-0.89087776
-0.79275142
-0.6940993
-0.5949802
-0.49545334
-0.39557833
-0.29541512
-0.19502398
-0.094465463
0.0061996447
0.10691035
0.20760547
0.30822374
0.40870377
0.50898415
0.60900346
0.70870031
0.80801339
0.90688151
1.0052436
1.1030389
1.2002068
1.2966869
1.3924193
1.4873443
1.5814027
1.6745358
1.7666852
1.8577932
1.9478026
2.0366568
2.1242999
2.2106766
2.2957324
2.3794136
2.4616672
2.5424411
2.621684
2.6993458
2.7753769
2.8497291
2.922355
2.9932082
3.0622436
3.1294172
3.1946859
3.258008
3.319343
3.3786516
3.4358958
3.4910389
3.5440455
3.5948815
3.6435143
3.6899126
3.7340466
3.7758878
3.8154094
3.8525859
3.8873932
3.9198091
3.9498126
3.9773843
4.0025064
4.0251628
4.0453388
4.0630215
4.0781992
4.0908624
4.1010028
4.1086138
4.1136905
4.1162297
4.1162297
4.1136905
4.1086138
4.1010028
4.0908624
4.0781992
4.0630215
4.0453388
4.0251628
4.0025064
3.9773843
3.9498126
3.9198091
3.8873932
3.8525859
3.8154094
3.7758878
3.7340466
3.6899126
3.6435143
3.5948815
3.5440455
3.4910389
3.4358958
3.3786516
3.319343
3.258008
3.1946859
3.1294172
3.0622436
2.9932082
2.922355
2.8497291
2.7753769
2.6993458
2.6216841
2.5424411
2.4616672
2.3794136
2.2957324
2.2106766
2.1242999
2.0366568
1.9478026
1.8577932
1.7666852
1.6745358
1.5814027
1.4873443
1.3924193
1.2966869
1.2002068
1.1030389
1.0052436
0.90688151
0.80801338
0.7087003
0.60900345
0.50898414
0.40870376
0.30822373
0.20760547
0.10691034
0.0061996419
-0.094465466
-0.19502398
-0.29541512
-0.39557833
-0.49545335
-0.5949802
-0.6940993
-0.79275142
-0.89087776
-0.98842001
-1.0853203
-1.1815213
-1.2769663
-1.3715992
-1.4653643
-1.5582068
-1.6500725
-1.7409078
-1.8306601
-1.9192774
-2.0067084
-2.0929029
-2.1778111
-2.2613846
-2.3435756
-2.4243371
-2.5036233
-2.5813892
-2.6575909
-2.7321853
-2.8051305
-2.8763855
-2.9459105
-3.0136667
-3.0796162
-3.1437225
-3.2059499
-3.2662642
-3.3246319
-3.381021
-3.4354005
-3.4877406
-3.5380125
-3.5861889
-3.6322436
-3.6761514
-3.7178884
-3.7574322
-3.7947613
-3.8298554
-3.8626958
-3.8932646
-3.9215454
-3.947523
-3.9711835
-3.9925142
-4.0115037
-4.0281417
-4.0424194
-4.0543292
-4.0638647
-4.0710207
-4.0757935
-4.0781806
-4.0997825
-4.0973833
-4.0925862
-4.0853938
-4.0758098
-4.0638395
-4.0494891
-4.0327664
-4.0136803
-3.992241
-3.9684599
-3.9423499
-3.9139249
-3.8832001
-3.8501922
-3.8149189
-3.7773991
-3.7376532
-3.6957027
-3.6515702
-3.6052797
-3.5568564
-3.5063266
-3.453718
-3.3990593
-3.3423804
-3.2837124
-3.2230878
-3.1605398
-3.0961031
-3.0298133
-2.9617074
-2.8918232
-2.8201997
-2.7468771
-2.6718964
-2.5952998
-2.5171306
-2.4374329
-2.3562519
-2.2736338
-2.1896256
-2.1042754
-2.0176321
-1.9297454
-1.840666
-1.7504453
-1.6591357
-1.5667901
-1.4734624
-1.3792069
-1.284079
-1.1881344
-1.0914296
-0.99402174
-0.89596836
-0.79732765
-0.69815827
-0.59851932
-0.49847037
-0.39807133
-0.29738251
-0.1964645
-0.095378199
0.0058152723
0.10705458
0.20827821
0.30942454
0.41043187
0.51123842
0.61178245
0.71200223
0.8118361
0.91122255
1.0101002
1.1084079
1.2060846
1.3030699
1.3993032
1.4947248
1.589275
1.6828948
1.7755255
1.8671091
1.9575881
2.0469056
2.1350054
2.221832
2.3073305
2.391447
2.4741281
2.5553216
2.6349759
2.7130405
2.7894658
2.8642031
2.937205
3.0084247
3.0778171
3.1453376
3.2109432
3.274592
3.3362433
3.3958574
3.4533964
3.5088232
3.5621023
3.6131996
3.6620821
3.7087186
3.753079
3.7951348
3.8348589
3.8722258
3.9072113
3.9397931
3.96995
3.9976627
4.0229133
4.0456855
4.0659646
4.0837375
4.0989928
4.1117206
4.1219127
4.1295626
4.1346652
4.1372174
4.1372174
4.1346652
4.1295626
4.1219127
4.1117206
4.0989928
4.0837375
4.0659646
4.0456855
4.0229133
3.9976627
3.9699501
3.9397931
3.9072113
3.8722258
3.8348589
3.7951348
3.753079
3.7087186
3.6620821
3.6131996
3.5621023
3.5088232
3.4533964
3.3958574
3.3362433
3.274592
3.2109432
3.1453376
3.0778171
3.0084247
2.937205
2.8642032
2.7894658
2.7130405
2.6349759
2.5553216
2.4741281
2.391447
2.3073305
2.221832
2.1350054
2.0469056
1.9575881
1.8671091
1.7755255
1.6828948
1.589275
1.4947248
1.3993032
1.3030699
1.2060846
1.1084079
1.0101002
0.91122254
0.8118361
0.71200222
0.61178245
0.51123842
0.41043186
0.30942453
0.2082782
0.10705457
0.0058152651
-0.095378206
-0.19646451
-0.29738251
-0.39807134
-0.49847037
-0.59851933
-0.69815827
-0.79732765
-0.89596836
-0.99402174
-1.0914296
-1.1881344
-1.284079
-1.3792069
-1.4734624
-1.5667901
-1.6591357
-1.7504453
-1.840666
-1.9297454
-2.0176321
-2.1042754
-2.1896256
-2.2736338
-2.3562519
-2.4374329
-2.5171306
-2.5952998
-2.6718964
-2.7468771
-2.8201997
-2.8918232
-2.9617074
-3.0298133
-3.0961031
-3.1605398
-3.2230878
-3.2837124
-3.3423804
-3.3990593
-3.453718
-3.5063266
-3.5568564
-3.6052797
-3.6515701
-3.6957026
-3.7376532
-3.7773991
-3.8149189
-3.8501922
-3.8832001
-3.9139249
-3.9423499
-3.9684599
-3.992241
-4.0136803
-4.0327664
-4.0494891
-4.0638395
-4.0758098
-4.0853938
-4.0925862
-4.0973833
-4.0997825
-4.1238866
-4.1214739
-4.1166497
-4.1094167
-4.0997787
-4.0877408
-4.0733095
-4.0564924
-4.0372985
-4.015738
-3.9918226
-3.965565
-3.9369792
-3.9060807
-3.8728859
-3.8374128
-3.7996804
-3.7597091
-3.7175206
-3.6731375
-3.6265841
-3.5778855
-3.5270683
-3.4741602
-3.41919
-3.362188
-3.3031853
-3.2422145
-3.1793091
-3.1145039
-3.0478347
-2.9793387
-2.9090538
-2.8370194
-2.7632758
-2.6878642
-2.6108272
-2.5322081
-2.4520513
-2.3704024
-2.2873077
-2.2028146
-2.1169714
-2.0298272
-1.9414322
-1.8518372
-1.761094
-1.6692552
-1.5763741
-1.4825049
-1.3877023
-1.2920219
-1.1955198
-1.0982529
-1.0002786
-0.90165475
-0.80244001
-0.70269333
-0.60247421
-0.50184254
-0.40085864
-0.29958316
-0.19807708
-0.096401675
0.0053815587
0.1072109
0.20902448
0.31076028
0.41235622
0.51375015
0.61487993
0.71568347
0.81609873
0.91606381
1.015517
1.1143966
1.2126416
1.3101907
1.4069834
1.5029593
1.5980586
1.6922217
1.7853898
1.8775045
1.9685078
2.0583426
2.1469524
2.2342812
2.320274
2.4048764
2.488035
2.5696969
2.6498106
2.728325
2.8051903
2.8803577
2.9537793
3.0254084
3.0951992
3.1631072
3.229089
3.2931026
3.3551069
3.4150622
3.4729302
3.5286739
3.5822573
3.6336463
3.6828077
3.7297101
3.7743233
3.8166186
3.8565689
3.8941484
3.9293329
3.9620999
3.9924282
4.0202984
4.0456923
4.0685938
4.088988
4.1068617
4.1222035
4.1350035
4.1452535
4.1529467
4.1580783
4.1606449
4.1606449
4.1580783
4.1529467
4.1452535
4.1350035
4.1222035
4.1068617
4.088988
4.0685938
4.0456923
4.0202984
3.9924282
3.9620999
3.9293329
3.8941484
3.8565689
3.8166186
3.7743233
3.7297101
3.6828077
3.6336463
3.5822573
3.5286738
3.4729302
3.4150622
3.3551069
3.2931026
3.229089
3.1631072
3.0951992
3.0254084
2.9537793
2.8803577
2.8051903
2.728325
2.6498105
2.5696969
2.488035
2.4048764
2.320274
2.2342812
2.1469524
2.0583426
1.9685078
1.8775044
1.7853898
1.6922217
1.5980586
1.5029593
1.4069834
1.3101907
1.2126416
1.1143966
1.015517
0.9160638
0.81609872
0.71568346
0.61487992
0.51375014
0.41235621
0.31076027
0.20902447
0.10721089
0.0053815465
-0.096401686