/*--------------------------------*- C++ -*----------------------------------*\
| =========                 |                                                 |
| \\      /  F ield         | OpenFOAM: The Open Source CFD Toolbox           |
|  \\    /   O peration     | Version:  2306                                  |
|   \\  /    A nd           | Website:  www.openfoam.com                      |
|    \\/     M anipulation  |                                                 |
\*---------------------------------------------------------------------------*/
FoamFile
{
    version     2.0;
    format      ascii;
    arch        "LSB;label=32;scalar=64";
    class       surfaceScalarField;
    location    "0.52";
    object      phi;
}
// * * * * * * * * * * * * * * * * * * * * * * * * * * * * * * * * * * * * * //

dimensions      [0 3 -1 0 0 0 0];

oriented        oriented;

internalField   nonuniform List<scalar> 
12640
(
-2.2328785e-06
-2.8899446e-07
-2.2246118e-06
-2.4077148e-07
-2.2151622e-06
-1.9271347e-07
-2.2045606e-06
-1.448613e-07
-2.1928416e-06
-9.7252383e-08
-2.1800348e-06
-4.99219e-08
-2.1661912e-06
-2.8963848e-09
-2.1513215e-06
4.3759567e-08
-2.135472e-06
9.0055948e-08
-2.1186757e-06
1.359489e-07
-2.1009673e-06
1.8141301e-07
-2.0823804e-06
2.2642442e-07
-2.0629501e-06
2.7096067e-07
-2.0427093e-06
3.150009e-07
-2.0216921e-06
3.5852715e-07
-1.9999316e-06
4.0152188e-07
-1.9774609e-06
4.4397011e-07
-1.9543122e-06
4.8585776e-07
-1.9305169e-06
5.2717335e-07
-1.9061064e-06
5.6790543e-07
-1.8811111e-06
6.0804476e-07
-1.8555613e-06
6.4758459e-07
-1.8294853e-06
6.8651825e-07
-1.8029123e-06
7.2483961e-07
-1.7758694e-06
7.6254557e-07
-1.7483838e-06
7.9963355e-07
-1.7204811e-06
8.3610186e-07
-1.6921865e-06
8.7194999e-07
-1.6635242e-06
9.071786e-07
-1.6345178e-06
9.4178872e-07
-1.6051897e-06
9.7578343e-07
-1.5755609e-06
1.0091653e-06
-1.5456522e-06
1.041939e-06
-1.5154833e-06
1.0741082e-06
-1.4850732e-06
1.1056798e-06
-1.4544394e-06
1.1366591e-06
-1.4235983e-06
1.1670526e-06
-1.3925666e-06
1.1968683e-06
-1.3613589e-06
1.226113e-06
-1.329989e-06
1.2547952e-06
-1.2984701e-06
1.2829241e-06
-1.2668138e-06
1.3105081e-06
-1.2350327e-06
1.3375559e-06
-1.203136e-06
1.3640777e-06
-1.1711334e-06
1.3900826e-06
-1.1390327e-06
1.4155808e-06
-1.1068431e-06
1.4405828e-06
-1.0745694e-06
1.4650972e-06
-1.0422196e-06
1.4891366e-06
-1.009798e-06
1.512708e-06
-9.7730841e-07
1.5358233e-06
-9.4475506e-07
1.5584931e-06
-9.121402e-07
1.5807269e-06
-8.794658e-07
1.6025334e-06
-8.4673285e-07
1.6239242e-06
-8.1394266e-07
1.6449074e-06
-7.8109384e-07
1.6654933e-06
-7.481863e-07
1.6856897e-06
-7.1521786e-07
1.7055073e-06
-6.8218667e-07
1.7249529e-06
-6.4908997e-07
1.7440357e-06
-6.1592346e-07
1.7627633e-06
-5.8268443e-07
1.7811427e-06
-5.4936684e-07
1.7991816e-06
-5.1596548e-07
1.8168859e-06
-4.8247557e-07
1.834262e-06
-4.4888972e-07
1.8513163e-06
-4.1520244e-07
1.8680531e-06
-3.8140504e-07
1.8844772e-06
-3.4749159e-07
1.9005937e-06
-3.1345232e-07
1.9164047e-06
-2.792805e-07
1.9319135e-06
-2.4496597e-07
1.9471222e-06
-2.1050024e-07
1.9620312e-06
-1.7587394e-07
1.9766399e-06
-1.4107702e-07
1.9909449e-06
-1.061007e-07
2.0049404e-06
-7.0935352e-08
2.0186239e-06
-3.5571412e-08
2.0320043e-06
2.0451177e-06
-2.1813505e-06
-2.952753e-07
-2.1738786e-06
-2.4824326e-07
-2.1652457e-06
-2.0134644e-07
-2.1554825e-06
-1.546247e-07
-2.1446201e-06
-1.0811479e-07
-2.132691e-06
-6.1851005e-08
-2.1197269e-06
-1.5860798e-08
-2.1057624e-06
2.9794863e-08
-2.090827e-06
7.5120894e-08
-2.0749549e-06
1.2007661e-07
-2.0581785e-06
1.6463679e-07
-2.0405308e-06
2.0877677e-07
-2.0220441e-06
2.5247411e-07
-2.0027512e-06
2.95708e-07
-1.9826842e-06
3.3846003e-07
-1.9618749e-06
3.8071267e-07
-1.9403549e-06
4.2245001e-07
-1.918155e-06
4.6365786e-07
-1.8953064e-06
5.0432431e-07
-1.871838e-06
5.4443708e-07
-1.8477798e-06
5.8398704e-07
-1.8231609e-06
6.2296544e-07
-1.7980089e-06
6.6136616e-07
-1.7723515e-06
6.9918198e-07
-1.7462154e-06
7.364095e-07
-1.7196271e-06
7.7304475e-07
-1.6926108e-06
8.090857e-07
-1.6651919e-06
8.4453101e-07
-1.6373931e-06
8.7938016e-07
-1.6092374e-06
9.1363322e-07
-1.5807473e-06
9.472931e-07
-1.551943e-06
9.8036134e-07
-1.5228448e-06
1.0128405e-06
-1.4934722e-06
1.0447354e-06
-1.4638431e-06
1.0760508e-06
-1.4339753e-06
1.1067911e-06
-1.4038854e-06
1.1369626e-06
-1.3735888e-06
1.1665719e-06
-1.3431011e-06
1.1956248e-06
-1.3124352e-06
1.2241294e-06
-1.2816037e-06
1.2520929e-06
-1.25062e-06
1.2795238e-06
-1.2194947e-06
1.3064308e-06
-1.1882373e-06
1.3328203e-06
-1.1568589e-06
1.358704e-06
-1.1253669e-06
1.3840886e-06
-1.093769e-06
1.4089849e-06
-1.0620732e-06
1.4334014e-06
-1.0302845e-06
1.4573477e-06
-9.9840884e-07
1.4808327e-06
-9.6645101e-07
1.5038657e-06
-9.344147e-07
1.5264566e-06
-9.0230175e-07
1.5486141e-06
-8.7011579e-07
1.5703477e-06
-8.3785801e-07
1.5916659e-06
-8.0552883e-07
1.6125783e-06
-7.7312862e-07
1.6330929e-06
-7.4065721e-07
1.6532185e-06
-7.0811334e-07
1.672963e-06
-6.7549488e-07
1.6923346e-06
-6.4279914e-07
1.7113403e-06
-6.1002369e-07
1.7299876e-06
-5.7716458e-07
1.7482839e-06
-5.4421818e-07
1.7662356e-06
-5.1117972e-07
1.7838471e-06
-4.7804361e-07
1.8011262e-06
-4.4480412e-07
1.8180768e-06
-4.114558e-07
1.8347049e-06
-3.7799144e-07
1.8510132e-06
-3.444042e-07
1.8670064e-06
-3.1068681e-07
1.882687e-06
-2.768306e-07
1.898058e-06
-2.4282909e-07
1.9131206e-06
-2.0867298e-07
1.9278748e-06
-1.7435295e-07
1.9423202e-06
-1.3986141e-07
1.9564528e-06
-1.0518851e-07
1.9702678e-06
-7.0326786e-08
1.9837621e-06
-3.5266732e-08
1.9969444e-06
2.0098507e-06
-2.1309295e-06
-3.0082895e-07
-2.124209e-06
-2.5496391e-07
-2.1163497e-06
-2.0920567e-07
-2.107381e-06
-1.6359334e-07
-2.0973328e-06
-1.1816278e-07
-2.0862349e-06
-7.2949091e-08
-2.074113e-06
-2.7982331e-08
-2.0610094e-06
1.6691358e-08
-2.0469468e-06
6.1058016e-08
-2.0319573e-06
1.0508714e-07
-2.0160723e-06
1.4875182e-07
-1.9993234e-06
1.920278e-07
-1.9817415e-06
2.3489216e-07
-1.9633581e-06
2.7732446e-07
-1.9442036e-06
3.193054e-07
-1.9243087e-06
3.6081762e-07
-1.9037033e-06
4.0184454e-07
-1.8824173e-06
4.4237239e-07
-1.8604804e-06
4.823872e-07
-1.8379211e-06
5.2187794e-07
-1.8147682e-06
5.6083387e-07
-1.791049e-06
5.9924618e-07
-1.7667909e-06
6.3710797e-07
-1.7420204e-06
6.7441154e-07
-1.716763e-06
7.1115239e-07
-1.6910448e-06
7.4732666e-07
-1.6648893e-06
7.8293023e-07
-1.6383205e-06
8.1796211e-07
-1.6113616e-06
8.5242077e-07
-1.5840348e-06
8.8630632e-07
-1.5563607e-06
9.1961892e-07
-1.5283601e-06
9.523607e-07
-1.5000532e-06
9.8453387e-07
-1.4714581e-06
1.0161405e-06
-1.4425932e-06
1.0471855e-06
-1.413475e-06
1.0776735e-06
-1.3841209e-06
1.1076085e-06
-1.3545458e-06
1.1369965e-06
-1.3247638e-06
1.1658431e-06
-1.2947891e-06
1.1941548e-06
-1.2646352e-06
1.2219388e-06
-1.2343126e-06
1.2492016e-06
-1.2038335e-06
1.2759512e-06
-1.1732083e-06
1.3021953e-06
-1.1424456e-06
1.3279411e-06
-1.1115554e-06
1.3531987e-06
-1.0805447e-06
1.3779742e-06
-1.0494204e-06
1.4022769e-06
-1.0181895e-06
1.4261166e-06
-9.8685716e-07
1.4495004e-06
-9.5542807e-07
1.4724363e-06
-9.239062e-07
1.4949348e-06
-8.9229495e-07
1.5170031e-06
-8.6059723e-07
1.5386495e-06
-8.2881441e-07
1.5598834e-06
-7.9694811e-07
1.5807123e-06
-7.6499815e-07
1.6011433e-06
-7.3296513e-07
1.6211854e-06
-7.0084809e-07
1.6408459e-06
-6.6864564e-07
1.6601318e-06
-6.363557e-07
1.6790506e-06
-6.0397631e-07
1.6976078e-06
-5.7150312e-07
1.7158108e-06
-5.3893397e-07
1.7336654e-06
-5.0626348e-07
1.7511766e-06
-4.7348747e-07
1.7683504e-06
-4.4060162e-07
1.7851908e-06
-4.0759934e-07
1.8017024e-06
-3.7447513e-07
1.8178888e-06
-3.4122234e-07
1.8337536e-06
-3.0783442e-07
1.8492993e-06
-2.7430411e-07
1.8645271e-06
-2.406238e-07
1.8794406e-06
-2.0678568e-07
1.8940371e-06
-1.7278265e-07
1.9083169e-06
-1.3860549e-07
1.9222758e-06
-1.0424705e-07
1.9359091e-06
-6.9697918e-08
1.9492134e-06
-3.4951878e-08
1.962198e-06
1.9748988e-06
-2.0816004e-06
-3.0569762e-07
-2.0755896e-06
-2.6097475e-07
-2.0684627e-06
-2.1633264e-07
-2.060247e-06
-1.7180892e-07
-2.0509701e-06
-1.2743979e-07
-2.0406603e-06
-8.3258657e-08
-2.0293468e-06
-3.9296071e-08
-2.0170618e-06
4.4063025e-09
-2.0038302e-06
4.7826536e-08
-1.9896834e-06
9.0940035e-08
-1.9746509e-06
1.337193e-07
-1.9587624e-06
1.7613932e-07
-1.9420479e-06
2.1817783e-07
-1.9245366e-06
2.5981328e-07
-1.906258e-06
3.0102719e-07
-1.8872418e-06
3.4180116e-07
-1.8675163e-06
3.8211945e-07
-1.8471106e-06
4.2196645e-07
-1.8260524e-06
4.6132922e-07
-1.8043702e-06
5.0019573e-07
-1.7820907e-06
5.3855462e-07
-1.759241e-06
5.7639701e-07
-1.7358475e-06
6.1371419e-07
-1.7119349e-06
6.5049926e-07
-1.6875294e-06
6.8674684e-07
-1.6626542e-06
7.2245174e-07
-1.6373345e-06
7.5761063e-07
-1.6115919e-06
7.9221934e-07
-1.585449e-06
8.2627804e-07
-1.558928e-06
8.5978495e-07
-1.5320491e-06
8.9274034e-07
-1.5048322e-06
9.2514381e-07
-1.4772968e-06
9.5699828e-07
-1.4494614e-06
9.8830502e-07
-1.421343e-06
1.0190676e-06
-1.392959e-06
1.0492893e-06
-1.3643252e-06
1.0789746e-06
-1.3354565e-06
1.1081279e-06
-1.3063683e-06
1.1367547e-06
-1.2770732e-06
1.1648597e-06
-1.2475839e-06
1.1924494e-06
-1.2179127e-06
1.2195303e-06
-1.1880705e-06
1.2461091e-06
-1.1580679e-06
1.2721926e-06
-1.1279144e-06
1.2977877e-06
-1.0976184e-06
1.3229024e-06
-1.0671886e-06
1.347544e-06
-1.0366309e-06
1.37172e-06
-1.005953e-06
1.3954387e-06
-9.7515965e-07
1.4187068e-06
-9.44257e-07
1.4415337e-06
-9.1324803e-07
1.4639263e-06
-8.8213696e-07
1.4858916e-06
-8.5092683e-07
1.5074393e-06
-8.1961876e-07
1.5285756e-06
-7.8821551e-07
1.5493083e-06
-7.5671735e-07
1.5696453e-06
-7.2512475e-07
1.5895928e-06
-6.934367e-07
1.6091586e-06
-6.6165349e-07
1.6283486e-06
-6.2977301e-07
1.6471698e-06
-5.9779249e-07
1.6656276e-06
-5.6571056e-07
1.6837288e-06
-5.3352318e-07
1.7014784e-06
-5.0122698e-07
1.7188803e-06
-4.6881762e-07
1.7359413e-06
-4.3629097e-07
1.7526642e-06
-4.0364169e-07
1.7690528e-06
-3.7086463e-07
1.7851121e-06
-3.3795358e-07
1.8008427e-06
-3.0490262e-07
1.8162484e-06
-2.7170552e-07
1.8313303e-06
-2.3835564e-07
1.8460899e-06
-2.0484476e-07
1.8605266e-06
-1.7116656e-07
1.8746384e-06
-1.3731337e-07
1.8884227e-06
-1.0327693e-07
1.9018732e-06
-6.9051114e-08
1.914987e-06
-3.4627861e-08
1.9277748e-06
1.9402713e-06
-2.0333478e-06
-3.0992022e-07
-2.0280069e-06
-2.6631587e-07
-2.0215721e-06
-2.2276721e-07
-2.0140698e-06
-1.7931133e-07
-2.0055257e-06
-1.3598379e-07
-1.9959662e-06
-9.2818128e-08
-1.9854169e-06
-4.9845627e-08
-1.9739148e-06
-7.0957256e-09
-1.961476e-06
3.5387695e-08
-1.9481336e-06
7.7597986e-08
-1.9339159e-06
1.1950144e-07
-1.9188509e-06
1.6107435e-07
-1.9029667e-06
2.0229329e-07
-1.8862918e-06
2.4313848e-07
-1.8688544e-06
2.8358968e-07
-1.8506822e-06
3.2362903e-07
-1.8318032e-06
3.6324002e-07
-1.8122443e-06
4.0240776e-07
-1.7920335e-06
4.4111817e-07
-1.7711964e-06
4.7935865e-07
-1.7497603e-06
5.1711831e-07
-1.7277506e-06
5.5438692e-07
-1.7051923e-06
5.9115584e-07
-1.6821107e-06
6.2741754e-07
-1.6585297e-06
6.6316587e-07
-1.6344727e-06
6.9839509e-07
-1.6099632e-06
7.3310081e-07
-1.5850232e-06
7.6727926e-07
-1.559674e-06
8.0092922e-07
-1.5339368e-06
8.3404784e-07
-1.5078319e-06
8.6663531e-07
-1.4813783e-06
8.9869049e-07
-1.4545956e-06
9.3021553e-07
-1.4275014e-06
9.6121079e-07
-1.4001129e-06
9.9167925e-07
-1.3724466e-06
1.0216229e-06
-1.3445177e-06
1.0510462e-06
-1.3163425e-06
1.0799526e-06
-1.2879333e-06
1.1083456e-06
-1.2593055e-06
1.1362314e-06
-1.23047e-06
1.1636143e-06
-1.2014394e-06
1.1904998e-06
-1.1722246e-06
1.2168943e-06
-1.1428363e-06
1.2428041e-06
-1.1132835e-06
1.268235e-06
-1.083575e-06
1.293194e-06
-1.0537189e-06
1.3176878e-06
-1.0237228e-06
1.3417237e-06
-9.9359276e-07
1.3653088e-06
-9.6333546e-07
1.3884493e-06
-9.3295514e-07
1.411153e-06
-9.0245654e-07
1.4334276e-06
-8.718436e-07
1.4552793e-06
-8.4111968e-07
1.4767152e-06
-8.1028669e-07
1.4977425e-06
-7.7934644e-07
1.5183683e-06
-7.4830034e-07
1.5385995e-06
-7.1714976e-07
1.5584416e-06
-6.8589357e-07
1.5779022e-06
-6.5453156e-07
1.5969865e-06
-6.2306286e-07
1.615701e-06
-5.9148571e-07
1.6340509e-06
-5.5979826e-07
1.6520408e-06
-5.2799708e-07
1.6696773e-06
-4.9607949e-07
1.6869632e-06
-4.6404217e-07
1.7039037e-06
-4.3188044e-07
1.7205025e-06
-3.9959054e-07
1.7367633e-06
-3.6716725e-07
1.7526887e-06
-3.3460506e-07
1.7682806e-06
-3.0189905e-07
1.783542e-06
-2.690426e-07
1.7984741e-06
-2.3602943e-07
1.8130774e-06
-2.0285361e-07
1.8273511e-06
-1.6950843e-07
1.8412934e-06
-1.3598688e-07
1.854901e-06
-1.0228132e-07
1.8681676e-06
-6.8386676e-08
1.881092e-06
-3.4294803e-08
1.8936832e-06
1.9059763e-06
-1.9861555e-06
-3.1353453e-07
-1.9814466e-06
-2.7102458e-07
-1.9756665e-06
-2.2854714e-07
-1.9688395e-06
-1.8613858e-07
-1.9609899e-06
-1.4383344e-07
-1.952143e-06
-1.0166507e-07
-1.9423242e-06
-5.9664499e-08
-1.9315621e-06
-1.7857725e-08
-1.9198807e-06
2.3706218e-08
-1.9073067e-06
6.5024193e-08
-1.8938677e-06
1.0606238e-07
-1.8795904e-06
1.4679667e-07
-1.8645016e-06
1.8720472e-07
-1.8486283e-06
2.2726531e-07
-1.831998e-06
2.6695919e-07
-1.8146366e-06
3.0626771e-07
-1.7965709e-06
3.4517446e-07
-1.7778275e-06
3.8366419e-07
-1.7584321e-06
4.2172279e-07
-1.738411e-06
4.5933734e-07
-1.7177885e-06
4.9649608e-07
-1.6965897e-06
5.3318849e-07
-1.6748394e-06
5.694057e-07
-1.6525614e-06
6.0513929e-07
-1.6297789e-06
6.4038333e-07
-1.6065148e-06
6.7513086e-07
-1.5827913e-06
7.0937703e-07
-1.5586299e-06
7.4311809e-07
-1.5340518e-06
7.7635066e-07
-1.5090773e-06
8.0907331e-07
-1.4837256e-06
8.4128369e-07
-1.4580164e-06
8.7298153e-07
-1.4319678e-06
9.0416667e-07
-1.4055966e-06
9.348397e-07
-1.3789209e-06
9.6500335e-07
-1.3519563e-06
9.9465844e-07
-1.3247182e-06
1.0238078e-06
-1.297221e-06
1.0524555e-06
-1.2694793e-06
1.0806036e-06
-1.2415051e-06
1.1082574e-06
-1.2133119e-06
1.1354211e-06
-1.1849113e-06
1.1620992e-06
-1.1563146e-06
1.1882971e-06
-1.1275306e-06
1.2140205e-06
-1.0985705e-06
1.2392748e-06
-1.0694419e-06
1.2640655e-06
-1.0401535e-06
1.2883997e-06
-1.010713e-06
1.312283e-06
-9.8112643e-07
1.335722e-06
-9.5139969e-07
1.3587228e-06
-9.2153861e-07
1.3812923e-06
-8.9154766e-07
1.4034364e-06
-8.6143071e-07
1.425162e-06
-8.3119108e-07
1.4464753e-06
-8.0083166e-07
1.4673834e-06
-7.7035491e-07
1.4878914e-06
-7.3976164e-07
1.5080062e-06
-7.0905353e-07
1.5277335e-06
-6.7823035e-07
1.5470789e-06
-6.4729183e-07
1.5660483e-06
-6.1623763e-07
1.5846467e-06
-5.850666e-07
1.6028796e-06
-5.5377677e-07
1.6207517e-06
-5.2236635e-07
1.6382664e-06
-4.9083194e-07
1.6554288e-06
-4.5917087e-07
1.6722428e-06
-4.2737966e-07
1.6887113e-06
-3.9545443e-07
1.7048378e-06
-3.6339038e-07
1.7206245e-06
-3.3118302e-07
1.7360736e-06
-2.9882754e-07
1.7511866e-06
-2.6631842e-07
1.7659647e-06
-2.3364997e-07
1.7804086e-06
-2.0081641e-07
1.7945174e-06
-1.6781117e-07
1.8082881e-06
-1.3462874e-07
1.8217182e-06
-1.012619e-07
1.834801e-06
-6.7705799e-08
1.8475359e-06
-3.3954055e-08
1.8599315e-06
1.8720223e-06
-1.9400069e-06
-3.1657628e-07
-1.9358943e-06
-2.7513726e-07
-1.9307328e-06
-2.337087e-07
-1.924545e-06
-1.9232624e-07
-1.9173542e-06
-1.5102409e-07
-1.9091839e-06
-1.09835e-07
-1.9000586e-06
-6.8789749e-08
-1.8900004e-06
-2.791636e-08
-1.8790411e-06
1.2747267e-08
-1.867201e-06
5.3183955e-08
-1.8545059e-06
9.336717e-08
-1.8409817e-06
1.3327289e-07
-1.8266546e-06
1.7287756e-07
-1.8115499e-06
2.1216061e-07
-1.7956934e-06
2.5110272e-07
-1.7791108e-06
2.8968507e-07
-1.7618275e-06
3.2789135e-07
-1.7438684e-06
3.6570524e-07
-1.7252586e-06
4.0311317e-07
-1.7060231e-06
4.4010178e-07
-1.6861854e-06
4.7665826e-07
-1.6657705e-06
5.1277339e-07
-1.6448007e-06
5.48436e-07
-1.6233e-06
5.836387e-07
-1.6012905e-06
6.1837368e-07
-1.5787944e-06
6.5263497e-07
-1.5558335e-06
6.8641639e-07
-1.5324284e-06
7.1971284e-07
-1.508599e-06
7.525218e-07
-1.4843656e-06
7.8483986e-07
-1.4597475e-06
8.1666535e-07
-1.4347629e-06
8.4799662e-07
-1.4094293e-06
8.7883304e-07
-1.3837644e-06
9.0917494e-07
-1.3577847e-06
9.390239e-07
-1.3315059e-06
9.6837966e-07
-1.3049431e-06
9.9724488e-07
-1.2781102e-06
1.0256226e-06
-1.2510216e-06
1.0535153e-06
-1.2236899e-06
1.0809259e-06
-1.1961273e-06
1.1078585e-06
-1.1683462e-06
1.1343181e-06
-1.1403569e-06
1.1603079e-06
-1.1121696e-06
1.1858331e-06
-1.0837929e-06
1.2108985e-06
-1.0552373e-06
1.2355098e-06
-1.0265101e-06
1.259672e-06
-9.9761875e-07
1.2833916e-06
-9.685697e-07
1.306673e-06
-9.3936956e-07
1.3295227e-06
-9.1002373e-07
1.3519462e-06
-8.805367e-07
1.3739499e-06
-8.5091349e-07
1.3955385e-06
-8.2115657e-07
1.4167187e-06
-7.9126962e-07
1.4374962e-06
-7.6125528e-07
1.4578768e-06
-7.3111448e-07
1.4778657e-06
-7.0084896e-07
1.4974679e-06
-6.7045923e-07
1.5166893e-06
-6.3994615e-07
1.535535e-06
-6.0930842e-07
1.5540092e-06
-5.7854612e-07
1.5721173e-06
-5.476569e-07
1.5898627e-06
-5.166405e-07
1.6072494e-06
-4.8549306e-07
1.6242814e-06
-4.5421281e-07
1.6409627e-06
-4.227966e-07
1.6572953e-06
-3.9124042e-07
1.6732818e-06
-3.5954116e-07
1.688925e-06
-3.2769418e-07
1.7042266e-06
-2.9569573e-07
1.7191877e-06
-2.6353964e-07
1.7338089e-06
-2.3122148e-07
1.7480905e-06
-1.987359e-07
1.7620318e-06
-1.660785e-07
1.7756301e-06
-1.3324175e-07
1.7888819e-06
-1.0022119e-07
1.8017807e-06
-6.7010999e-08
1.8143257e-06
-3.3605633e-08
1.8265264e-06
1.8384166e-06
-1.8948857e-06
-3.1907952e-07
-1.8913353e-06
-2.7868775e-07
-1.8867577e-06
-2.3828613e-07
-1.8811746e-06
-1.9790946e-07
-1.8746075e-06
-1.5759153e-07
-1.8670788e-06
-1.1736364e-07
-1.8586112e-06
-7.7257472e-08
-1.8492272e-06
-3.7300297e-08
-1.8389553e-06
2.4752921e-09
-1.827814e-06
4.204269e-08
-1.8158291e-06
8.1382304e-08
-1.803025e-06
1.2046896e-07
-1.7894269e-06
1.5927911e-07
-1.7750586e-06
1.977922e-07
-1.7599446e-06
2.3598873e-07
-1.7441096e-06
2.7385014e-07
-1.7275779e-06
3.1135934e-07
-1.7103735e-06
3.4850063e-07
-1.6925201e-06
3.8525992e-07
-1.6740414e-06
4.2162267e-07
-1.6549611e-06
4.5757817e-07
-1.6353023e-06
4.9311433e-07
-1.615087e-06
5.28221e-07
-1.594338e-06
5.628897e-07
-1.5730772e-06
5.9711289e-07
-1.5513247e-06
6.3088277e-07
-1.5291029e-06
6.6419416e-07
-1.5064314e-06
6.970413e-07
-1.4833296e-06
7.2941991e-07
-1.4598169e-06
7.6132727e-07
-1.4359119e-06
7.9276058e-07
-1.4116331e-06
8.2371745e-07
-1.3869965e-06
8.5419691e-07
-1.3620204e-06
8.8419895e-07
-1.3367203e-06
9.1372331e-07
-1.3111115e-06
9.4277063e-07
-1.285209e-06
9.713423e-07
-1.2590267e-06
9.9944048e-07
-1.2325783e-06
1.0270665e-06
-1.2058763e-06
1.054224e-06
-1.1789333e-06
1.0809157e-06
-1.15176e-06
1.1071448e-06
-1.1243683e-06
1.132916e-06
-1.0967676e-06
1.1582324e-06
-1.0689675e-06
1.1830983e-06
-1.0409765e-06
1.2075189e-06
-1.0128031e-06
1.2314986e-06
-9.8445471e-07
1.2550433e-06
-9.5593795e-07
1.2781566e-06
-9.2725986e-07
1.3008442e-06
-8.9842479e-07
1.3231115e-06
-8.6943888e-07
1.3449634e-06
-8.4030552e-07
1.3664056e-06
-8.1102955e-07
1.3874425e-06
-7.816134e-07
1.4080798e-06
-7.5205999e-07
1.4283235e-06
-7.2237089e-07
1.448177e-06
-6.9254863e-07
1.4676454e-06
-6.6259378e-07
1.4867345e-06
-6.3250636e-07
1.5054479e-06
-6.0228695e-07
1.5237898e-06
-5.7193489e-07
1.5417651e-06
-5.4144941e-07
1.5593772e-06
-5.1082875e-07
1.5766291e-06
-4.8007181e-07
1.5935246e-06
-4.491758e-07
1.6100665e-06
-4.1813794e-07
1.6262576e-06
-3.8695615e-07
1.6420997e-06
-3.556262e-07
1.6575953e-06
-3.2414426e-07
1.672745e-06
-2.9250684e-07
1.6875505e-06
-2.6071019e-07
1.702012e-06
-2.2874881e-07
1.7161289e-06
-1.9661833e-07
1.7299013e-06
-1.6431278e-07
1.7433256e-06
-1.3182905e-07
1.7563975e-06
-9.9160828e-08
1.7691125e-06
-6.630298e-08
1.7814678e-06
-3.3251228e-08
1.7934744e-06
1.8051652e-06
-1.8507753e-06
-3.2107694e-07
-1.8477541e-06
-2.8170905e-07
-1.8437277e-06
-2.4231239e-07
-1.8387162e-06
-2.0292106e-07
-1.8327402e-06
-1.6356755e-07
-1.8258198e-06
-1.2428398e-07
-1.8179773e-06
-8.5100119e-08
-1.809233e-06
-4.6044368e-08
-1.7996179e-06
-7.1396391e-09
-1.7891422e-06
3.1566941e-08
-1.7778354e-06
7.0075681e-08
-1.7657203e-06
1.0835336e-07
-1.7528193e-06
1.4637823e-07
-1.7391563e-06
1.841292e-07
-1.7247544e-06
2.2158692e-07
-1.7096369e-06
2.5873268e-07
-1.6938273e-06
2.9554967e-07
-1.6773486e-06
3.3202195e-07
-1.6602228e-06
3.681345e-07
-1.642474e-06
4.0387409e-07
-1.6241238e-06
4.3922812e-07
-1.6051949e-06
4.7418505e-07
-1.5857084e-06
5.0873482e-07
-1.5656862e-06
5.4286763e-07
-1.545149e-06
5.7657609e-07
-1.5241179e-06
6.0985127e-07
-1.5026122e-06
6.4268848e-07
-1.4806522e-06
6.7508122e-07
-1.4582568e-06
7.0702485e-07
-1.4354449e-06
7.3851482e-07
-1.4122336e-06
7.6954947e-07
-1.3886411e-06
8.0012498e-07
-1.3646846e-06
8.3024064e-07
-1.3403801e-06
8.5989425e-07
-1.315743e-06
8.8908645e-07
-1.290789e-06
9.1781645e-07
-1.265532e-06
9.4608578e-07
-1.2399863e-06
9.7389473e-07
-1.2141649e-06
1.0012451e-06
-1.1880807e-06
1.0281396e-06
-1.1617451e-06
1.0545804e-06
-1.1351699e-06
1.0805697e-06
-1.1083653e-06
1.1061118e-06
-1.081342e-06
1.131209e-06
-1.0541092e-06
1.1558653e-06
-1.0266755e-06
1.1800852e-06
-9.9904887e-07
1.2038721e-06
-9.7123685e-07
1.2272315e-06
-9.4324686e-07
1.2501665e-06
-9.150849e-07
1.2726823e-06
-8.867568e-07
1.2947832e-06
-8.5826751e-07
1.3164741e-06
-8.2962133e-07
1.3377598e-06
-8.0082321e-07
1.3586445e-06
-7.7187586e-07
1.3791325e-06
-7.4278213e-07
1.3992294e-06
-7.1354445e-07
1.4189392e-06
-6.8416428e-07
1.4382654e-06
-6.5464381e-07
1.4572138e-06
-6.24983e-07
1.4757873e-06
-5.9518282e-07
1.4939895e-06
-5.652428e-07
1.5118251e-06
-5.3516263e-07
1.5292968e-06
-5.049409e-07
1.5464075e-06
-4.7457674e-07
1.5631602e-06
-4.4406764e-07
1.5795576e-06
-4.1341258e-07
1.595602e-06
-3.826078e-07
1.6112953e-06
-3.5165121e-07
1.6266386e-06
-3.2053973e-07
1.6416333e-06
-2.8926911e-07
1.6562797e-06
-2.5783586e-07
1.6705787e-06
-2.2623556e-07
1.6845293e-06
-1.9446486e-07
1.6981302e-06
-1.6251873e-07
1.7113791e-06
-1.3039236e-07
1.7242712e-06
-9.8081942e-08
1.7368024e-06
-6.5582597e-08
1.7489686e-06
-3.2890227e-08
1.760782e-06
1.7722749e-06
-1.8076589e-06
-3.2259885e-07
-1.8051356e-06
-2.8423222e-07
-1.8016292e-06
-2.4581874e-07
-1.797158e-06
-2.0739242e-07
-1.7917408e-06
-1.6898462e-07
-1.7853982e-06
-1.3062662e-07
-1.77815e-06
-9.234836e-08
-1.7700173e-06
-5.4177328e-08
-1.7610181e-06
-1.6138789e-08
-1.7511809e-06
2.172939e-08
-1.740522e-06
5.9417004e-08
-1.7290649e-06
9.6896248e-08
-1.7168313e-06
1.3414489e-07
-1.7038439e-06
1.7114177e-07
-1.6901245e-06
2.0786753e-07
-1.6756956e-06
2.4430407e-07
-1.6605796e-06
2.8043363e-07
-1.6447982e-06
3.1624038e-07
-1.6283734e-06
3.5170976e-07
-1.6113273e-06
3.8682799e-07
-1.5936811e-06
4.2158191e-07
-1.5754562e-06
4.5596009e-07
-1.556674e-06
4.8995206e-07
-1.5373536e-06
5.235475e-07
-1.5175173e-06
5.5673914e-07
-1.4971839e-06
5.8951796e-07
-1.4763729e-06
6.2187738e-07
-1.4551029e-06
6.5381149e-07
-1.4333932e-06
6.8531508e-07
-1.4112615e-06
7.1638363e-07
-1.3887255e-06
7.4701296e-07
-1.3658018e-06
7.7720139e-07
-1.342507e-06
8.0694573e-07
-1.3188571e-06
8.3624462e-07
-1.2948672e-06
8.6509641e-07
-1.2705527e-06
8.9350195e-07
-1.2459269e-06
9.2145971e-07
-1.2210036e-06
9.4897156e-07
-1.1957963e-06
9.7603785e-07
-1.1703171e-06
1.0026604e-06
-1.1445776e-06
1.0288408e-06
-1.1185895e-06
1.0545816e-06
-1.092363e-06
1.0798847e-06
-1.0659074e-06
1.1047535e-06
-1.0392331e-06
1.1291908e-06
-1.0123481e-06
1.1532003e-06
-9.852614e-07
1.1767855e-06
-9.5797954e-07
1.1999496e-06
-9.3050999e-07
1.2226968e-06
-9.0285907e-07
1.2450313e-06
-8.7503291e-07
1.2669567e-06
-8.4703614e-07
1.2884774e-06
-8.1887424e-07
1.3095977e-06
-7.905511e-07
1.3303211e-06
-7.6206955e-07
1.3506513e-06
-7.3343347e-07
1.3705933e-06
-7.0464538e-07
1.3901511e-06
-6.7570763e-07
1.4093277e-06
-6.4662089e-07
1.4281272e-06
-6.1738698e-07
1.4465532e-06
-5.8800647e-07
1.4646092e-06
-5.584796e-07
1.4822979e-06
-5.2880624e-07
1.4996233e-06
-4.9898512e-07
1.5165868e-06
-4.6901634e-07
1.533191e-06
-4.3889766e-07
1.549439e-06
-4.0862761e-07
1.5653322e-06
-3.7820407e-07
1.5808718e-06
-3.4762424e-07
1.5960588e-06
-3.1688579e-07
1.6108948e-06
-2.859859e-07
1.6253795e-06
-2.5492043e-07
1.6395132e-06
-2.2368641e-07
1.6532954e-06
-1.9228008e-07
1.6667241e-06
-1.6069732e-07
1.6797963e-06
-1.2893472e-07
1.6925083e-06
-9.6986921e-08
1.7048543e-06
-6.4851543e-08
1.7168329e-06
-3.2523989e-08
1.7284545e-06
1.7397511e-06
-1.7655191e-06
-3.2367514e-07
-1.7634645e-06
-2.862865e-07
-1.7604482e-06
-2.4883496e-07
-1.7564871e-06
-2.1135338e-07
-1.7515993e-06
-1.7387218e-07
-1.7458033e-06
-1.364227e-07
-1.7391183e-06
-9.9033352e-08
-1.731564e-06
-6.1731659e-08
-1.7231588e-06
-2.4543835e-08
-1.7139272e-06
1.2497755e-08
-1.7038863e-06
4.9376151e-08
-1.6930575e-06
8.606758e-08
-1.6814622e-06
1.2254938e-07
-1.6691213e-06
1.5880072e-07
-1.656056e-06
1.9480224e-07
-1.6422878e-06
2.3053562e-07
-1.6278376e-06
2.6598359e-07
-1.6127269e-06
3.0112945e-07
-1.5969763e-06
3.3595915e-07
-1.5806073e-06
3.704587e-07
-1.5636393e-06
4.0461418e-07
-1.5460941e-06
4.3841482e-07
-1.5279909e-06
4.7184928e-07
-1.5093506e-06
5.0490703e-07
-1.4901913e-06
5.3758023e-07
-1.4705335e-06
5.6986011e-07
-1.450395e-06
6.0173914e-07
-1.429795e-06
6.3321115e-07
-1.4087508e-06
6.6427082e-07
-1.38728e-06
6.9491294e-07
-1.3654001e-06
7.2513322e-07
-1.3431269e-06
7.549284e-07
-1.3204767e-06
7.8429546e-07
-1.2974644e-06
8.1323249e-07
-1.2741062e-06
8.4173805e-07
-1.2504154e-06
8.6981104e-07
-1.2264064e-06
8.9745101e-07
-1.202093e-06
9.2465791e-07
-1.1774867e-06
9.5143174e-07
-1.1525999e-06
9.7777414e-07
-1.1274453e-06
1.0036859e-06
-1.1020332e-06
1.0291693e-06
-1.0763738e-06
1.0542255e-06
-1.0504768e-06
1.0788568e-06
-1.0243527e-06
1.1030663e-06
-9.98009e-07
1.1268567e-06
-9.7145398e-07
1.1502305e-06
-9.4469534e-07
1.1731907e-06
-9.1774037e-07
1.1957421e-06
-8.9059533e-07
1.2178861e-06
-8.6326568e-07
1.2396274e-06
-8.357576e-07
1.2609693e-06
-8.080755e-07
1.2819155e-06
-7.8022347e-07
1.3024692e-06
-7.5220651e-07
1.322634e-06
-7.2402572e-07
1.3424134e-06
-6.956862e-07
1.3618111e-06
-6.6718872e-07
1.3808302e-06
-6.3853509e-07
1.3994738e-06
-6.0972785e-07
1.4177462e-06
-5.8076805e-07
1.4356487e-06
-5.5165464e-07
1.4531851e-06
-5.2238889e-07
1.4703576e-06
-4.9297025e-07
1.4871683e-06
-4.6339808e-07
1.5036191e-06
-4.3367159e-07
1.5197124e-06
-4.0378924e-07
1.5354496e-06
-3.7374941e-07
1.5508321e-06
-3.4354971e-07
1.5658594e-06
-3.1318832e-07
1.5805333e-06
-2.8266218e-07
1.5948535e-06
-2.5196876e-07
1.6088201e-06
-2.2110488e-07
1.6224312e-06
-1.900675e-07
1.6356869e-06
-1.5885267e-07
1.6485819e-06
-1.2745753e-07
1.6611131e-06
-9.5877708e-08
1.6732754e-06
-6.4110694e-08
1.6850657e-06
-3.2152315e-08
1.6964961e-06
1.7075986e-06
-1.7243393e-06
-3.2433319e-07
-1.722725e-06
-2.879009e-07
-1.7201701e-06
-2.5139015e-07
-1.7166906e-06
-2.1483297e-07
-1.712303e-06
-1.7825966e-07
-1.7070254e-06
-1.4170046e-07
-1.7008751e-06
-1.0518362e-07
-1.6938702e-06
-6.8736557e-08
-1.6860297e-06
-3.2384653e-08
-1.6773755e-06
3.8433503e-09
-1.6679236e-06
3.9924484e-08
-1.6576953e-06
7.5838852e-08
-1.6467099e-06
1.1156405e-07
-1.6349879e-06
1.4707888e-07
-1.6225495e-06
1.8236401e-07
-1.6094149e-06
2.1740109e-07
-1.5956044e-06
2.5217281e-07
-1.5811378e-06
2.8666327e-07
-1.5660365e-06
3.2085756e-07
-1.5503183e-06
3.547406e-07
-1.5340049e-06
3.8830076e-07
-1.517115e-06
4.2152473e-07
-1.4996679e-06
4.5440239e-07
-1.4816836e-06
4.8692274e-07
-1.4631801e-06
5.1907657e-07
-1.4441758e-06
5.5085566e-07
-1.4246892e-06
5.8225259e-07
-1.404738e-06
6.1326025e-07
-1.38434e-06
6.4387235e-07
-1.3635114e-06
6.7408399e-07
-1.3422685e-06
7.0389036e-07
-1.3206279e-06
7.3328776e-07
-1.2986051e-06
7.6227273e-07
-1.2762155e-06
7.9084225e-07
-1.2534729e-06
8.1899567e-07
-1.2303915e-06
8.4672998e-07
-1.2069853e-06
8.7404457e-07
-1.1832668e-06
9.009392e-07
-1.1592491e-06
9.2741384e-07
-1.1349435e-06
9.5346846e-07
-1.1103618e-06
9.7910443e-07
-1.0855148e-06
1.0043224e-06
-1.0604125e-06
1.0291233e-06
-1.0350652e-06
1.0535093e-06
-1.0094814e-06
1.0774826e-06
-9.8367018e-07
1.1010458e-06
-9.5763997e-07
1.1242e-06
-9.3139806e-07
1.1469487e-06
-9.0495066e-07
1.1692948e-06
-8.7830589e-07
1.1912412e-06
-8.5146826e-07
1.2127899e-06
-8.244441e-07
1.2339452e-06
-7.972378e-07
1.2547092e-06
-7.6985424e-07
1.2750854e-06
-7.4229673e-07
1.2950769e-06
-7.1457009e-07
1.3146863e-06
-6.8667613e-07
1.3339175e-06
-6.5861779e-07
1.3527722e-06
-6.3039721e-07
1.3712533e-06
-6.0201627e-07
1.3893649e-06
-5.7347513e-07
1.4071082e-06
-5.4477645e-07
1.4244861e-06
-5.159189e-07
1.4415005e-06
-4.8690363e-07
1.4581529e-06
-4.5773002e-07
1.4744453e-06
-4.2839732e-07
1.4903797e-06
-3.989047e-07
1.5059571e-06
-3.692508e-07
1.5211776e-06
-3.3943365e-07
1.5360425e-06
-3.0945208e-07
1.5505515e-06
-2.7930363e-07
1.564705e-06
-2.4898536e-07
1.5785017e-06
-2.1849519e-07
1.591941e-06
-1.8783014e-07
1.6050215e-06
-1.5698745e-07
1.6177387e-06
-1.2596338e-07
1.6300893e-06
-9.4755722e-08
1.6420673e-06
-6.3361522e-08
1.6536714e-06
-3.1777193e-08
1.664912e-06
1.6758214e-06
-1.6841022e-06
-3.2459964e-07
-1.6829014e-06
-2.8910164e-07
-1.6807808e-06
-2.5351071e-07
-1.6777556e-06
-2.1785811e-07
-1.6738413e-06
-1.8217405e-07
-1.6690538e-06
-1.4648776e-07
-1.6634103e-06
-1.1082716e-07
-1.6569276e-06
-7.5219284e-08
-1.6496241e-06
-3.9687925e-08
-1.6415205e-06
-4.2599277e-09
-1.6326304e-06
3.1033881e-08
-1.6229745e-06
6.6183432e-08
-1.6125723e-06
1.011618e-07
-1.6014429e-06
1.3594923e-07
-1.5896048e-06
1.7052615e-07
-1.5770781e-06
2.0487426e-07
-1.5638812e-06
2.3897647e-07
-1.5500342e-06
2.7281611e-07
-1.5355559e-06
3.0637904e-07
-1.5204655e-06
3.3965029e-07
-1.5047822e-06
3.7261722e-07
-1.4885244e-06
4.0526715e-07
-1.471711e-06
4.3758872e-07
-1.4543603e-06
4.6957193e-07
-1.4364903e-06
5.0120671e-07
-1.4181188e-06
5.3248447e-07
-1.3992638e-06
5.6339729e-07
-1.3799419e-06
5.9393827e-07
-1.3601702e-06
6.2410088e-07
-1.3399646e-06
6.5387861e-07
-1.3193421e-06
6.8326782e-07
-1.2983171e-06
7.12263e-07
-1.2769051e-06
7.4086064e-07
-1.2551211e-06
7.6905836e-07
-1.2329784e-06
7.9685302e-07
-1.2104921e-06
8.2424331e-07
-1.1876742e-06
8.512271e-07
-1.1645382e-06
8.778031e-07
-1.1410964e-06
9.039717e-07
-1.1173592e-06
9.2973174e-07
-1.0933395e-06
9.5508454e-07
-1.0690469e-06
9.8002975e-07
-1.0444916e-06
1.0045682e-06
-1.0196841e-06
1.0287017e-06
-9.9463248e-07
1.0524312e-06
-9.6934593e-07
1.0757589e-06
-9.4383231e-07
1.0986867e-06
-9.1809937e-07
1.121216e-06
-8.9215395e-07
1.1433491e-06
-8.6600266e-07
1.1650896e-06
-8.3965159e-07
1.1864388e-06
-8.1310599e-07
1.2073995e-06
-7.8637163e-07