/*--------------------------------*- C++ -*----------------------------------*\
| =========                 |                                                 |
| \\      /  F ield         | OpenFOAM: The Open Source CFD Toolbox           |
|  \\    /   O peration     | Version:  2306                                  |
|   \\  /    A nd           | Website:  www.openfoam.com                      |
|    \\/     M anipulation  |                                                 |
\*---------------------------------------------------------------------------*/
FoamFile
{
    version     2.0;
    format      ascii;
    arch        "LSB;label=32;scalar=64";
    class       surfaceScalarField;
    location    "0.52";
    object      phi_0;
}
// * * * * * * * * * * * * * * * * * * * * * * * * * * * * * * * * * * * * * //

dimensions      [0 3 -1 0 0 0 0];

oriented        oriented;

internalField   nonuniform List<scalar> 
12640
(
-2.2314672e-06
-2.8865062e-07
-2.2231978e-06
-2.4045585e-07
-2.2137462e-06
-1.9242631e-07
-2.2031434e-06
-1.4460275e-07
-2.1914239e-06
-9.7022481e-08
-2.1786171e-06
-4.9720922e-08
-2.1647745e-06
-2.7245558e-09
-2.1499065e-06
4.3902166e-08
-2.1340592e-06
9.016948e-08
-2.117266e-06
1.360329e-07
-2.0995611e-06
1.8146782e-07
-2.0809786e-06
2.2644968e-07
-2.0615533e-06
2.7095652e-07
-2.0413181e-06
3.1496722e-07
-2.0203073e-06
3.5846392e-07
-1.9985539e-06
4.0142923e-07
-1.9760907e-06
4.4384825e-07
-1.9529503e-06
4.8570675e-07
-1.9291636e-06
5.2699318e-07
-1.9047627e-06
5.6769597e-07
-1.8797773e-06
6.0780652e-07
-1.854238e-06
6.4731729e-07
-1.8281733e-06
6.8622205e-07
-1.8016119e-06
7.2451483e-07
-1.7745813e-06
7.621924e-07
-1.7471085e-06
7.9925205e-07
-1.7192193e-06
8.3569237e-07
-1.6909382e-06
8.7151258e-07
-1.6622905e-06
9.0671352e-07
-1.6332992e-06
9.412962e-07
-1.6039863e-06
9.752637e-07
-1.5743732e-06
1.0086187e-06
-1.5444811e-06
1.0413652e-06
-1.5143288e-06
1.073508e-06
-1.4839362e-06
1.1050531e-06
-1.4533199e-06
1.1360065e-06
-1.4224974e-06
1.166374e-06
-1.391484e-06
1.1961646e-06
-1.3602954e-06
1.2253838e-06
-1.3289447e-06
1.2540412e-06
-1.297446e-06
1.2821453e-06
-1.2658099e-06
1.3097049e-06
-1.2340492e-06
1.3367286e-06
-1.2021736e-06
1.3632268e-06
-1.1701925e-06
1.3892081e-06
-1.1381136e-06
1.4146833e-06
-1.1059458e-06
1.4396627e-06
-1.0736948e-06
1.4641543e-06
-1.0413677e-06
1.4881718e-06
-1.0089693e-06
1.5117214e-06
-9.7650335e-07
1.5348151e-06
-9.4397379e-07
1.5574639e-06
-9.1138328e-07
1.5796771e-06
-8.7873307e-07
1.6014633e-06
-8.4602542e-07
1.6228337e-06
-8.1325972e-07
1.6437976e-06
-7.8043693e-07
1.664364e-06
-7.4755487e-07
1.6845416e-06
-7.1461235e-07
1.7043404e-06
-6.8160751e-07
1.7237679e-06
-6.485373e-07
1.7428328e-06
-6.1539795e-07
1.7615427e-06
-5.8218597e-07
1.7799054e-06
-5.4889564e-07
1.7979278e-06
-5.1552206e-07
1.8156156e-06
-4.8205999e-07
1.8329761e-06
-4.4850225e-07
1.850015e-06
-4.1484363e-07
1.8667368e-06
-3.8107499e-07
1.8831465e-06
-3.4718999e-07
1.8992489e-06
-3.1318026e-07
1.915046e-06
-2.7903764e-07
1.9305418e-06
-2.4475305e-07
1.9457374e-06
-2.1031665e-07
1.9606342e-06
-1.7572056e-07
1.9752309e-06
-1.4095394e-07
1.9895243e-06
-1.060082e-07
2.0035088e-06
-7.0873236e-08
2.0171818e-06
-3.5540323e-08
2.0305519e-06
2.0436553e-06
-2.1799715e-06
-2.9493508e-07
-2.1724968e-06
-2.4793047e-07
-2.1638616e-06
-2.0106132e-07
-2.1540969e-06
-1.5436745e-07
-2.1432339e-06
-1.0788561e-07
-2.1313047e-06
-6.1650012e-08
-2.1183412e-06
-1.5688005e-08
-2.104378e-06
2.9938918e-08
-2.0894449e-06
7.5236179e-08
-2.0735752e-06
1.2016332e-07
-2.0568023e-06
1.6469481e-07
-2.0391586e-06
2.0880608e-07
-2.0206767e-06
2.524746e-07
-2.0013891e-06
2.9567973e-07
-1.981328e-06
3.3840301e-07
-1.9605253e-06
3.8062687e-07
-1.9390125e-06
4.223355e-07
-1.9168206e-06
4.6351469e-07
-1.8939804e-06
5.0415242e-07
-1.8705208e-06
5.4423677e-07
-1.8464726e-06
5.8375805e-07
-1.8218638e-06
6.227083e-07
-1.7967225e-06
6.6108084e-07
-1.7710762e-06
6.9886882e-07
-1.7449521e-06
7.3606835e-07
-1.718376e-06
7.7267593e-07
-1.691373e-06
8.0868918e-07
-1.6639671e-06
8.441071e-07
-1.6361825e-06
8.7892892e-07
-1.6080414e-06
9.13155e-07
-1.5795661e-06
9.4678828e-07
-1.5507775e-06
9.7982978e-07
-1.5216949e-06
1.0122829e-06
-1.4923388e-06
1.0441516e-06
-1.4627265e-06
1.0754411e-06
-1.4328761e-06
1.1061559e-06
-1.4028038e-06
1.1363019e-06
-1.3725257e-06
1.1658861e-06
-1.3420562e-06
1.1949143e-06
-1.3114093e-06
1.2233943e-06
-1.2805974e-06
1.2513335e-06
-1.2496335e-06
1.2787407e-06
-1.2185282e-06
1.3056239e-06
-1.1872915e-06
1.3319901e-06
-1.155934e-06
1.3578507e-06
-1.1244632e-06
1.3832127e-06
-1.0928871e-06
1.4080864e-06
-1.0612131e-06
1.4324809e-06
-1.029447e-06
1.4564052e-06
-9.9759409e-07
1.4798687e-06
-9.6565918e-07
1.5028806e-06
-9.3364619e-07
1.5254507e-06
-9.0155715e-07
1.5475878e-06
-8.6939538e-07
1.5693012e-06
-8.3716175e-07
1.5906e-06
-8.0485716e-07
1.611493e-06
-7.7248221e-07
1.6319886e-06
-7.4003618e-07
1.6520957e-06
-7.0751747e-07
1.6718221e-06
-6.7492515e-07
1.6911755e-06
-6.4225554e-07
1.7101639e-06
-6.0950623e-07
1.7287939e-06
-5.76674e-07
1.7470733e-06
-5.4375455e-07
1.7650084e-06
-5.107432e-07
1.7826043e-06
-4.7763461e-07
1.7998679e-06
-4.4442269e-07
1.8168032e-06
-4.1110243e-07
1.8334164e-06
-3.7766654e-07
1.8497104e-06
-3.441075e-07
1.8656899e-06
-3.1041871e-07
1.881357e-06
-2.7659173e-07
1.8967147e-06
-2.4261923e-07
1.911765e-06
-2.0849234e-07
1.9265071e-06
-1.7420199e-07
1.9409407e-06
-1.397402e-07
1.9550621e-06
-1.050974e-07
1.9688661e-06
-7.0265852e-08
1.9823502e-06
-3.5236158e-08
1.9955223e-06
2.0084191e-06
-2.1295821e-06
-3.0049243e-07
-2.1228586e-06
-2.5465423e-07
-2.1149968e-06
-2.0892287e-07
-2.1060265e-06
-1.6333775e-07
-2.0959775e-06
-1.1793456e-07
-2.0848791e-06
-7.2748362e-08
-2.0727579e-06
-2.780939e-08
-2.0596553e-06
1.6836508e-08
-2.0455944e-06
6.1175406e-08
-2.0306071e-06
1.051764e-07
-2.0147253e-06
1.4881306e-07
-1.9979803e-06
1.9206086e-07
-1.9804027e-06
2.348972e-07
-1.9620243e-06
2.7730128e-07
-1.9428755e-06
3.1925426e-07
-1.9229867e-06
3.6073804e-07
-1.9023882e-06
4.0173698e-07
-1.8811101e-06
4.4223649e-07
-1.8591809e-06
4.8222348e-07
-1.8366305e-06
5.2168627e-07
-1.8134868e-06
5.6061444e-07
-1.7897774e-06
5.9899906e-07
-1.7655294e-06
6.3683325e-07
-1.74077e-06
6.7410931e-07
-1.7155241e-06
7.1082284e-07
-1.6898179e-06
7.4696975e-07
-1.6636752e-06
7.8254624e-07
-1.6371191e-06
8.175512e-07
-1.6101737e-06
8.5198319e-07
-1.5828609e-06
8.8584219e-07
-1.5552015e-06
9.1912864e-07
-1.5272158e-06
9.5184435e-07
-1.4989245e-06
9.8399158e-07
-1.4703454e-06
1.0155726e-06
-1.4414966e-06
1.0465923e-06
-1.4123957e-06
1.0770549e-06
-1.3830587e-06
1.1069651e-06
-1.3535013e-06
1.1363285e-06
-1.3237375e-06
1.1651506e-06
-1.2937814e-06
1.1934383e-06
-1.2636463e-06
1.2211985e-06
-1.2333433e-06
1.2484376e-06
-1.2028837e-06
1.2751641e-06
-1.1722787e-06
1.3013851e-06
-1.1415365e-06
1.3271082e-06
-1.1106674e-06
1.3523433e-06
-1.0796777e-06
1.3770968e-06
-1.048575e-06
1.4013781e-06
-1.017366e-06
1.4251962e-06
-9.8605609e-07
1.4485589e-06
-9.5464942e-07
1.4714741e-06
-9.2315039e-07
1.4939523e-06
-8.9156281e-07
1.516e-06
-8.5988841e-07
1.5376268e-06
-8.2812944e-07
1.5588413e-06
-7.9628745e-07
1.579651e-06
-7.6436217e-07
1.6000635e-06
-7.3235391e-07
1.6200873e-06
-7.002621e-07
1.6397299e-06
-6.6808484e-07
1.6589982e-06
-6.3582098e-07
1.6778995e-06
-6.0346729e-07
1.6964402e-06
-5.7102063e-07
1.7146267e-06
-5.3847739e-07
1.7324654e-06
-5.0583397e-07
1.7499605e-06
-4.7308504e-07
1.7671191e-06
-4.4022638e-07
1.7839447e-06
-4.072515e-07
1.8004418e-06
-3.7415511e-07
1.816614e-06
-3.4093038e-07
1.8324652e-06
-3.0757077e-07
1.8479977e-06
-2.7406861e-07
1.8632128e-06
-2.4041718e-07
1.8781135e-06
-2.066079e-07
1.8926982e-06
-1.7263401e-07
1.9069664e-06
-1.3848635e-07
1.9209144e-06
-1.0415725e-07
1.9345373e-06
-6.9638085e-08
1.947831e-06
-3.4921769e-08
1.9608062e-06
1.9734977e-06
-2.0802838e-06
-3.0536504e-07
-2.0742697e-06
-2.6066808e-07
-2.0671403e-06
-2.1605231e-07
-2.0589228e-06
-1.7155518e-07
-2.0496448e-06
-1.2721272e-07
-2.0393345e-06
-8.3058458e-08
-2.0280212e-06
-3.9122893e-08
-2.0157369e-06
4.552343e-09
-2.0025072e-06
4.7945347e-08
-1.9883621e-06
9.1031667e-08
-1.9733326e-06
1.3378325e-07
-1.9574476e-06
1.7617579e-07
-1.9407372e-06
2.1818672e-07
-1.9232305e-06
2.5979475e-07
-1.9049577e-06
3.00981e-07
-1.8859469e-06
3.4172765e-07
-1.8662284e-06
3.8201813e-07
-1.8458297e-06
4.2183785e-07
-1.8247791e-06
4.6117306e-07
-1.8031053e-06
5.0001224e-07
-1.7808347e-06
5.3834384e-07
-1.7579946e-06
5.7615912e-07
-1.7346108e-06
6.1344941e-07
-1.7107088e-06
6.5020727e-07
-1.6863146e-06
6.8642803e-07
-1.6614509e-06
7.221064e-07
-1.6361435e-06
7.5723857e-07
-1.6104133e-06
7.918212e-07
-1.5842836e-06
8.2585372e-07
-1.557776e-06
8.5933472e-07
-1.5309114e-06
8.9226403e-07
-1.5037092e-06
9.2464199e-07
-1.4761888e-06
9.564711e-07
-1.4483689e-06
9.8775254e-07
-1.4202667e-06
1.0184902e-06
-1.391899e-06
1.0486872e-06
-1.363282e-06
1.0783482e-06
-1.3344308e-06
1.107477e-06
-1.3053601e-06
1.1360799e-06
-1.2760831e-06
1.1641612e-06
-1.2466125e-06
1.1917276e-06
-1.2169602e-06
1.2187854e-06
-1.1871373e-06
1.2453413e-06
-1.1571544e-06
1.271402e-06
-1.127021e-06
1.296975e-06
-1.0967455e-06
1.3220677e-06
-1.0663359e-06
1.3466877e-06
-1.0358e-06
1.3708418e-06
-1.0051435e-06
1.3945397e-06
-9.7437197e-07
1.417787e-06
-9.4349125e-07
1.4405934e-06
-9.1250531e-07
1.4629658e-06
-8.8141672e-07
1.4849119e-06
-8.5022973e-07
1.5064399e-06
-8.1894521e-07
1.527557e-06
-7.8756561e-07
1.5482712e-06
-7.5609166e-07
1.5685897e-06
-7.2452346e-07
1.5885189e-06
-6.9286026e-07
1.6080671e-06
-6.6110196e-07
1.6272401e-06
-6.292466e-07
1.6460442e-06
-5.9729179e-07
1.6644853e-06
-5.6523559e-07
1.6825702e-06
-5.3307429e-07
1.7003041e-06
-5.0080427e-07
1.7176907e-06
-4.6842151e-07
1.7347365e-06
-4.3592179e-07
1.7514448e-06
-4.0329938e-07
1.7678193e-06
-3.7054964e-07
1.7838646e-06
-3.3766615e-07
1.7995818e-06
-3.0464307e-07
1.8149742e-06
-2.7147413e-07
1.8300437e-06
-2.3815207e-07
1.8447916e-06
-2.0466986e-07
1.8592162e-06
-1.7102011e-07
1.8733167e-06
-1.3719588e-07
1.8870899e-06
-1.0318895e-07
1.9005299e-06
-6.89919e-08
1.913634e-06
-3.4598081e-08
1.9264123e-06
1.9388994e-06
-2.0320611e-06
-3.0959163e-07
-2.0267169e-06
-2.6601266e-07
-2.0202796e-06
-2.2248961e-07
-2.0127751e-06
-1.790596e-07
-2.0042298e-06
-1.3575813e-07
-1.9946697e-06
-9.2618597e-08
-1.9841203e-06
-4.9672422e-08
-1.9726188e-06
-6.9488997e-09
-1.9601814e-06
3.5507747e-08
-1.9468409e-06
7.7691374e-08
-1.9326258e-06
1.1956808e-07
-1.9175639e-06
1.6111396e-07
-1.9016835e-06
2.0230617e-07
-1.885013e-06
2.4312442e-07
-1.8675807e-06
2.8354857e-07
-1.8494142e-06
3.235611e-07
-1.8305414e-06
3.6314522e-07
-1.8109895e-06
4.0228591e-07
-1.7907858e-06
4.4096978e-07
-1.7699568e-06
4.7918326e-07
-1.7485293e-06
5.1691631e-07
-1.7265286e-06
5.5415833e-07
-1.7039801e-06
5.9090057e-07
-1.6809085e-06
6.2713596e-07
-1.6573383e-06
6.6285792e-07
-1.6332927e-06
6.9806105e-07
-1.6087947e-06
7.3274071e-07
-1.5838669e-06
7.6689337e-07
-1.5585305e-06
8.0051742e-07
-1.5328067e-06
8.3361058e-07
-1.5067153e-06
8.6617285e-07
-1.4802761e-06
8.9820283e-07
-1.4535081e-06
9.2970284e-07
-1.4264289e-06
9.6067355e-07
-1.3990563e-06
9.9111726e-07
-1.3714056e-06
1.0210369e-06
-1.3434936e-06
1.050436e-06
-1.3153352e-06
1.0793189e-06
-1.2869431e-06
1.1076884e-06
-1.2583327e-06
1.1355509e-06
-1.2295157e-06
1.1629106e-06
-1.2005037e-06
1.1897733e-06
-1.1713078e-06
1.2161453e-06
-1.1419385e-06
1.2420332e-06
-1.1124055e-06
1.2674421e-06
-1.0827171e-06
1.2923794e-06
-1.0528813e-06
1.3168518e-06
-1.0229058e-06
1.3408666e-06
-9.9279694e-07
1.3644309e-06
-9.6256104e-07
1.3875511e-06
-9.3220231e-07
1.4102349e-06
-9.0172569e-07
1.4324896e-06
-8.7113561e-07
1.4543214e-06
-8.4043431e-07
1.4757383e-06
-8.0962403e-07
1.4967471e-06
-7.7870737e-07
1.5173542e-06
-7.4768509e-07
1.5375674e-06
-7.1655828e-07
1.5573918e-06
-6.8532621e-07
1.5768349e-06
-6.5398918e-07
1.5959021e-06
-6.2254507e-07
1.6146001e-06
-5.909932e-07
1.6329337e-06
-5.593308e-07
1.650908e-06
-5.2755531e-07
1.6685283e-06
-4.9566368e-07
1.6857993e-06
-4.6365238e-07
1.7027251e-06
-4.3151705e-07
1.7193094e-06
-3.9925386e-07
1.7355562e-06
-3.6685718e-07
1.751468e-06
-3.3432252e-07
1.7670466e-06
-3.016434e-07
1.7822955e-06
-2.6881451e-07
1.797215e-06
-2.3582946e-07
1.8118063e-06
-2.0268139e-07
1.8260686e-06
-1.6936454e-07
1.8399998e-06
-1.3587126e-07
1.8535968e-06
-1.0219451e-07
1.8668533e-06
-6.8328258e-08
1.879768e-06
-3.4265733e-08
1.8923496e-06
1.9046338e-06
-1.9848982e-06
-3.1321013e-07
-1.9801858e-06
-2.7072486e-07
-1.9744031e-06
-2.282724e-07
-1.9675738e-06
-1.8588889e-07
-1.9597227e-06
-1.4360909e-07
-1.9508751e-06
-1.0146627e-07
-1.9410559e-06
-5.9491503e-08
-1.9302943e-06
-1.7710692e-08
-1.9186139e-06
2.3827463e-08
-1.9060417e-06
6.5119229e-08
-1.8926052e-06
1.0613126e-07
-1.8783305e-06
1.4683953e-07
-1.8632454e-06
1.8722104e-07
-1.8473763e-06
2.2725522e-07
-1.8307507e-06
2.6692284e-07
-1.8133947e-06
3.0620496e-07
-1.7953351e-06
3.4508554e-07
-1.776598e-06
3.8354905e-07
-1.7572098e-06
4.2158133e-07
-1.7371962e-06
4.5916972e-07
-1.7165819e-06
4.9630224e-07
-1.6953921e-06
5.3296847e-07
-1.673651e-06
5.6915987e-07
-1.6513828e-06
6.0486756e-07
-1.6286105e-06
6.400858e-07
-1.6053577e-06
6.7480766e-07
-1.5816451e-06
7.0902859e-07
-1.5574959e-06
7.4274401e-07
-1.5329298e-06
7.7595169e-07
-1.5079682e-06
8.0864897e-07
-1.48263e-06
8.4083443e-07
-1.4569347e-06
8.7250763e-07
-1.4309002e-06
9.0366848e-07
-1.404544e-06
9.3431717e-07
-1.3778833e-06
9.6445683e-07
-1.3509344e-06
9.9408799e-07
-1.3237122e-06
1.0232137e-06
-1.2962318e-06
1.0518381e-06
-1.2685067e-06
1.0799633e-06
-1.2405498e-06
1.1075941e-06
-1.2123744e-06
1.1347352e-06
-1.183992e-06
1.1613908e-06
-1.1554135e-06
1.1875667e-06
-1.1266485e-06
1.2132681e-06
-1.0977077e-06
1.2385009e-06
-1.0685989e-06
1.2632703e-06
-1.0393303e-06
1.2875834e-06
-1.0099099e-06
1.3114462e-06
-9.8034406e-07
1.3348648e-06
-9.5063825e-07
1.3578456e-06
-9.2079866e-07
1.3803951e-06
-8.9082947e-07
1.4025199e-06
-8.6073446e-07
1.4242265e-06
-8.3051689e-07
1.4455211e-06
-8.001803e-07
1.4664105e-06
-7.6972637e-07
1.4869004e-06
-7.3915646e-07
1.5069974e-06
-7.0847178e-07
1.5267072e-06
-6.7767238e-07
1.5460357e-06
-6.467582e-07
1.5649882e-06
-6.1572828e-07
1.5835702e-06
-5.8458173e-07
1.6017869e-06
-5.5331747e-07
1.6196432e-06
-5.2193147e-07
1.6371429e-06
-4.9042275e-07
1.6542902e-06
-4.5878745e-07
1.6710898e-06
-4.2702216e-07
1.6875444e-06
-3.9512313e-07
1.7036571e-06
-3.6308535e-07
1.7194303e-06
-3.3090473e-07
1.7348664e-06
-2.9857617e-07
1.7499668e-06
-2.6609403e-07
1.7647329e-06
-2.3345303e-07
1.7791649e-06
-2.0064694e-07
1.7932624e-06
-1.6766946e-07
1.8070223e-06
-1.3451481e-07
1.8204422e-06
-1.011764e-07
1.8335149e-06
-6.7648586e-08
1.8462402e-06
-3.392524e-08
1.8586265e-06
1.8707083e-06
-1.9387782e-06
-3.1625594e-07
-1.9346621e-06
-2.7484118e-07
-1.9294977e-06
-2.3343683e-07
-1.9233075e-06
-1.9207892e-07
-1.9161151e-06
-1.508016e-07
-1.9079439e-06
-1.0963749e-07
-1.8988182e-06
-6.8617156e-08
-1.88876e-06
-2.7768874e-08
-1.8778018e-06
1.2869178e-08
-1.8659631e-06
5.3280517e-08
-1.85327e-06
9.3438154e-08
-1.8397486e-06
1.3331824e-07
-1.8254249e-06
1.7289719e-07
-1.8103239e-06
2.1215462e-07
-1.7944719e-06
2.5107107e-07
-1.7778943e-06
2.896275e-07
-1.7606168e-06
3.2780802e-07
-1.7426639e-06
3.6559601e-07
-1.7240609e-06
4.0297835e-07
-1.7048327e-06
4.3994121e-07
-1.6850029e-06
4.7647227e-07
-1.6645964e-06
5.1256181e-07
-1.6436357e-06
5.4819907e-07
-1.6221444e-06
5.8337642e-07
-1.6001448e-06
6.180862e-07
-1.5776593e-06
6.5232231e-07
-1.5547096e-06
6.8607858e-07
-1.5313157e-06
7.193503e-07
-1.5074987e-06
7.5213438e-07
-1.4832775e-06
7.8442819e-07
-1.4586724e-06
8.1622925e-07
-1.4337012e-06
8.4753625e-07
-1.4083815e-06
8.7834872e-07
-1.3827311e-06
9.086667e-07
-1.3567662e-06
9.3849194e-07
-1.3305027e-06
9.6782437e-07
-1.3039552e-06
9.9666671e-07
-1.2771385e-06
1.0250212e-06
-1.2500666e-06
1.0528911e-06
-1.2227517e-06
1.0802795e-06
-1.1952065e-06
1.1071899e-06
-1.167443e-06
1.1336275e-06
-1.1394719e-06
1.1595955e-06
-1.1113029e-06
1.1850993e-06
-1.0829451e-06
1.2101435e-06
-1.0544089e-06
1.2347339e-06
-1.025701e-06
1.2588755e-06
-9.968295e-07
1.282575e-06
-9.6780066e-07
1.3058363e-06
-9.3862124e-07
1.3286659e-06
-9.0929615e-07
1.3510702e-06
-8.7983053e-07
1.3730545e-06
-8.5022876e-07
1.3946246e-06
-8.2049396e-07
1.415786e-06
-7.9062909e-07
1.4365455e-06
-7.6063719e-07
1.4569083e-06
-7.3051931e-07
1.4768797e-06
-7.0027666e-07
1.4964647e-06
-6.6991067e-07
1.5156693e-06
-6.3942127e-07
1.5344985e-06
-6.088075e-07
1.5529566e-06
-5.7806936e-07
1.5710489e-06
-5.4720479e-07
1.5887789e-06
-5.1621294e-07
1.6061509e-06
-4.8509039e-07
1.6231681e-06
-4.5383542e-07
1.639835e-06
-4.2244492e-07
1.6561535e-06
-3.9091447e-07
1.6721267e-06
-3.5924107e-07
1.687757e-06
-3.2742041e-07
1.7030458e-06
-2.9544828e-07
1.7179946e-06
-2.6331898e-07
1.7326038e-06
-2.3102775e-07
1.7468739e-06
-1.9856917e-07
1.7608042e-06
-1.6593875e-07
1.7743922e-06
-1.3312977e-07
1.7876331e-06
-1.0013693e-07
1.800522e-06
-6.6954798e-08
1.8130575e-06
-3.3577501e-08
1.8252492e-06
1.8371309e-06
-1.8936851e-06
-3.1876373e-07
-1.8901309e-06
-2.7839526e-07
-1.8855503e-06
-2.3801745e-07
-1.8799648e-06
-1.9766461e-07
-1.8733959e-06
-1.5737079e-07
-1.865866e-06
-1.1716712e-07
-1.8573978e-06
-7.708545e-08
-1.8480139e-06
-3.7152854e-08
-1.8377426e-06
2.5979649e-09
-1.8266026e-06
4.2140377e-08
-1.8146196e-06
8.1455146e-08
-1.8018181e-06
1.2051667e-07
-1.7882228e-06
1.5930198e-07
-1.7738581e-06
1.9778992e-07
-1.7587486e-06
2.3596116e-07
-1.7429182e-06
2.7379761e-07
-1.7263921e-06
3.1128132e-07
-1.7091933e-06
3.4839754e-07
-1.6913467e-06
3.8513179e-07
-1.6728748e-06
4.2146956e-07
-1.6538023e-06
4.5739981e-07
-1.6341514e-06
4.9291094e-07
-1.6139449e-06
5.2799256e-07
-1.5932051e-06
5.6263656e-07
-1.5719539e-06
5.9683493e-07
-1.5502118e-06
6.3058e-07
-1.5280006e-06
6.6386712e-07
-1.5053401e-06
6.9668996e-07
-1.4822499e-06
7.2904438e-07
-1.4587494e-06
7.6092743e-07
-1.4348571e-06
7.9233701e-07
-1.4105912e-06
8.2327019e-07
-1.3859683e-06
8.5372611e-07
-1.3610063e-06
8.8370466e-07
-1.3357205e-06
9.1320603e-07
-1.3101263e-06
9.4223038e-07
-1.2842392e-06
9.7077928e-07
-1.2580727e-06
9.9885497e-07
-1.2316402e-06
1.0264586e-06
-1.2049549e-06
1.0535939e-06
-1.1780288e-06
1.0802639e-06
-1.1508729e-06
1.1064714e-06
-1.1234987e-06
1.1322213e-06
-1.0959161e-06
1.1575166e-06
-1.0681344e-06
1.1823616e-06
-1.0401625e-06
1.2067617e-06
-1.0120078e-06
1.2307214e-06
-9.8367899e-07
1.2542459e-06
-9.5518248e-07
1.2773393e-06
-9.265241e-07
1.3000077e-06
-8.9770987e-07
1.3222558e-06
-8.6874425e-07
1.3440892e-06
-8.3963275e-07
1.3655128e-06
-8.1037791e-07
1.3865315e-06
-7.8098361e-07
1.4071508e-06
-7.5145222e-07
1.427377e-06
-7.2178573e-07
1.4472134e-06
-6.9198587e-07
1.4666651e-06
-6.6205419e-07
1.4857373e-06
-6.3199024e-07
1.5044345e-06
-6.0179423e-07
1.5227606e-06
-5.71466e-07
1.5407204e-06
-5.4100443e-07
1.5583175e-06
-5.1040831e-07
1.5755545e-06
-4.7967576e-07
1.5924357e-06
-4.4880474e-07
1.6089636e-06
-4.1779183e-07
1.6251411e-06
-3.8663526e-07
1.64097e-06
-3.5533095e-07
1.6564527e-06
-3.2387496e-07
1.6715895e-06
-2.9226341e-07
1.6863834e-06
-2.6049296e-07
1.7008331e-06
-2.2855804e-07
1.7149388e-06
-1.9645403e-07
1.7287002e-06
-1.6417586e-07
1.7421137e-06
-1.3171896e-07
1.7551758e-06
-9.9077945e-08
1.7678813e-06
-6.624764e-08
1.7802274e-06
-3.3223409e-08
1.792225e-06
1.8039076e-06
-1.8496018e-06
-3.2076536e-07
-1.8465769e-06
-2.8142026e-07
-1.8425473e-06
-2.420466e-07
-1.8375334e-06
-2.0267875e-07
-1.8315553e-06
-1.6334857e-07
-1.8246337e-06
-1.240888e-07
-1.8167903e-06
-8.4928792e-08
-1.808046e-06
-4.589728e-08
-1.7984315e-06
-7.016506e-09
-1.7879566e-06
3.1665761e-08
-1.7766517e-06
7.0150274e-08
-1.7645386e-06
1.0840354e-07
-1.7516406e-06
1.4640384e-07
-1.737981e-06
1.8413028e-07
-1.723583e-06
2.2156343e-07
-1.7084702e-06
2.5868446e-07
-1.6926657e-06
2.9547704e-07
-1.6761924e-06
3.3192452e-07
-1.659073e-06
3.6801217e-07
-1.6413311e-06
4.0372729e-07
-1.6229882e-06
4.3905688e-07
-1.6040669e-06
4.7398944e-07
-1.5845887e-06
5.0851482e-07
-1.5645755e-06
5.4262327e-07
-1.5440478e-06
5.7630743e-07
-1.5230263e-06
6.0955865e-07
-1.501531e-06
6.4237182e-07
-1.4795818e-06
6.7474075e-07
-1.4571979e-06
7.0666046e-07
-1.4343973e-06
7.3812717e-07
-1.4111986e-06
7.6913809e-07
-1.3876186e-06
7.9969034e-07
-1.3636756e-06
8.2978273e-07
-1.3393846e-06
8.5941372e-07
-1.3147616e-06
8.8858308e-07
-1.2898218e-06
9.1729071e-07
-1.2645798e-06
9.4553751e-07
-1.2390496e-06
9.7332427e-07
-1.2132439e-06
1.0006529e-06
-1.1871756e-06
1.0275259e-06
-1.1608567e-06
1.053945e-06
-1.1342985e-06
1.0799131e-06
-1.1075112e-06
1.1054342e-06
-1.0805054e-06
1.1305109e-06
-1.0532907e-06
1.1551465e-06
-1.0258754e-06
1.1793465e-06
-9.9826759e-07
1.2031134e-06
-9.7047469e-07
1.2264532e-06
-9.4250417e-07
1.2493688e-06
-9.1436189e-07
1.2718656e-06
-8.8605375e-07
1.2939478e-06
-8.5758487e-07
1.3156201e-06
-8.289599e-07
1.3368875e-06
-8.0018262e-07
1.3577546e-06
-7.7125665e-07
1.3782251e-06
-7.4218441e-07
1.3983049e-06
-7.12969e-07
1.4179974e-06
-6.8361119e-07
1.4373072e-06
-6.5411317e-07
1.4562393e-06
-6.2447542e-07
1.4747968e-06
-5.9469822e-07
1.4929837e-06
-5.6478155e-07
1.5108041e-06
-5.3472503e-07
1.5282608e-06
-5.0452723e-07
1.5453573e-06
-4.7418704e-07
1.5620955e-06
-4.4370269e-07
1.578479e-06
-4.1307213e-07
1.5945104e-06
-3.8229214e-07
1.6101905e-06
-3.5136108e-07
1.625521e-06
-3.2027435e-07
1.6405038e-06
-2.8902966e-07
1.6551379e-06
-2.5762207e-07
1.6694255e-06
-2.2604807e-07
1.6833651e-06
-1.943034e-07
1.6969552e-06
-1.6238387e-07
1.7101939e-06
-1.3028385e-07
1.7230763e-06
-9.8000368e-08
1.7355978e-06
-6.5528278e-08
1.747755e-06
-3.2862741e-08
1.7595599e-06
1.7710445e-06
-1.8065119e-06
-3.2229175e-07
-1.8039848e-06
-2.8394734e-07
-1.8004753e-06
-2.4555642e-07
-1.7960012e-06
-2.0715265e-07
-1.7905822e-06
-1.6876794e-07
-1.7842381e-06
-1.3043303e-07
-1.7769891e-06
-9.2177927e-08
-1.7688558e-06
-5.4030201e-08
-1.7598572e-06
-1.6015288e-08
-1.7500205e-06
2.1829303e-08
-1.7393635e-06
5.9493001e-08
-1.7279082e-06
9.6948379e-08
-1.7156773e-06
1.3417298e-07
-1.7026931e-06
1.7114597e-07
-1.6889775e-06
2.0784758e-07
-1.6745528e-06
2.4426007e-07
-1.6594419e-06
2.8036543e-07
-1.6436657e-06
3.1614832e-07
-1.6272467e-06
3.5159363e-07
-1.6102072e-06
3.8668772e-07
-1.5925681e-06
4.214177e-07
-1.5743506e-06
4.5577196e-07
-1.5555763e-06
4.8974033e-07
-1.5362648e-06
5.2331171e-07
-1.5164374e-06
5.5647982e-07
-1.4961134e-06
5.8923493e-07
-1.4753125e-06
6.2157091e-07
-1.4540532e-06
6.5348138e-07
-1.4323542e-06
6.849618e-07
-1.4102341e-06
7.1600723e-07
-1.3877098e-06
7.4661363e-07
-1.3647986e-06
7.7677926e-07
-1.3415165e-06
8.0650087e-07
-1.3178801e-06
8.3577729e-07
-1.2939037e-06
8.6460676e-07
-1.2696034e-06
8.9299015e-07
-1.2449922e-06
9.2092601e-07
-1.2200836e-06
9.4841623e-07
-1.1948918e-06
9.7546098e-07
-1.1694285e-06
1.0020623e-06
-1.1437051e-06
1.0282216e-06
-1.1177337e-06
1.0539416e-06
-1.0915239e-06
1.0792243e-06
-1.0650858e-06
1.1040726e-06
-1.0384288e-06
1.1284898e-06
-1.0115621e-06
1.1524795e-06
-9.8449367e-07
1.1760453e-06
-9.5723067e-07
1.1991901e-06
-9.2977995e-07
1.2219184e-06
-9.0214843e-07
1.244234e-06
-8.743421e-07
1.2661411e-06
-8.463653e-07
1.2876437e-06
-8.1822372e-07
1.308746e-06
-7.8992132e-07
1.3294518e-06
-7.6146076e-07
1.3497648e-06
-7.3284607e-07
1.3696901e-06
-7.0407944e-07
1.3892312e-06
-6.7516375e-07
1.4083914e-06
-6.4609922e-07
1.427175e-06
-6.1688759e-07
1.4455854e-06
-5.875299e-07
1.4636259e-06
-5.58026e-07
1.4813e-06
-5.2837572e-07
1.4986108e-06
-4.985785e-07
1.5155599e-06
-4.6863315e-07
1.5321502e-06
-4.3853829e-07
1.5483845e-06
-4.0829288e-07
1.5642642e-06
-3.7789362e-07
1.5797912e-06
-3.4733853e-07
1.5949659e-06
-3.1662513e-07
1.6097898e-06
-2.8575025e-07
1.624263e-06
-2.5471009e-07
1.6383856e-06
-2.2350198e-07
1.6521565e-06
-1.9212121e-07
1.665575e-06
-1.6056448e-07
1.6786371e-06
-1.2882819e-07
1.6913393e-06
-9.6906706e-08
1.7036764e-06
-6.4797849e-08
1.7156458e-06
-3.2497003e-08
1.7272589e-06
1.7385474e-06
-1.7643981e-06
-3.2337264e-07
-1.7623397e-06
-2.8600569e-07
-1.75932e-06
-2.4857603e-07
-1.7553562e-06
-2.1111645e-07
-1.7504663e-06
-1.7365761e-07
-1.7446686e-06
-1.3623057e-07
-1.7379826e-06
-9.8863942e-08
-1.7304278e-06
-6.1585003e-08
-1.7220229e-06
-2.4420274e-08
-1.7127918e-06
1.2598232e-08
-1.7027524e-06
4.945328e-08
-1.6919253e-06
8.6121527e-08
-1.6803323e-06
1.2258005e-07
-1.6679946e-06
1.5880787e-07
-1.6549327e-06
1.9478602e-07
-1.6411687e-06
2.3049573e-07
-1.6267231e-06
2.6592022e-07
-1.6116175e-06
3.0104261e-07
-1.5958725e-06
3.3584863e-07
-1.5795097e-06
3.7032482e-07
-1.5625484e-06
4.0445668e-07
-1.5450103e-06
4.3823399e-07
-1.5269153e-06
4.7164498e-07
-1.5082829e-06
5.046795e-07
-1.4891325e-06
5.3732934e-07
-1.4694838e-06
5.6958622e-07
-1.4493552e-06
6.0144215e-07
-1.4287653e-06
6.3289133e-07
-1.4077315e-06
6.6392812e-07
-1.3862721e-06
6.945475e-07
-1.3644036e-06
7.2474536e-07
-1.3421426e-06
7.5451814e-07
-1.3195047e-06
7.8386306e-07
-1.2965055e-06
8.1277775e-07
-1.2731605e-06
8.4126184e-07
-1.2494835e-06
8.6931307e-07
-1.2254886e-06
8.9693151e-07
-1.2011898e-06
9.2411699e-07
-1.1765984e-06
9.5086974e-07
-1.1517274e-06
9.7719115e-07
-1.1265884e-06
1.0030826e-06
-1.1011925e-06
1.0285455e-06
-1.0755496e-06
1.0535814e-06
-1.0496698e-06
1.0781929e-06
-1.0235625e-06
1.1023829e-06
-9.9723672e-07
1.1261535e-06
-9.7069959e-07
1.1495081e-06
-9.4395939e-07
1.1724494e-06
-9.1702316e-07
1.1949821e-06
-8.8989682e-07
1.2171079e-06
-8.6258667e-07
1.238831e-06
-8.3509844e-07
1.260155e-06
-8.0743598e-07
1.2810838e-06
-7.7960439e-07
1.3016202e-06
-7.5160778e-07
1.3217681e-06
-7.2344841e-07
1.3415306e-06
-6.9512985e-07
1.3609123e-06
-6.6665391e-07
1.3799154e-06
-6.3802209e-07
1.3985433e-06
-6.0923705e-07
1.4168003e-06
-5.802991e-07
1.4346879e-06
-5.5120855e-07
1.4522095e-06
-5.2196572e-07
1.4693676e-06
-4.9257027e-07
1.4861642e-06
-4.6302142e-07
1.5026015e-06
-4.3331855e-07
1.5186816e-06
-4.034597e-07
1.5344061e-06
-3.7344394e-07
1.5497757e-06
-3.4326876e-07
1.5647908e-06
-3.1293177e-07
1.579453e-06
-2.8243025e-07
1.5937617e-06
-2.5176229e-07
1.607717e-06
-2.2092314e-07
1.6213178e-06
-1.8991116e-07
1.6345627e-06
-1.5872217e-07
1.6474479e-06
-1.2735238e-07
1.65997e-06
-9.579916e-08
1.6721229e-06
-6.4057984e-08
1.6839049e-06
-3.2125782e-08
1.6953272e-06
1.7064216e-06
-1.7232436e-06
-3.2403515e-07
-1.7216254e-06
-2.87624e-07
-1.7190669e-06
-2.5113447e-07
-1.7155847e-06
-2.1459893e-07
-1.7111949e-06
-1.7804733e-07
-1.7059155e-06
-1.4151003e-07
-1.699764e-06
-1.0501537e-07
-1.6927586e-06
-6.8590541e-08
-1.6849181e-06
-3.2260998e-08
-1.6762645e-06
3.9445213e-09
-1.6668136e-06
4.000288e-08
-1.6565869e-06
7.5894677e-08
-1.6456037e-06
1.1159687e-07
-1.6338845e-06
1.4708873e-07
-1.6214496e-06
1.8235102e-07
-1.6083187e-06
2.173652e-07
-1.5945126e-06
2.5211394e-07
-1.5800511e-06
2.8658125e-07
-1.5649549e-06
3.2075254e-07
-1.5492429e-06
3.5461254e-07
-1.5329357e-06
3.8814986e-07
-1.5160528e-06
4.2135078e-07
-1.4986134e-06
4.5420542e-07
-1.480637e-06
4.8670304e-07
-1.4621418e-06
5.1883438e-07
-1.4431465e-06
5.5059076e-07
-1.4236693e-06
5.8196506e-07
-1.4037282e-06
6.1295027e-07
-1.3833403e-06
6.4354032e-07
-1.3625225e-06
6.7372961e-07
-1.3412907e-06
7.0351377e-07
-1.3196621e-06
7.3288929e-07
-1.2976515e-06
7.6185245e-07
-1.2752741e-06
7.904004e-07
-1.2525447e-06
8.1853226e-07
-1.2294767e-06
8.4624535e-07
-1.2060845e-06
8.7353905e-07
-1.1823801e-06
9.0041275e-07
-1.1583771e-06
9.2686642e-07
-1.1340865e-06
9.5290079e-07
-1.1095203e-06
9.7851634e-07
-1.0846891e-06
1.0037143e-06
-1.0596029e-06
1.0284954e-06
-1.0342722e-06
1.0528618e-06
-1.0087055e-06
1.0768159e-06
-9.8291148e-07
1.10036e-06
-9.568987e-07
1.1234956e-06
-9.3067493e-07
1.1462256e-06
-9.0424569e-07
1.1685533e-06
-8.7761963e-07
1.1904814e-06
-8.5080102e-07
1.2120125e-06
-8.2379609e-07
1.2331504e-06
-7.9660927e-07
1.2538972e-06
-7.6924565e-07
1.2742564e-06
-7.4170843e-07
1.2942312e-06
-7.1400218e-07
1.3138243e-06
-6.8612925e-07
1.3330393e-06
-6.5809196e-07
1.3518783e-06
-6.2989295e-07
1.3703442e-06
-6.0153345e-07
1.3884407e-06
-5.7301427e-07
1.4061694e-06
-5.4433767e-07
1.4235328e-06
-5.1550283e-07
1.440533e-06
-4.8651018e-07
1.4571718e-06
-4.5735944e-07
1.4734508e-06
-4.2804995e-07
1.4893722e-06
-3.9858077e-07
1.5049371e-06
-3.6895046e-07
1.520145e-06
-3.3915724e-07
1.534998e-06
-3.091997e-07
1.5494953e-06
-2.7907573e-07
1.5636374e-06
-2.4878185e-07
1.5774234e-06
-2.1831684e-07
1.5908522e-06
-1.8767634e-07
1.603923e-06
-1.5685874e-07
1.6166305e-06
-1.2586025e-07
1.6289714e-06
-9.467808e-08
1.6409407e-06
-6.3309518e-08
1.6525364e-06
-3.1751122e-08
1.6637688e-06
1.6746706e-06
-1.6830312e-06
-3.243063e-07
-1.6818263e-06
-2.8882876e-07
-1.6797023e-06
-2.5325861e-07
-1.6766741e-06
-2.1762701e-07
-1.6727574e-06
-1.8196402e-07
-1.6679683e-06
-1.4629921e-07
-1.6623234e-06
-1.1066014e-07
-1.6558399e-06
-7.5074014e-08
-1.6485363e-06
-3.9564587e-08
-1.6404333e-06
-4.1585252e-09
-1.6315437e-06
3.1113342e-08
-1.6218896e-06
6.6240481e-08
-1.6114894e-06
1.0119673e-07
-1.6003623e-06
1.3596171e-07
-1.5885276e-06
1.7051619e-07
-1.5760044e-06
2.0484182e-07
-1.5628118e-06
2.3892154e-07
-1.5489695e-06
2.727387e-07
-1.5344962e-06
3.0627919e-07
-1.5194115e-06
3.3952794e-07
-1.5037344e-06
3.7247244e-07
-1.4874833e-06
4.0509993e-07
-1.4706772e-06
4.3739916e-07
-1.4533339e-06
4.6936012e-07
-1.4354724e-06
5.0097236e-07
-1.4171095e-06
5.3222803e-07
-1.3982636e-06
5.6311887e-07
-1.3789511e-06
5.9363785e-07
-1.3591897e-06
6.2377862e-07
-1.3389946e-06
6.5353463e-07
-1.3183828e-06
6.8290209e-07
-1.2973693e-06
7.1187594e-07
-1.2759693e-06
7.4045216e-07
-1.2541973e-06
7.6862888e-07
-1.2320674e-06
7.9640245e-07
-1.209594e-06
8.2377187e-07
-1.1867899e-06
8.5073486e-07
-1.1636678e-06
8.7729049e-07
-1.1402399e-06
9.0343893e-07
-1.1165177e-06
9.2917854e-07
-1.0925131e-06
9.5451159e-07
-1.0682358e-06
9.7943717e-07
-1.0436964e-06
1.003956e-06
-1.0189051e-06
1.0280704e-06
-9.9387021e-07
1.0517808e-06
-9.6860034e-07
1.07509e-06
-9.4310406e-07
1.097999e-06
-9.1738894e-07
1.1205103e-06
-8.9146146e-07
1.1426258e-06
-8.6532805e-07
1.1643485e-06
-8.3899584e-07
1.1856799e-06
-8.1246904e-07