/*--------------------------------*- C++ -*----------------------------------*\
| =========                 |                                                 |
| \\      /  F ield         | OpenFOAM: The Open Source CFD Toolbox           |
|  \\    /   O peration     | Version:  2106                                  |
|   \\  /    A nd           | Website:  www.openfoam.com                      |
|    \\/     M anipulation  |                                                 |
\*---------------------------------------------------------------------------*/
FoamFile
{
    version     2.0;
    format      ascii;
    arch        "LSB;label=32;scalar=64";
    class       surfaceScalarField;
    location    "0.025";
    object      phi;
}
// * * * * * * * * * * * * * * * * * * * * * * * * * * * * * * * * * * * * * //

dimensions      [0 3 -1 0 0 0 0];

oriented        oriented;

internalField   nonuniform List<scalar> 
8064
(
-0.00013530628
0.00013530628
-0.00026934982
0.00013404355
-0.00040087828
0.00013152845
-0.00052866003
0.00012778175
-0.00065149459
0.00012283456
-0.00076822294
0.00011672835
-0.00087773779
0.00010951485
-0.00097899373
0.00010125594
-0.0010710171
9.2023371e-05
-0.0011529156
8.1898471e-05
-0.0012238872
7.0971629e-05
-0.0012832289
5.9341689e-05
-0.0013303441
4.7115186e-05
-0.0013647495
3.4405388e-05
-0.0013860804
2.1330959e-05
-0.0013940973
8.0168318e-06
-0.0013886867
-5.4105991e-06
-0.0013698648
-1.8821876e-05
-0.0013377783
-3.2086487e-05
-0.0012927041
-4.5074215e-05
-0.0012350476
-5.7656495e-05
-0.0011653399
-6.9707635e-05
-0.0010842338
-8.1106102e-05
-0.00099249803
-9.1735815e-05
-0.00089101058
-0.00010148744
-0.00078075089
-0.0001102597
-0.00066279033
-0.00011796056
-0.00053828178
-0.00012450854
-0.00040844803
-0.00012983376
-0.00027456906
-0.00013387897
-0.00013796862
-0.00013660044
2.7007049e-14
-0.00013796862
0.00013796862
-0.00013796862
0.00027456906
-0.00013660044
0.00040844803
-0.00013387897
0.00053828178
-0.00012983376
0.00066279033
-0.00012450854
0.00078075089
-0.00011796056
0.00089101058
-0.0001102597
0.00099249803
-0.00010148744
0.0010842338
-9.1735815e-05
0.0011653399
-8.1106102e-05
0.0012350476
-6.9707635e-05
0.0012927041
-5.7656495e-05
0.0013377783
-4.5074215e-05
0.0013698648
-3.2086487e-05
0.0013886867
-1.8821876e-05
0.0013940973
-5.4105991e-06
0.0013860804
8.0168318e-06
0.0013647495
2.1330959e-05
0.0013303441
3.4405388e-05
0.0012832289
4.7115186e-05
0.0012238872
5.9341689e-05
0.0011529156
7.0971629e-05
0.0010710171
8.1898471e-05
0.00097899373
9.2023371e-05
0.00087773779
0.00010125594
0.00076822294
0.00010951485
0.00065149459
0.00011672835
0.00052866003
0.00012283456
0.00040087828
0.00012778175
0.00026934982
0.00013152845
0.00013530628
0.00013404355
0.00013530628
-0.00013618141
0.00027148769
-0.00027109284
0.00026895497
-0.00040347467
0.00026391028
-0.00053208804
0.00025639512
-0.00065572524
0.00024647175
-0.00077322003
0.00023422315
-0.00088345806
0.00021975288
-0.00098538697
0.00020318485
-0.0010780265
0.00018466286
-0.0011604779
0.00016434991
-0.0012319335
0.00014242723
-0.0012916849
0.00011909309
-0.0013391309
9.4561189e-05
-0.0013737844
6.9058858e-05
-0.0013952784
4.2824955e-05
-0.0014033699
1.6108356e-05
-0.0013979446
-1.0835909e-05
-0.0013790183
-3.7748208e-05
-0.001346738
-6.4366736e-05
-0.0013013819
-9.0430311e-05
-0.0012433575
-0.00011568096
-0.0011731986
-0.00013986646
-0.0010915618
-0.00016274289
-0.00099922039
-0.00018407727
-0.00089705778
-0.00020365006
-0.00078605966
-0.00022125781
-0.00066730454
-0.00023671568
-0.00054195323
-0.00024985986
-0.00041123714
-0.00026054985
-0.00027644557
-0.00026867054
-0.00013891204
-0.00027413396
2.5829997e-14
-0.00027688066
0.00013891204
-0.00027688066
0.00027644557
-0.00027413396
0.00041123714
-0.00026867054
0.00054195323
-0.00026054985
0.00066730454
-0.00024985986
0.00078605966
-0.00023671568
0.00089705778
-0.00022125781
0.00099922039
-0.00020365006
0.0010915618
-0.00018407727
0.0011731986
-0.00016274289
0.0012433575
-0.00013986646
0.0013013819
-0.00011568096
0.001346738
-9.0430311e-05
0.0013790183
-6.4366736e-05
0.0013979446
-3.7748208e-05
0.0014033699
-1.0835909e-05
0.0013952784
1.6108356e-05
0.0013737844
4.2824955e-05
0.0013391309
6.9058858e-05
0.0012916849
9.4561189e-05
0.0012319335
0.00011909309
0.0011604779
0.00014242723
0.0010780265
0.00016434991
0.00098538697
0.00018466286
0.00088345806
0.00020318485
0.00077322003
0.00021975288
0.00065572524
0.00023422315
0.00053208804
0.00024647175
0.00040347467
0.00025639512
0.00027109284
0.00026391028
0.00013618141
0.00026895497
0.00027148769
-0.00013738327
0.00040887096
-0.00027348655
0.00040505826
-0.00040704023
0.00039746396
-0.00053679541
0.00038615031
-0.00066153437
0.00037121071
-0.00078008094
0.00035276972
-0.00089131093
0.00033098286
-0.0009941624
0.00030603633
-0.0010876458
0.0002781463
-0.0011708539
0.00024755798
-0.0012429708
0.00021454414
-0.001303281
0.00017940328
-0.0013511771
0.00014245727
-0.0013861669
0.00010404862
-0.0014078792
6.4537336e-05
-0.0014160686
2.4297765e-05
-0.001410619
-1.628557e-05
-0.0013915457
-5.682149e-05
-0.0013589967
-9.6915787e-05
-0.0013132518
-0.00013617521
-0.0012547214
-0.00017421131
-0.0011839436
-0.00021064426
-0.0011015798
-0.00024510671
-0.0010084094
-0.00027724761
-0.00090532337
-0.00030673612
-0.00079331568
-0.0003332655
-0.00067347448
-0.00035655688
-0.0005469713
-0.00037636304
-0.00041504929
-0.00039247186
-0.00027901039
-0.00040470943
-0.00014020153
-0.00041294283
2.4262627e-14
-0.00041708219
0.00014020153
-0.00041708219
0.00027901039
-0.00041294283
0.00041504929
-0.00040470943
0.0005469713
-0.00039247186
0.00067347448
-0.00037636304
0.00079331568
-0.00035655688
0.00090532337
-0.0003332655
0.0010084094
-0.00030673612
0.0011015798
-0.00027724761
0.0011839436
-0.00024510671
0.0012547214
-0.00021064426
0.0013132518
-0.00017421131
0.0013589967
-0.00013617521
0.0013915457
-9.6915787e-05
0.001410619
-5.682149e-05
0.0014160686
-1.628557e-05
0.0014078792
2.4297765e-05
0.0013861669
6.4537336e-05
0.0013511771
0.00010404862
0.001303281
0.00014245727
0.0012429708
0.00017940328
0.0011708539
0.00021454414
0.0010876458
0.00024755798
0.0009941624
0.0002781463
0.00089131093
0.00030603633
0.00078008094
0.00033098286
0.00066153437
0.00035276972
0.00053679541
0.00037121071
0.00040704023
0.00038615031
0.00027348655
0.00039746396
0.00013738327
0.00040505826
0.00040887096
-0.00013896462
0.00054783558
-0.00027663607
0.0005427297
-0.00041173151
0.00053255939
-0.00054298882
0.00051740762
-0.00066917703
0.00049739893
-0.0007891068
0.00047269949
-0.00090164093
0.00044351698
-0.0010057048
0.00041010017
-0.0011002966
0.00037273812
-0.0011844975
0.00033175892
-0.0012574812
0.00028752783
-0.0013185227
0.00024044473
-0.0013670064
0.000190941
-0.0014024336
0.00013947579
-0.001424428
8.6531789e-05
-0.0014327409
3.2610629e-05
-0.0014272542
-2.1772222e-05
-0.0014079833
-7.6092461e-05
-0.0013750771
-0.00012982199
-0.0013288182
-0.00018243407
-0.0012696211
-0.00023340843
-0.001198029
-0.00028223633
-0.0011147101
-0.00032842562
-0.0010204519
-0.00037150583
-0.0009161546
-0.00041103339
-0.00080282337
-0.00044659673
-0.00068155873
-0.00047782152
-0.00055354612
-0.00050437565
-0.00042004401
-0.00052597396
-0.00028237085
-0.0005423826
-0.00014189102
-0.00055342267
2.2178973e-14
-0.0005589732
0.00014189102
-0.0005589732
0.00028237085
-0.00055342267
0.00042004401
-0.0005423826
0.00055354612
-0.00052597396
0.00068155873
-0.00050437565
0.00080282337
-0.00047782152
0.0009161546
-0.00044659673
0.0010204519
-0.00041103339
0.0011147101
-0.00037150583
0.001198029
-0.00032842562
0.0012696211
-0.00028223633
0.0013288182
-0.00023340843
0.0013750771
-0.00018243407
0.0014079833
-0.00012982199
0.0014272542
-7.6092461e-05
0.0014327409
-2.1772222e-05
0.001424428
3.2610629e-05
0.0014024336
8.6531789e-05
0.0013670064
0.00013947579
0.0013185227
0.000190941
0.0012574812
0.00024044473
0.0011844975
0.00028752783
0.0011002966
0.00033175892
0.0010057048
0.00037273812
0.00090164093
0.00041010017
0.0007891068
0.00044351698
0.00066917703
0.00047269949
0.00054298882
0.00049739893
0.00041173151
0.00051740762
0.00027663607
0.00053255939
0.00013896462
0.0005427297
0.00054783558
-0.00014095722
0.0006887928
-0.00028060465
0.00068237714
-0.00041764282
0.00066959756
-0.00055079292
0.00065055771
-0.00067880724
0.00062541325
-0.00080047976
0.00059437201
-0.00091465675
0.00055769398
-0.0010202474
0.00051569086
-0.0011162345
0.00046872522
-0.0012016846
0.00041720895
-0.0012757577
0.00036160095
-0.001337717
0.000302404
-0.0013869367
0.00024016076
-0.0014229099
0.00017544899
-0.0014452542
0.0001088761
-0.0014537168
4.1073226e-05
-0.0014481779
-2.7311173e-05
-0.0014286526
-9.5617718e-05
-0.0013952921
-0.00016318255
-0.0013483824
-0.00022934374
-0.0012883432
-0.00029344757
-0.0012157248
-0.0003548548
-0.0011312035
-0.00041294691
-0.001035577
-0.00046713236
-0.00092975727
-0.00051685307
-0.00081476311
-0.0005615909
-0.00069171051
-0.00060087412
-0.00056180227
-0.00063428389
-0.00042631593
-0.0006614603
-0.00028659058
-0.00068210795
-0.00014401251
-0.00069600074
2.0239267e-14
-0.00070298572
0.00014401251
-0.00070298572
0.00028659058
-0.00069600074
0.00042631593
-0.00068210795
0.00056180227
-0.0006614603
0.00069171051
-0.00063428389
0.00081476311
-0.00060087412
0.00092975727
-0.0005615909
0.001035577
-0.00051685307
0.0011312035
-0.00046713236
0.0012157248
-0.00041294691
0.0012883432
-0.0003548548
0.0013483824
-0.00029344757
0.0013952921
-0.00022934374
0.0014286526
-0.00016318255
0.0014481779
-9.5617718e-05
0.0014537168
-2.7311173e-05
0.0014452542
4.1073226e-05
0.0014229099
0.0001088761
0.0013869367
0.00017544899
0.001337717
0.00024016076
0.0012757577
0.000302404
0.0012016846
0.00036160095
0.0011162345
0.00041720895
0.0010202474
0.00046872522
0.00091465675
0.00051569086
0.00080047976
0.00055769398
0.00067880724
0.00059437201
0.00055079292
0.00062541325
0.00041764282
0.00065055771
0.00028060465
0.00066959756
0.00014095722
0.00068237714
0.0006887928
-0.0001433763
0.00083216911
-0.00028542275
0.00082442358
-0.00042481972
0.00080899453
-0.00056026817
0.00078600616
-0.00069050007
0.00075564515
-0.00081428906
0.00071816101
-0.00093046124
0.00067386615
-0.001037906
0.00062313563
-0.001135587
0.00056640619
-0.0012225526
0.0005041746
-0.0012979466
0.00043699491
-0.0013610173
0.00036547466
-0.0014111265
0.00029027003
-0.0014477574
0.00021207988
-0.0014705204
0.00013163906
-0.0014791581
4.9710916e-05
-0.0014735488
-3.2920462e-05
-0.0014537083
-0.00011545819
-0.0014197904
-0.00019710041
-0.0013720862
-0.00027704797
-0.0013110219
-0.00035451186
-0.0012371561
-0.00042872058
-0.0011511756
-0.0004989274
-0.0010538901
-0.00056441789
-0.00094622575
-0.00062451743
-0.00082921753
-0.00067859912
-0.00070400003
-0.00072609162
-0.00057179683
-0.00076648709
-0.00043390843
-0.0007993487
-0.00029169881
-0.00082431757
-0.00014658071
-0.00084111884
1.9080727e-14
-0.00084956642
0.00014658071
-0.00084956642
0.00029169881
-0.00084111884
0.00043390843
-0.00082431757
0.00057179683
-0.0007993487
0.00070400003
-0.00076648709
0.00082921753
-0.00072609162
0.00094622575
-0.00067859912
0.0010538901
-0.00062451743
0.0011511756
-0.00056441789
0.0012371561
-0.0004989274
0.0013110219
-0.00042872058
0.0013720862
-0.00035451186
0.0014197904
-0.00027704797
0.0014537083
-0.00019710041
0.0014735488
-0.00011545819
0.0014791581
-3.2920462e-05
0.0014705204
4.9710916e-05
0.0014477574
0.00013163906
0.0014111265
0.00021207988
0.0013610173
0.00029027003
0.0012979466
0.00036547466
0.0012225526
0.00043699491
0.001135587
0.0005041746
0.001037906
0.00056640619
0.00093046124
0.00062313563
0.00081428906
0.00067386615
0.00069050007
0.00071816101
0.00056026817
0.00075564515
0.00042481972
0.00078600616
0.00028542275
0.00080899453
0.0001433763
0.00082442358
0.00083216911
-0.00014623008
0.00097839918
-0.00029110681
0.00096930032
-0.00043328701
0.00095117473
-0.00057144785
0.000924167
-0.00070429735
0.00088849466
-0.0008305851
0.00084444875
-0.00094911316
0.00079239421
-0.0010587473
0.00073276976
-0.0011584282
0.00066608709
-0.0012471827
0.00059292907
-0.0013241344
0.00051394663
-0.0013885141
0.00042985439
-0.0014396689
0.0003414248
-0.00147707
0.00024948103
-0.0015003197
0.00015488869
-0.0015091555
5.8546802e-05
-0.0015034543
-3.8621666e-05
-0.0014832332
-0.00013567933
-0.0014486499
-0.00023168372
-0.0014000017
-0.00032569612
-0.0013377234
-0.00041679022
-0.0012623836
-0.00050406033
-0.0011746814
-0.00058662967
-0.0010754405
-0.00066365879
-0.00096560354
-0.00073435435
-0.00084622445
-0.00079797821
-0.00071845927
-0.0008538568
-0.00058355577
-0.00090139059
-0.00044284125
-0.00094006322
-0.00029770881
-0.00096945001
-0.00014960229
-0.00098922536
1.8604407e-14
-0.00099916871
0.00014960229
-0.00099916871
0.00029770882
-0.00098922536
0.00044284125
-0.00096945001
0.00058355577
-0.00094006322
0.00071845927
-0.00090139059
0.00084622445
-0.0008538568
0.00096560354
-0.00079797821
0.0010754405
-0.00073435435
0.0011746814
-0.00066365879
0.0012623836
-0.00058662967
0.0013377234
-0.00050406033
0.0014000017
-0.00041679022
0.0014486499
-0.00032569612
0.0014832332
-0.00023168372
0.0015034543
-0.00013567933
0.0015091555
-3.8621666e-05
0.0015003197
5.8546802e-05
0.00147707
0.00015488869
0.0014396689
0.00024948103
0.0013885141
0.0003414248
0.0013241344
0.00042985439
0.0012471827
0.00051394663
0.0011584282
0.00059292907
0.0010587473
0.00066608709
0.00094911316
0.00073276976
0.0008305851
0.00079239421
0.00070429735
0.00084444875
0.00057144785
0.00088849466
0.00043328701
0.000924167
0.00029110681
0.00095117473
0.00014623008
0.00096930032
0.00097839918
-0.00014953397
0.0011279332
-0.00029768774
0.0011174541
-0.00044309111
0.0010965781
-0.00058439395
0.0010654698
-0.00072027662
0.0010243773
-0.00084946076
0.00097363289
-0.00097072039
0.00091365385
-0.0010828935
0.00084494284
-0.0011848936
0.00076808723
-0.0012757218
0.00068375729
-0.0013544781
0.00059270288
-0.0014203721
0.00049574842
-0.0014727334
0.00039378607
-0.0015110196
0.0002877672
-0.0015348233
0.00017869245
-0.0015438773
6.7600816e-05
-0.0015380572
-4.444181e-05
-0.0015173826
-0.00015635392
-0.001482017
-0.00026704929
-0.001432266
-0.00037544717
-0.0013685745
-0.00048048175
-0.0012915235
-0.00058111125
-0.0012018263
-0.00067632691
-0.0011003229
-0.0007651622
-0.00098797461
-0.00084670264
-0.0008658567
-0.00092009611
-0.00073514967
-0.00098456383
-0.00059712882
-0.0010394114
-0.00045315205
-0.00108404
-0.00030464591
-0.0011179561
-0.00015308998
-0.0011407813
1.8469809e-14
-0.0011522587
0.00015308998
-0.0011522587
0.00030464591
-0.0011407813
0.00045315205
-0.0011179561
0.00059712882
-0.00108404
0.00073514967
-0.0010394114
0.0008658567
-0.00098456383
0.00098797461
-0.00092009611
0.0011003229
-0.00084670264
0.0012018263
-0.0007651622
0.0012915235
-0.00067632691
0.0013685745
-0.00058111125
0.001432266
-0.00048048175
0.001482017
-0.00037544717
0.0015173826
-0.00026704929
0.0015380572
-0.00015635392
0.0015438773
-4.444181e-05
0.0015348233
6.7600816e-05
0.0015110196
0.00017869245
0.0014727334
0.0002877672
0.0014203721
0.00039378607
0.0013544781
0.00049574842
0.0012757218
0.00059270288
0.0011848936
0.00068375729
0.0010828935
0.00076808723
0.00097072039
0.00084494284
0.00084946076
0.00091365385
0.00072027662
0.00097363289
0.00058439395
0.0010243773
0.00044309111
0.0010654698
0.00029768774
0.0010965781
0.00014953397
0.0011174541
0.0011279332
-0.00015333071
0.0012812639
-0.00030525086
0.0012693742
-0.00045435961
0.0012456868
-0.00059927575
0.001210386
-0.00073864804
0.0011637496
-0.0008711659
0.0011061508
-0.00099557083
0.0010380588
-0.0011106683
0.00096004028
-0.0012153399
0.00087275886
-0.0013085562
0.00077697357
-0.0013893887
0.00067353545
-0.0014570223
0.00056338198
-0.0015107654
0.00044752919
-0.0015500598
0.00032706157
-0.0015744875
0.00020312017
-0.0015837761
7.6889388e-05
-0.0015778011
-5.0416819e-05
-0.0015565866
-0.00017756836
-0.0015203042
-0.00030333169
-0.0014692702
-0.00042648116
-0.0014039427
-0.00054580933
-0.0013249174
-0.00066013654
-0.001232924
-0.00076832026
-0.0011288214
-0.00086926487
-0.0010135917
-0.00096193226
-0.00088833441
-0.0010453534
-0.00075425727
-0.001118641
-0.0006126666
-0.0011810021
-0.00046495492
-0.0012317517
-0.00031258671
-0.0012703244
-0.00015708225
-0.0012962857
1.8434115e-14
-0.001309341
0.00015708225
-0.001309341
0.00031258671
-0.0012962857
0.00046495492
-0.0012703244
0.0006126666
-0.0012317517
0.00075425727
-0.0011810021
0.00088833441
-0.001118641
0.0010135917
-0.0010453534
0.0011288214
-0.00096193226
0.001232924
-0.00086926487
0.0013249174
-0.00076832026
0.0014039427
-0.00066013654
0.0014692702
-0.00054580933
0.0015203042
-0.00042648116
0.0015565866
-0.00030333169
0.0015778011
-0.00017756836
0.0015837761
-5.0416819e-05
0.0015744875
7.6889388e-05
0.0015500598
0.00020312017
0.0015107654
0.00032706157
0.0014570223
0.00044752919
0.0013893887
0.00056338198
0.0013085562
0.00067353545
0.0012153399
0.00077697357
0.0011106683
0.00087275886
0.00099557083
0.00096004028
0.0008711659
0.0010380588
0.00073864804
0.0011061508
0.00059927575
0.0011637496
0.00045435961
0.001210386
0.00030525086
0.0012456868
0.00015333071
0.0012693742
0.0012812639
-0.00015771729
0.0014389812
-0.00031398954
0.0014256465
-0.00046738108
0.0013990784
-0.00061647523
0.0013594801
-0.0007598844
0.0013071588
-0.0008962608
0.0012425272
-0.001024308
0.001166106
-0.0011427931
0.0010785254
-0.0012505598
0.00098052561
-0.0013465421
0.00087295582
-0.0014297773
0.00075677071
-0.00149942
0.00063302462
-0.0015547533
0.00050286258
-0.0015952002
0.00036750844
-0.0016203306
0.00022825059
-0.0016298672
8.6425896e-05
-0.0016236869
-5.6597052e-05
-0.0016018213
-0.00019943399
-0.0015644533
-0.00034069968
-0.0015119139
-0.00047902055
-0.0014446778
-0.00061304547
-0.001363359
-0.00074145536
-0.0012687067
-0.00086297248
-0.0011616013
-0.00097637031
-0.0010430489
-0.0010804847
-0.0009141757
-0.0011742266
-0.00077622044
-0.0012565962
-0.00063052429
-0.0013266983
-0.00047851893
-0.001383757
-0.00032171189
-0.0014271314
-0.00016166985
-0.0014563278
1.8332946e-14
-0.0014710108
0.00016166985
-0.0014710108
0.00032171189
-0.0014563278
0.00047851893
-0.0014271314
0.00063052429
-0.001383757
0.00077622044
-0.0013266983
0.0009141757
-0.0012565962
0.0010430489
-0.0011742266
0.0011616013
-0.0010804847
0.0012687067
-0.00097637031
0.001363359
-0.00086297248
0.0014446778
-0.00074145536
0.0015119139
-0.00061304547
0.0015644533
-0.00047902055
0.0016018213
-0.00034069968
0.0016236869
-0.00019943399
0.0016298672
-5.6597052e-05
0.0016203306
8.6425896e-05
0.0015952002
0.00022825059
0.0015547533
0.00036750844
0.00149942
0.00050286258
0.0014297773
0.00063302462
0.0013465421
0.00075677071
0.0012505598
0.00087295582
0.0011427931
0.00098052561
0.001024308
0.0010785254
0.0008962608
0.001166106
0.0007598844
0.0012425272
0.00061647523
0.0013071588
0.00046738108
0.0013594801
0.00031398954
0.0013990784
0.00015771729
0.0014256465
0.0014389812
-0.00016287949
0.0016018606
-0.00032427403
0.001587041
-0.00048270759
0.0015575119
-0.00063672221
0.0015134948
-0.00078488786
0.0014553244
-0.00092581294
0.0013834522
-0.001058156
0.001298449
-0.0011806382
0.0012010076
-0.0012920576
0.001091945
-0.0013913031
0.00097220133
-0.0014773702
0.00084283779
-0.0015493756
0.00070503005
-0.0016065716
0.00056005852
-0.0016483576
0.00040929447
-0.0016742898
0.00025418275
-0.001684086
9.622209e-05
-0.0016776275
-6.3055535e-05
-0.001654957
-0.00022210442
-0.0016162744
-0.00037938235
-0.0015619305
-0.00053336438
-0.0014924222
-0.00068255386
-0.0014083862
-0.00082549127
-0.001310596
-0.00096076275
-0.0011999568
-0.0010870095
-0.0010775026
-0.0012029389
-0.00094439044
-0.0013073387
-0.00080189415
-0.0013990925
-0.00065139487
-0.0014771975
-0.00049436915
-0.0015407827
-0.00033237409
-0.0015891265
-0.00016702986
-0.001621672
1.8074159e-14
-0.0016380407
0.00016702986
-0.0016380407
0.00033237409
-0.001621672
0.00049436915
-0.0015891265
0.00065139487
-0.0015407827
0.00080189415
-0.0014771975
0.00094439044
-0.0013990925
0.0010775026
-0.0013073387
0.0011999568
-0.0012029389
0.001310596
-0.0010870095
0.0014083862
-0.00096076275
0.0014924222
-0.00082549127
0.0015619305
-0.00068255386
0.0016162744
-0.00053336438
0.001654957
-0.00037938235
0.0016776275
-0.00022210442
0.001684086
-6.3055535e-05
0.0016742898
9.622209e-05
0.0016483576
0.00025418275
0.0016065716
0.00040929447
0.0015493756
0.00056005852
0.0014773702
0.00070503005
0.0013913031
0.00084283779
0.0012920576
0.00097220133
0.0011806382
0.001091945
0.001058156
0.0012010076
0.00092581294
0.001298449
0.00078488786
0.0013834522
0.00063672221
0.0014553244
0.00048270759
0.0015134948
0.00032427403
0.0015575119
0.00016287949
0.001587041
0.0016018606
-0.00016913413
0.0017709948
-0.00033673555
0.0017546425
-0.00050127987
0.0017220562
-0.00066125963
0.0016734745
-0.0008151937
0.0016092585
-0.00096163756
0.0015298961
-0.0010991949
0.0014360063
-0.0012265308
0.0013283435
-0.001342386
0.0012078002
-0.0014455935
0.0010754088
-0.0015350953
0.00093233964
-0.0016099603
0.00077989502
-0.0016694006
0.00061949881
-0.0017127864
0.00045268027
-0.0017396567
0.00028105307
-0.0017497253
0.00010629069
-0.0017428813
-6.9899555e-05
-0.0017191849
-0.00024580078
-0.0016788603
-0.00041970694
-0.0016222867
-0.00058993798
-0.0015499905
-0.00075485013
-0.0014626385
-0.00091284322
-0.0013610341
-0.0010623672
-0.0012461135
-0.0012019301
-0.0011189434
-0.0013301089
-0.00098071772
-0.0014455645
-0.00083275138
-0.0015470589
-0.00067647254
-0.0016334764
-0.00051341062
-0.0017038447
-0.00034518118
-0.0017573559
-0.0001734676
-0.0017933856
1.7835392e-14
-0.0018115083
0.0001734676
-0.0018115083
0.00034518118
-0.0017933856
0.00051341062
-0.0017573559
0.00067647254
-0.0017038447
0.00083275138
-0.0016334764
0.00098071772
-0.0015470589
0.0011189434
-0.0014455645
0.0012461135
-0.0013301089
0.0013610341
-0.0012019301
0.0014626385
-0.0010623672
0.0015499905
-0.00091284322
0.0016222867
-0.00075485013
0.0016788603
-0.00058993798
0.0017191849
-0.00041970694
0.0017428813
-0.00024580078
0.0017497253
-6.9899555e-05
0.0017396567
0.00010629069
0.0017127864
0.00028105307
0.0016694006
0.00045268027
0.0016099603
0.00061949881
0.0015350953
0.00077989502
0.0014455935
0.00093233964
0.001342386
0.0010754088
0.0012265308
0.0012078002
0.0010991949
0.0013283435
0.00096163756
0.0014360063
0.0008151937
0.0015298961
0.00066125963
0.0016092585
0.00050127987
0.0016734745
0.00033673555
0.0017220562
0.00016913413
0.0017546425
0.0017709948
-0.00017697774
0.0019479725
-0.00035236315
0.0019300279
-0.0005245715
0.0018942646
-0.00069203368
0.0018409367
-0.00085320487
0.0017704297
-0.0010065745
0.0016832657
-0.0011506775
0.0015801094
-0.0012841079
0.0014617739
-0.001405534
0.0013292263
-0.0015137163
0.0011835912
-0.0016075274
0.0010261507
-0.0016859728
0.00085834043
-0.0017482118
0.00068173778
-0.0017935757
0.00049804422
-0.001821582
0.00030905929
-0.0018319406
0.0001166493
-0.0018245539
-7.7286253e-05
-0.0017995089
-0.00027084577
-0.0017570653
-0.00046215048
-0.0016976426
-0.00064936069
-0.0016218081
-0.00083068466
-0.0015302689
-0.0010043824
-0.0014238671
-0.0011687689
-0.0013035782
-0.001322219
-0.0011705099
-0.0014631773
-0.0010259007
-0.0015901737
-0.00087111619
-0.0017018433
-0.00070764192
-0.0017969506
-0.0005370718
-0.0018744148
-0.0003610927
-0.001933335
-0.00018146501
-0.0019730133
1.7872455e-14
-0.0019929733
0.00018146501
-0.0019929733
0.0003610927
-0.0019730133
0.0005370718
-0.001933335
0.00070764192
-0.0018744148
0.00087111619
-0.0017969506
0.0010259007
-0.0017018433
0.0011705099
-0.0015901737
0.0013035782
-0.0014631773
0.0014238671
-0.001322219
0.0015302689
-0.0011687689
0.0016218081
-0.0010043824
0.0016976426
-0.00083068466
0.0017570653
-0.00064936069
0.0017995089
-0.00046215048
0.0018245539
-0.00027084577
0.0018319406
-7.7286252e-05
0.001821582
0.0001166493
0.0017935757
0.00030905929
0.0017482118
0.00049804422
0.0016859728
0.00068173778
0.0016075274
0.00085834043
0.0015137163
0.0010261507
0.001405534
0.0011835912
0.0012841079
0.0013292263
0.0011506775
0.0014617739
0.0010065745
0.0015801094
0.00085320487
0.0016832657
0.00069203368
0.0017704297
0.0005245715
0.0018409367
0.00035236314
0.0018942646
0.00017697774
0.0019300279
0.0019479725
-0.0001871382
0.0021351107
-0.00037260657
0.0021154962
-0.00055474213
0.0020764002
-0.00073189597
0.0020180905
-0.00090244124
0.001940975
-0.0010647824
0.0018456068
-0.0012173659
0.0017326929
-0.0013586939
0.0016031019
-0.0014873402
0.0014578725
-0.0016019699
0.0012982209
-0.0017013628
0.0011255437
-0.0017844391
0.00094141671
-0.0018502858
0.00074758444
-0.0018981812
0.00054593966
-0.0019276136
0.0003384917
-0.0019382899
0.00012732561
-0.0019301335
-8.5442691e-05
-0.0019032715
-0.00029770779
-0.001858016
-0.000507406
-0.0017948437
-0.00071253292
-0.0017143795
-0.00091114886
-0.0016173851
-0.0011013768
-0.0015047546
-0.0012813995
-0.0013775142
-0.0014494594
-0.0012368243
-0.0016038672
-0.0010839807
-0.0017430172
-0.00092041353
-0.0018654106
-0.00074768091
-0.0019696833
-0.00056745851
-0.0020546372
-0.00038152327
-0.0021192702
-0.00019173265
-0.0021628039
1.7860281e-14
-0.0021847059
0.00019173265
-0.0021847059
0.00038152327
-0.0021628039
0.00056745851
-0.0021192702
0.00074768091
-0.0020546372
0.00092041353
-0.0019696833
0.0010839807
-0.0018654106
0.0012368243
-0.0017430172
0.0013775142
-0.0016038672
0.0015047546
-0.0014494594
0.0016173851
-0.0012813995
0.0017143795
-0.0011013768
0.0017948437
-0.00091114886
0.001858016
-0.00071253292
0.0019032715
-0.000507406
0.0019301335
-0.00029770779
0.0019382899
-8.5442691e-05
0.0019276136
0.00012732561
0.0018981812
0.0003384917
0.0018502858
0.00054593966
0.0017844391
0.00074758444
0.0017013628
0.00094141671
0.0016019699
0.0011255437
0.0014873402
0.0012982209
0.0013586939
0.0014578725
0.0012173659
0.0016031019
0.0010647824
0.0017326929
0.00090244124
0.0018456068
0.00073189597
0.001940975
0.00055474213
0.0020180905
0.00037260657
0.0020764002
0.0001871382
0.0021154962
0.0021351107
-0.00020062342
0.0023357341
-0.0003994731
0.0023143459
-0.00059478144
0.0022717085
-0.00078479346
0.0022081026
-0.00096777389
0.0021239554
-0.0011420153
0.0020198483
-0.0013058483
0.0018965259
-0.0014576542
0.0017549078
-0.0015958817
0.0015961
-0.0017190686
0.0014214078
-0.0018258689
0.001232344
-0.0019150853
0.0010306331
-0.0019857043
0.00081820347
-0.00203693
0.0005971653
-0.0020682099
0.0003697716
-0.002079248
0.00013836374
-0.0020700001
-9.4690595e-05
-0.0020406533
-0.00032705462
-0.001991596
-0.00055646323
-0.0019233875
-0.00078074146
-0.0018367328
-0.00099780358
-0.0017324685
-0.0012056411
-0.0016115586
-0.0014023094
-0.0014750968
-0.0015859212
-0.001324313
-0.0017546511
-0.0011605784
-0.0019067518
-0.00098540756
-0.0020405814
-0.00080045425
-0.0021546366
-0.00060750081
-0.0022475906
-0.00040844138
-0.0023183297
-0.00020525931
-0.002365986
1.6825528e-14
-0.0023899652
0.00020525931
-0.0023899652
0.00040844138
-0.002365986
0.00060750081
-0.0023183297
0.00080045425
-0.0022475906
0.00098540756
-0.0021546366
0.0011605784
-0.0020405814
0.001324313
-0.0019067518
0.0014750968
-0.0017546511
0.0016115586
-0.0015859212
0.0017324685
-0.0014023094
0.0018367328
-0.0012056411
0.0019233875
-0.00099780358
0.001991596
-0.00078074146
0.0020406533
-0.00055646323
0.0020700001
-0.00032705462
0.002079248
-9.4690595e-05
0.0020682099
0.00013836374
0.00203693
0.0003697716
0.0019857043
0.0005971653
0.0019150853
0.00081820347
0.0018258689
0.0010306331
0.0017190686
0.001232344
0.0015958817
0.0014214078
0.0014576542
0.0015961
0.0013058483
0.0017549078
0.0011420153
0.0018965259
0.00096777389
0.0020198483
0.00078479346
0.0021239554
0.00059478144
0.0022081026
0.0003994731
0.0022717085
0.00020062342
0.0023143459
0.0023357341
-0.00021875704
0.0025544912
-0.00043559863
0.0025311875
-0.00064861504
0.0024847249
-0.00085590805
0.0024153956
-0.0010555971
0.0023236444
-0.0012458261
0.0022100773
-0.0014247721
0.0020754719
-0.0015906567
0.0019207923
-0.0017417622
0.0017472056
-0.0018764553
0.0015561008
-0.0019932186
0.0013491074
-0.0020906922
0.0011281067
-0.002167721
0.00089523218
-0.0022234025
0.00065284682
-0.0022571264
0.00040349555
-0.0022685936
0.00014983096
-0.0022578088
-0.0001054754
-0.0022250479
-0.00035981557
-0.0021708106
-0.0006107005
-0.0020957734
-0.00085577871
-0.0020007532
-0.0010928237
-0.0018866889
-0.0013197054
-0.0017546378
-0.0015343605
-0.0016057836
-0.0017347753
-0.001441449
-0.0019189858
-0.0012631061
-0.0020850947
-0.0010723829
-0.0022313045
-0.00087106095
-0.0023559586
-0.00066106491
-0.0024575867
-0.00044444463
-0.0025349499
-0.00022334986
-0.0025870808
1.4554683e-14
-0.0026133151
0.00022334986
-0.0026133151
0.00044444463
-0.0025870808
0.00066106491
-0.0025349499
0.00087106095
-0.0024575867
0.0010723829
-0.0023559586
0.0012631061
-0.0022313045
0.001441449
-0.0020850947
0.0016057836
-0.0019189858
0.0017546378
-0.0017347753
0.0018866889
-0.0015343605
0.0020007532
-0.0013197054
0.0020957734
-0.0010928237
0.0021708106
-0.00085577871
0.0022250479
-0.0006107005
0.0022578088
-0.00035981557
0.0022685936
-0.0001054754
0.0022571264
0.00014983096
0.0022234025
0.00040349555
0.002167721
0.00065284682
0.0020906922
0.00089523218
0.0019932186
0.0011281067
0.0018764553
0.0013491074
0.0017417622
0.0015561008
0.0015906567
0.0017472056
0.0014247721
0.0019207923
0.0012458261
0.0020754719
0.0010555971
0.0022100773
0.00085590805
0.0023236444
0.00064861504
0.0024153956
0.00043559863
0.0024847249
0.00021875704
0.0025311875
0.0025544912
-0.00024318732
0.0027976785
-0.00048426533
0.0027722655
-0.00072113051
0.0027215901
-0.00095169069
0.0026459557
-0.0011738702
0.002545824
-0.0013856154
0.0024218224
-0.0015849003
0.0022747568
-0.0017697359
0.0021056279
-0.0019381844
0.0019156541
-0.0020883835
0.0017062999
-0.0022185829
0.0014793068
-0.0023271973
0.0012367211
-0.0024128709
0.00098090584
-0.0024745486
0.00071452451
-0.0025115354
0.00044048235
-0.0025235283
0.00016182382
-0.0025106052
-0.00011839851
-0.0024731729
-0.00039724784
-0.0024118922
-0.00067198117
-0.002327605
-0.00094006596
-0.0022212819
-0.0011991468
-0.0020939988
-0.0014469885
-0.0019469366
-0.0016814227
-0.0017813978
-0.0019003141
-0.0015988284
-0.0021015551
-0.0014008364
-0.0022830867
-0.0011892028