/*--------------------------------*- C++ -*----------------------------------*\
| =========                 |                                                 |
| \\      /  F ield         | OpenFOAM: The Open Source CFD Toolbox           |
|  \\    /   O peration     | Version:  2106                                  |
|   \\  /    A nd           | Website:  www.openfoam.com                      |
|    \\/     M anipulation  |                                                 |
\*---------------------------------------------------------------------------*/
FoamFile
{
    version     2.0;
    format      ascii;
    arch        "LSB;label=32;scalar=64";
    class       volVectorField;
    location    "0.025";
    object      U_0;
}
// * * * * * * * * * * * * * * * * * * * * * * * * * * * * * * * * * * * * * //

dimensions      [0 1 -1 0 0 0 0];

internalField   nonuniform List<vector> 
4096
(
(-0.0043371453 0.004323787 0)
(-0.012970972 0.0042834323 0)
(-0.021483739 0.0042030547 0)
(-0.029795847 0.0040833178 0)
(-0.037829352 0.003925217 0)
(-0.045508636 0.0037300779 0)
(-0.05276106 0.0034995549 0)
(-0.059517622 0.0032356257 0)
(-0.065713596 0.0029405845 0)
(-0.07128916 0.0026170304 0)
(-0.076189991 0.0022678522 0)
(-0.080367827 0.0018962086 0)
(-0.083780985 0.0015055038 0)
(-0.086394821 0.0010993545 0)
(-0.088182229 0.00068154489 0)
(-0.089123551 0.00025612373 0)
(-0.089207801 -0.00017296165 0)
(-0.088431601 -0.00060151906 0)
(-0.086800228 -0.0010253861 0)
(-0.084327236 -0.0014404031 0)
(-0.081034478 -0.0018424617 0)
(-0.076951959 -0.0022275453 0)
(-0.072117613 -0.0025917704 0)
(-0.066576993 -0.0029314278 0)
(-0.060382882 -0.0032430242 0)
(-0.053594821 -0.0035233234 0)
(-0.04627855 -0.0037693863 0)
(-0.038505379 -0.0039786094 0)
(-0.030351477 -0.0041487608 0)
(-0.021897093 -0.0042780126 0)
(-0.013225719 -0.0043649681 0)
(-0.004423198 -0.0044086837 0)
(0.004423198 -0.0044086837 0)
(0.013225719 -0.0043649681 0)
(0.021897093 -0.0042780126 0)
(0.030351477 -0.0041487608 0)
(0.038505379 -0.0039786094 0)
(0.04627855 -0.0037693863 0)
(0.053594821 -0.0035233234 0)
(0.060382882 -0.0032430242 0)
(0.066576993 -0.0029314278 0)
(0.072117613 -0.0025917704 0)
(0.076951959 -0.0022275453 0)
(0.081034478 -0.0018424617 0)
(0.084327236 -0.0014404031 0)
(0.086800228 -0.0010253861 0)
(0.088431601 -0.00060151906 0)
(0.089207801 -0.00017296165 0)
(0.089123551 0.00025612373 0)
(0.088182229 0.00068154489 0)
(0.086394821 0.0010993545 0)
(0.083780985 0.0015055038 0)
(0.080367827 0.0018962086 0)
(0.076189991 0.0022678522 0)
(0.07128916 0.0026170304 0)
(0.065713596 0.0029405845 0)
(0.059517622 0.0032356257 0)
(0.05276106 0.0034995549 0)
(0.045508636 0.0037300779 0)
(0.037829352 0.003925217 0)
(0.029795847 0.0040833178 0)
(0.021483739 0.0042030547 0)
(0.012970972 0.0042834323 0)
(0.0043371453 0.004323787 0)
(-0.004365206 0.012994738 0)
(-0.013054922 0.01287348 0)
(-0.021622883 0.012631959 0)
(-0.029989024 0.012272167 0)
(-0.038074938 0.01179709 0)
(-0.045804545 0.011210706 0)
(-0.053104747 0.010517982 0)
(-0.059906093 0.0097248544 0)
(-0.066143421 0.0088382135 0)
(-0.071756492 0.0078658659 0)
(-0.076690593 0.0068164905 0)
(-0.080897105 0.0056995784 0)
(-0.084334029 0.0045253592 0)
(-0.086966456 0.0033047119 0)
(-0.088767002 0.002049058 0)
(-0.089716051 0.00077032504 0)
(-0.089802183 -0.00051927607 0)
(-0.089022178 -0.0018073407 0)
(-0.087381253 -0.0030813289 0)
(-0.084893016 -0.0043287368 0)
(-0.081579425 -0.005537216 0)
(-0.077470642 -0.0066946934 0)
(-0.072604811 -0.0077894956 0)
(-0.067027751 -0.008810472 0)
(-0.060792563 -0.00974712 0)
(-0.053959161 -0.010589708 0)
(-0.046593716 -0.011329396 0)
(-0.038768019 -0.011958352 0)
(-0.030558772 -0.012469862 0)
(-0.022046798 -0.012858425 0)
(-0.013316202 -0.013119838 0)
(-0.0044534698 -0.01325126 0)
(0.0044534698 -0.01325126 0)
(0.013316202 -0.013119838 0)
(0.022046798 -0.012858425 0)
(0.030558772 -0.012469862 0)
(0.038768019 -0.011958352 0)
(0.046593716 -0.011329396 0)
(0.053959161 -0.010589708 0)
(0.060792563 -0.00974712 0)
(0.067027751 -0.008810472 0)
(0.072604811 -0.0077894956 0)
(0.077470642 -0.0066946934 0)
(0.081579425 -0.005537216 0)
(0.084893016 -0.0043287368 0)
(0.087381253 -0.0030813289 0)
(0.089022178 -0.0018073407 0)
(0.089802183 -0.00051927607 0)
(0.089716051 0.00077032504 0)
(0.088767002 0.002049058 0)
(0.086966456 0.0033047119 0)
(0.084334029 0.0045253592 0)
(0.080897105 0.0056995784 0)
(0.076690593 0.0068164905 0)
(0.071756492 0.0078658659 0)
(0.066143421 0.0088382135 0)
(0.059906093 0.0097248544 0)
(0.053104747 0.010517982 0)
(0.045804545 0.011210706 0)
(0.038074938 0.01179709 0)
(0.029989024 0.012272167 0)
(0.021622883 0.012631959 0)
(0.013054922 0.01287348 0)
(0.004365206 0.012994738 0)
(-0.0044036852 0.021738876 0)
(-0.013170041 0.021536108 0)
(-0.021813682 0.021132231 0)
(-0.030253905 0.020530562 0)
(-0.038411663 0.019736081 0)
(-0.046210235 0.018755422 0)
(-0.053575892 0.017596871 0)
(-0.06043856 0.01627034 0)
(-0.066732475 0.014787335 0)
(-0.072396823 0.013160903 0)
(-0.077376353 0.01140555 0)
(-0.081621959 0.0095371491 0)
(-0.085091212 0.0075728123 0)
(-0.087748843 0.0055307442 0)
(-0.08956716 0.0034300776 0)
(-0.090526369 0.001290722 0)
(-0.090614861 -0.0008668846 0)
(-0.089829385 -0.0030219518 0)
(-0.08817516 -0.0051535168 0)
(-0.085665877 -0.0072406671 0)
(-0.082323647 -0.0092627462 0)
(-0.078178853 -0.011199557 0)
(-0.073269928 -0.013031566 0)
(-0.067643048 -0.014740113 0)
(-0.061351744 -0.016307615 0)
(-0.054456433 -0.017717771 0)
(-0.047023864 -0.018955773 0)
(-0.039126479 -0.020008492 0)
(-0.030841696 -0.020864668 0)
(-0.022251124 -0.021515074 0)
(-0.013439701 -0.021952657 0)
(-0.0044947874 -0.02217265 0)
(0.0044947874 -0.02217265 0)
(0.013439701 -0.021952657 0)
(0.022251124 -0.021515074 0)
(0.030841696 -0.020864668 0)
(0.039126479 -0.020008492 0)
(0.047023864 -0.018955773 0)
(0.054456433 -0.017717771 0)
(0.061351744 -0.016307615 0)
(0.067643048 -0.014740113 0)
(0.073269928 -0.013031566 0)
(0.078178853 -0.011199557 0)
(0.082323647 -0.0092627462 0)
(0.085665877 -0.0072406671 0)
(0.08817516 -0.0051535168 0)
(0.089829385 -0.0030219518 0)
(0.090614861 -0.0008668846 0)
(0.090526369 0.001290722 0)
(0.08956716 0.0034300776 0)
(0.087748843 0.0055307442 0)
(0.085091212 0.0075728123 0)
(0.081621959 0.0095371491 0)
(0.077376353 0.01140555 0)
(0.072396823 0.013160903 0)
(0.066732475 0.014787335 0)
(0.06043856 0.01627034 0)
(0.053575892 0.017596871 0)
(0.046210235 0.018755422 0)
(0.038411663 0.019736081 0)
(0.030253905 0.020530562 0)
(0.021813682 0.021132231 0)
(0.013170041 0.021536108 0)
(0.0044036852 0.021738876 0)
(-0.0044543091 0.030571801 0)
(-0.013321491 0.030286784 0)
(-0.022064695 0.029719069 0)
(-0.030602371 0.028873302 0)
(-0.038854627 0.027756453 0)
(-0.046743898 0.026377818 0)
(-0.054195615 0.024749011 0)
(-0.061138879 0.022883938 0)
(-0.067507128 0.020798748 0)
(-0.073238785 0.018511764 0)
(-0.07827789 0.016043376 0)
(-0.082574693 0.013415899 0)
(-0.086086204 0.0106534 0)
(-0.088776681 0.0077814938 0)
(-0.090618054 0.0048271031 0)
(-0.091590267 0.0018182162 0)
(-0.091681542 -0.0012164094 0)
(-0.090888566 -0.0042475199 0)
(-0.089216588 -0.0072456414 0)
(-0.086679427 -0.010181372 0)
(-0.083299406 -0.01302567 0)
(-0.079107204 -0.015750137 0)
(-0.074141638 -0.018327303 0)
(-0.068449351 -0.020730917 0)
(-0.062084434 -0.022936231 0)
(-0.055107956 -0.024920297 0)
(-0.047587413 -0.026662246 0)
(-0.039596091 -0.028143575 0)
(-0.031212346 -0.0293484 0)
(-0.022518802 -0.030263701 0)
(-0.013601491 -0.030879521 0)
(-0.0045489157 -0.031189128 0)
(0.0045489157 -0.031189128 0)
(0.013601491 -0.030879521 0)
(0.022518802 -0.030263701 0)
(0.031212346 -0.0293484 0)
(0.039596091 -0.028143575 0)
(0.047587413 -0.026662246 0)
(0.055107956 -0.024920297 0)
(0.062084434 -0.022936231 0)
(0.068449351 -0.020730917 0)
(0.074141638 -0.018327303 0)
(0.079107204 -0.015750137 0)
(0.083299406 -0.01302567 0)
(0.086679427 -0.010181372 0)
(0.089216588 -0.0072456414 0)
(0.090888566 -0.0042475199 0)
(0.091681542 -0.0012164094 0)
(0.091590267 0.0018182162 0)
(0.090618054 0.0048271031 0)
(0.088776681 0.0077814938 0)
(0.086086204 0.0106534 0)
(0.082574693 0.013415899 0)
(0.07827789 0.016043376 0)
(0.073238785 0.018511764 0)
(0.067507128 0.020798748 0)
(0.061138879 0.022883938 0)
(0.054195615 0.024749011 0)
(0.046743898 0.026377818 0)
(0.038854627 0.027756453 0)
(0.030602371 0.028873302 0)
(0.022064695 0.029719069 0)
(0.013321491 0.030286784 0)
(0.0044543091 0.030571801 0)
(-0.0045180936 0.039518263 0)
(-0.013512315 0.039150048 0)
(-0.022380966 0.038416599 0)
(-0.031041433 0.037323885 0)
(-0.039412755 0.035880869 0)
(-0.047416298 0.03409951 0)
(-0.054976431 0.031994763 0)
(-0.062021208 0.029584545 0)
(-0.06848305 0.026889689 0)
(-0.07429941 0.023933843 0)
(-0.079413427 0.020743346 0)
(-0.083774534 0.017347042 0)
(-0.087339031 0.013776051 0)
(-0.090070585 0.010063503 0)
(-0.091940664 0.0062442277 0)
(-0.092928889 0.0023544165 0)
(-0.093023296 -0.0015687393 0)
(-0.092220517 -0.0054874146 0)
(-0.090525862 -0.0093635166 0)
(-0.087953331 -0.013159055 0)
(-0.084525529 -0.016836507 0)
(-0.080273523 -0.02035918 0)
(-0.075236614 -0.023691575 0)
(-0.069462033 -0.026799752 0)
(-0.063004568 -0.029651699 0)
(-0.055926099 -0.032217711 0)
(-0.048295051 -0.034470758 0)
(-0.040185758 -0.036386851 0)
(-0.031677742 -0.037945388 0)
(-0.022854904 -0.039129465 0)
(-0.013804637 -0.039926151 0)
(-0.00461688 -0.0403267 0)
(0.00461688 -0.0403267 0)
(0.013804637 -0.039926151 0)
(0.022854904 -0.039129465 0)
(0.031677742 -0.037945388 0)
(0.040185758 -0.036386851 0)
(0.048295051 -0.034470758 0)
(0.055926099 -0.032217711 0)
(0.063004568 -0.029651699 0)
(0.069462033 -0.026799752 0)
(0.075236614 -0.023691575 0)
(0.080273523 -0.02035918 0)
(0.084525529 -0.016836507 0)
(0.087953331 -0.013159055 0)
(0.090525862 -0.0093635166 0)
(0.092220517 -0.0054874146 0)
(0.093023296 -0.0015687393 0)
(0.092928889 0.0023544165 0)
(0.091940664 0.0062442277 0)
(0.090070585 0.010063503 0)
(0.087339031 0.013776051 0)
(0.083774534 0.017347042 0)
(0.079413427 0.020743346 0)
(0.07429941 0.023933843 0)
(0.06848305 0.026889689 0)
(0.062021208 0.029584545 0)
(0.054976431 0.031994763 0)
(0.047416298 0.03409951 0)
(0.039412755 0.035880869 0)
(0.031041433 0.037323885 0)
(0.022380966 0.038416599 0)
(0.013512315 0.039150048 0)
(0.0045180936 0.039518263 0)
(-0.0045955249 0.048605501 0)
(-0.013743968 0.048152917 0)
(-0.022764917 0.047251388 0)
(-0.03157447 0.045908201 0)
(-0.040090369 0.044134308 0)
(-0.048232679 0.041944335 0)
(-0.055924472 0.039356587 0)
(-0.06309252 0.03639302 0)
(-0.069667995 0.033079188 0)
(-0.075587158 0.029444131 0)
(-0.080792037 0.025520222 0)
(-0.085231061 0.021342939 0)
(-0.088859657 0.016950585 0)
(-0.091640777 0.012383947 0)
(-0.093545338 0.0076859083 0)
(-0.094552586 0.0029010228 0)
(-0.094650357 -0.0019249368 0)
(-0.093835241 -0.006745435 0)
(-0.092112661 -0.01151363 0)
(-0.089496861 -0.016182821 0)
(-0.086010817 -0.020706896 0)
(-0.081686078 -0.025040758 0)
(-0.07656254 -0.02914077 0)
(-0.070688146 -0.032965191 0)
(-0.06411852 -0.036474624 0)
(-0.05691651 -0.039632479 0)
(-0.049151653 -0.042405432 0)
(-0.040899541 -0.044763881 0)
(-0.032241095 -0.046682375 0)
(-0.023261748 -0.048140023 0)
(-0.014050542 -0.049120824 0)
(-0.0046991498 -0.049613956 0)
(0.0046991498 -0.049613956 0)
(0.014050542 -0.049120824 0)
(0.023261748 -0.048140023 0)
(0.032241095 -0.046682375 0)
(0.040899541 -0.044763881 0)
(0.049151653 -0.042405432 0)
(0.05691651 -0.039632479 0)
(0.06411852 -0.036474624 0)
(0.070688146 -0.032965191 0)
(0.07656254 -0.02914077 0)
(0.081686078 -0.025040758 0)
(0.086010817 -0.020706896 0)
(0.089496861 -0.016182821 0)
(0.092112661 -0.01151363 0)
(0.093835241 -0.006745435 0)
(0.094650357 -0.0019249368 0)
(0.094552586 0.0029010228 0)
(0.093545338 0.0076859083 0)
(0.091640777 0.012383947 0)
(0.088859657 0.016950585 0)
(0.085231061 0.021342939 0)
(0.080792037 0.025520222 0)
(0.075587158 0.029444131 0)
(0.069667995 0.033079188 0)
(0.06309252 0.03639302 0)
(0.055924472 0.039356587 0)
(0.048232679 0.041944335 0)
(0.040090369 0.044134308 0)
(0.03157447 0.045908201 0)
(0.022764917 0.047251388 0)
(0.013743968 0.048152917 0)
(0.0045955249 0.048605501 0)
(-0.0046868616 0.057861136 0)
(-0.014017229 0.057322789 0)
(-0.023217853 0.056250388 0)
(-0.032203318 0.054652531 0)
(-0.040889843 0.052542149 0)
(-0.049195958 0.049936532 0)
(-0.057043195 0.046857343 0)
(-0.064356798 0.043330601 0)
(-0.071066444 0.039386627 0)
(-0.077106962 0.03505993 0)
(-0.08241904 0.030389018 0)
(-0.0869499 0.025416137 0)
(-0.090653924 0.020186932 0)
(-0.093493207 0.014750026 0)
(-0.095438029 0.0091565493 0)
(-0.096467211 0.0034596109 0)
(-0.096568385 -0.0022862475 0)
(-0.095738138 -0.0080256085 0)
(-0.093982069 -0.013702724 0)
(-0.091314755 -0.019262049 0)
(-0.087759641 -0.02464875 0)
(-0.083348871 -0.029809213 0)
(-0.078123053 -0.03469154 0)
(-0.072130967 -0.039246061 0)
(-0.065429211 -0.04342586 0)
(-0.058081756 -0.047187314 0)
(-0.050159425 -0.050490647 0)
(-0.041739272 -0.053300486 0)
(-0.032903848 -0.055586383 0)
(-0.023740379 -0.057323317 0)
(-0.014339837 -0.058492113 0)
(-0.0047959367 -0.059079787 0)
(0.0047959367 -0.059079787 0)
(0.014339837 -0.058492113 0)
(0.023740379 -0.057323317 0)
(0.032903848 -0.055586383 0)
(0.041739272 -0.053300486 0)
(0.050159425 -0.050490647 0)
(0.058081756 -0.047187314 0)
(0.065429211 -0.04342586 0)
(0.072130967 -0.039246061 0)
(0.078123053 -0.03469154 0)
(0.083348871 -0.029809213 0)
(0.087759641 -0.02464875 0)
(0.091314755 -0.019262049 0)
(0.093982069 -0.013702724 0)
(0.095738138 -0.0080256085 0)
(0.096568385 -0.0022862475 0)
(0.096467211 0.0034596109 0)
(0.095438029 0.0091565493 0)
(0.093493207 0.014750026 0)
(0.090653924 0.020186932 0)
(0.0869499 0.025416137 0)
(0.08241904 0.030389018 0)
(0.077106962 0.03505993 0)
(0.071066444 0.039386627 0)
(0.064356798 0.043330601 0)
(0.057043195 0.046857343 0)
(0.049195958 0.049936532 0)
(0.040889843 0.052542149 0)
(0.032203318 0.054652531 0)
(0.023217853 0.056250388 0)
(0.014017229 0.057322789 0)
(0.0046868616 0.057861136 0)
(-0.0047925929 0.067313168 0)
(-0.014333567 0.066687451 0)
(-0.023742224 0.065440954 0)
(-0.032931416 0.063583572 0)
(-0.041815607 0.0611302 0)
(-0.050311549 0.058100779 0)
(-0.058338981 0.05452033 0)
(-0.065821358 0.050418954 0)
(-0.072686595 0.045831792 0)
(-0.07886782 0.040798897 0)
(-0.08430413 0.035365038 0)
(-0.088941305 0.029579389 0)
(-0.092732485 0.02349513 0)
(-0.09563876 0.017168947 0)
(-0.097629669 0.010660456 0)
(-0.098683572 0.0040315655 0)
(-0.098787907 -0.0026541831 0)
(-0.097939319 -0.0093322807 0)
(-0.09614368 -0.015937893 0)
(-0.093416015 -0.02240647 0)
(-0.089780369 -0.028674328 0)
(-0.08526961 -0.034679208 0)
(-0.079925187 -0.040360829 0)
(-0.073796851 -0.045661459 0)
(-0.066942307 -0.050526511 0)
(-0.059426804 -0.054905162 0)
(-0.051322623 -0.058751009 0)
(-0.042708476 -0.062022716 0)
(-0.033668774 -0.06468466 0)
(-0.024292794 -0.066707527 0)
(-0.01467373 -0.068068828 0)
(-0.0049076445 -0.068753326 0)
(0.0049076445 -0.068753326 0)
(0.01467373 -0.068068828 0)
(0.024292794 -0.066707527 0)
(0.033668774 -0.06468466 0)
(0.042708476 -0.062022716 0)
(0.051322623 -0.058751009 0)
(0.059426804 -0.054905162 0)
(0.066942307 -0.050526511 0)
(0.073796851 -0.045661459 0)
(0.079925187 -0.040360829 0)
(0.08526961 -0.034679208 0)
(0.089780369 -0.028674328 0)
(0.093416015 -0.02240647 0)
(0.09614368 -0.015937893 0)
(0.097939319 -0.0093322807 0)
(0.098787907 -0.0026541831 0)
(0.098683572 0.0040315655 0)
(0.097629669 0.010660456 0)
(0.09563876 0.017168947 0)
(0.092732485 0.02349513 0)
(0.088941305 0.029579389 0)
(0.08430413 0.035365038 0)
(0.07886782 0.040798897 0)
(0.072686595 0.045831792 0)
(0.065821358 0.050418954 0)
(0.058338981 0.05452033 0)
(0.050311549 0.058100779 0)
(0.041815607 0.0611302 0)
(0.032931416 0.063583572 0)
(0.023742224 0.065440954 0)
(0.014333567 0.066687451 0)
(0.0047925929 0.067313168 0)
(-0.0049140822 0.076991085 0)
(-0.014697068 0.076276175 0)
(-0.024344825 0.074851923 0)
(-0.033768239 0.072729498 0)
(-0.042879772 0.069925731 0)
(-0.051594138 0.066463188 0)
(-0.059829004 0.062370234 0)
(-0.067505739 0.057681066 0)
(-0.074550189 0.052435683 0)
(-0.080893473 0.046679773 0)
(-0.086472792 0.040464501 0)
(-0.091232206 0.033846159 0)
(-0.095123372 0.026885705 0)
(-0.098106195 0.019648163 0)
(-0.10014936 0.012201939 0)
(-0.10123073 0.0046180469 0)
(-0.10133758 -0.0030306847 0)
(-0.10046671 -0.0106704 0)
(-0.0986244 -0.018226966 0)
(-0.095826301 -0.025626658 0)
(-0.092097221 -0.032796802 0)
(-0.087470919 -0.039666373 0)
(-0.081989843 -0.046166587 0)
(-0.075704861 -0.052231516 0)
(-0.068674936 -0.057798745 0)
(-0.060966746 -0.062810072 0)
(-0.05265421 -0.067212256 0)
(-0.043817899 -0.07095779 0)
(-0.034544323 -0.074005661 0)
(-0.024925084 -0.076322064 0)
(-0.015055895 -0.077881038 0)
(-0.0050355018 -0.078664973 0)
(0.0050355018 -0.078664973 0)
(0.015055895 -0.077881038 0)
(0.024925084 -0.076322064 0)
(0.034544323 -0.074005661 0)
(0.043817899 -0.07095779 0)
(0.05265421 -0.067212256 0)
(0.060966746 -0.062810072 0)
(0.068674936 -0.057798745 0)
(0.075704861 -0.052231516 0)
(0.081989843 -0.046166587 0)
(0.087470919 -0.039666373 0)
(0.092097221 -0.032796802 0)
(0.095826301 -0.025626658 0)
(0.0986244 -0.018226966 0)
(0.10046671 -0.0106704 0)
(0.10133758 -0.0030306847 0)
(0.10123073 0.0046180469 0)
(0.10014936 0.012201939 0)
(0.098106195 0.019648163 0)
(0.095123372 0.026885705 0)
(0.091232206 0.033846159 0)
(0.086472792 0.040464501 0)
(0.080893473 0.046679773 0)
(0.074550189 0.052435683 0)
(0.067505739 0.057681066 0)
(0.059829004 0.062370234 0)
(0.051594138 0.066463188 0)
(0.042879772 0.069925731 0)
(0.033768239 0.072729498 0)
(0.024344825 0.074851923 0)
(0.014697068 0.076276175 0)
(0.0049140822 0.076991085 0)
(-0.005054431 0.086928348 0)
(-0.015117016 0.086122188 0)
(-0.025041068 0.084516048 0)
(-0.034735232 0.082122335 0)
(-0.044109679 0.078959772 0)
(-0.053076774 0.075053508 0)
(-0.061551778 0.070435218 0)
(-0.069453618 0.065143183 0)
(-0.07670569 0.059222296 0)
(-0.083236717 0.052723967 0)
(-0.088981617 0.045705908 0)
(-0.093882369 0.038231753 0)
(-0.097888839 0.03037053 0)
(-0.1009595 0.022195955 0)
(-0.10306205 0.013785605 0)
(-0.10417381 0.0052199922 0)
(-0.10428195 -0.0034184019 0)
(-0.10338358 -0.012046061 0)
(-0.10148561 -0.0205793 0)
(-0.098604526 -0.028935036 0)
(-0.094766155 -0.037031468 0)
(-0.090005372 -0.044788695 0)
(-0.084365831 -0.052129326 0)
(-0.0778997 -0.058979111 0)
(-0.070667378 -0.065267649 0)
(-0.062737155 -0.070929162 0)
(-0.054184783 -0.075903349 0)
(-0.045092929 -0.080136281 0)
(-0.035550469 -0.083581304 0)
(-0.025651637 -0.086199897 0)
(-0.015495018 -0.087962428 0)
(-0.0051824119 -0.08884878 0)
(0.0051824119 -0.08884878 0)
(0.015495018 -0.087962428 0)
(0.025651637 -0.086199897 0)
(0.035550469 -0.083581304 0)
(0.045092929 -0.080136281 0)
(0.054184783 -0.075903349 0)
(0.062737155 -0.070929162 0)
(0.070667378 -0.065267649 0)
(0.0778997 -0.058979111 0)
(0.084365831 -0.052129326 0)
(0.090005372 -0.044788695 0)
(0.094766155 -0.037031468 0)
(0.098604526 -0.028935036 0)
(0.10148561 -0.0205793 0)
(0.10338358 -0.012046061 0)
(0.10428195 -0.0034184019 0)
(0.10417381 0.0052199922 0)
(0.10306205 0.013785605 0)
(0.1009595 0.022195955 0)
(0.097888839 0.03037053 0)
(0.093882369 0.038231753 0)
(0.088981617 0.045705908 0)
(0.083236717 0.052723967 0)
(0.07670569 0.059222296 0)
(0.069453618 0.065143183 0)
(0.061551778 0.070435218 0)
(0.053076774 0.075053508 0)
(0.044109679 0.078959772 0)
(0.034735232 0.082122335 0)
(0.025041068 0.084516048 0)
(0.015117016 0.086122188 0)
(0.005054431 0.086928348 0)
(-0.0052195868 0.09716684 0)
(-0.015611214 0.096267083 0)
(-0.025860483 0.094474334 0)
(-0.035873438 0.091802191 0)
(-0.045557583 0.088271205 0)
(-0.054822527 0.083909032 0)
(-0.063580693 0.078750602 0)
(-0.071748095 0.072838246 0)
(-0.079245184 0.066221759 0)
(-0.085997763 0.058958354 0)
(-0.091937948 0.051112455 0)
(-0.097005144 0.042755304 0)
(-0.10114699 0.03396436 0)
(-0.1043202 0.024822478 0)
(-0.10649126 0.015416908 0)
(-0.10763691 0.0058381708 0)
(-0.10774434 -0.0038211219 0)
(-0.10681116 -0.013467392 0)
(-0.1048452 -0.023007102 0)
(-0.10186418 -0.032347604 0)
(-0.097895274 -0.041397843 0)
(-0.092974801 -0.050068959 0)
(-0.087147907 -0.058274872 0)
(-0.080468316 -0.065932909 0)
(-0.072998099 -0.072964528 0)
(-0.064807397 -0.07929617 0)
(-0.055974057 -0.084860218 0)
(-0.046583135 -0.089596039 0)
(-0.036726218 -0.093451049 0)
(-0.026500563 -0.096381732 0)
(-0.016008064 -0.098354562 0)
(-0.0053540469 -0.099346743 0)
(0.0053540469 -0.099346743 0)
(0.016008064 -0.098354562 0)
(0.026500563 -0.096381732 0)
(0.036726218 -0.093451049 0)
(0.046583135 -0.089596039 0)
(0.055974057 -0.084860218 0)
(0.064807397 -0.07929617 0)
(0.072998099 -0.072964528 0)
(0.080468316 -0.065932909 0)
(0.087147907 -0.058274872 0)
(0.092974801 -0.050068959 0)
(0.097895274 -0.041397843 0)
(0.10186418 -0.032347604 0)
(0.1048452 -0.023007102 0)
(0.10681116 -0.013467392 0)
(0.10774434 -0.0038211219 0)
(0.10763691 0.0058381708 0)
(0.10649126 0.015416908 0)
(0.1043202 0.024822478 0)
(0.10114699 0.03396436 0)
(0.097005144 0.042755304 0)
(0.091937948 0.051112455 0)
(0.085997763 0.058958354 0)
(0.079245184 0.066221759 0)
(0.071748095 0.072838246 0)
(0.063580693 0.078750602 0)
(0.054822527 0.083909032 0)
(0.045557583 0.088271205 0)
(0.035873438 0.091802191 0)
(0.025860483 0.094474334 0)
(0.015611214 0.096267083 0)
(0.0052195868 0.09716684 0)
(-0.0054196991 0.10776377 0)
(-0.016210031 0.10676767 0)
(-0.026853425 0.10478278 0)
(-0.037252811 0.10182382 0)
(-0.047312486 0.097913091 0)
(-0.056938741 0.093080651 0)
(-0.066040555 0.087364584 0)
(-0.074530383 0.080811199 0)
(-0.082325042 0.07347518 0)
(-0.089346694 0.065419603 0)
(-0.09552392 0.056715782 0)
(-0.10079284 0.047442878 0)
(-0.10509824 0.037687234 0)
(-0.10839459 0.027541425 0)
(-0.11064687 0.017103044 0)
(-0.11183114 0.0064733103 0)
(-0.11193474 -0.0042443935 0)
(-0.11095613 -0.0149459 0)
(-0.10890455 -0.02552744 0)
(-0.10579942 -0.035886574 0)
(-0.1016698 -0.04592288 0)
(-0.096553931 -0.055538498 0)
(-0.090498863 -0.064638622 0)
(-0.083560249 -0.07313208 0)
(-0.07580217 -0.080932049 0)
(-0.067296963 -0.08795697 0)
(-0.058124942 -0.094131625 0)
(-0.048373973 -0.099388348 0)
(-0.03813883 -0.10366828 0)
(-0.027520338 -0.10692258 0)
(-0.016624292 -0.10911356 0)
(-0.0055601893 -0.11021555 0)
(0.0055601893 -0.11021555 0)
(0.016624292 -0.10911356 0)
(0.027520338 -0.10692258 0)
(0.03813883 -0.10366828 0)
(0.048373973 -0.099388348 0)
(0.058124942 -0.094131625 0)
(0.067296963 -0.08795697 0)
(0.07580217 -0.080932049 0)
(0.083560249 -0.07313208 0)
(0.090498863 -0.064638622 0)
(0.096553931 -0.055538498 0)
(0.1016698 -0.04592288 0)
(0.10579942 -0.035886574 0)
(0.10890455 -0.02552744 0)
(0.11095613 -0.0149459 0)
(0.11193474 -0.0042443935 0)
(0.11183114 0.0064733103 0)
(0.11064687 0.017103044 0)
(0.10839459 0.027541425 0)
(0.10509824 0.037687234 0)
(0.10079284 0.047442878 0)
(0.09552392 0.056715782 0)
(0.089346694 0.065419603 0)
(0.082325042 0.07347518 0)
(0.074530383 0.080811199 0)
(0.066040555 0.087364584 0)
(0.056938741 0.093080651 0)
(0.047312486 0.097913091 0)
(0.037252811 0.10182382 0)
(0.026853425 0.10478278 0)
(0.016210031 0.10676767 0)
(0.0054196991 0.10776377 0)
(-0.0056706789 0.11880155 0)
(-0.016961072 0.11770575 0)
(-0.028098812 0.11552197 0)
(-0.038982942 0.11226599 0)
(-0.049513765 0.1079617 0)
(-0.059593434 0.10264146 0)
(-0.069126625 0.096346356 0)
(-0.07802132 0.089126556 0)
(-0.086189729 0.081041563 0)
(-0.093549348 0.072160356 0)
(-0.10002418 0.06256132 0)
(-0.10554603 0.052331904 0)
(-0.11005592 0.041567913 0)
(-0.11350532 0.030372413 0)
(-0.11585726 0.018854251 0)
(-0.11708698 0.0071263034 0)
(-0.11718216 -0.0046963876 0)
(-0.11614262 -0.016498345 0)
(-0.11397966 -0.028165079 0)
(-0.11071519 -0.039584096 0)
(-0.10638092 -0.050645529 0)
(-0.10101768 -0.061242527 0)
(-0.09467505 -0.071271589 0)
(-0.087411144 -0.080633013 0)
(-0.079292563 -0.089231568 0)
(-0.070394349 -0.096977459 0)
(-0.06079984 -0.10378754 0)
(-0.050600334 -0.10958671 0)
(-0.039894496 -0.11430943 0)
(-0.028787502 -0.11790115 0)
(-0.017389905 -0.12031969 0)
(-0.0058162868 -0.12153625 0)
(0.0058162868 -0.12153625 0)
(0.017389905 -0.12031969 0)
(0.028787502 -0.11790115 0)
(0.039894496 -0.11430943 0)
(0.050600334 -0.10958671 0)
(0.06079984 -0.10378754 0)
(0.070394349 -0.096977459 0)
(0.079292563 -0.089231568 0)
(0.087411144 -0.080633013 0)
(0.09467505 -0.071271589 0)
(0.10101768 -0.061242527 0)
(0.10638092 -0.050645529 0)
(0.11071519 -0.039584096 0)
(0.11397966 -0.028165079 0)
(0.11614262 -0.016498345 0)
(0.11718216 -0.0046963876 0)
(0.11708698 0.0071263034 0)
(0.11585726 0.018854251 0)
(0.11350532 0.030372413 0)
(0.11005592 0.041567913 0)
(0.10554603 0.052331904 0)
(0.10002418 0.06256132 0)
(0.093549348 0.072160356 0)
(0.086189729 0.081041563 0)
(0.07802132 0.089126556 0)
(0.069126625 0.096346356 0)
(0.059593434 0.10264146 0)
(0.049513765 0.1079617 0)
(0.038982942 0.11226599 0)
(0.028098812 0.11552197 0)
(0.016961072 0.11770575 0)
(0.0056706789 0.11880155 0)
(-0.0059958583 0.13040091 0)
(-0.017934141 0.12920114 0)
(-0.029712339 0.1268099 0)
(-0.041224461 0.1232439 0)
(-0.052365654 0.11852853 0)
(-0.063032744 0.11269824 0)
(-0.073124872 0.10579694 0)
(-0.082544257 0.097878465 0)
(-0.091197129 0.08900702 0)
(-0.098994877 0.079257469 0)
(-0.10585542 0.068715447 0)
(-0.11170481 0.057477125 0)
(-0.11647889 0.045648511 0)
(-0.12012507 0.033344202 0)
(-0.12260367 0.020685569 0)
(-0.12388893 0.0077985007 0)
(-0.12396913 -0.0051890323 0)
(-0.12284618 -0.018149237 0)
(-0.12053443 -0.030956246 0)
(-0.11705942 -0.043487209 0)
(-0.11245657 -0.055622776 0)
(-0.10677033 -0.067247215 0)
(-0.10005366 -0.078248443 0)
(-0.092367917 -0.088518256 0)
(-0.083782956 -0.097952903 0)
(-0.074377289 -0.10645408 0)
(-0.064238108 -0.11393032 0)
(-0.053461072 -0.12029862 0)
(-0.042149783 -0.12548624 0)
(-0.030414918 -0.12943245 0)
(-0.018373037 -0.13209016 0)
(-0.0061451197 -0.13342718 0)
(0.0061451197 -0.13342718 0)
(0.018373037 -0.13209016 0)
(0.030414918 -0.12943245 0)
(0.042149783 -0.12548624 0)
(0.053461072 -0.12029862 0)
(0.064238108 -0.11393032 0)
(0.074377289 -0.10645408 0)
(0.083782956 -0.097952903 0)
(0.092367917 -0.088518256 0)
(0.10005366 -0.078248443 0)
(0.10677033 -0.067247215 0)
(0.11245657 -0.055622776 0)
(0.11705942 -0.043487209 0)
(0.12053443 -0.030956246 0)
(0.12284618 -0.018149237 0)
(0.12396913 -0.0051890323 0)
(0.12388893 0.0077985007 0)
(0.12260367 0.020685569 0)
(0.12012507 0.033344202 0)
(0.11647889 0.045648511 0)
(0.11170481 0.057477125 0)
(0.10585542 0.068715447 0)
(0.098994877 0.079257469 0)
(0.091197129 0.08900702 0)
(0.082544257 0.097878465 0)
(0.073124872 0.10579694 0)
(0.063032744 0.11269824 0)
(0.052365654 0.11852853 0)
(0.041224461 0.1232439 0)
(0.029712339 0.1268099 0)
(0.017934141 0.12920114 0)
(0.0059958583 0.13040091 0)
(-0.006427551 0.14273738 0)
(-0.019225905 0.14142801 0)
(-0.031854211 0.13881799 0)
(-0.044199759 0.13492486 0)
(-0.056150858 0.12977536 0)
(-0.067597316 0.12340583 0)
(-0.078431007 0.11586274 0)
(-0.088546585 0.10720336 0)
(-0.097842411 0.097496363 0)
(-0.10622176 0.08682241 0)
(-0.11359437 0.075274536 0)
(-0.11987838 0.062958138 0)
(-0.12500256 0.049990376 0)
(-0.12890856 0.036498794 0)
(-0.13155293 0.022619077 0)
(-0.13290849 0.0084920857 0)
(-0.13296458 -0.0057394482 0)
(-0.1317262 -0.019933973 0)
(-0.12921226 -0.033953352 0)
(-0.12545351 -0.047664025 0)
(-0.1204907 -0.060937207 0)
(-0.11437323 -0.073648527 0)
(-0.10715867 -0.085677566 0)
(-0.098912687 -0.096907717 0)
(-0.089709451 -0.10722659 0)
(-0.079632041 -0.11652707 0)
(-0.068772717 -0.12470883 0)
(-0.057232871 -0.13168038 0)
(-0.045122567 -0.13736114 0)
(-0.032559661 -0.14168363 0)
(-0.019668515 -0.14459532 0)
(-0.0065783945 -0.1460603 0)
(0.0065783945 -0.1460603 0)
(0.019668515 -0.14459532 0)
(0.032559661 -0.14168363 0)
(0.045122567 -0.13736114 0)
(0.057232871 -0.13168038 0)
(0.068772717 -0.12470883 0)
(0.079632041 -0.11652707 0)
(0.089709451 -0.10722659 0)
(0.098912687 -0.096907717 0)
(0.10715867 -0.085677566 0)
(0.11437323 -0.073648527 0)
(0.1204907 -0.060937207 0)
(0.12545351 -0.047664025 0)
(0.12921226 -0.033953352 0)
(0.1317262 -0.019933973 0)
(0.13296458 -0.0057394482 0)
(0.13290849 0.0084920857 0)
(0.13155293 0.022619077 0)
(0.12890856 0.036498794 0)
(0.12500256 0.049990376 0)
(0.11987838 0.062958138 0)
(0.11359437 0.075274536 0)
(0.10622176 0.08682241 0)
(0.097842411 0.097496363 0)
(0.088546585 0.10720336 0)
(0.078431007 0.11586274 0)
(0.067597316 0.12340583 0)
(0.056150858 0.12977536 0)
(0.044199759 0.13492486 0)
(0.031854211 0.13881799 0)
(0.019225905 0.14142801 0)
(0.006427551 0.14273738 0)
(-0.0070082012 0.15606069 0)
(-0.020963331 0.15463408 0)
(-0.034734825 0.15178994 0)
(-0.048200868 0.14754659 0)
(-0.061240566 0.14193194 0)
(-0.073734356 0.13498401 0)
(-0.08556448 0.12675154 0)
(-0.096615595 0.11729486 0)
(-0.10677563 0.10668679 0)
(-0.11593703 0.095013579 0)
(-0.12399848 0.082375726 0)
(-0.13086727 0.06888841 0)
(-0.13646221 0.054681146 0)
(-0.14071678 0.039896353 0)
(-0.14358213 0.024686579 0)
(-0.14502909 0.0092105059 0)
(-0.14504858 -0.0063716808 0)
(-0.14365027 -0.02190259 0)
(-0.14085975 -0.037230593 0)
(-0.13671534 -0.05221103 0)
(-0.13126521 -0.066705885 0)
(-0.12456564 -0.080582604 0)
(-0.11668039 -0.093712855 0)
(-0.10768089 -0.10597181 0)
(-0.097647041 -0.11723832 0)
(-0.086668035 -0.12739598 0)
(-0.07484293 -0.136335 0)
(-0.062280804 -0.14395457 0)
(-0.049100367 -0.15016549 0)
(-0.035429028 -0.15489273 0)
(-0.021401492 -0.15807777 0)
(-0.0071579588 -0.15968049 0)
(0.0071579588 -0.15968049 0)
(0.021401492 -0.15807777 0)
(0.035429028 -0.15489273 0)
(0.049100367 -0.15016549 0)
(0.062280804 -0.14395457 0)
(0.07484293 -0.136335 0)
(0.086668035 -0.12739598 0)
(0.097647041 -0.11723832 0)
(0.10768089 -0.10597181 0)
(0.11668039 -0.093712855 0)
(0.12456564 -0.080582604 0)
(0.13126521 -0.066705885 0)
(0.13671534 -0.05221103 0)
(0.14085975 -0.037230593 0)
(0.14365027 -0.02190259 0)
(0.14504858 -0.0063716808 0)
(0.14502909 0.0092105059 0)
(0.14358213 0.024686579 0)
(0.14071678 0.039896353 0)