/*--------------------------------*- C++ -*----------------------------------*\
| =========                 |                                                 |
| \\      /  F ield         | OpenFOAM: The Open Source CFD Toolbox           |
|  \\    /   O peration     | Version:  2306                                  |
|   \\  /    A nd           | Website:  www.openfoam.com                      |
|    \\/     M anipulation  |                                                 |
\*---------------------------------------------------------------------------*/
FoamFile
{
    version     2.0;
    format      ascii;
    arch        "LSB;label=32;scalar=64";
    class       volVectorField;
    location    "0.34";
    object      U;
}
// * * * * * * * * * * * * * * * * * * * * * * * * * * * * * * * * * * * * * //

dimensions      [0 1 -1 0 0 0 0];

internalField   nonuniform List<vector> 
6400
(
(0.0012008068 0.0022589904 2.1354093e-19)
(0.0012565827 0.0021595829 7.5796972e-20)
(0.0013059001 0.0020614153 -8.6310593e-20)
(0.001349169 0.0019646709 2.4775418e-20)
(0.0013867793 0.0018695064 -4.8025867e-20)
(0.0014191016 0.0017760546 9.3795651e-20)
(0.0014464876 0.0016844259 3.2636534e-20)
(0.0014692701 0.0015947121 1.3020463e-19)
(0.0014877641 0.0015069874 9.2699831e-20)
(0.0015022675 0.0014213105 8.1583614e-20)
(0.001513061 0.0013377264 6.1829199e-20)
(0.0015204095 0.001256268 1.2519244e-19)
(0.0015245626 0.0011769572 1.0283738e-20)
(0.0015257553 0.0010998066 -5.5689624e-20)
(0.0015242084 0.00102482 -2.3224383e-20)
(0.0015201297 0.0009519941 1.8917772e-20)
(0.0015137142 0.00088131887 -8.637946e-21)
(0.001505145 0.00081277887 3.4229868e-20)
(0.0014945937 0.00074635337 -3.3338166e-20)
(0.0014822215 0.00068201772 -1.9469958e-20)
(0.0014681789 0.00061974311 3.3464989e-20)
(0.0014526073 0.0005594981 -2.1940599e-20)
(0.0014356386 0.00050124855 4.7744028e-21)
(0.0014173963 0.00044495767 -3.280813e-20)
(0.0013979953 0.00039058733 -2.5214429e-20)
(0.0013775436 0.0003380975 3.0916056e-20)
(0.0013561417 0.00028744684 3.9790552e-21)
(0.0013338835 0.00023859373 9.7102787e-21)
(0.0013108563 0.00019149596 9.4894816e-21)
(0.0012871401 0.00014610975 -8.9340335e-21)
(0.0012628112 0.00010239275 5.8085334e-21)
(0.0012379407 6.0301513e-05 7.0931198e-20)
(0.001212593 1.9792816e-05 7.2166621e-20)
(0.0011868296 -1.9179225e-05 5.6743031e-21)
(0.0011607054 -5.6652957e-05 -1.0435085e-20)
(0.0011342713 -9.2672442e-05 5.6981418e-21)
(0.0011075755 -0.00012727893 8.6000393e-21)
(0.0010806624 -0.00016051342 3.6393656e-20)
(0.0010535726 -0.00019241605 5.9423449e-21)
(0.0010263438 -0.00022302653 -4.7932632e-20)
(0.0009990101 -0.0002523832 -9.2070994e-21)
(0.00097160317 -0.00028052394 3.6773273e-20)
(0.00094415184 -0.00030748565 1.8061743e-20)
(0.00091668248 -0.00033330408 -4.2643353e-22)
(0.00088921911 -0.00035801448 -1.2323035e-20)
(0.00086178355 -0.00038165062 -4.5609705e-21)
(0.00083439568 -0.00040424558 2.4747109e-20)
(0.00080707333 -0.00042583124 3.0556373e-20)
(0.00077983264 -0.00044643878 -1.6831338e-20)
(0.00075268807 -0.00046609822 -1.5232057e-20)
(0.00072565247 -0.00048483837 -1.6658324e-21)
(0.00069873733 -0.00050268732 2.0248759e-21)
(0.00067195284 -0.00051967202 2.7678671e-20)
(0.00064530782 -0.00053581835 2.1245843e-20)
(0.00061880994 -0.00055115141 -9.8223152e-21)
(0.00059246587 -0.0005656952 4.2715872e-21)
(0.0005662813 -0.00057947272 1.2345001e-20)
(0.00054026095 -0.00059250597 1.9641305e-20)
(0.00051440869 -0.00060481601 6.5123865e-22)
(0.00048872759 -0.00061642331 -2.6347171e-20)
(0.00046322003 -0.00062734702 -2.7775966e-21)
(0.00043788771 -0.00063760539 2.0128626e-21)
(0.00041273174 -0.00064721592 1.4172217e-20)
(0.00038775265 -0.00065619534 4.4525827e-21)
(0.00036295045 -0.00066455931 -8.6323684e-21)
(0.00033832469 -0.00067232262 -3.1855191e-23)
(0.00031387456 -0.00067949942 1.9937526e-21)
(0.00028959885 -0.00068610276 1.4683271e-20)
(0.00026549593 -0.00069214523 5.8395731e-21)
(0.00024156404 -0.0006976383 -1.0951578e-20)
(0.00021780105 -0.00070259284 9.0409919e-21)
(0.00019420456 -0.00070701884 6.3097503e-21)
(0.00017077208 -0.00071092564 1.9421532e-21)
(0.00014750086 -0.00071432203 2.7124354e-21)
(0.00012438815 -0.00071721641 6.0596635e-21)
(0.00010143164 -0.0007196174 1.4863334e-20)
(7.8628892e-05 -0.00072153571 -1.7244681e-21)
(5.5968415e-05 -0.00072298641 -7.9480916e-21)
(3.3430106e-05 -0.00072399387 -1.3854437e-20)
(1.1065565e-05 -0.00072458064 -2.2266173e-20)
(0.0011038381 0.0021849936 -8.4153589e-22)
(0.0011605887 0.0020916344 6.5957014e-20)
(0.0012110849 0.0019992001 -3.0425093e-20)
(0.0012557082 0.0019078842 -1.8062661e-19)
(0.0012948234 0.0018178544 -1.7325373e-19)
(0.0013287784 0.0017292545 -4.2907604e-20)
(0.001357904 0.0016422065 -4.7557032e-20)
(0.0013825151 0.0015568135 5.6288131e-20)
(0.00140291 0.0014731611 -7.5678544e-20)
(0.0014193717 0.0013913194 -4.7457375e-20)
(0.0014321681 0.0013113443 2.1560635e-20)
(0.0014415524 0.0012332796 8.8879894e-20)
(0.0014477636 0.0011571578 -4.1267735e-20)
(0.0014510276 0.0010830016 -1.6234037e-19)
(0.0014515573 0.0010108248 -7.6290145e-20)
(0.001449553 0.00094063355 -1.6462529e-20)
(0.0014452036 0.00087242708 -1.7160606e-20)
(0.0014386866 0.00080619864 -1.799375e-20)
(0.0014301691 0.00074193608 -7.6562538e-20)
(0.0014198077 0.00067962276 -3.0581922e-20)
(0.0014077497 0.00061923771 1.5659581e-20)
(0.001394133 0.00056075681 -4.4785031e-21)
(0.0013790872 0.00050415296 -1.6737651e-20)
(0.0013627335 0.00044939626 -4.0166059e-20)
(0.0013451852 0.00039645469 -1.8415953e-20)
(0.0013265485 0.00034529459 2.1915484e-20)
(0.0013069229 0.00029588077 -3.8632796e-21)
(0.0012864014 0.00024817661 3.203805e-21)
(0.0012650703 0.00020214518 -8.1096032e-21)
(0.0012430095 0.0001577481 1.8506798e-20)
(0.0012202948 0.00011494742 4.542513e-20)
(0.0011969977 7.3703908e-05 3.9745107e-20)
(0.0011731821 3.3978089e-05 2.776258e-20)
(0.0011489099 -4.2688107e-06 -4.4002662e-21)
(0.0011242367 -4.1075053e-05 -6.7512575e-21)
(0.0010992125 -7.6479579e-05 2.4502773e-21)
(0.0010738874 -0.00011052025 2.8502007e-21)
(0.0010483059 -0.00014323482 1.275045e-20)
(0.0010225094 -0.0001746605 -8.8532809e-21)
(0.000996536 -0.00020483395 -2.8736623e-20)
(0.0009704208 -0.00023379085 -4.017191e-22)
(0.00094419626 -0.00026156661 2.0939407e-20)
(0.00091789204 -0.00028819549 8.6321493e-21)
(0.00089153537 -0.00031371112 -2.0283486e-21)
(0.0008651512 -0.0003381465 -1.2508103e-22)
(0.00083876229 -0.0003615334 7.6433285e-21)
(0.00081238943 -0.0003839031 2.7159774e-20)
(0.00078605142 -0.00040528539 1.9117357e-20)
(0.00075976535 -0.0004257101 7.6435339e-21)
(0.00073354659 -0.00044520532 1.5576251e-20)
(0.00070740901 -0.00046379861 -8.1927153e-23)
(0.00068136512 -0.00048151656 -1.3479771e-20)
(0.00065542594 -0.00049838488 7.0597186e-21)
(0.0006296013 -0.00051442803 2.3009497e-20)
(0.00060389988 -0.0005296701 1.8503503e-20)
(0.00057832924 -0.00054413395 2.400172e-20)
(0.00055289596 -0.00055784161 1.6448391e-20)
(0.00052760573 -0.00057081411 2.6088387e-20)
(0.00050246333 -0.00058307157 9.8148189e-21)
(0.00047747276 -0.00059463374 -3.9631539e-21)
(0.00045263724 -0.0006055188 8.0143517e-21)
(0.00042795937 -0.0006157445 -4.9584797e-21)
(0.00040344111 -0.00062532768 9.4612067e-21)
(0.00037908383 -0.00063428424 1.3877491e-20)
(0.00035488839 -0.00064262942 1.1554315e-20)
(0.0003308552 -0.00065037751 4.5596622e-21)
(0.00030698425 -0.00065754215 -3.1016589e-21)
(0.00028327506 -0.00066413586 7.0859251e-21)
(0.00025972692 -0.00067017097 1.9448529e-21)
(0.00023633871 -0.0006756585 6.0509195e-21)
(0.00021310908 -0.00068060896 1.0055813e-20)
(0.00019003642 -0.00068503211 3.4068387e-21)
(0.00016711895 -0.00068893702 8.1313199e-21)
(0.00014435477 -0.00069233228 5.4955904e-21)
(0.00012174171 -0.00069522603 9.58786e-21)
(9.9278131e-05 -0.00069762679 7.7547598e-21)
(7.6962369e-05 -0.00069954515 3.2100824e-21)
(5.4783722e-05 -0.00070099612 4.4277258e-21)
(3.2723111e-05 -0.00070200408 -2.7082731e-21)
(1.0831637e-05 -0.00070259144 -1.9206254e-20)
(0.0010129594 0.0021114658 5.4105508e-20)
(0.0010703786 0.0020239069 1.7741199e-20)
(0.001121756 0.0019369848 -8.3527404e-20)
(0.0011674459 0.0018509013 -1.0931297e-19)
(0.0012077881 0.0017658327 -7.8932581e-20)
(0.001243108 0.0016819319 -6.9834134e-20)
(0.0012737164 0.0015993305 -1.0012957e-19)
(0.0012999095 0.0015181413 -6.1202025e-20)
(0.0013219694 0.0014384598 -7.4501508e-20)
(0.0013401641 0.0013603657 -4.1151951e-20)
(0.0013547483 0.0012839248 3.451614e-21)
(0.0013659632 0.0012091903 -4.1020395e-20)
(0.0013740375 0.0011362043 -1.6088911e-19)
(0.0013791873 0.0010649986 -1.3960409e-19)
(0.0013816172 0.00099559603 1.1094239e-20)
(0.0013815201 0.00092801127 -1.1231033e-20)
(0.0013790782 0.00086225214 -9.0077742e-20)
(0.0013744632 0.00079831993 -1.0309111e-19)
(0.0013678369 0.00073621024 -7.0391377e-20)
(0.0013593517 0.00067591397 -1.1476944e-22)
(0.0013491508 0.00061741756 1.3573824e-20)
(0.0013373687 0.00056070365 -3.6602779e-20)
(0.0013241321 0.00050575168 -7.4348061e-20)
(0.0013095598 0.00045253825 -1.2379214e-20)
(0.001293763 0.00040103726 -1.4016064e-20)
(0.0012768461 0.00035122086 2.4955281e-22)
(0.0012589069 0.00030305968 -3.2842647e-20)
(0.0012400375 0.00025652238 -5.3343482e-20)
(0.0012203236 0.00021157613 -2.1586778e-20)
(0.0011998443 0.00016818746 1.8866674e-20)
(0.0011786743 0.00012632378 2.1321525e-20)
(0.0011568836 8.5950114e-05 -3.1790151e-20)
(0.0011345374 4.7030299e-05 -3.6014705e-20)
(0.0011116982 9.530752e-06 5.3046075e-21)
(0.001088421 -2.6585479e-05 4.0245934e-21)
(0.0010647567 -6.1351637e-05 -2.9320142e-20)
(0.0010407547 -9.4802906e-05 -4.3577188e-20)
(0.0010164604 -0.00012697392 -1.904967e-20)
(0.0009919156 -0.000157899 -1.0820173e-20)
(0.00096715886 -0.00018761194 -1.8406004e-20)
(0.00094222607 -0.0002161459 1.1448968e-20)
(0.00091715027 -0.00024353368 -9.0945266e-21)
(0.0008919618 -0.00026980707 -1.2347057e-20)
(0.00086668872 -0.00029499769 2.5595491e-21)
(0.0008413567 -0.00031913621 -4.8292379e-21)
(0.00081598937 -0.00034225255 -4.169532e-21)
(0.00079060825 -0.00036437598 -7.2179171e-21)
(0.00076523301 -0.00038553471 -1.4800019e-20)
(0.00073988165 -0.00040575669 7.3288016e-21)
(0.00071457039 -0.00042506844 3.0014707e-20)
(0.000689314 -0.00044349625 1.1191913e-20)
(0.00066412581 -0.0004610652 -2.6734134e-20)
(0.00063901769 -0.00047779951 -1.9991983e-20)
(0.00061400038 -0.00049372274 1.0148981e-21)
(0.00058908346 -0.00050885756 7.9834494e-21)
(0.00056427532 -0.00052322593 1.7759085e-20)
(0.00053958342 -0.00053684876 1.4140947e-21)
(0.00051501436 -0.00054974627 8.8981737e-21)
(0.00049057373 -0.00056193754 -9.9344669e-23)
(0.00046626632 -0.00057344155 -4.2083064e-21)
(0.00044209627 -0.00058427567 9.7889345e-21)
(0.00041806693 -0.00059445699 -1.1918503e-20)
(0.00039418109 -0.00060400172 3.2194393e-21)
(0.000370441 -0.00061292507 4.158145e-21)
(0.00034684826 -0.0006212417 2.7059123e-21)
(0.00032340402 -0.00062896542 4.5654975e-22)
(0.00030010899 -0.00063610933 -1.1668091e-20)
(0.00027696362 -0.00064268564 -1.4604268e-21)
(0.00025396789 -0.00064870614 -1.3405414e-21)
(0.00023112136 -0.0006541815 6.358454e-22)
(0.00020842341 -0.00065912188 2.2572573e-21)
(0.00018587318 -0.00066353678 -4.3599383e-21)
(0.00016346966 -0.00066743507 1.4615655e-21)
(0.0001412115 -0.00067082507 -3.5523477e-21)
(0.0001190973 -0.0006737146 -3.0624074e-21)
(9.7126161e-05 -0.00067611223 -3.7027129e-21)
(7.5296939e-05 -0.0006780282 -7.9188347e-22)
(5.3599806e-05 -0.00067947767 -2.8221015e-21)
(3.2016628e-05 -0.00068048491 -8.1004561e-21)
(1.0597896e-05 -0.00068107206 -1.1879416e-20)
(0.0009279056 0.0020386285 1.5043796e-19)
(0.00098571518 0.0019566188 -3.9851143e-21)
(0.0010377021 0.0018749842 -6.1693128e-20)
(0.0010841941 0.0017939323 -3.1008315e-20)
(0.0011255069 0.0017136462 2.6698595e-21)
(0.0011619438 0.0016342859 -8.1794398e-20)
(0.0011937956 0.0015559911 -1.3565232e-19)
(0.0012213405 0.0014788823 -7.3507692e-20)
(0.0012448441 0.0014030634 -7.1557902e-21)
(0.0012645597 0.0013286225 -4.9159005e-20)
(0.0012807286 0.0012556341 -7.1479662e-20)
(0.0012935801 0.0011841596 -7.9381613e-20)
(0.0013033321 0.0011142494 -1.3484009e-20)
(0.0013101911 0.0010459436 7.6941991e-21)
(0.0013143529 0.00097927304 -7.8510586e-21)
(0.0013160028 0.00091426037 -3.3006508e-20)
(0.0013153162 0.0008509209 -3.3860829e-20)
(0.0013124587 0.00078926346 2.4510238e-20)
(0.0013075866 0.00072929075 -9.9736442e-21)
(0.0013008474 0.00067100071 1.7412779e-21)
(0.0012923803 0.00061438638 -3.4135232e-20)
(0.0012823164 0.00055943689 -4.0556657e-20)
(0.0012707787 0.00050613782 1.9740106e-21)
(0.0012578835 0.00045447175 1.153166e-20)
(0.0012437396 0.00040441825 -5.410794e-21)
(0.0012284495 0.00035595493 -3.3387762e-20)
(0.0012121095 0.00030905746 -4.592435e-20)
(0.0011948092 0.00026369971 -3.7581252e-21)
(0.0011766328 0.00021985369 8.7508808e-21)
(0.0011576602 0.00017748995 1.7620892e-20)
(0.0011379657 0.00013658027 2.9507922e-20)
(0.0011176176 9.7093695e-05 -1.4274984e-20)
(0.001096681 5.8999647e-05 -1.6075867e-20)
(0.0010752168 2.2267112e-05 1.6081671e-20)
(0.0010532813 -1.3138115e-05 6.4449992e-21)
(0.0010309262 -4.7244853e-05 -1.4231793e-21)
(0.0010082 -8.0085709e-05 -2.4928602e-20)
(0.00098514838 -0.00011169209 -7.8517178e-21)
(0.0009618136 -0.00014209537 -9.4345558e-21)
(0.00093823469 -0.00017132671 3.6089904e-21)
(0.00091444795 -0.00019941671 1.5591229e-20)
(0.00089048693 -0.00022639556 -1.6588268e-21)
(0.00086638261 -0.00025229287 1.8904652e-20)
(0.00084216363 -0.00027713804 4.0486048e-21)
(0.00081785632 -0.00030095963 5.0245311e-21)
(0.000793485 -0.00032378572 4.7617579e-21)
(0.00076907192 -0.00034564351 -7.06271e-21)
(0.00074463747 -0.00036655979 -9.0893472e-21)
(0.00072020037 -0.00038656064 -2.9895194e-21)
(0.00069577774 -0.00040567114 3.6857684e-20)
(0.00067138511 -0.000423916 2.7506779e-20)
(0.00064703647 -0.000441319 -3.242675e-21)
(0.00062274453 -0.000457903 4.5148507e-21)
(0.0005985209 -0.00047369049 3.5376623e-21)
(0.00057437595 -0.00048870289 5.9238619e-21)
(0.00055031892 -0.00050296113 6.2237496e-21)
(0.000526358 -0.0005164851 -1.3721958e-21)
(0.00050250043 -0.00052929404 1.2701973e-20)
(0.00047875275 -0.0005414063 -1.9547573e-21)
(0.00045512059 -0.00055283982 -3.7056742e-22)
(0.00043160873 -0.00056361138 8.9128787e-21)
(0.00040822143 -0.00057373728 -5.2713781e-21)
(0.00038496221 -0.00058323304 1.5293583e-20)
(0.00036183393 -0.00059211329 1.4674871e-20)
(0.00033883903 -0.0006003921 2.1470697e-21)
(0.00031597949 -0.00060808278 -4.956329e-21)
(0.00029325679 -0.00061519792 -1.0183893e-20)
(0.00027067191 -0.00062174933 7.8076742e-21)
(0.00024822552 -0.0006277483 4.1216992e-21)
(0.00022591804 -0.00063320521 1.7577462e-21)
(0.00020374955 -0.00063812981 2.5715427e-21)
(0.00018171985 -0.00064253141 1.8365465e-21)
(0.00015982851 -0.00064641855 7.1084656e-21)
(0.00013807487 -0.00064979923 8.9378517e-21)
(0.00011645821 -0.00065268123 -2.4096845e-21)
(9.4978214e-05 -0.00065507287 -3.6182804e-21)
(7.3634454e-05 -0.00065698421 7.4080893e-21)
(5.2417887e-05 -0.00065843047 5.1668767e-21)
(3.1311257e-05 -0.00065943578 -1.289502e-20)
(1.0364499e-05 -0.00066002201 -1.1713716e-20)
(0.00084841101 0.0019666775 3.0497731e-19)
(0.00090635941 0.0018899655 1.6604404e-19)
(0.00095870866 0.0018133918 -7.6643831e-20)
(0.001005761 0.001737168 7.2864596e-20)
(0.0010478086 0.0016614819 1.1860387e-19)
(0.0010851335 0.0015864993 6.868299e-20)
(0.0011180069 0.0015123658 4.3614287e-20)
(0.0011466891 0.0014392089 2.378257e-20)
(0.0011714296 0.0013671389 9.6761715e-20)
(0.0011924672 0.0012962514 3.6929663e-20)
(0.0012100298 0.0012266279 5.2126701e-20)
(0.0012243347 0.0011583372 9.503208e-20)
(0.001235589 0.001091437 6.5643861e-20)
(0.0012439895 0.0010259746 5.765331e-20)
(0.0012497231 0.00096198815 1.915359e-20)
(0.0012529673 0.00089950732 5.4729765e-20)
(0.0012538904 0.00083855431 1.2835646e-19)
(0.0012526516 0.00077914464 4.9315036e-20)
(0.0012494018 0.00072128769 -2.530708e-20)
(0.0012442835 0.00066498774 2.0748317e-20)
(0.0012374314 0.00061024386 2.6866314e-21)
(0.0012289727 0.00055705127 2.7037067e-20)
(0.001219027 0.0005054014 4.2484335e-20)
(0.0012077075 0.00045528212 -1.4420182e-21)
(0.0011951205 0.00040667855 1.8459322e-20)
(0.0011813662 0.00035957324 -6.4305027e-22)
(0.0011665388 0.00031394656 1.3920986e-20)
(0.0011507267 0.00026977701 3.8614879e-21)
(0.0011340126 0.00022704202 -5.4999847e-22)
(0.0011164751 0.00018571693 1.0076643e-20)
(0.0010981872 0.00014577592 -1.760616e-21)
(0.0010792173 0.00010719215 3.0001009e-20)
(0.00105963 6.9939702e-05 5.1386961e-20)
(0.001039484 3.39899e-05 3.1491781e-20)
(0.0010188368 -6.859059e-07 1.1864127e-20)
(0.00099774091 -3.4115607e-05 3.4824994e-21)
(0.00097624302 -6.6327811e-05 1.0590047e-20)
(0.00095438982 -9.7350971e-05 3.52163e-20)
(0.00093222358 -0.0001272137 2.2386497e-21)
(0.00090978361 -0.00015594448 1.357903e-20)
(0.00088710652 -0.00018357156 1.0673785e-20)
(0.00086422622 -0.00021012257 1.6995364e-22)
(0.00084117418 -0.00023562514 2.7990139e-20)
(0.00081797954 -0.00026010617 1.4199408e-20)
(0.00079466917 -0.00028359253 4.991927e-22)
(0.00077126798 -0.00030611024 -7.6493686e-22)
(0.00074779885 -0.00032768473 1.4445825e-20)
(0.00072428282 -0.00034834105 3.0469858e-20)
(0.00070073923 -0.00036810371 -3.943683e-21)
(0.00067718591 -0.00038699639 1.1009848e-20)
(0.000653639 -0.00040504212 8.1749248e-21)
(0.00063011326 -0.00042226335 -2.2946886e-21)
(0.00060662223 -0.0004386819 3.0192816e-20)
(0.00058317815 -0.00045431888 9.220571e-21)
(0.00055979209 -0.00046919468 8.871581e-21)
(0.000536474 -0.00048332902 6.4457562e-21)
(0.00051323284 -0.0004967409 1.611157e-21)
(0.00049007664 -0.00050944859 2.1027041e-20)
(0.00046701262 -0.00052146971 -3.7880007e-21)
(0.00044404712 -0.0005328212 -4.88759e-21)
(0.00042118572 -0.00054351912 4.070652e-21)
(0.00039843333 -0.00055357919 -9.8969589e-21)
(0.00037579417 -0.00056301606 1.6696081e-20)
(0.00035327192 -0.00057184387 1.3722321e-20)
(0.00033086969 -0.00058007608 5.02517e-21)
(0.00030859008 -0.00058772553 2.102116e-21)
(0.00028643518 -0.00059480422 -9.1724165e-21)
(0.00026440684 -0.00060132365 1.5424024e-20)
(0.00024250641 -0.00060729457 4.5680184e-21)
(0.00022073487 -0.00061272704 -2.5267347e-21)
(0.00019909295 -0.00061763047 3.6211495e-21)
(0.00017758113 -0.00062201389 3.1627916e-21)
(0.00015619959 -0.00062588549 1.0492806e-20)
(0.00013494836 -0.00062925313 1.3006558e-20)
(0.00011382737 -0.00063212439 1.4407983e-20)
(9.2836848e-05 -0.00063450731 7.0350371e-21)
(7.1976928e-05 -0.00063641195 -3.3313222e-21)
(5.1239408e-05 -0.00063785341 -1.0105284e-21)
(3.0607933e-05 -0.00063885555 -1.9833321e-20)
(1.0131784e-05 -0.00063944022 -2.5228306e-20)
(0.00077421053 0.0018957851 1.5544969e-19)
(0.00083207162 0.0018241202 2.5713494e-19)
(0.00088455957 0.0017523806 -3.2839969e-20)
(0.00093195208 0.0016807798 -3.165904e-20)
(0.00097451883 0.0016095092 5.3720672e-20)
(0.001012521 0.0015387385 1.3693266e-19)
(0.0010462109 0.0014686178 1.3417796e-19)
(0.0010758315 0.00139928 6.1551999e-21)
(0.0011016165 0.0013308411 -3.5896248e-20)
(0.0011237902 0.0012634023 4.0264847e-20)
(0.0011425673 0.0011970513 1.1936883e-19)
(0.0011581534 0.0011318632 1.2379102e-19)
(0.0011707444 0.0010679021 2.0832677e-20)
(0.0011805275 0.0010052217 1.7921025e-20)
(0.0011876809 0.00094386629 1.6019786e-20)
(0.001192374 0.00088387196 7.3452091e-20)
(0.0011947678 0.00082526716 1.0348629e-19)
(0.0011950153 0.0007680734 -2.9311339e-21)
(0.0011932615 0.0007123061 2.1959013e-21)
(0.0011896438 0.00065797526 7.7379601e-21)
(0.0011842922 0.0006050857 2.061159e-20)
(0.0011773297 0.00055363814 4.2324308e-20)
(0.0011688725 0.00050362938 9.9402585e-22)
(0.0011590306 0.00045505221 -1.97449e-20)
(0.0011479074 0.00040789704 2.7104326e-20)
(0.0011356007 0.00036215097 2.6279615e-20)
(0.0011222024 0.00031779916 3.646477e-21)
(0.0011077995 0.00027482445 -7.2385194e-21)
(0.0010924732 0.00023320806 9.7468653e-21)
(0.0010762998 0.00019292989 -1.1534341e-20)
(0.0010593515 0.00015396827 -7.6193231e-21)
(0.0010416969 0.00011630017 6.4717344e-20)
(0.001023399 7.9901062e-05 5.8049647e-20)
(0.0010045157 4.4747806e-05 3.2515972e-22)
(0.00098510446 1.0816414e-05 -1.0023711e-20)
(0.0009652171 -2.1921192e-05 -2.0769092e-21)
(0.00094490104 -5.3488835e-05 4.8964481e-20)
(0.00092420224 -8.3912522e-05 4.6152211e-20)
(0.00090316317 -0.00011321818 -2.5496846e-20)
(0.00088182334 -0.00014143166 -3.8414396e-20)
(0.00086021947 -0.00016857887 3.0612535e-21)
(0.0008383858 -0.00019468519 4.6405352e-20)
(0.00081635415 -0.000219776 2.0433125e-20)
(0.00079415395 -0.00024387616 -4.9915975e-21)
(0.00077181263 -0.00026701057 -1.2076518e-20)
(0.0007493555 -0.00028920339 4.2726893e-22)
(0.00072680593 -0.00031047832 2.8601568e-20)
(0.00070418558 -0.00033085873 2.6951257e-20)
(0.00068151437 -0.00035036749 1.2781791e-21)
(0.00065881058 -0.00036902692 -6.3685132e-21)
(0.00063609108 -0.00038685851 -1.2335669e-20)
(0.00061337126 -0.00040388346 -1.3717614e-21)
(0.00059066527 -0.00042012236 1.9925798e-20)
(0.00056798604 -0.00043559511 2.4582392e-21)
(0.00054534524 -0.00045032096 -4.3841771e-21)
(0.00052275356 -0.00046431859 1.2391581e-20)
(0.00050022062 -0.00047760603 1.29013e-20)
(0.00047775512 -0.00049020063 1.9225568e-20)
(0.00045536489 -0.00050211921 -8.0049108e-21)
(0.00043305703 -0.00051337782 -1.5474824e-20)
(0.00041083776 -0.00052399174 -1.0592133e-21)
(0.0003887126 -0.00053397606 -1.3953836e-20)
(0.00036668652 -0.00054334474 7.8833244e-22)
(0.00034476388 -0.00055211136 5.021433e-21)
(0.00032294842 -0.00056028866 -4.3645694e-21)
(0.00030124333 -0.00056788908 3.5709254e-21)
(0.00027965147 -0.00057492407 -7.6414888e-21)
(0.00025817518 -0.00058140478 6.4292941e-21)
(0.00023681652 -0.00058734146 1.0181868e-20)
(0.00021557716 -0.00059274384 3.4102127e-22)
(0.00019445842 -0.00059762098 1.0032567e-20)
(0.0001734614 -0.00060198161 7.9335959e-21)
(0.00015258689 -0.00060583355 7.4288244e-21)
(0.0001318355 -0.0006091846 4.9499605e-21)
(0.00011120771 -0.000612042 8.0566735e-21)
(9.0704395e-05 -0.00061441371 6.3200709e-21)
(7.0326294e-05 -0.00061630963 -4.1152936e-21)
(5.0065775e-05 -0.00061774471 -6.9334877e-21)
(2.9907403e-05 -0.0006187426 -1.8990656e-20)
(9.8999676e-06 -0.00061932507 -2.6778672e-20)
(0.00070504179 0.0018261013 2.2332486e-20)
(0.00076261335 0.0017592353 1.2005157e-19)
(0.00081503864 0.0016921039 -3.2011344e-20)
(0.00086257188 0.0016249214 -2.2590083e-19)
(0.00090546115 0.0015578808 -9.6398565e-20)
(0.00094394773 0.0014911544 1.8574848e-20)
(0.00097826548 0.0014248958 -5.6966139e-21)
(0.0010086407 0.0013592415 -8.5474963e-21)
(0.0010352915 0.0012943122 -1.4874831e-19)
(0.0010584281 0.0012302139 -3.1038429e-20)
(0.0010782522 0.0011670391 5.6862619e-20)
(0.0010949575 0.0011048685 5.9822383e-20)
(0.0011087295 0.0010437713 -2.4280172e-20)
(0.0011197455 0.00098380687 -1.2583638e-19)
(0.0011281748 0.00092502513 -3.1442718e-20)
(0.0011341787 0.00086746755 5.2876991e-20)
(0.0011379112 0.00081116823 2.1234882e-20)
(0.0011395186 0.00075615407 -6.2122524e-20)
(0.00113914 0.000702446 -7.8736e-20)
(0.0011369075 0.00065005911 -2.9157545e-20)
(0.0011329464 0.0005990036 3.7024119e-20)
(0.0011273753 0.00054928508 1.9293107e-20)
(0.001120307 0.0005009052 -2.563937e-20)
(0.0011118479 0.0004538617 -3.4971537e-20)
(0.0011020984 0.00040814938 5.6064912e-21)
(0.0010911538 0.00036376007 4.0341068e-20)
(0.0010791037 0.00032068307 -1.0448352e-21)
(0.0010660325 0.00027890548 -2.1239811e-20)
(0.0010520204 0.00023841229 -3.2009878e-20)
(0.0010371426 0.00019918694 -9.1714997e-21)
(0.0010214694 0.00016121199 3.5127309e-20)
(0.0010050668 0.0001244685 3.0104507e-20)
(0.00098799898 8.893488e-05 2.0452412e-20)
(0.00097032488 5.458968e-05 -1.0288207e-20)
(0.00095209738 2.1412213e-05 -5.2590475e-21)
(0.0009333692 -1.0619773e-05 1.6768997e-21)
(0.00091418888 -4.152898e-05 1.7252945e-20)
(0.00089460097 -7.1339195e-05 8.781149e-21)
(0.00087464812 -0.00010007337 -2.1457512e-20)
(0.00085436988 -0.00012775489 -3.7757929e-20)
(0.00083380307 -0.00015440728 -7.5438115e-21)
(0.00081298198 -0.00018005387 2.3277196e-20)
(0.00079193863 -0.00020471774 3.235952e-21)
(0.00077070296 -0.00022842198 -1.209017e-22)
(0.0007493026 -0.00025118935 1.5016657e-21)
(0.00072776315 -0.00027304229 1.296846e-20)
(0.00070610856 -0.00029400287 1.8559748e-20)
(0.0006843609 -0.00031409274 -7.2089179e-21)
(0.00066254049 -0.00033333326 1.9083237e-21)
(0.00064066622 -0.00035174528 1.0843483e-20)
(0.00061875547 -0.00036934895 4.869963e-21)
(0.00059682418 -0.00038616413 -7.4500356e-21)
(0.00057488702 -0.00040221025 -4.5491198e-21)
(0.00055295752 -0.000417506 2.686941e-21)
(0.00053104799 -0.00043206951 -5.0691631e-22)
(0.00050916973 -0.00044591856 1.9128532e-20)
(0.00048733298 -0.00045907001 1.3931849e-20)
(0.000465547 -0.00047154043 1.4758208e-20)
(0.00044382029 -0.00048334581 -2.9932154e-21)
(0.00042216046 -0.00049450131 -6.0590062e-21)
(0.00040057447 -0.00050502158 1.2271336e-20)
(0.00037906849 -0.00051492087 -1.4457688e-20)
(0.00035764803 -0.00052421259 -1.5835234e-20)
(0.00033631802 -0.00053290966 4.3897748e-21)
(0.00031508287 -0.00054102431 5.993217e-21)
(0.00029394647 -0.00054856835 8.220273e-21)
(0.00027291223 -0.00055555286 -8.8436615e-21)
(0.00025198316 -0.00056198845 -8.4867899e-21)
(0.00023116178 -0.00056788504 1.0475998e-20)
(0.00021045033 -0.00057325197 1.2531547e-20)
(0.00018985086 -0.00057809799 1.6559241e-20)
(0.00016936499 -0.00058243144 9.3080973e-21)
(0.00014899413 -0.00058625991 -2.0816802e-21)
(0.00012873945 -0.00058959096 4.9942346e-21)
(0.00010860196 -0.00059243161 -2.3646828e-22)
(8.8583053e-05 -0.0005947897 -3.4203182e-21)
(6.8684046e-05 -0.00059667494 2.2045545e-21)
(4.8898039e-05 -0.00059810209 -1.4548707e-22)
(2.9210424e-05 -0.00059909476 -7.1435641e-21)
(9.6693462e-06 -0.00059967447 -2.0328327e-20)
(0.00064064613 0.0017577552 8.2028592e-21)
(0.00069774846 0.0016954437 -1.331975e-19)
(0.00074993074 0.001632697 -2.8652564e-20)
(0.00079742492 0.0015697292 -2.8806822e-20)
(0.0008404585 0.0015067333 -2.2000473e-21)
(0.00087925356 0.0014438832 -8.6816853e-21)
(0.00091402635 0.0013813344 -1.9841064e-19)
(0.00094498679 0.0013192264 -3.2743467e-20)
(0.00097233812 0.001257683 -1.5349686e-20)
(0.00099627672 0.0011968141 -5.7231049e-21)
(0.0010169917 0.0011367162 2.3670862e-20)
(0.0010346652 0.0010774744 -1.2279591e-19)
(0.001049472 0.0010191625 -6.1839604e-20)
(0.0010615798 0.00096184451 -1.3118521e-20)
(0.001071149 0.00090557513 6.14492e-20)
(0.0010783332 0.00085040079 8.3487987e-21)
(0.0010832789 0.00079636034 -1.5696965e-19)
(0.0010861258 0.00074348566 -5.9984641e-20)
(0.0010870072 0.00069180239 1.7352746e-21)
(0.0010860497 0.00064133054 2.4732162e-20)
(0.0010833737 0.0005920849 9.2567402e-21)
(0.0010790937 0.00054407568 -9.759878e-20)
(0.0010733183 0.00049730892 -3.2334547e-20)
(0.0010661504 0.00045178694 3.4249093e-20)
(0.0010576876 0.00040750865 4.8903104e-22)
(0.0010480221 0.00036447014 -1.5119619e-20)
(0.0010372413 0.00032266445 -8.820666e-20)
(0.0010254275 0.00028208272 -2.7403781e-20)
(0.0010126586 0.00024271404 -1.7621269e-21)
(0.00099900856 0.00020454505 2.0749103e-22)
(0.0009845467 0.00016756133 9.7439362e-21)
(0.000969338 0.00013174743 -7.9554482e-20)
(0.0009534427 9.7086923e-05 -3.5594485e-20)
(0.0009369195 6.3559611e-05 2.4100637e-20)
(0.00091982533 3.1147881e-05 -3.6956994e-21)
(0.00090221014 -1.6847898e-07 -3.0477544e-20)
(0.00088411961 -3.0408966e-05 -7.0888736e-20)
(0.0008655993 -5.9593932e-05 -2.0038236e-20)
(0.000846692 -8.7744305e-05 2.6117821e-21)
(0.000827437 -0.00011488117 -3.3176995e-20)
(0.00080787113 -0.00014102577 -1.3342539e-20)
(0.00078802873 -0.00016619927 -5.4374881e-20)
(0.00076794196 -0.00019042281 -2.0428454e-20)
(0.0007476408 -0.00021371761 1.4752547e-20)
(0.00072715323 -0.00023610444 -1.3769037e-20)
(0.00070650517 -0.00025760404 -1.672284e-20)
(0.00068572078 -0.00027823684 -4.0971448e-20)
(0.00066482257 -0.00029802292 -2.8534787e-20)
(0.00064383134 -0.00031698208 7.2887667e-21)
(0.0006227663 -0.00033513381 4.9069678e-21)
(0.00060164525 -0.00035249686 1.9764458e-21)
(0.0005804847 -0.00036908992 -3.2196057e-20)
(0.00055929988 -0.00038493113 -2.4251085e-20)
(0.00053810476 -0.00040003811 2.8928339e-22)
(0.00051691216 -0.00041442785 -9.0901458e-21)
(0.00049573391 -0.00042811718 -7.2102487e-21)
(0.00047458083 -0.00044112199 -2.8012509e-20)
(0.0004534628 -0.0004534579 -6.1437235e-21)
(0.00043238882 -0.00046514012 -1.3496274e-21)
(0.00041136715 -0.00047618302 -1.2981205e-20)
(0.00039040521 -0.00048660056 -3.6859053e-21)
(0.00036950973 -0.00049640614 -3.4237154e-20)
(0.00034868687 -0.00050561264 -1.8713913e-20)
(0.00032794219 -0.00051423238 -7.5681064e-21)
(0.0003072806 -0.00052227704 -9.04699e-21)
(0.00028670657 -0.00052975783 -9.0304053e-21)
(0.00026622408 -0.00053668545 -2.3181262e-20)
(0.00024583665 -0.00054306998 -1.311816e-20)
(0.00022554745 -0.00054892095 -1.3381257e-21)
(0.00020535932 -0.00055424739 -4.9573775e-21)
(0.00018527478 -0.00055905771 -4.7447176e-21)
(0.00016529602 -0.0005633598 -1.2040286e-20)
(0.00014542496 -0.00056716122 -1.3379369e-20)
(0.00012566334 -0.00057046905 -1.0326551e-20)
(0.00010601273 -0.00057329022 -1.1874383e-20)
(8.6475034e-05 -0.00057563237 -1.1340159e-20)
(6.7052006e-05 -0.00057750516 -5.9026429e-21)
(4.7737513e-05 -0.00057892295 -6.9263739e-21)
(2.8517722e-05 -0.00057990945 -7.8912013e-21)
(9.4401164e-06 -0.00058048579 -1.5720407e-20)
(0.00058077023 0.0016908566 2.1398775e-19)
(0.00063724474 0.0016328598 -3.3222224e-20)
(0.00068902345 0.001574278 -1.3299715e-19)
(0.00073631734 0.0015153235 -9.9438704e-20)
(0.00077933419 0.0014561884 -8.8545228e-20)
(0.00081827795 0.0013970469 -5.5994266e-20)
(0.00085334791 0.0013380555 -1.3947013e-19)
(0.00088473828 0.0012793554 -7.7066487e-20)
(0.00091263786 0.0012210728 -3.9743911e-20)
(0.00093722958 0.0011633202 -9.1153384e-20)
(0.00095869035 0.0011061977 -2.3007801e-20)
(0.00097719093 0.0010497935 -5.3939686e-20)
(0.00099289576 0.00099418535 1.9950013e-21)
(0.001005963 0.00093944118 -2.8866803e-21)
(0.0010165444 0.00088561977 -5.0635342e-20)
(0.0010247855 0.00083277178 -3.6010957e-20)
(0.0010308257 0.0007809403 -2.6393712e-20)
(0.0010347981 0.00073016151 4.0269272e-20)
(0.0010368297 0.00068046537 -1.5249845e-20)