/*--------------------------------*- C++ -*----------------------------------*\
| =========                 |                                                 |
| \\      /  F ield         | OpenFOAM: The Open Source CFD Toolbox           |
|  \\    /   O peration     | Version:  2306                                  |
|   \\  /    A nd           | Website:  www.openfoam.com                      |
|    \\/     M anipulation  |                                                 |
\*---------------------------------------------------------------------------*/
FoamFile
{
    version     2.0;
    format      ascii;
    arch        "LSB;label=32;scalar=64";
    class       volVectorField;
    location    "0.34";
    object      U_0;
}
// * * * * * * * * * * * * * * * * * * * * * * * * * * * * * * * * * * * * * //

dimensions      [0 1 -1 0 0 0 0];

internalField   nonuniform List<vector> 
6400
(
(0.0012015716 0.0022576508 2.1337813e-19)
(0.0012572953 0.0021582734 7.5768918e-20)
(0.0013065638 0.0020601355 -8.6112115e-20)
(0.0013497866 0.0019634203 2.4798202e-20)
(0.0013873537 0.0018682846 -4.8094729e-20)
(0.0014196355 0.0017748609 9.3723884e-20)
(0.0014469833 0.0016832599 3.2604883e-20)
(0.0014697299 0.0015935733 1.3015873e-19)
(0.0014881903 0.0015058751 9.2666071e-20)
(0.001502662 0.0014202243 8.1587006e-20)
(0.0015134257 0.0013366656 6.191332e-20)
(0.0015207463 0.0012552321 1.2510623e-19)
(0.0015248731 0.0011759456 1.0232934e-20)
(0.0015260411 0.0010988188 -5.5677071e-20)
(0.0015244711 0.0010238553 -2.3264311e-20)
(0.0015203706 0.00095105199 1.8830803e-20)
(0.0015139346 0.00088039885 -8.6522813e-21)
(0.0015053462 0.00081188037 3.4347322e-20)
(0.001494777 0.00074547587 -3.3332242e-20)
(0.0014823879 0.00068116068 -1.9387576e-20)
(0.0014683295 0.00061890602 3.3499078e-20)
(0.0014527431 0.00055868041 -2.1904467e-20)
(0.0014357607 0.00050044977 4.7058788e-21)
(0.0014175054 0.00044417732 -3.2819137e-20)
(0.0013980923 0.00038982488 -2.5168395e-20)
(0.0013776293 0.00033735248 3.0844207e-20)
(0.001356217 0.00028671876 3.9471827e-21)
(0.0013339491 0.00023788212 9.720615e-21)
(0.0013109128 0.00019080031 9.4995789e-21)
(0.0012871882 0.00014542961 -8.9659315e-21)
(0.0012628516 0.00010172769 5.7881664e-21)
(0.0012379738 5.9651084e-05 7.0928837e-20)
(0.0012126195 1.915659e-05 7.2146146e-20)
(0.00118685 -1.9801711e-05 5.6819243e-21)
(0.0011607202 -5.7262138e-05 -1.0409255e-20)
(0.0011342809 -9.3268702e-05 5.7057645e-21)
(0.0011075804 -0.00012786268 8.5912933e-21)
(0.001080663 -0.00016108509 3.6358774e-20)
(0.0010535694 -0.00019297605 5.9346188e-21)
(0.001026337 -0.00022357525 -4.792309e-20)
(0.00099900016 -0.00025292102 -9.2023672e-21)
(0.00097159039 -0.00028105122 3.6756914e-20)
(0.00094413652 -0.0003080028 1.806795e-20)
(0.00091666492 -0.00033381145 -4.1269831e-22)
(0.00088919962 -0.0003585124 -1.232858e-20)
(0.00086176241 -0.00038213946 -4.5645692e-21)
(0.0008343731 -0.0004047257 2.474523e-20)
(0.00080704954 -0.00042630297 3.0563308e-20)
(0.00077980786 -0.00044690247 -1.6826731e-20)
(0.00075266252 -0.00046655418 -1.5256625e-20)
(0.00072562631 -0.00048528691 -1.6726626e-21)
(0.00069871073 -0.00050312875 2.0226384e-21)
(0.000671926 -0.00052010665 2.7694606e-20)
(0.0006452809 -0.00053624648 2.1226989e-20)
(0.00061878306 -0.00055157336 -9.8293174e-21)
(0.00059243917 -0.00056611125 4.2722943e-21)
(0.00056625492 -0.00057988316 1.2338419e-20)
(0.00054023501 -0.00059291105 1.9630232e-20)
(0.00051438326 -0.00060521605 6.6759849e-22)
(0.00048870281 -0.00061681853 -2.6360877e-20)
(0.00046319597 -0.00062773769 -2.7857231e-21)
(0.00043786444 -0.00063799178 2.008931e-21)
(0.00041270937 -0.00064759833 1.4187276e-20)
(0.00038773125 -0.00065657398 4.4625735e-21)
(0.00036293006 -0.00066493444 -8.6287952e-21)
(0.00033830536 -0.00067269447 -3.2647788e-23)
(0.00031385638 -0.00067986822 1.9822709e-21)
(0.00028958185 -0.00068646878 1.4685795e-20)
(0.00026548016 -0.00069250868 5.8416383e-21)
(0.00024154957 -0.00069799941 -1.0938245e-20)
(0.00021778786 -0.00070295184 9.0321548e-21)
(0.00019419269 -0.00070737594 6.3119779e-21)
(0.00017076161 -0.00071128106 1.9201593e-21)
(0.00014749176 -0.00071467601 2.6869159e-21)
(0.00012438041 -0.00071756912 6.0718258e-21)
(0.0001014253 -0.00071996907 1.4858915e-20)
(7.8623969e-05 -0.00072188655 -1.7407209e-21)
(5.5964884e-05 -0.0007233366 -7.9738222e-21)
(3.3427984e-05 -0.00072434363 -1.3862799e-20)
(1.1064861e-05 -0.00072493014 -2.224077e-20)
(0.001104632 0.0021836983 -7.5504072e-22)
(0.0011613301 0.0020903668 6.5864499e-20)
(0.0012117769 0.0019979598 -3.0292159e-20)
(0.0012563538 0.0019066709 -1.8061833e-19)
(0.0012954254 0.0018166678 -1.733045e-19)
(0.0013293393 0.0017280941 -4.2787832e-20)
(0.0013584264 0.0016410719 -4.7427045e-20)
(0.001383001 0.0015557043 5.6313436e-20)
(0.0014033618 0.0014720769 -7.5762983e-20)
(0.0014197913 0.0013902596 -4.738277e-20)
(0.0014325574 0.0013103085 2.148265e-20)
(0.0014419131 0.0012322673 8.8793309e-20)
(0.0014480975 0.0011561685 -4.116114e-20)
(0.0014513364 0.0010820348 -1.6230929e-19)
(0.0014518423 0.00100988 -7.6310282e-20)
(0.0014498157 0.00093971019 -1.6517594e-20)
(0.0014454454 0.00087152471 -1.7209365e-20)
(0.0014389087 0.00080531681 -1.8005815e-20)
(0.0014303726 0.00074107428 -7.6493697e-20)
(0.0014199939 0.00067878051 -3.0527681e-20)
(0.0014079196 0.00061841455 1.5692972e-20)
(0.0013942877 0.00055995225 -4.4849791e-21)
(0.0013792276 0.00050336654 -1.6694785e-20)
(0.0013628604 0.00044862746 -4.0160376e-20)
(0.0013452996 0.0003957031 -1.8402378e-20)
(0.0013266512 0.00034455977 2.1928274e-20)
(0.0013070146 0.00029516225 -3.915904e-21)
(0.0012864829 0.00024747393 3.2239208e-21)
(0.0012651423 0.0002014579 -8.0836141e-21)
(0.0012430727 0.00015707579 1.8542502e-20)
(0.0012203498 0.00011428966 4.5424193e-20)
(0.0011970451 7.3060252e-05 3.9682277e-20)
(0.0011732224 3.3348132e-05 2.7755968e-20)
(0.0011489437 -4.8855101e-06 -4.3521025e-21)
(0.0011242644 -4.1678839e-05 -6.7607723e-21)
(0.0010992346 -7.7070866e-05 2.4379995e-21)
(0.0010739044 -0.00011109944 2.8678735e-21)
(0.0010483183 -0.00014380227 1.2747803e-20)
(0.0010225175 -0.00017521663 -8.8477301e-21)
(0.00099654016 -0.00020537912 -2.8720551e-20)
(0.00097042141 -0.00023432543 -3.9324555e-22)
(0.00094419368 -0.00026209099 2.0923323e-20)
(0.00091788658 -0.00028870999 8.6366722e-21)
(0.00089152733 -0.0003142161 -2.0310057e-21)
(0.00086514088 -0.0003386423 -1.1743493e-22)
(0.00083874994 -0.00036202036 7.6509138e-21)
(0.00081237529 -0.00038438156 2.7147198e-20)
(0.00078603575 -0.0004057557 1.9147413e-20)
(0.00075974838 -0.00042617256 7.6860776e-21)
(0.00073352851 -0.00044566025 1.5537853e-20)
(0.00070739003 -0.00046424631 -9.7430986e-23)
(0.00068134542 -0.00048195735 -1.3463717e-20)
(0.00065540569 -0.00049881901 7.0917092e-21)
(0.00062958066 -0.00051485582 2.3005291e-20)
(0.00060387899 -0.00053009184 1.8497206e-20)
(0.00057830825 -0.00054454991 2.4002491e-20)
(0.00055287501 -0.00055825207 1.6447192e-20)
(0.00052758491 -0.00057121936 2.6073668e-20)
(0.00050244279 -0.00058347188 9.8245663e-21)
(0.0004774526 -0.00059502935 -3.9583743e-21)
(0.00045261754 -0.00060590998 8.0333792e-21)
(0.0004279402 -0.00061613152 -4.9551122e-21)
(0.00040342259 -0.00062571074 9.4613337e-21)
(0.00037906603 -0.00063466364 1.3894222e-20)
(0.00035487136 -0.00064300537 1.1539327e-20)
(0.00033083903 -0.00065075025 4.5435586e-21)
(0.00030696896 -0.0006579119 -3.0899044e-21)
(0.00028326071 -0.00066450286 7.0949612e-21)
(0.00025971358 -0.00067053544 1.9623026e-21)
(0.00023632644 -0.0006760207 6.0670955e-21)
(0.0002130979 -0.00068096909 1.0047457e-20)
(0.00019002635 -0.00068539038 3.3915016e-21)
(0.00016711 -0.00068929362 8.1063992e-21)
(0.00014434699 -0.00069268748 5.485299e-21)
(0.00012173512 -0.00069558 9.5776633e-21)
(9.9272717e-05 -0.00069797974 7.7530483e-21)
(7.6958149e-05 -0.00069989729 3.2404502e-21)
(5.4780698e-05 -0.00070134763 4.4408668e-21)
(3.2721293e-05 -0.00070235517 -2.7129191e-21)
(1.0831037e-05 -0.00070294224 -1.9215574e-20)
(0.0010137798 0.0021102148 5.4148495e-20)
(0.0010711464 0.002022681 1.7543389e-20)
(0.0011224742 0.0019357839 -8.3553823e-20)
(0.0011681174 0.0018497253 -1.0922721e-19)
(0.0012084157 0.0017646813 -7.8910472e-20)
(0.0012436942 0.0016808048 -6.9785577e-20)
(0.0012742636 0.0015982275 -1.0002638e-19)
(0.0013004199 0.001517062 -6.1259356e-20)
(0.0013224451 0.0014374038 -7.4385405e-20)
(0.0013406072 0.0013593326 -4.1070775e-20)
(0.0013551607 0.0012829141 3.3973301e-21)
(0.0013663466 0.0012082018 -4.0978804e-20)
(0.0013743936 0.0011352375 -1.6084012e-19)
(0.0013795178 0.0010640531 -1.3968031e-19)
(0.0013819235 0.00099467129 1.1039323e-20)
(0.0013818036 0.00092710695 -1.1140105e-20)
(0.0013793403 0.00086136776 -8.9928601e-20)
(0.0013747051 0.00079745508 -1.0309892e-19)
(0.0013680599 0.00073536446 -7.0408237e-20)
(0.0013595568 0.00067508683 -1.0955404e-22)
(0.0013493392 0.00061660866 1.3622018e-20)
(0.0013375414 0.00055991252 -3.6602779e-20)
(0.00132429 0.00050497789 -7.4322072e-20)
(0.0013097038 0.00045178136 -1.2405955e-20)
(0.001293894 0.00040029687 -1.4067213e-20)
(0.001276965 0.00035049654 2.9726765e-22)
(0.0012590144 0.000302351 -3.2815683e-20)
(0.0012401343 0.00025582895 -5.3342354e-20)
(0.0012204106 0.00021089752 -2.153831e-20)
(0.001199922 0.00016752327 1.8845349e-20)
(0.0011787434 0.00012567361 2.1304934e-20)
(0.0011569446 8.5313545e-05 -3.1765016e-20)
(0.001134591 4.6406936e-05 -3.6054222e-20)
(0.0011117449 8.9202185e-06 5.3055246e-21)
(0.0010884612 -2.7183536e-05 4.0665955e-21)
(0.0010647909 -6.1937639e-05 -2.9297374e-20)
(0.0010407835 -9.5377219e-05 -4.3576739e-20)
(0.0010164842 -0.00012753688 -1.908338e-20)
(0.00099193465 -0.00015845097 -1.0842942e-20)
(0.00096717365 -0.00018815329 -1.8407593e-20)
(0.00094223696 -0.00021667698 1.1447967e-20)
(0.0009171576 -0.00024405485 -9.0599262e-21)
(0.00089196591 -0.00027031867 -1.233731e-20)
(0.0008666899 -0.00029550005 2.5609538e-21)
(0.00084135527 -0.00031962967 -4.8088092e-21)
(0.00081598559 -0.00034273742 -4.1488523e-21)
(0.00079060235 -0.00036485257 -7.1772993e-21)
(0.00076522524 -0.00038600333 -1.481175e-20)
(0.00073987227 -0.00040621768 7.2693729e-21)
(0.00071455962 -0.00042552209 3.001745e-20)
(0.000689302 -0.00044394285 1.1173625e-20)
(0.0006641128 -0.00046150504 -2.6704532e-20)
(0.00063900387 -0.00047823289 -1.9993675e-20)
(0.00061398588 -0.00049414996 1.0145792e-21)
(0.00058906842 -0.00050927886 7.9700788e-21)
(0.0005642599 -0.0005236416 1.7762282e-20)
(0.00053956778 -0.00053725906 1.4085872e-21)
(0.00051499858 -0.00055015148 8.8779818e-21)
(0.00049055796 -0.00056233789 -1.2288251e-22)
(0.00046625067 -0.00057383734 -4.1806485e-21)
(0.00044208081 -0.00058466713 9.7950344e-21)
(0.00041805178 -0.00059484437 -1.1939403e-20)
(0.00039416634 -0.00060438524 3.2322213e-21)
(0.00037042672 -0.000613305 4.1559808e-21)
(0.00034683454 -0.00062161823 2.6958322e-21)
(0.00032339089 -0.00062933882 4.5016515e-22)
(0.00030009654 -0.00063647981 -1.1642433e-20)
(0.0002769519 -0.00064305343 -1.4454977e-21)
(0.00025395694 -0.00064907145 -1.3507866e-21)
(0.00023111123 -0.00065454456 6.4257664e-22)
(0.00020841415 -0.00065948292 2.2676507e-21)
(0.00018586484 -0.000663896 -4.3627442e-21)
(0.00016346225 -0.00066779269 1.4751689e-21)
(0.00014120503 -0.00067118127 -3.5225489e-21)
(0.00011909181 -0.00067406963 -3.0899585e-21)
(9.7121651e-05 -0.00067646627 -3.6930498e-21)
(7.5293421e-05 -0.00067838143 -7.8329065e-22)
(5.3597277e-05 -0.00067983029 -2.818859e-21)
(3.2015115e-05 -0.00068083708 -8.1030798e-21)
(1.0597404e-05 -0.00068142399 -1.1858122e-20)
(0.0009287501 0.0020374213 1.5025201e-19)
(0.00098650702 0.0019554345 -3.9250252e-21)
(0.0010384443 0.0018738227 -6.1595839e-20)
(0.0010848894 0.0017927936 -3.0981384e-20)
(0.001126158 0.0017125301 2.6698595e-21)
(0.0011625533 0.0016331923 -8.1729656e-20)
(0.0011943658 0.0015549196 -1.3554673e-19)
(0.0012218736 0.0014778328 -7.3517972e-20)
(0.0012453422 0.0014020356 -7.1827637e-21)
(0.0012650249 0.0013276162 -4.9102568e-20)
(0.0012811627 0.0012546488 -7.1427672e-20)
(0.0012939849 0.0011831951 -7.9396359e-20)
(0.0013037091 0.0011133053 -1.3511312e-20)
(0.0013105421 0.0010450196 7.7023414e-21)
(0.0013146793 0.00097836867 -7.8133512e-21)
(0.001316306 0.0009133753 -3.2921376e-20)
(0.0013155976 0.00085005475 -3.3853301e-20)
(0.0013127195 0.00078841582 2.4622721e-20)
(0.001307828 0.00072846126 -1.000947e-20)
(0.0013010706 0.00067018894 1.7402346e-21)
(0.0012925863 0.00061359197 -3.4142462e-20)
(0.0012825062 0.00055865944 -4.0564837e-20)
(0.0012709534 0.00050537692 2.0808382e-21)
(0.0012580439 0.00045372703 1.151595e-20)
(0.0012438866 0.00040368932 -5.4038407e-21)
(0.001228584 0.00035524138 -3.3353984e-20)
(0.0012122322 0.00030835891 -4.5893975e-20)
(0.0011949208 0.0002630158 -3.7558709e-21)
(0.0011767341 0.00021918402 8.7475344e-21)
(0.0011577519 0.00017683413 1.759704e-20)
(0.0011380483 0.00013593793 2.9484599e-20)
(0.0011176918 9.646447e-05 -1.4242867e-20)
(0.0010967474 5.838317e-05 -1.6080018e-20)
(0.0010752759 2.1663045e-05 1.6086551e-20)
(0.0010533336 -1.3730201e-05 6.4354841e-21)
(0.0010309722 -4.7825288e-05 -1.422727e-21)
(0.0010082401 -8.0654836e-05 -2.4904841e-20)
(0.0009851831 -0.00011225026 -7.8578977e-21)
(0.00096184331 -0.00014264294 -9.4227283e-21)
(0.00093825978 -0.00017186398 3.5855435e-21)
(0.00091446878 -0.00019994403 1.5569126e-20)
(0.00089050387 -0.00022691327 -1.6492841e-21)
(0.000866396 -0.00025280131 1.8900137e-20)
(0.00084217377 -0.0002776375 4.0528108e-21)
(0.00081786351 -0.00030145046 5.0496838e-21)
(0.00079348954 -0.00032426821 4.7686538e-21)
(0.00076907405 -0.00034611798 -7.0724145e-21)
(0.00074463742 -0.0003670265 -9.1044703e-21)
(0.0007201984 -0.00038701989 -2.9765917e-21)
(0.00069577406 -0.00040612325 3.690945e-20)
(0.00067137995 -0.00042436126 2.7468078e-20)
(0.00064703 -0.00044175767 -3.2564826e-21)
(0.00062273692 -0.00045833538 4.5023224e-21)
(0.00059851235 -0.00047411686 3.5256815e-21)
(0.00057436661 -0.00048912353 5.8970514e-21)
(0.00055030894 -0.00050337626 6.2254143e-21)
(0.00052634753 -0.00051689501 -1.3878415e-21)
(0.00050248958 -0.00052969898 1.2690587e-20)
(0.00047874164 -0.00054180652 -1.9418251e-21)
(0.00045510934 -0.00055323557 -3.6305999e-22)
(0.00043159745 -0.00056400288 8.9288588e-21)
(0.0004082102 -0.00057412477 -5.263671e-21)
(0.00038495115 -0.0005836168 1.5268066e-20)
(0.00036182312 -0.00059249351 1.4649441e-20)
(0.00033882853 -0.00060076902 2.1309142e-21)
(0.00031596937 -0.00060845664 -4.9511815e-21)
(0.00029324711 -0.00061556892 -1.019968e-20)
(0.00027066273 -0.0006221177 7.8054514e-21)
(0.00024821691 -0.00062811424 4.1271214e-21)
(0.00022591005 -0.00063356895 1.7393687e-21)
(0.00020374222 -0.00063849158 2.5678991e-21)
(0.0001817132 -0.00064289139 1.8300154e-21)
(0.00015982258 -0.00064677696 7.1137458e-21)
(0.00013806969 -0.00065015626 8.9481688e-21)
(0.00011645379 -0.00065303708 -2.4078594e-21)
(9.4974582e-05 -0.00065542777 -3.6319715e-21)
(7.3631624e-05 -0.00065733834 7.3918675e-21)
(5.2415859e-05 -0.00065878399 5.1629217e-21)
(3.1310032e-05 -0.00065978885 -1.28816e-20)
(1.0364086e-05 -0.00066037484 -1.1713525e-20)
(0.0008492772 0.0019655139 3.0485455e-19)
(0.00090717303 0.0018888225 1.6605954e-19)
(0.00095947264 0.0018122695 -7.6673605e-20)
(0.0010064781 0.0017360664 7.286501e-20)
(0.0010484815 0.001660401 1.1878934e-19)
(0.0010857645 0.001585439 6.8685418e-20)
(0.0011185984 0.001511326 4.3606687e-20)
(0.0011472433 0.0014381893 2.3780198e-20)
(0.0011719486 0.0013661396 9.6593619e-20)
(0.001192953 0.001295272 3.6886369e-20)
(0.0012104842 0.0012256681 5.2002842e-20)
(0.0012247594 0.0011573968 9.4993136e-20)
(0.0012359857 0.0010905158 6.5636381e-20)
(0.0012443598 0.0010250722 5.7654792e-20)
(0.0012500684 0.0009611043 1.9180315e-20)
(0.0012532891 0.00089864168 5.4695349e-20)
(0.00125419 0.00083770653 1.282403e-19)
(0.0012529303 0.00077831441 4.9330649e-20)
(0.0012496607 0.00072047464 -2.5242453e-20)
(0.0012445238 0.00066419154 2.0756314e-20)
(0.0012376542 0.00060946414 2.6518628e-21)
(0.0012291789 0.00055628771 2.7009799e-20)
(0.0012192177 0.00050465363 4.2506275e-20)
(0.0012078836 0.00045454978 -1.4468645e-21)
(0.0011952828 0.00040596131 1.8429858e-20)
(0.0011815156 0.00035887071 -6.3026005e-22)
(0.001166676 0.00031325839 1.3925697e-20)
(0.0011508525 0.00026910286 3.8441106e-21)
(0.0011341277 0.00022638153 -5.3963388e-22)
(0.0011165801 0.00018506975 1.0116771e-20)
(0.001098283 0.00014514168 -1.7448029e-21)
(0.0010793043 0.00010657052 2.9981463e-20)
(0.0010597087 6.9330346e-05 5.1383578e-20)
(0.0010395551 3.3392466e-05 3.1479895e-20)
(0.0010189008 -1.2717834e-06 1.1853404e-20)
(0.00099779816 -3.4690225e-05 3.4552443e-21)
(0.00097629411 -6.6891503e-05 1.0566441e-20)
(0.00095443515 -9.7904085e-05 3.5223222e-20)
(0.00093226356 -0.00012775657 2.2566081e-21)
(0.00090981869 -0.00015647741 1.3594956e-20)
(0.000887137 -0.00018409488 1.0681972e-20)
(0.00086425245 -0.00021063659 1.544387e-22)
(0.00084119656 -0.00023613016 2.7967266e-20)
(0.00081799837 -0.00026060252 1.4221122e-20)
(0.00079468475 -0.00028408047 4.8655291e-22)
(0.00077128058 -0.00030659009 -7.9787535e-22)
(0.00074780876 -0.00032815679 1.4406105e-20)
(0.00072429031 -0.00034880561 3.0436215e-20)
(0.00070074448 -0.00036856102 -3.9039667e-21)
(0.00067718914 -0.00038744676 1.1025748e-20)
(0.00065364046 -0.00040548581 8.1612763e-21)
(0.00063011314 -0.00042270066 -2.3178361e-21)
(0.00060662071 -0.00043911307 3.0205093e-20)
(0.0005831754 -0.00045474419 9.2208349e-21)
(0.0005597883 -0.0004696144 8.8761516e-21)
(0.00053646932 -0.00048374339 6.4447398e-21)
(0.0005132274 -0.00049715019 1.6003902e-21)
(0.00049007057 -0.00050985304 2.1028362e-20)
(0.00046700605 -0.00052186956 -3.7746315e-21)
(0.00044404018 -0.00053321666 -4.8862208e-21)
(0.00042117852 -0.00054391047 4.0496653e-21)
(0.00039842594 -0.00055396664 -9.9022715e-21)
(0.0003757867 -0.00056339984 1.6675632e-20)
(0.00035326448 -0.0005722242 1.3720187e-20)
(0.00033086234 -0.00058045319 5.0426233e-21)
(0.00030858288 -0.00058809965 2.1096411e-21)
(0.00028642824 -0.00059517555 -9.1940191e-21)
(0.00026440018 -0.00060169241 1.5411628e-20)
(0.00024250009 -0.00060766093 4.5617335e-21)
(0.00022072893 -0.00061309127 -2.5368537e-21)
(0.00019908747 -0.00061799277 3.6204798e-21)
(0.00017757615 -0.00062237444 3.1585154e-21)
(0.00015619513 -0.00062624449 1.0492429e-20)
(0.00013494444 -0.00062961078 1.2992251e-20)
(0.00011382401 -0.0006324809 1.4425063e-20)
(9.2834049e-05 -0.00063486286 7.0363707e-21)
(7.1974763e-05 -0.00063676676 -3.3452989e-21)
(5.1237874e-05 -0.00063820762 -9.9405503e-22)
(3.0607006e-05 -0.00063920937 -1.9830205e-20)
(1.0131474e-05 -0.00063979377 -2.5232919e-20)
(0.00077509616 0.0018946647 1.5541294e-19)
(0.00083290487 0.0018230182 2.5697979e-19)
(0.00088534329 0.0017512971 -3.2812921e-20)
(0.00093268898 0.001679715 -3.1544271e-20)
(0.00097521145 0.0016084633 5.38044e-20)
(0.0010131718 0.0015377113 1.3690494e-19)
(0.001046822 0.0014676095 1.3403317e-19)
(0.0010764052 0.0013982904 6.1314766e-21)
(0.0011021549 0.0013298701 -3.5877484e-20)
(0.0011242951 0.0012624497 4.0144243e-20)
(0.0011430407 0.001196117 1.1934971e-19)
(0.0011585968 0.0011309471 1.2376455e-19)
(0.0011711596 0.0010670039 2.0789665e-20)
(0.001180916 0.0010043411 1.7961728e-20)
(0.0011880441 0.0009430031 1.5974572e-20)
(0.0011927133 0.00088302588 7.3364241e-20)
(0.0011950847 0.00082443793 1.0349059e-19)
(0.0011953109 0.00076726073 -2.9483439e-21)
(0.0011935371 0.0007115097 2.1772856e-21)
(0.0011899004 0.00065719483 7.7435232e-21)
(0.0011845309 0.00060432092 2.0589903e-20)
(0.0011775515 0.00055288869 4.2326523e-20)
(0.0011690785 0.00050289495 9.5757332e-22)
(0.0011592216 0.0004543325 -1.9769635e-20)
(0.0011480843 0.0004071917 2.7092574e-20)
(0.0011357643 0.00036145969 2.6256169e-20)
(0.0011223535 0.00031712161 3.6315351e-21)
(0.0011079389 0.0002741603 -7.1913702e-21)
(0.0010926015 0.000232557 9.7422433e-21)
(0.0010764178 0.00019229159 -1.1497847e-20)
(0.0010594598 0.00015334239 -7.59083e-21)
(0.001041796 0.0001156864 6.4636517e-20)
(0.0010234896 7.9299056e-05 5.8019817e-20)
(0.0010045984 4.4157265e-05 3.6981764e-22)
(0.00098517962 1.0237024e-05 -1.0012982e-20)
(0.00096528528 -2.2489742e-05 -2.0718143e-21)
(0.0009449627 -5.4046847e-05 4.8942508e-20)
(0.00092425782 -8.4460346e-05 4.6145442e-20)
(0.00090321311 -0.0001137561 -2.5494799e-20)
(0.00088186802 -0.00014195999 -3.8417867e-20)
(0.00086025925 -0.00016909793 3.0741769e-21)
(0.00083842106 -0.00019519526 4.639126e-20)
(0.00081638524 -0.00022027735 2.0432423e-20)
(0.0007941812 -0.00024436912 -4.9554564e-21)
(0.00077183634 -0.00026749539 -1.2079571e-20)
(0.00074937594 -0.00028968038 3.875075e-22)
(0.00072682338 -0.00031094773 2.8596649e-20)
(0.00070420031 -0.00033132088 2.6945969e-20)
(0.00068152661 -0.00035082265 1.2682891e-21)
(0.00065882055 -0.00036947532 -6.3980962e-21)
(0.00063609899 -0.00038730042 -1.2329036e-20)
(0.00061337732 -0.00040431918 -1.3673501e-21)
(0.00059066968 -0.00042055213 1.9930568e-20)
(0.00056798897 -0.00043601918 2.454227e-21)
(0.00054534686 -0.00045073957 -4.3907959e-21)
(0.00052275402 -0.000464732 1.2383607e-20)
(0.00050022009 -0.00047801448 1.2910619e-20)
(0.00047775371 -0.00049060437 1.9216321e-20)
(0.00045536277 -0.00050251846 -8.010089e-21)
(0.0004330543 -0.00051377281 -1.5457707e-20)
(0.0004108345 -0.00052438273 -1.0819853e-21)
(0.00038870894 -0.00053436324 -1.3957621e-20)
(0.00036668257 -0.00054372833 7.9492312e-22)
(0.00034475973 -0.00055249158 5.0317147e-21)
(0.00032294414 -0.00056066575 -4.3557953e-21)
(0.00030123901 -0.00056826324 3.5791638e-21)
(0.00027964717 -0.00057529551 -7.6196392e-21)
(0.00025817098 -0.0005817737 6.4230838e-21)
(0.00023681243 -0.00058770809 1.0179806e-20)
(0.00021557324 -0.00059310836 3.4597308e-22)
(0.00019445476 -0.00059798358 1.0028305e-20)
(0.00017345805 -0.00060234252 7.9424075e-21)
(0.00015258386 -0.00060619296 7.4302336e-21)
(0.00013183281 -0.0006095427 4.9717719e-21)
(0.00011120539 -0.000612399 8.056539e-21)
(9.0702461e-05 -0.00061476975 6.3397664e-21)
(7.0324771e-05 -0.00061666491 -4.1072331e-21)
(5.006468e-05 -0.00061809943 -6.9321436e-21)
(2.9906745e-05 -0.00061909692 -1.8995843e-20)
(9.8997572e-06 -0.00061967917 -2.677374e-20)
(0.00070594461 0.0018250235 2.2240075e-20)
(0.00076346411 0.0017581738 1.199703e-19)
(0.00081584009 0.0016910589 -3.1877571e-20)
(0.00086332667 0.0016238932 -2.2582438e-19)
(0.00090617178 0.0015568696 -9.6325892e-20)
(0.00094461653 0.0014901603 1.8694418e-20)
(0.00097889469 0.0014239188 -5.7662068e-21)
(0.0010092324 0.0013582817 -8.6313185e-21)
(0.0010358478 0.0012933695 -1.4869221e-19)
(0.0010589507 0.0012292882 -3.0928068e-20)
(0.0010787431 0.0011661304 5.6843505e-20)
(0.0010954184 0.0011039766 5.9792891e-20)
(0.0011091619 0.0010428961 -2.4277741e-20)
(0.001120151 0.00098294811 -1.2580456e-19)
(0.0011285547 0.00092418266 -3.1367303e-20)
(0.0011345346 0.00086664114 5.2894017e-20)
(0.0011382443 0.00081035767 2.1171604e-20)
(0.0011398302 0.00075535914 -6.2155879e-20)
(0.0011394312 0.00070166641 -7.8584268e-20)
(0.0011371795 0.00064929461 -2.9111474e-20)
(0.0011332003 0.00059825391 3.6955098e-20)
(0.0011276121 0.00054854992 1.9268225e-20)
(0.0011205275 0.0005001843 -2.5659284e-20)
(0.0011120531 0.00045315479 -3.4959838e-20)
(0.0011022893 0.00040745615 5.6253627e-21)
(0.001091331 0.00036308024 4.0374025e-20)
(0.0010792681 0.00032001632 -1.0662742e-21)
(0.0010661849 0.00027825154 -2.1241901e-20)
(0.0010521614 0.00023777085 -3.1991542e-20)
(0.001037273 0.00019855771 -9.1752895e-21)
(0.0010215898 0.00016059465 3.510696e-20)
(0.0010051777 0.00012386279 3.0126229e-20)
(0.00098810103 8.834047e-05 2.0463637e-20)
(0.00097041864 5.4006266e-05 -1.0306189e-20)
(0.00095218335 2.0839533e-05 -5.2436352e-21)
(0.00093344789 -1.1182047e-05 1.7402545e-21)
(0.00091426074 -4.2081135e-05 1.7221172e-20)
(0.00089466642 -7.188152e-05 8.753033e-21)
(0.00087470764 -0.00010060615 -2.1432838e-20)
(0.00085442383 -0.00012827842 -3.7726804e-20)
(0.00083385185 -0.00015492185 -7.5333288e-21)
(0.00081302597 -0.00018055974 2.3269512e-20)
(0.00079197815 -0.00020521521 3.2312955e-21)
(0.00077073835 -0.00022891132 -1.3140309e-22)
(0.00074933416 -0.00025167083 1.5003494e-21)
(0.00072779119 -0.00027351619 1.2961641e-20)
(0.00070613333 -0.00029446944 1.857917e-20)
(0.00068438265 -0.00031455227 -7.180626e-21)
(0.0006625595 -0.000333786 1.8922411e-21)
(0.00064068271 -0.0003521915 1.0838946e-20)
(0.00061876964 -0.00036978888 4.8946223e-21)
(0.00059683623 -0.00038659803 -7.4525306e-21)
(0.00057489717 -0.00040263836 -4.5666748e-21)
(0.00055296596 -0.0004179286 2.6894074e-21)
(0.00053105488 -0.00043248681 -5.1572158e-22)
(0.00050917521 -0.00044633081 1.9114175e-20)
(0.00048733722 -0.00045947744 1.394478e-20)
(0.00046555015 -0.00047194326 1.474959e-20)
(0.00044382249 -0.00048374427 -2.9982689e-21)
(0.0004221618 -0.00049489562 -6.0450511e-21)
(0.00040057509 -0.00050541198 1.2274203e-20)
(0.00037906851 -0.00051530756 -1.4452854e-20)
(0.00035764752 -0.00052459578 -1.5819084e-20)
(0.00033631709 -0.00053328959 4.3722706e-21)
(0.00031508159 -0.00054140117 6.0002252e-21)
(0.00029394493 -0.00054894235 8.229284e-21)
(0.00027291052 -0.00055592422 -8.8389923e-21)
(0.00025198132 -0.00056235735 -8.4963134e-21)
(0.00023115987 -0.00056825172 1.0468592e-20)
(0.00021044843 -0.00057361658 1.2533273e-20)
(0.00018984899 -0.00057846074 1.6558973e-20)
(0.00016936321 -0.00058279252 9.3033355e-21)
(0.00014899247 -0.00058661955 -2.0913307e-21)
(0.00012873795 -0.00058994933 4.9998746e-21)
(0.00010860066 -0.00059278887 -2.6357198e-22)
(8.858196e-05 -0.00059514606 -3.4259028e-21)
(6.8683181e-05 -0.00059703056 2.2061695e-21)
(4.8897398e-05 -0.00059845715 -1.3670557e-22)
(2.9210013e-05 -0.00059944945 -7.1176761e-21)
(9.6692018e-06 -0.00060002891 -2.0316672e-20)
(0.00064156405 0.0017567194 8.2723946e-21)
(0.0006986147 0.0016944221 -1.3320683e-19)
(0.00075074799 0.00163169 -2.8671854e-20)
(0.0007981958 0.0015687372 -2.8722299e-20)
(0.00084118537 0.0015057566 -2.213149e-21)
(0.0008799387 0.0014429218 -8.6695462e-21)
(0.00091467199 0.0013803886 -1.9824846e-19)
(0.00094559501 0.0013182962 -3.2801985e-20)
(0.00097291083 0.0012567685 -1.5418488e-20)
(0.00099681576 0.0011959152 -5.7374074e-21)
(0.0010174989 0.001135833 2.3687683e-20)
(0.0010351422 0.0010766067 -1.2276925e-19)
(0.0010499204 0.0010183103 -6.1900381e-20)
(0.0010620011 0.00096100762 -1.3138685e-20)
(0.0010715447 0.00090475343 6.1493864e-20)
(0.0010787046 0.00084959414 8.3294168e-21)
(0.0010836273 0.00079556853 -1.5690243e-19)
(0.0010864525 0.00074270849 -5.9958561e-20)
(0.0010873133 0.00069103969 1.759685e-21)
(0.0010863363 0.00064058208 2.4772148e-20)
(0.0010836419 0.00059135042 9.221455e-21)
(0.0010793445 0.00054335495 -9.7576284e-20)
(0.0010735526 0.0004966017 -3.2344335e-20)
(0.0010663692 0.00045109298 3.4238564e-20)
(0.0010578917 0.00040682768 4.9565306e-22)
(0.0010482123 0.00036380189 -1.5152575e-20)
(0.0010374184 0.00032200868 -8.8190741e-20)
(0.0010255923 0.00028143915 -2.7366608e-20)
(0.0010128118 0.00024208241 -1.7429938e-21)
(0.00099915072 0.00020392509 2.0480701e-22)
(0.00098467853 0.00016695274 9.7403374e-21)
(0.00096946014 0.00013114996 -7.9534932e-20)
(0.00095355569 9.6500298e-05 -3.5621701e-20)
(0.00093702391 6.2983525e-05 2.4048516e-20)
(0.00091992167 3.058208e-05 -3.6814958e-21)
(0.00090229889 -7.2428725e-07 -3.0436206e-20)
(0.00088420126 -3.0955042e-05 -7.0858146e-20)
(0.0008656743 -6.0130566e-05 -2.0031755e-20)
(0.00084676076 -8.8271746e-05 2.5802539e-21)
(0.00082749992 -0.00011539971 -3.3173662e-20)
(0.0008079286 -0.00014153565 -1.3310092e-20)
(0.00078808112 -0.00016670077 -5.4395664e-20)
(0.00076798961 -0.00019091621 -2.0468766e-20)
(0.00074768407 -0.00021420315 1.4765507e-20)
(0.00072719241 -0.00023658239 -1.3779801e-20)
(0.00070654054 -0.00025807465 -1.6712154e-20)
(0.00068575262 -0.00027870038 -4.0937189e-20)
(0.00066485115 -0.00029847963 -2.8528542e-20)
(0.00064385692 -0.00031743223 7.2870207e-21)
(0.0006227891 -0.00033557764 4.9206636e-21)
(0.0006016655 -0.0003529346 1.9578262e-21)
(0.0005805026 -0.0003695218 -3.2197105e-20)
(0.00055931561 -0.00038535741 -2.4247882e-20)
(0.00053811851 -0.00040045902 2.9596092e-22)
(0.00051692413 -0.00041484364 -9.0866044e-21)
(0.00049574426 -0.00042852806 -7.223904e-21)
(0.00047458972 -0.00044152817 -2.7994762e-20)
(0.00045347038 -0.00045385962 -6.1502025e-21)
(0.00043239523 -0.0004655376 -1.3447828e-21)
(0.00041137249 -0.00047657645 -1.2994438e-20)
(0.00039040959 -0.00048699017 -3.7009211e-21)
(0.00036951328 -0.00049679215 -3.4199129e-20)
(0.00034868971 -0.00050599527 -1.8692907e-20)
(0.00032794438 -0.00051461184 -7.567137e-21)
(0.00030728224 -0.00052265351 -9.0540479e-21)
(0.00028670776 -0.00053013153 -9.0479065e-21)
(0.00026622487 -0.00053705656 -2.3174497e-20)
(0.00024583712 -0.0005434387 -1.3091797e-20)
(0.00022554767 -0.00054928748 -1.3453865e-21)
(0.00020535933 -0.00055461193 -4.9481157e-21)
(0.00018527466 -0.00055942044 -4.7348133e-21)
(0.00016529578 -0.00056372089 -1.205902e-20)
(0.00014542464 -0.00056752091 -1.3383278e-20)
(0.00012566302 -0.00057082747 -1.0346872e-20)
(0.00010601241 -0.00057364757 -1.1862614e-20)
(8.6474739e-05 -0.00057598885 -1.1331373e-20)
(6.7051764e-05 -0.00057786094 -5.9126338e-21)
(4.7737298e-05 -0.00057927819 -6.9098254e-21)
(2.8517596e-05 -0.0005802643 -7.8761213e-21)
(9.4400933e-06 -0.00058084039 -1.5713834e-20)
(0.00058170117 0.001689862 2.1388396e-19)
(0.00063812452 0.0016318776 -3.32048e-20)
(0.00068985468 0.0015733086 -1.3283277e-19)
(0.00073710248 0.0015143673 -9.9339265e-20)
(0.0007800756 0.0014552457 -8.8566313e-20)
(0.00081897787 0.0013961179 -5.5996491e-20)
(0.00085400845 0.0013371406 -1.3939474e-19)
(0.00088536146 0.0012784546 -7.6942533e-20)
(0.0009132256 0.0012201862 -3.9756225e-20)
(0.0009377837 0.001162448 -9.124751e-20)
(0.00095921259 0.0011053398 -2.3081772e-20)
(0.00097768292 0.0010489499 -5.3896205e-20)
(0.00099335905 0.00099335609 2.0284757e-21)
(0.0010063991 0.00093862614 -2.9305255e-21)
(0.0010169547 0.00088481885 -5.063278e-20)
(0.0010251715 0.00083198487 -3.5993569e-20)
(0.0010311884 0.00078016726 -2.6335275e-20)
(0.0010351389 0.00072940217 4.0358336e-20)
(0.0010371498 0.00067971963 -1.5272149e-20)