/*--------------------------------*- C++ -*----------------------------------*\
| =========                 |                                                 |
| \\      /  F ield         | OpenFOAM: The Open Source CFD Toolbox           |
|  \\    /   O peration     | Version:  2106                                  |
|   \\  /    A nd           | Website:  www.openfoam.com                      |
|    \\/     M anipulation  |                                                 |
\*---------------------------------------------------------------------------*/
FoamFile
{
    version     2.0;
    format      ascii;
    arch        "LSB;label=32;scalar=64";
    class       surfaceScalarField;
    location    "0.043";
    object      phi;
}
// * * * * * * * * * * * * * * * * * * * * * * * * * * * * * * * * * * * * * //

dimensions      [0 3 -1 0 0 0 0];

oriented        oriented;

internalField   nonuniform List<scalar> 
1984
(
0.00019087057
-0.0001908708
0.0003744398
-0.00018356923
0.00054368157
-0.00016924177
0.00069211145
-0.00014842989
0.00081403278
-0.00012192132
0.00090475431
-9.0721533e-05
0.00096077126
-5.601695e-05
0.0009799026
-1.9131335e-05
0.00096137915
1.8523447e-05
0.00090587802
5.5501134e-05
0.00081550021
9.0377806e-05
0.00069369922
0.00012180099
0.0005451481
0.00014855111
0.00037556209
0.00016958601
0.00019147804
0.00018408404
1.6896514e-10
0.00019147787
-0.00019147767
0.00019147784
-0.00037556165
0.00018408398
-0.00054514758
0.00016958593
-0.00069369863
0.00014855105
-0.0008154996
0.00012180097
-0.00090587745
9.0377849e-05
-0.0009613787
5.5501245e-05
-0.00097990231
1.8523613e-05
-0.00096077117
-1.9131142e-05
-0.00090475441
-5.6016761e-05
-0.00081403303
-9.0721376e-05
-0.00069211182
-0.00012192121
-0.00054368199
-0.00014842982
-0.00037444025
-0.00016924174
-0.00019087103
-0.00018356922
-0.0001908708
0.00020073083
-0.00039160183
0.00039378362
-0.00037662202
0.00057176982
-0.00034722797
0.00072787044
-0.0003045305
0.00085609475
-0.00025014563
0.00095150922
-0.000186136
0.0010104278
-0.00011493548
0.0010305559
-3.9259504e-05
0.0010110833
3.799603e-05
0.00095272004
0.00011386443
0.00085767661
0.00018542123
0.00072958223
0.00024989537
0.00057335091
0.00030478243
0.00039499351
0.00034794341
0.00020138565
0.00037769191
1.1634767e-10
0.00039286341
-0.00020138538
0.00039286334
-0.00039499315
0.00037769175
-0.00057335044
0.00034794321
-0.00072958165
0.00030478226
-0.00085767598
0.0002498953
-0.00095271943
0.0001854213
-0.0010110828
0.00011386466
-0.0010305556
3.7996374e-05
-0.0010104276
-3.92591e-05
-0.00095150931
-0.00011493509
-0.00085609501
-0.00018613568
-0.0007278708
-0.00025014542
-0.00057177023
-0.00030453039
-0.00039378403
-0.00034722794
-0.00020073123
-0.00037662202
-0.00039160183
0.000217859
-0.00060946102
0.00042738399
-0.00058614701
0.00062055551
-0.00054039949
0.00078997268
-0.00047394767
0.00092913414
-0.00038930709
0.0010326864
-0.00028968824
0.0010966299
-0.00017887904
0.0011184755
-6.1105051e-05
0.0010973436
5.9127925e-05
0.0010340046
0.00017720345
0.00093085602
0.00028856977
0.00079183581
0.00038891558
0.0006222762
0.00047434204
0.00042870056
0.00054151905
0.00021857146
0.00058782101
6.1392091e-11
0.0006114348
-0.00021857128
0.00061143468
-0.00042870024
0.00058782071
-0.0006222757
0.00054151867
-0.00079183513
0.0004743417
-0.00093085525
0.00038891541
-0.0010340038
0.00028856986
-0.001097343
0.00017720381
-0.0011184751
5.9128502e-05
-0.0010966298
-6.1104368e-05
-0.0010326865
-0.00017887838
-0.00092913449
-0.00028968772
-0.00078997314
-0.00038930676
-0.000620556
-0.00047394754
-0.00042738445
-0.00054039949
-0.00021785941
-0.00058614706
-0.00060946105
0.00024321872
-0.00085267992
0.00047713084
-0.00082005914
0.00069278174
-0.00075605039
0.00088190862
-0.00066307455
0.0010372544
-0.00054465288
0.0011528449
-0.00040527877
0.0012242184
-0.00025025248
0.0012485986
-8.5485264e-05
0.0012250055
8.2721043e-05
0.0011542988
0.00024791014
0.0010391531
0.00040371545
0.00088396263
0.00054410607
0.00069467832
0.00066362635
0.00047858171
0.00075761566
0.00024400369
0.00082239903
-3.9365315e-11
0.00085543853
-0.00024400368
0.00085543832
-0.00047858146
0.0008223985
-0.00069467777
0.00075761497
-0.00088396178
0.00066362572
-0.0010391521
0.00054410572
-0.0011542978
0.00040371553
-0.0012250046
0.00024791069
-0.0012485981
8.2721962e-05
-0.0012242183
-8.5484171e-05
-0.0011528452
-0.00025025145
-0.001037255
-0.00040527799
-0.00088190927
-0.00054465245
-0.00069278237
-0.00066307444
-0.00047713137
-0.00075605049
-0.00024321914
-0.00082005929
-0.00085268
0.00027814508
-0.0011308251
0.00054564231
-0.0010875564
0.00079224796
-0.001002656
0.0010085119
-0.00087933845
0.0011861369
-0.00072227796
0.001318296
-0.0005374378
0.0013998927
-0.0003318492
0.0014277581
-0.00011335071
0.0014007748
0.0001097044
0.001319925
0.00032875985
0.0011882639
0.00053537657
0.0010108121
0.00072155789
0.00079437122
0.00088006724
0.00054726608
0.0010047208
0.0002790233
0.0010906418
-2.2945891e-10
0.0011344621
-0.00027902361
0.0011344617
-0.000547266
0.0010906409
-0.00079437061
0.0010047196
-0.001010811
0.0008800661
-0.0011882625
0.00072155721
-0.0013199235
0.0005353766
-0.0014007735
0.00032876067
-0.0014277574
0.00010970585
-0.0013998926
-0.00011334898
-0.0013182965
-0.0003318476
-0.0011861378
-0.00053743665
-0.0010085128
-0.00072227743
-0.00079224881
-0.00087933846
-0.00054564292
-0.0010026564
-0.00027814547
-0.0010875567
-0.0011308253
0.00032504895
-0.0014558741
0.00063764619
-0.0014001536
0.00092581512
-0.001290825
0.0011785107
-0.001132034
0.0013860403
-0.00092980763
0.0015404342
-0.00069183169
0.0016357479
-0.00042716284
0.0016682882
-0.00014589102
0.0016367547
0.00014123784
0.0015422934
0.00042322121
0.0013884668
0.00068920314
0.0011811336
0.00092889108
0.00092823513
0.0011329657
0.00063949604
0.0012934599
0.00032604894
0.0014040889
-5.6550328e-10
0.0014605116
-0.00032604982
0.001460511
-0.00063949626
0.0014040873
-0.00092823445
0.0012934578
-0.0011811321
0.0011329637
-0.0013884647
0.00092888981
-0.0015422911
0.00068920304
-0.0016367529
0.00042322243
-0.0016682872
0.00014124013
-0.0016357479
-0.00014588827
-0.0015404351
-0.00042716034
-0.0013860418
-0.00069183002
-0.0011785122
-0.00092980704
-0.0009258163
-0.0011320343
-0.00063764686
-0.0012908258
-0.00032504919
-0.0014001544
-0.0014558745
0.00038836272
-0.0018442366
0.0007618347
-0.0017736256
0.0011060978
-0.0016350881
0.0014079534
-0.0014338895
0.001655827
-0.0011776812
0.0018402107
-0.00087621541
0.0019540208
-0.00054097293
0.0019928622
-0.00018473244
0.0019551907
0.00017890931
0.0018423703
0.00053604168
0.0016586441
0.00087292932
0.0014109966
0.0011765386
0.0011089036
0.0014350587
0.00076397802
0.0016383855
0.00038952046
0.0017785465
-1.127125e-09
0.0018500331
-0.00038952229
0.0018500321
-0.00076397875
0.0017785438
-0.0011089029
0.0016383819
-0.0014109943
0.0014350552
-0.0016586408
0.0011765363
-0.0018423668
0.00087292896
-0.0019551879
0.00053604353
-0.0019928607
0.000178913
-0.001954021
-0.00018472797
-0.0018402124
-0.00054096894
-0.0016558295
-0.00087621294
-0.0014079558
-0.0011776807
-0.0011060995
-0.0014338906
-0.00076183541
-0.0016350899
-0.00038836258
-0.0017736272
-0.0018442373
0.00047529704
-0.0023195329
0.00093234877
-0.0022306773
0.0013536185
-0.0020563578
0.0017229493
-0.0018032203
0.0020261842
-0.0014809161
0.0022517088
-0.00110174
0.0023908829
-0.00068014706
0.0024383559
-0.0002322054
0.0023922551
0.00022501013
0.0022542405
0.00067405631
0.0020294842
0.0010976856
0.0017265107
0.0014795121
0.0013568988
0.0018046706
0.00093485207
0.0020604322
0.00047664768
0.0022367509
-2.038517e-09
0.0023266829
-0.00047665105
0.0023266811
-0.00093485359
0.0022367463
-0.0013568978
0.0020604261
-0.0017265073
0.0018046647
-0.0020294791
0.0014795081
-0.0022542348
0.0010976847
-0.0023922505
0.00067405916
-0.0024383537
0.0002250162
-0.0023908837
-0.00023219796
-0.0022517121
-0.00068014053
-0.0020261887
-0.0011017363
-0.0017229535
-0.001480916
-0.0013536211
-0.001803223
-0.00093234945
-0.0020563616
-0.00047529614
-0.0022306805
-0.0023195342
0.00059551371
-0.0029150449
0.0011681362
-0.0028032998
0.0016958762
-0.0025840978
0.0021584838
-0.0022658279
0.00253823
-0.0018606623
0.0028205924
-0.0013841024
0.0029947872
-0.00085434193
0.003054153
-0.00029157113
0.0029963763
0.00028278685
0.0028235224
0.00084691021
0.002542045
0.001379163
0.0021625952
0.0018589619
0.0016996576
0.0022676082
0.0011710176
0.0025890723
0.00059706552
0.0028107029
-3.504709e-09
0.0029237519
-0.00059707136
0.002923749
-0.0011710204
0.0028106953
-0.0016996562
0.002589062
-0.0021625898
0.0022675982
-0.0025420367
0.0018589551
-0.0028235131
0.0013791611
-0.0029963685
0.00084691456
-0.0030541493
0.00028279699
-0.0029947889
-0.00029155839
-0.0028205985
-0.0008543309
-0.0025382381
-0.0013840967
-0.002158491
-0.0018606631
-0.0016958803
-0.0022658336
-0.0011681367
-0.0025841053
-0.00059551132
-0.0028033059
-0.0029150473
0.00075821565
-0.0036732568
0.0014872449
-0.0035323291
0.0021590645
-0.0032559174
0.0027478824
-0.0028546459
0.0032311292
-0.0023439091
0.0035903481
-0.0017433213
0.0038118597
-0.0010758535
0.0038872381
-0.00036694956
0.0038136026
0.00035642235
0.0035935598
0.001066953
0.0032353051
0.0017374177
0.0027523732
0.0023418938
0.0021631856
0.0028567958
0.0014903775
0.0032618803
0.00075989747
0.0035411829
-5.9241852e-09
0.0036836553
-0.00075990739
0.0036836505
-0.0014903824
0.0035411703
-0.0021631837
0.0032618632
-0.0027523646
0.0028567791
-0.0032352918
0.0023418823
-0.0035935445
0.0017374139
-0.0038135893
0.0010669594
-0.0038872318
0.00035643941
-0.0038118631
-0.00036692706
-0.0035903597
-0.0010758343
-0.003231144
-0.0017433124
-0.0027478949
-0.0023439122
-0.002159071
-0.0028546575
-0.0014872447
-0.0032559315
-0.00075821032
-0.0035323403
-0.0036732612
0.00096475614
-0.0046380058
0.0018923283
-0.0044599013
0.0027470381
-0.0041106271
0.0034960575
-0.0036036653
0.0041106529
-0.0029585046
0.0045673672
-0.0022000355
0.0048488392
-0.0013573256
0.0049443997
-0.00046251004
0.0048505135
0.00045030859
0.0045704526
0.0013470139
0.0041146588
0.0021932115
0.0035003511
0.0029562014
0.0027509647
0.0036061823
0.0018953002
0.0041175448
0.00096634085
0.0044701423
-9.9767949e-09
0.0046500061
-0.00096635756
0.0046499981
-0.0018953087
0.0044701215
-0.002750962
0.0041175165
-0.0035003372
0.0036061543
-0.0041146372
0.0029561822
-0.0045704272
0.0021932039
-0.0048504899
0.0013470221
-0.0049443875
0.00045033698
-0.004848846
-0.00046246858
-0.0045673893
-0.001357291
-0.00411068
-0.0022000217
-0.0034960789
-0.0029585132
-0.0027470481
-0.0036036884
-0.0018923262
-0.0041106534
-0.00096474506
-0.0044599215
-0.0046380135
0.0011954506
-0.0058334423
0.0023447793
-0.00560923
0.0034037729
-0.0051696207
0.0043317581
-0.0045316505
0.0050930689
-0.0037198154
0.0056586385
-0.0027656051
0.0060069668
-0.0017056539
0.0061248222
-0.00058036552
0.0060080984
0.00056703245
0.0056607359
0.0016943764
0.0050957967
0.0027581506
0.0043346679
0.0037173303
0.0034064188
0.0045344314
0.0023467591
0.0051772044
0.0011964811
0.0056204204
-1.6782771e-08
0.005846504
-0.0011965091
0.0058464903
-0.0023467738
0.0056203863
-0.003406415
0.0051771576
-0.0043346455
0.0045343849
-0.0050957624
0.0037172992
-0.0056606943
0.0027581357
-0.0060080556
0.0016943834
-0.0061247959
0.0005670773
-0.0060069811
-0.00058028337
-0.0056586823
-0.0017055899
-0.005093119
-0.002765585
-0.0043317949
-0.0037198373
-0.0034037876
-0.0045316957
-0.0023447725
-0.0051696685
-0.0011954283
-0.0056092656
-0.0058334558
0.0013921014
-0.0072255172
0.0027304492
-0.0069475778
0.0039636001
-0.0064027717
0.0050442502
-0.0056123006
0.0059307266
-0.0046062918
0.0065890345
-0.0034239129
0.0069942209
-0.0021108403
0.0071306845
-0.00071682913
0.006994125
0.00070359195
0.0065888231
0.0020996783
0.0059304303
0.0034165434
0.0050439526
0.004603808
0.0039633138
0.0056150702
0.0027301795
0.0064103388
0.0013918817
0.0069587181
-2.8192569e-08
0.0072384139
-0.0013919281
0.0072383902
-0.0027302034
0.0069586616
-0.0039633069
0.0064102611
-0.0050439144
0.0056149924
-0.005930376
0.0046037608
-0.0065887575
0.0034165172
-0.006994046
0.0020996719
-0.007130618
0.00070364933
-0.0069942565
-0.00071664491
-0.0065891256
-0.0021107207
-0.0059308209
-0.0034238896
-0.0050443136
-0.0046063447
-0.0039636212
-0.0056123881
-0.0027304322
-0.0064028575
-0.0013920579
-0.00694764
-0.0072255403
0.001444292
-0.0086697602
0.0028328061
-0.0083360918
0.0041122078
-0.0076821734
0.0052335861
-0.0067336789
0.0061533937
-0.0055260993
0.0068363216
-0.0041068408
0.0072566165
-0.0025311352
0.0073971468
-0.00085735942
0.007254389
0.00084634975
0.006832255
0.0025218123
0.006148222
0.0041005765
0.0052281412
0.0055238887
0.0041071991
0.0067360123
0.0028289244
0.0076886135
0.0014420768
0.0083455657
-4.6507512e-08
0.0086805372
-0.0014421503
0.008680494
-0.0028289584
0.0083454697
-0.0041071813
0.007688484
-0.0052280717
0.0067358828
-0.006148139
0.0055238281
-0.0068321657
0.0041005438
-0.0072542496
0.0025217558
-0.0073969464
0.00084634609
-0.0072567234
-0.00085686783
-0.006836513
-0.0025309311
-0.0061535695
-0.0041068332
-0.0052336965
-0.0055262177
-0.0041122408
-0.0067338438
-0.0028327719
-0.0076823264
-0.0014442106
-0.0083362013
-0.0086697998
0.001198689
-0.0098683676
0.0023515888
-0.0094889916
0.0034136925
-0.0087442771
0.0043450625
-0.0076650489
0.0051089751
-0.006290012
0.0056759847
-0.0046738505
0.0060252572
-0.0028804078
0.0061404653
-0.00097256751
0.0060207026
0.00096611247
0.0056676484
0.0028748665
0.005098176
0.0046700489
0.0043334059
0.0062886588
0.0034029121
0.0076665062
0.0023433579
0.0087481676
0.0011942954
0.0094946282
-6.8982646e-08
0.0098749016
-0.0011943951
0.0098748202
-0.0023433907
0.0094944652
-0.0034028698
0.0087479631
-0.004333287
0.0076663
-0.005098069
0.0062886101
-0.005667587
0.0046700618
-0.0060205108
0.0028746797
-0.0061397684
0.00096560366
-0.0060256535
-0.00097098272
-0.0056763523
-0.0028802323
-0.0051092601
-0.0046739254
-0.0043452417
-0.006290236
-0.0034137541
-0.0076653314
-0.0023515392
-0.0087445414
-0.0011985546
-0.0094891859
-0.0098684361
0.00052640771
-0.010394686
0.0010330143
-0.0099955982
0.0014985967
-0.0092098595
0.0019077921
-0.0080742442
0.0022429564
-0.0066251763
0.0024900264
-0.0049209204
0.0026439853
-0.0030343667
0.0026915043
-0.0010200865
0.002638122
0.0010194948
0.0024785584
0.0030344301
0.0022280068
0.0049206005
0.0018913915
0.0066252741
0.0014831043
0.0080747934
0.0010209659
0.009210306
0.0005197449
0.0099958492
-6.3324526e-08
0.01039471
-0.00051981357
0.01039457
-0.0010209578
0.0099956095
-0.0014830608
0.0092100661
-0.0018912731
0.0080745123
-0.0022279367
0.0066252738
-0.0024786436
0.0049207686
-0.0026381262
0.0030341623
-0.0026887656
0.001016243
-0.0026459205
-0.0010138278
-0.0024905376
-0.0030356153
-0.0022432121
-0.0049212509
-0.0019079734
-0.0066254748
-0.0014986991
-0.0080746056
-0.0010329905
-0.00921025
-0.0005262638
-0.0099959126
-0.010394789
-0.0005137644
-0.0098810113
-0.0010090141
-0.0095003484
-0.0014656168
-0.0087532568
-0.0018689925
-0.0076708685
-0.0022017504
-0.0062924185
-0.0024496276
-0.0046730432
-0.0026072187
-0.0028767756
-0.0026602189
-0.00096708629
-0.0026134973
0.00097277311
-0.0024611354
0.0028820682
-0.0022171738
0.0046766389
-0.0018859369
0.0062940372
-0.0014813156
0.0076701721
-0.0010210161
0.0087500064
-0.00052017923
0.0094950124
6.3044506e-08
0.0098744676
0.00052024732
0.0098743861
0.0010210072
0.0094948495
0.0014812712
0.0087498022
0.0018858181
0.0076699654
0.0022171034
0.0062939884
0.0024612191
0.004676653
0.0026134985
0.0028818829
0.0026574711
0.00097227042
0.0026091544
-0.00096551107
0.0024501399
-0.0028766007
0.0022020067
-0.0046731178
0.0018691735
-0.0062926415
0.0014657184
-0.0076711505
0.0010089895
-0.0087535211
0.00051361961
-0.0095005427
-0.0098810798
-0.0011882414
-0.0086928523
-0.0023312712
-0.0083573187
-0.0033851853
-0.0076993427
-0.0043106905
-0.0067453633
-0.0050714762
-0.0055316327
-0.0056380964
-0.004106423
-0.0059893757
-0.0025254963
-0.006108668
-0.00084779393
-0.0059942268
0.00085833185
-0.0056467929
0.0025346343
-0.0050828072
0.0041126532
-0.0043228162
0.0055340461
-0.0033960922
0.0067434481
-0.0023393431
0.0076932573
-0.001192338
0.0083480073
6.8509141e-08
0.0086820611
0.0011924368
0.0086820178
0.0023393749
0.0083479114
0.0033960492
0.0076931279
0.0043226962
0.0067433184
0.0050826988
0.0055339859
0.0056467302
0.0041126216
0.0059940345
0.0025345786
0.0061079741
0.00085833079
0.0059897691
-0.00084730604
0.0056384617
-0.0025252933
0.0050717594
-0.0041064155
0.0043108685
-0.0055317506
0.0033852458
-0.0067455278
0.0023312202
-0.0076994955
0.0011881056
-0.0083574281
-0.0086928919
-0.0014357511
-0.0072571511
-0.0028163862
-0.0069766835
-0.004088889
-0.0064268399
-0.0052047481
-0.0056295043
-0.0061207038
-0.004615677
-0.0068017277
-0.0034253991
-0.0072220439
-0.0021051801
-0.0073642909
-0.00070554701
-0.0072245184
0.00071855936
-0.0068061405
0.0021162565
-0.0061262761
0.0034327888
-0.0052105173
0.0046182873
-0.0040940138
0.0056269446
-0.0028202007
0.0064194442
-0.0014378009
0.0069656074
4.6031858e-08
0.0072442142
0.0014378733
0.0072441905
0.0028202338
0.006965551
0.0040939951
0.0064193666
0.0052104466
0.0056268669
0.0061261919
0.0046182405
0.0068060503
0.0034327632
0.0072243782
0.0021162507
0.0073640922
0.0007186168
0.0072221494
-0.00070536325
0.0068019174
-0.0021050613
0.0061208779
-0.003425376
0.005204857
-0.0046157297
0.0040889206
-0.0056295915
0.0028163505
-0.0064269254
0.0014356681
-0.0069767456
-0.0072571741
-0.001385142
-0.0058720363
-0.0027168876
-0.0056449379
-0.0039439643
-0.0051997632
-0.0050192891
-0.0045541795
-0.0059014324
-0.0037335338
-0.006556637
-0.0027701944
-0.006960013
-0.0017018042
-0.0070959955
-0.00056956446
-0.006960289
0.00058285285
-0.0065571254
0.0017130928
-0.0059020418
0.0027777052
-0.005019858
0.0037361036
-0.0039444067
0.0045514933
-0.0027171927
0.0051922302
-0.0013853077
0.0056337224
2.7795232e-08
0.0058588787
0.0013853532
0.0058588651
0.0027172158
0.0056336884
0.0039443989
0.0051921835
0.0050198189
0.0045514469
0.0059019867
0.0037360728
0.0065570591
0.0027776907
0.0069602096
0.0017131002
0.0070959286
0.00058289783
0.0069600478
-0.00056948248
0.0065567268
-0.0017017403
0.0059015252
-0.0027701743
0.005019351
-0.0037335555
0.003943984
-0.0045542245
0.0027168692
-0.0051998107
0.001385097
-0.0056449734
-0.0058720497
-0.0011890954
-0.0046829556
-0.0023322336
-0.0045017997
-0.0033853084
-0.0041466884
-0.0043077914
-0.0036316965
-0.0050642085
-0.0029771166
-0.0056256725
-0.0022087305
-0.0059709282
-0.0013565484
-0.0060869946
-0.0004534981
-0.0059699357
0.000465794
-0.0056238065
0.0013669636
-0.0050617529
0.0022156515
-0.0043051391
0.0029794898
-0.0033828523
0.0036292065
-0.0023303538
0.0041397317
-0.0011880777
0.0044914463
1.6507411e-08
0.0046707845
0.0011881051
0.0046707765
0.0023303679
0.0044914256
0.0033828479
0.0041397035
0.0043051161
0.0036291787
0.0050617179
0.0029794709
0.0056237644
0.0022156443
0.0059698924
0.0013669721
0.0060869676
0.00046582265
0.0059709418
-0.00045345663
0.0056257152
-0.0013565137
0.0050642573
-0.0022087164
0.0043078268
-0.002977125
0.0033853217
-0.0036317193
0.0023322254
-0.0041467144
0.0011890718
-0.0045018198
-0.0046829633
-0.00095787228
-0.0037250912
-0.0018786692
-0.0035810029
-0.0027268136
-0.0032985439
-0.0034696187
-0.0028888915
-0.0040785437
-0.0023681916
-0.0045303613
-0.001756913
-0.0048080034
-0.0010789063
-0.0049011173
-0.00036038424
-0.0048064479
0.00037112461
-0.0045274834
0.0010879991
-0.0040747923
0.0017629605
-0.0034655798
0.0023702774
-0.002723097
0.0028867236
-0.0018758332
0.003292468
-0.0009563376
0.0035719507
9.8375481e-09
0.0037144371
0.00095635403
0.0037144323
0.0018758415
0.0035719382
0.0027230939
0.003292451
0.0034655656
0.0028867071
0.0040747704
0.0023702661
0.0045274575
0.0017629571
0.0048064239
0.0010880058
0.0049011045
0.00037114202
0.0048080094
-0.00036036151
0.0045303824
-0.0010788867
0.0040785697
-0.0017569037
0.003469639
-0.0023681943
0.0027268224
-0.0028889027
0.0018786658
-0.0032985578
0.00095785996
-0.0035810139
-0.0037250955
-0.00074958916
-0.0029755062
-0.0014701484
-0.0028604436
-0.0021338196
-0.0026348727
-0.002715011
-0.0023077001
-0.0031913985
-0.001891804
-0.0035448125
-0.001403499
-0.0037619021
-0.00086181671
-0.0038345802
-0.0002877061
-0.0037602679
0.00029681228
-0.0035417959
0.00086952715
-0.0031874684
0.001408633
-0.0027107747
0.0018935836
-0.0021299198
0.0023058687
-0.0014671713
0.0026297196
-0.00074797814
0.0028527575
5.9226391e-09
0.0029664531
0.00074798804
0.0029664502
0.0014671762
0.00285275
0.0021299177
0.0026297095
0.0027107658
0.002305859
0.0031874548
0.0018935771
0.0035417804
0.0014086316
0.0037602542
0.00086953193
0.0038345734
0.00029682288
0.0037619048
-0.00028769294
0.0035448233
-0.00086180523
0.0031914124
-0.0014034928
0.0027150224
-0.0018918043
0.0021338251
-0.0023077054
0.0014701471
-0.0026348798
0.00074958269
-0.0028604495
-0.0029755086
-0.00058378807
-0.0023917205
-0.0011449704
-0.0022992613
-0.0016618502
-0.0021179929
-0.0021144934
-0.0018550569
-0.0024855127
-0.0015207847
-0.0027607472
-0.0011282645
-0.0029297829
-0.00069278105
-0.0029863077
-0.00023118122
-0.0029282964
0.00023880089
-0.0027580038
0.0006992346
-0.0024819365
0.0011325657
-0.0021106341
0.0015222811
-0.0016582941
0.0018535288
-0.0011422539
0.0021136793
-0.00058231781
0.0022928214
3.633825e-09
0.0023841316
0.0005823239
0.0023841299
0.0011422569
0.002292817
0.001658293
0.0021136735
0.0021106287
0.0018535232
0.0024819283
0.0015222776
0.0027579945
0.0011325654
0.0029282884
0.00069923799
0.0029863037
0.00023880754
0.002929784
-0.00023117318
0.0027607527
-0.00069277392
0.0024855201
-0.0011282602
0.0021144997
-0.0015207839
0.0016618534
-0.0018550591
0.0011449699
-0.0021179963
0.00058378461
-0.0022992642
-0.0023917217
-0.00045907469
-0.001932647
-0.00090038257
-0.0018579534
-0.001306867
-0.0017115085
-0.0016628525
-0.0014990715
-0.0019546607
-0.0012289765
-0.0021711407
-0.00091178448
-0.0023040828
-0.00055983899
-0.0023485041
-0.00018675985
-0.0023028041
0.00019310084
-0.0021687805
0.00056521101
-0.0019515825
0.0009153677
-0.001659528
0.0012302267
-0.0013038018
0.0014978025
-0.00089803986
0.0017079174
-0.00045780669
0.0018525882
2.2799547e-09
0.0019263226
0.00045781053
0.0019263217
0.00089804181
0.0018525857
0.0013038012
0.0017079141
0.0016595249
0.0014977995
0.0019515775
0.001230225
0.0021687749
0.00091536797
0.0023027993
0.00056521355
0.0023485016
0.00019310527
0.0023040831
-0.00018675461
0.0021711434
-0.00055983423
0.0019546644
-0.00091178127
0.0016628558
-0.0012289753
0.0013068687
-0.001499072
0.00090038226
-0.0017115099
0.00045907276
-0.0018579548
-0.0019326476
-0.00036675235
-0.0015658955
-0.00071932045
-0.0015053853
-0.0010440834
-0.0013867455
-0.0013285185
-0.0012146364
-0.0015616918
-0.00099580314
-0.0017346817
-0.0007387946
-0.0018409123
-0.00045360838
-0.0018763884
-0.00015128374
-0.0018398249
0.00015653732
-0.0017326744
0.00045806049
-0.0015590733
0.00074176655
-0.0013256895
0.00099684297
-0.0010414745
0.0012135875
-0.00071732624
0.0013837691
-0.00036567314
0.0015009351
1.4797974e-09
0.001560648
0.00036567566
0.0015606475
0.0007173276
0.0015009338
0.0010414743
0.0013837674
0.0013256877
0.001213586
0.0015590703
0.00099684238
0.0017326711
0.00074176723
0.001839822
0.00045806257
0.0018763868
0.00015654054
0.0018409122
-0.00015128004
0.0017346829
-0.00045360493
0.0015616937
-0.00073879202
0.0013285201
-0.00099580174
0.0010440842
-0.0012146361
0.00071932014
-0.0013867458
0.00036675117
-0.0015053858
-0.0015658957
-0.00029799963
-0.0012678964
-0.00058447719
-0.0012189077
-0.00084836705
-0.0011228556
-0.0010794936
-0.00098350986
-0.0012689693
-0.00080632742
-0.0014095377
-0.00059822619
-0.0014958466
-0.00036729946
-0.0015246422
-0.00012248817
-0.0014948802
0.00012677532
-0.0014077528
0.00037093311
-0.001266639
0.00060065272
-0.0010769736
0.0008071776
-0.00084604083
0.00098265473
-0.00058269768
0.001120426
-0.00029703623
0.0012152737
1.0489259e-09
0.0012636107
0.00029703806
0.0012636105
0.00058269878
0.0012152731
0.00084604094
0.0011204253
0.0010769727
0.00098265427
0.0012666373
0.00080717775
0.0014077509
0.00060065372
0.0014948784
0.00037093499
0.0015246411
0.00012677789
0.0014958463
-0.00012248527
0.0014095381
-0.00036729671
0.00126897
-0.00059822396
0.0010794942
-0.00080632592
0.00084836721
-0.00098350907
0.00058447676
-0.0011228554
0.0002979987
-0.0012189077
-0.0012678964
-0.00025243738
-0.0010154592
-0.00049511681
-0.00097622829
-0.00071866566
-0.00089930679
-0.00091446414
-0.00078771138
-0.0010749817
-0.00064580983
-0.0011940672
-0.00047914076
-0.0012671803
-0.00029418635
-0.0012915589
-9.8109497e-05
-0.0012663154
0.00010153173
-0.0011924687
0.00029708649
-0.0010728926
0.00048107663
-0.00091220203
0.00064648698
-0.00071657491
0.00078702762
-0.000493516
0.00089736707
-0.00025157053
0.00097332821
5.0552975e-10
0.0010120397
0.00025157138
0.0010120396
0.00049351643
0.00097332801
0.00071657475
0.00089736693
0.00091220129
0.00078702773
0.0010728915
0.00064648756
0.0011924674
0.00048107779
0.0012663142
0.00029708823
0.0012915582
0.00010153389
0.00126718
-9.8107084e-05
0.0011940673
-0.00029418404
0.0010749822
-0.0004791388
0.00091446458
-0.00064580835
0.00071866591
-0.0007877104
0.00049511678
-0.00089930624
0.00025243709
-0.00097622803
-0.0010154591
-0.0002224416
-0.00079301817
-0.00043628171
-0.00076238818
-0.00063325919
-0.00070232931
-0.00080577624
-0.00061519433
-0.00094719557
-0.0005043905
-0.0010520961
-0.00037424021
-0.0011164775
-0.000229805
-0.0011379065
-7.6680502e-05
-0.0011156021
7.9227417e-05
-0.0010504785
0.00023196282
-0.00094508195
0.00037568011
-0.00080348847
0.0005048935
-0.00063114557
0.00061468471
-0.00043466387
0.00070088537
-0.00022156547
0.00076022981
7.9870864e-10
0.00079047343
0.00022156695
0.00079047346
0.00043466502
0.00076022994
0.00063114627
0.00070088568
0.00080348867
0.00061468532
0.00094508173
0.0005048945
0.001050478
0.00037568155
0.0011156015
0.00023196468
0.0011379058
7.9229623e-05
0.001116477
-7.6678272e-05
0.0010520957
-0.0002298028
0.00094719519
-0.00037423825
0.00080577576
-0.00050438892
0.00063325851
-0.00061519316
0.00043628082
-0.00070232854
0.00022244054
-0.00076238775
-0.00079301804
-0.0002325546
-0.00056046585
-0.00045611988
-0.0005388229
-0.00066206452
-0.00049638468
-0.0008424467
-0.00043481215
-0.00099032598
-0.00035651122
-0.0011000314
-0.00026453483
-0.0011673772
-0.00016245913
-0.0011898191
-5.4238647e-05
-0.0011665361
5.594442e-05
-0.001098478
0.0001639047
-0.00098829721
0.00026549935
-0.00084025161
0.0003568479
-0.00066003684
0.00043446995
-0.00045456732
0.00049541585
-0.00023171235
0.00053737484
2.3630143e-09
0.00055875872
0.00023171694
0.00055875888
0.00045457151
0.00053737537
0.0006600404
0.00049541679
0.0008402544
0.00043447133
0.00098829917
0.00035684974
0.0010984791
0.00026550162
0.0011665364
0.00016390733
0.0011898188
5.5947294e-05
0.0011673762
-5.4235656e-05
0.0011000296
-0.00016245624
0.00099032354
-0.00026453221
0.00084244362
-0.00035650899
0.00066206084
-0.00043481038
0.00045611572
-0.00049638342
0.00023255013
-0.00053882216
-0.00056046562
-0.00024406505
-0.00031640039
-0.00047870061
-0.00030418734
-0.00069484699
-0.0002802383
-0.00088417078
-0.00024548835
-0.0010393898
-0.00020129225
-0.0011545549
-0.00014936973
-0.0012252748
-9.1739181e-05
-0.0012488643
-3.0649169e-05
-0.0012243787
3.1458786e-05
-0.0011528998
9.242584e-05
-0.0010372281
0.00014982764
-0.00088183171
0.00020145153
-0.00069268664
0.00024532488
-0.00047704768
0.00027977688
-0.00024317094
0.00030349811
-3.2038044e-10
0.0003155881
0.00024317024
0.00031558832
0.0004770469
0.00030349871
0.00069268579
0.0002797779
0.00088183082
0.0002453263
0.0010372272
0.00020145336
0.001152899
0.00014982983
0.001224378
9.2428302e-05
0.001248864
3.1461323e-05
0.0012252747
-3.0646386e-05
0.0011545551
-9.173658e-05
0.0010393902
-0.00014936736
0.00088417142
-0.00020129021
0.00069484775
-0.00024548671
0.00047870144
-0.00028023711
0.0002440659
-0.00030418662
-0.00031640013
-0.00031504385
-0.00061792127
-0.00089695198
-0.0011413815
-0.0013418045
-0.0014905278
-0.0015818683
-0.0016123814
-0.0015810523
-0.0014890193
-0.0013398329
-0.0011392468
-0.00089497812
-0.00061640764
-0.00031421959
5.3645897e-09
0.00031423009
0.00061641743
0.00089498679
0.001139254
0.0013398384
0.0014890229
0.001581054
0.001612381
0.001581866
0.0014905237
0.0013417986
0.0011413741
0.0008969432
0.00061791147
0.00031503341
)
;

boundaryField
{
    leftWall
    {
        type            cyclic;
        value           nonuniform List<scalar> 
32
(
2.3430318e-10
1.950248e-10
1.9354884e-10
1.8514835e-10
1.4944109e-10
3.2605528e-11
-2.3228899e-10
-7.5450937e-10
-1.7571084e-09
-3.6545675e-09
-7.2338377e-09
-1.3976595e-08
-2.6552552e-08
-4.901872e-08
-8.1616803e-08
-8.8869052e-08
8.9289066e-08
8.2350392e-08
4.9799159e-08
2.7300662e-08
1.4665256e-08
7.8590883e-09
4.227738e-09
2.3013366e-09
1.2776259e-09
7.6753187e-10
5.5963268e-10
1.9244478e-10
5.6550891e-10
2.2844533e-09
-4.0756988e-10
5.3210877e-09
)
;
    }
    rightWall
    {
        type            cyclic;
        value           nonuniform List<scalar> 
32
(
-2.3430318e-10
-1.950248e-10
-1.9354884e-10
-1.8514835e-10
-1.4944109e-10
-3.2605528e-11
2.3228899e-10
7.5450937e-10
1.7571084e-09
3.6545675e-09
7.2338377e-09
1.3976595e-08
2.6552552e-08
4.901872e-08
8.1616803e-08
8.8869052e-08
-8.9289066e-08
-8.2350392e-08
-4.9799159e-08
-2.7300662e-08
-1.4665256e-08
-7.8590883e-09
-4.227738e-09
-2.3013366e-09
-1.2776259e-09
-7.6753187e-10
-5.5963268e-10
-1.9244478e-10
-5.6550891e-10
-2.2844533e-09
4.0756988e-10
-5.3210877e-09
)
;
    }
    lowerWall
    {
        type            calculated;
        value           uniform 0;
    }
    atmosphere
    {
        type            calculated;
        value           nonuniform List<scalar> 
32
(
-1.3618596e-06
-1.3099213e-06
-1.2075869e-06
-1.0588019e-06
-8.6930238e-07
-6.4639939e-07
-3.9873837e-07
-1.3606826e-07
1.2970828e-07
3.9282505e-07
6.4132686e-07
8.6537524e-07
1.0562121e-06
1.2063945e-06
1.3100571e-06
1.3631481e-06
1.3635912e-06
1.311372e-06
1.2085349e-06
1.0591022e-06
8.6891113e-07
6.4537865e-07
3.9724079e-07
1.3431974e-07
-1.3143481e-07
-3.9426968e-07
-6.4227259e-07