/*--------------------------------*- C++ -*----------------------------------*\
| =========                 |                                                 |
| \\      /  F ield         | OpenFOAM: The Open Source CFD Toolbox           |
|  \\    /   O peration     | Version:  2106                                  |
|   \\  /    A nd           | Website:  www.openfoam.com                      |
|    \\/     M anipulation  |                                                 |
\*---------------------------------------------------------------------------*/
FoamFile
{
    version     2.0;
    format      ascii;
    arch        "LSB;label=32;scalar=64";
    class       volScalarField;
    location    "0.045";
    object      p;
}
// * * * * * * * * * * * * * * * * * * * * * * * * * * * * * * * * * * * * * //

dimensions      [1 -1 -2 0 0 0 0];

internalField   nonuniform List<scalar> 
32768
(
475.98317
475.94562
475.85251
475.70556
475.50505
475.25051
474.94145
474.57738
474.15773
473.68184
473.14896
472.55825
471.90876
471.19945
470.42919
469.59673
468.70073
467.73972
466.71213
465.61624
464.4502
463.21211
461.89998
460.51161
459.04463
457.49654
455.86469
454.14627
452.33831
450.43766
448.44099
446.34479
444.14535
441.83875
439.42087
436.88736
434.23364
431.4549
428.54608
425.50182
422.31661
418.98438
415.49953
411.85433
408.04487
404.05888
399.89814
395.54264
390.99423
386.24825
381.25137
376.11015
370.62632
364.98308
359.10578
352.80962
346.39553
339.70588
332.50535
325.13739
317.55575
309.43432
300.91607
292.18689
283.09652
273.54196
263.53579
253.05197
242.14877
230.97136
219.47244
207.45603
194.82703
181.56663
167.87053
154.15829
140.72656
127.5021
114.20495
100.82961
87.173414
74.212592
62.715859
52.216715
42.636452
33.251864
24.275292
15.222854
5.5113469
1.1672473
0.12918109
0.23005457
0.24785952
0.22738693
0.21050316
0.19682258
0.18518678
0.17497689
0.16571657
0.15720046
0.14930569
0.14195019
0.13507391
0.12862936
0.12257704
0.11688309
0.11151798
0.10645566
0.10167296
0.097149195
0.092865808
0.08880607
0.084954854
0.081298433
0.077824329
0.074521096
0.071378455
0.068386425
0.065537112
0.062821281
0.060231373
0.057761354
0.055404657
0.053155061
0.051006867
0.048954793
0.046994013
0.045119956
0.04332853
0.04161545
0.039977151
0.038410124
0.03691107
0.03547564
0.034103225
0.032790045
0.031532731
0.030329444
0.02917742
0.028073794
0.027018126
0.026007796
0.025040311
0.024113823
0.023226858
0.022377662
0.021564998
0.020787312
0.020043058
0.019330815
0.018649308
0.017997185
0.017373444
0.016776902
0.016206452
0.015661048
0.015139695
0.014641448
0.014165407
0.013710712
0.013276594
0.012862372
0.012466593
0.012089049
0.011729124
0.011385982
0.011059084
0.010747963
0.010451312
0.010168983
0.0099005169
0.0096453436
0.009402831
0.0091725396
0.0089539816
0.0087466941
0.0085502347
0.0083641756
0.0081881054
0.0080216248
0.0078643444
0.0077158892
0.0075759015
0.0074440368
0.0073199611
0.0072033558
0.0070939162
0.0069913812
0.0068953499
0.0068055786
0.006721829
0.0066438452
0.0065713649
0.0065041385
0.0064419298
0.0063845093
0.0063316537
0.0062831481
0.0062387942
0.0061983924
0.0061617477
0.0061286735
0.006098992
0.0060725414
0.0060490947
0.0060285208
0.0060106811
0.0059954238
0.0059825972
0.0059720582
0.0059636686
0.0059572923
0.0059527942
0.0059500423
0.0059489452
0.0059493657
0.005951219
0.0059543798
0.005958746
0.005964217
0.0059706541
0.0059779989
0.0059861792
0.0059950967
0.0060046623
0.006014805
0.0060254524
0.0060365306
0.0060479674
0.0060596939
0.0060716436
0.0060837542
0.0060959788
0.0061082514
0.0061205168
0.0061327291
0.0061448476
0.0061568294
0.0061686184
0.0061801796
0.006191475
0.0062024719
0.0062131366
0.0062234359
0.0062333348
0.0062428078
0.0062518319
0.0062603895
0.0062684701
0.0062760552
0.0062831296
0.0062896839
0.0062957072
0.0063014066
0.0063060326
0.0063110981
467.25839
467.22112
467.12822
466.98166
466.78133
466.52693
466.21803
465.85414
465.43471
464.95906
464.42645
463.83603
463.18686
462.47791
461.70803
460.87599
459.98043
459.0199
457.99282
456.89752
455.73221
454.49488
453.18345
451.79574
450.32941
448.78198
447.1508
445.43305
443.62578
441.72581
439.72984
437.63433
435.43557
433.12965
430.71242
428.17954
425.52642
422.74823
419.8399
416.79603
413.61124
410.27901
406.79467
403.14839
399.3403
395.3508
391.19358
386.83219
382.28949
377.53664
372.54387
367.38754
361.90897
356.27619
350.35368
344.09988
337.67636
330.90673
323.76408
316.42725
308.73494
300.58445
292.16715
283.42655
274.20696
264.58873
254.61611
244.16755
233.25675
222.00246
210.35915
198.202
185.50752
172.29675
158.71869
144.99471
131.28637
117.68008
104.1755
90.657402
77.217263
64.521202
53.082772
42.728079
33.094005
23.919942
15.671678
7.6199836
0.66894866
0.38595019
0.2614026
0.23256623
0.21936556
0.20635774
0.19464326
0.18376497
0.17350502
0.16383666
0.15482485
0.14642492
0.13858815
0.13126556
0.12441098
0.11798272
0.11194371
0.10626117
0.10090605
0.095852556
0.091077699
0.086560916
0.082283744
0.078229541
0.07438326
0.070731241
0.067261061
0.06396134
0.060821766
0.057832566
0.05498523
0.052271041
0.049683829
0.047216185
0.044861246
0.042613113
0.040466211
0.038415299
0.036455595
0.034582475
0.032791922
0.031079131
0.029441418
0.027875556
0.02637747
0.024944491
0.023571871
0.022258329
0.021001448
0.019798896
0.018647031
0.017544609
0.016488416
0.015477814
0.014509912
0.013583345
0.012696499
0.011847238
0.01103477
0.010257323
0.0095131978
0.0088010037
0.0081194811
0.0074672127
0.0068435232
0.0062471585
0.0056768125
0.0051314472
0.004610109
0.004111862
0.003635802
0.0031810346
0.002746724
0.0023320486
0.0019366573
0.0015593408
0.0011994355
0.00085633712
0.00052931825
0.00021770355
-7.8704967e-05
-0.00036087554
-0.00062926564
-0.00088432507
-0.0011269129
-0.0013573136
-0.0015759468
-0.001783287
-0.0019797907
-0.0021658885
-0.0023419959
-0.0025085142
-0.0026658309
-0.0028143191
-0.0029543381
-0.0030862329
-0.0032103351
-0.0033269595
-0.0034364096
-0.0035389756
-0.0036350697
-0.0037248827
-0.0038086584
-0.0038866689
-0.0039591782
-0.0040264351
-0.0040886749
-0.0041461267
-0.00419901
-0.0042475393
-0.0042919141
-0.0043323354
-0.0043689974
-0.0044020868
-0.0044317821
-0.004458259
-0.0044817298
-0.0045023251
-0.0045201845
-0.0045354623
-0.0045483094
-0.004558869
-0.00456728
-0.0045736792
-0.0045781998
-0.0045809627
-0.0045820715
-0.0045816529
-0.0045798091
-0.0045766609
-0.0045723187
-0.0045668742
-0.0045604164
-0.0045530504
-0.0045448833
-0.0045359919
-0.00452644
-0.0045163065
-0.0045056683
-0.004494599
-0.0044831703
-0.0044714515
-0.0044595075
-0.0044473965
-0.0044351839
-0.0044229194
-0.0044106582
-0.0043984476
-0.0043863322
-0.00437436
-0.0043625711
-0.0043510114
-0.0043397158
-0.0043287216
-0.0043180581
-0.0043077651
-0.0042978717
-0.0042884042
-0.0042793821
-0.0042708224
-0.0042627469
-0.0042551668
-0.0042480945
-0.0042415467
-0.0042355223
-0.0042298735
-0.0042251996
-0.0042201341
458.55347
458.51599
458.42318
458.27677
458.07666
457.82251
457.51392
457.15041
456.7314
456.25624
455.72416
455.13434
454.48583
453.77759
453.00849
452.17727
451.28261
450.32304
449.29698
448.20277
447.0386
445.80255
444.49253
443.10629
441.64151
440.09568
438.46616
436.75012
434.94459
433.04642
431.05227
428.95861
426.76171
424.45765
422.04228
419.51122
416.85988
414.08339
411.17669
408.1343
404.95085
401.61975
398.13632
394.49061
390.68289
386.69297
382.53613
378.17207
373.63219
368.87058
363.88514
358.71248
353.23647
347.60016
341.65312
335.4199
328.96794
322.16853
315.05989
307.67345
299.92814
291.80914
283.36054
274.53847
265.28891
255.64395
245.61192
235.10856
224.12819
212.77193
200.98942
188.67818
175.88222
162.63971
149.00267
135.09034
121.05803
107.03231
93.047083
79.149089
65.675829
53.237864
42.173476
32.318581
23.186046
14.472881
6.2083485
0.58636802
0.21134676
0.28755506
0.25294777
0.22096941
0.20893023
0.19486154
0.18250924
0.17144264
0.1612349
0.1517533
0.14292817
0.13469601
0.12700311
0.11980197
0.11304998
0.10670902
0.10074492
0.095127115
0.089828323
0.08482413
0.080092655
0.075614229
0.071371122
0.067347296
0.063528202
0.059900611
0.056452422
0.053172651
0.050051013
0.047078592
0.044246003
0.041548145
0.038973724
0.036516166
0.034170889
0.031932229
0.029794009
0.027751203
0.025799144
0.023933394
0.022149464
0.020444241
0.018812357
0.017251343
0.01575762
0.014328557
0.012960361
0.011650695
0.010397223
0.0091970378
0.0080488927
0.0069500864
0.0058973214
0.0048887872
0.003924197
0.003000857
0.002116669
0.001270113
0.00045969997
-0.00031599897
-0.0010583491
-0.0017687109
-0.0024484187
-0.0030985383
-0.0037208309
-0.0043161213
-0.0048852774
-0.0054293954
-0.0059495163
-0.0064465878
-0.006921511
-0.007375179
-0.0078084145
-0.0082221352
-0.0086166693
-0.0089930858
-0.0093521265
-0.0096944633
-0.010020701
-0.010331568
-0.010627398
-0.010909041
-0.011176843
-0.011431506
-0.011673299
-0.011902923
-0.012120934
-0.012327714
-0.01252369
-0.012709293
-0.012884929
-0.013050996
-0.013207878
-0.013355952
-0.013495576
-0.013627095
-0.013750842
-0.013867144
-0.013976321
-0.014078667
-0.014174357
-0.014263778
-0.014347224
-0.014424941
-0.014497175
-0.014564169
-0.014626154
-0.014683357
-0.014735997
-0.014784294
-0.014828445
-0.014868658
-0.014905123
-0.01493803
-0.014967567
-0.014993903
-0.015017163
-0.015037546
-0.015055219
-0.015070329
-0.015083017
-0.015093424
-0.015101685
-0.015107927
-0.015112277
-0.015114876
-0.015115858
-0.015115331
-0.015113404
-0.015110173
-0.01510574
-0.015100205
-0.01509366
-0.015086199
-0.015077933
-0.015068935
-0.01505929
-0.015049071
-0.015038351
-0.015027201
-0.015015694
-0.015003897
-0.014991874
-0.014979697
-0.014967428
-0.014955119
-0.014942808
-0.014930548
-0.014918388
-0.014906371
-0.014894541
-0.014882936
-0.014871596
-0.01486056
-0.014849867
-0.014839547
-0.014829628
-0.014820137
-0.014811095
-0.014802519
-0.014794424
-0.014786826
-0.014779749
-0.014773202
-0.014767184
-0.014761579
-0.014756906
-0.014751888
449.86634
449.82885
449.73619
449.59002
449.39023
449.13647
448.82835
448.46539
448.04702
447.57257
447.04131
446.45237
445.80484
445.09767
444.32971
443.49974
442.6064
441.64825
440.6237
439.53107
438.36856
437.13424
435.82601
434.44166
432.97883
431.43502
429.80757
428.09367
426.29032
424.39436
422.40243
420.311
418.11632
415.81444
413.4012
410.87219
408.22278
405.44808
402.54299
399.50199
396.31966
392.98934
389.50635
385.86047
382.05233
378.0608
373.90274
369.5351
364.99364
360.22544
355.23789
350.05439
344.57037
338.9266
332.9571
326.71982
320.25345
313.41142
306.29894
298.89479
291.08725
282.9293
274.46261
265.59367
256.26675
246.52578
236.41247
225.87104
214.81809
203.26771
191.26426
178.78115
165.82562
152.45306
138.66866
124.45334
109.89878
95.197126
80.521714
66.185535
52.732852
40.584823
30.216603
21.568607
13.489807
5.3287838
0.31630391
0.11993878
0.17614296
0.21432259
0.20513697
0.19887349
0.18821739
0.17657223
0.16605997
0.15620758
0.14686967
0.13803282
0.12969456
0.12184123
0.11445081
0.10749641
0.10094904
0.094779877
0.088961527
0.08346853
0.078277468
0.073366931
0.068717399
0.064311082
0.06013176
0.056164627
0.052396145
0.048813911
0.045406557
0.0421636
0.039075474
0.036133139
0.03332871
0.030653532
0.028101311
0.025666236
0.023341243
0.021121701
0.019000306
0.016972491
0.015034419
0.013181781
0.011410065
0.0097161385
0.0080947795
0.0065425536
0.0050580332
0.0036372831
0.0022776978
0.00097639799
-0.00026946036
-0.0014623905
-0.0026043585
-0.0036978413
-0.0047450263
-0.0057478791
-0.0067076474
-0.0076263382
-0.0085059948
-0.0093475667
-0.01015432
-0.010926734
-0.011665725
-0.01237279
-0.013049358
-0.013696449
-0.014315892
-0.014908436
-0.015474969
-0.016016595
-0.016534346
-0.01702916
-0.017501925
-0.017953494
-0.018384706
-0.018796322
-0.019189262
-0.019564116
-0.019921605
-0.020262446
-0.020587097
-0.020896165
-0.021190611
-0.021470724
-0.021737486
-0.021991141
-0.022231926
-0.022460435
-0.022677452
-0.022883291
-0.023078323
-0.023262994
-0.023437731
-0.023602933
-0.023758984
-0.023906256
-0.024045107
-0.024175881
-0.024298908
-0.024414508
-0.024522986
-0.024624649
-0.024719764
-0.024808636
-0.024891529
-0.024968702
-0.025040405
-0.025106888
-0.025168375
-0.025225101
-0.025277293
-0.025325162
-0.025368883
-0.025408664
-0.025444718
-0.025477228
-0.025506372
-0.025532329
-0.025555253
-0.025575318
-0.025592675
-0.025607475
-0.025619865
-0.025629984
-0.02563797
-0.025643959
-0.025648082
-0.025650452
-0.025651191
-0.025650403
-0.025648222
-0.025644745
-0.02564007
-0.025634309
-0.025627578
-0.025619962
-0.025611512
-0.025602338
-0.025592527
-0.025582148
-0.025571271
-0.025559972
-0.025548325
-0.025536404
-0.025524272
-0.025511984
-0.025499588
-0.025487145
-0.025474713
-0.025462346
-0.025450087
-0.02543798
-0.025426066
-0.025414386
-0.025402978
-0.025391878
-0.025381119
-0.025370738
-0.025360765
-0.025351226
-0.025342139
-0.025333523
-0.025325394
-0.025317771
-0.025310671
-0.025304105
-0.025298068
-0.025292452
-0.025287728
-0.025282671
441.19722
441.15975
441.06727
440.92138
440.72199
440.46874
440.16124
439.79901
439.38148
438.90799
438.3778
437.79005
437.14382
436.43806
435.67164
434.84332
433.95174
432.99547
431.97291
430.88239
429.72208
428.49006
427.18424
425.8024
424.34217
422.80106
421.17639
419.46533
417.66488
415.77187
413.78292
411.69448
409.50278
407.20385
404.7935
402.26729
399.62055
396.84836
393.94555
390.90659
387.72593
384.39693
380.91468
377.26919
373.4604
369.46794
365.30754
360.93659
356.39239
351.61571
346.62697
341.42906
335.93716
330.27891
324.28778
318.04122
311.54968
304.67437
297.54457
290.10021
282.23557
274.04858
265.52995
256.57034
247.16325
237.36207
227.14491
216.45942
205.25376
193.51207
181.29538
168.63118
155.47014
141.77041
127.5779
112.85138
97.634715
82.09446
66.516161
51.49648
37.788355
26.3914
17.367121
9.3290399
1.7279869
0.17806079
0.11661774
0.12831183
0.13707138
0.15931082
0.16487102
0.17099371
0.16365006
0.1555484
0.14721996
0.13885948
0.13065704
0.12271316
0.11508513
0.10780221
0.10087429
0.094298539
0.088064487
0.082157408
0.076560534
0.071256441
0.066227857
0.061458131
0.056931462
0.052633009
0.048548914
0.044666276
0.040973119
0.037458316
0.03411158
0.03092327
0.027884652
0.024987108
0.022223648
0.019585391
0.017067389
0.01466388
0.012367863
0.010173891
0.0080769825
0.0060724461
0.0041557114
0.0023224662
0.00056890487
-0.0011094278
-0.0027148907
-0.0042518154
-0.0057222188
-0.0071300727
-0.0084775453
-0.0097675451
-0.011002838
-0.012185914
-0.013318742
-0.014404319
-0.015442917
-0.016436876
-0.017389101
-0.018301194
-0.019174553
-0.020010673
-0.020811258
-0.021577664
-0.022311202
-0.023013258
-0.023685135
-0.024328168
-0.024943134
-0.025531298
-0.026093834
-0.026631738
-0.027145955
-0.0276374
-0.028106956
-0.02855544
-0.028983684
-0.029392259
-0.02978262
-0.030155086
-0.030510128
-0.030848337
-0.031170896
-0.031478087
-0.031770698
-0.032049173
-0.032313882
-0.032565434
-0.032804487
-0.033031536
-0.033246934
-0.033451171
-0.033644703
-0.033827955
-0.034001333
-0.034165226
-0.03432002
-0.034466084
-0.034603775
-0.034733434
-0.034855389
-0.034969957
-0.035077441
-0.035178141
-0.035272335
-0.035360311
-0.035442339
-0.03551868
-0.035589583
-0.035655297
-0.035716031
-0.035772025
-0.035823498
-0.035870655
-0.035913742
-0.035952932
-0.035988398
-0.036020334
-0.036048921
-0.036074336
-0.036096738
-0.036116294
-0.036133158
-0.036147482
-0.036159413
-0.03616909
-0.036176652
-0.03618223
-0.036185955
-0.036187945
-0.03618831
-0.036187168
-0.036184648
-0.036180855
-0.036175887
-0.036169836
-0.036162795
-0.036154865
-0.036146139
-0.036136706
-0.03612664
-0.036116014
-0.036104901
-0.036093378
-0.03608152
-0.036069394
-0.036057065
-0.036044586
-0.036032013
-0.036019403
-0.036006816
-0.035994299
-0.0359819
-0.03596966
-0.035957618
-0.035945815
-0.035934292
-0.035923088
-0.035912238
-0.035901775
-0.035891727
-0.035882115
-0.035872961
-0.035864283
-0.035856104
-0.035848441
-0.035841307
-0.035834714
-0.035828656
-0.035823033
-0.035818286
-0.035813236
432.54622
432.5088
432.41651
432.27097
432.07207
431.81945
431.51272
431.1514
430.73492
430.26263
429.73377
429.14751
428.5029
427.79891
427.0344
426.20814
425.31877
424.36484
423.34477
422.25688
421.09934
419.87021
418.5674
417.18871
415.73175
414.19401
412.57281
410.86532
409.06852
407.17921
405.194
403.10933
400.92139
398.62619
396.21949
393.69683
391.0535
388.28452
385.38465
382.34832
379.16988
375.84267
372.36152
368.71669
364.90733
360.91403
356.75067
352.37656
347.82726
343.04361
338.04874
332.83808
327.33455
321.65741
315.64766
309.38095
302.85977
295.95579
288.78769
281.29681
273.38254
265.14097
256.55339
247.50616
238.00574
228.10572
217.76469
206.92063
195.52528
183.55596
171.08175
158.15458
144.70436
130.60788
115.83311
100.38551
84.239959
67.514862
50.453769
33.99161
19.69475
10.458839
1.6234287
0.13016582
-0.019271014
0.060878787
0.072954097
0.07377876
0.096970299
0.11841828
0.13201253
0.13847419
0.13641569
0.13190591
0.12606496
0.11956932
0.11279993
0.10598056
0.099249457
0.092690955
0.086354436
0.080266524
0.074438815
0.068873323
0.063566113
0.058509669
0.05369443
0.049109792
0.044744737
0.040588241
0.036629513
0.032858148
0.029264206
0.025838249
0.022571357
0.019455129
0.016481613
0.013643456
0.010933366
0.0083456769
0.0058737677
0.0035106281
0.0012522687
-0.00090832283
-0.0029733692
-0.0049472079
-0.0068357634
-0.0086431545
-0.010372842
-0.012028498
-0.013613107
-0.01512961
-0.016581971
-0.017972553
-0.01930455
-0.020580329
-0.021801961
-0.022971918
-0.024092377
-0.025165615
-0.026193377
-0.027177586
-0.028120338
-0.029023302
-0.029887985
-0.030716262
-0.031508919
-0.032267652
-0.03299409
-0.033689496
-0.034355039
-0.034991958
-0.035601214
-0.036184006
-0.036741415
-0.037274418
-0.037783963
-0.038270954
-0.03873626
-0.039180711
-0.039605153
-0.040010319
-0.040397042
-0.040765971
-0.041117796
-0.041453234
-0.041772796
-0.042077178
-0.042366867
-0.042642522
-0.042904703
-0.043153924
-0.043390762
-0.043615725
-0.043828932
-0.044031038
-0.044222579
-0.044403941
-0.044575508
-0.044737666
-0.044890789
-0.045035245
-0.045171386
-0.045299554
-0.045420073
-0.045533259
-0.045639413
-0.04573883
-0.045831793
-0.04591858
-0.045999461
-0.046074697
-0.046144543
-0.046209242
-0.046268977
-0.046323992
-0.046374524
-0.046420778
-0.046463004
-0.046501365
-0.046536029
-0.046567189
-0.046595027
-0.046619716
-0.046641419
-0.046660298
-0.046676508
-0.046690201
-0.046701522
-0.04671061
-0.046717608
-0.046722637
-0.046725823
-0.046727299
-0.046727188
-0.046725602
-0.046722628
-0.046718381
-0.046712979
-0.046706516
-0.046699084
-0.046690778
-0.046681691
-0.046671907
-0.046661501
-0.046650549
-0.046639128
-0.04662731
-0.046615167
-0.046602767
-0.046590171
-0.046577441
-0.046564632
-0.046551805
-0.046539009
-0.046526292
-0.046513703
-0.046501282
-0.046489072
-0.046477111
-0.04646544
-0.0464541
-0.046443125
-0.046432547
-0.046422392
-0.046412683
-0.046403441
-0.046394688
-0.046386445
-0.046378724
-0.046371542
-0.046364909
-0.046358819
-0.046353177
-0.046348409
-0.046343358
423.91346
423.87609
423.78404
423.63892
423.44059
423.18872
422.88291
422.52268
422.10747
421.63661
421.10935
420.52487
419.88221
419.18035
418.41814
417.59435
416.70763
415.75652
414.73944
413.6547
412.50048
411.27484
409.97568
408.60078
407.14776
405.61409
403.9971
402.29392
400.50153
398.61671
396.63605
394.55596
392.3726
390.08195
387.67974
385.16145
382.52232
379.75732
376.86115
373.82815
370.65258
367.32776
363.8482
360.2045
356.39476
352.40098
348.23434
343.85708
339.30181
334.5104
329.50911
324.28284
318.76854
313.06806
307.03845
300.74812
294.19286
287.25489
280.04618
272.49841
264.52798
256.22889
247.55485
238.40545
228.80069
218.79188
208.30993
197.26551
185.63295
173.43553
160.69008
147.44693
133.57014
118.92845
103.44575
87.055425
69.766164
51.305184
31.745327
13.108806
0.39457601
-0.46609955
-0.15150903
-0.1140116
-0.088048414
-0.0122008
0.025040281
0.047164268
0.068647814
0.086539373
0.10156523
0.10748363
0.10894204
0.107289
0.10374221
0.099086653
0.093798834
0.088183118
0.082437669
0.076692091
0.071030675
0.065507221
0.060154795
0.054992429
0.050029572
0.045269292
0.040710437
0.036349115
0.032179698
0.028195516
0.02438932
0.020753605
0.01728082
0.013963514
0.010794412
0.0077665252
0.0048730588
0.0021076983
-0.00053585078
-0.0030630537
-0.0054801
-0.0077922535
-0.010004075
-0.012119956
-0.014144247
-0.016081921
-0.017936806
-0.019712616
-0.021412817
-0.02304078
-0.024599756
-0.026092595
-0.027522777
-0.028892152
-0.030204453
-0.031461827
-0.032666166
-0.033819752
-0.034924883
-0.035983251
-0.036997415
-0.03796941
-0.038900324
-0.039791798
-0.040645601
-0.041463631
-0.042246634
-0.042996187
-0.043713925
-0.044401071
-0.045058759
-0.045688171
-0.046290374
-0.046866471
-0.047417484
-0.04794438
-0.048448101
-0.048929551
-0.04938958
-0.049829027
-0.050248693
-0.050649432
-0.051031698
-0.051396317
-0.051744066
-0.052075603
-0.052391444
-0.052692272
-0.052978587
-0.053250967
-0.053510073
-0.053756364
-0.053990283
-0.054212305
-0.054422943
-0.054622644
-0.0548118
-0.054990834
-0.055160152
-0.05532014
-0.055471177
-0.055613626
-0.055747839
-0.055874151
-0.055992885
-0.056104351
-0.056208846
-0.056306661
-0.056398079
-0.056483375
-0.056562819
-0.056636666
-0.056705165
-0.056768552
-0.056827058
-0.056880904
-0.056930313
-0.056975494
-0.057016626
-0.057053914
-0.057087561
-0.057117746
-0.057144644
-0.057168425
-0.057189253
-0.057207288
-0.057222686
-0.057235594
-0.057246155
-0.057254507
-0.057260795
-0.057265147
-0.057267682
-0.057268525
-0.057267805
-0.057265622
-0.057262075
-0.057257275
-0.057251332
-0.057244353
-0.057236435
-0.057227673
-0.057218134
-0.057207909
-0.057197082
-0.057185729
-0.057173923
-0.057161735
-0.057149236
-0.057136495
-0.057123576
-0.057110536
-0.057097436
-0.057084328
-0.057071265
-0.057058297
-0.057045469
-0.057032824
-0.057020404
-0.057008248
-0.056996395
-0.056984885
-0.056973752
-0.056963028
-0.05695274
-0.056942911
-0.056933562
-0.056924714
-0.056916387
-0.056908595
-0.056901352
-0.056894669
-0.056888539
-0.056882871
-0.056878086
-0.056873033
415.29909
415.2618
415.17002
415.02536
414.82771
414.57671
414.27198
413.91302
413.49927
413.03008
412.5047
411.92229
411.28192
410.58254
409.82302
409.00212
408.11849
407.17068
406.1571
405.07606
403.92574
402.70418
401.4093
400.03885
398.59046
397.06159
395.44955
393.75146
391.96427
390.08476
388.10949
386.03482
383.85692
381.5717
379.17485
376.66181
374.02777
371.26761
368.37597
365.34712
362.17519
358.85347
355.37617
351.73417
347.92456
343.93064
339.7609
335.38065
330.81873
326.01991
321.01033
315.7687
310.24169
304.51752
298.46474
292.14969
285.5556
278.58221
271.32531
263.71627
255.68559
247.32046
238.54775
229.28584
219.5809
209.43399
198.78071
187.52713
175.64793
163.18631
150.16695
136.51509
122.11743
106.83291
90.517442
73.151027
54.521293
34.229402
13.340853
-0.22594875
0.35498404
-0.43504934
-0.19326357
-0.1055688
-0.074330521
-0.034718709
-0.0029251245
0.021396926
0.041691104
0.059183347
0.072110704
0.079169874
0.082407439
0.082725642
0.081032248
0.077999868
0.074100046
0.069660884
0.064910184
0.06000611
0.055058202
0.050141799
0.045308026
0.040590849
0.036012071
0.031584895
0.027316435
0.023209557
0.019264172
0.015478161
0.011848032
0.0083693949
0.0050372927
0.0018464489
-0.0012085829
-0.0041332508
-0.0069330169
-0.0096131358
-0.012178861
-0.014635137
-0.016986918
-0.019238801
-0.021395125
-0.023459884
-0.025437441
-0.027331597
-0.029146007
-0.030884187
-0.032549402
-0.034144817
-0.035673441
-0.03713814
-0.038541701
-0.039887105
-0.041176068
-0.042410945
-0.043594424
-0.044728569
-0.045815465
-0.046856783
-0.047854976
-0.048811054
-0.04972742
-0.050605605
-0.051446698
-0.052252285
-0.053023836
-0.053762751
-0.054470244
-0.055147577
-0.055795941
-0.05641651
-0.057010271
-0.057578323
-0.058121691
-0.058641311
-0.059138096
-0.059612927
-0.060066648
-0.060500088
-0.060914006
-0.061309217
-0.061686213
-0.062045826
-0.062388779
-0.062715711
-0.063027151
-0.063323755
-0.063606102
-0.063874821
-0.064130163
-0.064372749
-0.064603199
-0.064821952
-0.065029436
-0.065226082
-0.065412313
-0.065588541
-0.065755164
-0.065912565
-0.066061113
-0.066201168
-0.066333075
-0.066457166
-0.066573758
-0.066683158
-0.066785661
-0.066881556
-0.066971125
-0.067054642
-0.06713237
-0.067204554
-0.067271442
-0.067333261
-0.067390292
-0.06744273
-0.067490761
-0.067534604
-0.067574444
-0.067610493
-0.067642942
-0.067671966
-0.06769774
-0.067720436
-0.067740217
-0.067757243
-0.067771665
-0.067783634
-0.067793295
-0.067800782
-0.067806222
-0.067809746
-0.06781149
-0.067811569
-0.0678101
-0.067807196
-0.067802969
-0.067797529
-0.067790971
-0.067783392
-0.067774886
-0.067765542
-0.067755452
-0.067744701
-0.06773337
-0.067721535
-0.067709265
-0.067696633
-0.067683708
-0.067670561
-0.067657256
-0.067643849
-0.067630396
-0.067616951
-0.067603568
-0.067590297
-0.067577184
-0.067564273
-0.067551603
-0.067539212
-0.067527141
-0.067515427
-0.067504104
-0.067493205
-0.067482758
-0.067472783
-0.067463305
-0.067454344
-0.067445916
-0.067438037
-0.067430722
-0.067423978
-0.067417804
-0.067412105
-0.067407302
-0.06740225
406.70329
406.66608
406.57461
406.43049
406.2336
405.9836
405.68009
405.32258
404.91052
404.44325
403.92001
403.33998
402.70221
402.00567
401.24923
400.43165
399.55157
398.60754
397.59798
396.52119
395.37534
394.15848
392.86852
391.5032
390.06015
388.53682
386.93049
385.23828
383.45713
381.58378
379.61477
377.54644
375.37491
373.09605
370.70552
368.19869
365.57068
362.81633
359.93018
356.90641
353.73902
350.42128
346.94706
343.3075
339.49872
335.50525
331.33294
326.95002
322.38159
317.57522
312.55719
307.29952
301.75982
296.0109
289.93336
283.59183
276.9577
269.94438
262.63771
254.96204
246.87155
238.42403
229.55421
220.17223
210.35374
200.06783
189.21166
177.7384
165.60411
152.86951
139.53218
125.44188
110.44504
94.428285
77.280027
58.996209
39.523707
17.243504
-3.0880337
0.10695187
-0.11346256
-0.18380896
-0.16832221
-0.11993933
-0.082996678
-0.050386065
-0.023346251
-0.00087254917
0.018125467
0.034026617
0.045359778
0.052859895
0.057098804
0.058746956
0.058454386
0.056757437
0.054072211
0.050711178
0.046905266
0.042823732
0.038589909
0.03429313
0.029997605
0.025749004
0.02157933
0.017510529
0.013557174
0.0097284175
0.0060294531
0.0024625998
-0.00097190085
-0.0042752954
-0.0074498848
-0.010498698
-0.013425264
-0.016233406
-0.018927181
-0.021510659
-0.02398803
-0.026363355
-0.028640659
-0.0308241
-0.032917043
-0.034924129
-0.036848323
-0.038692261
-0.040460041
-0.042154992
-0.043780028
-0.045338079
-0.046831758
-0.048263805
-0.049636745
-0.050953614
-0.052215782
-0.053425416
-0.054585215
-0.055697113
-0.056763069
-0.057784503
-0.058763999
-0.059703195
-0.060603074
-0.061465094
-0.062291095
-0.063082037
-0.063840286
-0.064566909
-0.065262544
-0.065928504
-0.066566064
-0.067176457
-0.0677605
-0.068319213
-0.068853696
-0.069364865
-0.069853604
-0.070320765
-0.070767165
-0.071193606
-0.071600853
-0.071989718
-0.072360664
-0.072714421
-0.073051785
-0.073373409
-0.073679764
-0.073971436
-0.074249031
-0.074513054
-0.074764115
-0.075002675
-0.07522923
-0.075444236
-0.075648055
-0.075841149
-0.076023986
-0.076196964
-0.07636046
-0.076514851
-0.076660503
-0.076797769
-0.07692699
-0.077048495
-0.077162595
-0.077269597
-0.077369791
-0.077463465
-0.077550889
-0.077632334
-0.07770806
-0.07777831
-0.077843341
-0.077903369
-0.077958676
-0.078009438
-0.078055853
-0.078098139
-0.078136481
-0.078171083
-0.078202133
-0.078229806
-0.078254276
-0.078275712
-0.078294275
-0.078310123
-0.078323407
-0.078334278
-0.078342879
-0.078349346
-0.078353799
-0.078356373
-0.078357201
-0.078356396
-0.078354074
-0.078350345
-0.078345331
-0.078339126
-0.078331827
-0.078323532
-0.078314334
-0.078304326
-0.078293606
-0.078282254
-0.078270342
-0.078257944
-0.078245134
-0.078231985
-0.078218567
-0.078204949
-0.078191194
-0.078177356
-0.078163491
-0.078149654
-0.078135899
-0.078122278
-0.078108836
-0.078095614
-0.078082652
-0.078069989
-0.078057662
-0.078045708
-0.078034164
-0.078023062
-0.078012429
-0.078002288
-0.077992659
-0.077983562
-0.077975016
-0.077967036
-0.077959634
-0.077952822
-0.077946596
-0.077940864
-0.077936044
-0.077930993
398.12625
398.08913
397.99801
397.85449
397.65847
397.40959
397.10745
396.75158
396.34141
395.87629
395.35548
394.77812
394.1433
393.44997
392.697
391.88316
391.00709
390.06733
389.06231
387.99032
386.84954
385.63801
384.35362
382.99414
381.55715
380.04011
378.44029
376.7548
374.98054
373.11423
371.15241
369.09136
366.92718
364.65569
362.27249
359.77292
357.15201
354.40452
351.52491
348.50729
345.3455
342.03276
338.56266
334.92648
331.1195
327.12727
322.95327
318.56834
313.99393
309.18049
304.15385
298.88068
293.32805
287.55461
281.45121
275.08257
268.40713
261.35279
253.99336
246.25021
238.09613
229.56513
220.58265
211.09497
201.1445
190.71252
179.64401
167.93681
155.56074
142.52993
128.84185
114.27639
98.640953
81.893365
63.981156
45.1085
23.968875
2.5794212
0.30632437
0.0052972879
-0.045575351
-0.1189854
-0.12854826
-0.10707099
-0.08302609
-0.059658653
-0.03831986
-0.01934339
-0.0027050828
0.010733044
0.02103641
0.028395041
0.033102188
0.035588454
0.036303009
0.035653631
0.033983106
0.031566925
0.028620786
0.025310908
0.02176403
0.018076008
0.014318804
0.010546022
0.0067972273
0.0031012866
-0.00052106101
-0.0040552398
-0.0074913274
-0.010822926
-0.014046287
-0.017159642
-0.020162702
-0.023056276
-0.025841971
-0.028521971
-0.03109887
-0.033575527
-0.035955003
-0.038240422
-0.040435222
-0.042542582
-0.044565617
-0.046506969
-0.048369856
-0.050158338
-0.051874639
-0.05352146
-0.055101407
-0.056617762
-0.058072512
-0.059467697
-0.060806267
-0.062090271
-0.063321869
-0.064503537
-0.065636949
-0.066723932
-0.067766281
-0.068765697
-0.069724173
-0.070643422
-0.071524415
-0.072368599
-0.073177787
-0.073953166
-0.074696336
-0.075408482
-0.076090466
-0.076743418
-0.077368658
-0.077967119
-0.078540061
-0.079088431
-0.07961298
-0.080114615
-0.08059424
-0.081052692
-0.081490779
-0.081909244
-0.082308914
-0.082690467
-0.0830545
-0.08340172
-0.083732758
-0.084048128
-0.084348713
-0.084634968
-0.084907281
-0.085166178
-0.085412348