/*--------------------------------*- C++ -*----------------------------------*\
| =========                 |                                                 |
| \\      /  F ield         | OpenFOAM: The Open Source CFD Toolbox           |
|  \\    /   O peration     | Version:  2106                                  |
|   \\  /    A nd           | Website:  www.openfoam.com                      |
|    \\/     M anipulation  |                                                 |
\*---------------------------------------------------------------------------*/
FoamFile
{
    version     2.0;
    format      ascii;
    arch        "LSB;label=32;scalar=64";
    class       volScalarField;
    location    "0.006";
    object      p;
}
// * * * * * * * * * * * * * * * * * * * * * * * * * * * * * * * * * * * * * //

dimensions      [1 -1 -2 0 0 0 0];

internalField   nonuniform List<scalar> 
1024
(
38.998171
37.593702
34.838226
30.836662
25.741437
19.746858
13.081508
6.0002484
-1.2257389
-8.3193673
-15.007468
-21.031887
-26.159311
-30.1906
-32.968804
-34.385566
-34.385566
-32.968803
-30.190599
-26.159311
-21.031888
-15.00747
-8.3193701
-1.2257427
6.0002437
13.081503
19.746852
25.741432
30.836658
34.838222
37.593699
38.998171
40.39901
38.9412
36.081039
31.927368
26.638309
20.415399
13.495861
6.1440679
-1.3586918
-8.7246307
-15.670213
-21.927185
-27.253023
-31.44063
-34.326728
-35.798563
-35.798563
-34.326728
-31.44063
-27.253024
-21.927186
-15.670215
-8.7246338
-1.3586957
6.1440633
13.495856
20.415394
26.638304
31.927363
36.081036
38.941197
40.399009
43.20942
41.644666
38.57462
34.115967
28.438238
21.757482
14.328095
6.4335304
-1.6244906
-9.5370547
-16.999622
-23.723678
-29.448152
-33.949893
-37.052848
-38.635387
-38.635387
-37.052848
-33.949894
-29.448153
-23.72368
-16.999625
-9.537058
-1.6244945
6.4335262
14.32809
21.757478
28.438234
34.115963
38.574617
41.644664
43.209419
47.554322
45.824335
42.430004
37.500134
31.221862
23.833659
15.616336
6.8828239
-2.0336939
-10.791788
-19.054432
-26.50168
-32.843627
-37.832111
-41.271157
-43.025292
-43.025292
-41.271158
-37.832112
-32.843628
-26.501682
-19.054435
-10.791791
-2.0336974
6.8828202
15.616332
23.833655
31.221859
37.500132
42.430002
45.824333
47.554321
53.592552
51.633102
47.788435
42.204179
35.091904
26.721202
17.409437
7.5104112
-2.5992037
-12.533076
-21.909045
-30.363234
-37.565387
-43.232221
-47.139785
-49.133165
-49.133165
-47.139786
-43.232223
-37.565389
-30.363237
-21.909047
-12.533079
-2.5992069
7.5104081
17.409434
26.7212
35.091902
42.204178
47.788434
51.633101
53.592551
61.548696
59.287164
54.849651
48.403942
40.193748
30.529642
19.776879
8.3429726
-3.3385568
-14.822841
-25.668315
-35.452668
-43.791968
-50.355981
-54.883401
-57.193372
-57.193372
-54.883402
-50.355983
-43.79197
-35.452671
-25.668318
-14.822844
-3.3385595
8.3429701
19.776877
30.52964
40.193747
48.403941
54.84965
59.287163
61.548696
71.71822
69.070945
63.876432
56.330792
46.718757
35.403338
22.810538
9.41641
-4.2736767
-17.741522
-30.469532
-41.959729
-51.758693
-59.474966
-64.798768
-67.515595
-67.515595
-64.79877
-59.474968
-51.758695
-41.959731
-30.469535
-17.741525
-4.2736788
9.4164081
22.810536
35.403337
46.718756
56.330791
63.876432
69.070944
71.718219
84.478315
81.347538
75.204253
66.280141
54.911316
41.527059
26.628621
10.777998
-5.4301666
-21.389328
-36.486492
-50.126277
-61.766664
-70.937252
-77.266629
-80.497348
-80.497349
-77.26663
-70.937254
-61.766666
-50.126279
-36.486494
-21.38933
-5.4301685
10.777996
26.62862
41.527058
54.911315
66.280141
75.204252
81.347538
84.478315
100.30222
96.572492
89.254093
78.62284
65.078548
49.13358
31.380693
12.489516
-6.83577
-25.888094
-43.934974
-60.255081
-74.19459
-85.181184
-92.76704
-96.640913
-96.640913
-92.767041
-85.181185
-74.194592
-60.255083
-43.934977
-25.888097
-6.8357719
12.489514
31.380691
49.133579
65.078548
78.62284
89.254092
96.572491
100.30222
119.77512
115.30892
106.54671
93.818099
77.600474
58.510732
37.252711
14.630768
-8.5159983
-31.381173
-53.077591
-72.719197
-89.51195
-102.74989
-111.89565
-116.57014
-116.57014
-111.89565
-102.74989
-89.511952
-72.7192
-53.077594
-31.381176
-8.5160004
14.630766
37.25271
58.510732
77.600474
93.818099
106.54671
115.30892
119.77512
143.62615
138.26154
127.73656
112.44459
92.960078
70.027441
44.484076
17.308685
-10.485807
-38.037688
-64.24335
-87.994617
-108.31304
-124.3174
-135.3901
-141.05764
-141.05764
-135.3901
-124.3174
-108.31305
-87.99462
-64.243354
-38.037691
-10.485809
17.308684
44.484075
70.02744
92.960078
112.44459
127.73656
138.26154
143.62615
172.54634
166.0716
153.37886
134.95209
111.49475
83.92063
53.207501
20.61981
-12.681659
-45.882833
-77.59107
-106.40968
-131.11178
-150.50804
-164.00808
-170.93907
-170.93907
-164.00808
-150.50804
-131.11179
-106.40969
-77.591073
-45.882836
-12.681662
20.619808
53.2075
83.92063
111.49475
134.95209
153.37886
166.0716
172.54634
209.03009
201.21873
185.90098
163.63996
135.25929
101.87265
64.396259
24.841077
-15.373575
-56.005066
-94.882025
-130.12954
-160.37136
-183.66779
-200.04416
-208.46283
-208.46283
-200.04416
-183.66779
-160.37136
-130.12954
-94.882028
-56.005069
-15.373578
24.841075
64.396258
101.87265
135.25929
163.63996
185.90098
201.21873
209.03009
249.91212
240.45226
221.94183
195.08907
160.95341
121.08819
77.06253
30.095758
-17.066977
-65.679785
-112.8675
-155.70891
-192.76432
-222.71702
-243.19844
-253.65839
-253.6584
-243.19844
-222.71702
-192.76432
-155.70891
-112.8675
-65.679788
-17.06698
30.095756
77.062528
121.08819
160.95341
195.08907
221.94183
240.45226
249.91212
304.09681
292.70251
270.38419
237.90482
196.38054
147.8756
93.536504
35.727724
-19.847186
-81.629794
-139.51289
-191.63383
-236.84507
-272.71057
-297.48757
-310.19223
-310.19223
-297.48758
-272.71057
-236.84508
-191.63383
-139.5129
-81.629796
-19.847188
35.727722
93.536503
147.8756
196.38054
237.90482
270.38419
292.70251
304.09681
362.72204
348.84362
321.7254
282.35858
232.0768
173.9295
109.86107
45.642674
-15.908685
-76.91103
-121.47344
-151.96947
-171.28171
-182.03911
-187.03032
-188.92485
-188.92485
-187.03032
-182.03911
-171.28171
-151.96947
-121.47344
-76.911032
-15.908687
45.642672
109.86107
173.9295
232.0768
282.35858
321.7254
348.84362
362.72204
-188.043
-186.20689
-181.33806
-170.78743
-151.84571
-122.11814
-79.703133
-26.632091
34.16765
106.14715
172.08129
230.71049
281.10982
320.47986
347.56589
361.42719
361.42719
347.56589
320.47986
281.10981
230.71049
172.08129
106.14715
34.167649
-26.632092
-79.703134
-122.11815
-151.84571
-170.78743
-181.33806
-186.20689
-188.043
-309.67782
-297.06538
-272.48994
-236.96255
-192.3304
-141.20789
-85.098033
-26.114343
29.116766
89.262846
144.99825
194.16892
235.98855
268.58553
290.9401
302.34595
302.34595
290.9401
268.58553
235.98855
194.16892
144.99825
89.262845
29.116765
-26.114344
-85.098034
-141.20789
-192.3304
-236.96255
-272.48994
-297.06538
-309.67782
-253.43208
-243.07368
-222.85257
-193.26778
-156.79705
-114.81265
-68.785016
-21.410111
25.471612
73.176207
117.92757
158.27094
192.67582
219.66419
238.23449
247.7171
247.7171
238.23449
219.6642
192.67582
158.27094
117.92757
73.176207
25.471612
-21.410112
-68.785017
-114.81265
-156.79705
-193.26778
-222.85258
-243.07368
-253.43208
-208.40635
-200.11473
-183.94966
-161.04895
-131.34264
-96.778865
-58.685416
-18.759182
21.174986
60.900927
98.675046
132.31448
160.8617
183.21641
198.57893
206.40775
206.40775
198.57893
183.21641
160.8617
132.31448
98.675047
60.900927
21.174985
-18.759182
-58.685417
-96.778867
-131.34264
-161.04895
-183.94966
-200.11473
-208.40636
-170.92874
-164.1142
-150.83832
-131.80459
-107.57876
-79.3232
-48.211835
-15.531236
17.458459
49.962469
80.716916
108.35692
131.86808
150.32606
163.03302
169.5114
169.5114
163.03302
150.32606
131.86808
108.35692
80.716916
49.962469
17.458459
-15.531237
-48.211836
-79.323201
-107.57876
-131.80459
-150.83832
-164.1142
-170.92874
-141.17431
-135.614
-124.75179
-109.06381
-89.151439
-65.861714
-40.132511
-13.00976
14.479544
41.456205
66.899087
89.769517
109.21163
124.47059
134.97143
140.32184
140.32184
134.97143
124.47059
109.21163
89.769518
66.899087
41.456205
14.479543
-13.009761
-40.132512
-65.861716
-89.151441
-109.06381
-124.75179
-135.614
-141.17431
-115.24354
-110.73373
-101.91104
-89.139745
-72.930283
-53.949241
-32.94725
-10.756142
11.765505
33.871799
54.703833
73.445156
89.386234
101.90696
110.52831
114.92305
114.92305
110.52831
101.90697
89.386235
73.445157
54.703833
33.871798
11.765504
-10.756144
-32.947252
-53.949243
-72.930285
-89.139747
-101.91104
-110.73373
-115.24354
-99.848257
-95.942199
-88.295816
-77.22395
-63.176338
-46.724855
-28.519137
-9.2752451
10.288077
29.439636
47.47015
63.687876
77.475692
88.304644
95.761119
99.561956
99.561957
95.76112
88.304644
77.475692
63.687876
47.47015
29.439635
10.288076
-9.2752468
-28.519139
-46.724857
-63.17634
-77.223951
-88.295817
-95.9422
-99.848257
-71.595766
-68.824869
-63.391279
-55.508276
-45.485451
-33.716316
-20.656851
-6.8129877
7.2788884
21.112275
34.150374
45.891107
55.882589
63.736612
69.148306
71.907777
71.907777
69.148306
63.736612
55.882588
45.891107
34.150374
21.112274
7.2788871
-6.8129893
-20.656852
-33.716318
-45.485452
-55.508277
-63.391279
-68.824869
-71.595766
-81.173282
-78.007527
-71.805829
-62.820786
-51.414395
-38.041318
-23.227268
-7.5492997
8.401388
24.008985
38.694528
51.902206
63.13123
71.951849
78.0263
81.12262
81.12262
78.0263
71.951849
63.13123
51.902206
38.694527
24.008984
8.4013869
-7.549301
-23.22727
-38.041319
-51.414396
-62.820786
-71.805829
-78.007526
-81.173282
-30.010165
-28.867806
-26.624918
-23.363484
-19.201215
-14.286559
-8.8009284
-2.9537572
3.0238407
8.9170643
14.491656
19.537023
23.854648
27.262131
29.615672
30.817219
30.817219
29.615672
27.262131
23.854648
19.537023
14.491656
8.9170639
3.0238399
-2.9537582
-8.8009294
-14.28656
-19.201216
-23.363484
-26.624918
-28.867806
-30.010165
-85.102796
-81.796152
-75.31286
-65.909534
-53.965153
-39.951282
-24.418332
-7.9759638
8.747282
25.112534
40.523222
54.400021
66.20794
75.48201
81.865539
85.117849
85.117849
81.865539
75.482011
66.207941
54.400021
40.523223
25.112534
8.7472818
-7.9759644
-24.418332
-39.951283
-53.965154
-65.909535
-75.31286
-81.796152
-85.102795
17.101881
16.457982
15.190868
13.331503
10.862012
7.9626867
4.8161415
1.5517959
-1.7340083
-4.892541
-7.8765228
-10.570533
-12.753428
-14.418473
-15.553898
-16.131056
-16.131056
-15.553897
-14.418472
-12.753427
-10.570532
-7.8765218
-4.8925404
-1.7340082
1.5517956
4.8161408
7.9626858
10.862011
13.331502
15.190867
16.457982
17.101881
-109.95917
-105.76424
-97.54836
-85.644908
-70.603343
-52.475061
-32.178986
-10.671471
11.120309
32.392574
52.490644
70.752019
86.700455
99.059361
107.49618
111.77839
111.77839
107.49618
99.059363
86.700457
70.75202
52.490645
32.392575
11.12031
-10.671472
-32.178986
-52.475062
-70.603344
-85.644909
-97.548361
-105.76424
-109.95917
68.625251
66.0387
60.973128
53.640377
44.432885
33.140335
20.412031
6.9171896
-6.7047695
-20.012885
-32.60819
-44.117606
-54.342721
-62.202193
-67.535445
-70.234073
-70.234073
-67.535444
-62.202192
-54.34272
-44.117604
-32.608189
-20.012885
-6.7047693
6.9171894
20.41203
33.140334
44.432884
53.640377
60.973127
66.0387
68.625251
-151.72474
-145.85292
-134.34016
-117.63771
-96.315554
-71.34074
-43.712681
-14.471092
15.285968
44.444094
71.891907
96.571382
117.43092
133.79316
145.06771
150.81839
150.81839
145.06771
133.79316
117.43092
96.571383
71.891908
44.444095
15.285969
-14.471092
-43.712682
-71.340741
-96.315555
-117.63771
-134.34016
-145.85292
-151.72474
)
;

boundaryField
{
    leftWall
    {
        type            cyclic;
    }
    rightWall
    {
        type            cyclic;
    }
    lowerWall
    {
        type            calculated;
        value           nonuniform List<scalar> 
32
(
38.998171
37.593702
34.838226
30.836662
25.741437
19.746858
13.081508
6.0002484
-1.2257389
-8.3193673
-15.007468
-21.031887
-26.159311
-30.1906
-32.968804
-34.385566
-34.385566
-32.968803
-30.190599
-26.159311
-21.031888
-15.00747
-8.3193701
-1.2257427
6.0002437
13.081503
19.746852
25.741432
30.836658
34.838222
37.593699
38.998171
)
;
    }
    atmosphere
    {
        type            calculated;
        value           nonuniform List<scalar> 
32
(
-0.00022442282
-0.001966439
-0.0051756006
-0.00934708
-0.013828493
-0.017925654
-0.021011513
-0.022622485
0
0
0
0
0
0
0
0
0
0
0
0
0
0
0
0
-0.022622484
-0.021011513
-0.017925654
-0.013828493
-0.00934708
-0.0051756007
-0.0019664392
-0.00022442283
)
;
    }
    defaultFaces
    {
        type            empty;
    }
}


// ************************************************************************* //
