/*--------------------------------*- C++ -*----------------------------------*\
| =========                 |                                                 |
| \\      /  F ield         | OpenFOAM: The Open Source CFD Toolbox           |
|  \\    /   O peration     | Version:  2106                                  |
|   \\  /    A nd           | Website:  www.openfoam.com                      |
|    \\/     M anipulation  |                                                 |
\*---------------------------------------------------------------------------*/
FoamFile
{
    version     2.0;
    format      ascii;
    arch        "LSB;label=32;scalar=64";
    class       volScalarField;
    location    "0.032";
    object      p;
}
// * * * * * * * * * * * * * * * * * * * * * * * * * * * * * * * * * * * * * //

dimensions      [1 -1 -2 0 0 0 0];

internalField   nonuniform List<scalar> 
4096
(
-2.0221968
-2.00278
-1.9641318
-1.9066206
-1.8307947
-1.7373772
-1.6272594
-1.5014926
-1.3612781
-1.2079561
-1.0429934
-0.86796931
-0.68456105
-0.49452769
-0.29969357
-0.10193187
0.096850983
0.294751
0.48985668
0.68027808
0.86418087
1.039787
1.2053965
1.3594051
1.5003197
1.6267731
1.7375375
1.8315369
1.9078576
1.9657573
2.0046729
2.0242256
2.0242252
2.0046717
1.9657554
1.907855
1.8315336
1.7375336
1.6267685
1.5003146
1.3593995
1.2053904
1.0397805
0.86417403
0.68027097
0.48984937
0.29474356
0.096843497
-0.10193934
-0.29970094
-0.49453491
-0.68456804
-0.86797602
-1.0429997
-1.207962
-1.3612835
-1.5014975
-1.6272638
-1.737381
-1.8307978
-1.9066231
-1.9641336
-2.0027811
-2.0221971
-2.0446177
-2.024987
-1.9859131
-1.9277683
-1.8511068
-1.7566595
-1.6453274
-1.5181732
-1.3764111
-1.2213961
-1.0546108
-0.87765186
-0.6922148
-0.50007807
-0.30308617
-0.10313246
0.097858342
0.29795267
0.49522302
0.68776165
0.87371008
1.0512704
1.2187239
1.3744483
1.5169336
1.6447971
1.7567973
1.8518457
1.9290183
1.9875645
2.0269147
2.0466858
2.0466854
2.0269136
1.9875626
1.9290157
1.8518424
1.7567933
1.6447925
1.5169284
1.3744426
1.2187178
1.0512638
0.87370317
0.68775447
0.49521565
0.29794516
0.097850787
-0.10313999
-0.30309362
-0.50008535
-0.69222185
-0.87765862
-1.0546172
-1.2214021
-1.3764166
-1.5181781
-1.6453318
-1.7566633
-1.8511099
-1.9277708
-1.9859149
-2.0249881
-2.0446181
-2.0857219
-2.0656985
-2.025843
-1.9665349
-1.8883394
-1.7920019
-1.6784412
-1.5487409
-1.4041394
-1.2460185
-1.0758902
-0.89538298
-0.70622611
-0.51023356
-0.30928676
-0.1053168
0.09971383
0.30383118
0.50506809
0.70148107
0.89117286
1.0723091
1.2431362
1.4019989
1.5473568
1.6777988
1.7920582
1.8890243
1.9677543
2.0274822
2.0676266
2.0877968
2.0877964
2.0676254
2.0274802
1.9677516
1.8890209
1.7920541
1.6777941
1.5473515
1.4019931
1.2431299
1.0723024
0.89116582
0.70147375
0.50506057
0.30382354
0.099706133
-0.10532447
-0.30929434
-0.51024097
-0.70623329
-0.89538986
-1.0758967
-1.2460246
-1.404145
-1.548746
-1.6784457
-1.7920058
-1.8883426
-1.9665374
-2.0258448
-2.0656996
-2.0857222
-2.1466125
-2.1260073
-2.0849935
-2.0239617
-1.9434933
-1.8443551
-1.7274922
-1.5940195
-1.4452112
-1.2824887
-1.1074079
-0.92164428
-0.72697716
-0.52527313
-0.31846829
-0.10854985
0.10246279
0.31253774
0.51964982
0.7217996
0.91703394
1.1034645
1.2792863
1.4427954
1.5924058
1.726665
1.8442686
1.9440735
2.0251087
2.0865856
2.1279057
2.1486667
2.1486663
2.1279045
2.0865836
2.0251059
1.94407
1.8442644
1.7266601
1.5924003
1.4427894
1.2792799
1.1034576
0.91702669
0.72179207
0.51964209
0.31252988
0.10245488
-0.10855773
-0.31847608
-0.52528075
-0.72698454
-0.92165135
-1.1074146
-1.282495
-1.4452169
-1.5940247
-1.7274968
-1.844359
-1.9434966
-2.0239643
-2.0849954
-2.1260084
-2.1466128
-2.2281469
-2.2067627
-2.1641981
-2.1008584
-2.0173467
-1.9144584
-1.7931743
-1.6546508
-1.5002098
-1.3313263
-1.1496146
-0.95681313
-0.75476837
-0.54541731
-0.3307692
-0.11288645
0.10613507
0.3241862
0.53916465
0.74899515
0.95165007
1.145169
1.3276778
1.4974075
1.6527112
1.7920808
1.9141618
2.0177672
2.1018886
2.1657071
2.2086013
2.2301531
2.2301527
2.2086
2.1657051
2.1018857
2.0177635
1.9141575
1.7920757
1.6527055
1.4974013
1.3276711
1.1451618
0.95164255
0.74898735
0.53915663
0.32417805
0.10612687
-0.11289462
-0.33077727
-0.5454252
-0.75477601
-0.95682044
-1.1496215
-1.3313328
-1.5002158
-1.6546562
-1.7931791
-1.9144626
-2.0173501
-2.1008611
-2.1642
-2.2067638
-2.2281473
-2.3310926
-2.3087249
-2.2642028
-2.1979498
-2.1105965
-2.0029745
-1.8761092
-1.7312097
-1.5696584
-1.3929974
-1.2029149
-1.0012289
-0.78987048
-0.57086557
-0.34631574
-0.11837834
0.11075415
0.33887513
0.56378508
0.78331274
0.99533645
1.1978047
1.3887565
1.5663401
1.7288322
1.8746542
2.0023885
2.1107924
2.1988105
2.2655857
2.3104672
2.3330177
2.3330173
2.3104659
2.2655835
2.1988075
2.1107885
2.0023839
1.8746489
1.7288262
1.5663336
1.3887494
1.1977972
0.99532858
0.78330458
0.56377669
0.33886662
0.11074558
-0.11838688
-0.34632417
-0.5708738
-0.78987845
-1.0012365
-1.2029221
-1.3930042
-1.5696646
-1.7312154
-1.8761142
-2.0029788
-2.1106
-2.1979526
-2.2642048
-2.3087262
-2.331093
-2.4564202
-2.4328557
-2.3859512
-2.3161527
-2.2241241
-2.1107411
-1.9770832
-1.8244239
-1.6542187
-1.4680917
-1.2678209
-1.055321
-0.8326262
-0.60187051
-0.36526792
-0.12509131
0.11634924
0.35672855
0.59372875
0.82506164
1.0484911
1.2618547
1.4630853
1.6502312
1.8214752
1.9751532
2.1097706
2.224017
2.3167798
2.3871549
2.4344563
2.4582226
2.4582222
2.4344549
2.3871526
2.3167766
2.224013
2.1097658
1.9751476
1.8214689
1.6502243
1.4630779
1.2618468
1.0484828
0.82505303
0.59371991
0.35671958
0.11634022
-0.12510029
-0.36527679
-0.60187917
-0.83263458
-1.055329
-1.2678284
-1.4680988
-1.6542252
-1.8244298
-1.9770885
-2.1107456
-2.2241278
-2.3161556
-2.3859533
-2.432857
-2.4564206
-2.6053353
-2.5803494
-2.5306155
-2.456606
-2.3590246
-2.2387991
-2.0970736
-1.9351974
-1.7547132
-1.5573423
-1.3449692
-1.1196236
-0.88346198
-0.63874673
-0.38782533
-0.1331079
0.12295576
0.37789962
0.62926517
0.87462523
1.1116076
1.3379181
1.5513634
1.7498724
1.9315171
2.0945314
2.2373289
2.358519
2.4569206
2.5315742
2.5817515
2.606963
2.6069625
2.58175
2.5315717
2.4569172
2.3585147
2.2373238
2.0945255
1.9315105
1.7498651
1.5513555
1.3379097
1.1115987
0.8746161
0.62925581
0.37789011
0.1229462
-0.13311741
-0.38783471
-0.63875589
-0.88347084
-1.1196321
-1.3449772
-1.5573498
-1.75472
-1.9352036
-2.0970791
-2.2388039
-2.3590286
-2.4566092
-2.5306177
-2.5803508
-2.6053358
-2.7792732
-2.752628
-2.699591
-2.6206657
-2.5166019
-2.3883882
-2.2372439
-2.064607
-1.8721217
-1.6616228
-1.4351189
-1.194774
-0.94288694
-0.68187029
-0.41422726
-0.14252818
0.130614
0.40256874
0.67071327
0.93245797
1.1852716
1.4267061
1.6544206
1.8662048
2.0600004
2.2339223
2.386277
2.5155798
2.6205698
2.7002224
2.7537602
2.7806601
2.7806596
2.7537586
2.7002198
2.6205661
2.5155752
2.3862715
2.2339159
2.0599932
1.8661969
1.6544122
1.4266971
1.1852622
0.93244822
0.67070328
0.4025586
0.13060382
-0.14253831
-0.41423724
-0.68188004
-0.94289637
-1.194783
-1.4351274
-1.6616307
-1.872129
-2.0646137
-2.2372498
-2.3883933
-2.5166061
-2.620669
-2.6995934
-2.7526294
-2.7792737
-2.9799097
-2.9513517
-2.8945072
-2.8099153
-2.6983787
-2.5609563
-2.3989538
-2.2139114
-2.0075899
-1.7819549
-1.5391582
-1.2815181
-1.0114979
-0.73168286
-0.4447558
-0.15347179
0.1393681
0.4309436
0.71844243
0.99908756
1.2701642
1.5290466
1.7732237
2.000324
2.2081394
2.394647
2.5580296
2.6966938
2.8092864
2.8947077
2.9521232
2.9809717
2.9809711
2.9521215
2.8947048
2.8092824
2.6966889
2.5580237
2.3946402
2.2081317
2.0003156
1.7732146
1.529037
1.2701541
0.9990771
0.71843172
0.43093274
0.13935719
-0.15348263
-0.44476648
-0.73169328
-1.011508
-1.2815277
-1.5391673
-1.7819634
-2.0075978
-2.2139184
-2.3989601
-2.5609617
-2.6983831
-2.8099188
-2.8945097
-2.9513533
-2.9799102
-3.2091789
-3.1784369
-3.1172449
-3.0261825
-2.9061131
-2.7581755
-2.5837737
-2.3845644
-2.1624419
-1.9195203
-1.6581149
-1.3807202
-1.0899871
-0.78869788
-0.47974051
-0.166081
0.14926468
0.46325948
0.77287455
1.0751186
1.367067
1.6458907
1.9088839
2.153491
2.377332
2.5782267
2.754216
2.9035822
3.0248662
3.1168827
3.1787315
3.2098077
3.2098071
3.1787296
3.1168796
3.024862
2.9035768
2.7542095
2.5782192
2.3773237
2.1534818
1.9088741
1.6458803
1.3670561
1.0751073
0.77286301
0.46324779
0.14925296
-0.16609266
-0.47975199
-0.78870907
-1.0899979
-1.3807306
-1.6581247
-1.9195295
-2.1624503
-2.384572
-2.5837804
-2.7581813
-2.906118
-3.0261863
-3.1172476
-3.1784386
-3.2091794
-3.4692928
-3.4360754
-3.3699554
-3.2715588
-3.1418171
-2.9819595
-2.7935015
-2.5782317
-2.3381948
-2.0756738
-1.7931686
-1.4933733
-1.1791511
-0.85350798
-0.51956405
-0.18052456
0.16035083
0.49977911
0.83448568
1.161236
1.4768674
1.7783197
2.0626661
2.3271417
2.5691713
2.7863955
2.9766943
3.1382084
3.2693587
3.3688617
3.4357434
3.4693484
3.4693478
3.4357413
3.3688584
3.269354
3.1382025
2.9766872
2.7863874
2.5691622
2.3271318
2.0626555
1.7783085
1.4768556
1.1612238
0.8344732
0.49976648
0.16033817
-0.18053713
-0.51957642
-0.85352003
-1.1791628
-1.4933844
-1.7931791
-2.0756836
-2.3382039
-2.5782399
-2.7935088
-2.9819657
-3.1418223
-3.2715629
-3.3699584
-3.4360772
-3.4692934
-3.7627641
-3.7267568
-3.655083
-3.5484201
-3.4077768
-3.2344839
-3.0301821
-2.7968081
-2.5365763
-2.2519592
-1.9456647
-1.6206115
-1.279902
-0.92679392
-0.5646692
-0.19700267
0.17267115
0.54079182
0.9038074
1.2582089
1.6005644
1.9275533
2.2359985
2.5228988
2.7854585
3.0211155
3.2275676
3.4027957
3.5450844
3.6530397
3.7256034
3.7620637
3.7620629
3.7256011
3.653036
3.5450793
3.4027893
3.2275599
3.0211067
2.7854486
2.522888
2.2359869
1.927541
1.6005516
1.2581956
0.90379386
0.54077813
0.17265743
-0.19701628
-0.56468257
-0.92680695
-1.2799146
-1.6206235
-1.945676
-2.2519698
-2.5365861
-2.7968169
-3.03019
-3.2344906
-3.4077825
-3.5484246
-3.6550862
-3.7267587
-3.7627648
-4.0924322
-4.0532947
-3.9753898
-3.8594526
-3.7065778
-3.5182097
-3.2961295
-3.0424394
-2.7595438
-2.4501273
-2.1171309
-1.7637249
-1.3932798
-1.0093353
-0.61556734
-0.21575325
0.18626392
0.58661209
0.98142772
1.3668932
1.7392742
2.0949566
2.4304824
2.7425841
3.0282174
3.2845924
3.5092015
3.6998455
3.8546554
3.9721127
4.0510642
4.0907344
4.0907335
4.0510617
3.9721086
3.8546498
3.6998384
3.5091931
3.2845827
3.0282065
2.7425722
2.4304697
2.0949432
1.7392602
1.3668787
0.98141298
0.58659721
0.18624902
-0.21576801
-0.61558184
-1.0093494
-1.3932933
-1.7637378
-2.1171431
-2.4501387
-2.7595543
-3.042449
-3.2961379
-3.518217
-3.7065839
-3.8594574
-3.9753933
-4.0532968
-4.0924329
-4.4614928
-4.4188564
-4.333986
-4.207681
-4.0411321
-3.8359101
-3.5939527
-3.3175466
-3.0093077
-2.6721576
-2.3092969
-1.9241769
-1.5204673
-1.1020233
-0.67284874
-0.23705953
0.2011561
0.63757729
1.0679915
1.4882354
1.8942358
2.2820496
2.6479035
2.9882311
3.2997096
3.579293
3.8242431
4.0321582
4.2009971
4.3291009
4.4152098
4.4584767
4.4584758
4.4152071
4.3290963
4.2009909
4.0321504
3.8242338
3.5792823
3.2996977
2.9882181
2.6478896
2.282035
1.8942205
1.4882197
1.0679754
0.63756107
0.20113989
-0.23707558
-0.67286449
-1.1020386
-1.5204821
-1.9241909
-2.3093102
-2.6721699
-3.0093191
-3.3175569
-3.5939619
-3.8359181
-4.0411387
-4.2076863
-4.3339898
-4.4188587
-4.4614936
-4.8735328
-4.8269967
-4.7343627
-4.5965019
-4.4147111
-4.1907019
-3.9265855
-3.6248538
-3.2883578
-2.920282
-2.5241163
-2.1036241
-1.6628083
-1.2058751
-0.73719435
-0.26125904
0.21735737
0.69404468
1.1642006
1.6232757
2.0668175
2.4905155
2.8902432
3.2621003
3.6024516
3.9079643
4.1756422
4.4028563
4.5873723
4.7273738
4.8214817
4.8687683
4.8687673
4.8214786
4.7273687
4.5873653
4.4028476
4.1756319
3.9079525
3.6024384
3.262086
2.8902279
2.4904994
2.0668008
1.6232584
1.1641831
0.69402698
0.21733969
-0.26127653
-0.73721148
-1.2058918
-1.6628243
-2.1036393
-2.5241307
-2.9202955
-3.2883701
-3.624865
-3.9265954
-4.1907106
-4.4147183
-4.5965076
-4.7343669
-4.8269992
-4.8735337
-5.3325693
-5.2816971
-5.1804309
-5.0297208
-4.8309814
-4.5860799
-4.2973198
-3.9674201
-3.5994925
-3.1970129
-2.7637915
-2.3039383
-1.821826
-1.3220507
-0.80938897
-0.28875346
0.23485363
0.75638841
1.2708143
1.773151
2.2585236
2.7222108
3.1596923
3.5666944
3.939233
4.2736547
4.5666743
4.8154087
5.0174074
5.1706779
5.2737069
5.3254767
5.3254755
5.2737035
5.1706722
5.0173996
4.815399
4.5666627
4.2736416
3.9392184
3.5666786
3.1596755
2.7221931
2.2585052
1.7731321
1.2707951
0.75636905
0.23483431
-0.28877254
-0.80940764
-1.3220688
-1.8218434
-2.3039548
-2.7638071
-3.1970274
-3.5995059
-3.9674323
-4.2973306
-4.5860894
-4.8309893
-5.0297271
-5.1804355
-5.2816999
-5.3325702
-5.8430932
-5.7874095
-5.6765642
-5.5115946
-5.2940457
-5.0259565
-4.7098428
-4.3486748
-3.9458518
-3.5051722
-3.0308006
-2.5272304
-1.999244
-1.4518695
-0.8903347
-0.32001831
0.25360103
0.82499722
1.3886504
1.9391009
2.471003
2.9791778
3.4586659
3.904777
4.3131378
4.6797369
5.0009662
5.2736588
5.4951222
5.6631667
5.7761293
5.8328912
5.8328899
5.7761254
5.6631603
5.4951134
5.2736479
5.0009534
4.6797223
4.3131217
3.9047596
3.4586474
2.9791584
2.4709828
1.9390802
1.3886294
0.824976
0.25357989
-0.32003917
-0.89035508
-1.4518892
-1.9992629
-2.5272484
-3.0308175
-3.505188
-3.9458663
-4.348688
-4.7098546
-5.0259669
-5.2940544
-5.5116015
-5.6765692
-5.7874126
-5.8430942
-6.4101188
-6.3491045
-6.2276463
-6.0468778
-5.8084876
-5.5147042
-5.1682773
-4.7724542
-4.3309515
-3.8479234
-3.3279255
-2.7758748
-2.1970065
-1.5968266
-0.9810629
-0.35561075
0.27352243
0.90027505
1.5185904
2.1224758
2.7060616
3.2636601
3.7898226
4.2793948
4.7275695
5.1299361
5.4825263
5.781856
6.0249623
6.2094355
6.3334448
6.3957582
6.3957568
6.3334403
6.2094283
6.0249524
5.7818437
5.4825119
5.1299198
4.7275517
4.2793756
3.7898022
3.2636387
2.7060395
2.122453
1.5185673
0.90025178
0.27349926
-0.35563358
-0.98108516
-1.5968481
-2.197027
-2.7758943
-3.3279438
-3.8479405
-4.3309673
-4.7724686
-5.1682903
-5.5147155
-5.8084972
-6.0468855
-6.2276519
-6.3491079
-6.41012
-7.0392368
-6.9723241
-6.8391227
-6.6408721
-6.3794188
-6.0572
-5.6772232
-5.2430403
-4.7587176
-4.2288011
-3.6582774
-3.0525304
-2.4172949
-1.7586052
-1.0827415
-0.39617205
0.29450966
0.98264792
1.6615902
2.324752
2.9656816
3.5781252
4.1560902
4.6939059
5.1862821
5.6283631
6.0157793
6.3446926
6.6118385
6.8145608
6.9508415
7.0193224
7.0193206
6.9508364
6.8145525
6.6118272
6.3446787
6.0157631
5.628345
5.1862622
4.6938846
4.1560677
3.5781017
2.9656573
2.324727
1.6615648
0.98262234
0.29448422
-0.39619707
-1.0827659
-1.7586286
-2.4173172
-3.0525515
-3.6582971
-4.2288196
-4.7587347
-5.2430559
-5.6772373
-6.0572125
-6.3794295
-6.6408808
-6.839129
-6.972328
-7.0392381
-7.7366686
-7.663236
-7.5170532
-7.2994767
-7.0125266
-6.6588698
-6.2417971
-5.7651958
-5.2335168
-4.6517369
-4.0253169
-3.3601554
-2.6625372
-1.9390793
-1.1966728
-0.4424197
0.31643667
1.072582
1.8187029
2.5475588
3.2520516
3.9252986
4.5607027
5.1520196
5.6934216
6.1795583
6.6056123
6.9673513
7.2611739
7.4841491
7.6340495
7.7093755
7.7093735
7.6340435
7.4841395
7.2611609
6.9673354
6.6055939
6.1795379
5.6933996
5.1519961
4.5606779
3.9252727
3.2520248
2.5475313
1.8186749
1.0725538
0.31640868
-0.44244718
-1.1966994
-1.9391048
-2.6625614
-3.3601781
-4.0253382
-4.6517568
-5.2335353
-5.7652129
-6.2418126
-6.6588836
-7.0125385
-7.2994864
-7.5170604
-7.6632404
-7.7366701
-8.5093212
-8.4286859
-8.2681626
-8.029236
-7.7141174
-7.3257265
-6.8676661
-6.344192
-5.7601778
-5.1210739
-4.4328627
-3.7020085
-2.9354021
-2.1403011
-1.3242726
-0.49512122
0.33919112
1.17062
1.9911201
2.7927237
3.5676157
4.3082152
5.0072544
5.6578522
6.2535843
6.7885499
7.257434
7.6555649
7.9789657
8.2243986
8.3894022
8.4723194
8.4723171
8.3893952
8.2243873
7.9789506
7.6555467
7.2574131
6.788527
6.2535597
5.6578262
5.0072272
4.3081868
3.5675863
2.7926935
1.9910893
1.1705889
0.33916023
-0.49515147
-1.3243018
-2.1403289
-2.9354283
-3.702033
-4.4328856
-5.1210952
-5.7601976
-6.3442105
-6.8676831
-7.3257419
-7.7141309
-8.0292471
-8.2681709
-8.4286911
-8.5093229
-9.3648341
-9.2762447
-9.0998842
-8.8373788
-8.4911511
-8.064399
-7.5610687
-6.9858218
-6.3439966
-5.6415641
-4.88508
-4.0816305
-3.2387724
-2.3644661
-1.4670271
-0.55504145
0.36273292
1.277444
2.1802383
3.0623441
3.915149
4.7302974
5.4997789
6.2160072
6.8718964
7.4609354
7.9772561
8.415698
8.7718658
9.0421799
9.2239178
9.3152463
9.3152435
9.2239095
9.0421666
8.7718481
8.4156768
7.9772322
7.4609096
6.8718691
6.2159785
5.4997491
4.7302664
3.9151168
3.0623109
2.1802042
1.2774096
0.36269873
-0.55507487
-1.4670592
-2.3644965
-3.2388008
-4.0816568
-4.8851043
-5.6415867
-6.3440177
-6.9858417
-7.5610874
-8.0644162
-8.4911665
-8.8373917
-9.0998939
-9.2762507
-9.3648361
-10.311616
-10.214242
-10.02039
-9.7318442
-9.3512594
-8.8821416
-8.3288162
-7.6963919
-6.9907189
-6.2183408
-5.3864432
-4.502798
-3.5756971
-2.6138689
-1.626444
-0.62287111
0.38718238
1.3939702
2.3877564
3.3588904
4.2978668
5.1954668
6.0428615
6.8316868
7.5541258
8.2029914
8.7718021
9.2548547
9.6472887
9.9451435
10.145405
10.246045
10.246042
10.145395
9.9451274
9.6472676
9.2548298
8.7717745
8.2029621
7.5540954
6.8316554
6.0428291
5.1954331
4.2978317
3.3588538
2.3877188
1.393932
0.38714434
-0.62290819
-1.6264794
-2.6139021
-3.5757276
-4.5028259
-5.3864688
-6.2183645
-6.9907413
-7.6964134
-8.3288368
-8.8821611
-9.3512772
-9.7318593
-10.020402
-10.214249
-10.311618
-11.358863
-11.251783
-11.038605
-10.721287
-10.302744
-9.7868228
-9.1782699
-8.4826882
-7.706493
-6.8568582
-5.9416629
-4.9694342
-3.9492789
-2.8907909
-1.8039465
-0.69914228
0.41293696
1.5215075
2.6158414
3.6853601
4.7195754
5.7082951
6.6417896
7.5108409
8.306828
9.0218176
9.6486498
10.18102
10.61355
10.941857
11.162602
11.273538
11.273534
11.16259
10.941837
10.613524
10.18099
9.6486177
9.0217843
8.3067942
7.5108068
6.6417547
5.7082589
4.7195373
3.6853199
2.6157996
1.5214648
0.41289437
-0.69918369
-1.8039857
-2.8908272
-3.9493117
-4.9694635
-5.9416893
-6.8568825
-7.7065162
-8.4827111
-9.1782926
-9.7868451
-10.302765
-10.721305
-11.03862
-11.251792
-11.358866
-12.516571
-12.398757
-12.164206
-11.815071
-11.354557
-10.786894
-10.117297
-9.3519179
-8.4977974
-7.5628044
-6.5555783
-5.4854683
-4.3624603
-3.1971376
-2.0004908
-0.78387498
0.44097116
1.6620603
2.8674725
4.0455588
5.1848873
6.2741996
7.3027414
8.2603524
9.1375287
9.9255169
10.616408
11.203232
11.680039
12.041975
12.285343
12.407651
12.407645
12.285327
12.04195
11.680008
11.203196
10.61637
9.925479
9.1374915
8.260316
7.3027045
6.2741611
5.1848462
4.0455146
2.8674257
1.6620121
0.44092305
-0.78392162
-2.0005346
-3.1971774
-4.3624955
-5.4854987
-6.5556048
-7.5628286
-8.4978208
-9.3519419
-10.117323
-10.78692
-11.354583
-11.815094
-12.164224
-12.398768
-12.516575
-13.795552
-13.665854
-13.407636
-13.023272
-12.516297
-11.891371
-11.154238
-10.31166
-9.3713785
-8.3420302
-7.2330925
-6.0548292
-4.8181864
-3.5347769
-2.2167689
-0.87666466
0.4726526
1.8180053
3.1461928
4.4442018
5.6994463
6.8996625
8.0330027
9.0882524
10.054938
10.923408
11.684928
12.331797
12.857431
13.256455
13.524772
13.659621
13.659614
13.524751
13.256423
12.857391
12.331753
11.684883
10.923364
10.054897
9.0882144
8.0329649
6.8996227
5.6994024
4.4441531
3.1461402
1.8179503
0.47259768
-0.87671777
-2.2168183
-3.5348208
-4.8182239
-6.0548599
-7.2331178
-8.3420527
-9.3714008
-10.311684
-11.154265
-11.891402
-12.516329
-13.023301
-13.407659
-13.665869
-13.795557
-15.207458
-15.064591
-14.780126
-14.356693
-13.79821
-13.109823
-12.29788
-11.369828
-10.3342
-9.2004807
-7.9790679
-6.681251
-5.3190257
-3.9051783
-2.4530855
-0.97646951
0.51040338
1.9928792
3.4564322
4.8868166
6.2699741
7.5923878
8.84115
10.003907
11.069137
12.026216
12.865497
13.578482
14.157881
14.597747
14.893539
15.042198
15.042189
14.893512
14.597705
14.157829
13.578426
12.865442
12.026166
11.069094
10.00387
8.8411132
7.5923482
6.2699278
4.8867626
3.4563723
1.9928155
0.51033988
-0.97653079
-2.4531422
-3.9052273
-5.3190657
-6.681281
-7.97909
-9.2004991
-10.334219
-11.369852
-12.297911
-13.10986
-13.79825
-14.356731
-14.780157
-15.064612
-15.207465
-16.764503
-16.607058
-16.293448
-15.826623
-15.210954
-14.452144
-13.557246
-12.534471
-11.39326
-10.144036
-8.7981918
-7.3681816
-5.8671077
-4.3090895
-2.7088641
-1.0813308
0.55767025
2.1915475
3.804224
5.3802953
6.9042941
8.3612202
9.7369551
11.017904
12.191447
13.245923
14.170675
14.956346
15.594853
16.079621
16.405621
16.569462
16.569449
16.405584
16.079565
15.594784
14.956273
14.170607
13.245866
12.191402
11.01787
9.7369228
8.3611836
6.9042463
5.3802346
3.8041546
2.1914722
0.55759593
-1.0814025
-2.7089303
-4.3091451
-5.8671507
-7.3682092
-8.7982076
-10.144046
-11.393272
-12.534493
-13.557281
-14.45219
-15.211007
-15.826675
-16.293492
-16.607087
-16.764513
-18.479228
-18.305613
-17.959564
-17.444472
-16.765243
-15.928209
-14.941265
-13.813468
-12.55532
-11.178279
-9.6947971
-8.1186526
-6.4641088
-4.7468211
-2.9830908
-1.188876
0.61823484
2.4191454
4.1960257
5.9323923
7.6111988
9.2158367
10.73094
12.141534
13.433868
14.595181
15.613689
16.479114
17.18248
17.716524
18.075674
18.256176
18.256159
18.075622
17.716446
17.182385
16.479017
15.613603
14.595115
13.433825
12.14151
10.730918
9.2158071
7.61115
5.9323225
4.1959435
2.4190545
0.61814689
-1.188961
-2.9831697
-4.7468856
-6.4641562
-8.1186762
-9.6948019
-11.178275
-12.555319
-13.813484
-14.941304
-15.928268
-16.765315
-17.444545
-17.959626
-18.305653
-18.479242
-20.370645
-20.178479
-19.795989
-19.22695
-18.476797
-17.552529
-16.46312
-15.218498
-13.830511
-12.311737
-10.675641
-8.9376874
-7.1131252
-5.2195665
-3.2753404
-1.2967453
0.69671881
2.6820917
4.6396694
6.5525785
8.4017638
10.168637
11.836782
13.389574
14.812203
16.090779
17.212178
18.165199
18.939789
19.527959
19.923527
20.12234
20.122316
19.923453
19.527849
18.939657
18.165065
17.212065
16.090703
14.812167
13.389573
11.836781
10.168622
8.4017145
6.5524941
4.6395692
2.6819784
0.6966144
-1.2968471
-3.2754372
-5.2196439
-7.1131807
-8.9377046
-10.675627
-12.311707
-13.830484
-15.218503
-16.463164
-17.552608
-18.476899
-19.227053
-19.796077
-20.178538
-20.370665
-21.279565
-21.089662
-20.71151
-20.147183
-19.400607
-18.475763
-17.38024
-16.119421
-14.703664
-13.141907
-11.443063
-9.6228628
-7.6907906
-5.6648367
-3.5662404
-1.4038423
0.79910249
2.9910445
5.1477243
7.2579376
9.2973339
11.243393
13.082078
14.792139
16.359148
17.768343
19.00371
20.054445
20.908112
21.55654
21.992598
22.211638
22.211607
21.99249
21.556381
20.907918
20.054248
19.003554
17.768253
16.359121
14.792202
13.082112
11.243418
9.2972869
7.2578145
5.1476088
2.9908785
0.79899122
-1.4039647
-3.5663716
-5.664924
-7.6908701
-9.6228628
-11.44301
-13.141836
-14.703578
-16.119412
-17.380285
-18.475871
-19.400747
-20.147331
-20.711626
-21.089749
-21.279586
22.180953
21.962207
21.52675
20.879209
20.026794
18.977558
17.743947
16.336699
14.771782
13.064075
11.227865
9.2845599
7.2481385
5.1409021
2.9872695
0.79824151
-1.4017573
-3.5611957
-5.6570435
-7.6803273
-9.6099162
-11.427657
-13.124067
-14.68361
-16.097281
-17.3563
-18.45029
-19.373848
-20.119407
-20.682908
-21.060505
-21.25013
-21.250091
-21.060412
-20.682747
-20.119232
-19.373652
-18.45015
-17.356208
-16.097263
-14.683669
-13.124106
-11.427682
-9.6098731
-7.6802075
-5.6569304
-3.5610317
-1.4016465
0.79836417
2.9874023
5.1409905
7.2482218
9.2845598
11.227816
13.064001
14.771699
16.336687
17.744001
18.977666
20.026949
20.879357
21.526881
21.962289
22.180984
20.091376
19.892849
19.497882
18.91062
18.137247
17.185717
16.066062
14.789449
13.368983
11.818561
10.152969
8.3888399
6.5425537
4.6326183
2.6780514
0.69567011
-1.2948141
-3.2704675
-5.2118571
-7.1026858
-8.9246415
-10.660083
-12.293774
-13.810311
-15.196244
-16.439049
-17.526891
-18.449842
-19.198934
-19.767151
-20.149082
-20.340948
-20.340923
-20.149007
-19.767038
-19.198798
-18.449705
-17.526776
-16.438971
-15.196208
-13.81031
-12.293775
-10.660069
-8.9245926
-7.1026012
-5.211757
-3.2703541
-1.29471
0.6957717
2.6781479
4.6326955
6.542609
8.3888575
10.152956
11.818532
13.368957
14.789454
16.066105
17.185794
18.137347
18.910721
19.497968
19.892905
20.091396
18.224607
18.044398
17.685859
17.152736
16.450595
15.586675
14.569933
13.410621
12.120503
10.712331
9.1998325
7.5979706
5.9220772
4.1887087
2.4148754
0.61701604
-1.1870575
-2.9782777
-4.7390969
-6.4535701
-8.1054154
-9.6789787
-11.160014
-12.534781
-13.79085
-14.916795
-15.902131
-16.737807
-17.415938
-17.930188
-18.275663
-18.448973
-18.448955
-18.27561
-17.930108
-17.415841
-16.737708
-15.902043
-14.916728
-13.790807
-12.534758
-11.159992
-9.6789495
-8.1053668
-6.4535004
-4.7390148
-2.9781868
-1.1869697
0.61710091
2.4149541
4.1887731
5.9221246
7.5979945
9.1998377
10.712328
12.120502
13.410637
14.569971
15.586732
16.450665
17.152806
17.685919
18.044437
18.224621
16.536978
16.373442
16.048071
15.564247
14.926991
14.142859
13.219916
12.167497
10.996237
9.7177806
8.344722
6.8906364
5.3696092
3.7966
2.1870419
0.55629918
-1.0795785
-2.7040295
-4.3012466
-5.8563499
-7.3546251
-8.7819669
-10.125293
-11.372181
-12.511258
-13.532128
-14.425364
-15.18277
-15.7973
-16.263256
-16.576275
-16.733412
-16.733398
-16.576237
-16.263198
-15.797229
-15.182695
-14.425294
-13.532069
-12.511213
-11.372147
-10.125261
-8.7819304
-7.3545775
-5.8562893
-4.3011773
-2.7039543
-1.0795042
0.55637082
2.187108
3.7966555
5.3696522
6.8906642
8.3447379
9.7177911
10.996249
12.167518
13.219951
14.142904
14.927042
15.564297
16.048114
16.37347
16.536988
15.008493
14.860153
14.565013
14.126125
13.548019
12.836625
11.999216
11.044268
9.9814068
8.8212326
7.5752431
6.2557661
4.8756758
3.4484529
1.9881228
0.50889398
-0.97473958
-2.4481551
-3.8971169
-5.3079278
-6.6672358
-7.9622753
-9.1810739
-10.312368
-11.345783
-12.271856
-13.082072
-13.768998
-14.326294
-14.748824
-15.032677
-15.175228
-15.175219
-15.032649
-14.748781
-14.326241
-13.76894
-13.082016
-12.271806
-11.34574
-10.31233
-9.1810369
-7.9622357
-6.6671896
-5.3078739
-3.897057
-2.4480915
-0.97467614
0.5089552
1.9881794
3.4485019
4.8757157
6.255796
7.5752653
8.821251
9.9814257
11.044292
11.999246
12.836661
13.548058
14.126163
14.565044
14.860173
15.0085
13.624379
13.489867
13.222233
12.82423
12.299945
11.654736
10.89517
10.028925
9.0647138
8.012162
6.8817163
5.6845623
4.4325159
3.1378037
1.8129774
0.47101536
-0.87491622
-2.2116717
-3.5263988
-4.806625
-6.0402085
-7.2155612
-8.3217622
-9.348573
-10.286539
-11.127046
-11.862371
-12.485765
-12.991496
-13.374915
-13.632494
-13.761865
-13.761858
-13.632473
-13.374882
-12.991455
-12.485719
-11.862325
-11.127002
-10.286498
-9.3485347
-8.3217241
-7.2155212
-6.0401645
-4.8065763
-3.5263462
-2.2116168
-0.87486133
0.47106841
1.8130268
3.1378476
4.4325533
5.6845929
6.8817415
8.0121843
9.0647358
10.028949
10.895197
11.654766
12.299976
12.824259
13.222256
13.489882
13.624384
12.370548
12.248597
12.005949
11.645088
11.169699
10.58462
9.8957837
9.1101363
8.2355628
7.2807895
6.2552912
5.1691971
4.0332289
2.8586088
1.6567311
0.43920893
-0.78207233
-1.9951598
-3.1883473
-4.3503101
-5.4700894
-6.5371286
-7.5414688
-8.4737868
-9.3254671
-10.088663
-10.756352
-11.322399
-11.781601
-12.129741
-12.363619
-12.481091
-12.481085
-12.363603
-12.129715
-11.781569
-11.322362
-10.756314
-10.088625
-9.3254295
-8.47375
-7.5414317
-6.53709
-5.4700481
-4.3502659
-3.1883006
-1.9951117
-0.78202426
0.43925552
1.6567748
2.8586485
4.0332639
5.1692273
6.2553175
7.2808134
8.2355858
9.1101598
9.8958083
10.584645
11.169723
11.64511
12.005967
12.248608
12.370552
11.234233
11.123677
10.903694
10.576526
10.145497
9.6149753
8.9903178
8.2778063
7.4845747
6.6185276
5.6882548
4.702941
3.6722808
2.6064305
1.5158397
0.41104861
-0.69725155
-1.7983138
-2.8814891
-3.9364115
-4.9531383
-5.9221069
-6.834239
-7.6810346
-8.4546401
-9.1479043
-9.754432
-10.268637
-10.685789
-11.002051
-11.214517
-11.321235
-11.321231
-11.214504
-11.002031
-10.685763
-10.268607
-9.7543993
-9.1478705
-8.454606
-7.6810002
-6.8342039
-5.9220705
-4.9531001
-3.9363712
-2.8814472
-1.798271
-0.697209
0.41108996
1.5158788
2.6064667
3.6723135
4.7029702
5.688281
6.6185516
7.4845976
8.2778287
8.9903401
9.6149971
10.145518
10.576544
10.903708
11.123686
11.234236
10.204176
10.103942
9.904494
9.6078518
9.2170164
8.7359312
8.1694356
7.5232084
6.8037032
6.0180766
5.174112
4.2801386
3.3449477
2.37772
1.3879208
0.38516071
-0.62086366
-1.6204449
-2.6039535
-3.5619772
-4.4854188
-5.3655835
-6.1942107
-6.9635578
-7.6664658
-8.2964156
-8.8475784
-9.3148642
-9.693963
-9.9813818
-10.174474
-10.271464
-10.27146
-10.174464
-9.9813654
-9.6939416
-9.3148389
-8.8475504
-8.2963859
-7.666435
-6.9635261
-6.1941781
-5.3655497
-4.4853835
-3.5619405
-2.6039158
-1.6204067
-0.62082566
0.38519772
1.3879561
2.377753
3.3449781
4.2801663
5.1741374
6.0181
6.8037252
7.5232295
8.1694558
8.7359502
9.2170337
9.6078666
9.9045054
10.10395
10.204179
9.2704275
9.1795344
8.9986678
8.7296514
8.375194
7.9388571
7.4250135
6.8387974
6.1860473
5.4732418
4.7074312
3.8961641
3.0474113
2.1694872
1.2709623
0.36056583
-0.55289102
-1.4605977
-2.3538368
-3.2240618
-4.062994
-4.8627088
-5.6156834
-6.3148628
-6.9537202
-7.5263109
-8.0273198
-8.4521052
-8.7967379
-9.0580336
-9.23358
-9.3217581
-9.3217552
-9.2335716
-9.05802
-8.79672
-8.4520837
-8.0272956
-7.5262848
-6.9536926
-6.3148339
-5.6156534
-4.8626777
-4.0629617
-3.2240285
-2.3538028
-1.4605633
-0.55285688
0.36059916
1.2709943
2.1695175
3.0474395
3.8961902
4.7074553
5.4732642
6.1860682
6.838817
7.4250318
7.938874
8.375209
8.729664
8.9986773
9.1795404
9.2704295
8.4241359
8.3416874
8.1776204
7.9335822
7.6120194
7.2161501
6.7499275
6.2179952
5.6256366
4.9787173
4.2836239
3.5471969
2.7766617
1.9795554
1.1636479
0.33686169
-0.49280327
-1.3173473
-2.1288521
-2.9195556
-3.6819313
-4.4087601
-5.0931878
-5.7287843
-6.3095984
-6.8302079
-7.2857646
-7.6720343
-7.9854326
-8.2230549
-8.3827008
-8.4628933
-8.4628909
-8.3826937
-8.2230435
-7.9854174
-7.6720158
-7.2857435
-6.8301847
-6.3095735
-5.7287581
-5.0931605
-4.4087316
-3.6819018
-2.9195254
-2.1288213
-1.3173162
-0.49277245
0.33689185
1.163677
1.9795831
2.7766878
3.5472212
4.2836465
4.9787384
5.6256561
6.2180134
6.7499442
7.2161652
7.6120325
7.933593
8.1776285
8.3416924
8.4241376
7.6573796
7.5825597
7.4336698
7.2121987
6.920358
6.5610579
6.137874
5.6550088
5.1172455
4.5298969
3.89875
3.2300057
2.5302155