/*--------------------------------*- C++ -*----------------------------------*\
| =========                 |                                                 |
| \\      /  F ield         | OpenFOAM: The Open Source CFD Toolbox           |
|  \\    /   O peration     | Version:  2106                                  |
|   \\  /    A nd           | Website:  www.openfoam.com                      |
|    \\/     M anipulation  |                                                 |
\*---------------------------------------------------------------------------*/
FoamFile
{
    version     2.0;
    format      ascii;
    arch        "LSB;label=32;scalar=64";
    class       surfaceScalarField;
    location    "0.032";
    object      phi;
}
// * * * * * * * * * * * * * * * * * * * * * * * * * * * * * * * * * * * * * //

dimensions      [0 3 -1 0 0 0 0];

oriented        oriented;

internalField   nonuniform List<scalar> 
8064
(
9.7278212e-05
-9.7278736e-05
0.00019362844
-9.6350227e-05
0.00028813027
-9.4501829e-05
0.00037988099
-9.1750719e-05
0.00046800347
-8.8122484e-05
0.00055165438
-8.3650913e-05
0.0006300321
-7.8377712e-05
0.00070238425
-7.2352154e-05
0.00076801491
-6.5630664e-05
0.00082629125
-5.8276333e-05
0.00087664962
-5.0358377e-05
0.00091860115
-4.1951528e-05
0.00095173652
-3.3135373e-05
0.00097573016
-2.399364e-05
0.0009903436
-1.4613441e-05
0.0009954281
-5.0844984e-06
0.00099092641
4.5016936e-06
0.00097687353
1.4052884e-05
0.00095339623
2.3477299e-05
0.00092071343
3.2682799e-05
0.00087913334
4.1580087e-05
0.00082905099
5.0082351e-05
0.00077094466
5.8106331e-05
0.00070537144
6.557322e-05
0.00063296196
7.2409476e-05
0.00055441436
7.8547597e-05
0.00047048753
8.3926832e-05
0.0003819937
8.8493833e-05
0.00028979047
9.2203227e-05
0.00019477237
9.5018107e-05
9.7861932e-05
9.6910433e-05
5.9083723e-10
9.7861341e-05
-9.7860756e-05
9.7861347e-05
-0.00019477121
9.691045e-05
-0.00028978934
9.5018134e-05
-0.0003819926
9.2203265e-05
-0.00047048649
8.8493881e-05
-0.00055441338
8.392689e-05
-0.00063296104
7.8547663e-05
-0.00070537059
7.2409551e-05
-0.00077094389
6.5573302e-05
-0.00082905031
5.8106419e-05
-0.00087913275
5.0082444e-05
-0.00092071294
4.1580185e-05
-0.00095339584
3.2682901e-05
-0.00097687324
2.3477404e-05
-0.00099092623
1.4052991e-05
-0.00099542804
4.5018014e-06
-0.00099034365
-5.0843907e-06
-0.00097573031
-1.4613334e-05
-0.00095173678
-2.3993535e-05
-0.00091860151
-3.313527e-05
-0.00087665008
-4.1951429e-05
-0.00082629179
-5.0358284e-05
-0.00076801555
-5.8276245e-05
-0.00070238497
-6.5630582e-05
-0.00063003289
-7.235208e-05
-0.00055165524
-7.8377646e-05
-0.00046800438
-8.3650856e-05
-0.00037988195
-8.8122436e-05
-0.00028813127
-9.1750681e-05
-0.00019362947
-9.4501802e-05
-9.7279254e-05
-9.6350211e-05
-9.727873e-05
9.8830724e-05
-0.00019610999
0.00019671872
-0.00019423822
0.00029272896
-0.00019051206
0.00038594437
-0.00018496613
0.0004754739
-0.00017765201
0.00056046078
-0.0001686378
0.00064009062
-0.00015800756
0.00071359908
-0.00014586061
0.0007802791
-0.00013231069
0.00083948775
-0.00011748497
0.00089065235
-0.00010152298
0.00093327616
-8.4575344e-05
0.00096694329
-6.6802501e-05
0.00099132289
-4.8373235e-05
0.0010061726
-2.9463152e-05
0.0010113412
-1.0253081e-05
0.0010067702
9.0726289e-06
0.0009924951
2.8328024e-05
0.00096864515
4.7327252e-05
0.00093544223
6.5885721e-05
0.00089319937
8.3822944e-05
0.00084231786
0.00010096386
0.00078328357
0.00011714062
0.00071666246
0.00013219433
0.00064309523
0.00014597671
0.00056329116
0.00015835166
0.00047802132
0.00016919667
0.00038811097
0.00017840418
0.0002944315
0.0001858827
0.00019789182
0.00019155779
9.9429322e-05
0.00019537293
5.9715301e-10
0.00019729007
-9.9428133e-05
0.00019729008
-0.00019789065
0.00019537296
-0.00029443036
0.00019155785
-0.00038810987
0.00018588277
-0.00047802026
0.00017840428
-0.00056329016
0.00016919679
-0.00064309429
0.00015835179
-0.0007166616
0.00014597686
-0.0007832828
0.00013219449
-0.00084231717
0.0001171408
-0.00089319878
0.00010096405
-0.00093544174
8.3823142e-05
-0.00096864476
6.5885926e-05
-0.00099249482
4.7327462e-05
-0.0010067701
2.8328239e-05
-0.0010113411
9.0728455e-06
-0.0010061726
-1.0252864e-05
-0.00099132304
-2.9462938e-05
-0.00096694355
-4.8373024e-05
-0.00093327652
-6.6802296e-05
-0.0008906528
-8.4575146e-05
-0.0008394883
-0.00010152279
-0.00078027974
-0.0001174848
-0.0007135998
-0.00013231053
-0.00064009142
-0.00014586046
-0.00056046164
-0.00015800742
-0.00047547482
-0.00016863768
-0.00038594534
-0.00017765191
-0.00029272996
-0.00018496606
-0.00019671976
-0.00019051201
-9.8831777e-05
-0.00019423819
-0.00019610998
0.00010148461
-0.00029759513
0.00020200119
-0.0002947548
0.00030058962
-0.0002891005
0.00039630825
-0.00028068476
0.0004882421
-0.00026958586
0.00057551142
-0.00025590711
0.00065727996
-0.0002397761
0.00073276288
-0.00022134352
0.00080123414
-0.00020078196
0.00086203354
-0.00017828438
0.00091457305
-0.00015406249
0.00095834257
-0.00012834487
0.00099291503
-0.00010137496
0.0010179507
-7.3408873e-05
0.0010332006
-4.471307e-05
0.0010385094
-1.5561914e-05
0.0010338171
1.3764906e-05
0.00101916
4.2985123e-05
0.00099467083
7.1816466e-05
0.00096057733
9.9979224e-05
0.00091720088
0.0001271994
0.00086495346
0.00015321127
0.00080433396
0.00017776012
0.00073592349
0.0002006048
0.00066037994
0.00022152027
0.00057843164
0.00024029995
0.00049087039
0.00025675793
0.00039854363
0.00027073094
0.00030234621
0.00028208011
0.00020321151
0.00029069249
0.00010210219
0.00029648225
6.0770515e-10
0.00029939165
-0.00010210098
0.00029939167
-0.00020321032
0.0002964823
-0.00030234504
0.00029069257
-0.0003985425
0.00028208023
-0.00049086931
0.00027073109
-0.00057843063
0.00025675811
-0.00066037899
0.00024030015
-0.00073592262
0.00022152049
-0.00080433317
0.00020060505
-0.00086495276
0.00017776039
-0.00091720027
0.00015321156
-0.00096057683
0.00012719969
-0.00099467043
9.9979534e-05
-0.0010191598
7.1816784e-05
-0.001033817
4.2985448e-05
-0.0010385094
1.3765233e-05
-0.0010332006
-1.5561587e-05
-0.0010179508
-4.4712746e-05
-0.00099291529
-7.3408555e-05
-0.00095834294
-0.00010137465
-0.00091457351
-0.00012834457
-0.0008620341
-0.0001540622
-0.00080123479
-0.00017828411
-0.00073276361
-0.00020078171
-0.00065728077
-0.0002213433
-0.0005755123
-0.0002397759
-0.00048824304
-0.00025590694
-0.00039630924
-0.00026958571
-0.00030059065
-0.00028068465
-0.00020200224
-0.00028910042
-0.00010148568
-0.00029475475
-0.00029759512
0.00010526283
-0.00040285852
0.00020952156
-0.00039901353
0.0003117803
-0.00039135924
0.00041106231
-0.00037996677
0.00050641853
-0.00036494207
0.00059693646
-0.00034642504
0.00068174872
-0.00032458836
0.00076004125
-0.00029963605
0.00083106103
-0.00027180174
0.00089412331
-0.00024134665
0.0009486182
-0.00020855737
0.00099401666
-0.00017374333
0.0010298758
-0.00013723406
0.0010558431
-9.9376245e-05
0.0010716606
-6.0530569e-05
0.0010771671
-2.1068406e-05
0.0010723004
1.8631663e-05
0.001057098
5.8187476e-05
0.0010316976
9.7216871e-05
0.00099633548
0.00013534136
0.00095134488
0.00017218999
0.00089715309
0.00020740307
0.00083427749
0.00024063572
0.00076332079
0.0002715615
0.00068496534
0.00029987572
0.00059996658
0.00032529872
0.00050914572
0.00034757878
0.00041338181
0.00036649486
0.00031360299
0.00038185893
0.00021077743
0.00039351805
0.00010590365
0.00040135603
6.2312358e-10
0.00040529468
-0.00010590241
0.0004052947
-0.00021077621
0.00040135609
-0.0003136018
0.00039351816
-0.00041338065
0.00038185908
-0.00050914462
0.00036649506
-0.00059996553
0.00034757902
-0.00068496437
0.00032529899
-0.0007633199
0.00029987602
-0.00083427668
0.00027156183
-0.00089715237
0.00024063608
-0.00095134427
0.00020740345
-0.00099633497
0.00017219039
-0.0010316972
0.00013534177
-0.0010570977
9.7217299e-05
-0.0010723002
5.8187912e-05
-0.0010771671
1.8632103e-05
-0.0010716607
-2.1067966e-05
-0.0010558433
-6.0530133e-05
-0.001029876
-9.9375817e-05
-0.00099401703
-0.00013723365
-0.00094861867
-0.00017374293
-0.00089412388
-0.00020855699
-0.00083106169
-0.00024134629
-0.000760042
-0.0002718014
-0.00068174954
-0.00029963575
-0.00059693735
-0.00032458809
-0.00050641949
-0.00034642481
-0.00041106332
-0.00036494188
-0.00031178135
-0.00037996662
-0.00020952264
-0.00039135913
-0.00010526393
-0.00039901346
-0.0004028585
0.00011020103
-0.00051306012
0.00021935075
-0.00050816325
0.00032640648
-0.00049841497
0.00043034558
-0.00048390587
0.00053017442
-0.00046477091
0.00062493765
-0.00044118827
0.0007137272
-0.00041337792
0.00079569084
-0.00038159969
0.00087004028
-0.00034615117
0.00093605869
-0.00030736506
0.00099310767
-0.00026560636
0.0010406335
-0.00022126914
0.0010781725
-0.00017477308
0.0011053559
-0.00012655968
0.0011219136
-7.7088268e-05
0.001127677
-2.6831759e-05
0.0011225809
2.3727744e-05
0.0011066648
7.4103539e-05
0.0010800728
0.00012380894
0.0010430521
0.00017236202
0.00099595173
0.00021929038
0.00093921889
0.00026413591
0.0008733952
0.00030645942
0.00079911157
0.00034584512
0.0007170823
0.00038190499
0.00062809821
0.00041428281
0.00053301902
0.00044265798
0.00043276493
0.00046674895
0.00032830763
0.00048631623
0.00022066068
0.000501165
0.00011086943
0.00051114728
6.4394326e-10
0.00051616346
-0.00011086814
0.00051616349
-0.00022065941
0.00051114736
-0.0003283064
0.00050116515
-0.00043276373
0.00048631642
-0.00053301788
0.0004667492
-0.00062809714
0.00044265828
-0.0007170813
0.00041428315
-0.00079911065
0.00038190537
-0.00087339436
0.00034584554
-0.00093921815
0.00030645987
-0.00099595109
0.00026413639
-0.0010430516
0.00021929088
-0.0010800724
0.00017236254
-0.0011066645
0.00012380948
-0.0011225807
7.4104089e-05
-0.0011276769
2.37283e-05
-0.0011219137
-2.6831204e-05
-0.0011053561
-7.7087717e-05
-0.0010781728
-0.00012655914
-0.0010406339
-0.00017477256
-0.00099310815
-0.00022126863
-0.00093605927
-0.00026560587
-0.00087004095
-0.0003073646
-0.00079569161
-0.00034615075
-0.00071372805
-0.00038159931
-0.00062493857
-0.00041337757
-0.0005301754
-0.00044118797
-0.00043034662
-0.00046477066
-0.00032640756
-0.00048390568
-0.00021935186
-0.00049841483
-0.00011020216
-0.00050816316
-0.00051306009
0.0001163501
-0.00062941081
0.00023159006
-0.00062340321
0.00034461888
-0.00061144379
0.00045435673
-0.00059364372
0.00055975443
-0.00057016861
0.00065980329
-0.00054123712
0.00075354452
-0.00050711915
0.00084007839
-0.00046813356
0.00091857267
-0.00042464545
0.00098827066
-0.00037706306
0.0010484985
-0.0003258342
0.0010986717
-0.00027144234
0.001138301
-0.00021440235
0.0011669971
-0.00015525584
0.0011844751
-9.4566249e-05
0.001190557
-3.2913708e-05
0.0011851744
2.911042e-05
0.0011683688
9.090911e-05
0.0011402924
0.00015188538
0.0011012063
0.00021144808
0.0010514789
0.00026901776
0.00099158239
0.00032403245
0.00092208845
0.00037595336
0.00084366313
0.00042427043
0.0007570605
0.00046850762
0.0006631154
0.00050822791
0.00056273543
0.00054303795
0.00045689208
0.0005725923
0.00034661119
0.00059659712
0.00023296279
0.0006148134
0.00011705054
0.00062705953
6.7053641e-10
0.00063321333
-0.0001170492
0.00063321336
-0.00023296148
0.00062705963
-0.0003466099
0.00061481357
-0.00045689084
0.00059659736
-0.00056273425
0.0005725926
-0.00066311428
0.00054303831
-0.00075705945
0.00050822832
-0.00084366217
0.00046850809
-0.00092208758
0.00042427095
-0.00099158162
0.00037595391
-0.0010514783
0.00032403303
-0.0011012057
0.00026901837
-0.0011402919
0.00021144872
-0.0011683685
0.00015188604
-0.0011851742
9.090978e-05
-0.001190557
2.9111095e-05
-0.0011844751
-3.2913033e-05
-0.0011669973
-9.4565579e-05
-0.0011383012
-0.00015525518
-0.0010986721
-0.00021440171
-0.001048499
-0.00027144172
-0.00098827126
-0.00032583361
-0.00091857337
-0.0003770625
-0.00084007918
-0.00042464493
-0.0007535454
-0.00046813309
-0.00065980424
-0.00050711873
-0.00055975546
-0.00054123676
-0.00045435781
-0.00057016831
-0.00034462
-0.00059364348
-0.00023159121
-0.00061144362
-0.00011635127
-0.0006234031
-0.00062941077
0.00012378182
-0.00075319325
0.00024638234
-0.00074600373
0.00036663002
-0.00073169147
0.00048337587
-0.00071038958
0.00059550355
-0.00068229629
0.00070193983
-0.0006476734
0.00080166468
-0.000606844
0.0008937209
-0.00056018978
0.00097722323
-0.00050814778
0.0010513668
-0.00045120664
0.001115435
-0.00038990234
0.0011688061
-0.00032481349
0.00121096
-0.00025655623
0.0012414828
-0.00018577869
0.0012600717
-0.00011315508
0.0012665375
-3.9379526e-05
0.0012608075
3.48404e-05
0.0012429262
0.00010879037
0.0012130555
0.00018175611
0.0011714732
0.00025303035
0.0011185712
0.00032191977
0.0010548517
0.00038775197
0.00098092282
0.00044988223
0.00089749306
0.0005077002
0.00080536447
0.00056063621
0.00070542511
0.00060816727
0.0005986404
0.00064982265
0.00048604378
0.00068518892
0.00036872649
0.00071391441
0.00024782684
0.00073571305
0.00012451888
0.0007503675
7.0308933e-10
0.0007577315
-0.00012451748
0.00075773154
-0.00024782546
0.00075036762
-0.00036872515
0.00073571326
-0.00048604248
0.0007139147
-0.00059863916
0.00068518928
-0.00070542393
0.00064982308
-0.00080536338
0.00060816777
-0.00089749205
0.00056063676
-0.00098092191
0.00050770081
-0.0010548509
0.00044988289
-0.0011185705
0.00038775266
-0.0011714726
0.00032192051
-0.001213055
0.00025303111
-0.0012429259
0.00018175689
-0.0012608073
0.00010879116
-0.0012665374
3.4841199e-05
-0.0012600717
-3.9378726e-05
-0.001241483
-0.00011315428
-0.0012109603
-0.00018577791
-0.0011688065
-0.00025655547
-0.0011154355
-0.00032481275
-0.0010513674
-0.00038990164
-0.00097722396
-0.00045120598
-0.00089372172
-0.00050814717
-0.00080166559
-0.00056018922
-0.00070194083
-0.0006068435
-0.00059550462
-0.00064767297
-0.000483377
-0.00068229593
-0.0003666312
-0.00071038929
-0.00024638355
-0.00073169127
-0.00012378305
-0.0007460036
-0.0007531932
0.00013259758
-0.00088579147
0.00026392937
-0.00087733552
0.00039274011
-0.00086050221
0.0005177987
-0.00083544816
0.00063790907
-0.00080240667
0.00075192144
-0.00076168577
0.00085874308
-0.00071366564
0.0009573487
-0.00065879539
0.0010467901
-0.00059758921
0.0011262054
-0.00053062193
0.0011948271
-0.00045852406
0.0012519898
-0.00038197619
0.0012971366
-0.00030170299
0.0013298246
-0.00021846667
0.0013497296
-0.00013306009
0.0013566495
-4.6299446e-05
0.0013505066
4.0983288e-05
0.0013313488
0.00012794821
0.0012993494
0.00021375549
0.0012548063
0.00029757352
0.0011981389
0.0003785871
0.0011298853
0.00045600556
0.0010506968
0.00052907078
0.000961332
0.00059706499
0.00086264997
0.00065931824
0.0007556018
0.00071521544
0.00064122151
0.00076420295
0.00052061594
0.00080579449
0.00039495394
0.00083957642
0.00026545473
0.00086521226
0.00013337589
0.00088244634
7.4160266e-10
0.00089110665
-0.00013337441
0.0008911067
-0.00026545328
0.00088244649
-0.00039495252
0.0008652125
-0.00052061457
0.00083957675
-0.0006412202
0.00080579491
-0.00075560057
0.00076420345
-0.00086264882
0.00071521602
-0.00096133095
0.00065931889
-0.0010506958
0.0005970657
-0.0011298845
0.00052907154
-0.0011981382
0.00045600637
-0.0012548056
0.00037858795
-0.0012993489
0.0002975744
-0.0013313484
0.00021375639
-0.0013505064
0.00012794913
-0.0013566494
4.0984217e-05
-0.0013497296
-4.6298516e-05
-0.0013298247
-0.00013305917
-0.0012971369
-0.00021846577
-0.0012519902
-0.00030170211
-0.0011948277
-0.00038197534
-0.0011262061
-0.00045852324
-0.0010467909
-0.00053062116
-0.00095734956
-0.00059758849
-0.00085874404
-0.00065879474
-0.00075192248
-0.00071366506
-0.00063791019
-0.00076168526
-0.00051779988
-0.00080240624
-0.00039274134
-0.00083544782
-0.00026393064
-0.00086050197
-0.00013259887
-0.00087733538
-0.00088579142
0.00014293958
-0.0010287317
0.00028451418
-0.0010189101
0.00042337021
-0.00099935824
0.00055818018
-0.00097025813
0.00068765448
-0.00093188096
0.00081055344
-0.00088458473
0.00092569907
-0.00082881127
0.0010319862
-0.00076508249
0.0011283928
-0.00069399587
0.0012139902
-0.00061621931
0.0012879514
-0.0005324853
0.0013495597
-0.00044358444
0.0013982151
-0.00035035843
0.0014334409
-0.00025369249
0.0014548882
-0.0001545073
0.0014623393
-5.3750597e-05
0.001455711
4.7611623e-05
0.001435055
0.00014860421
0.0014005583
0.00024825211
0.0013525421
0.00034558981
0.0012914584
0.00043967078
0.0012178869
0.00052957698
0.0011325297
0.00061442806
0.0010362041
0.0006933905
0.00092983613
0.00076568625
0.00081445064
0.00083060094
0.00069116207
0.00088749151
0.00056116342
0.00093579314
0.00042571447
0.00097502537
0.00028612941
0.0010047973
0.00014376375
0.001024812
7.8589727e-10
0.0010348696
-0.00014376218
0.0010348697
-0.00028612787
0.0010248122
-0.00042571297
0.0010047976
-0.00056116197
0.00097502575
-0.00069116069
0.00093579363
-0.00081444933
0.00088749209
-0.00092983492
0.00083060161
-0.001036203
0.000765687
-0.0011325287
0.00069339132
-0.001217886
0.00061442894
-0.0012914576
0.00052957791
-0.0013525414
0.00043967176
-0.0014005578
0.00034559082
-0.0014350546
0.00024825315
-0.0014557107
0.00014860527
-0.0014623392
4.7612689e-05
-0.0014548882
-5.3749531e-05
-0.0014334411
-0.00015450624
-0.0013982154
-0.00025369144
-0.0013495601
-0.00035035742
-0.001287952
-0.00044358346
-0.0012139909
-0.00053248436
-0.0011283936
-0.00061621842
-0.0010319871
-0.00069399504
-0.00092570007
-0.00076508173
-0.00081055454
-0.00082881059
-0.00068765566
-0.00088458414
-0.00055818143
-0.00093188046
-0.00042337151
-0.00097025774
-0.00028451552
-0.00099935796
-0.00014294095
-0.00101891
-0.0010287317
0.00015500337
-0.0011837358
0.00030852595
-0.0011724327
0.00045909934
-0.0011499316
0.00060528352
-0.0011164423
0.00074567967
-0.0010722771
0.00087894326
-0.0010178483
0.0010037968
-0.00095366482
0.0011190419
-0.00088032762
0.0012235708
-0.00079852471
0.0013163765
-0.00070902506
0.0013965631
-0.00061267189
0.0014633539
-0.0005103752
0.0015160991
-0.00040310365
0.0015542825
-0.00029187583
0.0015775262
-0.00017775102
0.0015855951
-6.181949e-05
0.0015783991
5.4807589e-05
0.0015559948
0.00017100855
0.001518585
0.00028566187
0.0014665179
0.00039765695
0.0014002836
0.00050590504
0.0013205106
0.00060935001
0.0012279595
0.00070697909
0.0011235168
0.00079783325
0.0010081858
0.00088101722
0.00088307779
0.00095570896
0.00074940087
0.0010211684
0.00060844843
0.0010767456
0.00046158636
0.0011218874
0.00031023955
0.0011561441
0.00015587774
0.0011791738
8.3562286e-10
0.0011907465
-0.00015587608
0.0011907466
-0.00031023791
0.001179174
-0.00046158476
0.0011561444
-0.00060844689
0.0011218879
-0.0007493994
0.0010767461
-0.00088307641
0.0010211691
-0.0010081845
0.00095570973
-0.0011235156
0.00088101808
-0.0012279585
0.00079783419
-0.0013205096
0.0007069801
-0.0014002828
0.00060935108
-0.0014665172
0.00050590615
-0.0015185845
0.0003976581
-0.0015559944
0.00028566305
-0.0015783988
0.00017100975
-0.001585595
5.4808797e-05
-0.0015775262
-6.1818282e-05
-0.0015542826
-0.00017774982
-0.0015160994
-0.00029187465
-0.0014633543
-0.0004031025
-0.0013965637
-0.00051037408
-0.0013163772
-0.00061267081
-0.0012235716
-0.00070902404
-0.0011190429
-0.00079852376
-0.0010037979
-0.00088032676
-0.00087894443
-0.00095366405
-0.00074568092
-0.0010178476
-0.00060528485
-0.0010722765
-0.00045910072
-0.0011164419
-0.00030852738
-0.0011499313
-0.00015500483
-0.0011724325
-0.0011837358
0.00016905001
-0.0013527866
0.00033648421
-0.0013398669
0.00050070043
-0.0013141478
0.0006601275
-0.0012758694
0.00081323934
-0.0012253889
0.00095856926
-0.0011631782
0.0010947239
-0.0010898195
0.0012203965
-0.0010060002
0.001334379
-0.00091250723
0.001435574
-0.0008102201
0.0015230051
-0.00070010294
0.001595826
-0.00058319611
0.0016533291
-0.00046060681
0.0016949524
-0.00033349908
0.0017202846
-0.00020308328
0.0017290701
-7.0605004e-05
0.0017212113
6.2666408e-05
0.0016967702
0.00019544972
0.0016559682
0.00032646387
0.0015991848
0.00045444027
0.0015269547
0.00057813518
0.0014399627
0.00069634205
0.001339038
0.00080790373
0.0012251469
0.00091172438
0.0010993832
0.0010067809
0.00096295842
0.0010921338
0.00081718972
0.0011669371
0.00066348734
0.001230448
0.00050334063
0.0012820341
0.00033830336
0.0013211814
0.00016997823
0.0013474989
8.9028359e-10
0.0013607239
-0.00016997646
0.0013607239
-0.00033830161
0.0013474992
-0.00050333893
0.0013211818
-0.0006634857
0.0012820346
-0.00081718816
0.0012304486
-0.00096295695
0.0011669379
-0.0010993818
0.0010921346
-0.0012251456
0.0010067819
-0.0013390369
0.00091172544
-0.0014399617
0.00080790487
-0.0015269538
0.00069634325
-0.0015991841
0.00057813643
-0.0016559676
0.00045444157
-0.0016967697
0.0003264652
-0.001721211
0.00019545107
-0.00172907
6.2667765e-05
-0.0017202846
-7.0603646e-05
-0.0016949525
-0.00020308193
-0.0016533294
-0.00033349774
-0.0015958264
-0.0004606055
-0.0015230057
-0.00058319485
-0.0014355748
-0.00070010173
-0.0013343799
-0.00081021895
-0.0012203975
-0.00091250615
-0.001094725
-0.0010059992
-0.00095857049
-0.0010898186
-0.00081324066
-0.0011631775
-0.00066012891
-0.0012253883
-0.0005007019
-0.0012758689
-0.00033648573
-0.0013141475
-0.00016905156
-0.0013398667
-0.0013527866
0.00018541534
-0.0015382028
0.0003690574
-0.001523509
0.00054916795
-0.0014942584
0.00072402289
-0.0014507243
0.00089194773
-0.0013933138
0.0010513334
-0.0013225639
0.0012006515
-0.0012391376
0.0013384689
-0.0011438175
0.0014634611
-0.0010374995
0.0015744253
-0.00092118424
0.0016702913
-0.00079596894
0.0017501322
-0.00066303707
0.0018131733
-0.00052364787
0.0018587992
-0.00037912496
0.0018865602
-0.00023084431
0.0018961769
-8.0221684e-05
0.001887543
7.1300329e-05
0.0018607269
0.00022226576
0.001815972
0.00037121884
0.0017536943
0.00051671796
0.0016744798
0.00065734963
0.0015790794
0.00079174248
0.001468402
0.00091858112
0.0013435067
0.0010366197
0.0012055927
0.0011446949
0.0010559881
0.0012417384
0.00089613707
0.0013267881
0.00072758596
0.0013989991
0.00055196786
0.0014576522
0.0003709866
0.0015021627
0.00018639973
0.0015320858
9.4931245e-10
0.0015471226
-0.00018639784
0.0015471227
-0.00037098474
0.0015320861
-0.00055196605
0.0015021631
-0.00072758422
0.0014576528
-0.00089613541
0.0013989998
-0.0010559865
0.001326789
-0.0012055912
0.0012417393
-0.0013435054
0.001144696
-0.0014684008
0.0010366209
-0.0015790783
0.0009185824
-0.0016744789
0.00079174382
-0.0017536935
0.00065735103
-0.0018159714
0.00051671941
-0.0018607265
0.00037122032
-0.0018875427
0.00022226726
-0.0018961767
7.1301841e-05
-0.0018865602
-8.022017e-05
-0.0018587993
-0.0002308428
-0.0018131736
-0.00037912347
-0.0017501327
-0.00052364641
-0.0016702919
-0.00066303565
-0.0015744261
-0.00079596758
-0.0014634621
-0.00092118294
-0.00133847
-0.0010374983
-0.0012006527
-0.0011438164
-0.0010513347
-0.0012391366
-0.00089194914
-0.001322563
-0.00072402439
-0.001393313
-0.00054916952
-0.0014507238
-0.00036905903
-0.001494258
-0.000185417
-0.0015235087
-0.0015382027
0.00020451315
-0.0017427169
0.00040706902
-0.0017260648
0.00060572706
-0.0016929164
0.00079858452
-0.0016435818
0.00098379358
-0.0015785228
0.0011595789
-0.0014983492
0.0013242544
-0.0014038132
0.0014762396
-0.0012958027
0.0016140741
-0.001175334
0.001736432
-0.0010435422
0.0018421343
-0.00090167128
0.0019301602
-0.00075106296
0.0019996566
-0.0005931443
0.0020499466
-0.00042941495
0.0020805357
-0.00026143343
0.0020911171
-9.080301e-05
0.0020815744
8.0842951e-05
0.0020519841
0.0002518561
0.0020026146
0.00042058835
0.001933925
0.00058540759
0.0018465612
0.00074471338
0.0017413509
0.00089695276
0.0016192961
0.001040636
0.001481564
0.0011743518
0.0013294768
0.0012967822
0.0011644984
0.0014067167
0.00098822134
0.0015030652
0.00080235038
0.00158487
0.00060868634
0.0016513163
0.00040910803
0.001701741
0.00020555358
0.0017356403
1.0122423e-09
0.0017526752
-0.00020555157
0.0017526753
-0.00040910605
0.0017356406
-0.00060868442
0.0017017414
-0.00080234853
0.0016513169
-0.00098821958
0.0015848708
-0.0011644968
0.0015030662
-0.0013294752
0.0014067178
-0.0014815626
0.0012967834
-0.0016192948
0.0011743531
-0.0017413498
0.0010406374
-0.0018465603
0.00089695426
-0.0019339242
0.00074471494
-0.0020026139
0.0005854092
-0.0020519836
0.00042058999
-0.0020815741
0.00025185776
-0.0020911169
8.0844626e-05
-0.0020805357
-9.0801333e-05
-0.0020499468
-0.00026143176
-0.001999657
-0.0004294133
-0.0019301607
-0.00059314268
-0.001842135
-0.00075106138
-0.0017364328
-0.00090166976
-0.001614075
-0.0010435407
-0.0014762407
-0.0011753326
-0.0013242557
-0.0012958014
-0.0011595803
-0.001403812
-0.00098379508
-0.0014983482
-0.00079858612
-0.001578522
-0.00060572874
-0.0016435811
-0.00040707076
-0.0016929159
-0.00020451492
-0.0017260645
-0.0017427168
0.00022682759
-0.0019695454
0.00045148262
-0.0019507199
0.00067181129
-0.0019132451
0.00088570185
-0.0018574724
0.0010911038
-0.0017839248
0.0012860473
-0.0016932927
0.0014686621
-0.0015864279
0.0016371952
-0.0014643358
0.0017900278
-0.0013281666
0.0019256905
-0.0011792048
0.002042877
-0.0010188578
0.0021404571
-0.00084864307
0.0022174868
-0.00067017401
0.0022732174
-0.00048514553
0.0023071025
-0.00029531856
0.0023188036
-0.00010250406
0.0023081931
9.1453412e-05
0.0022753567
0.00028469257
0.0022205925
0.0004753525
0.0021444099
0.00066159022
0.002047525
0.0008415983
0.001930855
0.0010136227
0.0017955106
0.0011759804
0.0016427855
0.0013270768
0.0014741451
0.0014654225
0.0012912125
0.0015896493
0.0010957527
0.001698525
0.0008896558
0.0017909669
0.00067491839
0.0018660537
0.0004536235
0.0019230359
0.00022792001
0.0019613438
1.0790375e-09
0.0019805941
-0.00022791786
0.0019805942
-0.00045362139
0.0019613441
-0.00067491634
0.0019230364
-0.00088965383
0.0018660544
-0.0010957508
0.0017909678
-0.0012912107
0.0016985261
-0.0014741435
0.0015896506
-0.001642784
0.0014654239
-0.0017955093
0.0013270783
-0.0019308539
0.001175982
-0.002047524
0.0010136244
-0.002144409
0.00084160003
-0.0022205918
0.00066159199
-0.0022753562
0.00047535431
-0.0023081928
0.0002846944
-0.0023188034
9.1455253e-05
-0.0023071025
-0.00010250221
-0.0022732176
-0.00029531673
-0.0022174872
-0.00048514371
-0.0021404576
-0.00067017222
-0.0020428777
-0.00084864133
-0.0019256913
-0.0010188561
-0.0017900288
-0.0011792032
-0.0016371964
-0.001328165
-0.0014686634
-0.0014643344
-0.0012860487
-0.0015864267
-0.0010911054
-0.0016932916
-0.00088570355
-0.0017839238
-0.00067181308
-0.0018574716
-0.00045148448
-0.0019132445
-0.00022682948
-0.0019507195
-0.0019695453
0.00025288952
-0.0022224359
0.00050335476
-0.0022011851
0.00074899251
-0.0021588828
0.00098744665
-0.0020959265
0.0012164297
-0.0020129078
0.0014337445
-0.0019106076
0.0016373056
-0.001789989
0.0018251587
-0.0016521889
0.0019954996
-0.0014985075
0.0021466914
-0.0013303966
0.0022772798
-0.0011494463
0.002386007
-0.00095737028
0.0024718232
-0.00075599014
0.0025338962
-0.00054721859
0.0025716197
-0.00033304207
0.0025846185
-0.00011550279
0.0025727522
0.00010331966
0.0025361176
0.00032132714
0.0024750481
0.00053642204
0.0023901115
0.00074652678
0.0022821062
0.00094960366
0.0021520542
0.0011436747
0.0020011927
0.0013268418
0.0018309635
0.001497306
0.0016429992
0.0016533869
0.0014391081
0.0017935405
0.0012212571
0.001916376
0.00099155247
0.0020206715
0.00075221897
0.0021053872
0.00050557791
0.0021696769
0.00025402396
0.0022128977
1.1506663e-09
0.0022346169
-0.00025402168
0.0022346171
-0.00050557567
0.0022128981
-0.00075221679
0.0021696775
-0.00099155038
0.002105388
-0.0012212551
0.0020206725
-0.0014391062
0.0019163772
-0.0016429975
0.0017935418
-0.001830962
0.0016533884
-0.0020011914
0.0014973077
-0.0021520529
0.0013268436
-0.0022821052
0.0011436766
-0.0023901107
0.00094960556
-0.0024750474
0.00074652873
-0.0025361171
0.00053642402
-0.0025727519
0.00032132915
-0.0025846183
0.00010332167
-0.0025716197
-0.00011550077
-0.0025338964
-0.00033304006
-0.0024718235
-0.0005472166
-0.0023860076
-0.00075598818
-0.0022772805
-0.00095736835
-0.0021466923
-0.0011494444
-0.0019955006
-0.0013303948
-0.0018251599
-0.0014985058
-0.001637307
-0.0016521873
-0.0014337461
-0.0017899876
-0.0012164314
-0.0019106063
-0.00098744847
-0.0020129067
-0.00074899442
-0.0020959256
-0.00050335675
-0.0021588822
-0.00025289156
-0.0022011847
-0.0022224358
0.00028323059
-0.0025056676
0.00056374348
-0.002481698
0.00083884478
-0.0024339841
0.0011058936
-0.0023629753
0.0013623262
-0.0022693404
0.0016056807
-0.0021539621
0.0018336207
-0.002017929
0.0020439575
-0.0018625257
0.0022346713
-0.0016892213
0.0024039303
-0.0014996556
0.0025501079
-0.0012956239
0.0026717982
-0.0010790606
0.0027678285
-0.00085202049
0.0028372705
-0.00061666056
0.0028794482
-0.00037521972
0.0028939442
-0.00012999885
0.0028806042
0.00011665972
0.002839538
0.00036239326
0.0027711204
0.00060483968
0.0026759878
0.00084165935
0.0025550343
0.0010705572
0.0024094042
0.0012893048
0.0022404825
0.0014957635
0.0020498828
0.0016879058
0.0018394324
0.0018638373
0.0016111556
0.0020218172
0.0013672539
0.0021602777
0.0011100848
0.0022778407
0.00084213837
0.0023733336
0.00056601293
0.0024458024
0.00028438872
0.0024945219
1.2299988e-09
0.0025190044
-0.00028438627
0.0025190046
-0.00056601053
0.0024945223
-0.00084213605
0.002445803
-0.0011100825
0.0023733345
-0.0013672518
0.0022778418
-0.0016111537
0.0021602791
-0.0018394306
0.0020218188
-0.0020498812
0.001863839
-0.0022404811
0.0016879076
-0.002409403
0.0014957655
-0.0025550333
0.0012893069
-0.0026759869
0.0010705592
-0.0027711197
0.00084166148
-0.0028395375
0.00060484184
-0.0028806038
0.00036239544
-0.002893944
0.00011666191
-0.0028794481
-0.00012999666
-0.0028372707
-0.00037521753
-0.0027678289
-0.00061665838
-0.0026717987
-0.00085201834
-0.0025501086
-0.0010790584
-0.0024039312
-0.0012956219
-0.0022346724
-0.0014996536
-0.0020439588
-0.0016892194
-0.0018336222
-0.0018625239
-0.0016056824
-0.0020179274
-0.001362328
-0.0021539607
-0.0011058955
-0.0022693392
-0.00083884684
-0.0023629743
-0.00056374562
-0.0024339834
-0.00028323279
-0.0024816976
-0.0025056675
0.00031830841
-0.0028239773
0.00063355952
-0.0027969491
0.00094272303
-0.0027431477
0.0012428284
-0.0026630807
0.0015309924
-0.0025575044
0.0018044466
-0.0024274163
0.0020605643
-0.0022740467
0.0022968857
-0.0020988471
0.0025111416
-0.0019034772
0.0027012749
-0.0016897889
0.0028654602
-0.0014598092
0.0030021205
-0.0012157208
0.0031099417
-0.00095984173
0.0031878846
-0.00069460345
0.0032351936
-0.00042252869
0.0032514034
-0.00014620871
0.0032363437
0.00013171945
0.0031901406
0.00040859638
0.0031132167
0.00068176354
0.0030062886
0.00094858748
0.0028703613
0.0012064844