/*--------------------------------*- C++ -*----------------------------------*\
| =========                 |                                                 |
| \\      /  F ield         | OpenFOAM: The Open Source CFD Toolbox           |
|  \\    /   O peration     | Version:  2106                                  |
|   \\  /    A nd           | Website:  www.openfoam.com                      |
|    \\/     M anipulation  |                                                 |
\*---------------------------------------------------------------------------*/
FoamFile
{
    version     2.0;
    format      ascii;
    arch        "LSB;label=32;scalar=64";
    class       volScalarField;
    location    "0.025";
    object      p;
}
// * * * * * * * * * * * * * * * * * * * * * * * * * * * * * * * * * * * * * //

dimensions      [1 -1 -2 0 0 0 0];

internalField   nonuniform List<scalar> 
32768
(
418.37649
418.29371
418.11884
417.85225
417.4941
417.044
416.50149
415.86604
415.13705
414.31381
413.39554
412.38133
411.2702
410.06108
408.75277
407.34398
405.83332
404.21929
402.50027
400.67452
398.74019
396.69529
394.53771
392.26522
389.87541
387.36575
384.73356
381.97597
379.08995
376.07232
372.91966
369.62839
366.19468
362.61451
358.88359
354.99737
350.95106
346.73952
342.35733
337.7987
333.05747
328.12709
323.00053
317.6703
312.12838
306.36614
300.37434
294.14293
287.6614
280.91737
273.90036
266.59169
258.98841
251.05305
242.79903
234.17307
225.13939
215.80388
205.86722
195.61648
184.90105
173.33863
161.58255
149.28697
135.70536
121.52981
107.47735
92.659132
75.818804
57.348369
39.724653
25.375218
12.503477
0.93126291
0.61772749
0.57040962
0.52398333
0.47968792
0.44416257
0.41626135
0.39380509
0.37485931
0.35826468
0.3433981
0.32986969
0.31742157
0.305874
0.29509556
0.28498629
0.27546779
0.26647698
0.25796208
0.24987984
0.2421936
0.23487189
0.22788743
0.22121631
0.21483742
0.20873197
0.20288311
0.19727565
0.19189585
0.18673115
0.18177007
0.17700208
0.17241744
0.16800714
0.16376283
0.15967672
0.15574154
0.15195049
0.1482972
0.14477567
0.14138026
0.13810564
0.13494679
0.13189898
0.12895765
0.12611883
0.12337763
0.1207309
0.11817521
0.11570674
0.1133221
0.11101802
0.10879149
0.10663971
0.10455992
0.10254954
0.10060582
0.098726715
0.096909729
0.095152186
0.093451313
0.091808049
0.090218573
0.088680312
0.087192222
0.085751733
0.08435712
0.08300901
0.081704502
0.080441217
0.079218225
0.078034394
0.076888264
0.075778952
0.074704956
0.07366501
0.072657977
0.071682778
0.070738269
0.069823656
0.068937793
0.068079734
0.067248574
0.066443434
0.065663461
0.064907834
0.064175773
0.063466621
0.062779786
0.062113543
0.061467998
0.060842603
0.060236533
0.059649388
0.059080693
0.058528754
0.057993809
0.057475453
0.056973095
0.056486051
0.056013948
0.055556265
0.055112548
0.054682369
0.05426531
0.05386096
0.053468925
0.053088823
0.052720285
0.052362954
0.052016484
0.051680541
0.051354809
0.051038975
0.050732794
0.050435794
0.050147811
0.0498686
0.049597901
0.049335452
0.049081006
0.048834332
0.0485952
0.048363392
0.0481387
0.047920934
0.047709891
0.04750538
0.047307224
0.047115244
0.046929298
0.046749107
0.046574599
0.046405634
0.046242066
0.046083747
0.045930543
0.045782323
0.045638956
0.045500322
0.045366292
0.045236826
0.045111758
0.044991064
0.044874586
0.04476226
0.044654009
0.044549517
0.044448895
0.044352194
0.044259204
0.044169829
0.044084021
0.044001713
0.04392284
0.043847345
0.043775173
0.043706267
0.043640568
0.043578062
0.043518675
0.043462366
0.043409097
0.043358831
0.043311538
0.043267155
0.043225676
0.043187062
0.043151288
0.043118392
0.043088292
0.043060962
0.04303639
0.043014561
0.042995467
0.042979068
0.042965377
0.042954367
0.042946034
0.042940391
0.04293748
0.042936772
0.042940388
409.70936
409.62675
409.45206
409.18578
408.8279
408.3781
407.83593
407.20089
406.47236
405.64964
404.73194
403.71837
402.60795
401.39958
400.09209
398.68419
397.17449
395.56147
393.84353
392.01893
390.08581
388.0422
385.88598
383.61491
381.2266
378.71852
376.08797
373.33211
370.4479
367.43215
364.28145
360.99222
357.56064
353.98268
350.25405
346.37021
342.32635
338.11735
333.73778
329.18185
324.44339
319.51584
314.39218
309.0649
303.52597
297.76672
291.77793
285.54936
279.07091
272.32871
265.31573
258.0049
250.40953
242.46586
234.22373
225.59371
216.55348
207.21293
197.2684
186.99924
176.24159
164.72485
152.83463
140.36567
126.86609
112.69165
98.103008
82.635283
65.707761
47.535545
29.952482
14.687422
1.5455921
0.55240621
0.53440265
0.51566331
0.47860567
0.44866648
0.42238959
0.39967929
0.37987471
0.36221905
0.34632064
0.33185301
0.31856872
0.30628028
0.29484357
0.28414592
0.27409785
0.26462711
0.25567446
0.24719064
0.2391341
0.2314694
0.22416596
0.21719715
0.21053956
0.20417246
0.19807736
0.19223764
0.18663832
0.18126579
0.17610762
0.17115245
0.16638981
0.16181004
0.15740419
0.15316396
0.1490816
0.14514988
0.14136204
0.13771171
0.13419294
0.13080009
0.12752786
0.12437123
0.12132544
0.11838589
0.11554834
0.11280844
0.11016399
0.10761021
0.10514335
0.10276018
0.10045743
0.098232138
0.096081506
0.094002745
0.09199322
0.090049968
0.088171964
0.086356428
0.084600376
0.082902537
0.081258995
0.079669308
0.078131834
0.076644891
0.075205195
0.073812387
0.07246384
0.071159291
0.069896007
0.068673258
0.067489792
0.066343861
0.065235131
0.06416176
0.06312228
0.062115604
0.061140636
0.060196254
0.059282101
0.058396822
0.057539199
0.056708391
0.055903566
0.055123881
0.054368511
0.053636624
0.05292744
0.052240176
0.051574768
0.050929839
0.050304767
0.049698993
0.049111802
0.048542566
0.047991345
0.047456958
0.046939015
0.046437059
0.045950053
0.045477932
0.045020315
0.044576707
0.044146649
0.043729712
0.043325483
0.042933567
0.042553579
0.042185153
0.041827931
0.041481568
0.041145736
0.040820126
0.040504447
0.040198401
0.039901416
0.039613449
0.039334296
0.039063662
0.038801278
0.038546897
0.038300284
0.03806121
0.037829457
0.037604816
0.037387108
0.037176124
0.036971671
0.036773578
0.036581681
0.036395802
0.036215609
0.036041093
0.035872147
0.035708605
0.035550313
0.035397131
0.035248925
0.035105561
0.034966904
0.034832901
0.034703447
0.034578432
0.034457769
0.034341329
0.034228972
0.03412064
0.034016371
0.033915993
0.033819191
0.033726113
0.033636714
0.033550901
0.033468595
0.033389729
0.033314239
0.033242061
0.033173134
0.033107438
0.03304494
0.032985583
0.032929292
0.032876034
0.032825783
0.032778501
0.032734115
0.032692636
0.032654047
0.032618318
0.032585382
0.032555252
0.032527907
0.032503324
0.032481488
0.032462384
0.032446008
0.032432331
0.032421329
0.032413013
0.032407392
0.03240452
0.032404084
0.0324077
401.11787
401.03516
400.86068
400.59475
400.23735
399.78813
399.24667
398.61246
397.88487
397.06322
396.14671
395.13445
394.02547
392.81867
391.51287
390.1068
388.59905
386.98812
385.27241
383.45017
381.51955
379.47859
377.32516
375.05702
372.6718
370.16695
367.53979
364.78747
361.90697
358.89508
355.74841
352.46337
349.03615
345.46271
341.73876
337.85978
333.82095
329.61713
325.2429
320.69246
315.95965
311.03787
305.92009
300.59878
295.06587
289.31267
283.3299
277.10722
270.63445
263.89764
256.88937
249.58306
241.99071
234.05005
225.80994
217.17348
208.13883
198.76561
188.82042
178.53595
167.70242
156.17989
144.17034
131.544
117.96872
103.49706
88.431914
72.375913
54.719655
35.837335
17.218317
0.2436338
0.28467003
0.35365431
0.42624952
0.44302461
0.43401577
0.41951295
0.40020384
0.38130732
0.36372282
0.34750107
0.33256099
0.31875526
0.30594335
0.29400248
0.28282839
0.27233395
0.26244654
0.25310526
0.24425872
0.23586316
0.22788101
0.22027974
0.21303095
0.20610966
0.19949374
0.19316344
0.18710105
0.18129061
0.17571762
0.17036889
0.16523234
0.16029689
0.1555523
0.15098912
0.14659857
0.14237247
0.13830322
0.13438369
0.13060719
0.12696746
0.12345861
0.12007506
0.11681156
0.11366317
0.11062518
0.10769335
0.1048634
0.10213298
0.099493388
0.096943748
0.09448172
0.092103664
0.089805653
0.087585005
0.08543894
0.083364744
0.081359692
0.079421867
0.077547169
0.075734804
0.073981481
0.072286118
0.070645494
0.069058553
0.067523437
0.066037836
0.06460135
0.063211636
0.061865652
0.060562482
0.059302372
0.058082642
0.056901634
0.055758217
0.054651214
0.053579365
0.052541536
0.051536638
0.050563573
0.049621448
0.04870842
0.047824032
0.046967583
0.046138042
0.045334478
0.044556029
0.04380187
0.043071181
0.042363192
0.04167703
0.041012555
0.040368592
0.039744463
0.039139556
0.038553278
0.037984885
0.037434211
0.036900279
0.036382966
0.035881408
0.035395536
0.034924486
0.034467657
0.03402474
0.033595323
0.033178991
0.03277534
0.032383976
0.032004521
0.031636606
0.031279874
0.030933978
0.03059858
0.030273342
0.029957917
0.029652016
0.029355655
0.029068283
0.028789581
0.028519332
0.028257306
0.028003263
0.027756977
0.027518215
0.027286764
0.027062406
0.026844973
0.026634237
0.026430014
0.026232109
0.026040319
0.025854492
0.025674653
0.025500476
0.025331779
0.025168445
0.025010349
0.024857357
0.024709345
0.024566203
0.024427847
0.024294141
0.024164792
0.024039874
0.02391924
0.023802813
0.023690512
0.023582234
0.023477975
0.023377575
0.023280971
0.023188067
0.023098789
0.023013074
0.022930854
0.022852068
0.022776656
0.022704573
0.022635782
0.022570214
0.022507718
0.022448338
0.022392064
0.022338833
0.022288589
0.022241304
0.022196997
0.022155588
0.022117042
0.022081341
0.022048448
0.022018354
0.021991042
0.021966488
0.02194467
0.021925571
0.021909195
0.021895516
0.021884545
0.021876251
0.021870615
0.021867692
0.021867256
0.021870587
392.60093
392.51833
392.34418
392.07877
391.72208
391.27375
390.73335
390.10038
389.37422
388.55418
387.63946
386.62919
385.52238
384.31794
383.01471
381.61139
380.10659
378.49883
376.78647
374.9678
373.04097
371.00399
368.85478
366.59108
364.21051
361.71055
359.08851
356.34154
353.46663
350.46057
347.31998
344.04127
340.62062
337.054
333.33714
329.46548
325.43422
321.23823
316.87206
312.32991
307.60559
302.69251
297.58361
292.27132
286.74752
281.00347
275.02981
268.81611
262.35206
255.62346
248.62297
241.32291
233.73717
225.79856
217.564
208.92149
199.88479
190.49517
180.52544
170.21859
159.32853
147.73554
135.61406
122.81184
109.07063
94.249459
78.523885
61.51533
42.892114
22.305355
1.0199668
0.51975464
0.16289939
0.32356289
0.37421065
0.39051496
0.39443979
0.38672526
0.37374979
0.35935607
0.34476545
0.33055775
0.31699686
0.30416515
0.29206139
0.28064947
0.26988053
0.25970351
0.25006976
0.2409348
0.23225867
0.22400581
0.21614461
0.20864696
0.20148782
0.19464476
0.18809762
0.18182825
0.17582017
0.17005841
0.16452931
0.15922032
0.15411993
0.14921749
0.14450318
0.13996784
0.13560298
0.13140067
0.12735348
0.12345447
0.11969711
0.11607527
0.11258315
0.1092153
0.10596655
0.10283203
0.099807116
0.096887338
0.094068553
0.091345971
0.088717978
0.086180056
0.08372807
0.081359782
0.079070113
0.076857182
0.074718699
0.072651788
0.070653653
0.06872241
0.066853649
0.065045753
0.06329868
0.061608483
0.059974222
0.058393153
0.056863288
0.055382911
0.053950605
0.052564404
0.05122268
0.04992385
0.048667477
0.047451408
0.046274135
0.045135151
0.044030709
0.042961361
0.041926347
0.040924262
0.039953912
0.039014469
0.038103941
0.037222021
0.036367949
0.035540692
0.034739327
0.033963
0.033210895
0.032482232
0.031776223
0.031092149
0.030429224
0.029786798
0.029164174
0.028560706
0.027976229
0.02740997
0.02686077
0.026328695
0.025812193
0.025311484
0.024826666
0.024356829
0.023900983
0.023459034
0.023030641
0.022615323
0.022212654
0.02182224
0.0214437
0.021076667
0.020720785
0.020375711
0.020041111
0.019716664
0.019402072
0.019097012
0.018801237
0.018514426
0.01823633
0.017966689
0.017705255
0.017451783
0.017206056
0.016967829
0.01673686
0.016512935
0.01629602
0.016085778
0.015881997
0.015684525
0.015493201
0.015307836
0.015128298
0.014954406
0.01478603
0.014623025
0.014465248
0.014312564
0.014164843
0.01402196
0.013883775
0.013750178
0.013621181
0.013496597
0.013376253
0.01326011
0.013148112
0.013040171
0.012935979
0.012835648
0.012739198
0.012646454
0.012557322
0.012471746
0.012389667
0.012311019
0.012235737
0.012163762
0.012095032
0.012029503
0.011967176
0.011907958
0.011851798
0.011798665
0.011748524
0.01170134
0.011657084
0.011615719
0.011577219
0.011541562
0.011508734
0.011478701
0.01145144
0.011426934
0.011405156
0.011386102
0.011369743
0.011356086
0.01134512
0.011336828
0.011331206
0.011328292
0.01132791
0.011331207
384.15836
384.07595
383.90225
383.63753
383.28177
382.83461
382.29564
381.66432
380.94007
380.12218
379.20986
378.20224
377.09833
375.89706
374.59725
373.19761
371.69677
370.09322
368.38536
366.57146
364.64968
362.61805
360.47446
358.21669
355.84235
353.34892
350.73372
347.99392
345.12648
342.12823
338.99577
335.72551
332.31366
328.75617
325.04878
321.18694
317.16583
312.98031
308.62495
304.09392
299.38102
294.47964
289.38269
284.08256
278.57108
272.83945
266.8782
260.67684
254.2248
247.50793
240.51815
233.22835
225.65068
217.71862
209.48976
200.84341
191.81033
182.39901
172.41585
162.07741
151.13073
139.46658
127.23625
114.26358
100.31658
85.093175
68.711874
51.019296
31.234727
7.2812532
-0.035173071
0.36034984
0.33126746
0.33598318
0.35040027
0.35912498
0.36300597
0.35747471
0.34812142
0.3367973
0.32462026
0.31227231
0.30012642
0.28837252
0.27709744
0.26633064
0.2560711
0.24630225
0.23700026
0.22813864
0.21969058
0.21163024
0.20393327
0.19657709
0.18954087
0.18280546
0.17635331
0.17016829
0.16423557
0.15854152
0.15307353
0.14781999
0.1427701
0.13791385
0.13324192
0.12874561
0.1244168
0.12024786
0.11623167
0.11236151
0.10863106
0.10503437
0.10156581
0.098220068
0.094992096
0.091877118
0.088870617
0.085968164
0.083165855
0.080458769
0.0778456
0.07532151
0.072882621
0.070525987
0.068248644
0.06604765
0.06392017
0.061863482
0.059874989
0.057951681
0.056092642
0.054294184
0.052555586
0.050873308
0.049246591
0.047672724
0.046149713
0.044675809
0.043249456
0.041868227
0.040533299
0.039241474
0.037990178
0.036778707
0.035605967
0.034470654
0.033371368
0.032306969
0.031276307
0.030278222
0.029311572
0.02837517
0.027468688
0.026590675
0.025740077
0.024916075
0.024117829
0.023344504
0.022595293
0.021869462
0.021166299
0.020485407
0.019824592
0.019184306
0.018564175
0.017963626
0.017380814
0.016816112
0.016268493
0.01573771
0.015223617
0.014725389
0.014242141
0.013773609
0.013319462
0.012879183
0.012452327
0.012038469
0.011637203
0.01124814
0.010870903
0.010505126
0.010150456
0.0098065507
0.0094730791
0.0091497217
0.0088361724
0.0085321265
0.0082373206
0.0079514602
0.0076742781
0.007405512
0.0071449176
0.0068922414
0.0066473244
0.0064098874
0.0061797325
0.0059566828
0.0057403071
0.0055306014
0.0053274128
0.0051305301
0.0049397703
0.0047549582
0.0045759456
0.0044025688
0.0042346871
0.0040721598
0.003914844
0.0037626043
0.0036153042
0.0034728273
0.003335043
0.0032018383
0.0030732256
0.0029490007
0.0028289544
0.0027130842
0.0026013026
0.0024935142
0.002389721
0.0022897557
0.00219356
0.0021010415
0.0020121343
0.0019267733
0.001844895
0.0017664366
0.0016913382
0.0016195415
0.0015509851
0.0014856189
0.001423448
0.0013643733
0.00130835
0.0012553479
0.001205332
0.0011582635
0.0011141114
0.001072845
0.0010344405
0.00099887131
0.0009661186
0.00093614754
0.0009089356
0.00088447315
0.00086277542
0.00084378669
0.00082746544
0.00081383403
0.00080288612
0.00079460945
0.00078901067
0.00078610964
0.00078574848
0.00078901327
375.79006
375.7079
375.53476
375.27091
374.91631
374.47062
373.93342
373.30418
372.58231
371.76711
370.8578
369.8535
368.75323
367.55591
366.26038
364.86536
363.36946
361.77119
360.06896
358.26103
356.34558
354.32063
352.1841
349.93375
347.56721
345.08197
342.47534
339.7445
336.88644
333.89796
330.7757
327.51605
324.11524
320.56921
316.87371
313.0242
309.01584
304.8435
300.50174
295.98473
291.28625
286.39966
281.31784
276.03315
270.53737
264.82162
258.87635
252.69097
246.25469
239.55339
232.57815
225.30272
217.7367
209.81563
201.5949
192.95126
183.92292
174.50059
164.50373
154.14289
143.15051
131.41961
119.09744
106.00582
91.855539
76.281753
59.466586
41.571068
19.335558
-3.3401614
0.33635381
0.34424042
0.32067914
0.32201258
0.32841337
0.33294338
0.33438633
0.33021325
0.32305839
0.31396663
0.30378777
0.29311388
0.28232788
0.27166592
0.26126632
0.25120481
0.2415179
0.23221836
0.22330491
0.2147682
0.20659454
0.19876813
0.19127238
0.1840907
0.17720698
0.17060579
0.16427253
0.15819346
0.1523557
0.14674717
0.14135658
0.13617338
0.13118768
0.12639022
0.12177231
0.1173258
0.11304303
0.10891677
0.10494025
0.10110704
0.097411083
0.093846657
0.090408333
0.087090968
0.083889682
0.08079984
0.07781703
0.074937113
0.072156061
0.069470836
0.066876038
0.064368698
0.06194632
0.059603997
0.057342697
0.055157344
0.05304415
0.051000859
0.049025181
0.047114634
0.045267321
0.043481144
0.041752674
0.040080981
0.038463062
0.036897714
0.035383373
0.033918046
0.032500087
0.031127738
0.029799581
0.028514089
0.0272696
0.026064762
0.024898285
0.023768584
0.022675471
0.02161702
0.020591882
0.019599045
0.018637499
0.017706171
0.016804247
0.015930599
0.015084292
0.014264447
0.013470207
0.012700738
0.011955235
0.011232927
0.010533029
0.0098548629
0.0091976239
0.0085606966
0.0079433711
0.0073449571
0.0067652102
0.0062032281
0.0056587184
0.0051308598
0.0046191028
0.0041229691
0.0036418146
0.003175138
0.0027233944
0.0022853592
0.0018605114
0.0014485448
0.0010490957
0.00066178208
0.00028623076
-7.7920107e-05
-0.00043102168
-0.00077341416
-0.0011054264
-0.0014273758
-0.0017395679
-0.0020422984
-0.0023358416
-0.0026204797
-0.0028964822
-0.0031641174
-0.0034236516
-0.003675343
-0.0039191955
-0.0041556122
-0.0043848164
-0.0046069606
-0.0048224624
-0.0050313257
-0.0052337054
-0.0054298113
-0.0056198255
-0.0058039153
-0.0059822358
-0.0061549437
-0.0063221824
-0.0064840887
-0.0066408028
-0.0067924564
-0.0069392131
-0.0070811537
-0.0072183826
-0.0073510228
-0.0074792926
-0.0076032238
-0.0077227762
-0.0078381745
-0.0079495441
-0.0080569532
-0.0081603905
-0.0082600119
-0.0083558925
-0.0084481095
-0.0085367285
-0.0086218138
-0.0087034266
-0.0087816295
-0.0088564833
-0.0089280423
-0.0089963524
-0.0090614665
-0.0091234758
-0.0091823901
-0.0092382412
-0.0092910749
-0.0093409315
-0.0093878488
-0.0094318591
-0.0094729922
-0.0095112736
-0.0095467303
-0.009579386
-0.0096092636
-0.0096363777
-0.0096607487
-0.0096824054
-0.0097013602
-0.0097176232
-0.0097311988
-0.0097421009
-0.0097503403
-0.0097559171
-0.0097588093
-0.0097591628
-0.0097559147
367.49585
367.41401
367.24154
366.97872
366.62553
366.1816
365.64652
365.01978
364.30077
363.4888
362.5831
361.58278
360.48687
359.29431
358.00392
356.61443
355.12447
353.53255
351.83707
350.03632
348.12847
346.11156
343.9835
341.74206
339.3849
336.90949
334.31317
331.59312
328.74633
325.76961
322.65961
319.41274
316.02522
312.49301
308.81184
304.97719
300.98423
296.82783
292.50252
288.00248
283.32149
278.45288
273.3895
268.12369
262.64717
256.95101
251.02556
244.86016
238.44379
231.76244
224.80626
217.55017
210.00045
202.09632
193.88814
185.25477
176.23773
166.81252
156.81379
146.4413
135.4176
123.64658
111.26751
98.093336
83.785743
67.9593
51.287715
33.452708
9.0286082
-0.085704088
0.35221439
0.32710037
0.30904788
0.30564235
0.30727684
0.30920907
0.30849219
0.30492545
0.29904905
0.29148502
0.28282719
0.27353856
0.26395722
0.25431763
0.24477557
0.2354304
0.22634247
0.21754581
0.20905695
0.20088115
0.19301644
0.18545638
0.17819188
0.17121234
0.16450644
0.15806265
0.15186951
0.14591584
0.14019086
0.13468423
0.12938612
0.12428717
0.1193785
0.11465173
0.11009888
0.10571244
0.10148528
0.097410641
0.093482131
0.08969369
0.086039563
0.082514291
0.079112684
0.075829809
0.072660973
0.069601713
0.066647768
0.063795144
0.061039858
0.05837843
0.055806721
0.053321744
0.050920523
0.048600279
0.046357066
0.044188358
0.042091819
0.040064722
0.038104562
0.036208921
0.034375562
0.032602411
0.030886937
0.029227939
0.027621933
0.026067927
0.024564466
0.023109668
0.021701793
0.020339566
0.019020269
0.017742793
0.016506742
0.015310178
0.014151545
0.013029323
0.011943383
0.010891836
0.0098733472
0.0088869198
0.0079315486
0.0070061834
0.0061099155
0.005241737
0.0044007162
0.0035859651
0.0027966285
0.0020318778
0.00129091
0.00057292939
-0.00012283193
-0.00079720059
-0.0014503357
-0.0020833049
-0.0026968438
-0.0032915396
-0.0038678741
-0.004426546
-0.0049679494
-0.0054926769
-0.0060015994
-0.0064949699
-0.0069731688
-0.0074366927
-0.0078862474
-0.0083221232
-0.0087446684
-0.009154352
-0.0095515891
-0.0099367649
-0.010310252
-0.01067241
-0.011023589
-0.011364126
-0.011694349
-0.012014571
-0.012325097
-0.012626217
-0.01291821
-0.01320135
-0.013475903
-0.013742127
-0.014000272
-0.014250573
-0.014493269
-0.014728579
-0.014956734
-0.015177941
-0.015392246
-0.015599968
-0.015801321
-0.015996461
-0.01618555
-0.016368749
-0.016546214
-0.016718099
-0.016884548
-0.017045693
-0.017201656
-0.017352569
-0.017498672
-0.017639987
-0.017776612
-0.017908677
-0.018036348
-0.018159704
-0.018278725
-0.018393607
-0.018504427
-0.018611259
-0.018714357
-0.01881365
-0.01890915
-0.019000989
-0.019089245
-0.019173985
-0.019255271
-0.019333165
-0.019407723
-0.019478999
-0.019547044
-0.019611908
-0.019673661
-0.019732332
-0.019787961
-0.019840586
-0.019890245
-0.019936977
-0.019980815
-0.020021787
-0.020059918
-0.020095236
-0.020127765
-0.020157526
-0.020184537
-0.02020882
-0.020230403
-0.02024929
-0.020265478
-0.02027899
-0.020289844
-0.020298045
-0.020303593
-0.020306465
-0.020306809
-0.020303566
359.27554
359.19407
359.02238
358.76078
358.40921
357.96734
357.43474
356.8109
356.09523
355.28703
354.38553
353.38986
352.29905
351.11202
349.82763
348.44461
346.96158
345.37706
343.68947
341.8971
339.99812
337.99059
335.87242
333.64141
331.29519
328.83127
326.247
323.53955
320.70593
317.74298
314.64733
311.41541
308.04345
304.52742
300.86306
297.04585
293.07098
288.9333
284.62737
280.14734
275.487
270.63967
265.59818
260.35483
254.90134
249.2287
243.32722
237.18616
230.79433
224.13782
217.20596
209.97488
202.44754
194.56727
186.37845
177.76478
168.7678
159.35242
149.36609
138.99831
127.9681
116.18687
103.80223
90.610721
76.204192
60.251717
43.999468
25.264395
-2.8034615
0.22734027
0.26235522
0.28363099
0.28480981
0.28516136
0.28564452
0.28629987
0.28456879
0.28114236
0.27600422
0.26948651
0.2619738
0.25380582
0.24525748
0.23653805
0.22779974
0.21914933
0.21065919
0.20237648
0.19433037
0.18653727
0.17900483
0.17173469
0.16472447
0.15796913
0.15146195
0.14519516
0.13916044
0.13334923
0.1277529
0.12236294
0.11717102
0.1121691
0.10734937
0.10270438
0.098226968
0.093910284
0.089747795
0.085733264
0.081860745
0.078124565
0.074519314
0.071039834
0.067681203
0.064438726
0.06130792
0.05828451
0.055364407
0.052543726
0.049818669
0.047185753
0.044641387
0.042182361
0.039805638
0.03750823
0.035287166
0.033139785
0.031063415
0.029055485
0.027113589
0.025235355
0.023418615
0.021661168
0.019960814
0.018315227
0.016723713
0.015183792
0.013693375
0.012250933
0.010854822
0.0095037367
0.0081955038
0.0069297544
0.0057032173
0.0045156136
0.0033661034
0.002253135
0.0011754069
0.00013169456
-0.00087904572
-0.0018579491
-0.002806071
-0.0037244769
-0.0046139804
-0.0054756594
-0.006310435
-0.0071191708
-0.0079027126
-0.008661882
-0.0093974767
-0.010110283
-0.01080102
-0.011470474
-0.012119003
-0.012747548
-0.013356771
-0.013947293
-0.014519614
-0.015074429
-0.015612323
-0.016133974
-0.016639057
-0.017128743
-0.017603667
-0.018064167
-0.018510622
-0.018943491
-0.019363203
-0.019770169
-0.020164784
-0.020547429
-0.020918472
-0.021278273
-0.021627177
-0.021965519
-0.022293624
-0.022611803
-0.022920357
-0.023219576
-0.023509732
-0.023791099
-0.024063938
-0.024328494
-0.024585009
-0.024833682
-0.025074986
-0.02530895
-0.02553574
-0.025755594
-0.025968661
-0.026175189
-0.026375365
-0.026569368
-0.026757361
-0.026939505
-0.027115953
-0.027286862
-0.027452375
-0.027612634
-0.027767784
-0.027917959
-0.028063182
-0.028203661
-0.028339532
-0.028470879
-0.02859781
-0.02872042
-0.028838889
-0.028953245
-0.029063577
-0.029169985
-0.029272483
-0.029371217
-0.029466207
-0.029557577
-0.029645402
-0.029729733
-0.029810629
-0.029888149
-0.029962352
-0.03003329
-0.030101017
-0.030165581
-0.030227037
-0.030285427
-0.030340792
-0.03039317
-0.030442599
-0.030489114
-0.030532747
-0.030573525
-0.030611476
-0.030646629
-0.030679009
-0.030708634
-0.030735521
-0.030759692
-0.030781173
-0.030799971
-0.03081608
-0.030829531
-0.030840337
-0.030848496
-0.030854006
-0.030856848
-0.03085718
-0.030853938
351.12888
351.04783
350.87705
350.61682
350.26712
349.8276
349.29783
348.67731
347.96544
347.16155
346.26486
345.27449
344.1895
343.00881
341.73128
340.35563
338.88052
337.30447
335.62589
333.84309
331.95426
329.95745
327.8506
325.6315
323.29781
320.84704
318.27655
315.58353
312.765
309.81781
306.73861
303.52383
300.16972
296.67227
293.02722
289.23007
285.276
281.1599
276.87632
272.41942
267.78299
262.96034
257.94431
252.7272
247.30069
241.65576
235.78267
229.67068
223.30844
216.68221
209.78059
202.58095
195.08319
187.23488
179.07418
170.49106
161.52601
152.13528
142.18022
131.8388
120.8301
109.0799
96.746729
83.618278
69.219308
53.468802
38.080972
19.182086
-1.1047599
0.24380596
0.25253065
0.26174618
0.26372416
0.26450996
0.26434585
0.26402655
0.26186594
0.25846253
0.25378065
0.24799394
0.24134462
0.23407384
0.22639515
0.21848423
0.21047857
0.20248172
0.19456932
0.18679498
0.17919546
0.17179494
0.16460828
0.15764358
0.1509041
0.14438966
0.13809766
0.13202386
0.1261629
0.12050874
0.11505489
0.10979464
0.10472122
0.099827881
0.095107968
0.090554984
0.086162606
0.081924718
0.077835412
0.073889004
0.070080026
0.066403229
0.062853577
0.05942624
0.05611659
0.052920189
0.049832791
0.046850325
0.043968899
0.041184784
0.038494371
0.035894294
0.033381098
0.030951618
0.02860297
0.026331611
0.02413609
0.022013249
0.019960054
0.017974118
0.016053195
0.014194926
0.012397389
0.01065824
0.0089754172
0.0073465178
0.005771077
0.0042465198
0.002770803
0.0013424359
-4.0131213e-05
-0.0013780663
-0.0026741121
-0.0039292563
-0.005143847
-0.0063196353
-0.007458181
-0.0085600692
-0.0096284364
-0.010663256
-0.011665047
-0.012635255
-0.013575053
-0.014485589
-0.015367275
-0.016221388
-0.017048942
-0.017850741
-0.018627603
-0.019380331
-0.020109716
-0.020816532
-0.021501543
-0.022165552
-0.022808694
-0.023432005
-0.024036279
-0.024622127
-0.025189756
-0.025739961
-0.026273328
-0.026790278
-0.027291678
-0.027777783
-0.028249123
-0.028706158
-0.029149063
-0.029578506
-0.029994961
-0.030398796
-0.030790387
-0.031170113
-0.03153834
-0.031895421
-0.032241701
-0.032577511
-0.032903173
-0.033218996
-0.033525277
-0.033822304
-0.03411034
-0.034389662
-0.034660529
-0.034923181
-0.03517789
-0.035424847
-0.035664433
-0.035896731
-0.036121934
-0.036340264
-0.036551867
-0.036756983
-0.036955796
-0.037148483
-0.037335212
-0.037516138
-0.037691413
-0.037861192
-0.038025622
-0.03818484
-0.038338975
-0.038488159
-0.038632474
-0.038772076
-0.038907109
-0.039037645
-0.039163802
-0.039285672
-0.039403414
-0.039517068
-0.039626735
-0.039732501
-0.039834363
-0.039932479
-0.040026953
-0.04011783
-0.040205168
-0.040289027
-0.04036947
-0.04044656
-0.040520353
-0.040590903
-0.040658259
-0.040722472
-0.04078359
-0.040841661
-0.040896723
-0.040948815
-0.040997975
-0.041044239
-0.041087633
-0.041128189
-0.041165937
-0.041200904
-0.041233109
-0.041262573
-0.041289312
-0.041313353
-0.041334718
-0.041353412
-0.041369435
-0.04138281
-0.041393549
-0.041401653
-0.041407124
-0.041409945
-0.041410265
-0.041407024
343.05561
342.97503
342.80525
342.54658
342.19897
341.76209
341.2355
340.61871
339.91113
339.11208
338.22079
337.23639
336.15793
334.98437
333.71454
332.3472
330.88099
329.31446
327.64602
325.87399
323.99657
322.01183
319.91771
317.71202
315.39244
312.95648
310.40151
307.72475
304.92323
301.99382
298.93316
295.73774
292.40379
288.92732
285.30411
281.52966
277.59917
273.50755
269.24935
264.81877
260.20959
255.41515
250.4283
245.24134
239.84596
234.23315
228.39317
222.31529
215.9881
209.39804
202.53322
195.37212
187.9121
180.10482
171.98253
163.44212
154.52278
145.17399
135.27106
124.98067
114.02481
102.34713
90.119445
77.1163
62.820781
47.524952
32.795241
13.244668
-0.24945499
0.24247198
0.24835354
0.24445533
0.24466565
0.24435789
0.24359987
0.24240564
0.23998299
0.23659321
0.23222103
0.22696375
0.2209755
0.2144253
0.20747484
0.20026631
0.19291799
0.18552437
0.1781586
0.17087575
0.16371624
0.15670885
0.14987337
0.14322272
0.1367646
0.13050283
0.12443837
0.11857009
0.11289533
0.10741038
0.10211077
0.096991546
0.092047431
0.087272981
0.082662674
0.07821099
0.073912462
0.069761717
0.065753503
0.061882704
0.05814436
0.054533666
0.051045981
0.047676824
0.04442188
0.041276989
0.038238155
0.035301526
0.032463429
0.029720329
0.027068804
0.0245057
0.022027362
0.019631103
0.017314096
0.015074037
0.01290695
0.010810591
0.0087830564
0.0068218081
0.0049244823
0.0030883709
0.0013124505
-0.00040578744
-0.0020686607
-0.0036776705
-0.0052353677
-0.0067432135
-0.0082025769
-0.0096152251
-0.010982607
-0.012306369
-0.013588202
-0.014829611
-0.01603107
-0.017194429
-0.018321178
-0.01941233
-0.020469317
-0.02149324
-0.022484587
-0.023444755
-0.024374905
-0.02527576
-0.026148954
-0.026994968
-0.027814496
-0.028608486
-0.029377806
-0.030123249
-0.030845596
-0.031545564
-0.032224013
-0.032881531
-0.033518751
-0.034136347
-0.034734868
-0.035314731
-0.035877455
-0.036422946
-0.03695152
-0.037463754
-0.037960593
-0.038442174
-0.038909229
-0.039361975
-0.039801144
-0.04022697
-0.040639808
-0.041040112
-0.041428287
-0.041804712
-0.042169751
-0.042523756
-0.042867066
-0.043200011
-0.043522908
-0.043836068
-0.044139781
-0.044434343
-0.044719968
-0.04499697
-0.045265602
-0.045526087
-0.045778731
-0.04602367
-0.04626135
-0.046491816
-0.046715251
-0.046931892
-0.047141809
-0.047345297
-0.047542561
-0.047733761
-0.047919057
-0.048098605
-0.048272551
-0.04844105
-0.04860425
-0.048762288
-0.048915288
-0.049063374
-0.049206645
-0.049345227
-0.049479314
-0.049608936
-0.049734216
-0.049855227
-0.049972151
-0.050085015
-0.05019389
-0.050298856
-0.050400044
-0.050497476
-0.050591407
-0.05068174
-0.050768526
-0.05085185
-0.050931783
-0.051008384
-0.051081712
-0.051151818
-0.051218754