/*--------------------------------*- C++ -*----------------------------------*\
| =========                 |                                                 |
| \\      /  F ield         | OpenFOAM: The Open Source CFD Toolbox           |
|  \\    /   O peration     | Version:  2106                                  |
|   \\  /    A nd           | Website:  www.openfoam.com                      |
|    \\/     M anipulation  |                                                 |
\*---------------------------------------------------------------------------*/
FoamFile
{
    version     2.0;
    format      ascii;
    arch        "LSB;label=32;scalar=64";
    class       surfaceScalarField;
    location    "0.025";
    object      phi;
}
// * * * * * * * * * * * * * * * * * * * * * * * * * * * * * * * * * * * * * //

dimensions      [0 3 -1 0 0 0 0];

oriented        oriented;

internalField   nonuniform List<scalar> 
65152
(
2.426032e-08
-2.426032e-08
4.9192011e-08
-2.4931691e-08
7.4181677e-08
-2.4989666e-08
9.9239523e-08
-2.5057846e-08
1.2438083e-07
-2.5141307e-08
1.4962362e-07
-2.5242792e-08
1.7498804e-07
-2.5364415e-08
2.0049464e-07
-2.5506606e-08
2.261644e-07
-2.5669757e-08
2.5201869e-07
-2.5854291e-08
2.7807932e-07
-2.6060626e-08
3.0436853e-07
-2.6289209e-08
3.3090906e-07
-2.654053e-08
3.5772419e-07
-2.6815133e-08
3.8483781e-07
-2.7113619e-08
4.1227446e-07
-2.743665e-08
4.4005941e-07
-2.7784956e-08
4.6821876e-07
-2.8159341e-08
4.9677944e-07
-2.8560685e-08
5.257694e-07
-2.8989955e-08
5.5521761e-07
-2.944821e-08
5.8515422e-07
-2.993661e-08
6.1561064e-07
-3.0456424e-08
6.4661968e-07
-3.1009044e-08
6.7821568e-07
-3.1595991e-08
7.1043461e-07
-3.2218936e-08
7.4331432e-07
-3.2879708e-08
7.7689464e-07
-3.3580318e-08
8.1121761e-07
-3.4322975e-08
8.4632772e-07
-3.5110109e-08
8.8227212e-07
-3.5944397e-08
9.1910091e-07
-3.6828796e-08
9.5686749e-07
-3.7766572e-08
9.9562883e-07
-3.8761346e-08
1.035446e-06
-3.9817134e-08
1.0763844e-06
-4.0938404e-08
1.1185145e-06
-4.2130135e-08
1.1619124e-06
-4.3397893e-08
1.2066603e-06
-4.4747913e-08
1.2528475e-06
-4.6187198e-08
1.3005711e-06
-4.7723638e-08
1.3499373e-06
-4.9366146e-08
1.4010621e-06
-5.1124827e-08
1.4540733e-06
-5.3011148e-08
1.5091115e-06
-5.5038268e-08
1.5663324e-06
-5.7220878e-08
1.6259097e-06
-5.9577257e-08
1.6880326e-06
-6.2122897e-08
1.7529276e-06
-6.4895044e-08
1.8207996e-06
-6.7871939e-08
1.8920239e-06
-7.1224325e-08
1.9666279e-06
-7.4603985e-08
2.0455985e-06
-7.8970603e-08
2.1280792e-06
-8.2480687e-08
2.2165555e-06
-8.847638e-08
2.3095391e-06
-9.2983583e-08
2.4074927e-06
-9.7953615e-08
2.5167723e-06
-1.0927954e-07
2.625416e-06
-1.0864375e-07
2.7498641e-06
-1.2444804e-07
2.8840441e-06
-1.3418002e-07
3.0178594e-06
-1.3381534e-07
3.1749862e-06
-1.571268e-07
3.3496628e-06
-1.7467656e-07
3.5239675e-06
-1.7430472e-07
3.70663e-06
-1.8266245e-07
3.9190905e-06
-2.1246051e-07
4.1661741e-06
-2.4708366e-07
4.4159107e-06
-2.4973657e-07
4.6241419e-06
-2.0823122e-07
4.7920326e-06
-1.6789072e-07
4.9695612e-06
-1.7752857e-07
5.1885216e-06
-2.1896039e-07
5.2566185e-06
-6.8096931e-08
4.7345845e-06
5.2203402e-07
3.8499475e-06
8.8463703e-07
3.0769063e-06
7.7304117e-07
2.5699047e-06
5.0700164e-07
2.2515841e-06
3.1832057e-07
2.0380279e-06
2.135562e-07
1.8817715e-06
1.5625641e-07
1.7586353e-06
1.2313622e-07
1.6560254e-06
1.0260985e-07
1.5674858e-06
8.8539646e-08
1.4893042e-06
7.8181609e-08
1.4191588e-06
7.0145372e-08
1.3554897e-06
6.3669048e-08
1.297187e-06
5.8302713e-08
1.2434248e-06
5.3762186e-08
1.1935674e-06
4.9857453e-08
1.147112e-06
4.6455336e-08
1.1036531e-06
4.3458934e-08
1.0628575e-06
4.0795653e-08
1.0244477e-06
3.8409779e-08
9.8818996e-07
3.6257725e-08
9.538851e-07
3.4304859e-08
9.2136183e-07
3.2523267e-08
8.9047165e-07
3.0890181e-08
8.6108482e-07
2.9386831e-08
8.3308723e-07
2.7997593e-08
8.0637787e-07
2.6709355e-08
7.8086685e-07
2.5511024e-08
7.564737e-07
2.4393152e-08
7.3312606e-07
2.3347634e-08
7.1075858e-07
2.2367477e-08
6.8931197e-07
2.1446613e-08
6.6873223e-07
2.0579742e-08
6.4897001e-07
1.9762219e-08
6.2998006e-07
1.8989951e-08
6.1172074e-07
1.8259317e-08
5.9415364e-07
1.7567099e-08
5.7724321e-07
1.6910431e-08
5.6095646e-07
1.6286752e-08
5.4526268e-07
1.5693784e-08
5.3013318e-07
1.5129501e-08
5.1554101e-07
1.4592168e-08
5.01461e-07
1.4080005e-08
4.87866e-07
1.3595003e-08
4.7477742e-07
1.3088581e-08
4.6207356e-07
1.2703856e-08
4.4980852e-07
1.2265047e-08
4.3796777e-07
1.1840742e-08
4.2652369e-07
1.1444084e-08
4.1546587e-07
1.105782e-08
4.0476465e-07
1.0701224e-08
3.9440116e-07
1.0363482e-08
3.8436571e-07
1.0035455e-08
3.7464866e-07
9.7170488e-09
3.6524355e-07
9.4051115e-09
3.5609698e-07
9.1465688e-09
3.4725315e-07
8.8438249e-09
3.3871854e-07
8.5346102e-09
3.3048446e-07
8.2340881e-09
3.2229275e-07
8.1917026e-09
3.1447956e-07
7.813196e-09
3.0691105e-07
7.5685098e-09
2.9954596e-07
7.365088e-09
2.9246201e-07
7.0839447e-09
2.8558079e-07
6.8812247e-09
2.7873461e-07
6.8461786e-09
2.7218257e-07
6.552039e-09
2.6587104e-07
6.3115333e-09
2.5971016e-07
6.1608734e-09
2.5370749e-07
6.0026775e-09
2.478715e-07
5.8359875e-09
2.4215907e-07
5.7124289e-09
2.3662673e-07
5.5323405e-09
2.3125729e-07
5.3694391e-09
2.2603484e-07
5.2224488e-09
2.2095192e-07
5.0829182e-09
2.16004e-07
4.9479206e-09
2.1116414e-07
4.8398657e-09
2.0646429e-07
4.6998451e-09
2.0189025e-07
4.5740419e-09
1.9743341e-07
4.4568429e-09
1.9308869e-07
4.3447214e-09
1.8885237e-07
4.2363175e-09
1.8472077e-07
4.1316041e-09
1.8068929e-07
4.0314722e-09
1.7675116e-07
3.9381306e-09
1.7289844e-07
3.8527216e-09
1.6922157e-07
3.6768702e-09
1.6555937e-07
3.6621999e-09
1.6198404e-07
3.5753272e-09
1.5849984e-07
3.4842053e-09
1.550807e-07
3.4191386e-09
1.517378e-07
3.3428994e-09
1.4855861e-07
3.1791876e-09
1.4537591e-07
3.1827009e-09
1.4226504e-07
3.1108704e-09
1.3922577e-07
3.039269e-09
1.3627041e-07
2.9553611e-09
1.3337206e-07
2.8983522e-09
1.3053699e-07
2.8350674e-09
1.2776082e-07
2.7761684e-09
1.2504203e-07
2.7187941e-09
1.2237974e-07
2.662284e-09
1.1977253e-07
2.6072173e-09
1.1721871e-07
2.5538151e-09
1.1471659e-07
2.5021239e-09
1.1226447e-07
2.4521215e-09
1.0986069e-07
2.4037722e-09
1.0750365e-07
2.3570463e-09
1.0519171e-07
2.3119422e-09
1.0292312e-07
2.2685903e-09
1.0069592e-07
2.2271942e-09
9.8509492e-08
2.1864302e-09
9.6381737e-08
2.1277548e-09
9.4279001e-08
2.1027371e-09
9.22096e-08
2.0694005e-09
9.017685e-08
2.0327503e-09
8.8180007e-08
1.9968435e-09
8.6217522e-08
1.9624844e-09
8.4288077e-08
1.9294458e-09
8.2390941e-08
1.8971355e-09
8.0525041e-08
1.8658999e-09
7.8688823e-08
1.8362173e-09
7.6880427e-08
1.8083961e-09
7.5101064e-08
1.7793623e-09
7.3349347e-08
1.7517168e-09
7.1623622e-08
1.7257244e-09
6.9922514e-08
1.7011085e-09
6.824618e-08
1.6763332e-09
6.6606219e-08
1.6399611e-09
6.497928e-08
1.6269395e-09
6.3372208e-08
1.6070726e-09
6.178723e-08
1.5849782e-09
6.0223864e-08
1.5633668e-09
5.868122e-08
1.542644e-09
5.7158504e-08
1.5227165e-09
5.5655031e-08
1.5034742e-09
5.4170426e-08
1.4846052e-09
5.2704189e-08
1.4662375e-09
5.1249489e-08
1.4547e-09
4.9816369e-08
1.4331192e-09
4.8390791e-08
1.4255785e-09
4.6986744e-08
1.4040463e-09
4.5596883e-08
1.3898601e-09
4.4219978e-08
1.3769051e-09
4.2881122e-08
1.3388558e-09
4.1534786e-08
1.3463349e-09
4.0186837e-08
1.347949e-09
3.8866816e-08
1.3200213e-09
3.7557963e-08
1.3088528e-09
3.625953e-08
1.2984326e-09
3.4971715e-08
1.2878161e-09
3.3694301e-08
1.2774141e-09
3.2426956e-08
1.2673456e-09
3.1169345e-08
1.2576114e-09
2.9921178e-08
1.2481681e-09
2.8681809e-08
1.2393693e-09
2.7447423e-08
1.2343868e-09
2.6224153e-08
1.2232706e-09
2.5008624e-08
1.2155292e-09
2.3799933e-08
1.2086914e-09
2.2597731e-08
1.2022019e-09
2.1402351e-08
1.1953806e-09
2.0216872e-08
1.185479e-09
1.9034025e-08
1.1828469e-09
1.7856671e-08
1.1773546e-09
1.6684956e-08
1.171715e-09
1.5509735e-08
1.175221e-09
1.4347067e-08
1.1626677e-09
1.3188144e-08
1.158923e-09
1.203218e-08
1.1559632e-09
1.0879735e-08
1.1524451e-09
9.7292257e-09
1.1505093e-09
8.5854451e-09
1.1437803e-09
7.4403122e-09
1.1451327e-09
6.2990535e-09
1.1412585e-09
5.1590455e-09
1.1400077e-09
4.0183444e-09
1.1407008e-09
2.883606e-09
1.1347381e-09
1.7581716e-09
1.1254342e-09
6.9904679e-10
1.0591246e-09
6.9904652e-10
2.4819169e-08
-4.9079489e-08
5.0539542e-08
-5.0652065e-08
7.6314025e-08
-5.0764149e-08
1.0214363e-07
-5.0887454e-08
1.2805309e-07
-5.1050761e-08
1.5406492e-07
-5.1254628e-08
1.8020037e-07
-5.1499859e-08
2.0648084e-07
-5.1787077e-08
2.3292801e-07
-5.2116932e-08
2.5956387e-07
-5.2490146e-08
2.8641076e-07
-5.2907516e-08
3.1349147e-07
-5.3369924e-08
3.408293e-07
-5.387835e-08
3.6844804e-07
-5.4433882e-08
3.9637215e-07
-5.5037724e-08
4.2462671e-07
-5.5691207e-08
4.5323754e-07
-5.6395795e-08
4.822313e-07
-5.71531e-08
5.1163551e-07
-5.796489e-08
5.4147866e-07
-5.8833104e-08
5.7179031e-07
-5.9759866e-08
6.026012e-07
-6.0747499e-08
6.3394333e-07
-6.1798549e-08
6.6585008e-07
-6.29158e-08
6.9835639e-07
-6.4102301e-08
7.3149885e-07
-6.5361393e-08
7.6531588e-07
-6.6696735e-08
7.998479e-07
-6.8112344e-08
8.3513756e-07
-6.9612631e-08
8.7122989e-07
-7.1202444e-08
9.0817262e-07
-7.2887124e-08
9.4601638e-07
-7.4672559e-08
9.8481506e-07
-7.656525e-08
1.0246261e-06
-7.8572394e-08
1.0655109e-06
-8.0701967e-08
1.1075354e-06
-8.2962829e-08
1.1507701e-06
-8.5364842e-08
1.1952912e-06
-8.7919014e-08
1.2411809e-06
-9.0637654e-08
1.2885283e-06
-9.3534564e-08
1.3374299e-06
-9.6625264e-08
1.387991e-06
-9.992725e-08
1.4403265e-06
-1.034603e-07
1.4945622e-06
-1.0724685e-07
1.5508364e-06
-1.1131242e-07
1.6093015e-06
-1.1568602e-07
1.6701255e-06
-1.2040126e-07
1.7334976e-06
-1.25495e-07
1.7996184e-06
-1.3101581e-07
1.8687443e-06
-1.3699781e-07
1.9410718e-06
-1.4355188e-07
2.0170632e-06
-1.5059541e-07
2.0966877e-06
-1.5859506e-07
2.1810399e-06
-1.6683292e-07
2.269269e-06
-1.7670548e-07
2.3638581e-06
-1.875727e-07
2.4623095e-06
-1.9640499e-07
2.5698443e-06
-2.1681434e-07
2.6813934e-06
-2.2019282e-07
2.8028524e-06
-2.4590703e-07
2.9347635e-06
-2.6609117e-07
3.0696188e-06
-2.6867059e-07
3.2233147e-06
-3.1082276e-07
3.3958413e-06
-3.4720318e-07
3.5659555e-06
-3.444189e-07
3.7455754e-06
-3.6228233e-07
3.9701009e-06
-4.3698597e-07
4.2463116e-06
-5.2329441e-07
4.5256171e-06
-5.2904204e-07
4.7674371e-06
-4.5005129e-07
4.9810155e-06
-3.8146908e-07
5.171178e-06
-3.6769107e-07
5.740237e-06
-7.8801934e-07
5.3556057e-06
3.1653436e-07
4.632833e-06
1.2448067e-06
4.0187757e-06
1.4986943e-06
3.5997589e-06
1.192058e-06
3.2870554e-06
8.1970504e-07
3.0272575e-06
5.7811847e-07
2.8088387e-06
4.3197508e-07
2.6230315e-06
3.4206357e-07
2.463065e-06
2.8310274e-07
2.3239219e-06
2.4175299e-07
2.2013906e-06
2.1107089e-07
2.092186e-06
1.8738626e-07
1.9938155e-06
1.6851588e-07
1.9043942e-06
1.5309031e-07
1.8224822e-06
1.4021472e-07
1.7469629e-06
1.2928147e-07
1.6769565e-06
1.1986386e-07
1.6117584e-06
1.1165338e-07
1.5507961e-06
1.0442124e-07
1.4935977e-06
9.7994072e-08
1.4397695e-06
9.2237986e-08
1.3889794e-06
8.704784e-08
1.3409444e-06
8.2339882e-08
1.2954211e-06
7.8046526e-08
1.2521987e-06
7.4112608e-08
1.2110929e-06
7.0492634e-08
1.1719418e-06
6.7148735e-08
1.134602e-06
6.4049122e-08
1.0989461e-06
6.1166906e-08
1.0648601e-06
5.847918e-08
1.0322414e-06
5.5966295e-08
1.0009976e-06
5.3611302e-08
9.7104472e-07
5.1399489e-08
9.4230644e-07
4.9318023e-08
9.1471301e-07
4.7355648e-08
8.8820051e-07
4.5502452e-08
8.6271016e-07
4.374966e-08
8.3818778e-07
4.2089476e-08
8.1458328e-07
4.051494e-08
7.9185022e-07
3.9019808e-08
7.6994555e-07
3.7598452e-08
7.4882935e-07
3.6245701e-08
7.28465e-07
3.4956523e-08
7.0881951e-07
3.3725491e-08
6.8986823e-07
3.2546286e-08
6.7161304e-07
3.1343769e-08
6.5378135e-07
3.0535548e-08
6.3667254e-07
2.9373854e-08
6.2014782e-07
2.8365463e-08
6.0416898e-07
2.7422921e-08
5.8873547e-07
2.6491332e-08
5.7379445e-07
2.5642248e-08
5.5931876e-07
2.4839169e-08
5.4529986e-07
2.4054355e-08
5.3173016e-07
2.3286743e-08
5.1862583e-07
2.2509449e-08
5.0575064e-07
2.2021756e-08
4.9336593e-07
2.1228538e-08
4.8141079e-07
2.0489751e-08
4.6974074e-07
1.9904129e-08
4.586075e-07
1.9324952e-08
4.4766065e-07
1.8760037e-08
4.3700117e-07
1.8227992e-08
4.2663385e-07
1.7732412e-08
4.1672244e-07
1.6995357e-08
4.0695675e-07
1.6646912e-08
3.9760979e-07
1.6193141e-08
3.8839154e-07
1.5770288e-08
3.795531e-07
1.5149974e-08
3.7087233e-07
1.4841634e-08
3.6243583e-07
1.4439177e-08
3.5426084e-07
1.4010978e-08
3.4618605e-07
1.3787225e-08
3.3841726e-07
1.3301125e-08
3.3088246e-07
1.2904241e-08
3.2354796e-07
1.2556953e-08
3.1640932e-07
1.2221554e-08
3.0947038e-07
1.1886857e-08
3.0261132e-07
1.1698929e-08
2.9599917e-07
1.1311995e-08
2.8956468e-07
1.1008531e-08
2.8328912e-07
1.0732405e-08
2.7716745e-07
1.0466391e-08
2.7119644e-07
1.0207329e-08
2.653729e-07
9.9551464e-09
2.5969435e-07
9.7100242e-09
2.5416026e-07
9.4722159e-09
2.4876754e-07
9.2454459e-09
2.4340526e-07
9.0391487e-09
2.3824836e-07
8.8190941e-09
2.3322069e-07
8.6029987e-09
2.2830311e-07
8.4017845e-09
2.2350468e-07
8.2175659e-09
2.1882261e-07
8.0249728e-09
2.1415711e-07
7.8446926e-09
2.0966699e-07
7.672816e-09
2.0526243e-07
7.5154355e-09
2.009509e-07
7.3507992e-09
1.9680224e-07
7.104021e-09
1.9268115e-07
7.0194366e-09
1.8864721e-07
6.869004e-09
1.846956e-07
6.7277812e-09
1.8082411e-07
6.59029e-09
1.7703204e-07
6.4543535e-09
1.7331714e-07
6.3221112e-09
1.6967676e-07
6.1941936e-09
1.6610833e-07
6.0705577e-09
1.6260939e-07
5.9510573e-09
1.5917758e-07
5.8355847e-09
1.558105e-07
5.7241238e-09
1.5250562e-07
5.6168251e-09
1.4925998e-07
5.5142292e-09
1.4607021e-07
5.4169676e-09
1.429375e-07
5.3191375e-09
1.3990979e-07
5.1554651e-09
1.368919e-07
5.1206351e-09
1.3392173e-07
5.039572e-09
1.3100445e-07
4.9500287e-09
1.2813789e-07
4.8633964e-09
1.2531947e-07
4.7809041e-09
1.2254708e-07
4.7018435e-09
1.1982009e-07
4.6241197e-09
1.17137e-07
4.5489901e-09
1.1449499e-07
4.4782234e-09
1.1189021e-07
4.4131844e-09
1.0932697e-07
4.3426001e-09
1.0680243e-07
4.2762496e-09
1.0431335e-07
4.2148117e-09
1.0185736e-07
4.1570948e-09
9.9436007e-08
4.0976857e-09
9.7081234e-08
3.9947349e-09
9.4727855e-08
3.9803189e-09
9.2403005e-08
3.9319229e-09
9.0110236e-08
3.877748e-09
8.7848272e-08
3.8253324e-09
8.5615723e-08
3.7751936e-09
8.3411492e-08
3.7269479e-09
8.1234644e-08
3.6803236e-09
7.9084765e-08
3.6344843e-09
7.6960974e-08
3.5900289e-09
7.4844621e-08
3.5710524e-09
7.2768204e-08
3.5095363e-09
7.0695305e-08
3.4984761e-09
6.8660938e-08
3.4384132e-09
6.6649174e-08
3.4016232e-09
6.4655579e-08
3.3704991e-09
6.2654915e-08
3.3395194e-09
6.0693636e-08
3.3076134e-09
5.8792534e-08
3.2490515e-09
5.6866728e-08
3.2458273e-09
5.4954342e-08
3.2212384e-09
5.3060067e-08
3.1927085e-09
5.1182701e-08
3.1651825e-09
4.9320941e-08
3.1391751e-09
4.7473842e-08
3.1144457e-09
4.5640737e-08
3.0907179e-09
4.3821122e-08
3.0677844e-09
4.2013354e-08
3.0471384e-09
4.0210237e-08
3.0375044e-09
3.8425004e-08
3.008504e-09
3.665103e-08
2.9895045e-09
3.4886356e-08
2.9733659e-09
3.3130345e-08
2.9582129e-09
3.1383607e-08
2.9421191e-09
2.9654883e-08
2.9142038e-09
2.7924426e-08
2.913304e-09
2.6200296e-08
2.9014842e-09
2.448383e-08
2.8881813e-09
2.2783311e-08
2.8757393e-09
2.1080502e-08
2.8654766e-09
1.9383433e-08
2.8559924e-09
1.7692547e-08
2.8468489e-09
1.6006863e-08
2.8381288e-09
1.4325651e-08
2.8317204e-09
1.2643201e-08
2.8262295e-09
1.0969049e-08
2.8192845e-09
9.3009417e-09
2.8093655e-09
7.6317433e-09
2.8092057e-09
5.9642807e-09
2.8081629e-09
4.2978746e-09
2.8011438e-09
2.6409181e-09
2.7823902e-09
1.061321e-09
2.6387212e-09
1.7603673e-09
2.4792326e-08
-7.3871815e-08
5.0463676e-08
-7.6323415e-08
7.6192885e-08
-7.6493358e-08
1.0198139e-07
-7.6675955e-08
1.2785012e-07
-7.6919494e-08
1.5382053e-07
-7.7225036e-08
1.7991383e-07
-7.7593164e-08
2.0615138e-07
-7.8024625e-08
2.3255475e-07
-7.8520302e-08
2.5914582e-07
-7.908122e-08
2.8594685e-07
-7.9708539e-08
3.1298049e-07
-8.0403563e-08
3.4026989e-07
-8.116775e-08
3.6783873e-07
-8.2002722e-08
3.9571128e-07
-8.2910276e-08
4.2391247e-07
-8.3892399e-08
4.5246795e-07
-8.4951278e-08
4.8140417e-07
-8.6089319e-08
5.1074844e-07
-8.7309162e-08
5.4052904e-07
-8.8613699e-08
5.7077527e-07
-9.0006099e-08
6.015176e-07
-9.1489828e-08
6.3278773e-07
-9.3068682e-08
6.6461874e-07
-9.4746809e-08
6.970452e-07
-9.6528755e-08
7.301033e-07
-9.8419491e-08
7.6383103e-07
-1.0042447e-07
7.9826835e-07
-1.0254966e-07
8.3345735e-07
-1.0480163e-07
8.6944249e-07
-1.0718758e-07
9.0627081e-07
-1.0971545e-07
9.4399223e-07
-1.1239398e-07
9.8265978e-07
-1.152328e-07
1.02233e-06
-1.182426e-07
1.0630632e-06
-1.2143517e-07
1.104924e-06
-1.2482364e-07
1.1479817e-06
-1.2842259e-07
1.192311e-06
-1.3224827e-07
1.2379922e-06
-1.3631885e-07
1.2851123e-06
-1.4065466e-07
1.3337656e-06
-1.4527855e-07
1.3840546e-06
-1.5021624e-07
1.436091e-06
-1.5549676e-07
1.4899972e-06
-1.61153e-07
1.545907e-06
-1.6722226e-07
1.6039681e-06
-1.7374713e-07
1.6643429e-06
-1.8077599e-07
1.727213e-06
-1.8836513e-07
1.7927736e-06
-1.9657642e-07
1.8612658e-06
-2.0549e-07
1.9328871e-06
-2.1517323e-07
2.0080636e-06
-2.2577189e-07
2.0867548e-06
-2.3728624e-07
2.1700772e-06
-2.5015529e-07
2.2570888e-06
-2.6371716e-07
2.3500635e-06
-2.8054733e-07
2.4480887e-06
-2.9443023e-07
2.5512549e-06
-3.1998054e-07
2.6639734e-06
-3.3291127e-07
2.7815627e-06
-3.6349636e-07
2.9069182e-06
-3.9144664e-07
3.0480443e-06
-4.0979672e-07
3.1947249e-06
-4.5750336e-07
3.3532907e-06
-5.0576898e-07
3.529066e-06
-5.2019417e-07
3.7307221e-06
-5.6393845e-07
3.952528e-06
-6.5879186e-07
4.195811e-06
-7.6657741e-07
4.4633174e-06
-7.9654846e-07
4.7447332e-06
-7.3146708e-07
5.0174203e-06
-6.5415614e-07
5.4327634e-06
-7.8303418e-07
5.0922968e-06
-4.4755275e-07
4.5000551e-06
9.0877599e-07
4.0301252e-06
1.7147366e-06
3.784962e-06
1.7438575e-06
3.5657954e-06
1.4112246e-06
3.3370368e-06
1.0484637e-06
3.110522e-06
8.0463319e-07
2.9026323e-06
6.398648e-07
2.7190046e-06
5.2569133e-07
2.5583146e-06
4.4379266e-07
2.4170349e-06
3.830327e-07
2.2916158e-06
3.3649002e-07
2.1791814e-06
2.9982065e-07
2.0774821e-06
2.7021516e-07
1.9847675e-06
2.4580489e-07
1.8996684e-06
2.2531385e-07
1.8211022e-06
2.0784771e-07
1.7482021e-06
1.9276394e-07
1.6802653e-06
1.7959018e-07
1.6167147e-06
1.6797186e-07
1.5570709e-06
1.5763786e-07
1.5009315e-06
1.4837733e-07
1.4479555e-06
1.4002387e-07
1.397851e-06
1.3244439e-07
1.3503664e-06
1.2553118e-07
1.3052829e-06
1.1919608e-07
1.2624092e-06
1.1336628e-07
1.2215769e-06
1.0798106e-07
1.1826366e-06
1.029894e-07
1.1454554e-06
9.8348087e-08
1.1099143e-06
9.4020275e-08
1.0759063e-06
8.9974346e-08
1.0433346e-06
8.6183002e-08
1.0121115e-06
8.2622542e-08
9.8215729e-07
7.9272279e-08
9.5339887e-07
7.6114069e-08
9.257694e-07
7.3131921e-08
8.9920738e-07
7.0311684e-08
8.7365608e-07
6.7640774e-08
8.4906305e-07
6.5107967e-08
8.2537966e-07
6.2703202e-08
8.0256063e-07
6.041748e-08
7.8056361e-07
5.8242718e-08
7.5934786e-07
5.6172273e-08
7.3887251e-07
5.4200845e-08
7.1908847e-07
5.2330329e-08
6.9982787e-07
5.060437e-08
6.8169023e-07
4.867319e-08
6.6389834e-07
4.7165742e-08
6.466413e-07
4.5622498e-08
6.2994603e-07
4.4118193e-08
6.1387651e-07
4.2560851e-08
5.9831168e-07
4.1207082e-08
5.8322413e-07
3.9926711e-08
5.6860873e-07
3.8669758e-08
5.5444371e-07
3.7451765e-08
5.4067121e-07
3.6281943e-08
5.2752053e-07
3.517244e-08
5.1460826e-07
3.4140808e-08
5.0220316e-07
3.2894851e-08
4.9003839e-07
3.2068898e-08
4.784028e-07
3.0960542e-08
4.6700744e-07
3.0155398e-08
4.5594699e-07
2.9288439e-08
4.4525633e-07
2.8423068e-08
4.3470901e-07
2.7542677e-08
4.2455234e-07
2.6803581e-08
4.1486645e-07
2.5879031e-08
4.053865e-07
2.5250239e-08
3.959657e-07
2.457078e-08
3.8692341e-07
2.3883925e-08
3.7815734e-07
2.3205238e-08
3.6963301e-07
2.2535315e-08
3.6135224e-07
2.2067991e-08
3.5328877e-07
2.1364598e-08
3.4542362e-07
2.0769385e-08
3.3776026e-07
2.0220316e-08
3.3029106e-07
1.9690759e-08
3.2300046e-07
1.9177451e-08
3.1601858e-07
1.8680815e-08
3.0913062e-07
1.8199948e-08
3.0240334e-07
1.7735814e-08
2.9584906e-07
1.7286687e-08
2.8946311e-07
1.6852337e-08
2.8323847e-07
1.6431974e-08
2.7716911e-07
1.6024507e-08
2.7125108e-07
1.5628047e-08
2.6548373e-07
1.5239566e-08
2.5986562e-07
1.4863559e-08
2.5428615e-07
1.461862e-08
2.4891015e-07
1.4195091e-08
2.4367104e-07
1.3842108e-08
2.3854912e-07
1.352371e-08
2.3353953e-07
1.3227148e-08
2.2865942e-07
1.2905082e-08
2.2382308e-07
1.2681035e-08
2.1916484e-07
1.2331054e-08
2.1455413e-07
1.2126145e-08
2.1009601e-07
1.1808922e-08
2.0564661e-07
1.1553427e-08
2.0135625e-07
1.130979e-08
1.971802e-07
1.1045057e-08
1.9307285e-07
1.0835134e-08
1.8903957e-07
1.0623567e-08
1.8508577e-07
1.0408157e-08
1.8121139e-07
1.0196489e-08
1.7741417e-07
9.9914107e-09
1.7369163e-07
9.7930988e-09
1.7004136e-07
9.601332e-09
1.6646108e-07
9.4158635e-09
1.6294872e-07
9.2364816e-09
1.5950254e-07
9.0630063e-09
1.5612157e-07
8.8951982e-09
1.5280685e-07
8.7316848e-09
1.4955663e-07
8.5693588e-09
1.4631354e-07
8.3985611e-09
1.4317011e-07
8.2640648e-09
1.4008312e-07
8.1265563e-09
1.3704501e-07
7.9881451e-09
1.3405564e-07
7.8527671e-09
1.3111395e-07
7.7225928e-09
1.2821836e-07
7.5974281e-09
1.2537046e-07
7.4720175e-09
1.2256889e-07
7.3505647e-09
1.1981017e-07
7.2369399e-09
1.1708637e-07
7.1369892e-09
1.144098e-07
7.0191656e-09
1.1177475e-07
6.9113037e-09
1.0917872e-07
6.8108367e-09
1.0662227e-07
6.7135507e-09
1.0410393e-07
6.6160195e-09
1.0158601e-07
6.5126573e-09
9.9132125e-08
6.4342053e-09
9.6711515e-08
6.3525329e-09
9.4319692e-08
6.2695723e-09
9.1957017e-08
6.1880077e-09
8.9623245e-08
6.1089653e-09
8.7317424e-08
6.03277e-09
8.503716e-08
5.9605873e-09
8.2779171e-08
5.8924737e-09
8.0542565e-08
5.8266347e-09
7.8373964e-08
5.7396539e-09
7.6187365e-08
5.6961346e-09
7.4045782e-08
5.640059e-09
7.1909995e-08
5.5741998e-09
6.9798016e-08
5.5136017e-09
6.7711376e-08
5.4571385e-09
6.5627049e-08
5.4238462e-09
6.3581123e-08
5.3535396e-09
6.1550649e-08
5.2795256e-09
5.9540381e-08
5.2560949e-09
5.7545424e-08
5.2161963e-09
5.5566515e-08
5.1716179e-09
5.3603353e-08
5.1283452e-09
5.1655339e-08
5.0871894e-09
4.9721689e-08
5.0480965e-09
4.780129e-08
5.0111175e-09
4.5892402e-08
4.9766728e-09
4.39956e-08
4.9439417e-09
4.213178e-08
4.9013248e-09
4.0259834e-08
4.8804504e-09
3.8398947e-08
4.8503922e-09
3.6550783e-08
4.8215306e-09
3.4714304e-08
4.7946922e-09
3.2888244e-08
4.7681798e-09
3.106169e-08
4.7407582e-09
2.9252414e-08
4.7225801e-09
2.7450247e-08
4.7036508e-09
2.5654731e-08
4.6836979e-09
2.3872409e-08
4.6580614e-09
2.2089884e-08
4.6480014e-09
2.031297e-08
4.6329054e-09
1.8542318e-08
4.6175011e-09
1.6778394e-08
4.602052e-09
1.5017834e-08
4.5922802e-09
1.3257895e-08
4.5861689e-09
1.1504935e-08
4.5722435e-09
9.752322e-09
4.5619784e-09
8.0046589e-09
4.5568684e-09
6.2622727e-09
4.5505487e-09
4.5185056e-09
4.5449104e-09
2.7847048e-09
4.5161907e-09
1.1271306e-09
4.2962949e-09
2.8874977e-09
2.4737311e-08
-9.8609126e-08
5.034538e-08
-1.0193148e-07
7.6011508e-08
-1.0215949e-07
1.0173781e-07
-1.0240226e-07
1.275444e-07
-1.0272608e-07
1.5345215e-07
-1.0313279e-07
1.7948207e-07
-1.0362309e-07
2.0565536e-07
-1.0419791e-07
2.3199344e-07
-1.0485839e-07
2.5851807e-07
-1.0560585e-07
2.8525134e-07
-1.0644181e-07
3.1221576e-07
-1.0736799e-07
3.3943432e-07
-1.0838631e-07
3.6693052e-07
-1.0949892e-07
3.9472845e-07
-1.107082e-07
4.2285283e-07
-1.1201677e-07
4.5132908e-07
-1.1342754e-07
4.8018344e-07
-1.1494367e-07
5.0944295e-07
-1.1656867e-07
5.3913561e-07
-1.1830636e-07
5.6929043e-07
-1.2016093e-07
5.9993756e-07
-1.2213695e-07
6.3110833e-07
-1.2423945e-07
6.6283543e-07
-1.2647391e-07
6.95153e-07
-1.2884632e-07
7.2809675e-07
-1.3136324e-07
7.6170415e-07
-1.3403187e-07
7.9601458e-07
-1.3686008e-07
8.3106946e-07
-1.3985652e-07
8.6691254e-07
-1.4303067e-07
9.0359006e-07
-1.4639297e-07
9.41151e-07
-1.4995492e-07
9.7964739e-07
-1.5372919e-07
1.0191346e-06
-1.577298e-07
1.0596717e-06
-1.6197224e-07
1.1013217e-06
-1.664737e-07
1.1441524e-06
-1.7125328e-07
1.1882364e-06
-1.7633226e-07
1.2336519e-06
-1.8173437e-07
1.2804834e-06
-1.8748616e-07
1.3288223e-06
-1.9361743e-07
1.3787677e-06
-2.0016166e-07
1.4304276e-06
-2.0715662e-07
1.4839196e-06
-2.1464499e-07
1.5393725e-06
-2.2267518e-07
1.5969277e-06
-2.3130236e-07
1.6567406e-06
-2.4058888e-07
1.7189838e-06
-2.5060832e-07
1.7838449e-06
-2.6143753e-07
1.8515447e-06
-2.7318982e-07
1.9222936e-06
-2.8592209e-07
1.9964258e-06
-2.9990414e-07
2.0740754e-06
-3.1493584e-07
2.1558978e-06
-3.3197764e-07
2.2417378e-06
-3.4955718e-07
2.3325477e-06
-3.7135725e-07
2.4290278e-06
-3.9091028e-07
2.5296682e-06
-4.2062092e-07
2.639497e-06
-4.4274012e-07
2.7550007e-06
-4.7900009e-07
2.8754706e-06
-5.1191646e-07
3.0137281e-06
-5.4805423e-07
3.1559712e-06
-5.9974644e-07
3.3073298e-06
-6.5712764e-07
3.4810094e-06
-6.9387376e-07
3.6833855e-06
-7.6631451e-07
3.90533e-06
-8.8073638e-07
4.1391283e-06
-1.0003757e-06
4.4011993e-06
-1.0586195e-06
4.7125021e-06
-1.0427698e-06
5.1303596e-06
-1.0720137e-06
4.9123276e-06
-5.6500216e-07
4.1596096e-06
3.0516522e-07
3.5842628e-06
1.4841228e-06
3.4347388e-06
1.8642607e-06
3.376486e-06
1.8021102e-06
3.2894519e-06
1.4982588e-06
3.1452537e-06
1.1926618e-06
2.9798856e-06
9.7000132e-07
2.8152051e-06
8.0454529e-07
2.6605621e-06
6.8033435e-07
2.5187644e-06
5.855903e-07
2.389798e-06
5.1199909e-07
2.2725774e-06
4.5371068e-07
2.1657418e-06
4.0665628e-07
2.0679652e-06
3.6799176e-07
1.9780656e-06
3.3570442e-07
1.8950299e-06
3.0834958e-07
1.8180036e-06
2.8487402e-07
1.7462701e-06
2.6449743e-07
1.6792279e-06
2.4663237e-07
1.61637e-06
2.3082973e-07
1.5572668e-06
2.1674114e-07
1.5015515e-06
2.0409262e-07
1.4489093e-06
1.9266602e-07
1.3990681e-06
1.8228559e-07
1.3517911e-06
1.7280825e-07
1.3068708e-06
1.6411635e-07
1.2641248e-06
1.561123e-07
1.2233914e-06
1.4871445e-07
1.1845268e-06
1.4185399e-07
1.1474024e-06
1.3547249e-07
1.1119026e-06
1.2952005e-07
1.0779232e-06
1.2395374e-07
1.0453698e-06
1.1873643e-07
1.0141565e-06
1.1383586e-07
9.8420494e-07
1.0922382e-07
9.5544346e-07
1.0487555e-07
9.2780618e-07
1.007692e-07
9.0123246e-07
9.6885407e-08
8.7566628e-07
9.3206957e-08
8.5105577e-07
8.971847e-08
8.2735282e-07
8.640616e-08
8.0451262e-07
8.3257674e-08
7.8249346e-07
8.0261883e-08
7.6125675e-07
7.7408979e-08
7.4076759e-07
7.4690008e-08
7.2099986e-07
7.2098062e-08
7.0198773e-07
6.9616493e-08
6.8339399e-07
6.7266933e-08
6.6554112e-07
6.5018607e-08
6.4830303e-07
6.2860588e-08
6.3156812e-07
6.085311e-08
6.1558183e-07
5.8547135e-08
6.0000176e-07
5.6787156e-08
5.8488076e-07
5.5047712e-08
5.7023611e-07
5.3314401e-08
5.5604707e-07
5.1640814e-08
5.4225791e-07
5.0071102e-08
5.2912823e-07
4.830212e-08
5.1633022e-07
4.6938812e-08
5.0369167e-07
4.5533404e-08
4.9159813e-07
4.4162437e-08
4.7973306e-07
4.2825615e-08
4.6833548e-07
4.1552973e-08
4.5729755e-07
4.0326367e-08
4.4657512e-07
3.9145503e-08
4.3612301e-07
3.7994784e-08
4.2598987e-07
3.693672e-08
4.1615844e-07
3.5710461e-08
4.0662402e-07
3.4784662e-08
3.9721123e-07
3.3983572e-08
3.8815455e-07
3.2940599e-08
3.7934955e-07
3.2010244e-08
3.7073053e-07
3.1154334e-08
3.6262286e-07
3.0175657e-08
3.5453269e-07
2.9454772e-08
3.4661896e-07
2.8683108e-08
3.3892012e-07
2.7919156e-08
3.3142373e-07
2.7187156e-08
3.2411031e-07
2.6490865e-08
3.1711296e-07
2.5678166e-08
3.1020741e-07
2.5105506e-08
3.0346156e-07
2.4481655e-08
2.9688985e-07
2.3858398e-08
2.904866e-07
2.325559e-08
2.842442e-07
2.2674379e-08
2.7815549e-07
2.2113212e-08
2.722139e-07
2.1569636e-08
2.6641452e-07
2.1038952e-08
2.607564e-07
2.0521669e-08
2.5524416e-07
2.013086e-08
2.4985709e-07
1.9582168e-08
2.4459033e-07
1.9108871e-08
2.3945312e-07
1.8660919e-08
2.3436538e-07
1.8314885e-08
2.294308e-07
1.7839666e-08
2.2467429e-07
1.7437547e-08
2.199424e-07
1.7062937e-08
2.154546e-07
1.6613944e-08
2.1095305e-07
1.6310474e-08
2.0646501e-07
1.6041472e-08
2.021319e-07
1.5642893e-08
1.9796442e-07
1.5212539e-08
1.938329e-07
1.4966657e-08
1.8977953e-07
1.4676937e-08
1.8581106e-07
1.4376625e-08
1.8192395e-07
1.4083599e-08
1.7811473e-07
1.380063e-08
1.7438046e-07
1.3527371e-08
1.7071859e-07
1.3263201e-08
1.6712685e-07
1.3007608e-08
1.6360315e-07
1.2760184e-08
1.6014561e-07
1.2520544e-08
1.5675257e-07
1.2288232e-08
1.5342167e-07
1.2062593e-08
1.5014865e-07
1.1842378e-08
1.4692268e-07
1.1624522e-08
1.437623e-07
1.1424445e-08
1.406598e-07
1.1229062e-08
1.3761015e-07
1.1037793e-08
1.3461052e-07
1.0852399e-08
1.3165835e-07
1.0674765e-08
1.2874994e-07
1.0505833e-08
1.2589137e-07
1.0330588e-08
1.2308257e-07
1.015937e-08
1.2032188e-07
9.9976264e-09
1.1757249e-07
9.8863835e-09
1.1489108e-07
9.7005687e-09
1.1224881e-07
9.5535751e-09
1.0964273e-07
9.4169176e-09
1.0707309e-07
9.2831973e-09
1.0453738e-07
9.1517267e-09
1.020287e-07
9.0213339e-09
9.9560437e-08
8.9024697e-09
9.7126949e-08
8.7860219e-09
9.4724865e-08
8.6716557e-09
9.2352781e-08
8.5600923e-09
9.0010318e-08
8.4514284e-09
8.7697197e-08
8.3458906e-09
8.5411639e-08
8.2461461e-09
8.3154066e-08
8.1500462e-09
8.0923128e-08
8.0575729e-09
7.8692171e-08
7.9706112e-09
7.6507732e-08
7.8805732e-09
7.4357533e-08
7.790258e-09
7.2219032e-08
7.7127005e-09
7.0095344e-08
7.6372901e-09
6.798995e-08
7.5625321e-09
6.5942276e-08
7.4715198e-09
6.3880557e-08
7.415259e-09
6.1822967e-08
7.3371154e-09
5.9800456e-08
7.2786061e-09
5.7798234e-08
7.2184188e-09
5.5812051e-08
7.1578015e-09
5.3841272e-08
7.0991245e-09
5.1885523e-08
7.042939e-09
4.9944404e-08
6.9892156e-09
4.8017603e-08
6.937919e-09
4.6105233e-08
6.8890434e-09
4.4206516e-08
6.8426599e-09
4.2308568e-08
6.7992737e-09
4.0433366e-08
6.7556525e-09
3.856918e-08
6.714579e-09
3.6714869e-08
6.6758414e-09
3.4870447e-08
6.639115e-09
3.3034675e-08
6.6039526e-09
3.1205131e-08
6.5703023e-09
2.9386815e-08
6.5408963e-09
2.7577601e-08
6.5128643e-09
2.5776053e-08
6.4852464e-09
2.3976767e-08
6.4573476e-09
2.2188038e-08
6.43673e-09
2.0404698e-08
6.4162454e-09
1.862595e-08
6.3962489e-09
1.6853865e-08
6.3741366e-09
1.5084612e-08
6.3615326e-09
1.3321121e-08
6.34966e-09
1.1559933e-08
6.3334308e-09
9.8003088e-09
6.3216026e-09
8.0445999e-09
6.3125768e-09
6.2914995e-09
6.3036488e-09
4.5405597e-09
6.2958498e-09
2.798972e-09
6.257778e-09
1.1353437e-09
5.9599227e-09
4.0228412e-09
2.4660815e-08
-1.2326994e-07
5.0186724e-08
-1.2745739e-07
7.5770259e-08
-1.2774302e-07
1.0141392e-07
-1.2804592e-07
1.2713754e-07
-1.284497e-07
1.5296165e-07
-1.2895689e-07
1.78907e-07
-1.2956844e-07
2.0499458e-07
-1.3028549e-07
2.3124563e-07
-1.3110944e-07
2.5768171e-07
-1.3204192e-07
2.8432471e-07
-1.3308481e-07
3.1119694e-07
-1.3424022e-07
3.3832115e-07
-1.3551053e-07