/*--------------------------------*- C++ -*----------------------------------*\
| =========                 |                                                 |
| \\      /  F ield         | OpenFOAM: The Open Source CFD Toolbox           |
|  \\    /   O peration     | Version:  2106                                  |
|   \\  /    A nd           | Website:  www.openfoam.com                      |
|    \\/     M anipulation  |                                                 |
\*---------------------------------------------------------------------------*/
FoamFile
{
    version     2.0;
    format      ascii;
    arch        "LSB;label=32;scalar=64";
    class       volVectorField;
    location    "0.025";
    object      U_0;
}
// * * * * * * * * * * * * * * * * * * * * * * * * * * * * * * * * * * * * * //

dimensions      [0 1 -1 0 0 0 0];

internalField   nonuniform List<vector> 
32768
(
(0.0013337762 -0.0013406839 0)
(0.0041111233 -0.0013618305 0)
(0.0069033212 -0.0013646827 0)
(0.0097068243 -0.0013687131 0)
(0.012516799 -0.0013734154 0)
(0.01533681 -0.0013790187 0)
(0.018169422 -0.0013857089 0)
(0.021016794 -0.0013935187 0)
(0.02388124 -0.0014024734 0)
(0.026765136 -0.0014125989 0)
(0.029670902 -0.0014239192 0)
(0.032601002 -0.0014364593 0)
(0.035557953 -0.0014502465 0)
(0.03854433 -0.001465311 0)
(0.041562773 -0.0014816859 0)
(0.044615992 -0.0014994079 0)
(0.047706774 -0.0015185174 0)
(0.050837994 -0.0015390588 0)
(0.054012618 -0.0015610809 0)
(0.057233718 -0.0015846372 0)
(0.060504478 -0.0016097864 0)
(0.063828206 -0.0016365926 0)
(0.067208346 -0.0016651262 0)
(0.070648492 -0.0016954644 0)
(0.074152398 -0.0017276917 0)
(0.077723999 -0.0017619008 0)
(0.081367425 -0.0017981933 0)
(0.08508702 -0.0018366809 0)
(0.088887364 -0.0018774867 0)
(0.092773298 -0.0019207459 0)
(0.096749944 -0.0019666078 0)
(0.10082274 -0.0020152373 0)
(0.10499749 -0.0020668169 0)
(0.10928034 -0.0021215492 0)
(0.1136779 -0.0021796589 0)
(0.11819725 -0.0022413967 0)
(0.12284599 -0.0023070423 0)
(0.1276323 -0.0023769089 0)
(0.13256502 -0.002451348 0)
(0.13765376 -0.0025307552 0)
(0.14290892 -0.0026155773 0)
(0.14834187 -0.0027063204 0)
(0.15396501 -0.0028035597 0)
(0.15979198 -0.0029079501 0)
(0.16583775 -0.0030202456 0)
(0.17211887 -0.0031412911 0)
(0.1786538 -0.0032721401 0)
(0.18546252 -0.0034137052 0)
(0.19256912 -0.0035680711 0)
(0.19999503 -0.0037343496 0)
(0.20777992 -0.0039209958 0)
(0.21592718 -0.0041127857 0)
(0.22453761 -0.0043506257 0)
(0.23352402 -0.0045629299 0)
(0.24315799 -0.0048759139 0)
(0.25319124 -0.005143383 0)
(0.26399271 -0.0054889034 0)
(0.27548474 -0.0059320627 0)
(0.28759967 -0.0062449495 0)
(0.30083271 -0.0068566367 0)
(0.31496215 -0.0073741606 0)
(0.33015032 -0.007956142 0)
(0.34652038 -0.0086936443 0)
(0.36462841 -0.0094249987 0)
(0.38445128 -0.010323689 0)
(0.40491051 -0.011181055 0)
(0.42648115 -0.011502981 0)
(0.45153349 -0.011806031 0)
(0.47967323 -0.011910851 0)
(0.50662505 -0.010426114 0)
(0.52763277 -0.0090571268 0)
(0.54530712 -0.010355561 0)
(0.56082224 -0.015595803 0)
(0.57743773 -0.018706618 0)
(0.60254898 0.01080379 0)
(0.47949334 0.044298389 0)
(0.37529484 0.047305242 0)
(0.30920645 0.030067729 0)
(0.26644598 0.0167781 0)
(0.23850953 0.010059943 0)
(0.21853383 0.0068030286 0)
(0.20325357 0.0051247393 0)
(0.19079737 0.0041568888 0)
(0.18019533 0.0035385498 0)
(0.17092221 0.0031057543 0)
(0.16265859 0.0027801035 0)
(0.15519573 0.0025219412 0)
(0.14838854 0.0023097015 0)
(0.14213113 0.0021307019 0)
(0.13634312 0.0019769092 0)
(0.13096172 0.0018428923 0)
(0.12593669 0.0017247841 0)
(0.1212271 0.0016197235 0)
(0.11679907 0.0015255269 0)
(0.11262421 0.0014404913 0)
(0.10867845 0.0013632652 0)
(0.10494118 0.0012927594 0)
(0.10139459 0.0012280854 0)
(0.098023194 0.0011685097 0)
(0.094813392 0.0011134216 0)
(0.091753196 0.0010623079 0)
(0.088831959 0.0010147346 0)
(0.086040178 0.00097033161 0)
(0.083369326 0.00092878134 0)
(0.080811716 0.00088980971 0)
(0.078360389 0.00085317866 0)
(0.07600902 0.0008186801 0)
(0.073751837 0.00078613151 0)
(0.071583556 0.00075537221 0)
(0.069499324 0.00072625999 0)
(0.067494668 0.0006986686 0)
(0.065565454 0.00067248599 0)
(0.063707853 0.00064761343 0)
(0.061918305 0.00062396632 0)
(0.06019349 0.00060148046 0)
(0.05853029 0.00058013002 0)
(0.056925833 0.00055997471 0)
(0.055377033 0.00054123419 0)
(0.053883612 0.0005262005 0)
(0.05244099 0.0004428076 0)
(0.051043304 0.00046983633 0)
(0.049693696 0.00046732902 0)
(0.048390891 0.00045446234 0)
(0.047131757 0.00043920676 0)
(0.045914064 0.00042470966 0)
(0.044735272 0.0004110866 0)
(0.043593587 0.00039806158 0)
(0.042487927 0.00038574419 0)
(0.041418053 0.00037439805 0)
(0.040380066 0.00036610541 0)
(0.039372496 0.00035357671 0)
(0.038400171 0.0003391382 0)
(0.037460453 0.00032388115 0)
(0.036541706 0.00030999922 0)
(0.035647725 0.00030025178 0)
(0.034785212 0.00029476944 0)
(0.033948894 0.00028773154 0)
(0.033141377 0.00031690969 0)
(0.032358933 0.00027708684 0)
(0.031591064 0.00029869967 0)
(0.030841919 0.00026163803 0)
(0.030120244 0.00028402383 0)
(0.029423297 0.00024996183 0)
(0.02874264 0.00023723866 0)
(0.028080033 0.00023029551 0)
(0.027433675 0.00022622365 0)
(0.026803737 0.00021888666 0)
(0.026193504 0.00021162226 0)
(0.02560097 0.00020542944 0)
(0.025024152 0.0001999927 0)
(0.024462918 0.00019537206 0)
(0.023915041 0.00019210828 0)
(0.023380621 0.00018602768 0)
(0.02286159 0.00017993279 0)
(0.022356321 0.00017466385 0)
(0.021863654 0.00016994276 0)
(0.021383291 0.00016553535 0)
(0.020914901 0.0001613788 0)
(0.020457935 0.00015753959 0)
(0.020011545 0.00015422103 0)
(0.019575933 0.00015066647 0)
(0.019153996 0.00012560498 0)
(0.018742837 0.00014035488 0)
(0.01833863 0.00013924731 0)
(0.017943138 0.00013400342 0)
(0.017556383 0.00011090356 0)
(0.017178304 0.00012639124 0)
(0.016812866 0.00012847801 0)
(0.016456309 0.00012754577 0)
(0.016104889 0.00014086091 0)
(0.01576039 0.00012074287 0)
(0.015424505 0.0001125811 0)
(0.015097189 0.00011016361 0)
(0.014776185 0.0001084483 0)
(0.014461968 0.00010655642 0)
(0.014154366 0.00010447806 0)
(0.01385313 0.00010231729 0)
(0.013558131 0.000100161 0)
(0.013269206 9.8046669e-05 0)
(0.012986164 9.5989879e-05 0)
(0.012708815 9.3995103e-05 0)
(0.01243697 9.2061203e-05 0)
(0.012170447 9.0182047e-05 0)
(0.011909062 8.8345089e-05 0)
(0.011652625 8.6535082e-05 0)
(0.011401013 8.4805426e-05 0)
(0.011153601 8.4088132e-05 0)
(0.010912212 9.3381835e-05 0)
(0.010675699 8.1973095e-05 0)
(0.010441899 7.8761868e-05 0)
(0.010212201 7.7155838e-05 0)
(0.009986616 7.5780035e-05 0)
(0.0097649547 7.4455237e-05 0)
(0.0095470592 7.3163134e-05 0)
(0.0093328197 7.1891843e-05 0)
(0.0091221411 7.0663975e-05 0)
(0.008914884 6.9502705e-05 0)
(0.0087108247 6.8405127e-05 0)
(0.008509938 6.7237098e-05 0)
(0.0083122464 6.6095214e-05 0)
(0.0081175555 6.4996239e-05 0)
(0.0079257471 6.3980333e-05 0)
(0.0077364278 6.3743225e-05 0)
(0.0075508647 7.0096815e-05 0)
(0.0073681689 6.2377175e-05 0)
(0.0071869246 6.0369662e-05 0)
(0.0070081955 5.9418877e-05 0)
(0.0068319255 5.8608876e-05 0)
(0.0066580192 5.7829702e-05 0)
(0.0064863896 5.7083374e-05 0)
(0.0063169525 5.6386031e-05 0)
(0.0061496134 5.5698074e-05 0)
(0.005984514 5.4409881e-05 0)
(0.0058208636 4.8032459e-05 0)
(0.0056591877 5.2091957e-05 0)
(0.0054991565 4.7052871e-05 0)
(0.0053405822 5.1602341e-05 0)
(0.0051842059 5.2035855e-05 0)
(0.0050293439 5.195257e-05 0)
(0.0048772816 5.1261915e-05 0)
(0.0047266589 5.0636378e-05 0)
(0.004576047 5.3712074e-05 0)
(0.0044268225 4.8982007e-05 0)
(0.0042793807 4.8313098e-05 0)
(0.0041334531 4.8041796e-05 0)
(0.0039886631 4.7714028e-05 0)
(0.0038450225 4.7352297e-05 0)
(0.0037025299 4.6987182e-05 0)
(0.0035611479 4.6635248e-05 0)
(0.0034208184 4.627472e-05 0)
(0.0032815981 4.5561384e-05 0)
(0.0031430356 4.2217977e-05 0)
(0.0030053657 4.4818958e-05 0)
(0.0028688722 4.4964146e-05 0)
(0.0027331126 4.4693303e-05 0)
(0.0025981286 4.4421089e-05 0)
(0.0024638074 4.4430922e-05 0)
(0.0023305334 4.6312872e-05 0)
(0.002197981 4.3951819e-05 0)
(0.0020657742 4.3323147e-05 0)
(0.0019342043 4.2888754e-05 0)
(0.0018027889 4.2674765e-05 0)
(0.0016718991 4.2553128e-05 0)
(0.0015418855 4.2654069e-05 0)
(0.0014122628 4.2861323e-05 0)
(0.0012829985 4.4059617e-05 0)
(0.0011540731 4.2647662e-05 0)
(0.0010255733 4.1322149e-05 0)
(0.00089737983 4.2248054e-05 0)
(0.00076940301 4.2879047e-05 0)
(0.0006416565 4.2036794e-05 0)
(0.00051389014 4.1824544e-05 0)
(0.00038635437 4.1584769e-05 0)
(0.000260359 4.1294164e-05 0)
(0.00013203385 3.8644392e-05 0)
(2.6516741e-05 2.6433485e-05 0)
(0.0013533145 -0.0041028169 0)
(0.0042169335 -0.004231754 0)
(0.007099122 -0.0042417384 0)
(0.0099888411 -0.0042527637 0)
(0.012884742 -0.0042666921 0)
(0.015790887 -0.0042838242 0)
(0.018709697 -0.0043043898 0)
(0.021643543 -0.0043284524 0)
(0.024594836 -0.0043560739 0)
(0.027566021 -0.0043873211 0)
(0.030559577 -0.004422263 0)
(0.033578033 -0.0044609744 0)
(0.036623965 -0.004503538 0)
(0.039700012 -0.0045500454 0)
(0.042808873 -0.0046005979 0)
(0.045953319 -0.0046553073 0)
(0.049136202 -0.0047142969 0)
(0.052360458 -0.0047777022 0)
(0.055629118 -0.0048456718 0)
(0.058945318 -0.0049183689 0)
(0.062312307 -0.0049959721 0)
(0.065733459 -0.0050786771 0)
(0.069212286 -0.0051666979 0)
(0.072752448 -0.0052602691 0)
(0.076357768 -0.0053596473 0)
(0.080032248 -0.005465114 0)
(0.083780086 -0.0055769777 0)
(0.087605696 -0.0056955768 0)
(0.091513726 -0.0058212833 0)
(0.095509083 -0.0059545064 0)
(0.099596958 -0.0060956967 0)
(0.10378286 -0.0062453514 0)
(0.10807262 -0.0064040199 0)
(0.11247249 -0.0065723106 0)
(0.11698912 -0.0067508982 0)
(0.12162961 -0.0069405326 0)
(0.12640162 -0.0071420494 0)
(0.13131335 -0.0073563819 0)
(0.13637367 -0.0075845744 0)
(0.14159215 -0.0078277995 0)
(0.14697918 -0.0080873768 0)
(0.15254606 -0.0083647957 0)
(0.15830509 -0.0086617426 0)
(0.16426974 -0.0089801305 0)
(0.17045482 -0.0093221472 0)
(0.17687642 -0.0096902515 0)
(0.18355317 -0.010087427 0)
(0.19050241 -0.01051644 0)
(0.19775495 -0.010982887 0)
(0.2053076 -0.0114849 0)
(0.21326991 -0.012046671 0)
(0.22144962 -0.012619674 0)
(0.23043065 -0.013347037 0)
(0.23901704 -0.013943516 0)
(0.24972095 -0.014934363 0)
(0.25825217 -0.015704915 0)
(0.27127858 -0.016468617 0)
(0.28047965 -0.018536698 0)
(0.29433098 -0.01812899 0)
(0.30689096 -0.021042827 0)
(0.32048898 -0.0226989 0)
(0.3362475 -0.022021828 0)
(0.35210464 -0.026635186 0)
(0.36962538 -0.029871366 0)
(0.39003415 -0.028693098 0)
(0.40928116 -0.029705 0)
(0.43035193 -0.036404131 0)
(0.45830057 -0.044006401 0)
(0.49072935 -0.043980149 0)
(0.52008125 -0.035757956 0)
(0.54486293 -0.027996806 0)
(0.56497616 -0.029290128 0)
(0.57731062 -0.035523625 0)
(0.66939826 0.010092196 0)
(0.56480616 0.10567421 0)
(0.47105902 0.1502919 0)
(0.42173582 0.1212818 0)
(0.38331254 0.080498246 0)
(0.35218255 0.052875886 0)
(0.32573418 0.036953707 0)
(0.30330137 0.027956326 0)
(0.28410644 0.022533236 0)
(0.2674882 0.01896847 0)
(0.25293693 0.016446203 0)
(0.24003765 0.014553631 0)
(0.22847249 0.013069294 0)
(0.21800154 0.011866191 0)
(0.20844244 0.010866451 0)
(0.19965471 0.010019464 0)
(0.19152844 0.0092907092 0)
(0.18397619 0.008655684 0)
(0.17692738 0.0080964228 0)
(0.17032418 0.0075994078 0)
(0.16411862 0.0071542405 0)
(0.15827041 0.0067527766 0)
(0.15274538 0.0063885399 0)
(0.14751428 0.0060563095 0)
(0.14255183 0.0057518268 0)
(0.13783603 0.0054715807 0)
(0.13334762 0.0052126497 0)
(0.12906957 0.0049725814 0)
(0.1249868 0.0047493017 0)
(0.12108584 0.0045410441 0)
(0.11735461 0.0043462932 0)
(0.11378224 0.0041637418 0)
(0.11035887 0.0039922555 0)
(0.10707557 0.0038308441 0)
(0.10392417 0.0036786394 0)
(0.10089722 0.0035348766 0)
(0.097987856 0.0033988792 0)
(0.095189777 0.0032700456 0)
(0.092497153 0.0031478395 0)
(0.089904594 0.0030317806 0)
(0.0874071 0.002921437 0)
(0.085000034 0.0028164134 0)
(0.082679121 0.0027163362 0)
(0.080440577 0.002620728 0)
(0.078280471 0.0025297387 0)
(0.07619832 0.0024300819 0)
(0.074179856 0.0024258148 0)
(0.072224942 0.0023000939 0)
(0.070342042 0.0022071703 0)
(0.068523382 0.0021306039 0)
(0.066765843 0.002058664 0)
(0.065066679 0.0019926503 0)
(0.063420557 0.0019299799 0)
(0.061826012 0.0018688781 0)
(0.060281744 0.0018091863 0)
(0.058788913 0.0017499381 0)
(0.057336088 0.0016993341 0)
(0.055921301 0.0016436234 0)
(0.054559389 0.0015885028 0)
(0.053238042 0.0015362543 0)
(0.051959751 0.001542901 0)
(0.050726336 0.0014652746 0)
(0.049518129 0.0014152156 0)
(0.048339619 0.0013763878 0)
(0.047204676 0.0012841505 0)
(0.046103465 0.0012781331 0)
(0.045033567 0.0012501 0)
(0.043995926 0.0012190864 0)
(0.042984656 0.0011423777 0)
(0.042004568 0.0011420468 0)
(0.041046696 0.0011187764 0)
(0.040117253 0.0010879462 0)
(0.039207729 0.0010638747 0)
(0.038320376 0.0010306285 0)
(0.037464073 0.0010012268 0)
(0.036632307 0.00097425514 0)
(0.035822313 0.00094814134 0)
(0.035034265 0.00092216268 0)
(0.034262152 0.00090078093 0)
(0.033508197 0.00087535593 0)
(0.032777794 0.00085322146 0)
(0.032066677 0.0008320941 0)
(0.031372907 0.00081151255 0)
(0.030696075 0.00079144051 0)
(0.030035921 0.00077194274 0)
(0.0293922 0.00075315147 0)
(0.028764372 0.00073534067 0)
(0.028153286 0.00071947329 0)
(0.02755134 0.00070375798 0)
(0.026961648 0.00068674064 0)
(0.026392048 0.00066836921 0)
(0.025835875 0.00065307632 0)
(0.025291788 0.00066150241 0)
(0.024761119 0.00062869703 0)
(0.024238196 0.00058872359 0)
(0.023725249 0.00059135257 0)
(0.023227591 0.0005620077 0)
(0.02273967 0.00056605905 0)
(0.022266001 0.00055541994 0)
(0.021803234 0.00054484178 0)
(0.021347161 0.00053214031 0)
(0.020900155 0.00052067778 0)
(0.020462129 0.00050977618 0)
(0.02003315 0.00049916374 0)
(0.019612955 0.00048887792 0)
(0.019201251 0.00047892872 0)
(0.018797745 0.00046930973 0)
(0.018402153 0.00046001078 0)
(0.018014207 0.00045102489 0)
(0.017633642 0.00044235198 0)
(0.017260179 0.00043400526 0)
(0.016893488 0.00042603191 0)
(0.016533285 0.00041843326 0)
(0.016179161 0.00040999543 0)
(0.015834296 0.00038753151 0)
(0.015496151 0.00039321554 0)
(0.015161011 0.00038883436 0)
(0.014831366 0.00038214177 0)
(0.014507567 0.00037540131 0)
(0.014189346 0.00036896229 0)
(0.01387638 0.00036279004 0)
(0.013568525 0.00035676249 0)
(0.013265678 0.00035093397 0)
(0.012967639 0.00034538832 0)
(0.012673898 0.00034019983 0)
(0.012384548 0.00033481224 0)
(0.012099779 0.00032971551 0)
(0.011819107 0.00032495084 0)
(0.011542291 0.00032042156 0)
(0.011269126 0.00031509811 0)
(0.011001761 0.00030058088 0)
(0.01073836 0.00030531185 0)
(0.010476487 0.00030279138 0)
(0.010217939 0.00029873788 0)
(0.0099629344 0.00029466148 0)
(0.009711326 0.00029075646 0)
(0.0094629547 0.0002869977 0)
(0.0092177137 0.0002833415 0)
(0.0089755072 0.00027974995 0)
(0.0087361521 0.00027684738 0)
(0.0084988098 0.00028058503 0)
(0.0082641921 0.00027166328 0)
(0.0080317783 0.00027500916 0)
(0.0078018411 0.00026562415 0)
(0.0075753881 0.00026201068 0)
(0.0073511948 0.00025916023 0)
(0.0071275574 0.00025111881 0)
(0.0069054406 0.00025364413 0)
(0.0066893859 0.00025113396 0)
(0.0064754651 0.0002493967 0)
(0.0062604645 0.00024749262 0)
(0.0060472902 0.00024539305 0)
(0.0058361146 0.00024331718 0)
(0.0056267869 0.00024132608 0)
(0.0054191543 0.0002394143 0)
(0.0052131316 0.00023756381 0)
(0.0050086397 0.00023578274 0)
(0.0048055054 0.00023448853 0)
(0.0046033724 0.00023669157 0)
(0.0044025228 0.00023159306 0)
(0.0042032236 0.00022972101 0)
(0.004005112 0.00022845743 0)
(0.003808013 0.00022727069 0)
(0.0036118804 0.00022573192 0)
(0.0034173192 0.00022162872 0)
(0.0032236916 0.00022338319 0)
(0.0030302749 0.00022276465 0)
(0.0028376047 0.00022193317 0)
(0.0026463115 0.00022298885 0)
(0.0024558227 0.000220223 0)
(0.0022654668 0.00021926246 0)
(0.0020757632 0.00021837912 0)
(0.001886733 0.00021638102 0)
(0.001698271 0.00021735251 0)
(0.001509906 0.00021713603 0)
(0.0013219572 0.0002165457 0)
(0.001134876 0.00021504981 0)
(0.00094803545 0.00021560932 0)
(0.00076121527 0.00021598827 0)
(0.00057444773 0.00021488767 0)
(0.0003886959 0.00021311202 0)
(0.00020126306 0.00020093662 0)
(3.8797507e-05 0.00013213213 0)
(0.0013520999 -0.0068820863 0)
(0.0042118225 -0.0071069152 0)
(0.0070880235 -0.0071226427 0)
(0.009972967 -0.007139732 0)
(0.012864303 -0.0071624937 0)
(0.015765856 -0.0071910072 0)
(0.01867999 -0.0072253424 0)
(0.021609076 -0.007265574 0)
(0.024555516 -0.0073117877 0)
(0.027521744 -0.0073640811 0)
(0.030510229 -0.0074225638 0)
(0.033523484 -0.0074873584 0)
(0.036564074 -0.0075586013 0)
(0.039634619 -0.0076364445 0)
(0.042737803 -0.0077210563 0)
(0.04587638 -0.0078126224 0)
(0.04905318 -0.0079113478 0)
(0.05227112 -0.0080174574 0)
(0.055533209 -0.0081311984 0)
(0.058842556 -0.0082528418 0)
(0.062202387 -0.008382684 0)
(0.065616045 -0.0085210499 0)
(0.06908701 -0.0086682948 0)
(0.072618908 -0.0088248077 0)
(0.076215524 -0.0089910144 0)
(0.079880819 -0.0091673811 0)
(0.083618946 -0.0093544189 0)
(0.087434266 -0.0095526883 0)
(0.09133137 -0.0097628048 0)
(0.095315104 -0.0099854452 0)
(0.099390588 -0.010221354 0)
(0.10356325 -0.010471353 0)
(0.10783884 -0.010736348 0)
(0.11222351 -0.011017343 0)
(0.11672378 -0.011315449 0)
(0.12134666 -0.0116319 0)
(0.12609963 -0.011968071 0)
(0.13099074 -0.012325494 0)
(0.13602868 -0.012705882 0)
(0.14122281 -0.013111156 0)
(0.14658327 -0.013543475 0)
(0.15212107 -0.01400527 0)
(0.15784821 -0.014499293 0)
(0.16377776 -0.015028659 0)
(0.1699241 -0.015596911 0)
(0.17630281 -0.016208093 0)
(0.18293192 -0.016866815 0)
(0.18982818 -0.017578426 0)
(0.19702118 -0.018348854 0)
(0.20450822 -0.019185711 0)
(0.21239327 -0.020095404 0)
(0.22049405 -0.02109245 0)
(0.22936753 -0.02217483 0)
(0.23785681 -0.023392436 0)
(0.24843118 -0.024660684 0)
(0.25678221 -0.026284302 0)
(0.26972563 -0.027530003 0)
(0.2786888 -0.030081163 0)
(0.29211909 -0.031157685 0)
(0.30519092 -0.034099821 0)
(0.31732024 -0.036991041 0)
(0.3336569 -0.038212817 0)
(0.34961102 -0.043109038 0)
(0.36605377 -0.048016867 0)
(0.38436292 -0.048623734 0)
(0.40652954 -0.051746239 0)
(0.43009284 -0.06160254 0)
(0.45484128 -0.073020258 0)
(0.4829721 -0.074370734 0)
(0.51387844 -0.06452104 0)
(0.54374746 -0.056950314 0)
(0.56528237 -0.055963498 0)
(0.62583856 -0.11787381 0)
(0.54151377 0.049751949 0)
(0.46432406 0.16910398 0)
(0.43462191 0.18327573 0)
(0.41152604 0.14663345 0)
(0.38515768 0.10443567 0)
(0.36025592 0.077487899 0)
(0.33584219 0.060270965 0)
(0.3139631 0.048840986 0)
(0.29480868 0.040878003 0)
(0.27802044 0.035090765 0)
(0.26318396 0.030722303 0)
(0.24994046 0.027315203 0)
(0.23800792 0.024583527 0)
(0.22716688 0.022342119 0)
(0.217246 0.020467003 0)
(0.20811042 0.01887257 0)
(0.19965271 0.017498012 0)
(0.19178622 0.016299023 0)
(0.18444017 0.015242577 0)
(0.17755607 0.014303555 0)
(0.17108502 0.013462504 0)
(0.16498578 0.012704125 0)
(0.15922317 0.012016211 0)
(0.15376699 0.011388902 0)
(0.14859107 0.010814146 0)
(0.1436726 0.010285296 0)
(0.13899153 0.0097968193 0)
(0.13453016 0.0093440682 0)
(0.13027276 0.0089231109 0)
(0.12620529 0.008530597 0)
(0.12231513 0.0081636526 0)
(0.11859092 0.0078197977 0)
(0.11502237 0.00749688 0)
(0.11160013 0.0071930215 0)
(0.10831567 0.0069065755 0)
(0.10516118 0.0066360913 0)
(0.10212949 0.0063802849 0)
(0.099214004 0.0061380153 0)
(0.096408616 0.0059082638 0)
(0.093707679 0.0056901171 0)
(0.091105953 0.0054827514 0)
(0.088598507 0.005285417 0)
(0.086180854 0.005097421 0)
(0.083847587 0.0049180906 0)
(0.081596754 0.0047468916 0)
(0.079410763 0.004582519 0)
(0.077313328 0.0044308674 0)
(0.075306455 0.0042813717 0)
(0.073349517 0.0041372904 0)
(0.071446974 0.0040004182 0)
(0.069612463 0.0038629472 0)
(0.06784413 0.0037388789 0)
(0.066128873 0.0036221689 0)
(0.064466232 0.0035080352 0)
(0.06285658 0.0033967648 0)
(0.061291916 0.0032837189 0)
(0.059784168 0.0032434239 0)
(0.058327551 0.0031096841 0)
(0.056911063 0.0030004663 0)
(0.055535035 0.002915616 0)
(0.054202834 0.0027760103 0)
(0.052915669 0.0027270858 0)
(0.051658971 0.0026579906 0)
(0.050440905 0.0025850292 0)
(0.049253761 0.0025062002 0)
(0.048093347 0.0024392045 0)
(0.046981552 0.0023662406 0)
(0.045912128 0.0023034108 0)
(0.044854661 0.0022367761 0)
(0.04381968 0.0021734251 0)
(0.042823435 0.0021081581 0)
(0.041855637 0.0020439163 0)
(0.040915421 0.0020287276 0)
(0.040001633 0.0019430462 0)
(0.039109728 0.0018835229 0)
(0.038240525 0.0018327828 0)
(0.037393942 0.0017842234 0)
(0.036567106 0.0017365385 0)
(0.035767904 0.0017250857 0)
(0.034992872 0.0016562356 0)
(0.034231003 0.0016082006 0)
(0.033487365 0.0015670864 0)
(0.032763057 0.0015280554 0)
(0.032057308 0.0014901675 0)
(0.031369255 0.0014532908 0)
(0.030698394 0.0014173294 0)
(0.030044132 0.001382099 0)
(0.02940759 0.0013476652 0)
(0.02878064 0.001318102 0)
(0.028166585 0.0012850408 0)
(0.027572946 0.0012548081 0)
(0.026993591 0.0012251393 0)
(0.026426271 0.0011755404 0)
(0.025872662 0.0011652983 0)
(0.025328999 0.0011650114 0)
(0.024796778 0.0011229999 0)
(0.024278387 0.0011161908 0)
(0.023771558 0.0010753739 0)
(0.023272637 0.0010291327 0)
(0.022782691 0.0010229052 0)
(0.02230926 0.0010025447 0)
(0.021846221 0.00098278999 0)
(0.021390332 0.00096315835 0)
(0.020943209 0.00094345892 0)
(0.020505031 0.00092421385 0)
(0.020075632 0.00090558294 0)
(0.019654734 0.00088757172 0)
(0.019242057 0.00087016068 0)
(0.018837339 0.00085333301 0)
(0.018440337 0.00083708293 0)
(0.018050836 0.00082142422 0)
(0.01766871 0.00080641235 0)
(0.017293913 0.00079211933 0)
(0.016926376 0.00077833585 0)
(0.016562949 0.0007627707 0)
(0.016205424 0.00075068635 0)
(0.015856649 0.00073735117 0)
(0.015513885 0.00072418915 0)
(0.015176524 0.00071161968 0)
(0.01484454 0.00069964611 0)
(0.01451776 0.00068816176 0)
(0.014196217 0.00067682139 0)
(0.013879968 0.00066586519 0)
(0.013568913 0.00065564069 0)
(0.013261898 0.00064635925 0)
(0.012959417 0.00063591259 0)
(0.012662243 0.00062610958 0)
(0.01236944 0.000617092 0)
(0.012081011 0.00060861527 0)
(0.011796877 0.00060041362 0)
(0.011514959 0.00059096966 0)
(0.011236631 0.0005839361 0)
(0.010963749 0.00057590782 0)
(0.010694405 0.00056796005 0)
(0.01042827 0.00056035965 0)
(0.010165358 0.00055308238 0)
(0.0099056421 0.00054608378 0)
(0.0096489007 0.00053936886 0)
(0.0093948189 0.00053287301 0)
(0.0091431205 0.00052663163 0)
(0.0088964994 0.00052071015 0)
(0.0086527873 0.00051454117 0)
(0.0084105151 0.00050966665 0)
(0.0081711049 0.00050351436 0)
(0.0079333278 0.0004985017 0)
(0.0076982237 0.00049425358 0)
(0.0074647336 0.00049524122 0)
(0.0072333894 0.00048536791 0)
(0.0070052843 0.00047416614 0)
(0.006779222 0.00047579271 0)
(0.0065548855 0.0004723988 0)
(0.0063324317 0.00046819855 0)
(0.0061117483 0.00046415212 0)
(0.0058927935 0.00046034775 0)
(0.0056754913 0.00045674747 0)
(0.0054597205 0.00045331817 0)
(0.005245332 0.00045004388 0)
(0.0050322478 0.00044697 0)
(0.0048217106 0.0004441788 0)
(0.0046126336 0.0004412589 0)
(0.0044036848 0.00043860921 0)
(0.0041960183 0.00043618083 0)
(0.0039897317 0.00043392916 0)
(0.003784677 0.00043178435 0)
(0.0035801909 0.00042932379 0)
(0.0033766494 0.00042767702 0)
(0.0031744667 0.00042572092 0)
(0.0029730185 0.00042358022 0)
(0.0027727503 0.00041971416 0)
(0.002573224 0.00042023134 0)
(0.0023739232 0.00041910728 0)
(0.0021752963 0.0004179692 0)
(0.0019774232 0.00041803567 0)
(0.0017801597 0.00041563329 0)
(0.0015830218 0.0004146165 0)
(0.0013863231 0.00041361401 0)
(0.0011901079 0.00041277302 0)
(0.00099412724 0.00041229102 0)
(0.00079875322 0.00041176671 0)
(0.00060348435 0.00041118301 0)
(0.00040883186 0.00040866282 0)
(0.00021348073 0.00038853556 0)
(4.1280794e-05 0.00026073501 0)
(0.001349239 -0.0096555801 0)
(0.0042022589 -0.0099787587 0)
(0.0070712391 -0.010001041 0)
(0.0099491781 -0.010024853 0)
(0.012833558 -0.010056616 0)
(0.015728129 -0.010096495 0)
(0.01863521 -0.010144559 0)
(0.021557153 -0.010200903 0)
(0.024496343 -0.010265639 0)
(0.027455199 -0.010338898 0)
(0.030436173 -0.010420832 0)
(0.033441764 -0.010511609 0)
(0.036474516 -0.010611418 0)
(0.039537032 -0.010720471 0)
(0.042631975 -0.010839003 0)
(0.045762077 -0.010967271 0)
(0.048930145 -0.011105561 0)
(0.052139071 -0.011254186 0)
(0.055391835 -0.01141349 0)
(0.058691519 -0.011583849 0)
(0.062041314 -0.011765677 0)
(0.065444531 -0.011959424 0)
(0.068904609 -0.012165585 0)
(0.072425134 -0.0123847 0)
(0.076009844 -0.012617359 0)
(0.07966265 -0.012864211 0)
(0.083387647 -0.013125965 0)
(0.087189136 -0.013403398 0)
(0.091071639 -0.013697362 0)
(0.095039924 -0.014008796 0)
(0.099099026 -0.014338731 0)
(0.10325427 -0.014688303 0)
(0.10751132 -0.015058765 0)
(0.11187618 -0.015451504 0)
(0.11635525 -0.015868054 0)
(0.12095537 -0.016310117 0)
(0.12568386 -0.016779588 0)
(0.13054857 -0.017278576 0)
(0.13555795 -0.017809436 0)
(0.14072109 -0.018374808 0)
(0.14604785 -0.018977653 0)
(0.15154888 -0.019621305 0)
(0.15723578 -0.020309524 0)
(0.16312115 -0.021046571 0)
(0.16921884 -0.021837275 0)
(0.1755438 -0.022687152 0)
(0.18211329 -0.023602454 0)
(0.18894326 -0.024590512 0)
(0.19606211 -0.025659188 0)
(0.20346629 -0.026819346 0)
(0.21125774 -0.028078378 0)
(0.21925301 -0.029458687 0)
(0.22800681 -0.030952404 0)
(0.23635615 -0.032630946 0)
(0.24677748 -0.034388558 0)
(0.25494425 -0.036562329 0)
(0.26767904 -0.038432872 0)
(0.27640489 -0.041597871 0)
(0.28958507 -0.043491035 0)
(0.30227756 -0.047348331 0)
(0.31423595 -0.05077876 0)
(0.32979245 -0.05374431 0)
(0.34579589 -0.059542902 0)
(0.36126371 -0.065493613 0)
(0.37910814 -0.068179446 0)
(0.40088898 -0.074969343 0)
(0.42533011 -0.086599095 0)
(0.4498297 -0.099566376 0)
(0.47597165 -0.104246 0)
(0.50568982 -0.099174782 0)
(0.53652899 -0.093234378 0)
(0.5625508 -0.10421664 0)
(0.55881174 0.002690003 0)
(0.41294449 0.15300692 0)
(0.38457401 0.21030275 0)
(0.3819026 0.20361025 0)
(0.37365467 0.16650928 0)
(0.36020677 0.12775037 0)
(0.34260514 0.10091857 0)
(0.32391443 0.081864661 0)
(0.30602244 0.068139681 0)
(0.28947576 0.058016516 0)
(0.27437717 0.050353365 0)
(0.2606519 0.044398145 0)
(0.24815841 0.039657398 0)
(0.23674547 0.035801387 0)
(0.22627343 0.032605107 0)
(0.21662056 0.029911733 0)
(0.20768345 0.027609554 0)
(0.19937514 0.025617284 0)
(0.19162262 0.023874579 0)
(0.18436447 0.022335801 0)
(0.17754874 0.020965847 0)
(0.17113122 0.019737295 0)
(0.16507407 0.018628427 0)
(0.15934465 0.017621821 0)
(0.15391466 0.016703342 0)
(0.14875938 0.015861403 0)
(0.1438571 0.015086416 0)
(0.13918866 0.014370374 0)
(0.13473702 0.013706541 0)
(0.13048701 0.013089208 0)
(0.126425 0.012513503 0)
(0.12253875 0.01197524 0)
(0.11881716 0.011470804 0)
(0.11525018 0.010997053 0)
(0.11182864 0.010551246 0)
(0.10854417 0.010130975 0)
(0.10538908 0.0097341191 0)
(0.10235631 0.0093587984 0)
(0.099439347 0.0090033426 0)
(0.096632158 0.0086662605 0)
(0.093929162 0.0083462163 0)
(0.091325165 0.0080420121 0)
(0.088815343 0.0077525806 0)
(0.08639517 0.0074770029 0)
(0.084060821 0.0072146172 0)
(0.081807763 0.0069645761 0)
(0.079637365 0.0067389874 -5.4366091e-35)
(0.077534723 0.0064375998 -2.9392441e-30)
(0.07549495 0.0062644322 0)
(0.073531493 0.0060699966 0)
(0.071629829 0.0058746915 0)
(0.069797646 0.0056716983 0)
(0.068033545 0.0054911797 0)
(0.066316343 0.0053176097 0)
(0.064649829 0.0051490822 0)
(0.063037046 0.0049870147 0)
(0.061470086 0.0048373334 -3.8689361e-35)
(0.059961663 0.004628636 -2.0951689e-30)
(0.058514195 0.0045292619 -3.6230168e-35)
(0.057091258 0.0043466057 -1.9616821e-30)
(0.055705411 0.0042565432 0)
(0.054365144 0.0041396153 0)
(0.05306312 0.0040198499 0)
(0.051807494 0.0038988711 0)
(0.050591188 0.0037824958 0)
(0.049406002 0.0036678925 0)
(0.04825364 0.0035681863 -2.787132e-35)
(0.047136091 0.003418223 -1.5106944e-30)
(0.046052673 0.0033532201 0)
(0.044993009 0.0032683909 0)
(0.043957907 0.0031764943 0)
(0.042959457 0.0030891588 0)
(0.041982618 0.003004799 0)
(0.041045826 0.0029243052 0)
(0.040142423 0.0028448206 0)
(0.03924687 0.0027682316 0)
(0.038372215 0.0026946695 0)
(0.037521942 0.002624162 0)
(0.03669228 0.002556492 -1.8998979e-35)
(0.035891079 0.0024568504 -1.0307164e-30)
(0.035114286 0.0024179201 0)
(0.034350341 0.0023622855 0)
(0.033604677 0.0023031418 0)
(0.032878432 0.0022450933 0)
(0.032170739 0.0021889583 0)
(0.031480644 0.0021346731 0)
(0.030807361 0.0020819443 0)
(0.030150383 0.0020303807 0)
(0.029508654 0.0019804361 1.3892144e-35)
(0.028883659 0.0019613285 7.5432522e-31)
(0.028274206 0.0018931045 0)
(0.027677662 0.0018440957 0)
(0.027094783 0.0018013022 1.2275973e-35)
(0.026522984 0.0017830357 6.6645806e-31)
(0.025961954 0.0017231739 0)
(0.025419083 0.0016808734 0)
(0.024888166 0.001642171 0)
(0.024371721 0.0016067964 0)
(0.023869675 0.0015732581 1.0209387e-35)
(0.023366735 0.0015611162 5.5419048e-31)
(0.022871811 0.0015120686 0)
(0.022396184 0.0014732736 0)
(0.021932341 0.0014451444 0)
(0.021474241 0.001416326 0)
(0.021025124 0.0013873579 0)
(0.020585391 0.0013591083 0)
(0.020154622 0.0013317915 0)
(0.019732402 0.0013053945 0)
(0.019318422 0.0012798726 0)
(0.018912415 0.0012551837 0)
(0.018514137 0.0012312913 0)
(0.018123366 0.0012081589 0)
(0.017739908 0.0011857361 0)
(0.017363507 0.0011638978 0)
(0.016994137 0.0011421913 0)
(0.016630184 0.001120281 0)
(0.016272417 0.0011016112 0)
(0.01592208 0.001083289 0)
(0.015577745 0.0010649514 0)
(0.015239125 0.0010470547 0)
(0.01490604 0.0010298414 0)
(0.014577926 0.0010133469 0)
(0.014255035 0.000996515 0)
(0.013937853 0.00098010689 0)
(0.01362601 0.0009643526 0)
(0.013317615 0.00095061532 0)
(0.013013656 0.00093521155 0)
(0.012715593 0.00092149239 0)
(0.01242184 0.00090831228 0)
(0.012132116 0.00089537349 0)
(0.011846512 0.00088237499 0)
(0.011564 0.00086920746 0)
(0.011285208 0.00085820737 0)
(0.011010979 0.00084731699 0)
(0.010740303 0.00083633947 0)
(0.010473044 0.00082556179 0)
(0.010209108 0.00081507896 0)
(0.0099484995 0.00080494554 0)
(0.0096910996 0.00079536605 0)
(0.0094367826 0.00078625426 0)
(0.0091854593 0.00077708573 -2.6781942e-36)
(0.0089357168 0.00076206459 -1.4464961e-31)
(0.0086883184 0.0007596438 0)
(0.0084458005 0.00075218742 0)
(0.0082059638 0.00074406042 0)
(0.007967142 0.00073625196 0)
(0.0077303474 0.00072888635 0)
(0.0074978118 0.00072183621 0)
(0.0072679457 0.00071486298 0)
(0.0070373333 0.00070708956 0)
(0.0068087854 0.00070194032 0)