/*--------------------------------*- C++ -*----------------------------------*\
| =========                 |                                                 |
| \\      /  F ield         | OpenFOAM: The Open Source CFD Toolbox           |
|  \\    /   O peration     | Version:  2106                                  |
|   \\  /    A nd           | Website:  www.openfoam.com                      |
|    \\/     M anipulation  |                                                 |
\*---------------------------------------------------------------------------*/
FoamFile
{
    version     2.0;
    format      ascii;
    arch        "LSB;label=32;scalar=64";
    class       volVectorField;
    location    "0.036";
    object      U_0;
}
// * * * * * * * * * * * * * * * * * * * * * * * * * * * * * * * * * * * * * //

dimensions      [0 1 -1 0 0 0 0];

internalField   nonuniform List<vector> 
4096
(
(-0.0024479607 0.0024390938 0)
(-0.0073201603 0.0024154018 0)
(-0.012121255 0.0023682538 0)
(-0.01680463 0.002298119 0)
(-0.02132484 0.0022056953 0)
(-0.025638065 0.0020919012 0)
(-0.029702538 0.0019578658 0)
(-0.033478963 0.001804917 0)
(-0.03693089 0.0016345669 0)
(-0.04002508 0.0014484961 0)
(-0.042731814 0.0012485355 0)
(-0.045025186 0.0010366476 0)
(-0.046883337 0.00081490573 0)
(-0.048288659 0.00058547174 0)
(-0.049227988 0.00035056896 0)
(-0.049692567 0.00011251059 0)
(-0.049678449 -0.00012645004 0)
(-0.049186093 -0.00036398908 0)
(-0.048220663 -0.0005978301 0)
(-0.046791828 -0.00082573654 0)
(-0.044913685 -0.0010455359 0)
(-0.042604607 -0.0012551395 0)
(-0.039887055 -0.0014525618 0)
(-0.036787353 -0.0016359379 0)
(-0.033335429 -0.0018035404 0)
(-0.029564526 -0.0019537945 0)
(-0.025510879 -0.0020852916 0)
(-0.021213369 -0.0021968013 0)
(-0.016713158 -0.0022872823 0)
(-0.0120533 -0.0023558907 0)
(-0.0072783347 -0.0024019875 0)
(-0.0024338733 -0.0024251437 0)
(0.0024338256 -0.0024251439 0)
(0.0072782875 -0.0024019879 0)
(0.012053254 -0.0023558914 0)
(0.016713114 -0.0022872832 0)
(0.021213326 -0.0021968024 0)
(0.025510838 -0.0020852929 0)
(0.029564489 -0.0019537961 0)
(0.033335395 -0.0018035422 0)
(0.036787323 -0.0016359398 0)
(0.039887029 -0.0014525639 0)
(0.042604586 -0.0012551417 0)
(0.044913668 -0.0010455382 0)
(0.046791815 -0.00082573897 0)
(0.048220655 -0.00059783259 0)
(0.049186091 -0.00036399162 0)
(0.049678452 -0.00012645261 0)
(0.049692574 0.00011250802 0)
(0.049228001 0.00035056641 0)
(0.048288677 0.00058546924 0)
(0.04688336 0.00081490329 0)
(0.045025214 0.0010366452 0)
(0.042731847 0.0012485333 0)
(0.040025116 0.001448494 0)
(0.036930931 0.001634565 0)
(0.033479007 0.0018049152 0)
(0.029702586 0.0019578642 0)
(0.025638116 0.0020918998 0)
(0.021324894 0.0022056942 0)
(0.016804686 0.0022981181 0)
(0.012121312 0.0023682531 0)
(0.0073202184 0.0024154015 0)
(0.0024480193 0.0024390937 0)
(-0.002470085 0.0073349964 0)
(-0.0073863154 0.0072637452 0)
(-0.012230787 0.0071219523 0)
(-0.016956457 0.0069110297 0)
(-0.021517462 0.0066330762 0)
(-0.025869583 0.0062908544 0)
(-0.029970672 0.0058877607 0)
(-0.033781074 0.0054277891 0)
(-0.037264012 0.0049154878 0)
(-0.040385947 0.0043559111 0)
(-0.043116897 0.0037545661 0)
(-0.045430725 0.0031173549 0)
(-0.047305383 0.0024505136 0)
(-0.048723113 0.0017605469 0)
(-0.049670623 0.0010541597 0)
(-0.050139159 0.00033821465 0)
(-0.050124637 -0.00038037483 0)
(-0.049627603 -0.0010946995 0)
(-0.04865326 -0.0017979012 0)
(-0.047211374 -0.0024832533 0)
(-0.045316177 -0.0031442226 0)
(-0.042986212 -0.0037745287 0)
(-0.040244148 -0.004368201 0)
(-0.037116549 -0.0049196323 0)
(-0.033633615 -0.0054236286 0)
(-0.029828885 -0.0058754549 0)
(-0.025738918 -0.0062708759 0)
(-0.021402942 -0.0066061926 0)
(-0.016862483 -0.0068782739 0)
(-0.012160973 -0.0070845829 0)
(-0.0073433452 -0.0072231982 0)
(-0.0024556116 -0.0072928298 0)
(0.0024555633 -0.0072928302 0)
(0.0073432973 -0.0072231993 0)
(0.012160926 -0.0070845848 0)
(0.016862437 -0.0068782766 0)
(0.021402899 -0.006606196 0)
(0.025738877 -0.0062708799 0)
(0.029828847 -0.0058754596 0)
(0.03363358 -0.0054236339 0)
(0.037116519 -0.0049196381 0)
(0.040244122 -0.0043682072 0)
(0.04298619 -0.0037745353 0)
(0.045316159 -0.0031442296 0)
(0.047211362 -0.0024832606 0)
(0.048653252 -0.0017979087 0)
(0.049627601 -0.0010947072 0)
(0.050124639 -0.00038038255 0)
(0.050139166 0.00033820692 0)
(0.049670636 0.001054152 0)
(0.048723131 0.0017605394 0)
(0.047305406 0.0024505063 0)
(0.045430753 0.0031173479 0)
(0.04311693 0.0037545594 0)
(0.040385985 0.0043559048 0)
(0.037264054 0.0049154819 0)
(0.033781119 0.0054277838 0)
(0.02997072 0.005887756 0)
(0.025869635 0.0062908503 0)
(0.021517517 0.0066330728 0)
(0.016956513 0.006911027 0)
(0.012230845 0.0071219504 0)
(0.0073863743 0.007263744 0)
(0.0024701444 0.007334996 0)
(-0.0025036979 0.012291344 0)
(-0.0074868241 0.012171937 0)
(-0.012397201 0.011934312 0)
(-0.017187135 0.011580836 0)
(-0.021810135 0.011115028 0)
(-0.02622137 0.010541518 0)
(-0.030378116 0.009866002 0)
(-0.034240177 0.0090951732 0)
(-0.037770275 0.0082366563 0)
(-0.040934417 0.0072989236 0)
(-0.043702217 0.0062912056 0)
(-0.046047191 0.0052233948 0)
(-0.047946998 0.0041059428 0)
(-0.049383654 0.0029497527 0)
(-0.050343688 0.0017660685 0)
(-0.050818254 0.0005663732 0)
(-0.050803208 -0.00063774495 0)
(-0.050299128 -0.0018346969 0)
(-0.049311294 -0.003012996 0)
(-0.047849617 -0.0041613732 0)
(-0.045928532 -0.0052688828 0)
(-0.043566842 -0.0063250029 0)
(-0.040787528 -0.0073197309 0)
(-0.037617519 -0.0082436736 0)
(-0.034087424 -0.0090881303 0)
(-0.030231239 -0.0098451692 0)
(-0.026086014 -0.010507696 0)
(-0.021691503 -0.011069515 0)
(-0.017089788 -0.011525382 0)
(-0.01232488 -0.011871047 0)
(-0.0074423107 -0.012103292 0)
(-0.0024887043 -0.012219958 0)
(0.0024886548 -0.012219958 0)
(0.0074422616 -0.012103294 0)
(0.012324832 -0.01187105 0)
(0.017089741 -0.011525386 0)
(0.021691459 -0.011069521 0)
(0.026085972 -0.010507703 0)
(0.0302312 -0.009845177 0)
(0.034087389 -0.0090881392 0)
(0.037617487 -0.0082436834 0)
(0.040787501 -0.0073197415 0)
(0.043566819 -0.0063250141 0)
(0.045928514 -0.0052688946 0)
(0.047849604 -0.0041613855 0)
(0.049311286 -0.0030130087 0)
(0.050299125 -0.0018347098 0)
(0.050803211 -0.00063775794 0)
(0.050818262 0.0005663602 0)
(0.050343701 0.0017660556 0)
(0.049383672 0.00294974 0)
(0.047947022 0.0041059305 0)
(0.04604722 0.0052233829 0)
(0.043702251 0.0062911943 0)
(0.040934455 0.0072989129 0)
(0.037770317 0.0082366465 0)
(0.034240223 0.0090951642 0)
(0.030378166 0.009865994 0)
(0.026221423 0.010541512 0)
(0.021810191 0.011115022 0)
(0.017187193 0.011580831 0)
(0.01239726 0.011934308 0)
(0.0074868844 0.012171935 0)
(0.0025037588 0.012291344 0)
(-0.0025497672 0.017327028 0)
(-0.0076245804 0.017158683 0)
(-0.012625288 0.016823671 0)
(-0.017503308 0.01632533 0)
(-0.022211285 0.015668622 0)
(-0.026703554 0.01486008 0)
(-0.030936602 0.013907733 0)
(-0.034869489 0.012821023 0)
(-0.038464253 0.011610702 0)
(-0.041686277 0.010288718 0)
(-0.044504624 0.0088680864 0)
(-0.046892329 0.0073627567 0)
(-0.048826654 0.0057874656 0)
(-0.050289295 0.0041575866 0)
(-0.051266547 0.0024889741 0)
(-0.051749418 0.00079780862 0)
(-0.051733704 -0.00089957138 0)
(-0.051220007 -0.0025868251 0)
(-0.050213718 -0.0042477631 0)
(-0.048724944 -0.0058665027 0)
(-0.046768395 -0.0074276171 0)
(-0.04436323 -0.0089162773 0)
(-0.041532857 -0.010318387 0)
(-0.038304705 -0.011620708 0)
(-0.034709945 -0.012810981 0)
(-0.030783194 -0.013878029 0)
(-0.02656218 -0.014811854 0)
(-0.022087378 -0.015603728 0)
(-0.017401632 -0.016246261 0)
(-0.012549751 -0.016733465 0)
(-0.0075780874 -0.017060807 0)
(-0.0025341065 -0.017225242 0)
(0.0025340551 -0.017225243 0)
(0.0075780366 -0.017060809 0)
(0.012549701 -0.01673347 0)
(0.017401584 -0.016246267 0)
(0.022087332 -0.015603736 0)
(0.026562137 -0.014811864 0)
(0.030783154 -0.01387804 0)
(0.034709908 -0.012810994 0)
(0.038304672 -0.011620722 0)
(0.041532829 -0.010318402 0)
(0.044363206 -0.0089162932 0)
(0.046768377 -0.0074276338 0)
(0.048724931 -0.0058665201 0)
(0.05021371 -0.004247781 0)
(0.051220004 -0.0025868433 0)
(0.051733706 -0.00089958977 0)
(0.051749427 0.00079779022 0)
(0.05126656 0.0024889558 0)
(0.050289314 0.0041575686 0)
(0.048826679 0.0057874482 0)
(0.046892359 0.0073627399 0)
(0.044504658 0.0088680704 0)
(0.041686316 0.010288703 0)
(0.038464296 0.011610688 0)
(0.034869537 0.01282101 0)
(0.030936653 0.013907722 0)
(0.026703609 0.01486007 0)
(0.022211342 0.015668614 0)
(0.017503368 0.016325323 0)
(0.012625349 0.016823666 0)
(0.0076246427 0.01715868 0)
(0.0025498301 0.017327027 0)
(-0.0026090628 0.022467253 0)
(-0.0078018863 0.022248941 0)
(-0.012918859 0.021814495 0)
(-0.017910258 0.021168245 0)
(-0.022727611 0.020316629 0)
(-0.027324187 0.019268122 0)
(-0.031655452 0.018033141 0)
(-0.035679511 0.016623935 0)
(-0.039357521 0.015054451 0)
(-0.042654064 0.013340188 0)
(-0.045537491 0.011498029 0)
(-0.047980222 0.0095460659 0)
(-0.049959001 0.0075034133 0)
(-0.051455117 0.0053900087 0)
(-0.052454562 0.0032264128 0)
(-0.052948154 0.0010336043 0)
(-0.05293161 -0.0011672303 0)
(-0.052405563 -0.0033549023 0)
(-0.051375548 -0.0055084223 0)
(-0.049851919 -0.0076072001 0)
(-0.047849742 -0.0096312369 0)
(-0.04538863 -0.01156131 0)
(-0.042492542 -0.013379147 0)
(-0.039189546 -0.015067591 0)
(-0.03551154 -0.016610749 0)
(-0.031493941 -0.017994136 0)
(-0.027175345 -0.019204796 0)
(-0.022597159 -0.020231415 0)
(-0.017803211 -0.021064417 0)
(-0.012839332 -0.021696043 0)
(-0.0077529372 -0.022120417 0)
(-0.0025925745 -0.022333594 0)
(0.0025925208 -0.022333596 0)
(0.0077528841 -0.02212042 0)
(0.01283928 -0.021696049 0)
(0.01780316 -0.021064425 0)
(0.022597112 -0.020231426 0)
(0.0271753 -0.019204809 0)
(0.0314939 -0.017994151 0)
(0.035511502 -0.016610766 0)
(0.039189513 -0.015067609 0)
(0.042492513 -0.013379167 0)
(0.045388605 -0.011561331 0)
(0.047849723 -0.0096312588 0)
(0.049851905 -0.0076072227 0)
(0.051375539 -0.0055084456 0)
(0.052405561 -0.0033549261 0)
(0.052931612 -0.0011672543 0)
(0.052948163 0.0010335803 0)
(0.052454576 0.003226389 0)
(0.051455137 0.0053899853 0)
(0.049959027 0.0075033905 0)
(0.047980253 0.009546044 0)
(0.045537528 0.011498008 0)
(0.042654105 0.013340168 0)
(0.039357567 0.015054433 0)
(0.035679561 0.016623918 0)
(0.031655505 0.018033126 0)
(0.027324244 0.019268109 0)
(0.022727671 0.020316618 0)
(0.01791032 0.021168236 0)
(0.012918923 0.021814489 0)
(0.0078019514 0.022248938 0)
(0.0026091285 0.022467251 0)
(-0.0026822311 0.027739293 0)
(-0.0080206744 0.027469718 0)
(-0.013281114 0.026933257 0)
(-0.018412416 0.026135261 0)
(-0.023364736 0.025083684 0)
(-0.028090021 0.023788995 0)
(-0.032542481 0.022264064 0)
(-0.036679044 0.020524022 0)
(-0.040459777 0.018586098 0)
(-0.043848276 0.016469436 0)
(-0.046812013 0.01419489 0)
(-0.049322647 0.011784805 0)
(-0.05135629 0.0092627859 0)
(-0.052893723 0.0066534544 0)
(-0.053920566 0.0039821991 0)
(-0.054427403 0.0012749216 0)
(-0.054409852 -0.0014422202 0)
(-0.053868586 -0.0041430671 0)
(-0.052809312 -0.0068017083 0)
(-0.051242693 -0.0093927274 0)
(-0.049184229 -0.01189144 0)
(-0.046654094 -0.014274119 0)
(-0.043676926 -0.016518214 0)
(-0.040281582 -0.01860255 0)
(-0.036500853 -0.020507514 0)
(-0.032371143 -0.02221523 0)
(-0.027932123 -0.023709711 0)
(-0.023226347 -0.024976996 0)
(-0.018298855 -0.026005268 0)
(-0.013196748 -0.026784954 0)
(-0.0079687466 -0.027308805 0)
(-0.0026647391 -0.027571953 0)
(0.0026646824 -0.027571954 0)
(0.0079686905 -0.027308809 0)
(0.013196693 -0.026784962 0)
(0.018298802 -0.026005278 0)
(0.023226296 -0.024977009 0)
(0.027932075 -0.023709727 0)
(0.032371099 -0.022215248 0)
(0.036500813 -0.020507534 0)
(0.040281547 -0.018602572 0)
(0.043676895 -0.016518239 0)
(0.046654068 -0.014274145 0)
(0.049184209 -0.011891467 0)
(0.051242678 -0.0093927556 0)
(0.052809303 -0.0068017373 0)
(0.053868583 -0.0041430967 0)
(0.054409855 -0.0014422501 0)
(0.054427412 0.0012748918 0)
(0.053920581 0.0039821695 0)
(0.052893744 0.0066534253 0)
(0.051356317 0.0092627575 0)
(0.04932268 0.011784778 0)
(0.046812051 0.014194864 0)
(0.043848319 0.016469412 0)
(0.040459825 0.018586075 0)
(0.036679096 0.020524001 0)
(0.032542537 0.022264045 0)
(0.028090081 0.023788979 0)
(0.023364799 0.02508367 0)
(0.018412481 0.02613525 0)
(0.013281181 0.026933249 0)
(0.008020743 0.027469713 0)
(0.0026823003 0.027739291 0)
(-0.0027699358 0.033171499 0)
(-0.008282929 0.032849084 0)
(-0.013715337 0.032207472 0)
(-0.019014333 0.031253066 0)
(-0.024128428 0.029995387 0)
(-0.029007984 0.028446961 0)
(-0.033605706 0.026623189 0)
(-0.03787711 0.024542177 0)
(-0.041780959 0.022224541 0)
(-0.045279665 0.019693185 0)
(-0.04833965 0.016973058 0)
(-0.050931662 0.014090892 0)
(-0.053031054 0.011074922 0)
(-0.054618001 0.007954598 0)
(-0.05567768 0.0047602849 0)
(-0.056200392 0.0015229572 0)
(-0.056181638 -0.0017261058 0)
(-0.055622139 -0.004955625 0)
(-0.054527807 -0.0081346214 0)
(-0.052909674 -0.011232709 0)
(-0.050783761 -0.014220378 0)
(-0.048170911 -0.017069266 0)
(-0.045096576 -0.019752417 0)
(-0.041590555 -0.022244519 0)
(-0.037686711 -0.024522132 0)
(-0.03342263 -0.02656389 0)
(-0.028839268 -0.028350687 0)
(-0.023980557 -0.029865836 0)
(-0.018892991 -0.031095217 0)
(-0.01362519 -0.032027389 0)
(-0.0082274431 -0.032653688 0)
(-0.002751245 -0.032968299 0)
(0.0027511846 -0.032968301 0)
(0.0082273833 -0.032653694 0)
(0.013625131 -0.032027398 0)
(0.018892935 -0.03109523 0)
(0.023980503 -0.029865852 0)
(0.028839217 -0.028350706 0)
(0.033422583 -0.026563912 0)
(0.037686668 -0.024522157 0)
(0.041590518 -0.022244546 0)
(0.045096543 -0.019752446 0)
(0.048170884 -0.017069297 0)
(0.050783739 -0.014220411 0)
(0.052909658 -0.011232743 0)
(0.054527798 -0.0081346565 0)
(0.055622135 -0.0049556607 0)
(0.056181642 -0.0017261418 0)
(0.056200402 0.0015229212 0)
(0.055677696 0.0047602491 0)
(0.054618023 0.0079545629 0)
(0.053031082 0.011074887 0)
(0.050931697 0.014090859 0)
(0.04833969 0.016973027 0)
(0.045279711 0.019693155 0)
(0.04178101 0.022224514 0)
(0.037877165 0.024542152 0)
(0.033605766 0.026623166 0)
(0.029008048 0.028446941 0)
(0.024128495 0.02999537 0)
(0.019014402 0.031253053 0)
(0.013715408 0.032207462 0)
(0.0082830018 0.032849078 0)
(0.0027700093 0.033171497 0)
(-0.0028730807 0.038793587 0)
(-0.0085913522 0.038416461 0)
(-0.014225999 0.037665977 0)
(-0.019722204 0.036549631 0)
(-0.025026542 0.035078563 0)
(-0.03008751 0.033267439 0)
(-0.034856042 0.031134282 0)
(-0.039285994 0.028700283 0)
(-0.043334596 0.025989568 0)
(-0.046962871 0.023028939 0)
(-0.050136006 0.019847589 0)
(-0.052823681 0.016476794 0)
(-0.055000358 0.012949586 0)
(-0.056645502 0.0093004146 0)
(-0.057743769 0.0055647946 0)
(-0.058285133 0.0017789516 0)
(-0.058264956 -0.0020205361 0)
(-0.057684013 -0.0057970934 0)
(-0.056548463 -0.0095144991 0)
(-0.054869766 -0.013137227 0)
(-0.052664555 -0.01663078 0)
(-0.049954462 -0.019962 0)
(-0.046765887 -0.023099377 0)
(-0.043129743 -0.026013325 0)
(-0.039081145 -0.028676445 0)
(-0.034659071 -0.031063764 0)
(-0.029905989 -0.033152949 0)
(-0.024867448 -0.034924501 0)
(-0.019591653 -0.036361916 0)
(-0.01412901 -0.037451822 0)
(-0.0085316548 -0.038184095 0)
(-0.0028529711 -0.038551939 0)
(0.0028529063 -0.038551941 0)
(0.0085315908 -0.038184102 0)
(0.014128947 -0.037451833 0)
(0.019591593 -0.036361931 0)
(0.02486739 -0.03492452 0)
(0.029905934 -0.033152972 0)
(0.034659021 -0.03106379 0)
(0.039081099 -0.028676475 0)
(0.043129702 -0.026013358 0)
(0.046765852 -0.023099412 0)
(0.049954433 -0.019962037 0)
(0.052664532 -0.016630818 0)
(0.054869749 -0.013137268 0)
(0.056548452 -0.0095145405 0)
(0.05768401 -0.0057971356 0)
(0.058264959 -0.0020205787 0)
(0.058285143 0.001778909 0)
(0.057743786 0.0055647523 0)
(0.056645525 0.0093003731 0)
(0.055000388 0.012949546 0)
(0.052823718 0.016476755 0)
(0.050136048 0.019847552 0)
(0.04696292 0.023028904 0)
(0.04333465 0.025989535 0)
(0.039286053 0.028700253 0)
(0.034856105 0.031134255 0)
(0.030087578 0.033267416 0)
(0.025026613 0.035078544 0)
(0.019722278 0.036549615 0)
(0.014226075 0.037665966 0)
(0.00859143 0.038416455 0)
(0.0028731592 0.038793585 0)
(-0.0029931251 0.044637451 0)
(-0.0089503065 0.044203428 0)
(-0.014820322 0.043339722 0)
(-0.020546035 0.042054968 0)
(-0.026071764 0.040361997 0)
(-0.031343836 0.038277699 0)
(-0.036311123 0.035822833 0)
(-0.040925548 0.033021803 0)
(-0.045142561 0.02990239 0)
(-0.048921567 0.026495457 0)
(-0.052226319 0.022834614 0)
(-0.05502526 0.018955865 0)
(-0.057291815 0.014897233 0)
(-0.059004631 0.010698366 0)
(-0.06014776 0.0064001338 0)
(-0.060710795 0.00204422 0)
(-0.06068894 -0.0023272916 0)
(-0.060083035 -0.0066723251 0)
(-0.058899523 -0.010949215 0)
(-0.057150364 -0.015117098 0)
(-0.054852902 -0.019136295 0)
(-0.052029679 -0.022968673 0)
(-0.048708202 -0.026577992 0)
(-0.044920672 -0.029930228 0)
(-0.040703664 -0.032993872 0)
(-0.036097772 -0.035740205 0)
(-0.03114722 -0.038143548 0)
(-0.02589944 -0.040181477 0)
(-0.020404627 -0.041835015 0)
(-0.014715267 -0.043088789 0)
(-0.0088856442 -0.043931156 0)
(-0.0029713426 -0.044354303 0)
(0.0029712728 -0.044354306 0)
(0.0088855753 -0.043931164 0)
(0.014715199 -0.043088802 0)
(0.020404562 -0.041835033 0)
(0.025899378 -0.040181499 0)
(0.031147161 -0.038143574 0)
(0.036097718 -0.035740236 0)
(0.040703615 -0.032993906 0)
(0.044920629 -0.029930266 0)
(0.048708165 -0.026578033 0)
(0.052029647 -0.022968716 0)
(0.054852878 -0.01913634 0)
(0.057150346 -0.015117145 0)
(0.058899512 -0.010949263 0)
(0.060083031 -0.0066723742 0)
(0.060688943 -0.0023273412 0)
(0.060710806 0.0020441705 0)
(0.060147778 0.0064000846 0)
(0.059004656 0.010698317 0)
(0.057291847 0.014897185 0)
(0.055025299 0.018955819 0)
(0.052226364 0.02283457 0)
(0.048921618 0.026495416 0)
(0.045142618 0.029902352 0)
(0.040925611 0.033021768 0)
(0.036311191 0.035822802 0)
(0.031343909 0.038277672 0)
(0.026071841 0.040361974 0)
(0.020546115 0.04205495 0)
(0.014820404 0.043339709 0)
(0.00895039 0.044203421 0)
(0.0029932094 0.044637448 0)
(-0.0031325015 0.050738637 0)
(-0.0093670646 0.050245177 0)
(-0.015510344 0.049263196 0)
(-0.021502508 0.04780252 0)
(-0.027285251 0.045877754 0)
(-0.032802379 0.043508116 0)
(-0.038000368 0.04071723 0)
(-0.042828901 0.037532862 0)
(-0.047241359 0.033986622 0)
(-0.051195273 0.030113616 0)
(-0.054652737 0.025952077 0)
(-0.057580759 0.021542953 0)
(-0.059951569 0.01692948 0)
(-0.061742866 0.012156739 0)
(-0.062938009 0.0072711905 0)
(-0.063526151 0.002320213 0)
(-0.063502317 -0.0026483651 0)
(-0.062867423 -0.0075867298 0)
(-0.061628241 -0.012447537 0)
(-0.05979731 -0.01718436 0)
(-0.057392794 -0.021752117 0)
(-0.054438291 -0.026107486 0)
(-0.050962588 -0.030209296 0)
(-0.046999378 -0.034018893 0)
(-0.042586925 -0.037500483 0)
(-0.037767698 -0.040621442 0)
(-0.032587957 -0.0433526 0)
(-0.027097321 -0.045668483 0)
(-0.021348294 -0.047547537 0)
(-0.015395775 -0.048972298 0)
(-0.0092965459 -0.049929542 0)
(-0.0031087455 -0.050410394 0)
(0.0031086701 -0.050410397 0)
(0.0092964714 -0.049929551 0)
(0.015395702 -0.048972312 0)
(0.021348224 -0.047547557 0)
(0.027097254 -0.045668509 0)
(0.032587895 -0.043352631 0)
(0.03776764 -0.040621478 0)
(0.042586873 -0.037500523 0)
(0.046999331 -0.034018937 0)
(0.050962548 -0.030209343 0)
(0.054438257 -0.026107536 0)
(0.057392767 -0.021752169 0)
(0.05979729 -0.017184414 0)
(0.061628229 -0.012447593 0)
(0.062867419 -0.0075867863 0)
(0.063502321 -0.0026484221 0)
(0.063526163 0.0023201561 0)
(0.062938028 0.007271134 0)
(0.061742893 0.012156684 0)
(0.059951603 0.016929426 0)
(0.0575808 0.0215429 0)
(0.054652785 0.025952027 0)
(0.051195328 0.030113569 0)
(0.04724142 0.033986578 0)
(0.042828969 0.037532822 0)
(0.038000441 0.040717194 0)
(0.032802457 0.043508085 0)
(0.027285333 0.045877727 0)
(0.021502593 0.047802499 0)
(0.015510432 0.049263181 0)
(0.0093671545 0.050245168 0)
(0.0031325922 0.050738634 0)
(-0.0032951399 0.057138751 0)
(-0.009853377 0.056582898 0)
(-0.016315518 0.055476762 0)
(-0.02261858 0.053831425 0)
(-0.028701194 0.051663356 0)
(-0.03450422 0.048994229 0)
(-0.03997134 0.04585068 0)
(-0.04504962 0.042264016 0)
(-0.049690029 0.038269871 0)
(-0.053847919 0.033907821 0)
(-0.057483449 0.029220951 0)
(-0.060561963 0.024255407 0)
(-0.063054302 0.019059902 0)
(-0.064937068 0.013685213 0)
(-0.066192814 0.0081836685 0)
(-0.06681019 0.0026086172 0)
(-0.066784012 -0.0029860926 0)
(-0.066115287 -0.0085466353 0)
(-0.06481117 -0.01401972 0)
(-0.062884872 -0.019353092 0)
(-0.060355513 -0.024496011 0)
(-0.057247914 -0.02939972 0)
(-0.05359235 -0.034017881 0)
(-0.04942425 -0.038306993 0)
(-0.044783846 -0.042226769 0)
(-0.039715787 -0.045740493 0)
(-0.03426871 -0.048815335 0)
(-0.028494781 -0.051422628 0)
(-0.022449198 -0.053538112 0)
(-0.016189679 -0.055142135 0)
(-0.0097759213 -0.056219816 0)
(-0.0032690461 -0.056761165 0)
(0.0032689644 -0.056761169 0)
(0.0097758406 -0.056219826 0)
(0.016189601 -0.055142152 0)
(0.022449122 -0.053538136 0)
(0.028494708 -0.051422658 0)
(0.034268642 -0.048815371 0)
(0.039715724 -0.045740534 0)
(0.044783789 -0.042226814 0)
(0.0494242 -0.038307043 0)
(0.053592307 -0.034017935 0)
(0.057247877 -0.029399777 0)
(0.060355484 -0.024496071 0)
(0.062884852 -0.019353154 0)
(0.064811157 -0.014019784 0)
(0.066115282 -0.0085466996 0)
(0.066784016 -0.0029861575 0)
(0.066810202 0.0026085523 0)
(0.066192834 0.0081836041 0)
(0.064937096 0.01368515 0)
(0.063054338 0.01905984 0)
(0.060562007 0.024255348 0)
(0.057483501 0.029220894 0)
(0.053847978 0.033907766 0)
(0.049690095 0.038269821 0)
(0.045049692 0.04226397 0)
(0.039971419 0.045850638 0)
(0.034504304 0.048994193 0)
(0.028701283 0.051663326 0)
(0.022618672 0.053831401 0)
(0.016315612 0.055476745 0)
(0.0098534739 0.056582888 0)
(0.0032952377 0.057138747 0)
(-0.0034870897 0.06388902 0)
(-0.010427331 0.063267307 0)
(-0.017265787 0.062030117 0)
(-0.023935751 0.060189865 0)
(-0.030372234 0.057764996 0)
(-0.036512616 0.054779784 0)
(-0.04229728 0.051264056 0)
(-0.047670202 0.047252868 0)
(-0.052579512 0.042786116 0)
(-0.056977991 0.037908098 0)
(-0.060823523 0.032667039 0)
(-0.064079495 0.027114572 0)
(-0.06671512 0.021305192 0)
(-0.068705711 0.015295692 0)
(-0.070032883 0.0091445832 0)
(-0.070684694 0.0029115083 0)
(-0.070655722 -0.0033433446 0)
(-0.069947079 -0.0095598214 0)
(-0.068566373 -0.015678372 0)
(-0.066527603 -0.021640604 0)
(-0.063851006 -0.027389825 0)
(-0.060562844 -0.032871552 0)
(-0.056695139 -0.038034008 0)
(-0.05228536 -0.042828581 0)
(-0.047376055 -0.047210255 0)
(-0.042014444 -0.051137998 0)
(-0.036251963 -0.054575123 0)
(-0.030143783 -0.057489596 0)
(-0.023748285 -0.059854306 0)
(-0.017126512 -0.061647293 0)
(-0.010341604 -0.062851929 0)
(-0.0034582079 -0.06345705 0)
(0.0034581194 -0.063457054 0)
(0.010341517 -0.06285194 0)
(0.017126427 -0.061647313 0)
(0.023748203 -0.059854333 0)
(0.030143705 -0.05748963 0)
(0.03625189 -0.054575164 0)
(0.042014376 -0.051138045 0)
(0.047375994 -0.047210307 0)
(0.052285306 -0.042828638 0)
(0.056695093 -0.038034069 0)
(0.060562805 -0.032871617 0)
(0.063850976 -0.027389892 0)
(0.066527581 -0.021640674 0)
(0.068566359 -0.015678443 0)
(0.069947074 -0.0095598941 0)
(0.070655726 -0.0033434179 0)
(0.070684707 0.002911435 0)
(0.070032904 0.0091445104 0)
(0.068705741 0.01529562 0)
(0.066715158 0.021305121 0)
(0.064079542 0.027114504 0)
(0.060823578 0.032666974 0)
(0.056978053 0.037908036 0)
(0.052579583 0.042786058 0)
(0.04767028 0.047252815 0)
(0.042297364 0.051264008 0)
(0.036512706 0.054779742 0)
(0.030372329 0.057764962 0)
(0.02393585 0.060189838 0)
(0.017265889 0.062030097 0)
(0.010427435 0.063267294 0)
(0.0034871953 0.063889016 0)
(-0.0037172062 0.071055188 0)
(-0.011115403 0.070363488 0)
(-0.018404985 0.068987039 0)
(-0.025514777 0.066939676 0)
(-0.032375441 0.064241954 0)
(-0.038920185 0.060920919 0)
(-0.045085434 0.057009808 0)
(-0.050811464 0.052547673 0)
(-0.056043001 0.047578953 0)
(-0.060729749 0.042152981 0)
(-0.064826876 0.03632345 0)
(-0.068295428 0.030147834 0)
(-0.07110268 0.023686775 0)
(-0.07322241 0.017003455 0)
(-0.074635118 0.010162947 0)
(-0.075328161 0.0032315644 0)
(-0.075295832 -0.003723787 0)
(-0.074539375 -0.01063625 0)
(-0.073066932 -0.017439647 0)
(-0.070893442 -0.02406909 0)
(-0.068040472 -0.030461576 0)
(-0.064536 -0.03655656 0)
(-0.060414133 -0.042296495 0)
(-0.055714775 -0.047627354 0)
(-0.050483243 -0.052499097 0)
(-0.044769833 -0.056866118 0)
(-0.038629337 -0.060687633 0)
(-0.032120524 -0.063928034 0)
(-0.025305592 -0.066557184 0)
(-0.018249574 -0.068550672 0)
(-0.011019743 -0.069890014 0)
(-0.0036849752 -0.070562801 0)
(0.0036848795 -0.070562805 0)
(0.011019648 -0.069890027 0)
(0.018249482 -0.068550695 0)
(0.025305503 -0.066557215 0)
(0.03212044 -0.063928073 0)
(0.038629258 -0.06068768 0)
(0.04476976 -0.056866171 0)
(0.050483178 -0.052499156 0)
(0.055714717 -0.047627418 0)
(0.060414083 -0.042296565 0)
(0.064535959 -0.036556633 0)
(0.06804044 -0.030461653 0)
(0.070893418 -0.024069169 0)
(0.073066918 -0.017439728 0)
(0.07453937 -0.010636332 0)
(0.075295836 -0.0037238692 0)
(0.075328174 0.0032314822 0)
(0.07463514 0.010162865 0)
(0.073222441 0.017003375 0)
(0.07110272 0.023686697 0)
(0.068295477 0.030147758 0)
(0.064826934 0.036323377 0)
(0.060729815 0.042152911 0)
(0.056043076 0.047578887 0)
(0.050811547 0.052547613 0)
(0.045085523 0.057009754 0)
(0.038920281 0.060920872 0)
(0.032375543 0.064241914 0)
(0.025514883 0.066939644 0)
(0.018405095 0.068987016 0)
(0.011115516 0.070363474 0)
(0.0037173199 0.071055183 0)
(-0.0039978356 0.078723816 0)
(-0.011954511 0.077957138 0)
(-0.019794233 0.076431504 0)
(-0.027440371 0.074162277 0)
(-0.034818285 0.071172284 0)
(-0.041856088 0.067491561 0)
(-0.048485376 0.063157008 0)
(-0.054641917 0.058211981 0)
(-0.060266285 0.052705804 0)
(-0.06530444 0.046693222 0)
(-0.069708243 0.0402338 0)
(-0.0734359 0.033391279 0)
(-0.076452327 0.02623289 0)
(-0.078729449 0.018828653 0)
(-0.08024641 0.011250658 0)
(-0.080989724 0.0035723443 0)
(-0.080953341 -0.0041322122 0)
(-0.080138659 -0.011789006 0)
(-0.078554471 -0.019324789 0)
(-0.076216848 -0.026667744 0)
(-0.073148968 -0.033748136 0)
(-0.069380887 -0.040498943 0)
(-0.064949241 -0.046856456 0)
(-0.059896894 -0.052760852 0)
(-0.054272531 -0.058156724 0)
(-0.048130194 -0.062993563 0)
(-0.04152876 -0.067226206 0)
(-0.034531395 -0.070815212 0)
(-0.027204948 -0.073727206 0)
(-0.019619328 -0.075935153 0)
(-0.011846849 -0.077418579 0)
(-0.0039615577 -0.078163744 0)
(0.0039614544 -0.078163749 0)
(0.011846747 -0.077418594 0)
(0.019619228 -0.075935178 0)
(0.027204852 -0.073727241 0)
(0.034531304 -0.070815256 0)
(0.041528676 -0.067226258 0)
(0.048130115 -0.062993623 0)
(0.054272461 -0.05815679 0)
(0.059896832 -0.052760925 0)
(0.064949187 -0.046856534 0)
(0.069380843 -0.040499025 0)
(0.073148934 -0.033748222 0)
(0.076216823 -0.026667833 0)
(0.078554456 -0.019324879 0)
(0.080138654 -0.011789097 0)
(0.080953345 -0.0041323039 0)
(0.080989738 0.0035722528 0)
(0.080246433 0.011250567 0)
(0.078729481 0.018828563 0)
(0.076452369 0.026232802 0)
(0.073435951 0.033391193 0)
(0.069708304 0.040233718 0)
(0.06530451 0.046693143 0)
(0.060266364 0.05270573 0)
(0.054642005 0.058211914 0)
(0.048485472 0.063156947 0)
(0.041856191 0.067491508 0)
(0.034818394 0.07117224 0)
(0.027440485 0.074162241 0)
(0.019794351 0.076431478 0)
(0.011954632 0.077957123 0)
(0.003997958 0.07872381 0)
(-0.0043453893 0.087009911 0)
(-0.012993725 0.086162119 0)
(-0.021514776 0.084475091 0)
(-0.02982515 0.081965856 0)
(-0.037843638 0.078659716 0)
(-0.045492041 0.074589953 0)
(-0.052695977 0.069797459 0)
(-0.059385624 0.064330266 0)
(-0.065496423 0.058243005 0)
(-0.070969699 0.051596301 0)
(-0.075753225 0.04445609 0)
(-0.079801696 0.036892905 0)
(-0.083077123 0.028981108 0)
(-0.08554914 0.020798112 0)
(-0.087195229 0.01242358 0)
(-0.088000863 0.0039386329 0)
(-0.087959568 -0.0045749348 0)
(-0.087072933 -0.013035424 0)
(-0.085350543 -0.021361981 0)
(-0.082809857 -0.029475327 0)
(-0.079476034 -0.037298477 0)
(-0.075381683 -0.044757425 0)
(-0.070566555 -0.051781813 0)
(-0.065077172 -0.058305561 0)
(-0.05896638 -0.064267454 0)
(-0.052292852 -0.069611688 0)
(-0.04512053 -0.074288356 0)
(-0.037518022 -0.078253878 0)
(-0.029557947 -0.081471369 0)
(-0.021316258 -0.083910955 0)
(-0.012871526 -0.085550011 0)
(-0.0043042086 -0.086373354 0)
(0.0043040972 -0.086373359 0)
(0.012871416 -0.085550028 0)
(0.021316151 -0.083910983 0)
(0.029557844 -0.081471409 0)
(0.037517925 -0.078253927 0)
(0.045120439 -0.074288415 0)
(0.052292768 -0.069611756 0)
(0.058966304 -0.064267529 0)
(0.065077106 -0.058305642 0)
(0.070566499 -0.051781901 0)
(0.075381636 -0.044757517 0)
(0.079475997 -0.037298573 0)
(0.082809831 -0.029475425 0)
(0.085350526 -0.02136208 0)
(0.087072927 -0.013035525 0)
(0.087959572 -0.0045750362 0)
(0.088000876 0.0039385316 0)
(0.087195253 0.012423479 0)
(0.085549174 0.020798012 0)
(0.083077167 0.02898101 0)
(0.07980175 0.036892809 0)
(0.075753289 0.044455998 0)
(0.070969773 0.051596213 0)
(0.065496506 0.058242923 0)
(0.059385717 0.064330189 0)
(0.052696078 0.069797391 0)
(0.045492151 0.074589893 0)
(0.037843754 0.078659665 0)
(0.029825273 0.081965815 0)
(0.021514903 0.084475061 0)
(0.012993855 0.086162101 0)
(0.004345521 0.087009905 0)
(-0.0047806369 0.096065521 0)
(-0.014295149 0.095128961 0)
(-0.023669439 0.09326532 0)
(-0.03281165 0.090493462 0)
(-0.04163234 0.086841408 0)
(-0.050045411 0.082346022 0)
(-0.05796899 0.077052582 0)
(-0.065326259 0.071014268 0)
(-0.072046227 0.064291551 0)
(-0.07806442 0.056951513 0)
(-0.083323494 0.049067089 0)
(-0.087773755 0.040716258 0)
(-0.091373582 0.031981195 0)
(-0.094089754 0.022947391 0)
(-0.095897677 0.013702777 0)
(-0.096781525 0.0043368406 0)
(-0.096734297 -0.0050602246 0)
(-0.095757809 -0.014398355 0)
(-0.093862621 -0.023588427 0)
(-0.091067915 -0.032543046 0)
(-0.087401302 -0.041177329 0)
(-0.082898571 -0.049409655 0)
(-0.077603357 -0.057162403 0)
(-0.071566744 -0.064362654 0)
(-0.064846784 -0.070942844 0)
(-0.057507951 -0.076841369 0)
(-0.049620528 -0.082003128 0)
(-0.041259945 -0.086380005 0)
(-0.032506057 -0.089931275 0)
(-0.023442398 -0.09262395 0)
(-0.014155389 -0.094433052 0)
(-0.004733533 -0.095341815 0)
(0.0047334128 -0.095341821 0)
(0.014155271 -0.094433071 0)
(0.023442283 -0.092623982 0)