/*--------------------------------*- C++ -*----------------------------------*\
| =========                 |                                                 |
| \\      /  F ield         | OpenFOAM: The Open Source CFD Toolbox           |
|  \\    /   O peration     | Version:  2306                                  |
|   \\  /    A nd           | Website:  www.openfoam.com                      |
|    \\/     M anipulation  |                                                 |
\*---------------------------------------------------------------------------*/
FoamFile
{
    version     2.0;
    format      ascii;
    arch        "LSB;label=32;scalar=64";
    class       volVectorField;
    location    "0.27";
    object      U_0;
}
// * * * * * * * * * * * * * * * * * * * * * * * * * * * * * * * * * * * * * //

dimensions      [0 1 -1 0 0 0 0];

internalField   nonuniform List<vector> 
6400
(
(-0.00093047775 2.2863747e-07 -7.3946313e-19)
(-0.00091899855 1.5407672e-07 3.0105476e-19)
(-0.0009072945 4.9632682e-08 5.7578827e-19)
(-0.00089538328 -5.6906305e-08 5.2017705e-21)
(-0.00088326886 -1.5894017e-07 1.6413113e-19)
(-0.00087096492 -2.5497481e-07 -2.3728034e-19)
(-0.00085848718 -3.4499526e-07 1.5209553e-20)
(-0.00084585145 -4.2945731e-07 -5.0812669e-22)
(-0.00083307315 -5.0884326e-07 -4.1233928e-19)
(-0.00082016716 -5.8357096e-07 1.2774068e-19)
(-0.00080714781 -6.5397336e-07 -2.7295379e-19)
(-0.00079402886 -7.2032806e-07 -1.8140556e-19)
(-0.00078082352 -7.8285905e-07 4.2571585e-19)
(-0.00076754442 -8.4176478e-07 2.2455607e-19)
(-0.00075420365 -8.9721875e-07 -6.3749263e-20)
(-0.00074081277 -9.493827e-07 -4.2402805e-19)
(-0.00072738278 -9.9840222e-07 3.8277914e-20)
(-0.00071392417 -1.0444109e-06 3.3704586e-19)
(-0.00070044689 -1.0875482e-06 2.0472391e-19)
(-0.00068696038 -1.1279285e-06 -1.0481615e-19)
(-0.00067347359 -1.165675e-06 -4.8493273e-19)
(-0.00065999498 -1.2009046e-06 1.2205777e-19)
(-0.00064653248 -1.2337318e-06 2.2477815e-19)
(-0.00063309362 -1.2642572e-06 1.2976789e-19)
(-0.00061968541 -1.292592e-06 -2.8032145e-20)
(-0.00060631444 -1.318831e-06 -4.8187797e-19)
(-0.00059298688 -1.3430743e-06 1.1316166e-19)
(-0.00057970845 -1.3654126e-06 3.1531303e-19)
(-0.00056648449 -1.3859432e-06 5.5346163e-20)
(-0.00055331994 -1.4047464e-06 3.0254902e-20)
(-0.00054021933 -1.4219113e-06 -3.4631126e-19)
(-0.00052718689 -1.4375203e-06 -1.376526e-19)
(-0.00051422644 -1.4516601e-06 2.1979261e-19)
(-0.00050134149 -1.464407e-06 6.4224544e-20)
(-0.00048853523 -1.4758515e-06 3.7707627e-20)
(-0.00047581053 -1.4860689e-06 -6.6078327e-20)
(-0.00046316995 -1.4951273e-06 1.0921602e-20)
(-0.0004506158 -1.5031042e-06 9.7714929e-20)
(-0.0004381501 -1.5100682e-06 -9.5458164e-21)
(-0.0004257746 -1.5160808e-06 2.2454069e-20)
(-0.00041349082 -1.5212076e-06 -8.4580247e-20)
(-0.00040130005 -1.5255034e-06 -1.9141627e-20)
(-0.00038920334 -1.5290305e-06 9.0053706e-20)
(-0.00037720156 -1.5318406e-06 5.5359151e-20)
(-0.00036529535 -1.5339821e-06 -1.3199827e-20)
(-0.00035348519 -1.535507e-06 -1.7756441e-19)
(-0.00034177136 -1.5364609e-06 -3.7825653e-20)
(-0.00033015398 -1.5368908e-06 1.2964397e-19)
(-0.00031863303 -1.5368341e-06 5.6964213e-20)
(-0.00030720833 -1.536333e-06 -3.9261939e-20)
(-0.00029587955 -1.5354268e-06 -8.385511e-20)
(-0.00028464625 -1.5341493e-06 1.2972888e-20)
(-0.00027350787 -1.5325365e-06 4.6017059e-20)
(-0.00026246372 -1.5306163e-06 -2.8284696e-20)
(-0.00025151303 -1.5284173e-06 -7.4406231e-20)
(-0.00024065492 -1.5259763e-06 -1.0946868e-20)
(-0.00022988842 -1.523312e-06 7.8325529e-20)
(-0.00021921249 -1.5204538e-06 3.196414e-20)
(-0.00020862601 -1.5174201e-06 3.112188e-21)
(-0.00019812779 -1.5142375e-06 -5.2832719e-21)
(-0.00018771657 -1.510921e-06 -3.2456892e-20)
(-0.00017739108 -1.5074914e-06 2.7225595e-20)
(-0.00016714995 -1.5039663e-06 1.6274974e-20)
(-0.00015699181 -1.5003556e-06 -7.7495828e-21)
(-0.00014691524 -1.4966776e-06 1.4516968e-20)
(-0.0001369188 -1.4929378e-06 -5.2942101e-20)
(-0.00012700105 -1.4891457e-06 -2.0127332e-20)
(-0.00011716056 -1.4852954e-06 5.5624648e-20)
(-0.00010739594 -1.4813743e-06 2.5364561e-20)
(-9.7705888e-05 -1.4773355e-06 -1.6954894e-20)
(-8.8089319e-05 -1.4730679e-06 -3.792015e-20)
(-7.8545575e-05 -1.4682936e-06 -8.6165212e-21)
(-6.9074923e-05 -1.4623583e-06 2.6855321e-20)
(-5.9679629e-05 -1.4537198e-06 8.9296199e-21)
(-5.0366124e-05 -1.4389584e-06 -6.5686437e-21)
(-4.1148776e-05 -1.4114898e-06 -1.0592297e-20)
(-3.2054561e-05 -1.3633589e-06 -3.6634641e-21)
(-2.3119673e-05 -1.3086636e-06 4.5867975e-21)
(-1.4285837e-05 -1.4373857e-06 8.752483e-22)
(-4.9316616e-06 -2.3966413e-06 -4.3924416e-21)
(-0.0021599337 2.2591166e-08 2.1991418e-20)
(-0.0021319243 -9.8751088e-07 2.1661212e-19)
(-0.0021034248 -1.9690094e-06 2.8413302e-19)
(-0.0020744681 -2.9066301e-06 -5.4378063e-19)
(-0.0020451068 -3.7991639e-06 -6.4725624e-20)
(-0.0020153822 -4.6478524e-06 5.3779887e-19)
(-0.0019853314 -5.4545103e-06 -4.0947792e-19)
(-0.0019549893 -6.220937e-06 1.7664419e-19)
(-0.0019243892 -6.9487599e-06 2.5489737e-19)
(-0.0018935632 -7.6394749e-06 -4.8080944e-19)
(-0.0018625421 -8.2944533e-06 -3.6329158e-19)
(-0.0018313552 -8.9149995e-06 -1.981194e-19)
(-0.0018000307 -9.5023628e-06 4.2274204e-19)
(-0.0017685956 -1.0057755e-05 1.8535213e-19)
(-0.0017370755 -1.0582357e-05 -1.5696508e-19)
(-0.0017054949 -1.1077329e-05 -3.472366e-20)
(-0.001673877 -1.1543804e-05 7.5069961e-20)
(-0.0016422438 -1.1982897e-05 3.5011257e-19)
(-0.0016106161 -1.2395709e-05 -1.4374246e-19)
(-0.0015790138 -1.2783313e-05 -5.0850003e-19)
(-0.0015474554 -1.3146752e-05 -7.5874604e-20)
(-0.0015159583 -1.3487082e-05 3.6861078e-19)
(-0.001484539 -1.3805306e-05 3.5115366e-19)
(-0.0014532129 -1.4102416e-05 -4.507528e-20)
(-0.0014219943 -1.4379381e-05 -3.6223691e-19)
(-0.0013908966 -1.4637143e-05 -2.9365817e-19)
(-0.0013599323 -1.4876628e-05 1.9790446e-19)
(-0.0013291129 -1.509873e-05 5.4939242e-19)
(-0.0012984491 -1.530433e-05 5.8379779e-20)
(-0.0012679505 -1.5494268e-05 -4.059784e-19)
(-0.0012376264 -1.5669363e-05 -1.6884522e-19)
(-0.0012074847 -1.5830414e-05 -7.8968214e-20)
(-0.0011775331 -1.5978197e-05 3.3566767e-19)
(-0.0011477781 -1.6113432e-05 4.0985637e-19)
(-0.0011182259 -1.6236847e-05 -2.4385532e-19)
(-0.0010888818 -1.6349125e-05 -3.771396e-19)
(-0.0010597505 -1.6450913e-05 -6.8079229e-20)
(-0.0010308362 -1.6542856e-05 3.5011322e-19)
(-0.0010021424 -1.6625575e-05 1.2520423e-19)
(-0.00097367214 -1.6699649e-05 -4.1713064e-19)
(-0.00094542792 -1.6765646e-05 -1.2910649e-19)
(-0.00091741173 -1.68241e-05 3.6092741e-19)
(-0.00088962514 -1.6875538e-05 2.9838181e-19)
(-0.00086206924 -1.6920455e-05 -1.7077198e-19)
(-0.00083474472 -1.6959319e-05 -4.4516907e-19)
(-0.00080765188 -1.699259e-05 -4.9278581e-20)
(-0.00078079065 -1.7020701e-05 3.0736661e-19)
(-0.00075416062 -1.7044064e-05 1.7626217e-19)
(-0.00072776105 -1.7063071e-05 -6.267473e-20)
(-0.00070159089 -1.7078093e-05 -2.1823338e-19)
(-0.00067564883 -1.708949e-05 -8.0297049e-20)
(-0.00064993328 -1.70976e-05 2.3676278e-19)
(-0.0006244424 -1.7102742e-05 2.1784465e-19)
(-0.00059917412 -1.7105217e-05 -8.7435383e-20)
(-0.00057412618 -1.7105306e-05 -2.9183321e-19)
(-0.00054929611 -1.710329e-05 -4.5007661e-20)
(-0.00052468126 -1.7099411e-05 2.038879e-19)
(-0.00050027884 -1.709392e-05 8.8014714e-20)
(-0.00047608587 -1.7087035e-05 -2.7398322e-20)
(-0.00045209928 -1.7078971e-05 -6.1540184e-20)
(-0.00042831587 -1.7069915e-05 -2.229142e-20)
(-0.00040473231 -1.7060053e-05 2.3594951e-20)
(-0.00038134522 -1.7049546e-05 4.3907109e-20)
(-0.00035815111 -1.7038544e-05 -2.7476552e-20)
(-0.00033514645 -1.7027178e-05 -8.4034017e-20)
(-0.00031232767 -1.7015557e-05 -1.8010825e-20)
(-0.00028969117 -1.7003758e-05 6.3790541e-20)
(-0.00026723337 -1.6991811e-05 7.7064247e-20)
(-0.00024495075 -1.6979682e-05 -2.3808349e-20)
(-0.00022283988 -1.6967194e-05 -8.454977e-20)
(-0.00020089758 -1.6953911e-05 -8.4059319e-21)
(-0.00017912105 -1.6938874e-05 4.8978866e-20)
(-0.0001575081 -1.692007e-05 3.1598038e-20)
(-0.00013605753 -1.6893425e-05 -1.2796449e-20)
(-0.00011476921 -1.6851376e-05 -2.7227993e-20)
(-9.3642837e-05 -1.6782571e-05 -3.474192e-21)
(-7.2671384e-05 -1.6680771e-05 1.235374e-20)
(-5.1823933e-05 -1.6584827e-05 7.7727305e-21)
(-3.103083e-05 -1.6688496e-05 -1.3079048e-21)
(-1.02829e-05 -1.7484832e-05 -2.7920965e-21)
(-0.0028551723 -1.5284307e-06 3.6506853e-19)
(-0.0028172496 -3.949141e-06 -3.9248285e-19)
(-0.0027787263 -6.2515882e-06 -3.0346097e-19)
(-0.002739673 -8.4494448e-06 -2.0055291e-19)
(-0.0027001406 -1.0547654e-05 -1.3241247e-19)
(-0.0026601763 -1.2549409e-05 2.65613e-19)
(-0.0026198258 -1.4457381e-05 -1.3851947e-19)
(-0.0025791333 -1.6274036e-05 1.3186302e-19)
(-0.0025381415 -1.8001864e-05 4.4140457e-19)
(-0.0024968913 -1.9643404e-05 -1.8812922e-19)
(-0.0024554219 -2.1201228e-05 -2.5701509e-19)
(-0.0024137711 -2.2677951e-05 -4.3131578e-20)
(-0.0023719746 -2.4076216e-05 1.0222573e-19)
(-0.0023300668 -2.5398668e-05 -9.5705091e-20)
(-0.0022880803 -2.6647959e-05 -6.2714167e-21)
(-0.0022460461 -2.7826739e-05 3.48992e-19)
(-0.0022039935 -2.8937636e-05 -3.7572423e-20)
(-0.0021619504 -2.9983263e-05 -1.7788478e-19)
(-0.002119943 -3.0966198e-05 -2.4798158e-19)
(-0.0020779962 -3.1889001e-05 -1.0800927e-19)
(-0.0020361333 -3.2754166e-05 3.1028223e-19)
(-0.0019943762 -3.3564185e-05 1.5257675e-19)
(-0.0019527454 -3.4321464e-05 4.8098165e-20)
(-0.0019112602 -3.5028386e-05 -1.9968596e-19)
(-0.0018699382 -3.5687273e-05 -1.2115151e-19)
(-0.0018287963 -3.6300392e-05 2.4969846e-19)
(-0.0017878497 -3.6869954e-05 4.6510668e-20)
(-0.0017471127 -3.7398115e-05 3.6593234e-20)
(-0.0017065984 -3.7886976e-05 -7.5160496e-20)
(-0.0016663188 -3.8338568e-05 -2.597108e-19)
(-0.0016262848 -3.8754857e-05 7.4912641e-20)
(-0.0015865064 -3.9137752e-05 1.1906019e-19)
(-0.0015469925 -3.9489106e-05 8.7474385e-20)
(-0.0015077513 -3.9810684e-05 1.5738316e-19)
(-0.0014687898 -4.0104201e-05 -1.1884646e-19)
(-0.0014301144 -4.0371303e-05 -2.2782952e-19)
(-0.0013917308 -4.0613578e-05 -9.1745404e-20)
(-0.0013536436 -4.0832551e-05 1.2761087e-19)
(-0.0013158569 -4.1029705e-05 8.1289187e-20)
(-0.001278374 -4.1206446e-05 -1.1512813e-19)
(-0.0012411977 -4.1364128e-05 1.9815666e-20)
(-0.0012043301 -4.1504048e-05 1.3213343e-19)
(-0.0011677727 -4.1627451e-05 5.5484956e-20)
(-0.0011315263 -4.1735527e-05 -1.2836135e-19)
(-0.0010955915 -4.1829416e-05 -1.6697373e-19)
(-0.0010599682 -4.1910205e-05 7.7758337e-20)
(-0.0010246558 -4.1978934e-05 1.47391e-19)
(-0.00098965348 -4.2036585e-05 5.4560134e-20)
(-0.00095495976 -4.2084107e-05 -7.4965221e-20)
(-0.00092057292 -4.2122388e-05 -8.0389382e-20)
(-0.00088649088 -4.2152281e-05 4.0641934e-20)
(-0.0008527112 -4.2174599e-05 6.918135e-20)
(-0.00081923117 -4.2190103e-05 6.5062635e-20)
(-0.00078604776 -4.2199522e-05 1.7559826e-22)
(-0.0007531577 -4.2203535e-05 -7.1366219e-20)
(-0.00072055746 -4.2202794e-05 -3.6505242e-20)
(-0.00068824333 -4.2197907e-05 3.761454e-20)
(-0.00065621135 -4.2189449e-05 3.8759816e-20)
(-0.00062445742 -4.2177959e-05 -2.2208767e-20)
(-0.00059297724 -4.2163943e-05 -2.6114119e-20)
(-0.0005617664 -4.2147865e-05 8.9165894e-21)
(-0.00053082035 -4.2130163e-05 -2.4628143e-20)
(-0.0005001344 -4.2111234e-05 9.3719159e-21)
(-0.00046970382 -4.2091441e-05 2.0468874e-21)
(-0.00043952377 -4.2071106e-05 -2.9689892e-20)
(-0.00040958936 -4.2050506e-05 2.5563185e-20)
(-0.00037989568 -4.2029858e-05 1.5602203e-20)
(-0.00035043778 -4.2009289e-05 3.2459458e-22)
(-0.00032121077 -4.1988815e-05 -7.5538968e-21)
(-0.00029220979 -4.1968254e-05 -1.1707281e-20)
(-0.00026343006 -4.1947079e-05 2.9551267e-20)
(-0.00023486695 -4.1924196e-05 2.2292262e-20)
(-0.00020651583 -4.1897511e-05 1.7212057e-21)
(-0.00017837173 -4.186351e-05 -2.3738998e-20)
(-0.00015042841 -4.1817322e-05 -1.1414541e-20)
(-0.00012267629 -4.1755637e-05 2.1913605e-20)
(-9.5097414e-05 -4.1690179e-05 9.2535941e-21)
(-6.7656084e-05 -4.1686582e-05 3.5223719e-21)
(-4.0311609e-05 -4.1940013e-05 7.1374478e-21)
(-1.3290956e-05 -4.2756546e-05 1.6628686e-20)
(-0.0032014972 -3.9816263e-06 1.6265665e-21)
(-0.0031584373 -7.970459e-06 -1.7943101e-19)
(-0.0031147545 -1.1789692e-05 -1.9404341e-20)
(-0.003070502 -1.5442939e-05 6.8537108e-20)
(-0.0030257354 -1.8933093e-05 2.7774448e-21)
(-0.0029805089 -2.2263453e-05 -2.2812134e-20)
(-0.0029348743 -2.54376e-05 -1.84375e-19)
(-0.0028888811 -2.8459389e-05 -6.3914159e-20)
(-0.0028425767 -3.1332875e-05 1.5617503e-19)
(-0.0027960065 -3.4062263e-05 1.47681e-19)
(-0.002749214 -3.6651855e-05 -3.9854987e-20)
(-0.0027022406 -3.9106032e-05 -1.9870404e-19)
(-0.0026551259 -4.142921e-05 4.6569227e-21)
(-0.0026079077 -4.3625831e-05 9.5949874e-20)
(-0.0025606217 -4.5700346e-05 8.6704202e-20)
(-0.0025133021 -4.7657191e-05 8.6502782e-20)
(-0.0024659809 -4.950079e-05 -1.4527662e-19)
(-0.0024186886 -5.1235505e-05 -1.0718047e-19)
(-0.0023714541 -5.286568e-05 -8.3801247e-21)
(-0.0023243044 -5.4395595e-05 5.004527e-21)
(-0.0022772648 -5.5829452e-05 1.3227728e-19)
(-0.0022303593 -5.7171389e-05 3.1489982e-20)
(-0.0021836103 -5.8425461e-05 -2.6396134e-20)
(-0.0021370384 -5.9595651e-05 -1.6211598e-20)
(-0.0020906631 -6.0685838e-05 7.3366793e-20)
(-0.0020445023 -6.1699815e-05 9.9141785e-20)
(-0.0019985728 -6.2641268e-05 -6.3979505e-20)
(-0.0019528897 -6.3513802e-05 -5.4038972e-20)
(-0.0019074672 -6.4320908e-05 -7.1434035e-20)
(-0.0018623182 -6.5065972e-05 -1.1717555e-19)
(-0.0018174544 -6.5752284e-05 7.770233e-21)
(-0.0017728863 -6.638302e-05 9.9051421e-20)
(-0.0017286236 -6.6961264e-05 7.2974355e-20)
(-0.0016846747 -6.7489992e-05 2.4504548e-20)
(-0.0016410473 -6.797207e-05 -4.8904931e-20)
(-0.0015977479 -6.8410263e-05 -6.8217899e-20)
(-0.0015547824 -6.8807242e-05 -7.8664055e-20)
(-0.0015121557 -6.9165558e-05 4.7653749e-21)
(-0.0014698719 -6.9487684e-05 4.8311781e-20)
(-0.0014279344 -6.9775976e-05 5.4108803e-20)
(-0.0013863458 -7.0032704e-05 3.4515206e-20)
(-0.0013451081 -7.0260037e-05 -4.3447305e-20)
(-0.0013042227 -7.0460053e-05 -2.2617258e-20)
(-0.0012636904 -7.0634739e-05 2.992676e-20)
(-0.0012235112 -7.0786001e-05 5.891903e-20)
(-0.0011836848 -7.0915654e-05 3.3977759e-20)
(-0.0011442104 -7.1025424e-05 -1.7678595e-20)
(-0.0011050866 -7.111696e-05 4.6348276e-21)
(-0.0010663117 -7.1191834e-05 -2.6745929e-20)
(-0.0010278834 -7.1251537e-05 8.0820869e-21)
(-0.00098979919 -7.1297487e-05 6.0367133e-20)
(-0.00095205611 -7.1331035e-05 1.9766053e-20)
(-0.00091465091 -7.1353448e-05 1.8195363e-20)
(-0.00087758002 -7.136594e-05 -6.943677e-21)
(-0.00084083958 -7.1369653e-05 -3.1879949e-20)
(-0.00080442548 -7.136566e-05 -3.6320122e-20)
(-0.00076833338 -7.1354985e-05 7.8213474e-21)
(-0.0007325587 -7.1338574e-05 7.647612e-21)
(-0.0006970967 -7.1317329e-05 -2.085161e-20)
(-0.00066194243 -7.1292092e-05 -1.0411085e-20)
(-0.0006270908 -7.1263635e-05 1.5794921e-20)
(-0.00059253659 -7.1232698e-05 3.4646654e-21)
(-0.00055827444 -7.1199939e-05 1.4151505e-20)
(-0.0005242989 -7.1165972e-05 2.2832023e-21)
(-0.00049060443 -7.1131348e-05 -6.9286197e-21)
(-0.00045718544 -7.109654e-05 1.5184878e-20)
(-0.00042403627 -7.1061954e-05 -1.7889267e-20)
(-0.00039115123 -7.1027877e-05 -2.7177518e-21)
(-0.0003585246 -7.0994455e-05 2.6447363e-20)
(-0.00032615062 -7.0961646e-05 2.817924e-20)
(-0.00029402348 -7.0929083e-05 2.0410887e-20)
(-0.00026213718 -7.0895942e-05 4.7227563e-21)
(-0.00023048532 -7.0860727e-05 7.0932577e-21)
(-0.00019906055 -7.082125e-05 -2.4229865e-20)
(-0.00016785363 -7.0775357e-05 -5.3363004e-21)
(-0.00013685233 -7.0724224e-05 2.1269339e-20)
(-0.00010603993 -7.068293e-05 5.9073896e-21)
(-7.539098e-05 -7.0703931e-05 1.3242287e-20)
(-4.488969e-05 -7.0912604e-05 1.5908299e-20)
(-1.479117e-05 -7.1444111e-05 2.5619511e-20)
(-0.0033580648 -7.350178e-06 7.4957455e-20)
(-0.0033125387 -1.3084838e-05 1.2868821e-20)
(-0.0032663774 -1.8563761e-05 -6.7922194e-20)
(-0.0032196386 -2.3794455e-05 -4.1177831e-22)
(-0.0031723798 -2.8784182e-05 1.7013733e-20)
(-0.0031246563 -3.3539729e-05 1.8086021e-20)
(-0.0030765216 -3.8067618e-05 -5.298006e-20)
(-0.0030280271 -4.2374302e-05 -7.0021254e-20)
(-0.0029792222 -4.646623e-05 -6.2600283e-20)
(-0.0029301542 -5.0349899e-05 8.5042776e-20)
(-0.0028808683 -5.403186e-05 1.1864318e-19)
(-0.0028314076 -5.7518689e-05 -1.2470499e-19)
(-0.0027818132 -6.0816984e-05 -3.5608527e-20)
(-0.0027321244 -6.3933332e-05 8.1626389e-20)
(-0.0026823783 -6.6874308e-05 5.818795e-20)
(-0.00263261 -6.9646431e-05 6.9749965e-21)
(-0.0025828531 -7.2256188e-05 -1.1613645e-19)
(-0.002533139 -7.4709954e-05 -5.0459167e-20)
(-0.0024834973 -7.7014069e-05 1.1711411e-21)
(-0.0024339562 -7.917475e-05 -2.5176446e-21)
(-0.0023845417 -8.1198111e-05 7.7135757e-20)
(-0.0023352786 -8.3090141e-05 2.5356361e-20)
(-0.0022861897 -8.4856717e-05 3.5098299e-20)
(-0.0022372965 -8.6503598e-05 2.9438269e-20)
(-0.0021886189 -8.8036384e-05 5.2542416e-20)
(-0.0021401753 -8.946054e-05 7.3650828e-20)
(-0.0020919828 -9.0781388e-05 -3.4238165e-20)
(-0.002044057 -9.2004106e-05 -3.3876801e-20)
(-0.0019964123 -9.3133718e-05 -8.5503887e-20)
(-0.0019490618 -9.4175094e-05 -8.8691984e-20)
(-0.0019020175 -9.513295e-05 9.9380167e-21)
(-0.0018552901 -9.6011854e-05 5.1404935e-20)
(-0.0018088893 -9.6816214e-05 3.7236929e-20)
(-0.0017628236 -9.7550292e-05 -1.2142169e-20)
(-0.0017171008 -9.8218187e-05 -4.2073422e-20)
(-0.0016717275 -9.8823865e-05 -1.6475247e-20)
(-0.0016267093 -9.9371132e-05 -5.4174543e-20)
(-0.0015820513 -9.9863648e-05 -2.0894326e-20)
(-0.0015377573 -0.00010030493 1.0382729e-20)
(-0.0014938308 -0.00010069835 1.1610178e-20)
(-0.0014502742 -0.00010104714 3.9410979e-20)
(-0.0014070894 -0.00010135441 2.0584277e-20)
(-0.0013642775 -0.00010162311 2.5186138e-20)
(-0.0013218391 -0.00010185608 3.6590622e-20)
(-0.0012797742 -0.00010205603 1.5432914e-20)
(-0.0012380821 -0.00010222555 5.5172572e-21)
(-0.0011967617 -0.0001023671 -2.2668088e-20)
(-0.0011558115 -0.00010248302 -3.9396348e-21)
(-0.0011152294 -0.00010257555 -6.4389093e-21)
(-0.0010750129 -0.00010264681 1.1195502e-20)
(-0.0010351592 -0.00010269882 5.2677965e-20)
(-0.00099566499 -0.00010273349 4.0292887e-20)
(-0.00095652676 -0.00010275264 2.556366e-20)
(-0.0009177406 -0.00010275797 -2.0093464e-20)
(-0.00087930234 -0.00010275111 -3.7401377e-20)
(-0.00084120753 -0.00010273359 -3.9098064e-20)
(-0.00080345149 -0.00010270685 6.363088e-21)
(-0.00076602932 -0.00010267225 9.6696113e-21)
(-0.00072893592 -0.00010263106 8.9193966e-22)
(-0.000692166 -0.00010258446 6.4520951e-21)
(-0.00065571412 -0.00010253356 1.5829899e-20)
(-0.00061957469 -0.00010247942 -1.6586864e-21)
(-0.00058374201 -0.00010242295 6.2889005e-21)
(-0.00054821027 -0.00010236504 1.0763208e-20)
(-0.00051297355 -0.00010230649 -6.2542651e-21)
(-0.00047802588 -0.00010224799 1.4828091e-20)
(-0.0004433612 -0.00010219015 -5.8694665e-22)
(-0.00040897341 -0.00010213346 -2.5361288e-21)
(-0.00037485634 -0.00010207826 7.845213e-21)
(-0.0003410037 -0.00010202476 1.0151645e-20)
(-0.00030740908 -0.00010197291 6.5520047e-21)
(-0.0002740658 -0.0001019224 7.4587896e-21)
(-0.00024096662 -0.00010187271 1.7631816e-20)
(-0.00020810335 -0.00010182325 -9.1467604e-21)
(-0.00017546629 -0.00010177432 -3.1861924e-21)
(-0.00014304452 -0.00010172977 1.4091279e-20)
(-0.00011082645 -0.00010170364 6.5413197e-21)
(-7.8795274e-05 -0.00010173122 6.2934405e-21)
(-4.6943711e-05 -0.00010188 8.8885995e-21)
(-1.5489279e-05 -0.0001021903 1.7368513e-20)
(-0.0034254271 -1.0983165e-05 6.1368021e-20)
(-0.0033786918 -1.848002e-05 2.1409445e-20)
(-0.0033313226 -2.564334e-05 -5.8276943e-20)
(-0.0032833785 -3.2481602e-05 -5.0954991e-20)
(-0.0032349175 -3.9002963e-05 -1.929557e-20)
(-0.003185996 -4.5215742e-05 -3.2009707e-20)
(-0.0031366681 -5.1128415e-05 1.6168741e-21)
(-0.0030869862 -5.6749573e-05 6.5256034e-20)
(-0.0030370004 -6.2087907e-05 -6.2458208e-21)
(-0.0029867587 -6.7152173e-05 2.0084497e-20)
(-0.0029363069 -7.1951179e-05 2.8791439e-20)
(-0.0028856889 -7.6493754e-05 -7.5255068e-20)
(-0.0028349464 -8.078872e-05 3.4375873e-20)
(-0.002784119 -8.4844877e-05 1.457604e-20)
(-0.0027332444 -8.8670979e-05 -2.4719982e-20)
(-0.0026823582 -9.2275706e-05 -7.1449685e-21)
(-0.0026314942 -9.5667659e-05 -7.8340789e-20)
(-0.0025806842 -9.8855314e-05 -4.1323694e-20)
(-0.0025299582 -0.00010184705 1.7915121e-20)
(-0.0024793444 -0.00010465108 8.1608327e-21)
(-0.0024288693 -0.00010727549 3.3526068e-20)
(-0.0023785576 -0.00010972821 3.3470244e-20)
(-0.0023284324 -0.00011201696 7.7716715e-20)
(-0.0022785153 -0.00011414934 2.1620174e-20)
(-0.0022288262 -0.00011613273 2.5020429e-20)
(-0.0021793836 -0.00011797432 7.2853419e-20)
(-0.0021302045 -0.00011968111 1.5854043e-22)
(-0.0020813047 -0.0001212599 -1.8652141e-20)
(-0.0020326985 -0.0001227173 -6.8325516e-20)
(-0.0019843989 -0.00012405969 -5.2687311e-20)
(-0.0019364179 -0.00012529326 -1.5226617e-20)
(-0.0018887661 -0.00012642401 2.3050267e-20)
(-0.0018414531 -0.00012745771 2.6901923e-21)
(-0.0017944874 -0.00012839994 -2.8292409e-20)
(-0.0017478766 -0.00012925609 -4.6622846e-21)
(-0.001701627 -0.00013003132 -1.2298528e-20)
(-0.0016557444 -0.00013073063 -5.8527876e-20)
(-0.0016102334 -0.0001313588 -2.6142867e-20)
(-0.001565098 -0.00013192043 2.8586221e-21)
(-0.0015203412 -0.00013241992 1.9271803e-20)
(-0.0014759654 -0.00013286152 4.4694099e-20)
(-0.0014319723 -0.00013324925 1.7685921e-20)
(-0.0013883628 -0.000133587 1.9367548e-20)
(-0.0013451373 -0.00013387846 2.3784763e-20)
(-0.0013022956 -0.00013412717 -1.4169242e-21)
(-0.0012598369 -0.0001343365 -1.9731415e-20)
(-0.0012177598 -0.00013450968 -3.8316391e-20)
(-0.0011760626 -0.00013464974 -5.5301355e-22)
(-0.0011347431 -0.00013475962 -1.2919761e-20)
(-0.0010937985 -0.00013484206 1.3479672e-20)
(-0.0010532257 -0.00013489971 5.2849814e-20)
(-0.0010130214 -0.00013493506 3.6793195e-20)
(-0.00097318174 -0.00013495046 2.0000509e-20)
(-0.00093370263 -0.00013494815 -1.299501e-20)
(-0.0008945797 -0.00013493024 -1.8765228e-20)
(-0.00085580829 -0.00013489872 -3.9944796e-20)
(-0.0008173835 -0.00013485547 -1.9784862e-21)
(-0.00077930024 -0.00013480224 6.3834613e-21)
(-0.00074155319 -0.00013474071 -9.4721571e-21)
(-0.00070413686 -0.00013467241 -3.3307555e-21)
(-0.0006670456 -0.00013459879 8.097733e-21)
(-0.00063027362 -0.00013452121 -7.9773994e-21)
(-0.00059381502 -0.00013444088 2.4427156e-22)
(-0.00055766375 -0.00013435898 1.8779933e-20)
(-0.0005218137 -0.00013427654 1.1342633e-20)
(-0.00048625868 -0.0001341945 2.5932186e-20)
(-0.0004509924 -0.0001341137 8.1544097e-21)
(-0.00041600851 -0.00013403486 -6.2421514e-22)
(-0.00038130058 -0.00013395858 -3.6951467e-21)
(-0.00034686207 -0.00013388533 -1.0302588e-20)
(-0.00031268626 -0.00013381543 -8.8052887e-21)
(-0.00027876621 -0.00013374912 -9.74229e-21)
(-0.00024509453 -0.00013368663 2.2518361e-20)
(-0.00021166316 -0.00013362849 1.1509601e-20)
(-0.00017846336 -0.00013357628 1.0139633e-20)
(-0.00014548669 -0.00013353433 1.7344385e-20)
(-0.00011272609 -0.00013351304 -1.489399e-21)
(-8.0168512e-05 -0.00013353258 -2.4633975e-21)
(-4.7803179e-05 -0.00013362412 -3.7990824e-21)
(-1.5792475e-05 -0.00013379109 9.051195e-21)
(-0.00345611 -1.5043527e-05 -1.0322568e-20)
(-0.0034086618 -2.4312302e-05 5.5609948e-20)
(-0.0033605864 -3.3166262e-05 -3.1865019e-21)
(-0.0033119431 -4.1615594e-05 -6.3533e-20)
(-0.0032627905 -4.9670577e-05 -1.2550711e-20)
(-0.0032131857 -5.7341709e-05 -8.4823587e-20)
(-0.0031631832 -6.463969e-05 -2.4412282e-20)
(-0.0031128359 -7.1575361e-05 1.4218991e-19)
(-0.0030621942 -7.8159686e-05 6.3819919e-21)
(-0.0030113066 -8.4403706e-05 -8.2950032e-21)
(-0.002960219 -9.0318506e-05 2.9914192e-20)
(-0.0029089756 -9.5915195e-05 -3.6828053e-20)
(-0.0028576183 -0.00010120485 1.4262828e-21)
(-0.0028061869 -0.00010619851 -2.8393594e-20)
(-0.002754719 -0.00011090713 -2.0405277e-20)
(-0.0027032505 -0.00011534159 1.3431182e-20)
(-0.0026518152 -0.00011951262 -1.8461598e-20)
(-0.0026004449 -0.00012343083 2.5913223e-21)
(-0.0025491696 -0.00012710666 2.3391666e-20)
(-0.0024980174 -0.00013055036 1.0462492e-20)
(-0.0024470148 -0.00013377201 1.1383544e-20)
(-0.0023961864 -0.00013678146 9.2176745e-21)
(-0.0023455552 -0.00013958835 6.0259625e-20)
(-0.0022951427 -0.00014220211 2.0009056e-20)
(-0.0022449686 -0.00014463192 2.4322162e-21)
(-0.0021950513 -0.00014688671 3.3056669e-20)
(-0.0021454078 -0.00014897518 -2.8677184e-21)
(-0.0020960535 -0.00015090577 -5.7336496e-21)
(-0.0020470026 -0.00015268666 -2.7273381e-20)
(-0.001998268 -0.00015432579 -2.1417336e-20)
(-0.0019498614 -0.00015583083 -1.6048328e-20)
(-0.0019017932 -0.0001572092 2.5793919e-20)
(-0.0018540729 -0.00015846806 1.7458274e-20)
(-0.0018067088 -0.00015961431 -1.7169386e-20)
(-0.001759708 -0.00016065463 -8.5630356e-21)
(-0.001713077 -0.00016159541 -1.4972859e-20)
(-0.0016668212 -0.00016244283 -3.9670191e-20)
(-0.001620945 -0.00016320279 -3.9308017e-20)
(-0.0015754522 -0.00016388099 -2.1580217e-22)
(-0.0015303455 -0.00016448286 2.4869665e-20)
(-0.0014856272 -0.00016501366 2.9812432e-20)
(-0.0014412988 -0.00016547836 2.1205296e-20)
(-0.0013973609 -0.00016588176 1.7282289e-20)
(-0.0013538138 -0.0001662284 1.37384e-20)
(-0.0013106569 -0.00016652268 -1.1118971e-20)
(-0.0012678894 -0.00016676874 -2.3889409e-20)
(-0.0012255097 -0.00016697056 -4.8506255e-20)
(-0.0011835158 -0.0001671319 -1.7750045e-20)
(-0.0011419053 -0.00016725636 -1.1815915e-20)
(-0.0011006753 -0.00016734735 2.1554276e-20)
(-0.0010598225 -0.00016740812 4.1519986e-20)
(-0.0010193433 -0.00016744173 2.1592824e-20)
(-0.00097923382 -0.00016745109 4.6124877e-21)
(-0.0009394897 -0.00016743896 -1.0697855e-20)
(-0.0009001064 -0.00016740794 -1.2224378e-20)
(-0.00086107912 -0.00016736048 -3.6602351e-20)
(-0.00082240278 -0.0001672989 4.0587397e-21)
(-0.00078407212 -0.00016722537 -1.8196569e-20)
(-0.00074608166 -0.00016714192 -1.9995582e-20)
(-0.00070842576 -0.00016705047 1.0970292e-20)
(-0.00067109861 -0.0001669528 1.4317334e-20)
(-0.00063409427 -0.00016685058 -3.9065165e-22)
(-0.00059740666 -0.00016674534 -3.1776161e-21)
(-0.00056102962 -0.00016663851 1.1208376e-20)
(-0.00052495686 -0.00016653139 1.6779207e-21)
(-0.00048918203 -0.00016642518 2.0002145e-20)
(-0.0004536987 -0.00016632095 8.3344357e-21)
(-0.00041850036 -0.00016621965 1.4154249e-21)
(-0.00038358042 -0.00016612215 1.1138878e-20)
(-0.00034893218 -0.00016602917 -7.7385872e-23)
(-0.00031454883 -0.00016594141 -1.5790693e-20)
(-0.00028042336 -0.0001658595 -1.0988599e-20)
(-0.00024654853 -0.00016578419 1.0918992e-20)
(-0.00021291677 -0.00016571659 -1.0901588e-21)
(-0.00017952041 -0.00016565861 1.0976777e-20)
(-0.00014635288 -0.00016561391 1.7571941e-20)
(-0.00011340956 -0.00016558911 -2.102436e-22)
(-8.0677509e-05 -0.00016559428 -7.3555695e-21)
(-4.8139321e-05 -0.00016564142 -4.7894224e-21)
(-1.591706e-05 -0.00016572328 1.3791226e-20)
(-0.0034739337 -1.9408379e-05 -5.0138906e-20)
(-0.0034259095 -3.0453069e-05 2.6083968e-20)
(-0.0033772677 -4.1000245e-05 7.9373968e-21)
(-0.003328069 -5.1061948e-05 -3.4282851e-20)
(-0.0032783724 -6.0650685e-05 1.5981951e-20)
(-0.003228235 -6.9779309e-05 -6.7613521e-20)
(-0.003177712 -7.8460906e-05 8.3600835e-21)
(-0.0031268561 -8.6708711e-05 8.1527012e-20)
(-0.0030757181 -9.4536073e-05 -4.4956865e-20)
(-0.0030243465 -0.00010195639 4.9741565e-20)
(-0.0029727874 -0.00010898311 2.9780247e-20)
(-0.0029210849 -0.00011562967 -6.7514802e-20)
(-0.002869281 -0.00012190946 -2.124629e-20)
(-0.0028174155 -0.00012783579 -2.7640414e-20)
(-0.0027655261 -0.0001334219 3.4107676e-20)
(-0.0027136483 -0.00013868086 4.2013759e-20)
(-0.0026618161 -0.0001436256 -1.8029794e-20)
(-0.0026100609 -0.00014826886 1.7378026e-20)
(-0.0025584128 -0.0001526232 2.1829122e-20)
(-0.0025068996 -0.00015670093 -4.9451443e-21)
(-0.0024555476 -0.00016051412 -8.7292071e-22)
(-0.0024043813 -0.00016407461 -8.4976363e-22)
(-0.0023534235 -0.00016739395 4.3620333e-20)
(-0.0023026952 -0.00017048342 -1.2690476e-21)
(-0.0022522162 -0.00017335401 -4.4964635e-21)
(-0.0022020045 -0.00017601643 3.2094558e-20)
(-0.0021520768 -0.00017848108 3.2923568e-21)
(-0.0021024483 -0.00018075804 1.0602563e-20)
(-0.0020531329 -0.00018285709 -1.4572597e-20)
(-0.0020041433 -0.00018478771 -7.8302714e-21)
(-0.0019554909 -0.00018655909 -1.0864452e-20)
(-0.0019071858 -0.00018818006 3.1241407e-20)
(-0.0018592372 -0.00018965918 2.4057303e-20)
(-0.0018116532 -0.00019100469 -2.1255627e-20)
(-0.0017644406 -0.00019222454 -8.7586709e-21)
(-0.0017176057 -0.00019332635 -3.5229357e-20)
(-0.0016711534 -0.00019431749 -3.2104724e-20)
(-0.0016250881 -0.00019520501 -1.7265601e-20)
(-0.0015794131 -0.00019599567 1.0307061e-20)
(-0.0015341312 -0.00019669597 4.9947428e-20)
(-0.0014892441 -0.00019731214 2.6023622e-20)
(-0.0014447532 -0.00019785014 3.5897216e-21)
(-0.0014006589 -0.00019831562 6.2033649e-21)
(-0.0013569611 -0.00019871406 -3.4959418e-21)
(-0.0013136592 -0.00019905063 3.4515205e-21)
(-0.0012707519 -0.00019933028 -8.2079251e-21)
(-0.0012282376 -0.00019955775 -4.4542127e-20)
(-0.0011861141 -0.0001997375 -8.7930427e-21)
(-0.0011443786 -0.00019987382 -1.5408901e-20)
(-0.0011030281 -0.00019997075 9.5098046e-21)
(-0.0010620591 -0.00020003216 3.3883543e-20)
(-0.0010214679 -0.00020006168 7.1668632e-21)
(-0.00098125023 -0.00020006278 -7.2502437e-21)
(-0.0009414017 -0.00020003873 -8.9244412e-21)
(-0.00090191757 -0.00019999261 2.1199761e-22)
(-0.00086279283 -0.00019992735 -3.4974033e-20)
(-0.00082402227 -0.00019984568 1.0124576e-20)
(-0.00078560044 -0.00019975019 -8.8605565e-21)
(-0.00074752172 -0.0001996433 -1.1633889e-20)
(-0.00070978031 -0.00019952728 1.44302e-20)
(-0.00067237024 -0.00019940426 9.562e-21)
(-0.00063528544 -0.0001992762 -6.8005364e-21)
(-0.00059851967 -0.00019914495 -6.1332809e-21)
(-0.00056206664 -0.00019901221 1.9778542e-20)
(-0.00052591993 -0.00019887954 -4.8353001e-21)
(-0.00049007304 -0.00019874838 1.3370909e-20)
(-0.00045451941 -0.00019862005 1.7131735e-20)
(-0.0004192524 -0.00019849575 6.4629678e-21)
(-0.00038426531 -0.00019837656 8.9318806e-21)
(-0.00034955136 -0.00019826348 1.4926625e-21)
(-0.00031510367 -0.00019815745 -1.3219743e-20)
(-0.0002809153 -0.00019805942 -4.4740279e-21)
(-0.00024697918 -0.00019797041 1.4935445e-20)
(-0.00021328817 -0.00019789174 -1.0138172e-20)
(-0.00017983533 -0.00019782519 3.3837603e-21)
(-0.00014661515 -0.00019777346 1.8996575e-20)
(-0.00011362371 -0.00019774033 3.2904531e-22)
(-8.0846746e-05 -0.00019773014 -1.4489713e-20)