/*--------------------------------*- C++ -*----------------------------------*\
| =========                 |                                                 |
| \\      /  F ield         | OpenFOAM: The Open Source CFD Toolbox           |
|  \\    /   O peration     | Version:  2106                                  |
|   \\  /    A nd           | Website:  www.openfoam.com                      |
|    \\/     M anipulation  |                                                 |
\*---------------------------------------------------------------------------*/
FoamFile
{
    version     2.0;
    format      ascii;
    arch        "LSB;label=32;scalar=64";
    class       volVectorField;
    location    "0.007";
    object      U;
}
// * * * * * * * * * * * * * * * * * * * * * * * * * * * * * * * * * * * * * //

dimensions      [0 1 -1 0 0 0 0];

internalField   nonuniform List<vector> 
16384
(
(0.0031747855 -0.0031711513 0)
(0.0095160716 -0.0031628782 0)
(0.01583253 -0.0031463584 0)
(0.022107696 -0.003121645 0)
(0.02832524 -0.0030888169 0)
(0.034469013 -0.0030479788 0)
(0.040523105 -0.0029992605 0)
(0.046471886 -0.0029428161 0)
(0.052300064 -0.0028788233 0)
(0.05799272 -0.0028074824 0)
(0.063535363 -0.0027290154 0)
(0.068913965 -0.0026436645 0)
(0.074115004 -0.0025516915 0)
(0.079125499 -0.0024533759 0)
(0.083933049 -0.0023490143 0)
(0.088525859 -0.0022389182 0)
(0.092892774 -0.0021234135 0)
(0.097023306 -0.0020028385 0)
(0.10090765 -0.0018775427 0)
(0.10453673 -0.0017478855 0)
(0.10790217 -0.0016142349 0)
(0.11099635 -0.0014769658 0)
(0.11381243 -0.0013364592 0)
(0.11634429 -0.0011931003 0)
(0.11858663 -0.0010472779 0)
(0.12053491 -0.00089938251 0)
(0.12218537 -0.00074980569 0)
(0.12353505 -0.00059893858 0)
(0.12458175 -0.00044717084 0)
(0.12532406 -0.00029488958 0)
(0.12576135 -0.00014247825 0)
(0.12589372 9.6890914e-06 0)
(0.12572211 0.00016120921 0)
(0.12524806 0.00031176873 0)
(0.12447394 0.00046097547 0)
(0.12340282 0.00060847974 0)
(0.12203844 0.00075394355 0)
(0.12038522 0.00089703601 0)
(0.11844823 0.0010374365 0)
(0.11623318 0.0011748357 0)
(0.11374637 0.0013089366 0)
(0.11099471 0.0014394544 0)
(0.10798563 0.0015661175 0)
(0.10472712 0.0016886677 0)
(0.10122767 0.0018068602 0)
(0.097496226 0.0019204642 0)
(0.0935422 0.0020292629 0)
(0.089375415 0.0021330532 0)
(0.085006092 0.0022316462 0)
(0.08044481 0.0023248666 0)
(0.07570249 0.0024125527 0)
(0.07079036 0.0024945561 0)
(0.065719931 0.0025707413 0)
(0.060502974 0.0026409855 0)
(0.055151491 0.0027051783 0)
(0.049677694 0.0027632208 0)
(0.04409398 0.0028150257 0)
(0.038412911 0.0028605167 0)
(0.032647189 0.0028996279 0)
(0.026809636 0.0029323038 0)
(0.020913179 0.0029584986 0)
(0.014970823 0.002978176 0)
(0.0089956381 0.0029913091 0)
(0.0030007376 0.0029978801 0)
(-0.0030007376 0.0029978801 0)
(-0.0089956381 0.0029913091 0)
(-0.014970823 0.002978176 0)
(-0.020913179 0.0029584986 0)
(-0.026809636 0.0029323038 0)
(-0.032647189 0.0028996279 0)
(-0.038412911 0.0028605167 0)
(-0.04409398 0.0028150257 0)
(-0.049677694 0.0027632208 0)
(-0.055151491 0.0027051783 0)
(-0.060502974 0.0026409855 0)
(-0.065719931 0.0025707413 0)
(-0.07079036 0.0024945561 0)
(-0.07570249 0.0024125527 0)
(-0.08044481 0.0023248666 0)
(-0.085006092 0.0022316462 0)
(-0.089375415 0.0021330532 0)
(-0.0935422 0.0020292629 0)
(-0.097496226 0.0019204642 0)
(-0.10122767 0.0018068602 0)
(-0.10472712 0.0016886677 0)
(-0.10798563 0.0015661175 0)
(-0.11099471 0.0014394544 0)
(-0.11374637 0.0013089366 0)
(-0.11623318 0.0011748357 0)
(-0.11844823 0.0010374365 0)
(-0.12038522 0.00089703601 0)
(-0.12203844 0.00075394355 0)
(-0.12340282 0.00060847974 0)
(-0.12447394 0.00046097547 0)
(-0.12524806 0.00031176873 0)
(-0.12572211 0.00016120921 0)
(-0.12589372 9.6890913e-06 0)
(-0.12576135 -0.00014247825 0)
(-0.12532406 -0.00029488958 0)
(-0.12458175 -0.00044717084 0)
(-0.12353505 -0.00059893858 0)
(-0.12218537 -0.00074980569 0)
(-0.12053491 -0.00089938251 0)
(-0.11858663 -0.0010472779 0)
(-0.11634429 -0.0011931003 0)
(-0.11381243 -0.0013364592 0)
(-0.11099635 -0.0014769658 0)
(-0.10790217 -0.0016142349 0)
(-0.10453673 -0.0017478855 0)
(-0.10090765 -0.0018775427 0)
(-0.097023306 -0.0020028385 0)
(-0.092892774 -0.0021234135 0)
(-0.088525859 -0.0022389182 0)
(-0.083933049 -0.0023490143 0)
(-0.079125499 -0.0024533759 0)
(-0.074115004 -0.0025516915 0)
(-0.068913965 -0.0026436645 0)
(-0.063535363 -0.0027290154 0)
(-0.05799272 -0.0028074824 0)
(-0.052300064 -0.0028788233 0)
(-0.046471886 -0.0029428161 0)
(-0.040523105 -0.0029992605 0)
(-0.034469013 -0.0030479788 0)
(-0.02832524 -0.0030888169 0)
(-0.022107696 -0.003121645 0)
(-0.01583253 -0.0031463584 0)
(-0.0095160716 -0.0031628782 0)
(-0.0031747855 -0.0031711513 0)
(0.0031854693 -0.0095218277 0)
(0.0095480882 -0.0094969811 0)
(0.015885775 -0.0094473677 0)
(0.022181996 -0.0093731466 0)
(0.028420354 -0.0092745553 0)
(0.034584634 -0.0091519083 0)
(0.040658859 -0.0090055957 0)
(0.046627339 -0.0088360808 0)
(0.052474719 -0.0086438975 0)
(0.058186024 -0.008429648 0)
(0.063746707 -0.008193999 0)
(0.069142689 -0.007937679 0)
(0.074360399 -0.0076614742 0)
(0.079386811 -0.0073662249 0)
(0.084209482 -0.0070528216 0)
(0.08881658 -0.006722201 0)
(0.093196916 -0.0063753416 0)
(0.09733997 -0.00601326 0)
(0.10123592 -0.0056370061 0)
(0.10487564 -0.0052476597 0)
(0.10825076 -0.0048463259 0)
(0.11135364 -0.0044341311 0)
(0.11417741 -0.0040122192 0)
(0.11671597 -0.0035817475 0)
(0.118964 -0.0031438834 0)
(0.12091695 -0.0026997999 0)
(0.12257107 -0.0022506728 0)
(0.12392339 -0.0017976768 0)
(0.12497174 -0.001341982 0)
(0.1257147 -0.00088475117 0)
(0.12615166 -0.00042713723 0)
(0.12628274 2.9719561e-05 0)
(0.12610886 0.00048470468 0)
(0.12563163 0.00093672408 0)
(0.12485343 0.0013846873 0)
(0.12377735 0.0018275419 0)
(0.12240714 0.0022642654 0)
(0.12074726 0.0026938633 0)
(0.11880282 0.0031153733 0)
(0.11657955 0.003527867 0)
(0.1140838 0.0039304525 0)
(0.11132248 0.0043222754 0)
(0.10830309 0.0047025204 0)
(0.10503364 0.0050704124 0)
(0.10152265 0.0054252174 0)
(0.097779115 0.0057662427 0)
(0.093812478 0.0060928376 0)
(0.0896326 0.0064043936 0)
(0.085249735 0.0067003436 0)
(0.080674501 0.0069801621 0)
(0.07591785 0.0072433643 0)
(0.070991045 0.0074895053 0)
(0.065905629 0.0077181794 0)
(0.060673404 0.0079290186 0)
(0.055306403 0.0081216916 0)
(0.049816865 0.0082959028 0)
(0.044217217 0.0084513905 0)
(0.038520044 0.0085879261 0)
(0.032738075 0.0087053126 0)
(0.026884157 0.0088033837 0)
(0.020971238 0.0088820023 0)
(0.015012346 0.00894106 0)
(0.0090205724 0.0089804763 0)
(0.0030090525 0.0090001977 0)
(-0.0030090525 0.0090001977 0)
(-0.0090205725 0.0089804763 0)
(-0.015012346 0.00894106 0)
(-0.020971238 0.0088820023 0)
(-0.026884157 0.0088033837 0)
(-0.032738075 0.0087053126 0)
(-0.038520044 0.0085879261 0)
(-0.044217217 0.0084513905 0)
(-0.049816865 0.0082959028 0)
(-0.055306403 0.0081216916 0)
(-0.060673404 0.0079290186 0)
(-0.065905629 0.0077181794 0)
(-0.070991045 0.0074895053 0)
(-0.07591785 0.0072433643 0)
(-0.080674501 0.0069801621 0)
(-0.085249735 0.0067003436 0)
(-0.0896326 0.0064043936 0)
(-0.093812478 0.0060928376 0)
(-0.097779115 0.0057662427 0)
(-0.10152265 0.0054252174 0)
(-0.10503364 0.0050704124 0)
(-0.10830309 0.0047025204 0)
(-0.11132248 0.0043222754 0)
(-0.1140838 0.0039304525 0)
(-0.11657955 0.003527867 0)
(-0.11880282 0.0031153733 0)
(-0.12074726 0.0026938633 0)
(-0.12240714 0.0022642654 0)
(-0.12377735 0.0018275419 0)
(-0.12485343 0.0013846873 0)
(-0.12563163 0.00093672407 0)
(-0.12610886 0.00048470468 0)
(-0.12628274 2.971956e-05 0)
(-0.12615166 -0.00042713723 0)
(-0.1257147 -0.00088475117 0)
(-0.12497174 -0.001341982 0)
(-0.12392339 -0.0017976768 0)
(-0.12257107 -0.0022506728 0)
(-0.12091695 -0.0026997999 0)
(-0.118964 -0.0031438834 0)
(-0.11671597 -0.0035817475 0)
(-0.11417741 -0.0040122192 0)
(-0.11135364 -0.0044341311 0)
(-0.10825076 -0.0048463259 0)
(-0.10487564 -0.0052476597 0)
(-0.10123592 -0.0056370061 0)
(-0.09733997 -0.00601326 0)
(-0.093196916 -0.0063753416 0)
(-0.08881658 -0.006722201 0)
(-0.084209482 -0.0070528216 0)
(-0.079386811 -0.0073662249 0)
(-0.074360399 -0.0076614742 0)
(-0.069142689 -0.007937679 0)
(-0.063746707 -0.008193999 0)
(-0.058186024 -0.008429648 0)
(-0.052474718 -0.0086438975 0)
(-0.046627339 -0.0088360808 0)
(-0.040658859 -0.0090055957 0)
(-0.034584634 -0.0091519083 0)
(-0.028420354 -0.0092745553 0)
(-0.022181996 -0.0093731466 0)
(-0.015885775 -0.0094473677 0)
(-0.0095480882 -0.0094969811 0)
(-0.0031854693 -0.0095218277 0)
(0.0032030577 -0.015902877 0)
(0.0096007959 -0.015861358 0)
(0.01597343 -0.015778454 0)
(0.022304313 -0.01565443 0)
(0.028576934 -0.015489685 0)
(0.034774971 -0.015284744 0)
(0.040882338 -0.015040262 0)
(0.046883242 -0.014757014 0)
(0.052762229 -0.014435893 0)
(0.058504229 -0.014077908 0)
(0.064094603 -0.013684174 0)
(0.069519188 -0.01325591 0)
(0.074764332 -0.012794432 0)
(0.079816937 -0.012301146 0)
(0.084664489 -0.011777542 0)
(0.089295095 -0.011225186 0)
(0.093697509 -0.010645716 0)
(0.097861162 -0.01004083 0)
(0.10177618 -0.0094122848 0)
(0.10543342 -0.0087618858 0)
(0.10882446 -0.00809148 0)
(0.11194164 -0.0074029504 0)
(0.11477807 -0.0066982089 0)
(0.11732763 -0.0059791896 0)
(0.11958499 -0.0052478429 0)
(0.12154561 -0.0045061292 0)
(0.12320573 -0.0037560126 0)
(0.12456238 -0.0029994557 0)
(0.12561341 -0.0022384135 0)
(0.12635743 -0.0014748281 0)
(0.12679381 -0.00071062373 0)
(0.12692274 5.2298507e-05 0)
(0.12674513 0.00081206842 0)
(0.12626265 0.0015668536 0)
(0.12547771 0.002314847 0)
(0.12439343 0.0030542895 0)
(0.12301361 0.0037834709 0)
(0.12134277 0.0045007308 0)
(0.11938604 0.0052044624 0)
(0.11714923 0.0058931166 0)
(0.11463873 0.0065652047 0)
(0.11186151 0.0072193014 0)
(0.10882514 0.0078540465 0)
(0.10553767 0.0084681474 0)
(0.10200768 0.0090603799 0)
(0.098244244 0.0096295896 0)
(0.094256851 0.010174692 0)
(0.090055425 0.010694674 0)
(0.085650279 0.011188591 0)
(0.081052089 0.011655567 0)
(0.076271864 0.012094798 0)
(0.071320921 0.012505542 0)
(0.066210858 0.012887125 0)
(0.060953527 0.013238935 0)
(0.05556101 0.013560424 0)
(0.050045594 0.013851098 0)
(0.04441975 0.014110526 0)
(0.038696108 0.014338327 0)
(0.032887435 0.014534174 0)
(0.02700662 0.014697793 0)
(0.021066646 0.014828956 0)
(0.01508058 0.014927483 0)
(0.0090615466 0.014993241 0)
(0.0030227162 0.015026143 0)
(-0.0030227162 0.015026143 0)
(-0.0090615466 0.014993241 0)
(-0.01508058 0.014927483 0)
(-0.021066646 0.014828956 0)
(-0.02700662 0.014697793 0)
(-0.032887435 0.014534174 0)
(-0.038696108 0.014338327 0)
(-0.04441975 0.014110526 0)
(-0.050045594 0.013851098 0)
(-0.05556101 0.013560424 0)
(-0.060953527 0.013238935 0)
(-0.066210858 0.012887125 0)
(-0.071320921 0.012505542 0)
(-0.076271864 0.012094798 0)
(-0.081052089 0.011655567 0)
(-0.085650279 0.011188591 0)
(-0.090055425 0.010694674 0)
(-0.094256851 0.010174692 0)
(-0.098244244 0.0096295896 0)
(-0.10200768 0.0090603799 0)
(-0.10553767 0.0084681474 0)
(-0.10882514 0.0078540465 0)
(-0.11186151 0.0072193014 0)
(-0.11463873 0.0065652047 0)
(-0.11714923 0.0058931166 0)
(-0.11938604 0.0052044624 0)
(-0.12134277 0.0045007308 0)
(-0.12301361 0.0037834709 0)
(-0.12439343 0.0030542895 0)
(-0.12547771 0.002314847 0)
(-0.12626265 0.0015668536 0)
(-0.12674513 0.00081206842 0)
(-0.12692274 5.2298507e-05 0)
(-0.12679381 -0.00071062372 0)
(-0.12635743 -0.0014748281 0)
(-0.12561341 -0.0022384135 0)
(-0.12456238 -0.0029994557 0)
(-0.12320573 -0.0037560126 0)
(-0.12154561 -0.0045061292 0)
(-0.11958499 -0.0052478429 0)
(-0.11732763 -0.0059791896 0)
(-0.11477807 -0.0066982089 0)
(-0.11194164 -0.0074029504 0)
(-0.10882446 -0.00809148 0)
(-0.10543342 -0.0087618858 0)
(-0.10177618 -0.0094122848 0)
(-0.097861162 -0.01004083 0)
(-0.093697509 -0.010645716 0)
(-0.089295095 -0.011225186 0)
(-0.084664489 -0.011777542 0)
(-0.079816937 -0.012301146 0)
(-0.074764332 -0.012794432 0)
(-0.069519188 -0.01325591 0)
(-0.064094603 -0.013684174 0)
(-0.058504229 -0.014077908 0)
(-0.052762229 -0.014435893 0)
(-0.046883242 -0.014757014 0)
(-0.040882338 -0.015040262 0)
(-0.034774971 -0.015284744 0)
(-0.028576934 -0.015489685 0)
(-0.022304313 -0.01565443 0)
(-0.01597343 -0.015778454 0)
(-0.0096007959 -0.015861358 0)
(-0.0032030577 -0.015902877 0)
(0.0032279192 -0.02232619 0)
(0.0096752994 -0.022267861 0)
(0.016097332 -0.022151389 0)
(0.022477211 -0.021977152 0)
(0.028798266 -0.021745708 0)
(0.035044019 -0.021457801 0)
(0.041198236 -0.021114348 0)
(0.047244977 -0.020716443 0)
(0.053168645 -0.020265345 0)
(0.058954037 -0.019762471 0)
(0.064586388 -0.019209394 0)
(0.070051412 -0.01860783 0)
(0.075335346 -0.01795963 0)
(0.080424985 -0.017266772 0)
(0.085307721 -0.016531353 0)
(0.089971572 -0.015755577 0)
(0.094405213 -0.014941746 0)
(0.098598002 -0.01409225 0)
(0.10254001 -0.013209559 0)
(0.10622202 -0.01229621 0)
(0.10963559 -0.0113548 0)
(0.11277301 -0.010387975 0)
(0.11562736 -0.0093984217 0)
(0.11819251 -0.0083888582 0)
(0.1204631 -0.0073620242 0)
(0.12243459 -0.0063206734 0)
(0.12410322 -0.0052675649 0)
(0.12546605 -0.0042054548 0)
(0.12652091 -0.0031370886 0)
(0.12726644 -0.0020651934 0)
(0.12770206 -0.00099247039 0)
(0.12782797 7.841216e-05 0)
(0.12764513 0.0011448276 0)
(0.12715526 0.0022041975 0)
(0.12636081 0.0032539922 0)
(0.12526496 0.0042917431 0)
(0.12387159 0.0053150488 0)
(0.12218525 0.0063215788 0)
(0.12021119 0.007309079 0)
(0.11795524 0.0082753763 0)
(0.1154239 0.0092183829 0)
(0.11262422 0.0101361 0)
(0.10956382 0.011026622 0)
(0.10625087 0.011888137 0)
(0.10269404 0.012718929 0)
(0.098902449 0.013517384 0)
(0.094885699 0.014281982 0)
(0.090653793 0.015011306 0)
(0.086217128 0.015704035 0)
(0.081586462 0.016358947 0)
(0.076772883 0.016974915 0)
(0.071787788 0.017550907 0)
(0.066642848 0.018085981 0)
(0.06134999 0.018579284 0)
(0.055921365 0.019030051 0)
(0.050369327 0.019437598 0)
(0.04470641 0.01980132 0)
(0.038945305 0.020120691 0)
(0.033098838 0.020395257 0)
(0.027179953 0.020624633 0)
(0.021201688 0.020808507 0)
(0.015177159 0.020946627 0)
(0.0091195419 0.021038809 0)
(0.0030420559 0.021084931 0)
(-0.003042056 0.021084931 0)
(-0.0091195419 0.021038809 0)
(-0.015177159 0.020946627 0)
(-0.021201688 0.020808507 0)
(-0.027179953 0.020624633 0)
(-0.033098838 0.020395257 0)
(-0.038945305 0.020120691 0)
(-0.04470641 0.01980132 0)
(-0.050369327 0.019437598 0)
(-0.055921365 0.019030051 0)
(-0.06134999 0.018579284 0)
(-0.066642848 0.018085981 0)
(-0.071787788 0.017550907 0)
(-0.076772883 0.016974915 0)
(-0.081586462 0.016358947 0)
(-0.086217128 0.015704035 0)
(-0.090653793 0.015011306 0)
(-0.094885699 0.014281982 0)
(-0.098902449 0.013517384 0)
(-0.10269404 0.012718929 0)
(-0.10625087 0.011888137 0)
(-0.10956382 0.011026622 0)
(-0.11262422 0.0101361 0)
(-0.1154239 0.0092183829 0)
(-0.11795524 0.0082753763 0)
(-0.12021119 0.007309079 0)
(-0.12218525 0.0063215788 0)
(-0.12387159 0.0053150488 0)
(-0.12526496 0.0042917431 0)
(-0.12636081 0.0032539922 0)
(-0.12715526 0.0022041975 0)
(-0.12764513 0.0011448276 0)
(-0.12782797 7.841216e-05 0)
(-0.12770206 -0.00099247039 0)
(-0.12726644 -0.0020651934 0)
(-0.12652091 -0.0031370886 0)
(-0.12546605 -0.0042054548 0)
(-0.12410322 -0.0052675649 0)
(-0.12243459 -0.0063206734 0)
(-0.1204631 -0.0073620242 0)
(-0.11819251 -0.0083888582 0)
(-0.11562736 -0.0093984217 0)
(-0.11277301 -0.010387975 0)
(-0.10963559 -0.0113548 0)
(-0.10622202 -0.01229621 0)
(-0.10254001 -0.013209559 0)
(-0.098598002 -0.01409225 0)
(-0.094405213 -0.014941746 0)
(-0.089971572 -0.015755577 0)
(-0.085307721 -0.016531353 0)
(-0.080424985 -0.017266772 0)
(-0.075335346 -0.01795963 0)
(-0.070051412 -0.01860783 0)
(-0.064586388 -0.019209394 0)
(-0.058954037 -0.019762471 0)
(-0.053168645 -0.020265345 0)
(-0.047244977 -0.020716443 0)
(-0.041198236 -0.021114348 0)
(-0.035044019 -0.021457801 0)
(-0.028798266 -0.021745708 0)
(-0.022477211 -0.021977152 0)
(-0.016097332 -0.022151389 0)
(-0.0096752993 -0.022267861 0)
(-0.0032279192 -0.02232619 0)
(0.0032604399 -0.028806531 0)
(0.0097727553 -0.028731205 0)
(0.016259406 -0.028580796 0)
(0.022703375 -0.028355791 0)
(0.029087787 -0.028056916 0)
(0.035395962 -0.027685132 0)
(0.041611466 -0.02724163 0)
(0.04771817 -0.026727825 0)
(0.053700293 -0.026145347 0)
(0.059542458 -0.025496034 0)
(0.06522973 -0.024781921 0)
(0.070747669 -0.024005228 0)
(0.076082362 -0.023168352 0)
(0.08122047 -0.022273855 0)
(0.086149257 -0.021324448 0)
(0.090856626 -0.020322981 0)
(0.09533115 -0.019272433 0)
(0.099562093 -0.018175895 0)
(0.10353944 -0.017036558 0)
(0.10725392 -0.015857703 0)
(0.11069701 -0.014642684 0)
(0.11386096 -0.013394922 0)
(0.11673882 -0.012117886 0)
(0.11932441 -0.010815087 0)
(0.12161238 -0.0094900623 0)
(0.12359816 -0.0081463683 0)
(0.125278 -0.0067875667 0)
(0.12664896 -0.0054172152 0)
(0.1277089 -0.0040388574 0)
(0.12845649 -0.0026560128 0)
(0.12889117 -0.0012721674 0)
(0.1290132 0.00010923654 0)
(0.12882359 0.001484809 0)
(0.1283241 0.0028512214 0)
(0.12751728 0.0042052124 0)
(0.12640635 0.0055435988 0)
(0.12499529 0.0068632828 0)
(0.12328874 0.0081612592 0)
(0.12129201 0.0094346219 0)
(0.11901106 0.01068057 0)
(0.11645248 0.011896412 0)
(0.11362341 0.013079575 0)
(0.11053161 0.014227604 0)
(0.10718533 0.015338165 0)
(0.10359335 0.016409054 0)
(0.099764913 0.017438191 0)
(0.09570973 0.018423625 0)
(0.091437916 0.019363535 0)
(0.086959975 0.020256225 0)
(0.082286773 0.021100128 0)
(0.077429505 0.021893798 0)
(0.072399669 0.022635913 0)
(0.067209036 0.023325269 0)
(0.061869628 0.023960774 0)
(0.056393687 0.02454145 0)
(0.050793657 0.025066424 0)
(0.045082153 0.025534925 0)
(0.039271949 0.02594628 0)
(0.033375947 0.026299913 0)
(0.027407162 0.026595335 0)
(0.021378705 0.026832144 0)
(0.015303759 0.027010025 0)
(0.0091955653 0.027128742 0)
(0.0030674076 0.02718814 0)
(-0.0030674076 0.02718814 0)
(-0.0091955653 0.027128742 0)
(-0.015303759 0.027010025 0)
(-0.021378705 0.026832144 0)
(-0.027407162 0.026595335 0)
(-0.033375947 0.026299913 0)
(-0.039271949 0.02594628 0)
(-0.045082153 0.025534925 0)
(-0.050793657 0.025066424 0)
(-0.056393687 0.02454145 0)
(-0.061869628 0.023960774 0)
(-0.067209036 0.023325269 0)
(-0.072399669 0.022635913 0)
(-0.077429505 0.021893798 0)
(-0.082286773 0.021100128 0)
(-0.086959975 0.020256225 0)
(-0.091437916 0.019363535 0)
(-0.09570973 0.018423625 0)
(-0.099764913 0.017438191 0)
(-0.10359335 0.016409054 0)
(-0.10718533 0.015338165 0)
(-0.11053161 0.014227604 0)
(-0.11362341 0.013079575 0)
(-0.11645248 0.011896412 0)
(-0.11901106 0.01068057 0)
(-0.12129201 0.0094346219 0)
(-0.12328874 0.0081612592 0)
(-0.12499529 0.0068632828 0)
(-0.12640635 0.0055435988 0)
(-0.12751728 0.0042052124 0)
(-0.1283241 0.0028512214 0)
(-0.12882359 0.001484809 0)
(-0.1290132 0.00010923654 0)
(-0.12889117 -0.0012721674 0)
(-0.12845649 -0.0026560128 0)
(-0.1277089 -0.0040388574 0)
(-0.12664896 -0.0054172152 0)
(-0.125278 -0.0067875667 0)
(-0.12359816 -0.0081463683 0)
(-0.12161238 -0.0094900623 0)
(-0.11932441 -0.010815087 0)
(-0.11673882 -0.012117886 0)
(-0.11386096 -0.013394922 0)
(-0.11069701 -0.014642684 0)
(-0.10725392 -0.015857703 0)
(-0.10353944 -0.017036558 0)
(-0.099562093 -0.018175895 0)
(-0.09533115 -0.019272433 0)
(-0.090856626 -0.020322981 0)
(-0.086149257 -0.021324448 0)
(-0.08122047 -0.022273855 0)
(-0.076082362 -0.023168352 0)
(-0.070747669 -0.024005228 0)
(-0.06522973 -0.024781921 0)
(-0.059542458 -0.025496034 0)
(-0.053700293 -0.026145347 0)
(-0.04771817 -0.026727825 0)
(-0.041611466 -0.02724163 0)
(-0.035395962 -0.027685132 0)
(-0.029087787 -0.028056916 0)
(-0.022703375 -0.028355791 0)
(-0.016259406 -0.028580796 0)
(-0.0097727552 -0.028731205 0)
(-0.0032604399 -0.028806531 0)
(0.0033010246 -0.035359696 0)
(0.0098943774 -0.035267136 0)
(0.016461669 -0.035082317 0)
(0.022985623 -0.034805839 0)
(0.029449106 -0.034438598 0)
(0.035835183 -0.033981778 0)
(0.042127179 -0.033436851 0)
(0.048308723 -0.03280556 0)
(0.054363808 -0.032089916 0)
(0.060276835 -0.031292185 0)
(0.066032666 -0.030414875 0)
(0.071616661 -0.029460723 0)
(0.077014726 -0.028432683 0)
(0.082213351 -0.02733391 0)
(0.087199643 -0.026167743 0)
(0.091961362 -0.024937692 0)
(0.096486951 -0.023647424 0)
(0.10076556 -0.022300742 0)
(0.10478707 -0.020901573 0)
(0.10854213 -0.019453951 0)
(0.11202213 -0.017962004 0)
(0.11521926 -0.016429935 0)
(0.11812653 -0.01486201 0)
(0.12073773 -0.013262542 0)
(0.12304747 -0.011635878 0)
(0.12505118 -0.0099863877 0)
(0.1267451 -0.0083184452 0)
(0.12812631 -0.0066364202 0)
(0.12919269 -0.0049446642 0)
(0.12994294 -0.0032474988 0)
(0.13037655 -0.0015492035 0)
(0.13049383 0.00014599553 0)
(0.13029585 0.0018339369 0)
(0.12978445 0.0035105342 0)
(0.12896225 0.005171786 0)
(0.12783259 0.0068137864 0)
(0.12639951 0.008432735 0)
(0.12466777 0.010024945 0)
(0.12264281 0.011586853 0)
(0.1203307 0.013115024 0)
(0.11773813 0.014606161 0)
(0.11487241 0.01605711 0)
(0.11174141 0.017464864 0)
(0.10835351 0.018826568 0)
(0.10471765 0.020139524 0)
(0.10084321 0.021401189 0)
(0.096740018 0.022609181 0)
(0.092418345 0.023761274 0)
(0.087888831 0.024855401 0)
(0.083162474 0.02588965 0)
(0.078250603 0.026862262 0)
(0.073164842 0.027771626 0)
(0.067917089 0.02861628 0)
(0.062519484 0.029394899 0)
(0.056984385 0.030106295 0)
(0.051324345 0.03074941 0)
(0.045552086 0.031323312 0)
(0.039680481 0.031827186 0)
(0.03372253 0.032260336 0)
(0.027691339 0.032622171 0)
(0.021600107 0.032912209 0)
(0.015462103 0.033130067 0)
(0.0092906516 0.033275462 0)
(0.0030991163 0.033348206 0)
(-0.0030991163 0.033348206 0)
(-0.0092906516 0.033275462 0)
(-0.015462103 0.033130067 0)
(-0.021600107 0.032912209 0)
(-0.027691339 0.032622171 0)
(-0.03372253 0.032260336 0)
(-0.039680481 0.031827186 0)
(-0.045552086 0.031323312 0)
(-0.051324345 0.03074941 0)
(-0.056984385 0.030106295 0)
(-0.062519484 0.029394899 0)
(-0.067917089 0.02861628 0)
(-0.073164842 0.027771626 0)
(-0.078250603 0.026862262 0)
(-0.083162474 0.02588965 0)
(-0.087888831 0.024855401 0)
(-0.092418345 0.023761274 0)
(-0.096740018 0.022609181 0)
(-0.10084321 0.021401189 0)
(-0.10471765 0.020139524 0)
(-0.10835351 0.018826568 0)
(-0.11174141 0.017464864 0)
(-0.11487241 0.01605711 0)
(-0.11773813 0.014606161 0)
(-0.1203307 0.013115024 0)
(-0.12264281 0.011586853 0)
(-0.12466777 0.010024945 0)
(-0.12639951 0.008432735 0)
(-0.12783259 0.0068137864 0)
(-0.12896225 0.005171786 0)
(-0.12978445 0.0035105342 0)
(-0.13029585 0.0018339369 0)
(-0.13049383 0.00014599553 0)
(-0.13037655 -0.0015492035 0)
(-0.12994294 -0.0032474988 0)
(-0.12919269 -0.0049446642 0)
(-0.12812631 -0.0066364202 0)
(-0.1267451 -0.0083184452 0)
(-0.12505118 -0.0099863877 0)
(-0.12304747 -0.011635878 0)
(-0.12073773 -0.013262542 0)
(-0.11812653 -0.01486201 0)
(-0.11521926 -0.016429935 0)
(-0.11202213 -0.017962004 0)
(-0.10854213 -0.019453951 0)
(-0.10478707 -0.020901573 0)
(-0.10076556 -0.022300742 0)
(-0.096486951 -0.023647424 0)
(-0.091961362 -0.024937692 0)
(-0.087199643 -0.026167743 0)
(-0.082213351 -0.02733391 0)
(-0.077014726 -0.028432683 0)
(-0.071616661 -0.029460723 0)
(-0.066032666 -0.030414875 0)
(-0.060276835 -0.031292185 0)
(-0.054363808 -0.032089916 0)
(-0.048308723 -0.03280556 0)
(-0.042127179 -0.033436851 0)
(-0.035835183 -0.033981778 0)
(-0.029449106 -0.034438598 0)
(-0.022985623 -0.034805839 0)
(-0.016461669 -0.035082317 0)
(-0.0098943774 -0.035267136 0)
(-0.0033010246 -0.035359696 0)
(0.0033501007 -0.042002237 0)
(0.010041446 -0.041892153 0)
(0.016706252 -0.041672344 0)
(0.023326926 -0.041343528 0)
(0.029886025 -0.040906774 0)
(0.036366308 -0.040363498 0)
(0.042750804 -0.039715458 0)
(0.049022854 -0.038964738 0)
(0.055166176 -0.038113738 0)
(0.061164908 -0.037165164 0)
(0.067003657 -0.036122011 0)
(0.072667551 -0.034987545 0)
(0.078142273 -0.033765291 0)
(0.083414108 -0.032459011 0)
(0.088469974 -0.031072688 0)
(0.093297459 -0.029610509 0)
(0.097884848 -0.02807684 0)
(0.10222115 -0.026476214 0)
(0.10629614 -0.024813309 0)
(0.11010033 -0.023092928 0)
(0.11362504 -0.021319984 0)
(0.1168624 -0.019499479 0)
(0.11980533 -0.017636489 0)
(0.12244758 -0.015736143 0)
(0.12478375 -0.013803613 0)
(0.12680924 -0.011844091 0)
(0.12852031 -0.0098627785 0)
(0.12991403 -0.0078648693 0)
(0.13098831 -0.0058555346 0)
(0.1317419 -0.0038399094 0)
(0.13217433 -0.0018230784 0)
(0.13228597 0.0001899377 0)
(0.13207798 0.0021941952 0)
(0.13155228 0.0041848402 0)
(0.13071158 0.0061571211 0)
(0.12955933 0.0081064 0)
(0.12809971 0.010028165 0)
(0.12633759 0.01191804 0)
(0.12427853 0.013771797 0)
(0.12192877 0.01558536 0)
(0.11929514 0.017354821 0)
(0.11638511 0.01907644 0)
(0.1132067 0.020746654 0)
(0.10976847 0.022362086 0)
(0.10607952 0.02391954 0)
(0.10214939 0.025416012 0)
(0.097988105 0.026848684 0)
(0.093606078 0.028214932 0)
(0.089014123 0.029512317 0)
(0.084223404 0.030738586 0)
(0.079245408 0.031891669 0)
(0.074091917 0.032969674 0)
(0.068774978 0.033970882 0)
(0.063306877 0.034893741 0)
(0.057700114 0.035736858 0)
(0.051967373 0.036498997 0)
(0.046121507 0.037179068 0)
(0.040175509 0.037776122 0)
(0.034142497 0.038289344 0)
(0.02803569 0.03871805 0)
(0.021868393 0.039061676 0)
(0.015653979 0.039319778 0)
(0.0094058741 0.039492028 0)
(0.0031375399 0.039578207 0)
(-0.0031375399 0.039578207 0)
(-0.0094058741 0.039492028 0)
(-0.015653979 0.039319778 0)
(-0.021868393 0.039061676 0)
(-0.02803569 0.03871805 0)
(-0.034142497 0.038289344 0)
(-0.040175509 0.037776122 0)
(-0.046121507 0.037179068 0)
(-0.051967373 0.036498997 0)
(-0.057700114 0.035736858 0)
(-0.063306877 0.034893741 0)
(-0.068774978 0.033970882 0)
(-0.074091917 0.032969674 0)
(-0.079245408 0.031891669 0)
(-0.084223404 0.030738586 0)
(-0.089014123 0.029512317 0)
(-0.093606078 0.028214932 0)
(-0.097988105 0.026848684 0)
(-0.10214939 0.025416012 0)
(-0.10607952 0.02391954 0)
(-0.10976847 0.022362086 0)
(-0.1132067 0.020746654 0)
(-0.11638511 0.01907644 0)
(-0.11929514 0.017354821 0)
(-0.12192877 0.01558536 0)
(-0.12427853 0.013771797 0)
(-0.12633759 0.01191804 0)
(-0.12809971 0.010028165 0)
(-0.12955933 0.0081064 0)
(-0.13071158 0.0061571211 0)
(-0.13155228 0.0041848402 0)
(-0.13207798 0.0021941952 0)
(-0.13228597 0.0001899377 0)
(-0.13217433 -0.0018230784 0)
(-0.1317419 -0.0038399094 0)
(-0.13098831 -0.0058555346 0)
(-0.12991403 -0.0078648693 0)
(-0.12852031 -0.0098627785 0)
(-0.12680924 -0.011844091 0)
(-0.12478375 -0.013803613 0)
(-0.12244758 -0.015736143 0)
(-0.11980533 -0.017636489 0)
(-0.1168624 -0.019499479 0)
(-0.11362504 -0.021319984 0)
(-0.11010033 -0.023092928 0)
(-0.10629614 -0.024813309 0)
(-0.10222115 -0.026476214 0)
(-0.097884848 -0.02807684 0)
(-0.093297459 -0.029610509 0)
(-0.088469974 -0.031072688 0)
(-0.083414108 -0.032459011 0)
(-0.078142273 -0.033765291 0)
(-0.072667551 -0.034987545 0)
(-0.067003657 -0.036122011 0)
(-0.061164907 -0.037165164 0)
(-0.055166176 -0.038113738 0)
(-0.049022854 -0.038964738 0)
(-0.042750804 -0.039715458 0)
(-0.036366308 -0.040363498 0)
(-0.029886025 -0.040906774 0)
(-0.023326926 -0.041343528 0)
(-0.016706252 -0.041672344 0)
(-0.010041446 -0.041892153 0)
(-0.0033501007 -0.042002237 0)
(0.0034081227 -0.048751559 0)
(0.010215323 -0.048623603 0)
(0.01699542 -0.048368112 0)
(0.023730447 -0.047985924 0)
(0.030402593 -0.047478289 0)
(0.036994258 -0.046846863 0)
(0.04348812 -0.046093697 0)
(0.049867182 -0.045221227 0)
(0.056114835 -0.044232258 0)
(0.062214904 -0.043129948 0)
(0.068151704 -0.041917793 0)
(0.073910081 -0.040599606 0)
(0.07947546 -0.039179498 0)
(0.084833882 -0.037661859 0)
(0.089972042 -0.036051331 0)
(0.094877325 -0.034352794 0)
(0.099537834 -0.032571335 0)
(0.10394241 -0.030712235 0)
(0.10808068 -0.028780937 0)
(0.11194305 -0.026783034 0)
(0.11552071 -0.024724241 0)
(0.11880571 -0.022610375 0)
(0.12179091 -0.020447337 0)
(0.12447 -0.018241093 0)
(0.12683754 -0.01599765 0)
(0.12888892 -0.013723042 0)
(0.13062038 -0.011423311 0)
(0.13202903 -0.0091044889 0)
(0.13311279 -0.0067725811 0)
(0.13387045 -0.00443355 0)
(0.13430162 -0.0020932989 0)
(0.13440673 0.00024234362 0)
(0.13418703 0.0025676393 0)
(0.13364454 0.0048769547 0)
(0.13278208 0.0071647757 0)
(0.13160322 0.0094257214 0)
(0.13011229 0.011654558 0)
(0.12831431 0.01384621 0)
(0.12621501 0.015995775 0)
(0.12382077 0.018098531 0)
(0.12113863 0.020149949 0)
(0.11817622 0.022145698 0)
(0.11494175 0.024081657 0)
(0.111444 0.025953917 0)
(0.10769225 0.027758788 0)
(0.10369624 0.0294928 0)
(0.099466194 0.031152704 0)
(0.095012734 0.032735474 0)
(0.090346867 0.034238304 0)
(0.085479951 0.035658604 0)
(0.080423666 0.036993996 0)
(0.075189976 0.038242313 0)
(0.06979111 0.039401584 0)
(0.064239526 0.040470035 0)
(0.058547889 0.041446078 0)
(0.052729045 0.042328302 0)
(0.046795998 0.043115466 0)
(0.040761886 0.043806491 0)
(0.034639966 0.044400455 0)
(0.02844359 0.044896578 0)
(0.022186192 0.045294225 0)
(0.015881268 0.045592893 0)
(0.0095423625 0.04579221 0)
(0.0031830551 0.04589193 0)
(-0.0031830551 0.04589193 0)
(-0.0095423625 0.04579221 0)
(-0.015881268 0.045592893 0)
(-0.022186192 0.045294225 0)
(-0.02844359 0.044896578 0)
(-0.034639966 0.044400455 0)
(-0.040761886 0.043806491 0)
(-0.046795998 0.043115465 0)
(-0.052729045 0.042328302 0)
(-0.058547889 0.041446078 0)
(-0.064239526 0.040470035 0)
(-0.06979111 0.039401584 0)
(-0.075189976 0.038242313 0)
(-0.080423666 0.036993996 0)
(-0.085479951 0.035658604 0)
(-0.090346867 0.034238304 0)
(-0.095012734 0.032735474 0)
(-0.099466194 0.031152704 0)
(-0.10369624 0.0294928 0)
(-0.10769225 0.027758788 0)
(-0.111444 0.025953917 0)
(-0.11494175 0.024081657 0)
(-0.11817622 0.022145698 0)
(-0.12113863 0.020149949 0)
(-0.12382077 0.018098531 0)
(-0.12621501 0.015995775 0)
(-0.12831431 0.01384621 0)
(-0.13011229 0.011654558 0)
(-0.13160322 0.0094257214 0)
(-0.13278208 0.0071647757 0)
(-0.13364454 0.0048769547 0)
(-0.13418703 0.0025676393 0)
(-0.13440673 0.00024234361 0)
(-0.13430162 -0.0020932989 0)
(-0.13387045 -0.00443355 0)
(-0.13311279 -0.0067725811 0)
(-0.13202903 -0.0091044889 0)
(-0.13062038 -0.011423311 0)
(-0.12888892 -0.013723042 0)
(-0.12683754 -0.01599765 0)
(-0.12447 -0.018241093 0)
(-0.12179091 -0.020447337 0)
(-0.11880571 -0.022610375 0)
(-0.11552071 -0.024724241 0)
(-0.11194305 -0.026783034 0)
(-0.10808068 -0.028780937 0)
(-0.10394241 -0.030712235 0)
(-0.099537834 -0.032571335 0)