/*--------------------------------*- C++ -*----------------------------------*\
| =========                 |                                                 |
| \\      /  F ield         | OpenFOAM: The Open Source CFD Toolbox           |
|  \\    /   O peration     | Version:  2106                                  |
|   \\  /    A nd           | Website:  www.openfoam.com                      |
|    \\/     M anipulation  |                                                 |
\*---------------------------------------------------------------------------*/
FoamFile
{
    version     2.0;
    format      ascii;
    arch        "LSB;label=32;scalar=64";
    class       volVectorField;
    location    "0.007";
    object      U_0;
}
// * * * * * * * * * * * * * * * * * * * * * * * * * * * * * * * * * * * * * //

dimensions      [0 1 -1 0 0 0 0];

internalField   nonuniform List<vector> 
16384
(
(0.0031707572 -0.0031671277 0)
(0.0095039965 -0.0031588643 0)
(0.015812437 -0.003142364 0)
(0.022079634 -0.0031176797 0)
(0.028289277 -0.0030848903 0)
(0.034425237 -0.0030441005 0)
(0.04047162 -0.0029954398 0)
(0.046412819 -0.0029390623 0)
(0.052233555 -0.0028751454 0)
(0.057918933 -0.0028038894 0)
(0.063454475 -0.0027255158 0)
(0.068826172 -0.0026402669 0)
(0.074020518 -0.0025484041 0)
(0.079024549 -0.0024502068 0)
(0.083825879 -0.0023459709 0)
(0.088412729 -0.002236008 0)
(0.092773957 -0.0021206435 0)
(0.09689909 -0.0020002153 0)
(0.10077834 -0.0018750727 0)
(0.10440263 -0.0017455747 0)
(0.1077636 -0.0016120888 0)
(0.11085366 -0.0014749896 0)
(0.11366595 -0.0013346576 0)
(0.11619439 -0.0011914776 0)
(0.11843367 -0.001045838 0)
(0.12037925 -0.00089812891 0)
(0.12202739 -0.00074874134 0)
(0.12337513 -0.000598066 0)
(0.12442027 -0.00044649209 0)
(0.12516142 -0.00029440625 0)
(0.12559794 -0.00014219144 0)
(0.12572994 9.7787263e-06 0)
(0.12555834 0.00016110158 0)
(0.1250847 0.0003114641 0)
(0.12431139 0.00046047463 0)
(0.12324147 0.00060778399 0)
(0.12187868 0.00075305464 0)
(0.12022743 0.00089595614 0)
(0.11829279 0.0010361683 0)
(0.11608046 0.0011733824 0)
(0.11359674 0.0013073017 0)
(0.11084853 0.0014376419 0)
(0.10784326 0.0015641319 0)
(0.10458889 0.0016865137 0)
(0.10109392 0.0018045431 0)
(0.09736727 0.0019179897 0)
(0.09341835 0.0020266369 0)
(0.089256969 0.0021302822 0)
(0.084893332 0.0022287368 0)
(0.080338008 0.0023218258 0)
(0.075601901 0.0024093878 0)
(0.070696224 0.0024912747 0)
(0.065632474 0.0025673514 0)
(0.060422405 0.0026374952 0)
(0.055078002 0.002701596 0)
(0.049611462 0.0027595551 0)
(0.044035163 0.0028112853 0)
(0.038361649 0.0028567106 0)
(0.032603604 0.0028957652 0)
(0.026773833 0.0029283937 0)
(0.020885243 0.0029545504 0)
(0.014950821 0.0029741993 0)
(0.0089836178 0.0029873133 0)
(0.0029967277 0.0029938747 0)
(-0.0029967277 0.0029938747 0)
(-0.0089836178 0.0029873133 0)
(-0.014950821 0.0029741993 0)
(-0.020885243 0.0029545504 0)
(-0.026773833 0.0029283937 0)
(-0.032603604 0.0028957652 0)
(-0.038361649 0.0028567106 0)
(-0.044035163 0.0028112853 0)
(-0.049611462 0.0027595551 0)
(-0.055078002 0.002701596 0)
(-0.060422405 0.0026374952 0)
(-0.065632474 0.0025673514 0)
(-0.070696224 0.0024912747 0)
(-0.075601901 0.0024093878 0)
(-0.080338008 0.0023218258 0)
(-0.084893332 0.0022287368 0)
(-0.089256969 0.0021302822 0)
(-0.09341835 0.0020266369 0)
(-0.09736727 0.0019179897 0)
(-0.10109392 0.0018045431 0)
(-0.10458889 0.0016865137 0)
(-0.10784326 0.0015641319 0)
(-0.11084853 0.0014376419 0)
(-0.11359674 0.0013073017 0)
(-0.11608046 0.0011733824 0)
(-0.11829279 0.0010361683 0)
(-0.12022743 0.00089595614 0)
(-0.12187868 0.00075305464 0)
(-0.12324147 0.00060778399 0)
(-0.12431139 0.00046047463 0)
(-0.1250847 0.0003114641 0)
(-0.12555834 0.00016110158 0)
(-0.12572994 9.778726e-06 0)
(-0.12559794 -0.00014219144 0)
(-0.12516142 -0.00029440625 0)
(-0.12442027 -0.00044649209 0)
(-0.12337513 -0.000598066 0)
(-0.12202739 -0.00074874134 0)
(-0.12037925 -0.00089812892 0)
(-0.11843367 -0.001045838 0)
(-0.11619439 -0.0011914776 0)
(-0.11366595 -0.0013346576 0)
(-0.11085366 -0.0014749896 0)
(-0.1077636 -0.0016120888 0)
(-0.10440263 -0.0017455747 0)
(-0.10077834 -0.0018750727 0)
(-0.09689909 -0.0020002153 0)
(-0.092773957 -0.0021206435 0)
(-0.088412729 -0.002236008 0)
(-0.083825879 -0.0023459709 0)
(-0.079024549 -0.0024502068 0)
(-0.074020518 -0.0025484041 0)
(-0.068826172 -0.0026402669 0)
(-0.063454475 -0.0027255158 0)
(-0.057918933 -0.0028038894 0)
(-0.052233555 -0.0028751454 0)
(-0.046412819 -0.0029390623 0)
(-0.04047162 -0.0029954398 0)
(-0.034425237 -0.0030441005 0)
(-0.028289277 -0.0030848903 0)
(-0.022079634 -0.0031176797 0)
(-0.015812437 -0.003142364 0)
(-0.0095039965 -0.0031588643 0)
(-0.0031707572 -0.0031671277 0)
(0.0031814263 -0.0095097455 0)
(0.009535969 -0.0094849282 0)
(0.015865609 -0.0094353733 0)
(0.022153832 -0.0093612396 0)
(0.02838426 -0.0092627646 0)
(0.034540697 -0.0091402625 0)
(0.040607186 -0.0089941229 0)
(0.046568055 -0.0088248087 0)
(0.052407967 -0.0086328535 0)
(0.058111966 -0.0084188587 0)
(0.063665523 -0.0081834906 0)
(0.069054575 -0.0079274769 0)
(0.074265567 -0.007651603 0)
(0.079285492 -0.0073567085 0)
(0.084101921 -0.007043683 0)
(0.088703036 -0.0067134623 0)
(0.093077665 -0.0063670238 0)
(0.0972153 -0.0060053832 0)
(0.10110613 -0.0056295893 0)
(0.10474105 -0.0052407208 0)
(0.10811169 -0.0048398816 0)
(0.11121043 -0.0044281969 0)
(0.11403041 -0.0040068093 0)
(0.11656553 -0.003576875 0)
(0.11881047 -0.0031395598 0)
(0.12076072 -0.0026960357 0)
(0.12241251 -0.0022474769 0)
(0.12376288 -0.0017950566 0)
(0.12480967 -0.0013399439 0)
(0.12555147 -0.00088329985 0)
(0.12598765 -0.00042627604 0)
(0.12611836 2.9988739e-05 0)
(0.12594449 0.00048438138 0)
(0.12546768 0.00093580925 0)
(0.12469029 0.0013831834 0)
(0.12361541 0.0018254527 0)
(0.12224679 0.0022615961 0)
(0.12058889 0.0026906207 0)
(0.11864681 0.0031115653 0)
(0.11642628 0.003523503 0)
(0.11393362 0.0039255432 0)
(0.11117577 0.0043168329 0)
(0.1081602 0.0046965579 0)
(0.10489491 0.0050639445 0)
(0.10138841 0.0054182598 0)
(0.09764969 0.0057588123 0)
(0.093688177 0.0060849525 0)
(0.089513722 0.0063960727 0)
(0.085136565 0.0066916071 0)
(0.08056731 0.0069710311 0)
(0.075816895 0.0072338608 0)
(0.070896566 0.0074796522 0)
(0.065817854 0.0077080004 0)
(0.060592542 0.0079185381 0)
(0.055232647 0.0081109348 0)
(0.049750392 0.0082848954 0)
(0.044158186 0.0084401589 0)
(0.038468596 0.0085764972 0)
(0.032694332 0.0086937138 0)
(0.026848224 0.0087916426 0)
(0.0209432 0.008870147 0)
(0.014992271 0.0089291188 0)
(0.0090085085 0.0089684778 0)
(0.003005028 0.0089881705 0)
(-0.003005028 0.0089881705 0)
(-0.0090085085 0.0089684778 0)
(-0.014992271 0.0089291188 0)
(-0.0209432 0.008870147 0)
(-0.026848224 0.0087916426 0)
(-0.032694332 0.0086937138 0)
(-0.038468596 0.0085764972 0)
(-0.044158186 0.0084401589 0)
(-0.049750392 0.0082848954 0)
(-0.055232647 0.0081109348 0)
(-0.060592542 0.0079185381 0)
(-0.065817854 0.0077080004 0)
(-0.070896566 0.0074796522 0)
(-0.075816895 0.0072338608 0)
(-0.08056731 0.0069710311 0)
(-0.085136565 0.0066916071 0)
(-0.089513722 0.0063960727 0)
(-0.093688177 0.0060849525 0)
(-0.09764969 0.0057588123 0)
(-0.10138841 0.0054182598 0)
(-0.10489491 0.0050639445 0)
(-0.1081602 0.0046965579 0)
(-0.11117577 0.0043168329 0)
(-0.11393362 0.0039255432 0)
(-0.11642628 0.003523503 0)
(-0.11864681 0.0031115653 0)
(-0.12058889 0.0026906207 0)
(-0.12224679 0.0022615961 0)
(-0.12361541 0.0018254527 0)
(-0.12469029 0.0013831834 0)
(-0.12546768 0.00093580924 0)
(-0.12594449 0.00048438137 0)
(-0.12611836 2.9988738e-05 0)
(-0.12598765 -0.00042627605 0)
(-0.12555147 -0.00088329986 0)
(-0.12480967 -0.0013399439 0)
(-0.12376288 -0.0017950566 0)
(-0.12241251 -0.0022474769 0)
(-0.12076072 -0.0026960357 0)
(-0.11881047 -0.0031395598 0)
(-0.11656553 -0.003576875 0)
(-0.11403041 -0.0040068093 0)
(-0.11121043 -0.0044281969 0)
(-0.10811169 -0.0048398816 0)
(-0.10474105 -0.0052407208 0)
(-0.10110613 -0.0056295893 0)
(-0.0972153 -0.0060053832 0)
(-0.093077665 -0.0063670238 0)
(-0.088703036 -0.0067134623 0)
(-0.084101921 -0.007043683 0)
(-0.079285492 -0.0073567085 0)
(-0.074265567 -0.007651603 0)
(-0.069054575 -0.0079274769 0)
(-0.063665523 -0.0081834906 0)
(-0.058111966 -0.0084188587 0)
(-0.052407967 -0.0086328535 0)
(-0.046568055 -0.0088248087 0)
(-0.040607186 -0.0089941229 0)
(-0.034540697 -0.0091402625 0)
(-0.02838426 -0.0092627646 0)
(-0.022153832 -0.0093612396 0)
(-0.015865609 -0.0094353733 0)
(-0.009535969 -0.0094849282 0)
(-0.0031814263 -0.0095097455 0)
(0.0031989902 -0.015882695 0)
(0.0095886031 -0.015841224 0)
(0.015953141 -0.015758417 0)
(0.022275978 -0.01563454 0)
(0.028540621 -0.015469989 0)
(0.034730767 -0.01526529 0)
(0.040830352 -0.015021097 0)
(0.046823599 -0.014738184 0)
(0.052695072 -0.014417445 0)
(0.058429722 -0.014059885 0)
(0.064012926 -0.01366662 0)
(0.069430539 -0.013238868 0)
(0.074668925 -0.012777943 0)
(0.079715003 -0.01228525 0)
(0.084556274 -0.011762277 0)
(0.089180862 -0.011210589 0)
(0.093577534 -0.010631821 0)
(0.097735735 -0.010027672 0)
(0.10164561 -0.0093998954 0)
(0.10529801 -0.0087502947 0)
(0.10868454 -0.0080807151 0)
(0.11179756 -0.0073930376 0)
(0.11463017 -0.006689172 0)
(0.11717627 -0.0059710502 0)
(0.11943053 -0.0052406206 0)
(0.12138843 -0.0044998412 0)
(0.1230462 -0.0037506739 0)
(0.1244009 -0.002995079 0)
(0.12545036 -0.0022350091 0)
(0.1261932 -0.0014724039 0)
(0.12662881 -0.00070918529 0)
(0.12675736 5.2747983e-05 0)
(0.12657977 0.00081152817 0)
(0.1260977 0.0015653252 0)
(0.12531358 0.0023123345 0)
(0.1242305 0.0030507993 0)
(0.12285229 0.0037790118 0)
(0.12118344 0.0044953139 0)
(0.11922909 0.0051981011 0)
(0.11699503 0.0058858265 0)
(0.11448765 0.0065570039 0)
(0.11171392 0.0072102098 0)
(0.10868138 0.0078440863 0)
(0.10539809 0.0084573429 0)
(0.10187263 0.0090487574 0)
(0.098114037 0.0096171774 0)
(0.094131799 0.01016152 0)
(0.089935829 0.010680774 0)
(0.085536426 0.011173997 0)
(0.080944251 0.011640315 0)
(0.076170299 0.012078923 0)
(0.071225873 0.012489083 0)
(0.066122553 0.012870121 0)
(0.060872177 0.013221428 0)
(0.05548681 0.013542455 0)
(0.049978721 0.013832711 0)
(0.044360363 0.014091764 0)
(0.038644349 0.014319235 0)
(0.032843429 0.014514799 0)
(0.02697047 0.01467818 0)
(0.02103844 0.014809152 0)
(0.015060384 0.014907536 0)
(0.00904941 0.014973199 0)
(0.0030186674 0.015006052 0)
(-0.0030186674 0.015006052 0)
(-0.00904941 0.014973199 0)
(-0.015060384 0.014907536 0)
(-0.02103844 0.014809152 0)
(-0.02697047 0.01467818 0)
(-0.032843429 0.014514799 0)
(-0.038644349 0.014319235 0)
(-0.044360363 0.014091764 0)
(-0.049978721 0.013832711 0)
(-0.05548681 0.013542455 0)
(-0.060872177 0.013221428 0)
(-0.066122553 0.012870121 0)
(-0.071225873 0.012489083 0)
(-0.076170299 0.012078923 0)
(-0.080944251 0.011640315 0)
(-0.085536426 0.011173997 0)
(-0.089935829 0.010680774 0)
(-0.094131799 0.01016152 0)
(-0.098114037 0.0096171774 0)
(-0.10187263 0.0090487574 0)
(-0.10539809 0.0084573429 0)
(-0.10868138 0.0078440863 0)
(-0.11171392 0.0072102098 0)
(-0.11448765 0.0065570039 0)
(-0.11699503 0.0058858265 0)
(-0.11922909 0.0051981011 0)
(-0.12118344 0.0044953139 0)
(-0.12285229 0.0037790118 0)
(-0.1242305 0.0030507993 0)
(-0.12531358 0.0023123345 0)
(-0.1260977 0.0015653252 0)
(-0.12657977 0.00081152817 0)
(-0.12675736 5.2747981e-05 0)
(-0.12662881 -0.00070918529 0)
(-0.1261932 -0.0014724039 0)
(-0.12545036 -0.0022350091 0)
(-0.1244009 -0.002995079 0)
(-0.1230462 -0.0037506739 0)
(-0.12138843 -0.0044998412 0)
(-0.11943053 -0.0052406206 0)
(-0.11717627 -0.0059710502 0)
(-0.11463017 -0.006689172 0)
(-0.11179756 -0.0073930376 0)
(-0.10868454 -0.0080807151 0)
(-0.10529801 -0.0087502947 0)
(-0.10164561 -0.0093998954 0)
(-0.097735735 -0.010027672 0)
(-0.093577534 -0.010631821 0)
(-0.089180862 -0.011210589 0)
(-0.084556274 -0.011762277 0)
(-0.079715003 -0.01228525 0)
(-0.074668925 -0.012777943 0)
(-0.069430539 -0.013238868 0)
(-0.064012926 -0.01366662 0)
(-0.058429722 -0.014059885 0)
(-0.052695072 -0.014417445 0)
(-0.046823599 -0.014738184 0)
(-0.040830351 -0.015021097 0)
(-0.034730767 -0.01526529 0)
(-0.028540621 -0.015469989 0)
(-0.022275978 -0.01563454 0)
(-0.015953141 -0.015758417 0)
(-0.0095886031 -0.015841224 0)
(-0.0031989901 -0.015882695 0)
(0.0032238174 -0.022297848 0)
(0.0096630036 -0.022239587 0)
(0.016076872 -0.022123253 0)
(0.022448636 -0.02194922 0)
(0.028761646 -0.02171805 0)
(0.034999443 -0.021430481 0)
(0.041145811 -0.021087435 0)
(0.047184829 -0.020690001 0)
(0.053100921 -0.020239437 0)
(0.058878901 -0.019737162 0)
(0.064504021 -0.019184744 0)
(0.069962014 -0.018583898 0)
(0.075239133 -0.017936474 0)
(0.08032219 -0.017244448 0)
(0.085198593 -0.016509916 0)
(0.089856374 -0.015735078 0)
(0.094284225 -0.014922234 0)
(0.098471516 -0.014073773 0)
(0.10240833 -0.013192161 0)
(0.10608547 -0.012279933 0)
(0.10949449 -0.011339683 0)
(0.11262771 -0.010374054 0)
(0.11547822 -0.0093857313 0)
(0.11803987 -0.0083774283 0)
(0.12030734 -0.0073518821 0)
(0.12227608 -0.0063118434 0)
(0.12394236 -0.005260068 0)
(0.12530321 -0.0041993088 0)
(0.12635648 -0.003132308 0)
(0.12710083 -0.0020617893 0)
(0.12753566 -0.00099045065 0)
(0.12766119 7.9043086e-05 0)
(0.12747837 0.0011440686 0)
(0.12698892 0.002202051 0)
(0.12619529 0.0032504637 0)
(0.12510066 0.0042868416 0)
(0.12370891 0.0053087866 0)
(0.12202458 0.0063139716 0)
(0.12005291 0.0073001456 0)
(0.11779974 0.0082651387 0)
(0.11527154 0.0092068663 0)
(0.11247538 0.010123333 0)
(0.10941886 0.011012635 0)
(0.10611013 0.011872964 0)
(0.10255785 0.012702608 0)
(0.098771146 0.013499953 0)
(0.094759596 0.014263485 0)
(0.090533192 0.014991787 0)
(0.086102318 0.015683541 0)
(0.081477718 0.016337528 0)
(0.076670465 0.016952622 0)
(0.071691941 0.017527794 0)
(0.066553802 0.018062103 0)
(0.061267957 0.018554699 0)
(0.055846541 0.019004818 0)
(0.050301892 0.019411777 0)
(0.044646524 0.019774974 0)
(0.038893112 0.020093882 0)
(0.033054462 0.020368049 0)
(0.0271435 0.020597092 0)
(0.021173245 0.020780697 0)
(0.015156794 0.020918616 0)
(0.0091073035 0.021010664 0)
(0.0030379732 0.021056718 0)
(-0.0030379732 0.021056718 0)
(-0.0091073035 0.021010664 0)
(-0.015156794 0.020918616 0)
(-0.021173245 0.020780697 0)
(-0.0271435 0.020597092 0)
(-0.033054462 0.020368049 0)
(-0.038893112 0.020093882 0)
(-0.044646524 0.019774974 0)
(-0.050301892 0.019411777 0)
(-0.055846541 0.019004818 0)
(-0.061267957 0.018554699 0)
(-0.066553802 0.018062103 0)
(-0.071691941 0.017527794 0)
(-0.076670465 0.016952622 0)
(-0.081477718 0.016337528 0)
(-0.086102318 0.015683541 0)
(-0.090533192 0.014991787 0)
(-0.094759596 0.014263485 0)
(-0.098771146 0.013499953 0)
(-0.10255785 0.012702608 0)
(-0.10611013 0.011872964 0)
(-0.10941886 0.011012635 0)
(-0.11247538 0.010123333 0)
(-0.11527154 0.0092068663 0)
(-0.11779974 0.0082651387 0)
(-0.12005291 0.0073001456 0)
(-0.12202458 0.0063139716 0)
(-0.12370891 0.0053087866 0)
(-0.12510066 0.0042868416 0)
(-0.12619529 0.0032504637 0)
(-0.12698892 0.002202051 0)
(-0.12747837 0.0011440686 0)
(-0.12766119 7.9043085e-05 0)
(-0.12753566 -0.00099045065 0)
(-0.12710083 -0.0020617893 0)
(-0.12635648 -0.003132308 0)
(-0.12530321 -0.0041993088 0)
(-0.12394236 -0.005260068 0)
(-0.12227608 -0.0063118434 0)
(-0.12030734 -0.0073518821 0)
(-0.11803987 -0.0083774283 0)
(-0.11547822 -0.0093857313 0)
(-0.11262771 -0.010374054 0)
(-0.10949449 -0.011339683 0)
(-0.10608547 -0.012279933 0)
(-0.10240833 -0.013192161 0)
(-0.098471516 -0.014073773 0)
(-0.094284225 -0.014922234 0)
(-0.089856374 -0.015735078 0)
(-0.085198593 -0.016509916 0)
(-0.08032219 -0.017244448 0)
(-0.075239133 -0.017936474 0)
(-0.069962014 -0.018583898 0)
(-0.064504021 -0.019184744 0)
(-0.058878901 -0.019737162 0)
(-0.053100921 -0.020239437 0)
(-0.047184829 -0.020690001 0)
(-0.041145811 -0.021087435 0)
(-0.034999443 -0.021430481 0)
(-0.028761646 -0.02171805 0)
(-0.022448636 -0.02194922 0)
(-0.016076872 -0.022123253 0)
(-0.0096630036 -0.022239587 0)
(-0.0032238173 -0.022297848 0)
(0.0032562938 -0.02876995 0)
(0.009760327 -0.028694713 0)
(0.016238725 -0.028544481 0)
(0.022674493 -0.028319741 0)
(0.029050773 -0.028021218 0)
(0.035350905 -0.027649872 0)
(0.041558476 -0.027206894 0)
(0.047657374 -0.026693697 0)
(0.05363184 -0.02611191 0)
(0.059466512 -0.025463368 0)
(0.065146476 -0.024750105 0)
(0.070657308 -0.023974339 0)
(0.075985113 -0.023138466 0)
(0.081116567 -0.022245043 0)
(0.086038953 -0.021296779 0)
(0.090740187 -0.020296523 0)
(0.095208857 -0.01924725 0)
(0.099434243 -0.018152047 0)
(0.10340634 -0.017014103 0)
(0.10711589 -0.015836694 0)
(0.11055439 -0.014623173 0)
(0.1137141 -0.013376955 0)
(0.11658806 -0.012101507 0)
(0.11917013 -0.010800335 0)
(0.12145494 -0.0094769726 0)
(0.12343794 -0.0081349721 0)
(0.1251154 -0.006777891 0)
(0.12648436 -0.005409283 0)
(0.12754271 -0.0040326875 0)
(0.12828909 -0.0026516197 0)
(0.12872299 -0.0012695609 0)
(0.12884463 0.00011005044 0)
(0.12865503 0.001483829 0)
(0.12815598 0.0028484504 0)
(0.12734998 0.0042006578 0)
(0.12624029 0.0055372721 0)
(0.12483086 0.0068552 0)
(0.12312634 0.0081514404 0)
(0.12113203 0.0094230914 0)
(0.11885389 0.010667356 0)
(0.11629849 0.011881548 0)
(0.11347298 0.013063097 0)
(0.11038508 0.014209551 0)
(0.10704307 0.015318582 0)
(0.10345569 0.016387988 0)
(0.099632199 0.017415694 0)
(0.095582273 0.018399752 0)
(0.09131602 0.019338342 0)
(0.086843933 0.020229775 0)
(0.082176862 0.021072483 0)
(0.077325989 0.021865025 0)
(0.072302794 0.022606082 0)
(0.067119035 0.023294451 0)
(0.061786716 0.023929044 0)
(0.056318062 0.024508883 0)
(0.050725499 0.025033099 0)
(0.045021626 0.025500921 0)
(0.039219197 0.02591168 0)
(0.033331096 0.026264798 0)
(0.027370319 0.026559789 0)
(0.021349957 0.026796253 0)
(0.015283176 0.026973874 0)
(0.0091831958 0.027092417 0)
(0.0030632811 0.027151728 0)
(-0.0030632811 0.027151728 0)
(-0.0091831958 0.027092417 0)
(-0.015283176 0.026973874 0)
(-0.021349957 0.026796253 0)
(-0.027370319 0.026559789 0)
(-0.033331096 0.026264798 0)
(-0.039219197 0.02591168 0)
(-0.045021626 0.025500921 0)
(-0.050725499 0.025033099 0)
(-0.056318062 0.024508883 0)
(-0.061786716 0.023929044 0)
(-0.067119035 0.023294451 0)
(-0.072302794 0.022606082 0)
(-0.077325989 0.021865025 0)
(-0.082176862 0.021072483 0)
(-0.086843933 0.020229775 0)
(-0.09131602 0.019338342 0)
(-0.095582273 0.018399752 0)
(-0.099632199 0.017415694 0)
(-0.10345569 0.016387988 0)
(-0.10704307 0.015318582 0)
(-0.11038508 0.014209551 0)
(-0.11347298 0.013063096 0)
(-0.11629849 0.011881548 0)
(-0.11885389 0.010667356 0)
(-0.12113203 0.0094230914 0)
(-0.12312634 0.0081514404 0)
(-0.12483086 0.0068552 0)
(-0.12624029 0.0055372721 0)
(-0.12734998 0.0042006578 0)
(-0.12815598 0.0028484504 0)
(-0.12865503 0.001483829 0)
(-0.12884463 0.00011005044 0)
(-0.12872299 -0.0012695609 0)
(-0.12828909 -0.0026516197 0)
(-0.12754271 -0.0040326875 0)
(-0.12648436 -0.005409283 0)
(-0.1251154 -0.006777891 0)
(-0.12343794 -0.0081349721 0)
(-0.12145494 -0.0094769726 0)
(-0.11917013 -0.010800335 0)
(-0.11658806 -0.012101507 0)
(-0.1137141 -0.013376955 0)
(-0.11055439 -0.014623173 0)
(-0.10711589 -0.015836694 0)
(-0.10340634 -0.017014103 0)
(-0.099434243 -0.018152047 0)
(-0.095208857 -0.01924725 0)
(-0.090740187 -0.020296523 0)
(-0.086038953 -0.021296779 0)
(-0.081116567 -0.022245043 0)
(-0.075985113 -0.023138466 0)
(-0.070657308 -0.023974339 0)
(-0.065146476 -0.024750105 0)
(-0.059466512 -0.025463368 0)
(-0.05363184 -0.02611191 0)
(-0.047657374 -0.026693697 0)
(-0.041558476 -0.027206894 0)
(-0.035350905 -0.027649872 0)
(-0.029050773 -0.028021218 0)
(-0.022674493 -0.028319741 0)
(-0.016238725 -0.028544481 0)
(-0.009760327 -0.028694713 0)
(-0.0032562938 -0.02876995 0)
(0.0032968244 -0.035314779 0)
(0.0098817867 -0.035222328 0)
(0.016440719 -0.035037727 0)
(0.022956363 -0.034761574 0)
(0.029411607 -0.034394765 0)
(0.035789537 -0.033938484 0)
(0.042073496 -0.033394199 0)
(0.048247132 -0.032763654 0)
(0.054294459 -0.032048858 0)
(0.060199897 -0.031252074 0)
(0.065948323 -0.030375808 0)
(0.071525118 -0.029422796 0)
(0.076916205 -0.028395986 0)
(0.08210809 -0.027298532 0)
(0.087087896 -0.026133769 0)
(0.091843401 -0.024905205 0)
(0.09636306 -0.023616502 0)
(0.10063604 -0.022271459 0)
(0.10465223 -0.020874 0)
(0.1084023 -0.019428156 0)
(0.11187764 -0.017938047 0)
(0.11507048 -0.016407875 0)
(0.11797381 -0.014841899 0)
(0.12058143 -0.013244428 0)
(0.12288797 -0.011619806 0)
(0.12488887 -0.0099723946 0)
(0.12658037 -0.0083065648 0)
(0.12795956 -0.0066266808 0)
(0.12902432 -0.0049370888 0)
(0.12977336 -0.003242105 0)
(0.13020617 -0.0015460037 0)
(0.13032305 0.00014699433 0)
(0.13012509 0.0018327329 0)
(0.12961413 0.0035071311 0)
(0.12879277 0.0051661927 0)
(0.12766435 0.0068060173 0)
(0.12623293 0.0084228095 0)
(0.12450325 0.010012888 0)
(0.12248074 0.011572694 0)
(0.12017147 0.013098799 0)
(0.11758213 0.014587909 0)
(0.11472001 0.016036875 0)
(0.11159297 0.017442696 0)
(0.1082094 0.018802522 0)
(0.1045782 0.020113657 0)
(0.10070876 0.021373565 0)
(0.0966109 0.022579867 0)
(0.092294862 0.02373034 0)
(0.087771277 0.024822923 0)
(0.083051132 0.025855705 0)
(0.078145738 0.026826932 0)
(0.073066707 0.027734998 0)
(0.067825917 0.02857844 0)
(0.062435493 0.029355939 0)
(0.056907776 0.030066307 0)
(0.051255301 0.030708491 0)
(0.045490772 0.03128156 0)
(0.039627043 0.031784701 0)
(0.033677095 0.032217219 0)
(0.027654017 0.032578526 0)
(0.021570986 0.032868139 0)
(0.015441252 0.033085678 0)
(0.0092781213 0.03323086 0)
(0.0030949362 0.033303498 0)
(-0.0030949362 0.033303498 0)
(-0.0092781213 0.03323086 0)
(-0.015441252 0.033085678 0)
(-0.021570986 0.032868139 0)
(-0.027654017 0.032578526 0)
(-0.033677095 0.032217219 0)
(-0.039627043 0.031784701 0)
(-0.045490772 0.03128156 0)
(-0.051255301 0.030708491 0)
(-0.056907776 0.030066307 0)
(-0.062435493 0.029355939 0)
(-0.067825917 0.02857844 0)
(-0.073066707 0.027734998 0)
(-0.078145738 0.026826932 0)
(-0.083051132 0.025855705 0)
(-0.087771277 0.024822923 0)
(-0.092294862 0.02373034 0)
(-0.0966109 0.022579867 0)
(-0.10070876 0.021373565 0)
(-0.1045782 0.020113657 0)
(-0.1082094 0.018802522 0)
(-0.11159297 0.017442696 0)
(-0.11472001 0.016036875 0)
(-0.11758213 0.014587909 0)
(-0.12017147 0.013098799 0)
(-0.12248074 0.011572694 0)
(-0.12450325 0.010012888 0)
(-0.12623293 0.0084228095 0)
(-0.12766435 0.0068060173 0)
(-0.12879277 0.0051661927 0)
(-0.12961413 0.0035071311 0)
(-0.13012509 0.0018327329 0)
(-0.13032305 0.00014699434 0)
(-0.13020617 -0.0015460037 0)
(-0.12977336 -0.003242105 0)
(-0.12902432 -0.0049370888 0)
(-0.12795956 -0.0066266808 0)
(-0.12658037 -0.0083065648 0)
(-0.12488887 -0.0099723946 0)
(-0.12288797 -0.011619806 0)
(-0.12058143 -0.013244428 0)
(-0.11797381 -0.014841899 0)
(-0.11507048 -0.016407875 0)
(-0.11187764 -0.017938047 0)
(-0.1084023 -0.019428156 0)
(-0.10465223 -0.020874 0)
(-0.10063604 -0.022271459 0)
(-0.09636306 -0.023616502 0)
(-0.091843401 -0.024905205 0)
(-0.087087896 -0.026133769 0)
(-0.08210809 -0.027298532 0)
(-0.076916205 -0.028395986 0)
(-0.071525118 -0.029422796 0)
(-0.065948323 -0.030375808 0)
(-0.060199897 -0.031252074 0)
(-0.054294459 -0.032048858 0)
(-0.048247132 -0.032763654 0)
(-0.042073496 -0.033394199 0)
(-0.035789537 -0.033938484 0)
(-0.029411607 -0.034394765 0)
(-0.022956363 -0.034761574 0)
(-0.016440719 -0.035037727 0)
(-0.0098817867 -0.035222328 0)
(-0.0032968244 -0.035314779 0)
(0.003345836 -0.041948866 0)
(0.010028662 -0.041838911 0)
(0.01668498 -0.04161936 0)
(0.023297218 -0.04129093 0)
(0.029847952 -0.04085469 0)
(0.036319963 -0.040312054 0)
(0.042696298 -0.039664778 0)
(0.04896032 -0.038914945 0)
(0.055095765 -0.038064952 0)
(0.061086789 -0.037117504 0)
(0.066918021 -0.036075591 0)
(0.072574605 -0.034942478 0)
(0.078042242 -0.033721686 0)
(0.083307233 -0.032416973 0)
(0.088356514 -0.03103232 0)
(0.093177688 -0.029571906 0)
(0.097759057 -0.028040097 0)
(0.10208965 -0.02644142 0)
(0.10615923 -0.024780547 0)
(0.10995835 -0.023062277 0)
(0.11347834 -0.021291518 0)
(0.11671133 -0.019473266 0)
(0.11965025 -0.017612592 0)
(0.12228888 -0.01571462 0)
(0.12462181 -0.013784515 0)
(0.12664444 -0.011827464 0)
(0.12835305 -0.0098486623 0)
(0.12974472 -0.0078532971 0)
(0.13081736 -0.0058465337 0)
(0.13156971 -0.0038335008 0)
(0.13200133 -0.0018192769 0)
(0.13211258 0.00019112376 0)
(0.1319046 0.0021927638 0)
(0.13137935 0.0041807957 0)
(0.1305395 0.0061504741 0)
(0.12938852 0.0080971675 0)
(0.12793058 0.01001637 0)
(0.12617054 0.011903713 0)
(0.12411398 0.013754972 0)
(0.1217671 0.015566079 0)
(0.11913675 0.017333131 0)
(0.11623037 0.019052395 0)
(0.11305599 0.020720313 0)
(0.10962216 0.022333512 0)
(0.10593794 0.023888804 0)
(0.1020129 0.025383187 0)
(0.097857013 0.026813852 0)
(0.093480707 0.028178175 0)
(0.088894773 0.029473725 0)
(0.084110361 0.030698251 0)
(0.079138942 0.03184969 0)
(0.073992283 0.032926151 0)
(0.068682414 0.03392592 0)
(0.063221604 0.034847448 0)
(0.057622335 0.035689345 0)
(0.051897275 0.036450378 0)
(0.046059257 0.037129459 0)
(0.040121256 0.037725642 0)
(0.03409637 0.038238114 0)
(0.027997798 0.038666191 0)
(0.021838827 0.039009313 0)
(0.015632811 0.039267036 0)
(0.0093931528 0.039439033 0)
(0.0031332961 0.039525085 0)
(-0.0031332961 0.039525085 0)
(-0.0093931528 0.039439033 0)
(-0.015632811 0.039267036 0)
(-0.021838827 0.039009313 0)
(-0.027997798 0.038666191 0)
(-0.03409637 0.038238114 0)
(-0.040121256 0.037725642 0)
(-0.046059257 0.037129459 0)
(-0.051897275 0.036450378 0)
(-0.057622335 0.035689345 0)
(-0.063221604 0.034847448 0)
(-0.068682414 0.03392592 0)
(-0.073992283 0.032926151 0)
(-0.079138942 0.03184969 0)
(-0.084110361 0.030698251 0)
(-0.088894773 0.029473725 0)
(-0.093480707 0.028178175 0)
(-0.097857013 0.026813852 0)
(-0.1020129 0.025383187 0)
(-0.10593794 0.023888804 0)
(-0.10962216 0.022333512 0)
(-0.11305599 0.020720313 0)
(-0.11623037 0.019052395 0)
(-0.11913675 0.017333131 0)
(-0.1217671 0.015566079 0)
(-0.12411398 0.013754972 0)
(-0.12617054 0.011903713 0)
(-0.12793058 0.01001637 0)
(-0.12938852 0.0080971675 0)
(-0.1305395 0.0061504741 0)
(-0.13137935 0.0041807957 0)
(-0.1319046 0.0021927638 0)
(-0.13211258 0.00019112376 0)
(-0.13200133 -0.0018192769 0)
(-0.13156971 -0.0038335008 0)
(-0.13081736 -0.0058465337 0)
(-0.12974472 -0.0078532971 0)
(-0.12835305 -0.0098486623 0)
(-0.12664444 -0.011827464 0)
(-0.12462181 -0.013784515 0)
(-0.12228888 -0.01571462 0)
(-0.11965025 -0.017612592 0)
(-0.11671133 -0.019473266 0)
(-0.11347834 -0.021291518 0)
(-0.10995835 -0.023062277 0)
(-0.10615923 -0.024780547 0)
(-0.10208965 -0.02644142 0)
(-0.097759057 -0.028040097 0)
(-0.093177688 -0.029571906 0)
(-0.088356514 -0.03103232 0)
(-0.083307233 -0.032416973 0)
(-0.078042242 -0.033721686 0)
(-0.072574605 -0.034942478 0)
(-0.066918021 -0.036075591 0)
(-0.061086789 -0.037117504 0)
(-0.055095765 -0.038064952 0)
(-0.04896032 -0.038914945 0)
(-0.042696298 -0.039664778 0)
(-0.036319963 -0.040312054 0)
(-0.029847952 -0.04085469 0)
(-0.023297218 -0.04129093 0)
(-0.01668498 -0.04161936 0)
(-0.010028662 -0.041838911 0)
(-0.003345836 -0.041948866 0)
(0.0034037833 -0.048689594 0)
(0.010202315 -0.048561789 0)
(0.016973775 -0.048306597 0)
(0.023700218 -0.047924857 0)
(0.030363852 -0.047417818 0)
(0.0369471 -0.046787135 0)
(0.043432658 -0.046034857 0)
(0.049803551 -0.045163416 0)
(0.056043188 -0.044175617 0)
(0.062135415 -0.043074613 0)
(0.068064566 -0.041863898 0)
(0.073815504 -0.040547282 0)
(0.079373673 -0.039128872 0)
(0.084725131 -0.037613052 0)
(0.089856591 -0.036004462 0)
(0.094755453 -0.034307976 0)
(0.099409835 -0.032528676 0)
(0.1038086 -0.030671837 0)
(0.10794138 -0.028742899 0)
(0.11179858 -0.026747447 0)
(0.11537144 -0.02469119 0)
(0.118652 -0.022579941 0)
(0.12163312 -0.020419593 0)
(0.12430852 -0.018216105 0)
(0.12667275 -0.015975477 0)
(0.12872123 -0.013703738 0)
(0.13045019 -0.011406922 0)
(0.13185675 -0.0090910538 0)
(0.13293884 -0.0067621314 0)
(0.13369525 -0.0044261102 0)
(0.13412559 -0.0020888861 0)
(0.13423029 0.00024371975 0)
(0.13401061 0.0025659764 0)
(0.13346856 0.0048722578 0)
(0.13260698 0.0071570572 0)
(0.13142942 0.009415001 0)
(0.1299402 0.011640863 0)
(0.12814434 0.013829574 0)
(0.12604757 0.01597624 0)
(0.12365627 0.018076145 0)
(0.12097746 0.020124766 0)
(0.11801877 0.02211778 0)
(0.11478841 0.024051073 0)
(0.11129512 0.025920742 0)
(0.10754819 0.027723102 0)
(0.10355735 0.02945469 0)
(0.099332807 0.031112262 0)
(0.094885168 0.032692799 0)
(0.090225428 0.034193498 0)
(0.08536493 0.035611775 0)
(0.080315337 0.036945258 0)
(0.0750886 0.038191782 0)
(0.069696928 0.039349383 0)
(0.064152763 0.040416289 0)
(0.058468752 0.041390915 0)
(0.052657723 0.042271855 0)
(0.04673266 0.04305787 0)
(0.040706685 0.043747884 0)
(0.034593032 0.044340976 0)
(0.028405037 0.044836371 0)
(0.02215611 0.045233433 0)
(0.015859729 0.045531661 0)
(0.009529419 0.045730684 0)
(0.0031787372 0.045830256 0)
(-0.0031787372 0.045830256 0)
(-0.009529419 0.045730684 0)
(-0.01585973 0.045531661 0)
(-0.02215611 0.045233433 0)
(-0.028405037 0.044836371 0)
(-0.034593032 0.044340976 0)
(-0.040706685 0.043747884 0)
(-0.04673266 0.04305787 0)
(-0.052657723 0.042271855 0)
(-0.058468752 0.041390915 0)
(-0.064152763 0.040416289 0)
(-0.069696928 0.039349383 0)
(-0.0750886 0.038191782 0)
(-0.080315337 0.036945258 0)
(-0.08536493 0.035611775 0)
(-0.090225428 0.034193498 0)
(-0.094885168 0.032692799 0)
(-0.099332807 0.031112262 0)
(-0.10355735 0.029454689 0)
(-0.10754819 0.027723102 0)
(-0.11129512 0.025920742 0)
(-0.11478841 0.024051073 0)
(-0.11801877 0.02211778 0)
(-0.12097746 0.020124766 0)
(-0.12365627 0.018076145 0)
(-0.12604757 0.01597624 0)
(-0.12814434 0.013829574 0)
(-0.1299402 0.011640863 0)
(-0.13142942 0.009415001 0)
(-0.13260698 0.0071570572 0)
(-0.13346856 0.0048722578 0)
(-0.13401061 0.0025659764 0)
(-0.13423029 0.00024371974 0)
(-0.13412559 -0.0020888861 0)
(-0.13369525 -0.0044261102 0)
(-0.13293884 -0.0067621314 0)
(-0.13185675 -0.0090910538 0)
(-0.13045019 -0.011406922 0)
(-0.12872123 -0.013703738 0)
(-0.12667275 -0.015975477 0)
(-0.12430852 -0.018216105 0)
(-0.12163312 -0.020419593 0)
(-0.118652 -0.022579941 0)
(-0.11537144 -0.02469119 0)
(-0.11179858 -0.026747447 0)
(-0.10794138 -0.028742899 0)
(-0.1038086 -0.030671837 0)
(-0.099409835 -0.032528676 0)