/*--------------------------------*- C++ -*----------------------------------*\
| =========                 |                                                 |
| \\      /  F ield         | OpenFOAM: The Open Source CFD Toolbox           |
|  \\    /   O peration     | Version:  2106                                  |
|   \\  /    A nd           | Website:  www.openfoam.com                      |
|    \\/     M anipulation  |                                                 |
\*---------------------------------------------------------------------------*/
FoamFile
{
    version     2.0;
    format      ascii;
    arch        "LSB;label=32;scalar=64";
    class       volScalarField;
    location    "0.265";
    object      p_rgh;
}
// * * * * * * * * * * * * * * * * * * * * * * * * * * * * * * * * * * * * * //

dimensions      [1 -1 -2 0 0 0 0];

internalField   nonuniform List<scalar> 
32768
(
173.8478
173.88187
173.94034
174.0118
174.06853
174.11182
174.13282
174.13032
174.10431
174.05546
173.98532
173.89484
173.78491
173.66036
173.5087
173.36973
173.17063
173.0103
172.80682
172.58273
172.38664
172.13784
171.88156
171.63687
171.36611
171.07425
170.77655
170.47812
170.15568
169.82
169.47075
169.11638
168.75714
168.37345
167.97577
167.5763
167.17318
166.7504
166.32773
165.89079
165.43356
164.99207
164.54603
164.08553
163.61461
163.13559
162.67025
162.20123
161.71699
161.23632
160.75568
160.27457
159.79236
159.29969
158.80918
158.3348
157.86034
157.36816
156.87648
156.39979
155.91825
155.43707
154.9573
154.47487
154.01501
153.55389
153.0594
152.57557
152.11724
151.65516
151.19686
150.73641
150.25218
149.77837
149.33714
148.88489
148.40369
147.93388
147.47182
147.00103
146.54433
146.09825
145.62128
145.1404
144.68382
144.20951
143.73461
143.2811
142.80228
142.31885
141.86612
141.39753
140.90445
140.43165
139.9617
139.46802
138.97109
138.47929
138.00201
137.5264
137.01751
136.51026
136.02805
135.51706
134.99117
134.51128
134.01939
133.48094
132.95874
132.45712
131.93703
131.41044
130.8906
130.37235
129.85493
129.32511
128.78365
128.25264
127.73992
127.2118
126.65905
126.13088
125.61732
125.05986
124.49857
123.98927
123.45682
122.88428
122.36086
121.85448
121.28641
120.71357
120.18683
119.64195
119.07146
118.52618
117.98855
117.43656
116.88651
116.34398
115.79237
115.22222
114.66963
114.1422
113.58299
113.00513
112.47128
111.94703
111.37422
110.79451
110.26161
109.73458
109.1608
108.58385
108.05832
107.524
106.93978
106.37885
105.86643
105.32342
104.74356
104.20161
103.69256
103.14772
102.56931
102.02041
101.49479
100.94367
100.3753
99.830636
99.301175
98.761669
98.219926
97.68632
97.155885
96.60672
96.071188
95.537167
95.003072
94.465112
93.945525
93.436899
92.904166
92.384159
91.8522
91.335734
90.809097
90.263499
89.743937
89.241441
88.755935
88.231319
87.745624
87.278713
86.812748
86.328916
85.842028
85.400673
84.956119
84.529248
84.121946
83.749921
83.403831
83.079388
82.78851
82.552518
82.330702
82.15924
82.091748
82.063866
82.164883
82.404926
82.729314
83.26041
83.96525
84.770896
85.898514
87.284872
89.037366
91.254476
93.880055
97.14201
101.05797
105.76741
111.42105
118.04801
126.06894
135.16973
145.88657
158.24298
172.08247
187.82397
205.24972
224.12736
244.18132
264.93216
284.83481
302.4166
315.30644
320.97383
325.51621
329.66248
329.64179
329.39988
330.18695
325.34093
316.95547
299.41173
269.26073
239.13107
228.46186
235.04556
265.28225
315.14719
363.24221
380.21277
173.81937
173.85199
173.91103
173.9828
174.03876
174.08296
174.10354
174.10105
174.07501
174.02521
173.95406
173.86191
173.751
173.62477
173.47516
173.3291
173.13723
172.9713
172.765
172.54994
172.34221
172.09205
171.85059
171.59648
171.32057
171.03938
170.74214
170.43445
170.11393
169.78282
169.43187
169.07591
168.71373
168.32859
167.93677
167.53719
167.1263
166.70372
166.28429
165.84513
165.39022
164.947
164.49557
164.03559
163.56688
163.09497
162.62353
162.14264
161.67185
161.19663
160.7028
160.22145
159.74817
159.25494
158.76294
158.28674
157.80928
157.32159
156.83546
156.35236
155.86869
155.39508
154.9131
154.43082
153.97123
153.50044
153.0152
152.5481
152.07632
151.59958
151.15452
150.69944
150.2174
149.74871
149.29533
148.83003
148.36569
147.91133
147.43911
146.95748
146.50609
146.05706
145.58084
145.11476
144.65058
144.16523
143.70562
143.24711
142.7578
142.29298
141.83834
141.35133
140.86807
140.40554
139.92507
139.43155
138.94236
138.45239
137.96894
137.47676
136.97618
136.49477
135.99856
135.4667
134.96108
134.48587
133.96959
133.44222
132.93959
132.4257
131.89805
131.37542
130.85299
130.33749
129.82215
129.28604
128.74521
128.22025
127.70301
127.16362
126.62183
126.11064
125.57992
125.01387
124.4791
123.9623
123.40089
122.84875
122.34524
121.80984
121.23401
120.69187
120.1632
119.59691
119.03192
118.49436
117.94962
117.40065
116.85777
116.31135
115.75279
115.18799
114.64433
114.10138
113.52764
112.96874
112.44732
111.90095
111.32106
110.77132
110.24707
109.68982
109.10749
108.56228
108.0376
107.47582
106.89924
106.35734
105.82688
105.27025
104.71195
104.1835
103.65601
103.10133
102.53523
101.99349
101.45802
100.90733
100.34596
99.797017
99.266694
98.730492
98.18752
97.648099
97.12095
96.574676
96.040751
95.504233
94.970714
94.435043
93.90984
93.401777
92.874493
92.358351
91.81814
91.305515
90.774503
90.236112
89.704787
89.194894
88.713373
88.202977
87.71911
87.228701
86.765873
86.288173
85.804291
85.35639
84.908439
84.485528
84.070073
83.687792
83.344354
83.014555
82.712565
82.444747
82.218785
82.041693
81.938294
81.918588
81.980891
82.174568
82.479847
82.934247
83.580595
84.418811
85.481965
86.808476
88.487591
90.602265
93.0752
96.184936
99.900717
104.42414
109.89952
116.20152
123.9514
132.65082
142.95134
154.79455
168.00707
183.18358
199.78234
217.80811
236.97755
256.85452
276.34228
294.61107
310.83268
322.65567
329.34601
331.65963
330.51666
330.41587
333.05404
329.38701
316.72272
295.53436
263.34707
227.88247
209.14726
214.2818
242.60985
286.31183
335.04318
351.33261
173.7515
173.78405
173.84389
173.9154
173.97102
174.01444
174.03402
174.03018
174.00325
173.95296
173.88258
173.78973
173.68225
173.55321
173.41155
173.25696
173.08023
172.90535
172.70266
172.49422
172.27928
172.03706
171.8007
171.53445
171.2695
170.98675
170.68661
170.38132
170.06449
169.72506
169.37769
169.02819
168.65477
168.26891
167.88431
167.48108
167.06523
166.64754
166.22403
165.77853
165.33082
164.88889
164.43467
163.96426
163.49883
163.03868
162.55061
162.07677
161.61885
161.1225
160.62813
160.16329
159.68296
159.18444
158.70275
158.22539
157.73707
157.25304
156.77143
156.28561
155.811
155.33465
154.84257
154.37453
153.91421
153.4249
152.95288
152.49666
152.01159
151.54785
151.10923
150.63173
150.15297
149.70037
149.237
148.77335
148.32541
147.86282
147.37801
146.91144
146.46672
145.99647
145.52283
145.07262
144.59086
144.1159
143.67627
143.19212
142.70874
142.26664
141.78743
141.29125
140.83326
140.36655
139.87227
139.38778
138.9031
138.41839
137.93306
137.42314
136.93639
136.47116
135.94087
135.40728
134.94806
134.45447
133.90489
133.40159
132.91186
132.38038
131.85693
131.34148
130.81471
130.30179
129.77997
129.23479
128.70272
128.19055
127.66393
127.11499
126.59332
126.08324
125.5237
124.97093
124.46138
123.91475
123.34802
122.83779
122.32017
121.74077
121.18737
120.67669
120.11464
119.54383
119.01479
118.46294
117.89823
117.36625
116.82843
116.26265
115.70533
115.16865
114.61918
114.04577
113.4865
112.95951
112.41693
111.84054
111.282
110.75706
110.21493
109.6333
109.07248
108.55725
108.00228
107.40488
106.86783
106.36576
105.78955
105.20244
104.6898
104.17758
103.60334
103.03626
102.51577
101.97882
101.41099
100.86182
100.3272
99.775328
99.225207
98.694776
98.166597
97.620229
97.074155
96.534452
96.012247
95.47285
94.933526
94.402975
93.88736
93.36027
92.82715
92.31825
91.792415
91.262619
90.719461
90.21366
89.696312
89.174607
88.649875
88.155011
87.685152
87.188215
86.706276
86.216115
85.768421
85.297632
84.836457
84.41851
84.006626
83.625183
83.240505
82.892626
82.59414
82.308631
82.068138
81.872822
81.723254
81.684237
81.6924
81.831536
82.094667
82.454021
83.019181
83.748452
84.659769
85.867953
87.389942
89.257768
91.566024
94.390698
97.74725
101.83286
106.7948
112.67656
119.59184
127.64455
137.07913
147.85446
159.98494
173.791
188.9092
205.23109
222.56163
240.5785
258.46925
275.40088
290.27653
301.98594
310.6205
318.79016
325.42433
331.51572
330.2785
321.69494
307.38395
282.3691
241.91967
197.48421
169.95899
168.65724
197.56374
244.56991
295.7007
310.84399
173.64986
173.68216
173.74237
173.81387
173.86904
173.91165
173.92997
173.92471
173.89591
173.84377
173.77132
173.67662
173.56714
173.43532
173.29544
173.1344
172.96402
172.78277
172.58223
172.37899
172.15724
171.91743
171.68803
171.40835
171.15798
170.86407
170.57354
170.26137
169.94493
169.60299
169.26254
168.90596
168.52876
168.1454
167.76003
167.35583
166.93581
166.51722
166.08968
165.6456
165.19958
164.75426
164.2956
163.82
163.36411
162.90234
162.4058
161.93931
161.47636
160.9766
160.49002
160.02296
159.53891
159.04872
158.56864
158.08239
157.59532
157.1172
156.63513
156.15214
155.67803
155.19421
154.70932
154.25042
153.77594
153.28315
152.83292
152.37464
151.87868
151.42801
150.9858
150.49805
150.03278
149.59011
149.11701
148.6478
148.21299
147.75668
147.2636
146.8009
146.36117
145.87832
145.41499
144.97589
144.48142
144.016
143.57812
143.07717
142.60974
142.17835
141.68354
141.19145
140.74863
140.27557
139.7768
139.29966
138.81823
138.33135
137.83795
137.32826
136.85625
136.38511
135.84468
135.32914
134.87561
134.36034
133.81336
133.32554
132.82894
132.29852
131.77892
131.25561
130.73703
130.2273
129.69137
129.15044
128.62966
128.12155
127.58767
127.02952
126.51779
126.00418
125.42852
124.89534
124.40459
123.83248
123.25945
122.77496
122.25045
121.64542
121.1096
120.61761
120.03811
119.46169
118.94492
118.39318
117.82631
117.29146
116.75127
116.18907
115.63119
115.10094
114.56221
113.97323
113.39872
112.89777
112.36107
111.75144
111.20532
110.71981
110.15208
109.53918
109.00409
108.50549
107.92546
107.32081
106.80028
106.29956
105.72659
105.14712
104.62907
104.10961
103.54173
102.97557
102.44125
101.91242
101.36405
100.80402
100.24961
99.720051
99.183379
98.626463
98.083808
97.568994
97.029817
96.464914
95.936629
95.423569
94.888484
94.335086
93.824146
93.309595
92.784426
92.247071
91.724037
91.202087
90.668428
90.143369
89.60807
89.122628
88.606686
88.10731
87.589459
87.104815
86.645258
86.145563
85.676549
85.201229
84.765994
84.321108
83.879933
83.497071
83.125406
82.759117
82.406202
82.092694
81.853648
81.619736
81.427004
81.337454
81.312389
81.372915
81.541518
81.82398
82.260332
82.851515
83.623739
84.638956
85.954074
87.545677
89.507563
92.009245
94.90381
98.505038
102.8691
107.98764
114.2397
121.28811
129.68641
139.35927
150.0726
162.37025
175.88983
190.5661
206.14116
222.21502
238.65696
254.21818
268.86793
281.7398
293.47325
304.288
311.95336
317.07701
318.62642
314.65655
297.45722
264.30078
222.33613
177.22005
147.89018
140.9468
164.58252
212.11886
261.3825
282.34897
173.51327
173.54554
173.60608
173.67732
173.73176
173.77301
173.78953
173.78209
173.75087
173.69638
173.62179
173.52541
173.4149
173.28206
173.14358
172.98177
172.8143
172.63367
172.43469
172.23523
172.01252
171.77633
171.54984
171.26286
171.02962
170.71871
170.44527
170.11811
169.81494
169.46063
169.13166
168.76056
168.39101
168.00585
167.61232
167.2116
166.78745
166.36745
165.93706
165.49526
165.04464
164.59667
164.1364
163.65951
163.20619
162.73846
162.24625
161.77978
161.30502
160.81427
160.33614
159.85768
159.3725
158.89201
158.4085
157.91941
157.43827
156.96009
156.48047
156.00204
155.51922
155.03544
154.56337
154.10357
153.62229
153.1366
152.69103
152.22568
151.74139
151.29639
150.83518
150.35373
149.90685
149.4597
148.98295
148.51738
148.08055
147.62168
147.13729
146.68677
146.23606
145.74159
145.29697
144.86022
144.3569
143.9026
143.46224
142.95865
142.49873
142.05967
141.56796
141.09136
140.63883
140.15684
139.67411
139.19657
138.70636
138.23272
137.73525
137.21234
136.75308
136.2832
135.73544
135.2346
134.78078
134.24777
133.70632
133.22491
132.72305
132.2013
131.68221
131.14647
130.63773
130.13153
129.58055
129.04261
128.53783
128.0304
127.48032
126.92282
126.42396
125.90107
125.31848
124.79576
124.3038
123.73189
123.16959
122.68202
122.13699
121.53869
121.02153
120.50946
119.9271
119.37811
118.84972
118.28022
117.73701
117.20882
116.6442
116.08163
115.54097
115.0057
114.46064
113.87704
113.30592
112.80251
112.26166
111.65738
111.11107
110.6188
110.0621
109.44964
108.90351
108.41649
107.83357
107.2145
106.7172
106.2146
105.60169
105.04569
104.57203
104.02159
103.41773
102.88498
102.37701
101.81541
101.25349
100.73379
100.18611
99.619964
99.085666
98.55067
97.995509
97.454535
96.925612
96.395901
95.870302
95.321931
94.788358
94.266305
93.746125
93.212621
92.696245
92.167597
91.636281
91.119283
90.586828
90.052914
89.522392
89.012333
88.492068
88.011404
87.504252
86.989515
86.490793
86.028661
85.5764
85.088742
84.628773
84.187976
83.759313
83.326523
82.92187
82.552666
82.203899
81.837611
81.535216
81.271728
81.047086
80.908087
80.787537
80.773029
80.856812
81.032953
81.346285
81.76395
82.350009
83.10996
84.119925
85.350279
86.958077
88.902443
91.363234
94.391589
97.901334
102.26756
107.5743
113.6299
120.85109
129.09919
138.59005
149.27281
161.14425
174.23573
188.15977
202.78447
217.91205
232.03143
246.33511
259.02651
270.78787
280.95273
288.61582
294.54561
296.84769
292.68972
277.99102
251.87581
214.43064
172.93029
143.5671
137.118
157.22766
203.93995
253.33633
277.75408
173.34202
173.3742
173.43505
173.50583
173.55929
173.59872
173.61289
173.60269
173.56838
173.511
173.43353
173.33545
173.22292
173.08997
172.95087
172.78912
172.62405
172.44276
172.24711
172.0482
171.82592
171.59509
171.36383
171.08378
170.84975
170.53519
170.26805
169.93352
169.63518
169.27539
168.95151
168.56544
168.20901
167.81437
167.41924
167.01632
166.59049
166.16722
165.73107
165.29315
164.83662
164.38523
163.92373
163.44998
162.99344
162.51595
162.03349
161.56642
161.07958
160.59988
160.12712
159.63689
159.15272
158.67694
158.19318
157.70692
157.22693
156.74479
156.27023
155.7937
155.30469
154.8278
154.36489
153.89884
153.41247
152.94039
152.50082
152.02205
151.54954
151.11678
150.64092
150.15948
149.73168
149.29188
148.80141
148.33604
147.90921
147.44132
146.96042
146.53457
146.07096
145.55948
145.1352
144.69649
144.18242
143.74435
143.30387
142.80118
142.34539
141.89573
141.41713
140.95326
140.48291
140.00236
139.5407
139.05389
138.54515
138.09033
137.60752
137.06617
136.59816
136.14511
135.60637
135.0921
134.63742
134.11817
133.5722
133.07994
132.58755
132.07309
131.54238
131.01033
130.50677
129.99099
129.45283
128.91373
128.39499
127.90867
127.35563
126.76694
126.28315
125.781
125.1884
124.66347
124.17886
123.60993
123.0389
122.53854
122.00112
121.42131
120.89535
120.36399
119.80524
119.27005
118.70681
118.14063
117.62103
117.07905
116.51352
115.96425
115.41696
114.88318
114.34047
113.746
113.18838
112.69032
112.12274
111.53403
111.00947
110.4795
109.92459
109.34627
108.7842
108.27391
107.71331
107.12416
106.60918
106.08046
105.48536
104.93486
104.43659
103.89853
103.3194
102.76569
102.25048
101.71046
101.14692
100.61761
100.07601
99.519739
98.985705
98.43551
97.877974
97.348492
96.792703
96.254203
95.767863
95.23527
94.662286
94.146117
93.653245
93.108903
92.577183
92.067097
91.53636
91.00467
90.487867
89.97595
89.433754
88.905428
88.371076
87.880415
87.373164
86.854082
86.35736
85.860995
85.40516
84.935641
84.482257
84.012541
83.563814
83.159328
82.733346
82.306992
81.921369
81.580303
81.242432
80.879685
80.57735
80.353357
80.184403
80.0661
80.022266
80.095977
80.275274
80.537992
80.897673
81.455896
82.169505
83.091873
84.239475
85.591722
87.374134
89.648353
92.223039
95.548026
99.519974
104.31335
110.10936
116.72762
124.55148
133.44339
143.41398
154.81625
167.25214
181.00977
195.10919
209.24123
222.94092
235.64919
247.37722
257.32398
265.52713
271.67439
273.59617
270.25212
258.1436
237.74009
210.01656
176.87624
153.6263
153.8051
178.34798
227.5083
273.72362
300.13751
173.13645
173.16841
173.22959
173.29949
173.35162
173.38868
173.39987
173.38617
173.34804
173.28707
173.20621
173.10593
172.99134
172.85849
172.71841
172.55809
172.39531
172.214
172.02362
171.82389
171.60487
171.3804
171.14121
170.87949
170.62703
170.33007
170.04689
169.72887
169.41155
169.07052
168.72465
168.35018
167.98978
167.59002
167.18982
166.78455
166.36109
165.93052
165.49138
165.04928
164.59131
164.13518
163.67195
163.20364
162.73944
162.25577
161.78423
161.31357
160.81858
160.34887
159.87594
159.38153
158.90126
158.42108
157.9419
157.46472
156.97865
156.49533
156.0237
155.54289
155.06255
154.59418
154.1237
153.65602
153.17393
152.70762
152.272
151.79065
151.32646
150.89493
150.41884
149.94732
149.51722
149.08005
148.60429
148.13567
147.70081
147.23942
146.76474
146.3414
145.88046
145.37261
144.94439
144.49474
143.99167
143.56171
143.11393
142.62558
142.17107
141.70532
141.24473
140.78625
140.30115
139.83014
139.37964
138.88461
138.37645
137.93015
137.44355
136.90882
136.43997
135.97559
135.44478
134.92941
134.46147
133.96236
133.43052
132.91685
132.43035
131.92869
131.3688
130.84563
130.36706
129.82751
129.29176
128.7774
128.24925
127.74568
127.1965
126.6192
126.12483
125.61939
125.0434
124.51295
124.02702
123.47936
122.90139
122.37541
121.83868
121.28167
120.75004
120.19608
119.66025
119.14002
118.55168
117.98908
117.48229
116.91938
116.35156
115.82871
115.27287
114.72741
114.21035
113.61147
113.03364
112.5566
111.99103
111.38047
110.85345
110.33476
109.78653
109.20113
108.64687
108.14354
107.56534
106.99155
106.50064
105.93514
105.32781
104.82263
104.30695
103.71729
103.18002
102.67532
102.11821
101.55424
101.02739
100.4976
99.934048
99.388295
98.865299
98.309734
97.761639
97.233845
96.673631
96.116933
95.618486
95.097764
94.552447
94.011233
93.499751
92.99444
92.461299
91.923426
91.398145
90.910165
90.358908
89.837482
89.34625
88.80606
88.244811
87.719194
87.23358
86.685338
86.187141
85.706182
85.249703
84.75505
84.264789
83.834471
83.362904
82.897158
82.475157
82.060608
81.62281
81.21333
80.880626
80.495431
80.111759
79.82054
79.504979
79.253228
79.064034
78.949244
78.905254
78.899493
79.003926
79.215677
79.487046
79.911646
80.58154
81.510431
82.750072
84.278998
86.088
88.522759
91.243142
94.718246
98.905135
103.93767
109.93477
116.97581
124.81509
133.59571
143.8057
155.4708
168.3019
181.37763
195.32044
208.63285
221.0679
232.66
241.9599
248.69821
252.43425
251.73217
245.63396
234.31854
218.03189
200.68794
194.08677
203.53564
233.30452
279.03383
318.04858
337.7248
172.89704
172.92834
172.98989
173.0583
173.10875
173.14278
173.15028
173.13224
173.08947
173.02414
172.93931
172.83642
172.71972
172.58709
172.44644
172.28834
172.12787
171.94775
171.76292
171.56398
171.34887
171.13043
170.88367
170.64044
170.36722
170.09336
169.78739
169.49046
169.14941
168.82867
168.46148
168.09742
167.72259
167.33315
166.91924
166.51279
166.08838
165.64691
165.21215
164.76113
164.30245
163.8448
163.37302
162.90912
162.43766
161.95257
161.48628
161.01045
160.5175
160.04619
159.57362
159.08282
158.60294
158.12377
157.64378
157.17154
156.68617
156.20308
155.73289
155.25037
154.77856
154.31442
153.83879
153.37038
152.89064
152.43696
152.00311
151.51451
151.06192
150.63399
150.15484
149.69607
149.2687
148.82089
148.35517
147.90671
147.45944
146.99142
146.53585
146.10743
145.63732
145.14926
144.72546
144.25764
143.76621
143.34298
142.88595
142.41479
141.956
141.48331
141.04371
140.57924
140.09071
139.63192
139.18204
138.6789
138.17354
137.74105
137.25455
136.71448
136.24216
135.77991
135.25177
134.73396
134.26635
133.77103
133.24583
132.72744
132.23798
131.74826
131.18305
130.65191
130.17725
129.64944
129.11024
128.57622
128.07058
127.57329
126.98744
126.43353
125.9652
125.42089
124.85129
124.33523
123.82657
123.28817
122.72834
122.20301
121.66359
121.11106
120.57199
120.01257
119.49219
118.95607
118.36657
117.83183
117.30338
116.73042
116.17986
115.63869
115.08385
114.56268
114.03502
113.44115
112.87933
112.37552
111.81706
111.23126
110.66441
110.1328
109.62543
109.0397
108.46716
107.97079
107.41901
106.84337
106.31308
105.76304
105.19484
104.65983
104.12585
103.55796
103.00524
102.5024
101.9786
101.3956
100.86158
100.35412
99.763363
99.215476
98.712078
98.137994
97.619714
97.106971
96.513004
95.977131
95.492316
94.917369
94.364239
93.884138
93.363779
92.803509
92.29688
91.800583
91.230732
90.724488
90.223843
89.6662
89.157144
88.65579
88.115136
87.583146
87.069581
86.490514
85.978491
85.522267
85.049463
84.572821
84.076003
83.593224
83.121046
82.657017
82.163704
81.689177
81.263396
80.823234
80.394304
79.991631
79.622117
79.33494
78.978688
78.60993
78.357506
78.229831
78.067333
77.852617
77.707928
77.630494
77.576744
77.596281
77.63451
77.551749
77.782392
78.138422
78.65473
79.605505
80.872592
82.700583
85.127461
88.249533
92.328015
97.519209
104.50852
113.30566
123.37498
134.0146
145.10755
156.63674
168.10533
180.88762
193.87568
206.26757
217.31434
226.53581
233.63668
237.88835
239.76591
239.00318
237.1762
237.06818
243.94834
262.70023
295.21816
335.76626
368.0812
384.63859
172.62465
172.65436
172.71632
172.78222
172.83063
172.86081
172.86377
172.8404
172.79204
172.7215
172.63213
172.52625
172.40749
172.27532
172.13477
171.9802
171.82173
171.64568
171.46541
171.26971
171.05832
170.84536
170.59253
170.36979
170.07297
169.82487
169.49581
169.21827
168.85712
168.54956
168.16314
167.81935
167.41507
167.03627
166.61328
166.2033
165.7767
165.3282
164.88952
164.42842
163.97231
163.51469
163.02991
162.56872
162.09456
161.60821
161.1423
160.6599
160.17653
159.69864
159.22596
158.74626
158.25704
157.78682
157.30883
156.82523
156.35391
155.87666
155.39623
154.92086
154.45987
153.98095
153.50994
153.05807
152.56984
152.1212
151.69382
151.20432
150.75757
150.33071
149.8632
149.41024
148.97938
148.53711
148.07581
147.63184
147.19253
146.72419
146.26537
145.84178
145.37249
144.88528
144.46751
143.99841
143.51153
143.08727
142.62611
142.17206
141.71089
141.24075
140.81402
140.34096
139.85575
139.40202
138.95616
138.45962
137.95158
137.51054
137.03344
136.50648
136.01549
135.55252
135.03892
134.51217
134.04761
133.56775
133.03695
132.5065
132.02031
131.52724
130.97437
130.45919
129.95703
129.4364
128.92615
128.36202
127.84046
127.36891
126.7862
126.21354
125.75112
125.229
124.65005
124.12415
123.62755
123.08009
122.51279
121.99879
121.45976
120.9193
120.37908
119.80443
119.29215
118.75543
118.16278
117.63471
117.10095
116.51854
115.98663
115.4563
114.87317
114.35372
113.851
113.24713
112.70117
112.19858
111.60896
111.05157
110.48377
109.92648
109.43273
108.84706
108.28504
107.77023
107.21015
106.68327
106.13752
105.54526
105.01127
104.50667
103.93044
103.36538
102.86046
102.31002
101.76758
101.25681
100.70814
100.16397
99.593741
99.040191
98.530441
97.946998
97.42528
96.936789
96.354563
95.825237
95.327888
94.750939
94.203721
93.719723
93.212444
92.674817
92.136818
91.626583
91.111211
90.574364
90.017597
89.48049
88.991144
88.425397
87.889683
87.464525
86.934391
86.321841
85.784547
85.34788
84.86874
84.373686
83.895843
83.428525
82.919027
82.396959
81.930404
81.43312
80.847771
80.358801
79.95135
79.267635
78.625634
78.348822
76.400981
72.373004
68.634936
64.951843
61.282278
57.687194
54.183217
50.818748
47.61868
44.588996
41.818897
39.18063
36.928223
35.131512
33.539765
32.658532
32.556031
33.221994
34.863178
37.403644
41.222477
47.129285
54.488086
63.117659
84.10968
100.19395
112.87855
125.58897
140.06514
154.52082
167.78884
180.65869
192.97797
204.92083
216.11095
226.55731
236.32332
245.63193
255.60169
268.64713
287.27914
314.94711
349.02002
384.54439
411.14372
425.01916
172.32091
172.3467
172.40928
172.47101
172.51708
172.54237
172.53981
172.50996
172.45488
172.37818
172.2837
172.17456
172.05401
171.92269
171.78344
171.6336
171.47768
171.30858
171.13163
170.94224
170.73472
170.52501
170.27601
170.05662
169.75562
169.51303
169.18183
168.89672
168.54549
168.2222
167.84156
167.49126
167.07791
166.70187
166.27022
165.85426
165.4177
164.97059
164.52578
164.0574
163.59581
163.13503
162.6464
162.17868
161.70826
161.21689
160.74933
160.27048
159.78528
159.30653
158.83875
158.3578
157.87037
157.40553
156.92613
156.44277
155.97651
155.50134
155.02456
154.54938
154.09051
153.60943
153.1378
152.70009
152.21397
151.76647
151.33606
150.85225
150.41992
149.9869
149.53169
149.09272
148.65148
148.21225
147.77068
147.31853
146.87511
146.43487
145.9671
145.53138
145.07975
144.59489
144.16851
143.70276
143.22109
142.79346
142.33699
141.88856
141.43355
140.98239
140.54397
140.0688
139.60843
139.13766
138.68806
138.21704
137.7097
137.2575
136.78189
136.25627
135.76432
135.30148
134.78583
134.27068
133.79871
133.31338
132.80691
132.26976
131.77867
131.28756
130.731
130.22687
129.71803
129.19682
128.68414
128.12
127.60301
127.10979
126.54807
125.99767
125.49721
124.98213
124.43401
123.87993
123.38635
122.86419
122.28526
121.7753
121.23232
120.68935
120.15514
119.58664
119.05249
118.49911
117.94653
117.40872
116.8462
116.30192
115.76099
115.21052
114.65049
114.11479
113.60986
113.03732
112.47934
111.99296
111.42511
110.84655
110.26266
109.70211
109.21633
108.63951
108.07698
107.54697
106.99167
106.45836
105.90637
105.34724
104.79661
104.26957
103.72824
103.16471
102.63345
102.13041
101.58758
101.03793
100.53553
99.976876
99.377583
98.870663
98.330892
97.717693
97.228788
96.679396
96.120002
95.654004
95.125172
94.5394
94.023784
93.575899
93.05643
92.503248
92.023959
91.509891
90.917703
90.43934
89.932893
89.256305
88.793234
88.244199
87.478996
87.136722
84.949624
79.718015
74.643017
69.716001
64.869183
60.039782
55.208822
50.371355
45.493047
40.588642
35.698131
30.808801
25.928526
21.13325
16.403558
11.579246
6.7995795
2.325132
-0.49822427
-0.57456521
-0.57080739
-0.56849949
-0.57042118
-0.57217624
-0.57421474
-0.5772276
-0.58166281
-0.58732404
-0.59322461
-0.59928405
-0.60584071
-0.61232921
-0.61814926
-0.62273336
-0.62621062
-0.62768395
-0.62585919
-0.62032124
-0.611448
-0.59941626
-0.58138491
-0.55655301
1.9850956
17.805263
37.102108
59.262491
94.24795
118.32476
137.21857
154.0476
169.29337
184.03659
199.23705
214.97847
230.90995
248.38895
267.81116
290.4608
316.69694
347.28343
381.86126
414.54652
438.73175
451.14066
171.98892
172.00552
172.06934
172.12426
172.16774
172.18683
172.17757
172.13986
172.07675
171.99284
171.89271
171.78023
171.65842
171.52877
171.39235
171.24854
171.09706
170.93665
170.76406
170.5826
170.38002
170.17224
169.93401
169.70018
169.42007
169.15534
168.84574
168.53365
168.20648
167.85223
167.49025
167.1168
166.71434
166.31911
165.89014
165.46368
165.0259
164.56794
164.11367
163.647
163.17295
162.70628
162.22525
161.73713
161.27666
160.78272
160.30299
159.8399
159.34864
158.86712
158.41404
157.91881
157.44158
156.98585
156.49399
156.02609
155.56183
155.07489
154.61401
154.14411
153.67318
153.19819
152.73505
152.29595
151.80995
151.37241
150.94172
150.46488
150.0415
149.60988
149.16336
148.73204
148.29521
147.85684
147.42694
146.97599
146.52901
146.11002
145.63576
145.18981
144.75397
144.27469
143.82958
143.37162
142.91554
142.46971
142.00724
141.57718
141.1256
140.68142
140.23855
139.77447
139.3347
138.856
138.40234
137.94555
137.43583
136.96132
136.51319
135.99431
135.47882
135.02264
134.50379
133.99158
133.5291
133.03275
132.53115
132.00962
131.52156
131.03523
130.47789
129.96243
129.45145
128.94078
128.41192
127.84691
127.34695
126.83387
126.27115
125.74028
125.23789
124.70015
124.16722
123.63919
123.11156
122.58848
122.04848
121.52938
120.98544
120.45912
119.91349
119.33693
118.81485
118.25871
117.68245
117.13917
116.58924
116.05898
115.52704
114.95925
114.37963
113.84698
113.34915
112.77271
112.25334
111.76135
111.21207
110.63954
110.02591
109.48542
108.97293
108.39985
107.8682
107.3173
106.75337
106.21513
105.68629
105.14199
104.60971
104.11091
103.54862
102.98826
102.44961
101.90063
101.4383
100.89507
100.31301
99.84279
99.213207
98.631079
98.149475
97.492907
96.974306
96.334994
95.792591
93.036396
87.280333
81.708195
76.146883
70.599112
65.091898
59.601212
54.099153
48.510198
42.830428
37.181874
31.512393
25.77443
20.130634
14.463923
8.6794367
3.1527166
-0.43265374
-0.53556903
-0.533624
-0.53073199
-0.53033017
-0.52918781
-0.52809439
-0.52796728
-0.52880243
-0.53046968
-0.53324793
-0.53677595
-0.5410676
-0.54615222
-0.54972515
-0.55148169
-0.55263189
-0.55389488
-0.55541325
-0.55812159
-0.55830559
-0.55843464
-0.56145341
-0.56517631
-0.56909728
-0.57377704
-0.57989405
-0.58753486
-0.59568643
-0.60405331
-0.6128213
-0.62138319
-0.62948606
-0.63628113
-0.64133226
-0.64490643
-0.6452709
-0.64128814
-0.63391985
-0.62335168
-0.61052438
-0.60189983
-0.60022256
-0.57837462
-0.54832232
-0.50706183
5.7121891
37.623216
84.888053
121.56028
142.32103
161.28365
180.65532
201.08972
223.26853
246.74263
272.20979
300.85366
333.14421
367.06808
401.24583
431.26415
455.4861
467.18988
171.63262
171.63255
171.69683
171.74128
171.78176
171.79311
171.77578
171.72858
171.65591
171.56367
171.45744
171.34179
171.21974
171.093
170.96152
170.82528
170.68117
170.53056
170.36496
170.19262
169.99577
169.7918
169.56164
169.31596
169.05401
168.76587
168.47447
168.1442
167.82406
167.45882
167.09568
166.71387
166.31028
165.89781
165.47751
165.02683
164.59283
164.1242
163.65851
163.19412
162.70338
162.23092
161.7545
161.25104
160.79285
160.30241
159.8145
159.35258
158.87179
158.38414
157.92944
157.44862
156.96406
156.51353
156.0308
155.56014
155.09653
154.61997
154.15692
153.68319
153.22699
152.74798
152.27897
151.85276
151.36685
150.92769
150.50853
150.04562
149.61797
149.19658
148.76352
148.32743
147.90164
147.47609
147.04889
146.59533
146.16047
145.75014
145.26356
144.82579
144.39282
143.90855
143.46178
143.00111
142.56083
142.12421
141.65551
141.23553
140.78982
140.33722
139.90224
139.4686
139.0246
138.53657
138.10699
137.64841
137.12673
136.64981
136.20225
135.691
135.17742
134.70961
134.19781
133.68935
133.21188
132.72957
132.22154
131.70213
131.23736
130.74906
130.19845
129.67884
129.16502
128.65496
128.1197