/*--------------------------------*- C++ -*----------------------------------*\
| =========                 |                                                 |
| \\      /  F ield         | OpenFOAM: The Open Source CFD Toolbox           |
|  \\    /   O peration     | Version:  2106                                  |
|   \\  /    A nd           | Website:  www.openfoam.com                      |
|    \\/     M anipulation  |                                                 |
\*---------------------------------------------------------------------------*/
FoamFile
{
    version     2.0;
    format      ascii;
    arch        "LSB;label=32;scalar=64";
    class       surfaceScalarField;
    location    "0.265";
    object      phi_0;
}
// * * * * * * * * * * * * * * * * * * * * * * * * * * * * * * * * * * * * * //

dimensions      [0 3 -1 0 0 0 0];

oriented        oriented;

internalField   nonuniform List<scalar> 
65152
(
-7.1862267e-09
7.1862267e-09
6.828761e-09
-1.4014988e-08
3.3932602e-08
-2.7103841e-08
6.8709459e-08
-3.4776857e-08
1.0749015e-07
-3.8780693e-08
1.4848147e-07
-4.0991313e-08
1.9050905e-07
-4.2027586e-08
2.329737e-07
-4.2464645e-08
2.7555873e-07
-4.2585032e-08
3.1799294e-07
-4.2434213e-08
3.6014056e-07
-4.2147622e-08
4.0193831e-07
-4.1797742e-08
4.4297795e-07
-4.1039645e-08
4.8451773e-07
-4.1539781e-08
5.2348491e-07
-3.8967183e-08
5.6565577e-07
-4.2170858e-08
6.0274765e-07
-3.7091883e-08
6.4402338e-07
-4.1275722e-08
6.8280057e-07
-3.8777193e-08
7.1996818e-07
-3.7167615e-08
7.6081643e-07
-4.0848248e-08
7.9836002e-07
-3.7543588e-08
8.3615514e-07
-3.7795122e-08
8.7538184e-07
-3.9226702e-08
9.1348441e-07
-3.8102562e-08
9.5195713e-07
-3.8472725e-08
9.8963317e-07
-3.7676039e-08
1.0282402e-06
-3.8607e-08
1.0663516e-06
-3.8111433e-08
1.1055788e-06
-3.9227188e-08
1.1429191e-06
-3.7340295e-08
1.1807135e-06
-3.7794424e-08
1.2196388e-06
-3.8925249e-08
1.2582192e-06
-3.8580421e-08
1.2964563e-06
-3.8237086e-08
1.3340351e-06
-3.7578816e-08
1.3719213e-06
-3.7886244e-08
1.4093086e-06
-3.7387279e-08
1.4487928e-06
-3.9484152e-08
1.487063e-06
-3.8270241e-08
1.5234077e-06
-3.6344666e-08
1.5603892e-06
-3.6981544e-08
1.5974254e-06
-3.7036208e-08
1.6359371e-06
-3.8511683e-08
1.6737414e-06
-3.7804294e-08
1.709993e-06
-3.6251567e-08
1.7459478e-06
-3.5954873e-08
1.7815513e-06
-3.5603515e-08
1.8183136e-06
-3.6762293e-08
1.8552735e-06
-3.695984e-08
1.8906395e-06
-3.5366062e-08
1.9261604e-06
-3.5520891e-08
1.9622484e-06
-3.6087917e-08
1.9968722e-06
-3.4623837e-08
2.03035e-06
-3.34778e-08
2.064617e-06
-3.4266962e-08
2.1001838e-06
-3.5566821e-08
2.1353596e-06
-3.5175784e-08
2.1694551e-06
-3.4095566e-08
2.2025927e-06
-3.3137609e-08
2.2351171e-06
-3.2524388e-08
2.2686025e-06
-3.3485362e-08
2.3014549e-06
-3.2852404e-08
2.3333621e-06
-3.1907258e-08
2.3667257e-06
-3.3363564e-08
2.4009602e-06
-3.4234499e-08
2.433915e-06
-3.2954809e-08
2.4654661e-06
-3.1551076e-08
2.495183e-06
-2.9716892e-08
2.5247829e-06
-2.9599874e-08
2.5574837e-06
-3.2700839e-08
2.5915459e-06
-3.4062255e-08
2.6235468e-06
-3.2000881e-08
2.6533774e-06
-2.9830602e-08
2.6830733e-06
-2.9695856e-08
2.713794e-06
-3.0720681e-08
2.745569e-06
-3.1774997e-08
2.7771368e-06
-3.1567811e-08
2.8064443e-06
-2.9307525e-08
2.8345489e-06
-2.8104577e-08
2.8643833e-06
-2.9834468e-08
2.8961899e-06
-3.1806562e-08
2.9274969e-06
-3.130702e-08
2.958076e-06
-3.0579117e-08
2.9875309e-06
-2.9454868e-08
3.0151391e-06
-2.7608202e-08
3.0437176e-06
-2.8578437e-08
3.0733306e-06
-2.9613096e-08
3.1022217e-06
-2.8891032e-08
3.1315102e-06
-2.9288483e-08
3.1614238e-06
-2.9913641e-08
3.1905474e-06
-2.9123617e-08
3.2192394e-06
-2.8691958e-08
3.2485562e-06
-2.9316832e-08
3.2775858e-06
-2.9029547e-08
3.3060237e-06
-2.8437897e-08
3.3337377e-06
-2.7714018e-08
3.3605306e-06
-2.6792899e-08
3.388208e-06
-2.7677415e-08
3.4172794e-06
-2.9071387e-08
3.4468005e-06
-2.952113e-08
3.4766883e-06
-2.9887792e-08
3.505314e-06
-2.8625704e-08
3.5311632e-06
-2.5849182e-08
3.5570173e-06
-2.5854092e-08
3.585477e-06
-2.8459752e-08
3.6144011e-06
-2.8924112e-08
3.6426838e-06
-2.8282691e-08
3.6707589e-06
-2.8075032e-08
3.69775e-06
-2.699116e-08
3.7238052e-06
-2.6055136e-08
3.7501895e-06
-2.6384391e-08
3.7773076e-06
-2.7118013e-08
3.8054886e-06
-2.8181048e-08
3.834435e-06
-2.8946406e-08
3.8623447e-06
-2.7909653e-08
3.8884664e-06
-2.6121696e-08
3.9136665e-06
-2.5200162e-08
3.9395119e-06
-2.5845376e-08
3.9659689e-06
-2.6456991e-08
3.9929844e-06
-2.7015554e-08
4.021172e-06
-2.818753e-08
4.0489259e-06
-2.7753955e-08
4.0744531e-06
-2.5527116e-08
4.0990376e-06
-2.458459e-08
4.1242384e-06
-2.5200797e-08
4.1494115e-06
-2.5173047e-08
4.1753782e-06
-2.5966687e-08
4.2032351e-06
-2.7856962e-08
4.2311706e-06
-2.7935435e-08
4.257659e-06
-2.6488416e-08
4.2836784e-06
-2.6019428e-08
4.3090469e-06
-2.5368466e-08
4.3329745e-06
-2.3927601e-08
4.3568155e-06
-2.3841018e-08
4.3818002e-06
-2.4984691e-08
4.4073456e-06
-2.554537e-08
4.4334607e-06
-2.6115116e-08
4.4598358e-06
-2.6375089e-08
4.4857712e-06
-2.5935465e-08
4.5107832e-06
-2.5011934e-08
4.5348364e-06
-2.4053256e-08
4.5588714e-06
-2.4034959e-08
4.5832037e-06
-2.4332282e-08
4.6075072e-06
-2.4303495e-08
4.6323015e-06
-2.4794301e-08
4.6577465e-06
-2.544501e-08
4.6825609e-06
-2.481445e-08
4.7060928e-06
-2.3531915e-08
4.7292681e-06
-2.3175241e-08
4.7528672e-06
-2.3599124e-08
4.7767049e-06
-2.3837709e-08
4.8002084e-06
-2.3503526e-08
4.8243832e-06
-2.4174775e-08
4.8491241e-06
-2.474086e-08
4.8724485e-06
-2.3324447e-08
4.89416e-06
-2.171152e-08
4.916458e-06
-2.2298009e-08
4.9397173e-06
-2.3259304e-08
4.9628843e-06
-2.3167e-08
4.9861236e-06
-2.3239241e-08
5.0102606e-06
-2.4137053e-08
5.0344229e-06
-2.4162215e-08
5.0577467e-06
-2.3323884e-08
5.0803638e-06
-2.261704e-08
5.1028473e-06
-2.2483528e-08
5.1245652e-06
-2.1717891e-08
5.1456125e-06
-2.1047335e-08
5.1663624e-06
-2.0749884e-08
5.1875106e-06
-2.1148216e-08
5.2094105e-06
-2.1899881e-08
5.2323328e-06
-2.2922309e-08
5.2557425e-06
-2.3409651e-08
5.2789329e-06
-2.3190423e-08
5.3015787e-06
-2.2645754e-08
5.3229499e-06
-2.1371234e-08
5.344051e-06
-2.1101126e-08
5.3641213e-06
-2.0070298e-08
5.3849823e-06
-2.0860969e-08
5.4058046e-06
-2.0822288e-08
5.4279459e-06
-2.2141359e-08
5.4502983e-06
-2.2352404e-08
5.4729028e-06
-2.2604515e-08
5.4958075e-06
-2.2904618e-08
5.5171436e-06
-2.1336178e-08
5.5380073e-06
-2.0863632e-08
5.5564907e-06
-1.848346e-08
5.5750156e-06
-1.8524845e-08
5.5939343e-06
-1.8918759e-08
5.613996e-06
-2.0061633e-08
5.6352886e-06
-2.1292661e-08
5.6563147e-06
-2.102606e-08
5.6789972e-06
-2.2682511e-08
5.7000775e-06
-2.1080289e-08
5.7217236e-06
-2.1646121e-08
5.7406159e-06
-1.889229e-08
5.7595063e-06
-1.889037e-08
5.7770483e-06
-1.7542039e-08
5.7946673e-06
-1.761898e-08
5.8131461e-06
-1.8478779e-08
5.8323531e-06
-1.9207056e-08
5.8519634e-06
-1.9610276e-08
5.871147e-06
-1.9183605e-08
5.8897933e-06
-1.8646322e-08
5.9072679e-06
-1.7474531e-08
5.9238938e-06
-1.6625914e-08
5.9384695e-06
-1.4575734e-08
5.9532075e-06
-1.4738044e-08
5.9668326e-06
-1.3625052e-08
5.9789826e-06
-1.215001e-08
5.9910214e-06
-1.2038798e-08
6.0007353e-06
-9.7139307e-09
6.0086153e-06
-7.8799549e-09
6.0150446e-06
-6.429343e-09
6.0177581e-06
-2.7134495e-09
6.0170373e-06
7.2081556e-10
6.0137802e-06
3.2570885e-09
6.0052136e-06
8.5665411e-09
5.9921771e-06
1.3036491e-08
5.9736413e-06
1.853581e-08
5.9463816e-06
2.7259762e-08
5.9120337e-06
3.4347897e-08
5.8660923e-06
4.5941423e-08
5.8092959e-06
5.6796352e-08
5.7380971e-06
7.1198838e-08
5.6490974e-06
8.8999639e-08
5.5437411e-06
1.0535636e-07
5.4085288e-06
1.3521232e-07
5.2510401e-06
1.5748861e-07
5.05871e-06
1.9233013e-07
4.8262356e-06
2.3247441e-07
4.5539762e-06
2.7225941e-07
4.2278451e-06
3.2613109e-07
3.8406776e-06
3.8716756e-07
3.3826683e-06
4.5800926e-07
2.846244e-06
5.3642425e-07
2.218199e-06
6.2804508e-07
1.511852e-06
7.0634694e-07
7.5166631e-07
7.6018571e-07
1.780224e-08
7.3386407e-07
-5.5054598e-07
5.6834822e-07
-9.1329999e-07
3.6275401e-07
-1.0719973e-06
1.5869732e-07
-1.1069901e-06
3.4992805e-08
-1.2513746e-06
1.4438452e-07
-1.7468862e-06
4.955116e-07
-2.4067943e-06
6.5990809e-07
-3.0735696e-06
6.6677531e-07
-3.7434216e-06
6.69852e-07
-4.3269247e-06
5.8350305e-07
-4.5815698e-06
2.5464506e-07
-4.3938509e-06
-1.8771881e-07
-3.6885796e-06
-7.0527134e-07
-2.6899204e-06
-9.9865922e-07
-1.508403e-06
-1.1815174e-06
-1.508403e-06
-7.5710272e-09
1.4757254e-08
1.1210114e-08
-3.2796128e-08
4.5215625e-08
-6.1109352e-08
8.6902486e-08
-7.6463718e-08
1.3282095e-07
-8.4699153e-08
1.8083172e-07
-8.9002091e-08
2.2983628e-07
-9.1032142e-08
2.7916299e-07
-9.1791352e-08
3.2822956e-07
-9.16516e-08
3.7682736e-07
-9.1032017e-08
4.2478362e-07
-9.0103886e-08
4.7247035e-07
-8.9484466e-08
5.1898926e-07
-8.7558559e-08
5.6624399e-07
-8.8794504e-08
6.1069354e-07
-8.3416735e-08
6.5845597e-07
-8.9933291e-08
7.0107278e-07
-7.9708695e-08
7.4783003e-07
-8.8032969e-08
7.923491e-07
-8.3296263e-08
8.3479305e-07
-7.9611566e-08
8.813891e-07
-8.7444299e-08
9.2473122e-07
-8.0885706e-08
9.6805703e-07
-8.112093e-08
1.0118565e-06
-8.3026179e-08
1.0567808e-06
-8.3026888e-08
1.1011594e-06
-8.2851278e-08
1.1424002e-06
-7.89169e-08
1.1874261e-06
-8.3632893e-08
1.2321319e-06
-8.2817167e-08
1.276841e-06
-8.3936325e-08
1.3181755e-06
-7.8674796e-08
1.3618212e-06
-8.144013e-08
1.4071496e-06
-8.4253603e-08
1.45207e-06
-8.3500884e-08
1.4951586e-06
-8.1325662e-08
1.5372045e-06
-7.9624712e-08
1.5807688e-06
-8.1450569e-08
1.6245954e-06
-8.1213856e-08
1.6711181e-06
-8.6006848e-08
1.7142968e-06
-8.1448954e-08
1.7546436e-06
-7.6691462e-08
1.7967043e-06
-7.9042211e-08
1.8409156e-06
-8.1247478e-08
1.8865409e-06
-8.4137038e-08
1.9302878e-06
-8.1551155e-08
1.9706032e-06
-7.6567022e-08
2.0100616e-06
-7.541326e-08
2.0534337e-06
-7.8975594e-08
2.0984828e-06
-8.1811366e-08
2.1394838e-06
-7.7960877e-08
2.179332e-06
-7.5214267e-08
2.2224649e-06
-7.8653799e-08
2.2652808e-06
-7.8903819e-08
2.3040396e-06
-7.338258e-08
2.3421271e-06
-7.1565367e-08
2.3834491e-06
-7.5588943e-08
2.4271443e-06
-7.9262048e-08
2.4686531e-06
-7.6684526e-08
2.5069325e-06
-7.237497e-08
2.5450743e-06
-7.12794e-08
2.58476e-06
-7.2210105e-08
2.6251359e-06
-7.3861317e-08
2.6629818e-06
-7.0698235e-08
2.6999838e-06
-6.8909288e-08
2.740535e-06
-7.3914808e-08
2.7836281e-06
-7.7327529e-08
2.8233509e-06
-7.2677626e-08
2.8580296e-06
-6.6229766e-08
2.8905246e-06
-6.2211932e-08
2.9272998e-06
-6.6375057e-08
2.9703095e-06
-7.5710533e-08
3.0126826e-06
-7.6435315e-08
3.0490882e-06
-6.8406554e-08
3.0815314e-06
-6.2273775e-08
3.1166307e-06
-6.479512e-08
3.1569863e-06
-7.1076272e-08
3.1977038e-06
-7.2492515e-08
3.2339419e-06
-6.7805977e-08
3.2665236e-06
-6.1889163e-08
3.2999567e-06
-6.1537735e-08
3.3375485e-06
-6.7426247e-08
3.3779229e-06
-7.2180895e-08
3.4166382e-06
-7.0022344e-08
3.4526083e-06
-6.6549262e-08
3.4864683e-06
-6.3314807e-08
3.5200867e-06
-6.1226608e-08
3.5556055e-06
-6.4097275e-08
3.5916531e-06
-6.566073e-08
3.6273703e-06
-6.4608196e-08
3.6631751e-06
-6.5093298e-08
3.6989089e-06
-6.5647375e-08
3.7344761e-06
-6.4690825e-08
3.7697465e-06
-6.3962386e-08
3.8055358e-06
-6.5106174e-08
3.8415395e-06
-6.5033239e-08
3.8764164e-06
-6.331474e-08
3.9090358e-06
-6.0333463e-08
3.9404993e-06
-5.8256407e-08
3.9740264e-06
-6.1204509e-08
4.0112901e-06
-6.6335041e-08
4.050115e-06
-6.8346096e-08
4.0863306e-06
-6.6103389e-08
4.1182985e-06
-6.0593525e-08
4.1485567e-06
-5.6107432e-08
4.1810483e-06
-5.8345722e-08
4.216858e-06
-6.4269441e-08
4.25341e-06
-6.5476055e-08
4.2888318e-06
-6.3704576e-08
4.3222911e-06
-6.1534279e-08
4.3541831e-06
-5.8883142e-08
4.385632e-06
-5.7504071e-08
4.4177851e-06
-5.8537438e-08
4.4517184e-06
-6.1051401e-08
4.488201e-06
-6.4663642e-08
4.5248401e-06
-6.5585436e-08
4.5583981e-06
-6.1467704e-08
4.5890355e-06
-5.675912e-08
4.6190314e-06
-5.5196036e-08
4.6508336e-06
-5.7647565e-08
4.6845395e-06
-6.0162893e-08
4.7197535e-06
-6.222952e-08
4.7554929e-06
-6.3927002e-08
4.7897888e-06
-6.2049775e-08
4.820928e-06
-5.6666373e-08
4.8499783e-06
-5.363484e-08
4.8798311e-06
-5.5053667e-08
4.9118718e-06
-5.7213662e-08
4.9451367e-06
-5.9231607e-08
4.9795134e-06
-6.2233647e-08
5.0147706e-06
-6.3192709e-08
5.0488751e-06
-6.0592901e-08
5.0810621e-06
-5.8206403e-08
5.1114304e-06
-5.573677e-08
5.1406527e-06
-5.3149888e-08
5.1704586e-06
-5.3646881e-08
5.2013836e-06
-5.5909726e-08
5.23374e-06
-5.7901816e-08
5.2673307e-06
-5.9705771e-08
5.3004832e-06
-5.9527618e-08
5.3325943e-06
-5.8046543e-08
5.3642422e-06
-5.6659848e-08
5.3944103e-06
-5.4221332e-08
5.4236443e-06
-5.3268973e-08
5.4540352e-06
-5.4723183e-08
5.4860596e-06
-5.6327896e-08
5.5182427e-06
-5.6977374e-08
5.5501113e-06
-5.7313646e-08
5.5813643e-06
-5.6067413e-08
5.6116226e-06
-5.3790216e-08
5.6410462e-06
-5.2598892e-08
5.6707526e-06
-5.3305533e-08
5.7012536e-06
-5.4338699e-08
5.7327204e-06
-5.4970331e-08
5.7648955e-06
-5.6349836e-08
5.7959979e-06
-5.5843303e-08
5.8246765e-06
-5.2002971e-08
5.8521871e-06
-4.9222128e-08
5.8803025e-06
-5.0413458e-08
5.9093334e-06
-5.22902e-08
5.9392818e-06
-5.3115422e-08
5.9699652e-06
-5.3922621e-08
6.0010221e-06
-5.519391e-08
6.0323798e-06
-5.5519982e-08
6.0638687e-06
-5.4812725e-08
6.094307e-06
-5.3055388e-08
6.123294e-06
-5.1470496e-08
6.1514185e-06
-4.9842348e-08
6.1787152e-06
-4.834404e-08
6.2045028e-06
-4.6537548e-08
6.230686e-06
-4.7331352e-08
6.2594201e-06
-5.063401e-08
6.289848e-06
-5.3350251e-08
6.3205454e-06
-5.4107067e-08
6.3506656e-06
-5.3310543e-08
6.3808617e-06
-5.2841939e-08
6.4083479e-06
-4.8857433e-08
6.435283e-06
-4.8036204e-08
6.4606545e-06
-4.544181e-08
6.4879678e-06
-4.8174215e-08
6.5148829e-06
-4.7737406e-08
6.5437899e-06
-5.1048399e-08
6.573986e-06
-5.2548447e-08
6.6050561e-06
-5.3674607e-08
6.6369887e-06
-5.4837259e-08
6.6656179e-06
-4.9965372e-08
6.6925011e-06
-4.7746823e-08
6.7159619e-06
-4.1944277e-08
6.7396726e-06
-4.2235541e-08
6.7634847e-06
-4.2730818e-08
6.7889862e-06
-4.5563166e-08
6.8162432e-06
-4.8549641e-08
6.8450396e-06
-4.9822485e-08
6.8745718e-06
-5.2214713e-08
6.9038601e-06
-5.0368606e-08
6.9334673e-06
-5.1253248e-08
6.9596322e-06
-4.505721e-08
6.98426e-06
-4.3518224e-08
7.0067797e-06
-4.006174e-08
7.0306039e-06
-4.1443127e-08
7.0559333e-06
-4.3808157e-08
7.0823207e-06
-4.5594495e-08
7.1087626e-06
-4.6052191e-08
7.1355844e-06
-4.6005401e-08
7.1623457e-06
-4.5407638e-08
7.1884782e-06
-4.3607015e-08
7.2133219e-06
-4.1469573e-08
7.2367611e-06
-3.801498e-08
7.2589611e-06
-3.6938008e-08
7.2808087e-06
-3.5472683e-08
7.3016618e-06
-3.3003049e-08
7.3222711e-06
-3.2648118e-08
7.3411899e-06
-2.86328e-08
7.3592851e-06
-2.597513e-08
7.3765704e-06
-2.3714628e-08
7.3898705e-06
-1.6013546e-08
7.4028962e-06
-1.2304862e-08
7.4131317e-06
-6.9784339e-09
7.4192572e-06
2.4410089e-09
7.4231715e-06
9.1221928e-09
7.4206711e-06
2.1036271e-08
7.4141126e-06
3.3818186e-08
7.4015095e-06
4.6951031e-08
7.379167e-06
6.8283913e-08
7.3524362e-06
8.3527148e-08
7.310691e-06
1.1294411e-07
7.2613664e-06
1.3832422e-07
7.1918747e-06
1.7484804e-07
7.1016046e-06
2.2548245e-07
6.9988841e-06
2.6020902e-07
6.8592474e-06
3.3196685e-07
6.699812e-06
3.9190985e-07
6.5132445e-06
4.5882692e-07
6.280141e-06
5.5923455e-07
6.012063e-06
6.5524552e-07
5.6990015e-06
7.7107076e-07
5.3176916e-06
9.1773424e-07
4.8893719e-06
1.0563647e-06
4.3781331e-06
1.2175857e-06
3.7664071e-06
1.3719118e-06
3.0007068e-06
1.4995643e-06
2.0529211e-06
1.516134e-06
9.9626365e-07
1.4194114e-06
1.1153569e-08
1.1438074e-06
-6.9146993e-07
7.3761631e-07
-1.0516454e-06
5.0456002e-07
-1.3041991e-06
7.4806523e-07
-1.8920812e-06
1.2477903e-06
-2.6632247e-06
1.4379188e-06
-3.3508487e-06
1.357476e-06
-3.8308889e-06
1.0635433e-06
-4.0169999e-06
4.4075608e-07
-3.8160889e-06
-3.8862982e-07
-3.1956169e-06
-1.3257434e-06
-2.1302845e-06
-2.0639916e-06
-1.0378128e-06
-2.2739891e-06
-2.5462158e-06
-7.7598026e-09
2.2517057e-08
1.0815533e-08
-5.1371464e-08
4.4399351e-08
-9.4693171e-08
8.5716424e-08
-1.1778079e-07
1.3119443e-07
-1.3017716e-07
1.7877615e-07
-1.3658381e-07
2.2732573e-07
-1.3958173e-07
2.7614016e-07
-1.4060578e-07
3.2488509e-07
-1.4039654e-07
3.7345396e-07
-1.3960088e-07
4.2146123e-07
-1.3811115e-07
4.6933618e-07
-1.3735942e-07
5.1627015e-07
-1.3449253e-07
5.6337216e-07
-1.3589651e-07
6.0962936e-07
-1.2967394e-07
6.5550571e-07
-1.3580965e-07
7.0132422e-07
-1.2552721e-07
7.4659574e-07
-1.3330449e-07
7.9134909e-07
-1.2804961e-07
8.3656298e-07
-1.2482546e-07
8.8162198e-07
-1.325033e-07
9.2479377e-07
-1.2405749e-07
9.7072297e-07
-1.2705013e-07
1.0141325e-06
-1.2643574e-07
1.0589621e-06
-1.2785644e-07
1.1031206e-06
-1.2700982e-07
1.1467266e-06
-1.2252285e-07
1.1920385e-06
-1.2894481e-07
1.2362263e-06
-1.2700497e-07
1.2799483e-06
-1.2765829e-07
1.3237855e-06
-1.2251208e-07
1.3689657e-06
-1.2662025e-07
1.4134728e-06
-1.2876074e-07
1.4574813e-06
-1.2750941e-07
1.500631e-06
-1.244753e-07
1.5457031e-06
-1.2469689e-07
1.5897221e-06
-1.2546952e-07
1.6332919e-06
-1.2478369e-07
1.678885e-06
-1.3159989e-07
1.7217514e-06
-1.2431539e-07
1.7640159e-06
-1.1895598e-07
1.8077426e-06
-1.2276894e-07
1.8529447e-06
-1.2644958e-07
1.896489e-06
-1.2768126e-07
1.9402422e-06
-1.2530444e-07
1.9815938e-06
-1.1791857e-07
2.0208563e-06
-1.1467573e-07
2.0660711e-06
-1.2419045e-07
2.1131687e-06
-1.2890898e-07
2.1539515e-06
-1.187437e-07
2.1918309e-06
-1.130936e-07
2.2335497e-06
-1.2037267e-07
2.2777444e-06
-1.2309847e-07
2.3195024e-06
-1.1514062e-07
2.3590982e-06
-1.1116117e-07
2.399982e-06
-1.164727e-07
2.4432217e-06
-1.2250173e-07
2.4840659e-06
-1.1752874e-07
2.5214897e-06
-1.0979883e-07
2.5597968e-06
-1.0958642e-07
2.6016575e-06
-1.1407088e-07
2.644285e-06
-1.1648882e-07
2.6834564e-06
-1.0986963e-07
2.7197262e-06
-1.0517901e-07
2.7583513e-06
-1.1253992e-07
2.8008883e-06
-1.1986451e-07
2.8417814e-06
-1.1357075e-07
2.8772081e-06
-1.0165653e-07
2.9101469e-06
-9.5150679e-08
2.9484444e-06
-1.0467253e-07
2.9931101e-06
-1.2037623e-07
3.036686e-06
-1.2001129e-07
3.0727638e-06
-1.0448434e-07
3.1027083e-06
-9.2218206e-08
3.1357336e-06
-9.7820506e-08
3.1773807e-06
-1.1272331e-07
3.2212976e-06
-1.1640947e-07
3.2598346e-06
-1.0634291e-07
3.2928817e-06
-9.4936247e-08
3.3257327e-06
-9.438879e-08
3.3629054e-06
-1.0459896e-07
3.4032251e-06
-1.1250053e-07
3.4426723e-06
-1.0946961e-07
3.4788928e-06
-1.0276973e-07
3.511472e-06
-9.5894059e-08
3.5454117e-06
-9.5166301e-08
3.5824821e-06
-1.011677e-07
3.620348e-06
-1.0352661e-07
3.6577652e-06
-1.0202534e-07
3.6937847e-06
-1.0111287e-07
3.7287233e-06
-1.0058592e-07
3.7641105e-06
-1.0007806e-07
3.7991707e-06
-9.9022551e-08
3.8342708e-06
-1.0020628e-07
3.8706806e-06
-1.0144303e-07
3.9072637e-06
-9.9897887e-08
3.9409543e-06
-9.402405e-08
3.9729889e-06
-9.029097e-08
4.0066687e-06
-9.4884299e-08
4.0443965e-06
-1.0406287e-07
4.0840118e-06
-1.0796139e-07
4.1206381e-06
-1.0272971e-07
4.1522011e-06
-9.2156467e-08
4.1825198e-06
-8.6426116e-08
4.2154008e-06
-9.1226767e-08
4.2514636e-06
-1.0033228e-07
4.2883875e-06
-1.0239987e-07
4.3239137e-06
-9.9230806e-08
4.3569814e-06
-9.4601974e-08
4.3898859e-06
-9.1787699e-08
4.4229714e-06
-9.0589551e-08
4.4559176e-06
-9.1483577e-08
4.4901754e-06
-9.5309244e-08
4.5274965e-06
-1.0198471e-07
4.5642402e-06
-1.0232916e-07
4.5971736e-06
-9.4401107e-08
4.6265491e-06
-8.6134582e-08
4.6566053e-06
-8.5252249e-08
4.6890531e-06
-9.0095368e-08
4.7234618e-06
-9.4571665e-08
4.7594353e-06
-9.8203005e-08
4.7960757e-06
-1.0056734e-07
4.8310056e-06
-9.6979745e-08
4.8627892e-06
-8.8449968e-08
4.8919731e-06
-8.2818702e-08
4.9221361e-06
-8.5216633e-08
4.955297e-06
-9.0374645e-08
4.9893325e-06
-9.3267068e-08
5.0233711e-06
-9.6272272e-08
5.0580756e-06
-9.7897159e-08
5.0923278e-06
-9.4845172e-08
5.1246301e-06
-9.0508631e-08
5.1549283e-06
-8.6034979e-08
5.1847627e-06
-8.2984333e-08
5.2155019e-06
-8.4386072e-08
5.2468953e-06
-8.7303077e-08
5.2795515e-06
-9.0558091e-08
5.3136431e-06
-9.3797344e-08
5.3477394e-06
-9.3623945e-08
5.3810593e-06
-9.1366367e-08
5.4143203e-06
-8.9920923e-08
5.4457375e-06
-8.5638444e-08
5.4745759e-06
-8.2107409e-08
5.503922e-06
-8.4069293e-08
5.5353471e-06
-8.7752954e-08
5.5668927e-06
-8.8522997e-08
5.5978872e-06
-8.8308163e-08
5.6294679e-06
-8.7648136e-08
5.6615331e-06
-8.5855398e-08
5.6924371e-06
-8.3502908e-08
5.7228288e-06
-8.3697178e-08
5.7537616e-06
-8.5271529e-08
5.7856991e-06
-8.6907871e-08
5.8182424e-06
-8.8893052e-08
5.8498299e-06
-8.7430849e-08
5.8783268e-06
-8.049985e-08
5.905698e-06
-7.6593368e-08
5.9344833e-06
-7.9198776e-08
5.9645083e-06
-8.2315118e-08
5.9946258e-06
-8.323294e-08
6.0256069e-06
-8.4903774e-08
6.0571614e-06
-8.6748341e-08
6.0885768e-06
-8.6935389e-08
6.1192729e-06
-8.5508834e-08
6.1491392e-06
-8.292172e-08
6.1786702e-06
-8.1001495e-08
6.2085048e-06
-7.9676933e-08
6.2372959e-06
-7.7135176e-08
6.2638048e-06
-7.304646e-08
6.2905042e-06
-7.4030701e-08
6.3196875e-06
-7.9817366e-08
6.3500122e-06
-8.3674944e-08
6.3800196e-06
-8.4114449e-08
6.4101291e-06
-8.3420039e-08
6.4402012e-06
-8.2914029e-08
6.4685552e-06
-7.7211405e-08
6.4960635e-06
-7.5544528e-08
6.5230185e-06
-7.2396786e-08
6.5501678e-06
-7.5323542e-08
6.5775735e-06
-7.5143114e-08
6.6065787e-06
-8.005356e-08
6.6370331e-06
-8.3002903e-08
6.668296e-06
-8.4937446e-08
6.7005509e-06
-8.7092231e-08
6.7306836e-06
-8.009806e-08
6.7582715e-06
-7.5334737e-08
6.7836797e-06
-6.7352398e-08
6.8070645e-06
-6.5620397e-08
6.8307041e-06
-6.6370368e-08
6.8552983e-06
-7.0157406e-08
6.8814534e-06
-7.4704705e-08
6.9103431e-06
-7.8712172e-08
6.938546e-06
-8.0417646e-08
6.9703589e-06
-8.21815e-08
7.0010112e-06
-8.1905576e-08
7.0298881e-06
-7.3934072e-08
7.0557012e-06
-6.9331317e-08
7.0801658e-06
-6.4526385e-08
7.1046508e-06
-6.5928116e-08
7.129766e-06
-6.8923352e-08
7.1551877e-06
-7.101619e-08
7.182566e-06
-7.3430542e-08
7.2095608e-06
-7.3000165e-08
7.2360145e-06
-7.1861353e-08
7.2627061e-06
-7.0298579e-08
7.2871802e-06
-6.5943651e-08
7.3100159e-06
-6.0850679e-08
7.3340624e-06
-6.0984513e-08
7.3550424e-06
-5.6452702e-08
7.3790484e-06
-5.7009024e-08
7.4001531e-06
-5.3752859e-08
7.4202136e-06
-4.8693272e-08
7.4406546e-06
-4.6416122e-08
7.4599692e-06
-4.302925e-08
7.477755e-06
-3.379934e-08
7.4942467e-06
-2.87966e-08
7.505867e-06
-1.859868e-08
7.517011e-06
-8.7029807e-09
7.5239743e-06
2.158877e-09
7.5265797e-06
1.8430869e-08
7.52374e-06
3.6657838e-08
7.5167772e-06
5.391387e-08
7.501894e-06
8.3167055e-08
7.4826371e-06
1.0278407e-07
7.4557586e-06
1.3982259e-07
7.4209321e-06
1.7315078e-07
7.3733511e-06
2.22429e-07
7.3159468e-06
2.8288678e-07
7.2325822e-06
3.4357363e-07
7.1315227e-06
4.3302629e-07
7.0162826e-06
5.0714994e-07
6.8694699e-06
6.056397e-07
6.7060525e-06
7.2265187e-07
6.527697e-06
8.3360105e-07
6.3041357e-06
9.9463211e-07
6.0645659e-06
1.157304e-06
5.791282e-06
1.3296486e-06
5.4776925e-06
1.5311752e-06
5.121881e-06
1.7277233e-06
4.7259616e-06
1.8954837e-06
4.199565e-06
2.0425306e-06
3.4843342e-06
2.1346422e-06
2.4636073e-06
2.1645343e-06
1.2146274e-06
1.9865962e-06
9.3817577e-08
1.6253698e-06
-4.997427e-07
1.3416255e-06
-8.5445258e-07
1.6025001e-06
-1.4791721e-06
2.0626383e-06
-2.2082737e-06
2.0865776e-06
-2.6871876e-06
1.5424572e-06
-2.9401056e-06
6.9367408e-07
-2.9284099e-06
-4.0032558e-07
-2.57745e-06
-1.6767032e-06
-1.8875225e-06
-2.7539192e-06
-8.9608266e-07
-3.2654289e-06
-3.4422984e-06
-7.4171756e-09
2.9934232e-08
1.1331764e-08
-7.0120404e-08
4.5192313e-08
-1.2855372e-07
8.6949077e-08
-1.5953756e-07
1.3282617e-07
-1.7605425e-07
1.80766e-07
-1.8452364e-07
2.2960791e-07
-1.8842363e-07
2.7867951e-07
-1.8967738e-07
3.2762559e-07
-1.8934261e-07
3.7623846e-07
-1.8821376e-07
4.2443494e-07
-1.8630763e-07
4.7203646e-07
-1.8496093e-07
5.1936153e-07
-1.818176e-07
5.6568342e-07
-1.822184e-07
6.1256795e-07
-1.7655847e-07
6.573671e-07
-1.8060879e-07
7.038036e-07
-1.7196371e-07
7.4849355e-07
-1.7799444e-07
7.9265534e-07
-1.722114e-07
8.3848746e-07
-1.7065758e-07
8.8264952e-07
-1.7666536e-07
9.2533097e-07
-1.6673894e-07
9.7190587e-07
-1.7362504e-07
1.0149197e-06
-1.6944955e-07
1.0597564e-06
-1.7269318e-07
1.1016757e-06
-1.6892913e-07
1.1485428e-06
-1.6938996e-07
1.1921846e-06
-1.7258662e-07
1.2364075e-06
-1.7122778e-07
1.2775055e-06
-1.6875635e-07
1.324915e-06
-1.6992151e-07
1.3700507e-06
-1.7175602e-07
1.4131121e-06
-1.7182216e-07
1.4552799e-06
-1.6967721e-07
1.4991221e-06
-1.6831749e-07
1.5470793e-06
-1.7265409e-07
1.5902483e-06
-1.686385e-07
1.6325565e-06
-1.6709188e-07
1.6766667e-06
-1.7571012e-07
1.7196394e-06
-1.67288e-07
1.7634279e-06
-1.6274455e-07
1.8097521e-06
-1.6909314e-07
1.8540248e-06
-1.7072225e-07
1.8926246e-06
-1.6628102e-07
1.9363167e-06
-1.6899659e-07
1.9816149e-06
-1.6321677e-07
2.0224374e-06
-1.5549825e-07
2.0651636e-06
-1.6691666e-07
2.1109717e-06
-1.7471699e-07
2.1535024e-06
-1.6127444e-07
2.1907615e-06
-1.5035275e-07
2.2296399e-06
-1.5925106e-07
2.2744005e-06
-1.6785905e-07
2.32058e-06
-1.6132008e-07
2.3612e-06
-1.5178118e-07
2.3986918e-06
-1.5396447e-07
2.4389874e-06
-1.6279736e-07
2.4795299e-06
-1.5807119e-07
2.5195283e-06
-1.497973e-07
2.5599548e-06
-1.5001289e-07
2.6004398e-06
-1.5455592e-07
2.6413499e-06
-1.5739893e-07
2.6817745e-06
-1.5029422e-07
2.7195613e-06
-1.4296581e-07
2.7570148e-06
-1.4999344e-07
2.7960162e-06
-1.5886591e-07
2.8353239e-06
-1.5287839e-07
2.8733459e-06
-1.3967859e-07
2.9112095e-06
-1.330142e-07
2.9503002e-06
-1.4376323e-07
2.9906968e-06
-1.6077285e-07
3.0313627e-06
-1.6067724e-07
3.0686853e-06
-1.4180691e-07
3.1001915e-06
-1.2372441e-07
3.132488e-06
-1.3011703e-07
3.1720587e-06
-1.5229394e-07
3.2158348e-06
-1.6018561e-07
3.2574943e-06
-1.4800236e-07
3.2942491e-06
-1.316911e-07
3.3267118e-06
-1.2685146e-07
3.3594152e-06
-1.3730233e-07
3.3951406e-06
-1.48226e-07
3.4349914e-06
-1.4932033e-07
3.4741821e-06
-1.4196045e-07
3.5089484e-06
-1.3066041e-07
3.5431455e-06
-1.2936333e-07
3.5798086e-06
-1.3783085e-07
3.6177549e-06
-1.414729e-07
3.6553036e-06
-1.3957403e-07
3.6899591e-06
-1.3576833e-07
3.7240172e-06
-1.3464408e-07
3.7592694e-06
-1.3533023e-07
3.7942499e-06
-1.340031e-07
3.8285113e-06
-1.3446769e-07
3.8648367e-06
-1.3776836e-07
3.9025664e-06
-1.3762765e-07
3.9387361e-06
-1.3019373e-07
3.9720488e-06
-1.2360368e-07
4.0049698e-06
-1.2780525e-07
4.0406087e-06
-1.3970186e-07
4.0777512e-06
-1.4510383e-07
4.1125988e-06
-1.3757729e-07
4.1461618e-06
-1.2571951e-07
4.1797191e-06
-1.1998344e-07
4.2134177e-06
-1.2492534e-07
4.2480472e-06
-1.349618e-07
4.2837778e-06
-1.3813047e-07
4.3176575e-06
-1.3311053e-07
4.3499556e-06
-1.2690006e-07
4.3846806e-06
-1.2651268e-07
4.4208548e-06
-1.267637e-07
4.454626e-06
-1.2525482e-07
4.4883897e-06
-1.2907293e-07
4.5239831e-06
-1.3757815e-07
4.5581743e-06
-1.3652031e-07
4.5891961e-06
-1.2542288e-07
4.6187871e-06
-1.1572561e-07
4.6512717e-06
-1.177369e-07
4.6864983e-06
-1.2532192e-07
4.7218593e-06
-1.2993267e-07
4.7568002e-06
-1.3314387e-07
4.7917779e-06
-1.3554508e-07
4.8256396e-06
-1.308415e-07
4.8570912e-06
-1.1990154e-07
4.8867272e-06
-1.1245468e-07
4.9181481e-06
-1.166375e-07
4.952207e-06
-1.2443358e-07
4.9856708e-06
-1.2673088e-07
5.0184076e-06
-1.2900909e-07
5.0519626e-06
-1.314521e-07
5.0858618e-06
-1.2874439e-07
5.1183758e-06
-1.2302262e-07
5.1498067e-06
-1.174659e-07
5.1819789e-06
-1.1515652e-07
5.2138111e-06
-1.1621828e-07
5.2447832e-06
-1.1827523e-07
5.2759501e-06
-1.2172492e-07
5.3083041e-06
-1.2615138e-07
5.341078e-06
-1.2639785e-07
5.3747692e-06
-1.2505754e-07
5.4098328e-06
-1.2498458e-07
5.4437811e-06
-1.1958666e-07
5.4735255e-06
-1.1185187e-07
5.5020096e-06
-1.1255338e-07
5.5318968e-06
-1.1764012e-07
5.5615252e-06
-1.1815146e-07
5.5899326e-06
-1.1671551e-07
5.6210222e-06
-1.1873773e-07
5.6559038e-06
-1.2073701e-07
5.6899765e-06
-1.1757566e-07
5.7214928e-06
-1.1521345e-07
5.7529535e-06
-1.1673227e-07
5.7843436e-06
-1.182979e-07
5.814969e-06
-1.1951846e-07
5.8445778e-06
-1.1703965e-07
5.8727145e-06
-1.0863659e-07
5.9007166e-06
-1.0459544e-07
5.9301947e-06
-1.0867684e-07
5.9607379e-06
-1.1285835e-07
5.99221e-06
-1.1470502e-07
6.0242264e-06
-1.1692024e-07
6.0556095e-06
-1.1813145e-07
6.0862051e-06
-1.1753095e-07
6.1156034e-06
-1.1490711e-07
6.1435831e-06
-1.1090147e-07
6.1720328e-06
-1.0945115e-07
6.2028087e-06
-1.1045288e-07
6.2337781e-06
-1.0810458e-07
6.2625385e-06
-1.0180683e-07
6.2904263e-06
-1.0191847e-07
6.3202917e-06
-1.096828e-07
6.3503203e-06
-1.137035e-07
6.3782177e-06
-1.1201188e-07
6.406371e-06
-1.115734e-07
6.4350121e-06
-1.1155505e-07
6.4640942e-06
-1.0629352e-07
6.4927316e-06
-1.0418191e-07
6.5218664e-06
-1.0153165e-07
6.5495973e-06
-1.0305446e-07
6.5774876e-06
-1.0303337e-07
6.6068196e-06
-1.0938551e-07
6.6355673e-06
-1.1175064e-07
6.6652261e-06
-1.1459622e-07
6.6956282e-06
-1.1749442e-07
6.7268048e-06
-1.1127457e-07
6.7545515e-06
-1.0308149e-07
6.7825797e-06
-9.5380547e-08
6.8086578e-06
-9.1698515e-08
6.8339344e-06
-9.1646972e-08
6.8562357e-06
-9.2458767e-08
6.8808394e-06
-9.9308409e-08
6.907774e-06
-1.0564677e-07
6.9362978e-06
-1.0894144e-07
6.966358e-06
-1.1224166e-07
6.9953238e-06
-1.1087136e-07
7.0275752e-06
-1.0618547e-07
7.0546462e-06
-9.6402362e-08
7.0821809e-06
-9.2061116e-08
7.1085005e-06
-9.2247658e-08
7.1323823e-06
-9.2805142e-08
7.157177e-06
-9.5810962e-08
7.1832002e-06
-9.9453697e-08
7.2091258e-06
-9.8925726e-08
7.2359417e-06
-9.8677286e-08
7.2623923e-06
-9.6749176e-08
7.2852421e-06
-8.8793467e-08
7.3105471e-06
-8.6155714e-08
7.333274e-06
-8.3711414e-08
7.3566215e-06
-7.9800128e-08
7.3808799e-06
-8.1267501e-08
7.4012095e-06
-7.408239e-08
7.4219708e-06
-6.9454638e-08
7.4440968e-06
-6.8542044e-08
7.4630199e-06
-6.195235e-08
7.483678e-06
-5.4457487e-08
7.5020991e-06
-4.7217703e-08
7.5163971e-06
-3.289668e-08
7.5309076e-06
-2.321345e-08
7.5391586e-06
-6.0921788e-09
7.5437344e-06
1.3855134e-08
7.546888e-06
3.3504236e-08
7.5409706e-06
5.9831241e-08
7.5324941e-06
9.1643528e-08
7.5170717e-06
1.1820655e-07
7.4938342e-06
1.6306007e-07
7.4666233e-06
2.003617e-07
7.4310562e-06
2.5799606e-07
7.3823397e-06
3.3160327e-07
7.3162103e-06
4.0970301e-07
7.2407378e-06
5.0849887e-07
7.1397467e-06
6.0814103e-07
7.0160551e-06
7.2933129e-07
6.8905079e-06
8.4819906e-07
6.7252647e-06
9.9884421e-07
6.5512809e-06
1.1686159e-06
6.3668556e-06
1.3417294e-06
6.1574798e-06
1.5390244e-06
5.9331461e-06
1.7555088e-06
5.6915279e-06
1.9693416e-06
5.4078031e-06
2.1792085e-06
5.0706851e-06
2.3796487e-06
4.6434579e-06
2.5618694e-06
4.090275e-06
2.7177172e-06
3.301184e-06
2.7756871e-06
2.171213e-06
2.7553408e-06
9.8580768e-07
2.5270309e-06
3.1332186e-07
2.274986e-06