/*--------------------------------*- C++ -*----------------------------------*\
| =========                 |                                                 |
| \\      /  F ield         | OpenFOAM: The Open Source CFD Toolbox           |
|  \\    /   O peration     | Version:  2106                                  |
|   \\  /    A nd           | Website:  www.openfoam.com                      |
|    \\/     M anipulation  |                                                 |
\*---------------------------------------------------------------------------*/
FoamFile
{
    version     2.0;
    format      ascii;
    arch        "LSB;label=32;scalar=64";
    class       volScalarField;
    location    "0.265";
    object      reconstructedDistanceFunction;
}
// * * * * * * * * * * * * * * * * * * * * * * * * * * * * * * * * * * * * * //

dimensions      [0 1 0 0 0 0 0];

internalField   nonuniform List<scalar> 
32768
(
0
0
0
0
0
0
0
0
0
0
0
0
0
0
0
0
0
0
0
0
0
0
0
0
0
0
0
0
0
0
0
0
0
0
0
0
0
0
0
0
0
0
0
0
0
0
0
0
0
0
0
0
0
0
0
0
0
0
0
0
0
0
0
0
0
0
0
0
0
0
0
0
0
0
0
0
0
0
0
0
0
0
0
0
0
0
0
0
0
0
0
0
0
0
0
0
0
0
0
0
0
0
0
0
0
0
0
0
0
0
0
0
0
0
0
0
0
0
0
0
0
0
0
0
0
0
0
0
0
0
0
0
0
0
0
0
0
0
0
0
0
0
0
0
0
0
0
0
0
0
0
0
0
0
0
0
0
0
0
0
0
0
0
0
0
0
0
0
0
0
0
0
0
0
0
0
0
0
0
0
0
0
0
0
0
0
0
0
0
0
0
0
0
0
0
0
0
0
0
0
0
0
0
0
0
0
0
0
0
0
0
0
0
0
0
0
0
0
0
0
0
0
0
0
0
0
0
0
0
0
0
0
0
0
0
0
0
0
0
0
0
0
0
0
0
0
0
0
0
0
0
0
0.002518507
0.0018870828
0.0012556585
0.00062423423
0
0
0
0
0
0
0
0
0
0
0
0
0
0
0
0
0
0
0
0
0
0
0
0
0
0
0
0
0
0
0
0
0
0
0
0
0
0
0
0
0
0
0
0
0
0
0
0
0
0
0
0
0
0
0
0
0
0
0
0
0
0
0
0
0
0
0
0
0
0
0
0
0
0
0
0
0
0
0
0
0
0
0
0
0
0
0
0
0
0
0
0
0
0
0
0
0
0
0
0
0
0
0
0
0
0
0
0
0
0
0
0
0
0
0
0
0
0
0
0
0
0
0
0
0
0
0
0
0
0
0
0
0
0
0
0
0
0
0
0
0
0
0
0
0
0
0
0
0
0
0
0
0
0
0
0
0
0
0
0
0
0
0
0
0
0
0
0
0
0
0
0
0
0
0
0
0
0
0
0
0
0
0
0
0
0
0
0
0
0
0
0
0
0
0
0
0
0
0
0
0
0
0
0
0
0
0
0
0
0
0
0
0
0
0
0
0
0
0
0
0
0
0
0
0
0
0
0
0
0
0
0
0
0
0
0
0
0
0
0
0
0
0
0
0
0
0
0
0
0
0
0
0.0031499313
0.002518507
0.0018870828
0.0012556585
0
0
0
0
0
0
0
0
0
0
0
0
0
0
0
0
0
0
0
0
0
0
0
0
0
0
0
0
0
0
0
0
0
0
0
0
0
0
0
0
0
0
0
0
0
0
0
0
0
0
0
0
0
0
0
0
0
0
0
0
0
0
0
0
0
0
0
0
0
0
0
0
0
0
0
0
0
0
0
0
0
0
0
0
0
0
0
0
0
0
0
0
0
0
0
0
0
0
0
0
0
0
0
0
0
0
0
0
0
0
0
0
0
0
0
0
0
0
0
0
0
0
0
0
0
0
0
0
0
0
0
0
0
0
0
0
0
0
0
0
0
0
0
0
0
0
0
0
0
0
0
0
0
0
0
0
0
0
0
0
0
0
0
0
0
0
0
0
0
0
0
0
0
0
0
0
0
0
0
0
0
0
0
0
0
0
0
0
0
0
0
0
0
0
0
0
0
0
0
0
0
0
0
0
0
0
0
0
0
0
0
0
0
0
0
0
0
0
0
0
0
0
0
0
0
0
0
0
0
0
0
0
0
0
0
0
0
0
0
0
0
0
0
0
0
0
0
0
0
0
0
0
0.0037813555
0.0031499312
0.002518507
0.0018870827
0
0
0
0
0
0
0
0
0
0
0
0
0
0
0
0
0
0
0
0
0
0
0
0
0
0
0
0
0
0
0
0
0
0
0
0
0
0
0
0
0
0
0
0
0
0
0
0
0
0
0
0
0
0
0
0
0
0
0
0
0
0
0
0
0
0
0
0
0
0
0
0
0
0
0
0
0
0
0
0
0
0
0
0
0
0
0
0
0
0
0
0
0
0
0
0
0
0
0
0
0
0
0
0
0
0
0
0
0
0
0
0
0
0
0
0
0
0
0
0
0
0
0
0
0
0
0
0
0
0
0
0
0
0
0
0
0
0
0
0
0
0
0
0
0
0
0
0
0
0
0
0
0
0
0
0
0
0
0
0
0
0
0
0
0
0
0
0
0
0
0
0
0
0
0
0
0
0
0
0
0
0
0
0
0
0
0
0
0
0
0
0
0
0
0
0
0
0
0
0
0
0
0
0
0
0
0
0
0
0
0
0
0
0
0
0
0
0
0
0
0
0
0
0
0
0
0
0
0
0
0
0
0
0
0
0
0
0
0
0
0
0
0
0
0
0
0
0
0
0
0
0
0.0044127798
0.0037813555
0.0031499313
0.002518507
0
0
0
0
0
0
0
0
0
0
0
0
0
0
0
0
0
0
0
0
0
0
0
0
0
0
0
0
0
0
0
0
0
0
0
0
0
0
0
0
0
0
0
0
0
0
0
0
0
0
0
0
0
0
0
0
0
0
0
0
0
0
0
0
0
0
0
0
0
0
0
0
0
0
0
0
0
0
0
0
0
0
0
0
0
0
0
0
0
0
0
0
0
0
0
0
0
0
0
0
0
0
0
0
0
0
0
0
0
0
0
0
0
0
0
0
0
0
0
0
0
0
0
0
0
0
0
0
0
0
0
0
0
0
0
0
0
0
0
0
0
0
0
0
0
0
0
0
0
0
0
0
0
0
0
0
0
0
0
0
0
0
0
0
0
0
0
0
0
0
0
0
0
0
0
0
0
0
0
0
0
0
0
0
0
0
0
0
0
0
0
0
0
0
0
0
0
0
0
0
0
0
0
0
0
0
0
0
0
0
0
0
0
0
0
0
0
0
0
0
0
0
0
0
0
0
0
0
0
0
0
0
0
0
0
0
0
0
0
0
0
0
0
0
0
0
0
0
0
0
0
0
0
0
0
0
0
0
0
0
0
0
0
0
0
0
0
0
0
0
0
0
0
0
0
0
0
0
0
0
0
0
0
0
0
0
0
0
0
0
0
0
0
0
0
0
0
0
0
0
0
0
0
0
0
0
0
0
0
0
0
0
0
0
0
0
0
0
0
0
0
0
0
0
0
0
0
0
0
0
0
0
0
0
0
0
0
0
0
0
0
0
0
0
0
0
0
0
0
0
0
0
0
0
0
0
0
0
0
0
0
0
0
0
0
0
0
0
0
0
0
0
0
0
0
0
0
0
0
0
0
0
0
0
0
0
0
0
0
0
0
0
0
0
0
0
0
0
0
0
0
0
0
0
0
0
0
0
0
0
0
0
0
0
0
0
0
0
0
0
0
0
0
0
0
0
0
0
0
0
0
0
0
0
0
0
0
0
0
0
0
0
0
0
0
0
0
0
0
0
0
0
0
0
0
0
0
0
0
0
0
0
0
0.0032448524
0.0031963751
0.003150855
0.0031046876
0.0030595036
0.003016868
0.0029748146
0.0029333168
0.0028928151
0.0028534135
0.0028155842
0.0027796698
0.0027456777
0.002714622
0.0026854878
0.0026604803
0.0026405158
0.002623583
0.0026144767
0.0026138106
0.002621805
0.0026407045
0.0026702906
0.0027134895
0.0027774206
0.0028604153
0.0029521891
0.0030821174
0.0032482493
0.003432168
0.0036355511
0
0
0
0
0
0
0
0
0
0
0
0
0
0
0
0
0
0
0
0
0
0
0
0
0
0
0
0
0
0
0
0
0
0
0
0
0
0
0
0
0
0
0
0
0
0
0
0
0
0
0
0
0
0
0
0
0
0
0
0
0
0
0
0
0
0
0
0
0
0
0
0
0
0
0
0
0
0
0
0
0
0
0
0
0
0
0
0
0
0
0
0
0
0
0
0
0
0
0
0
0
0
0
0
0
0
0
0
0
0
0
0
0
0
0
0
0
0
0
0
0
0
0
0
0
0
0
0
0
0
0
0
0
0
0
0
0
0
0
0
0
0
0
0
0
0
0
0
0
0
0
0
0
0
0
0
0
0
0
0
0
0
0
0
0
0
0
0
0
0
0
0
0
0
0
0
0
0
0
0
0
0
0
0
0
0
0
0
0
0
0
0
0
0
0
0
0
0
0
0
0
0
0
0
0
0
0
0.0032589995
0.0032055298
0.0031543409
0.0031021897
0.0030490978
0.0029976703
0.0029472526
0.002897509
0.0028479587
0.0027984516
0.0027489044
0.0026990552
0.0026490399
0.002599151
0.0025493255
0.002499656
0.002450737
0.0024023936
0.0023532251
0.0023046624
0.0022590647
0.0022128897
0.0021676347
0.002124914
0.0020828245
0.0020412965
0.0020007504
0.0019612905
0.0019233897
0.0018873954
0.0018533149
0.0018221745
0.0017929388
0.0017678101
0.0017477479
0.0017307155
0.0017215242
0.0017208495
0.001728941
0.0017480773
0.0017781485
0.0018223542
0.0018877611
0.0019726238
0.00206851
0.0022039177
0.0023708569
0.002559247
0.0027689248
0.0030049137
0.0032782626
0.0035812423
0.0039131299
0
0
0
0
0
0
0
0
0
0
0
0
0
0
0
0
0
0
0
0
0
0
0
0
0
0
0
0
0
0
0
0
0
0
0
0
0
0
0
0
0
0
0
0
0
0
0
0
0
0
0
0
0
0
0
0
0
0
0
0
0
0
0
0
0
0
0
0
0
0
0
0
0
0
0
0
0
0
0
0
0
0
0
0
0
0
0
0
0
0
0
0
0
0
0
0
0
0
0
0
0
0
0
0
0
0
0
0
0
0
0
0
0
0
0
0
0
0
0
0
0
0
0
0
0
0
0
0
0
0
0
0
0
0
0
0
0
0
0
0
0
0
0
0
0
0
0
0
0
0
0
0
0
0
0
0
0
0
0
0
0
0
0
0
0
0
0
0
0
0
0
0
0
0
0
0
0
0
0
0
0
0
0
0
0
0
0.003255254
0.0032017597
0.0031492538
0.0030969608
0.0030439549
0.0029922616
0.0029405649
0.0028890879
0.0028379082
0.0027867742
0.0027354641
0.0026834879
0.0026308491
0.002578395
0.0025257536
0.0024725923
0.0024202065
0.0023676047
0.0023140981
0.0022628711
0.0022107733
0.0021576699
0.002106171
0.0020556934
0.0020059215
0.0019563628
0.0019068557
0.0018573181
0.0018074822
0.0017574702
0.0017075788
0.0016577474
0.0016080507
0.0015590969
0.0015107616
0.0014615979
0.0014129496
0.0013672745
0.0013210918
0.0012757658
0.00123296
0.0011908343
0.0011492762
0.0011086858
0.0010691676
0.0010311953
0.00099512106
0.0009609521
0.00092972697
0.00090038984
0.00087513997
0.00085498003
0.00083784792
0.00082857173
0.00082788835
0.00083607696
0.00085545011
0.00088600633
0.00093121896
0.00099810155
0.0010848324
0.0011848308
0.001325718
0.0014981718
0.0016870033
0.0019022986
0.0021490782
0.0024393849
0.0027456561
0.0031039787
0.0034870989
0.0038836919
0
0
0
0
0
0
0
0
0
0
0
0
0
0
0
0
0
0
0
0
0
0
0
0
0
0
0
0
0
0
0
0
0
0
0
0
0
0
0
0
0
0
0
0
0
0
0
0
0
0
0
0
0
0
0
0
0
0
0
0
0
0
0
0
0
0
0
0
0
0
0
0
0
0
0
0
0
0
0
0
0
0
0
0
0
0
0
0
0
0
0
0
0
0
0
0
0
0
0
0
0
0
0
0
0
0
0
0
0
0
0
0
0
0
0
0
0
0
0
0
0
0
0
0
0
0
0
0
0
0
0
0
0
0
0
0
0
0
0
0
0
0
0
0
0
0
0
0
0
0
0
0
0
0
0
0
0
0
0
0
0
0
0
0
0
0
0
0.0032657158
0.0032123039
0.0031597118
0.0031066281
0.0030537604
0.0030007729
0.0029482729
0.0028959478
0.0028432498
0.0027908747
0.0027385294
0.0026856688
0.0026325532
0.0025786126
0.0025246285
0.0024711941
0.0024173026
0.002363892
0.0023103688
0.0022578318
0.0022055485
0.0021525246
0.0021007976
0.0020490871
0.0019975973
0.0019464049
0.001895271
0.0018439849
0.0017920471
0.001739426
0.0016869766
0.0016343506
0.001581183
0.0015287896
0.00147621
0.0014226665
0.0013714013
0.0013193569
0.001266242
0.0012146717
0.0011641343
0.001114334
0.0010647668
0.0010152598
0.00096573178
0.00091590908
0.00086590058
0.00081600656
0.00076616941
0.00071644539
0.00066745688
0.00061912968
0.00056997066
0.00052123684
0.00047548421
0.00042929396
0.00038389688
0.00034100603
0.00029884411
0.00025725592
0.00021662111
0.00017704465
0.00013900082
0.00010284665
6.8589326e-05
3.7279461e-05
7.8408647e-06
-1.753019e-05
-3.7787863e-05
-5.5019638e-05
-6.4380736e-05
-6.5072765e-05
-5.6787066e-05
-3.7177082e-05
-6.1358138e-06
4.0083692e-05
0.00010844204
0.00019704089
0.00030115168
0.0004475183
0.00062525067
0.00082037697
0.0010384118
0.0012988648
0.0015987582
0.0019211957
0.0022954007
0.0026826428
0.0030910278
0.0035259948
0.0039791829
0
0
0
0
0
0
0
0
0
0
0
0
0
0
0
0
0
0
0
0
0
0
0
0
0
0
0
0
0
0
0
0
0
0
0
0
0
0
0
0
0
0
0
0
0
0
0
0
0
0
0
0
0
0
0
0
0
0
0
0
0
0
0
0
0
0
0
0
0
0
0
0
0
0
0
0
0
0
0
0
0
0
0
0
0
0
0
0
0
0
0
0
0
0
0
0
0
0
0
0
0
0
0
0
0
0
0
0
0
0
0
0
0
0
0
0
0
0
0
0
0
0
0
0
0
0
0
0
0
0
0
0
0
0
0
0
0
0
0
0
0
0
0
0
0
0
0
0
0.0032828608
0.0032289212
0.003174688
0.0031221273
0.0030704576
0.0030175321
0.0029661786
0.0029137898
0.0028591679
0.0028041955
0.0027496252
0.0026959413
0.0026432318
0.0025901766
0.0025367399
0.0024826604
0.0024285601
0.0023743756
0.0023209164
0.0022683023
0.0022152308
0.0021623667
0.0021093651
0.0020568464
0.002004523
0.0019518266
0.0018994431
0.0018471052
0.0017942678
0.0017411877
0.0016872734
0.0016332813
0.0015798399
0.0015259487
0.0014725301
0.001418978
0.0013664097
0.0013141363
0.0012610943
0.0012093336
0.0011576094
0.0011061067
0.0010549017
0.0010037677
0.0009525058
0.00090060627
0.00084800283
0.00079555829
0.00074294759
0.00068977377
0.00063737276
0.00058481521
0.00053123482
0.00047993153
0.00042794055
0.0003748141
0.00032317243
0.00027257508
0.00022274644
0.00017317086
0.00012366384
7.4145455e-05
2.4336003e-05
-2.5669075e-05
-7.5565673e-05
-0.00012540863
-0.00017515992
-0.00022418317
-0.00027250226
-0.00032165659
-0.0003704759
-0.00041630607
-0.0004625039
-0.00050797204
-0.00055094796
-0.00059314607
-0.00063476437
-0.00067544354
-0.00071507829
-0.00075319363
-0.00078942774
-0.00082377348
-0.00085516803
-0.00088470812
-0.00091020035
-0.00093055575
-0.00094788719
-0.0009573332
-0.00095803388
-0.00094965109
-0.00092980428
-0.00089827795
-0.00085105157
-0.00078121747
-0.00069075059
-0.00058252747
-0.00042737994
-0.00024767041
-4.6249313e-05
0.00018257627
0.00045458886
0.00075372192
0.0011078837
0.001490574
0.0018871742
0.0023087157
0.0027551258
0.0032363508
0.003736616
0.00428858
0
0
0
0
0
0
0
0
0
0
0
0
0
0
0
0
0
0
0
0
0
0
0
0
0
0
0
0
0
0
0
0
0
0
0
0
0
0
0
0
0
0
0
0
0
0
0
0
0
0
0
0
0
0
0
0
0
0
0
0
0
0
0
0
0
0
0
0
0
0
0
0
0
0
0
0
0
0
0
0
0
0
0
0
0
0
0
0
0
0
0
0
0
0
0
0
0
0
0
0
0
0
0
0
0
0
0
0
0
0
0
0
0
0
0
0
0
0
0
0
0
0
0
0
0
0
0
0
0
0.0032824288
0.0032311195
0.0031797957
0.0031282701
0.0030776695
0.0030262947
0.0029751376
0.0029240178
0.0028724188
0.0028202243
0.0027679261
0.002714857
0.0026601859
0.0026053881
0.0025509352
0.0024978003
0.0024451952
0.0023915102
0.0023375982
0.0022833286
0.0022306938
0.0021790215
0.0021260788
0.0020747135
0.002022406
0.001967876
0.0019129205
0.0018583087
0.0018045642
0.001751827
0.0016987888
0.0016453857
0.0015913315
0.0015372396
0.0014830354
0.0014295289
0.0013768928
0.0013238335
0.001270973
0.0012179574
0.0011654198
0.0011130982
0.0010604035
0.0010080115
0.00095568104
0.00090286677
0.00084982221
0.00079593412
0.00074193402
0.00068848571
0.00063459479
0.00058116818
0.00052758715
0.00047498765
0.00042272398
0.00036966401
0.00031786957
0.00026613161
0.00021461615
0.0001633984
0.00011226445
6.1026659e-05
9.1654709e-06
-4.3420296e-05
-9.5860055e-05
-0.00014845544
-0.00020163548
-0.00025404412
-0.00030657954
-0.00036019684
-0.00041153825
-0.00046347583
-0.0005166138
-0.00056832687
-0.0006189841
-0.00066884108
-0.0007184251
-0.00076793206
-0.00081744087
-0.00086723708
-0.00091723873
-0.0009671379
-0.0010169867
-0.0010667652
-0.0011158232
-0.0011641342
-0.0012132838
-0.0012621887
-0.0013080963
-0.0013543018
-0.001399841
-0.001442902
-0.0014851362
-0.0015267847
-0.0015675082
-0.0016072012
-0.0016453881
-0.0016817021
-0.0017161363
-0.0017476155
-0.0017772571
-0.0018028705
-0.0018233236
-0.0018407548
-0.0018502857
-0.001850995
-0.0018425151
-0.0018224315
-0.0017904201
-0.0017421868
-0.001670877
-0.0015785421
-0.0014662066
-0.0013047723
-0.0011205915
-0.0009128756
-0.00067325925
-0.00038372594
-7.0738561e-05
0.00029930562
0.00068611791
0.0010945101
0.0015310688
0.0019980995
0.0024871895
0.0030339224
0.003583304
0.0041675683
0
0
0
0
0
0
0
0
0
0
0
0
0
0
0
0
0
0
0
0
0
0
0
0
0
0
0
0
0
0
0
0
0
0
0
0
0
0
0
0
0
0
0
0
0
0
0
0
0
0
0
0
0
0
0
0
0
0
0
0
0
0
0
0
0
0
0
0
0
0
0
0
0
0
0
0
0
0
0
0
0
0
0
0
0
0
0
0
0
0
0
0
0
0
0
0
0
0
0
0
0
0
0
0
0
0
0
0
0
0
0
0.003246283
0.0031991032
0.0031515756
0.0031033578
0.0030534403
0.0030034355
0.0029529244
0.0029020097
0.002850797
0.0027993964
0.0027480288
0.0026967088
0.0026457102
0.0025948693
0.0025441885
0.0024931548
0.0024421478
0.002390931
0.0023396278
0.0022883074
0.0022367638
0.0021861596
0.0021347935
0.0020836339
0.0020325241
0.001980953
0.0019287778
0.0018765053
0.0018235034
0.0017688957
0.0017141029
0.0016595963
0.0016064013
0.0015538001
0.0015001596
0.0014462751
0.0013919691
0.0013392603
0.0012875854
0.0012346255
0.0011832483
0.0011310222
0.0010765842
0.0010216455
0.00096699231
0.00091318714
0.00086042217
0.00080740112
0.00075403147
0.00070000266
0.00064591917
0.00059169527
0.00053814144
0.00048548337
0.00043243613
0.00037957923
0.00032654963
0.00027399333
0.00022167338
0.00016898028
0.00011657982
6.4256896e-05
1.146579e-05
-4.1543304e-05
-9.5405118e-05
-0.00014941321
-0.0002028685
-0.00025675911
-0.00031019374
-0.00036380369
-0.00041643441
-0.00046868829
-0.00052176627
-0.00057359444
-0.00062534615
-0.00067687444
-0.00072810486
-0.00077923881
-0.00083045248
-0.00088227532
-0.00093484343
-0.0009872784
-0.0010398585
-0.0010930447
-0.001145461
-0.0011979743
-0.0012516285
-0.001303008
-0.0013548922
-0.0014080417
-0.0014598262
-0.0015105433
-0.0015604286
-0.0016100211
-0.001659528
-0.0017090272
-0.0017588102
-0.0018088084
-0.0018587101
-0.0019085647
-0.0019583705
-0.0020074633
-0.0020557662
-0.0021049111
-0.0021539014
-0.0021998866
-0.0022460996
-0.0022917098
-0.0023348559
-0.0023771264
-0.002418805
-0.0024595728
-0.0024993242
-0.0025375825
-0.0025739765
-0.0026084991
-0.002640063
-0.0026698061
-0.0026955407
-0.0027160915
-0.0027336223
-0.0027432381
-0.0027439561
-0.0027353791
-0.0027150587
-0.0026825622
-0.0026333221
-0.0025605365
-0.0024663336
-0.0023488166
-0.0021821646
-0.0019935126
-0.0017839256
-0.0015248089
-0.0012243526
-0.00089519904
-0.00050595084
-0.00010934348
0.00031470629
0.00076374155
0.0012549578
0.0017706616
0.0023347943
0.0029080053
0.0035105905
0.0041334066
0
0
0
0
0
0
0
0
0
0
0
0
0
0
0
0
0
0
0
0
0
0
0
0
0
0
0
0
0
0
0
0
0
0
0
0
0
0
0
0
0
0
0
0
0
0
0
0
0
0
0
0
0
0
0
0
0
0
0
0
0
0
0
0
0
0
0
0
0
0
0
0
0
0
0
0
0
0
0
0
0
0
0
0
0
0
0
0
0
0
0.0032300669
0.0031913642
0.0031526859
0.0031133965
0.0030743216
0.0030339113
0.0029931096
0.0029510124
0.002908177
0.0028648725
0.0028205703
0.0027762751
0.0027312787
0.0026854119
0.0026395492
0.0025930391
0.0025448306
0.0024965198
0.0024489354
0.0024018472
0.0023545609
0.002307382
0.0022598828
0.0022117341
0.0021618622
0.0021118821
0.002061393
0.0020104998
0.0019593025
0.0019079084
0.0018565394
0.0018052094
0.0017541956
0.0017033444
0.001652667
0.0016016427
0.0015506426
0.0014994332
0.0014481361
0.0013968191
0.0013452575
0.0012946497
0.0012432923
0.0011921302
0.0011410303
0.0010894872
0.0010373312
0.00098508448
0.00093214969
0.00087760555
0.0008228178
0.00076825747
0.00071500231
0.00066240492
0.00060880902
0.00055495209
0.00050060961
0.00044782687
0.00039614921
0.00034317212
0.0002917832
0.00023963839
0.00018529228
0.00013037059
7.5675867e-05
2.1810078e-05
-3.0982665e-05
-8.3986608e-05
-0.00013732276
-0.00019132623
-0.00024540127
-0.00029964489
-0.00035324605
-0.00040592611
-0.00045896122
-0.0005118145
-0.00056485812
-0.00061743319
-0.00066975142
-0.00072244291
-0.00077485177
-0.00082716729
-0.00087993522
-0.00093290878
-0.00098674433
-0.0010407605
-0.0010942227
-0.001148113
-0.0012015557
-0.0012551945
-0.0013078565
-0.0013601006
-0.0014131966
-0.0014650584
-0.0015168239
-0.001568365
-0.0016196081
-0.0016707421
-0.0017219316
-0.0017737161
-0.0018262666
-0.0018786967
-0.0019312615
-0.001984454
-0.0020368779
-0.002089369
-0.0021430601
-0.0021944778
-0.0022463086
-0.0022994696
-0.0023513255
-0.0024021025
-0.0024520161
-0.002501617
-0.0025511239
-0.0026006135
-0.0026503832
-0.002700378
-0.0027502824
-0.0028001427
-0.0028499758
-0.0028991033
-0.0029473981
-0.0029965383
-0.0030456142
-0.0030916768
-0.0031374055
-0.0031835788
-0.0032268099
-0.0032691166
0
0
0
0
0
0
0
0
0
0
0
0
0
0
0
0
0
-0.003450196
-0.003354125
-0.0032270163
-0.0030545878
-0.0028614235
-0.0026397611
-0.0023690848
-0.0020626728
-0.0016967894
-0.0013104069
-0.0009025728
-0.00046031549
1.670637e-05
0.00052123503
0.0010801366
0.0016484422
0.0022484121
0.0028708186
0.0035209197
0.0042087042
0
0
0
0
0
0
0
0
0
0
0
0
0
0
0
0
0
0
0
0
0
0
0
0
0
0
0
0
0
0
0
0
0
0
0
0
0
0
0
0
0
0
0
0
0
0
0
0
0
0
0
0
0
0
0
0
0
0
0
0
0
0
0
0
0
0
0.0032474367
0.0032080067
0.0031684116
0.0031299075
0.0030909633
0.0030522779
0.0030140646
0.0029755109
0.002937012
0.0028985993
0.0028600004
0.002821551
0.0027826961
0.002743667
0.0027045802
0.0026644759
0.0026239916
0.0025835418
0.0025419132
0.0025006597
0.0024590787
0.0024178945
0.0023775132
0.0023379576
0.0022992337
0.0022605641
0.0022212846
0.0021822317
0.0021418587
0.0021010987
0.0020590469
0.0020162454
0.0019729745
0.0019286964
0.0018844218
0.0018394606
0.0017936155
0.0017477715
0.0017013199
0.0016531654
0.0016048466
0.0015572273
0.0015101252
0.0014628388
0.0014156608
0.00136819
0.0013201105
0.0012702841
0.0012203286
0.0011698617
0.0011189899
0.0010678081
0.0010164205
0.00096505001
0.00091370992
0.00086268101
0.00081181937
0.00076114561
0.00071013051
0.00065913737
0.00060793543
0.00055664444
0.00050533085
0.0004539213
0.00040313987
0.0003517911
0.00030062653
0.00024953657
0.00019802133
0.00014588469
9.3663694e-05
4.0796002e-05
-1.3684597e-05
-6.8467337e-05
-0.00012308141
-0.00017639669
-0.0002289902
-0.00028254157
-0.00033637096
-0.00039074987
-0.00044357453
-0.00049528693
-0.00054828122
-0.00059968191
-0.00065174544
-0.0007059996
-0.00076090437
-0.00081564057
-0.00086956699
-0.0009223875
-0.00097537434
-0.001028677
-0.0010826551
-0.0011367217
-0.0011909851
-0.0012446335
-0.0012973356
-0.0013503586
-0.0014032082
-0.0014562659
-0.0015088597
-0.0015611762
-0.0016138661
-0.0016662834
-0.0017185914
-0.0017713362
-0.0018242743
-0.0018780836
-0.0019321077
-0.0019855769
-0.0020394669
-0.0020929176
-0.0021465854
-0.0021992785
-0.0022515129
-0.0023046268
-0.0023565224
-0.0024083017
-0.0024598556
-0.0025111114
-0.0025622453
-0.0026134108
-0.0026651569
-0.0027176897
-0.0027701151
-0.0028226645
-0.0028758632
-0.0029282948
-0.0029807638
-0.0030344918
-0.0030859476
-0.0031377132
-0.0031908974
-0.0032428248
-0.0032936616
0
0
0
0
0
0
0
0
0
0
0
0
0
0
0
0
0
0
0
0
0
0
0
0
0
0
0
0
0
0
0
0
0
0
0
0
0
0
0
-0.0037280498
-0.0034955966
-0.0032068368
-0.0028871333
-0.0025024757
-0.0021058612
-0.0016793031
-0.001221545
-0.00072819151
-0.00017452103
0.00038887911
0.00098623379
0.0016082306
0.0022636216
0.0029514062
0.0036613504
0
0
0
0
0
0
0
0
0
0
0
0
0
0
0
0
0
0
0
0
0
0
0
0
0
0
0
0
0
0
0
0
0
0
0
0
0
0
0
0
0
0
0
0
0
0.003264304
0.0032165353
0.0031691787
0.0031225334
0.0030766475
0.0030297982
0.0029846081
0.0029401437
0.0028950505
0.0028511607
0.0028074171
0.0027639613
0.0027217642
0.0026792228
0.0026373361
0.0025961862
0.0025551938
0.0025146495
0.0024745168
0.0024341753
0.0023945306
0.0023553347
0.0023159111
0.0022762997
0.0022377823
0.0021988387
0.0021601396
0.002121921
0.0020833719
0.0020448727
0.0020064603
0.0019678622
0.0019294186
0.0018905732
0.0018515511
0.0018124869
0.0017724112
0.0017319408
0.0016915137
0.001649905
0.001608656
0.0015670722
0.0015258641
0.0014854441
0.0014458484
0.0014071033
0.0013684422
0.0013291728
0.0012901419
0.0012498061
0.0012090878
0.0011670813
0.0011243139
0.0010810765
0.0010368226
0.00099256841
0.00094764255
0.0009018191
0.00085599375
0.00080960073
0.00076150017
0.00071317345
0.00066551923
0.00061840321
0.00057111668
0.00052393965
0.00047649725
0.00042848679
0.00037870595
0.0003287751
0.00027833031
0.00022748
0.0001763136
0.00012493254
7.3560632e-05
2.2210461e-05
-2.8833611e-05
-7.9705578e-05
-0.0001303758
-0.00018138163
-0.00023236786
-0.00028356235
-0.00033484728
-0.00038615742
-0.00043758051
-0.00048837001
-0.00053971009
-0.00059087718
-0.0006419572
-0.00069344447
-0.00074556184
-0.00079775709
-0.00085055766
-0.00090497478
-0.00095975248
-0.0010144203
-0.0010677957
-0.0011203853
-0.0011738922
-0.001227694
-0.0012821094
-0.0013350024
-0.0013867231
-0.0014397346
-0.001491147
-0.0015431293
-0.0015972915
-0.0016521793
-0.001706957
-0.001760944
-0.0018137923
-0.0018667621
-0.0019200312
-0.001973984
-0.0020280422
-0.0020823252
-0.002136021
-0.0021887451
-0.002241445
-0.002294602
-0.0023476736
-0.0024002862
-0.002452601
-0.0025052893
-0.002557715
-0.0026100156
-0.0026627372
-0.0027156398
-0.0027694228
-0.002823455
-0.0028769311
-0.0029308209
-0.0029842795
-0.0030379762
-0.0030907006
-0.0031429251
-0.0031960571
-0.0032479864
-0.0032997794
0
0
0
0
0
0
0
0
0
0
0
0
0
0
0
0
0
0
0
0
0
0
0
0
0
0
0
0
0
0
0
0
0
0
0
0
0
0
0
0
0
0
0
0
0
0
0
0
0
0
0
0
0
0
0
0
0
0
-0.0040474635
-0.0036928845
-0.0033069318
-0.0028965822
-0.0024516997
-0.0019646867
-0.0014291787
-0.00087068395
-0.00027594453
0.00034564265
0.0010063236
0.0016923382
0.0024136236
0.003189185
0.0039555075
0
0
0
0
0
0
0
0
0
0
0
0
0
0
0
0
0
0
0
0
0
0
0
0
0.0031740121
0.0031576763
0.0031367135
0.0031123973
0.0030825594
0.0030512143
0.0030149533
0.002976797
0.0029367663
0.0028935458
0.0028500527
0.0028039625
0.0027578524
0.00271011
0.0026625693
0.0026142811
0.0025658277
0.0025171491
0.0024688359
0.0024210779
0.0023726342
0.0023248432
0.0022774523
0.0022307701
0.0021848867
0.0021380173
0.0020927755
0.0020482971
0.0020031922
0.0019592757
0.0019155137
0.0018720251
0.001829805
0.0017872524
0.0017453384
0.001704165
0.0016631561
0.0016225952
0.0015824565
0.0015421032
0.0015024346
0.0014632326
0.0014238155
0.0013841879
0.0013456487
0.0013067141
0.0012680014
0.0012297774
0.001191233
0.0011527334
0.0011143212
0.001075724
0.0010372862
0.00099845037
0.00095943514
0.00092039352
0.00088034641
0.00083988992
0.00079948567
0.00075789686
0.00071665234
0.00067506569
0.00063383376
0.00059337504
0.00055373913
0.00051497281
0.0004763203
0.00043706099
0.00039805204
0.00035775354
0.0003170769
0.00027511581
0.0002323823
0.00018917846
0.00014494866
0.00010071506
5.582446e-05
1.0022712e-05
-3.5783969e-05
-8.2118479e-05
-0.00013016505
-0.00017849972
-0.00022618887
-0.0002733188
-0.00032060543
-0.00036778155
-0.00041519553
-0.00046313688
-0.00051287217
-0.00056277837
-0.00061320105
-0.00066402991
-0.00071518086
-0.0007665554
-0.00081792875
-0.000869289
-0.0009203482
-0.00097123056
-0.0010218972
-0.0010728937
-0.0011238731
-0.0011750601
-0.001226339
-0.0012776457
-0.0013290823
-0.0013798799
-0.0014312113
-0.0014823809
-0.001533451
-0.0015849103
-0.0016370084
-0.0016891779
-0.0017419113
-0.0017962649
-0.0018510376
-0.0019057592
-0.0019591947
-0.0020117804
-0.0020652427
-0.0021190171
-0.0021734688
-0.0022264302
-0.0022781592
-0.0023311879
-0.0023826122
-0.0024345131
-0.0024885834
-0.0025434543
-0.0025982735
-0.0026523211
-0.0027051972
-0.0027581498
-0.0028113855
-0.0028653129
-0.0029193626
-0.0029736654
-0.0030274085
-0.0030801545
-0.0031328452
-0.0031859957
-0.0032390814
-0.0032917127
0
0
0
0
0
0
0
0
0
0
0
0
0
0
0
0
0
0
0
0
0
0
0
0
0
0
0
0
0
0
0
0
0
0
0
0
0
0
0
0
0
0
0
0
0
0
0
0
0
0
0
0
0
0
0
0
0
0
0
0
0
0
0
0
0
0
0
0
0
0
0
0
0
0
0
0
0
-0.0041023789
-0.0036733125
-0.0032029381
-0.0026838364
-0.002130247
-0.0015381228
-0.0009169453
-0.00025097442
0.00044461143
0.0011981264
0.0019644489
0.0027247518
0.0035282734
0
0
0
0
0.0031053477
0.0029436365
0.0028017238
0.0026834043
0.0025966871
0.0025271366
0.0024718669
0.0024293564
0.0023968418
0.0023715788
0.0023523486
0.0023382754
0.0023285219
0.00232217
0.0023180823
0.0023152067
0.0023124846
0.0023085789
0.0023026521
0.0022935071
0.0022811548
0.002264891
0.0022440279
0.0022198371
0.0021900979
0.0021588765
0.0021227432
0.0020846795
0.002044753
0.0020016214
0.0019582009
0.0019121766
0.001866115
0.0018184082
0.0017708867
0.001722621
0.0016741828
0.0016254989
0.0015771639
0.0015294055
0.0014809644
0.0014331511
0.0013857259
0.0013390069
0.0012931259
0.0012462364
0.001200943
0.0011564505
0.0011113338
0.0010673908
0.0010236102
0.00098008883
0.00093784579
0.00089528204
0.0008533408
0.00081214374
0.00077111827
0.0007305408
0.00069039624
0.00065003113
0.00061033859
0.00057113055
0.00053171996
0.00049207613
0.00045352173
0.00041458946
0.00037586313
0.00033763378
0.00029909401
0.00026059407
0.00022218219
0.00018358581
0.00014515379
0.00010632752
6.7319229e-05
2.8300161e-05
-1.1718338e-05
-5.2160947e-05
-9.2542393e-05
-0.00013411128
-0.00017535132
-0.00021694082
-0.00025819659
-0.00029869403
-0.00033837012
-0.00037715766
-0.00041580158
-0.00045505084
-0.00049403782
-0.00053429905
-0.000574934
-0.00061684972
-0.00065954925
-0.00070271954
-0.00074692522
-0.00079113829
-0.00083599363
-0.00088177368
-0.00092756169
-0.00097383769
-0.0010218303
-0.0010701729
-0.001117897
-0.0011650408
-0.0012123275
-0.0012595027
-0.0013068883
-0.0013547606
-0.0014044503
-0.0014543318
-0.0015047324
-0.0015555398
-0.0016066753
-0.0016580433
-0.0017094181
-0.0017607885
-0.0018118628
-0.0018627555
-0.0019134186
-0.0019644059
-0.0020153783
-0.0020665579
-0.0021178307
-0.002169134
-0.0022205841
-0.0022713898
-0.0023227125
-0.0023738846
-0.0024249447
-0.0024763761
-0.0025284549
-0.0025805987
-0.002633265
-0.0026875551
-0.0027423228
-0.002797098
-0.0028505937
-0.0029031756
-0.0029565933
-0.0030103401
-0.0030648283
-0.003117858
-0.0031695954
-0.0032226412
-0.0032740773
0
0
0
0
0
0
0
0
0
0
0
0
0
0
0
0
0
0
0
0
0
0
0
0
0
0
0
0
0
0
0
0
0
0
0
0
0
0
0
0
0
0
0
0
0
0
0
0
0
0
0
0
0
0
0
0
0
0
0
0
0
0
0
0
0
0
0
0
0
0
0
0
0
0
0
0
0
0
0
0
0
0
0
0
0
0
0
0
0
0
0
0
0
0
0
0
-0.0039435725
-0.0033829644
-0.0028003012
-0.0021795333
-0.0015082724
-0.00080311536
-2.6609677e-05
0.00072816241
0.001531684
0.002351726
0.0031653337
0
0
0
0
0.0022418002
0.0020582803
0.0019201037
0.0017975331
0.0017077693
0.0016365572
0.0015803322
0.0015372202
0.001504356
0.0014788928
0.0014595378
0.0014453866
0.0014355889
0.0014292158
0.0014251197
0.0014222418
0.0014195213
0.0014156228
0.0014097137
0.0014006006
0.0013882975
0.0013721058
0.0013513423
0.001327277
0.0012976364
0.0012665387
0.001230533
0.001192562
0.0011527396
0.001109697
0.001066349
0.0010203906
0.00097437759
0.00092670636
0.000879204
0.00083096086
0.00078253795
0.0007338488
0.00068549194
0.0006377331
0.00058929457
0.00054145907
0.00049399947
0.0004472436
0.00040136518
0.00035445545
0.0003091105
0.00026460387
0.00021947552
0.00017550593
0.00013170675
8.8152585e-05
4.5886575e-05
3.3116621e-06
-3.8656826e-05
-7.9877481e-05
-0.00012091951
-0.00016151357
-0.00020166406
-0.00024204093
-0.00028175741
-0.00032097151
-0.00036037562
-0.00040003567
-0.00043860525
-0.00047753514
-0.00051627511
-0.00055450983
-0.00059304494
-0.00063154523
-0.00066995686
-0.00070855239
-0.00074697862
-0.00078579533
-0.00082479669
-0.00086379319
-0.00090378308
-0.00094421181
-0.00098457045
-0.0010261194
-0.001067355
-0.0011089473
-0.0011502269
-0.0011907631
-0.0012304794
-0.0012692881
-0.0013079235
-0.0013471627
-0.0013861277
-0.0014263516
-0.0014669449
-0.0015088152
-0.0015514808
-0.0015946175
-0.0016387991
-0.0016829916
-0.0017278117
-0.0017735701
-0.0018193394
-0.0018655569
-0.0019134955
-0.001961846
-0.0020096051
-0.0020567628
-0.0021040496
-0.0021512239
-0.0021985811
-0.0022463842
-0.0022960284
-0.0023458853
-0.0023962638
-0.0024470497
-0.0024981698
-0.0025495313
-0.0026009075
-0.0026522879
-0.0027033774
-0.0027542805
-0.00280494
-0.002855918
-0.0029068835
-0.0029580557
-0.0030093224
-0.0030606223
-0.0031120859
-0.0031628996
-0.0032142137
-0.0032653883
0
0
0
0
0
0
0
0
0
0
0
0
0
0
0
0
0
0
0
0
0
0
0
0
0
0
0
0
0
0
0
0
0
0
0
0
0
0
0
0
0
0
0
0
0
0
0
0
0
0
0
0
0
0
0
0
0
0
0
0
0
0
0
0
0
0
0
0
0
0
0
0
0
0
0
0
0
0
0
0
0
0
0
0
0
0
0
0
0
0
0
0
0
0
0
0
0
0
0
0
0
0
0
0
0
0
0
0
0
0
0
0
0
0
-0.0040624795
-0.0034421213
-0.0027655705
-0.0020176683
-0.0012513458
-0.00046490539
0.00035649468
0.0011701024
0.0020135109
0.002846373
0.003679235
0
0
0
0.0013679182
0.0011817465
0.0010384836
0.00091166187
0.00081885143
0.00074597778
0.00068879749
0.00064508401
0.00061187026
0.00058620681
0.00056672702
0.00055249776
0.00054265595
0.00053626158
0.00053215715
0.00052927692
0.00052655804
0.00052266669
0.00051677526
0.00050769422
0.00049544016
0.00047932053
0.00045865672
0.00043471677
0.00040517492
0.00037420087
0.00033832284
0.00030044442
0.00026072621
0.00021777266
0.00017449719
0.00012860463
8.2640176e-05
3.5004524e-05
-1.2478679e-05
-6.0699272e-05
-0.00010910691
-0.00015780135
-0.00020618004
-0.00025393931
-0.00030237523
-0.00035023301
-0.00039772694
-0.00044445676
-0.00049039559
-0.00053732547
-0.00058272202
-0.00062724274
-0.00067238281
-0.00071637898
-0.0007601967
-0.00080378366
-0.00084607264
-0.00088865871
-0.00093065445
-0.0009718987
-0.0010129573
-0.0010535679
-0.0010937244
-0.001134113
-0.0011738534
-0.0012130736
-0.0012524712
-0.0012921475
-0.0013307322
-0.0013696597
-0.0014084134
-0.0014466534
-0.0014851839
-0.0015236845
-0.0015620959
-0.0016006906
-0.001639111
-0.0016779182
-0.0017169126
-0.0017558865
-0.0017958478
-0.0018362627
-0.0018765985
-0.0019181276
-0.0019593586
-0.0020009539
-0.0020422573
-0.0020828322
-0.0021225886
-0.0021614186
-0.0022000453
-0.0022392745
-0.0022782175
-0.0023184042
-0.0023589558
-0.0024007808
-0.0024434124
-0.0024865155
-0.002530673
-0.002574845
-0.0026196298
-0.0026653665
-0.0027111171
-0.0027572761
-0.0028051607
-0.0028535192
-0.0029013132
-0.0029484848
-0.0029957718
-0.0030429451
-0.0030902739
-0.0031380551
-0.0031876066
-0.0032374388
-0.0032877951
0
0
0
0
0
0
0
0
0
0
0
0
0
0
0
0
0
0
0
0
0
0
0
0
0
0
0
0
0
0
0
0
0
0
0
0
0
0
0
0
0
0
0
0
0
0
0
0
0
0
0
0
0
0
0
0
0
0
0
0
0
0
0
0
0
0
0
0
0
0
0
0
0
0
0
0
0
0
0
0
0
0
0
0
0
0
0
0
0
0
0
0
0
0
0
0
0
0
0
0
0
0
0
0
0
0
0
0
0
0
0
0
0
0
0
0
0
0
0
0
0
0
0
0
0
0
0
0
0
0
0
0
-0.0040198544
-0.0032424044
-0.0024614948