/*--------------------------------*- C++ -*----------------------------------*\
| =========                 |                                                 |
| \\      /  F ield         | OpenFOAM: The Open Source CFD Toolbox           |
|  \\    /   O peration     | Version:  2106                                  |
|   \\  /    A nd           | Website:  www.openfoam.com                      |
|    \\/     M anipulation  |                                                 |
\*---------------------------------------------------------------------------*/
FoamFile
{
    version     2.0;
    format      ascii;
    arch        "LSB;label=32;scalar=64";
    class       volVectorField;
    location    "0.265";
    object      U;
}
// * * * * * * * * * * * * * * * * * * * * * * * * * * * * * * * * * * * * * //

dimensions      [0 1 -1 0 0 0 0];

internalField   nonuniform List<vector> 
32768
(
(-0.0011031898 0.00043589674 0)
(-0.00049658889 -0.00047663178 0)
(0.002036251 -0.001071602 0)
(0.0056015277 -0.0014736575 0)
(0.009801947 -0.0016759757 0)
(0.014308527 -0.0017938111 0)
(0.018965623 -0.0018499738 0)
(0.023694701 -0.0018659667 0)
(0.02846312 -0.0019072926 0)
(0.033228001 -0.0019565065 0)
(0.037971874 -0.0020093714 0)
(0.042663357 -0.0020426832 0)
(0.047322558 -0.0020791127 0)
(0.051919281 -0.0021107319 0)
(0.056461638 -0.0021046852 0)
(0.060979284 -0.0021796803 0)
(0.065434624 -0.0021095618 0)
(0.069821182 -0.0022144453 0)
(0.074240222 -0.0021428455 0)
(0.078614855 -0.0021748765 0)
(0.082887448 -0.0022329435 0)
(0.087264588 -0.0021369101 0)
(0.091605187 -0.0022337876 0)
(0.095806123 -0.0022457295 0)
(0.10010611 -0.0021620927 0)
(0.10449287 -0.0022511734 0)
(0.10874693 -0.0022757266 0)
(0.11293919 -0.0022177171 0)
(0.1172529 -0.0022237325 0)
(0.12162801 -0.0023122262 0)
(0.12591585 -0.0022720184 0)
(0.13011253 -0.0022513679 0)
(0.13434075 -0.0022776332 0)
(0.1387187 -0.0022834849 0)
(0.14308961 -0.0023104212 0)
(0.14730294 -0.0023027272 0)
(0.15147057 -0.0022597912 0)
(0.15570632 -0.0022507439 0)
(0.16001633 -0.0023267435 0)
(0.16437409 -0.0023157299 0)
(0.16862356 -0.0022657975 0)
(0.17266455 -0.0022423339 0)
(0.17674802 -0.0022392681 0)
(0.18100579 -0.0022877486 0)
(0.1853231 -0.0022695787 0)
(0.18953746 -0.0022568943 0)
(0.19350615 -0.0022247342 0)
(0.19743403 -0.0021483303 0)
(0.20155699 -0.0022118829 0)
(0.2057188 -0.0022645223 0)
(0.20973739 -0.0021663401 0)
(0.2136916 -0.0021326004 0)
(0.21770941 -0.0021853739 0)
(0.22170569 -0.0021566822 0)
(0.22551756 -0.002090189 0)
(0.22924378 -0.0020904083 0)
(0.23312856 -0.0021205578 0)
(0.23716551 -0.0021265362 0)
(0.24109242 -0.0021047786 0)
(0.2447987 -0.0020349494 0)
(0.24845027 -0.0020024548 0)
(0.25215734 -0.0020538521 0)
(0.25588144 -0.0020318373 0)
(0.25953601 -0.0019842025 0)
(0.26312693 -0.0020132968 0)
(0.26686508 -0.0020140486 0)
(0.27075355 -0.0019893195 0)
(0.27443011 -0.0019815052 0)
(0.27776022 -0.001897542 0)
(0.28101014 -0.0018389971 0)
(0.28448309 -0.0019367378 0)
(0.28825998 -0.0020182736 0)
(0.29206798 -0.0019560776 0)
(0.29555466 -0.0018761254 0)
(0.29875509 -0.0018381841 0)
(0.30206868 -0.0018285477 0)
(0.30567427 -0.0018896535 0)
(0.30928922 -0.0019361777 0)
(0.31265366 -0.0018498396 0)
(0.31583689 -0.00177164 0)
(0.31904525 -0.001824258 0)
(0.32246198 -0.0018729916 0)
(0.32607011 -0.0018507401 0)
(0.32960977 -0.0018594476 0)
(0.33291345 -0.0018005708 0)
(0.33608744 -0.0017098328 0)
(0.33924204 -0.0017739115 0)
(0.34244742 -0.0018236406 0)
(0.34575058 -0.0017648896 0)
(0.34906694 -0.0017758102 0)
(0.3523293 -0.0017992958 0)
(0.35561234 -0.0017439751 0)
(0.35891111 -0.001721882 0)
(0.36214471 -0.0017389784 0)
(0.36537053 -0.0017331869 0)
(0.36862441 -0.0017343286 0)
(0.37179607 -0.0017117306 0)
(0.37483511 -0.0016938452 0)
(0.37782873 -0.0017301707 0)
(0.38095188 -0.001716163 0)
(0.38430515 -0.0016876728 0)
(0.38771835 -0.0017583044 0)
(0.39095052 -0.0017293084 0)
(0.39397353 -0.0015826683 0)
(0.39688795 -0.0015903655 0)
(0.39985999 -0.0016929191 0)
(0.40304467 -0.0016793092 0)
(0.40635144 -0.0016534241 0)
(0.4095419 -0.0016760451 0)
(0.4125719 -0.0016422463 0)
(0.41552504 -0.0016127134 0)
(0.41845563 -0.001626911 0)
(0.42143541 -0.0016198623 0)
(0.42453237 -0.0016181964 0)
(0.42774655 -0.0016363842 0)
(0.43096582 -0.0016045463 0)
(0.43402071 -0.001528838 0)
(0.43687122 -0.0015211581 0)
(0.43966256 -0.0015706733 0)
(0.44256651 -0.0015788207 0)
(0.44561942 -0.0015658804 0)
(0.4487294 -0.0016262428 0)
(0.45182696 -0.0016011232 0)
(0.45485989 -0.0014837704 0)
(0.45770843 -0.0014890696 0)
(0.46039264 -0.0015357692 0)
(0.46315991 -0.0014964694 0)
(0.46611656 -0.0014955174 0)
(0.4691273 -0.0015652954 0)
(0.47217742 -0.0015414493 0)
(0.47529567 -0.0014540369 0)
(0.47831207 -0.0014554428 0)
(0.48112836 -0.0014736821 0)
(0.48384551 -0.0014391419 0)
(0.48654249 -0.0014467061 0)
(0.48926036 -0.0014716886 0)
(0.49206482 -0.0014841005 0)
(0.49498078 -0.0014723276 0)
(0.49794822 -0.0014710263 0)
(0.50087138 -0.001443488 0)
(0.50371451 -0.0014056474 0)
(0.50649623 -0.0013635734 0)
(0.50918666 -0.0013758225 0)
(0.51181974 -0.0013757008 0)
(0.51454257 -0.0013386114 0)
(0.51736857 -0.0013417053 0)
(0.52017158 -0.0013802429 0)
(0.5229307 -0.0013685808 0)
(0.52567501 -0.0013068447 0)
(0.52834074 -0.0012947532 0)
(0.5309083 -0.0013522633 0)
(0.53349986 -0.0013514626 0)
(0.5361886 -0.0012789398 0)
(0.53891976 -0.0012942832 0)
(0.54163237 -0.0013328112 0)
(0.54429472 -0.0012698091 0)
(0.54685811 -0.0012195968 0)
(0.54932452 -0.0012620751 0)
(0.55180734 -0.0012782296 0)
(0.55439475 -0.0012627031 0)
(0.55705847 -0.0012519527 0)
(0.55972705 -0.001257486 0)
(0.56237678 -0.0012218484 0)
(0.56503435 -0.0011807138 0)
(0.56766918 -0.0011733497 0)
(0.57020406 -0.0011785835 0)
(0.57262965 -0.001166477 0)
(0.57501739 -0.0011884748 0)
(0.57738159 -0.0012184634 0)
(0.5797095 -0.001190663 0)
(0.58208082 -0.001191498 0)
(0.58459833 -0.0012242293 0)
(0.58722672 -0.0012160433 0)
(0.58984977 -0.0011594513 0)
(0.59241076 -0.0011470717 0)
(0.59489707 -0.0011485703 0)
(0.59726827 -0.0011434723 0)
(0.59954789 -0.0011160818 0)
(0.60182325 -0.001126397 0)
(0.60415666 -0.0011497163 0)
(0.60656762 -0.0011330494 0)
(0.6090375 -0.0010795628 0)
(0.61159226 -0.0010502254 0)
(0.61414244 -0.0010825594 0)
(0.61665911 -0.0010803428 0)
(0.61901415 -0.0010633663 0)
(0.62118922 -0.0010290062 0)
(0.62326656 -0.0010825777 0)
(0.62532121 -0.0011066068 0)
(0.62750863 -0.0010965967 0)
(0.62979434 -0.0010532996 0)
(0.63220862 -0.0010673272 0)
(0.63467818 -0.001126293 0)
(0.63710581 -0.0010171957 0)
(0.63952118 -0.001001784 0)
(0.64179827 -0.0009807682 0)
(0.64394177 -0.0010352673 0)
(0.64593141 -0.00094948324 0)
(0.6478739 -0.0009478724 0)
(0.6498852 -0.00095342478 0)
(0.65200437 -0.00097694766 0)
(0.65419116 -0.00090871335 0)
(0.65635786 -0.00085318216 0)
(0.65851314 -0.00078574635 0)
(0.66049734 -0.00079134414 0)
(0.66242949 -0.00071013789 0)
(0.66410918 -0.00062391619 0)
(0.66580986 -0.00069810333 0)
(0.66730012 -0.00060854931 0)
(0.6687874 -0.0005545799 0)
(0.67015581 -0.00043808735 0)
(0.6712528 -0.00037431715 0)
(0.67234581 -0.00019291072 0)
(0.67308037 -7.3313641e-05 0)
(0.67358974 9.4212758e-05 0)
(0.67388529 0.00048585912 0)
(0.67366838 0.00072106521 0)
(0.67303063 0.0009889344 0)
(0.67185632 0.0013093405 0)
(0.67010386 0.0017180684 0)
(0.66757673 0.00224203 0)
(0.664162 0.0028316664 0)
(0.65969494 0.0035461421 0)
(0.65397812 0.0043837747 0)
(0.64688501 0.0053140576 0)
(0.63796174 0.0064299617 0)
(0.62728179 0.0076872381 0)
(0.61375768 0.0092888257 0)
(0.59761596 0.011196282 0)
(0.57810394 0.01348618 0)
(0.55450926 0.016174847 0)
(0.5264826 0.019334738 0)
(0.49330439 0.022964072 0)
(0.45375659 0.027212497 0)
(0.40682941 0.032277299 0)
(0.35193451 0.038143231 0)
(0.28675319 0.044619862 0)
(0.21225135 0.050718822 0)
(0.12827341 0.052611851 0)
(0.03722206 0.039512623 0)
(-0.033708585 0.014868017 0)
(-0.088039538 -0.0060627867 0)
(-0.118677 -0.0084697119 0)
(-0.12331089 0.0053651018 0)
(-0.1212476 0.02169522 0)
(-0.1598638 0.045185194 0)
(-0.22817724 0.052090641 0)
(-0.30748784 0.048091124 0)
(-0.38753446 0.036460751 0)
(-0.45982848 0.026747869 0)
(-0.50806919 0.013225671 0)
(-0.52312619 -0.011711168 0)
(-0.45844573 -0.047720696 0)
(-0.35666928 -0.049758885 0)
(-0.2353161 -0.081538744 0)
(-0.10803321 -0.11335242 0)
(-0.0012459245 0.0011856136 0)
(-0.00044169883 -0.0026471416 0)
(0.0029676155 -0.0049777559 0)
(0.0072047507 -0.0062907476 0)
(0.012261151 -0.0069855734 0)
(0.017535467 -0.0073592275 0)
(0.022978412 -0.0075346127 0)
(0.028494604 -0.0076147558 0)
(0.034012952 -0.0075993935 0)
(0.039464469 -0.0075178789 0)
(0.044908654 -0.0074039605 0)
(0.050186375 -0.0072958762 0)
(0.055599423 -0.00709801 0)
(0.060633381 -0.0071802386 0)
(0.066073025 -0.0066300554 0)
(0.070873658 -0.0072847219 0)
(0.076336409 -0.0062154788 0)
(0.080949196 -0.0070567081 0)
(0.08630867 -0.0065757868 0)
(0.091236505 -0.0061695252 0)
(0.095861052 -0.0069538924 0)
(0.10128043 -0.0063151553 0)
(0.10603994 -0.0062494126 0)
(0.11068241 -0.0065719175 0)
(0.1158722 -0.0064191357 0)
(0.12092691 -0.0063855744 0)
(0.12558402 -0.0061874453 0)
(0.13035504 -0.0064736685 0)
(0.13552083 -0.0063522063 0)
(0.14049376 -0.0064971815 0)
(0.14535414 -0.006126381 0)
(0.15000591 -0.006255304 0)
(0.15491136 -0.0064768408 0)
(0.16019792 -0.0063964468 0)
(0.16507125 -0.0062881966 0)
(0.16974525 -0.0061467673 0)
(0.17451701 -0.0062677267 0)
(0.17948414 -0.0061656327 0)
(0.18444646 -0.0065502531 0)
(0.18965909 -0.0062905569 0)
(0.19432723 -0.005911771 0)
(0.19868386 -0.006081029 0)
(0.20362994 -0.0060993138 0)
(0.20865471 -0.0063723046 0)
(0.21380046 -0.0062348965 0)
(0.21855287 -0.0058964754 0)
(0.22270958 -0.0058612724 0)
(0.22742718 -0.0058768209 0)
(0.2325478 -0.0060552458 0)
(0.23732227 -0.0060275592 0)
(0.24178209 -0.0057974976 0)
(0.24639011 -0.0058700273 0)
(0.25129724 -0.0059222572 0)
(0.25594509 -0.0056292712 0)
(0.26011032 -0.0054481668 0)
(0.2644403 -0.005621974 0)
(0.26929431 -0.0058791631 0)
(0.27425164 -0.0057838411 0)
(0.2786344 -0.0055613905 0)
(0.28278611 -0.0054249259 0)
(0.28720276 -0.0053232858 0)
(0.29168851 -0.0054715604 0)
(0.29615614 -0.0053561385 0)
(0.30030472 -0.0052005885 0)
(0.30440346 -0.0054917483 0)
(0.30925471 -0.0056881837 0)
(0.31418488 -0.0054218546 0)
(0.3181955 -0.0051014044 0)
(0.32178378 -0.004791843 0)
(0.32560464 -0.0048388029 0)
(0.33006012 -0.0054066216 0)
(0.33504899 -0.0056107417 0)
(0.33962729 -0.0052336208 0)
(0.343305 -0.0048326159 0)
(0.34679356 -0.0048467243 0)
(0.3511228 -0.0050964166 0)
(0.35593255 -0.0052489696 0)
(0.36019989 -0.0051297187 0)
(0.36394962 -0.0047409236 0)
(0.36761556 -0.0045644434 0)
(0.37148689 -0.0048873419 0)
(0.37588757 -0.0052736229 0)
(0.3805436 -0.005188661 0)
(0.38468923 -0.0050064663 0)
(0.38846512 -0.0048223276 0)
(0.39231622 -0.0045140971 0)
(0.39610757 -0.0046493159 0)
(0.40007481 -0.0048322455 0)
(0.40425172 -0.0047468771 0)
(0.40821095 -0.0048035895 0)
(0.41209002 -0.0049173786 0)
(0.41620091 -0.0048177583 0)
(0.42020387 -0.0047392324 0)
(0.42403705 -0.0048435586 0)
(0.42811918 -0.0047970407 0)
(0.43218731 -0.0046677294 0)
(0.43593844 -0.0045225805 0)
(0.43948286 -0.0043358539 0)
(0.44298306 -0.0045018446 0)
(0.44694744 -0.0048356394 0)
(0.45141432 -0.0049575232 0)
(0.4556543 -0.0049398353 0)
(0.45937907 -0.0047071375 0)
(0.46289967 -0.0042511785 0)
(0.46632193 -0.0042351872 0)
(0.47001745 -0.0047020841 0)
(0.47424238 -0.0048357826 0)
(0.4783922 -0.0047164096 0)
(0.48215378 -0.0046320996 0)
(0.48579757 -0.0044339485 0)
(0.48935128 -0.0042604512 0)
(0.49286375 -0.0043175039 0)
(0.49655278 -0.004488945 0)
(0.50049382 -0.0047244211 0)
(0.50466067 -0.0048751101 0)
(0.50868911 -0.0046830301 0)
(0.51225394 -0.0043616212 0)
(0.51554927 -0.0041583205 0)
(0.5189013 -0.0042519456 0)
(0.5226076 -0.0043877344 0)
(0.52654749 -0.0045201962 0)
(0.53046135 -0.00470321 0)
(0.53440705 -0.0046486594 0)
(0.5382219 -0.0042789496 0)
(0.541493 -0.004038523 0)
(0.54455038 -0.0041315203 0)
(0.54813814 -0.0041879992 0)
(0.55191939 -0.0043558164 0)
(0.55551445 -0.004680713 0)
(0.55944114 -0.004749373 0)
(0.56353739 -0.0045271953 0)
(0.56719831 -0.0043964081 0)
(0.57059638 -0.0042255966 0)
(0.57397813 -0.0039588262 0)
(0.57729082 -0.003936618 0)
(0.58062648 -0.0041530973 0)
(0.58417843 -0.0042676847 0)
(0.58792582 -0.004411676 0)
(0.59171617 -0.0044643937 0)
(0.59534359 -0.0043890705 0)
(0.59892925 -0.004234432 0)
(0.60248952 -0.0040650047 0)
(0.60571736 -0.0040349435 0)
(0.60892648 -0.0041075553 0)
(0.61253496 -0.0041539855 0)
(0.61620047 -0.0042533911 0)
(0.61966548 -0.0043429822 0)
(0.62319233 -0.0042285785 0)
(0.62674674 -0.0040124678 0)
(0.63005043 -0.0039178138 0)
(0.63321721 -0.0039445212 0)
(0.63658859 -0.0040251918 0)
(0.64014994 -0.0040335051 0)
(0.64370693 -0.0041465684 0)
(0.64722961 -0.0042256707 0)
(0.6506113 -0.003989507 0)
(0.65376813 -0.0036853872 0)
(0.65680455 -0.0037698957 0)
(0.65995449 -0.0039659294 0)
(0.66329579 -0.0039610593 0)
(0.66674677 -0.0039894887 0)
(0.67017152 -0.0041794212 0)
(0.67360263 -0.0042160487 0)
(0.6771822 -0.0040790994 0)
(0.68072535 -0.0039352159 0)
(0.68402419 -0.0038926359 0)
(0.68715074 -0.0037255559 0)
(0.69031179 -0.0035579818 0)
(0.69328824 -0.0034643761 0)
(0.69613125 -0.0035802231 0)
(0.69913016 -0.0037365808 0)
(0.70251968 -0.0039388162 0)
(0.70597241 -0.0040663095 0)
(0.7093897 -0.0040745309 0)
(0.7127376 -0.0039539269 0)
(0.7160804 -0.0036702801 0)
(0.71901221 -0.0036159409 0)
(0.72198734 -0.0034094302 0)
(0.72482714 -0.0035731131 0)
(0.72797798 -0.0035441025 0)
(0.73100328 -0.0038630127 0)
(0.73432085 -0.0039505762 0)
(0.73782045 -0.0040326851 0)
(0.74126124 -0.0040743467 0)
(0.7449517 -0.0037368116 0)
(0.74779245 -0.003631075 0)
(0.75080786 -0.0031369503 0)
(0.75325569 -0.0030997422 0)
(0.7559859 -0.0031727168 0)
(0.75877843 -0.0034338828 0)
(0.76154606 -0.0037301905 0)
(0.76494292 -0.0036625743 0)
(0.76803259 -0.0039849861 0)
(0.77148886 -0.0037482401 0)
(0.77470408 -0.0038736723 0)
(0.77794022 -0.0032753809 0)
(0.78076343 -0.0032317145 0)
(0.78333644 -0.003007099 0)
(0.78587059 -0.0030198493 0)
(0.78863647 -0.003207676 0)
(0.79153448 -0.0033586305 0)
(0.79457306 -0.0035227539 0)
(0.79741389 -0.0034574843 0)
(0.80054141 -0.0034154866 0)
(0.80342179 -0.003158787 0)
(0.80632842 -0.0030601615 0)
(0.80901474 -0.0026800789 0)
(0.81151069 -0.0026405148 0)
(0.81403231 -0.0024854804 0)
(0.8163293 -0.0021958999 0)
(0.81869969 -0.0022955858 0)
(0.82093218 -0.0018420749 0)
(0.82281715 -0.0016060436 0)
(0.82500863 -0.001405563 0)
(0.82658597 -0.00072984506 0)
(0.82790636 -0.00032437086 0)
(0.82945758 2.9167643e-06 0)
(0.83010589 0.0009381478 0)
(0.83088085 0.0016314824 0)
(0.83084071 0.0024412529 0)
(0.83023584 0.003806063 0)
(0.82966676 0.0048028821 0)
(0.82666267 0.0066755319 0)
(0.82511621 0.0082749242 0)
(0.82006662 0.010631345 0)
(0.81582536 0.013421078 0)
(0.80926769 0.016020141 0)
(0.79914236 0.02090912 0)
(0.79047228 0.024093249 0)
(0.77472929 0.029509207 0)
(0.76028186 0.035768277 0)
(0.73921516 0.041732862 0)
(0.71866715 0.049928989 0)
(0.68870365 0.059518564 0)
(0.659176 0.070127645 0)
(0.62037028 0.08188036 0)
(0.5733569 0.096288979 0)
(0.52517755 0.10923144 0)
(0.45839934 0.12111793 0)
(0.38767636 0.12978939 0)
(0.28607506 0.11699274 0)
(0.17187411 0.090223836 0)
(0.047892959 0.045185269 0)
(-0.045943512 0.0026569269 0)
(-0.10622603 0.012017136 0)
(-0.12721168 0.06919612 0)
(-0.16555715 0.098619904 0)
(-0.25558384 0.10352577 0)
(-0.34654132 0.11642813 0)
(-0.41411642 0.10630438 0)
(-0.45053425 0.044108198 0)
(-0.44547499 -0.029317601 0)
(-0.40331097 -0.11133426 0)
(-0.3049217 -0.17874647 0)
(-0.16153259 -0.18839773 0)
(-0.075756786 -0.23045991 0)
(-0.0012740088 0.0021109143 0)
(-0.00045634474 -0.0047088582 0)
(0.0028943946 -0.0087209238 0)
(0.0070940644 -0.01085429 0)
(0.012101924 -0.012003024 0)
(0.017329741 -0.012598789 0)
(0.022724936 -0.012879578 0)
(0.028175366 -0.012973677 0)
(0.033652449 -0.012957711 0)
(0.03907191 -0.012895147 0)
(0.044559628 -0.012776978 0)
(0.049765797 -0.01272557 0)
(0.055390285 -0.012470456 0)
(0.06014799 -0.012667122 0)
(0.066074753 -0.011996911 0)
(0.070427849 -0.012803761 0)
(0.076294253 -0.011570997 0)
(0.08092269 -0.012593717 0)
(0.08611184 -0.012011045 0)
(0.091243348 -0.011591766 0)
(0.096093778 -0.012555496 0)
(0.10123605 -0.011719214 0)
(0.10607918 -0.011844774 0)
(0.11112115 -0.011948524 0)
(0.11617234 -0.012090663 0)
(0.1209168 -0.012090145 0)
(0.12609543 -0.011420926 0)
(0.13084916 -0.012167708 0)
(0.13604262 -0.012107162 0)
(0.14081454 -0.012230822 0)
(0.14586216 -0.011418989 0)
(0.15071652 -0.011889162 0)
(0.15569497 -0.012313083 0)
(0.16098774 -0.01222689 0)
(0.16543502 -0.01184074 0)
(0.17055609 -0.011606586 0)
(0.17565414 -0.011890038 0)
(0.18040689 -0.011930512 0)
(0.18535888 -0.01262715 0)
(0.1905318 -0.011880738 0)
(0.19518241 -0.011181727 0)
(0.19984689 -0.011529578 0)
(0.20496435 -0.012003487 0)
(0.20995768 -0.012393124 0)
(0.2148776 -0.011955309 0)
(0.21960042 -0.011166191 0)
(0.22403684 -0.010954109 0)
(0.22874415 -0.011715395 0)
(0.23392213 -0.01216856 0)
(0.23913977 -0.011375683 0)
(0.24339254 -0.010971103 0)
(0.24754608 -0.01164409 0)
(0.25252068 -0.011672496 0)
(0.25759094 -0.010741797 0)
(0.26197351 -0.010492373 0)
(0.2662906 -0.011213842 0)
(0.27117047 -0.011799841 0)
(0.2760366 -0.01132113 0)
(0.28026315 -0.010575357 0)
(0.28443594 -0.010463461 0)
(0.28890413 -0.010758816 0)
(0.29367421 -0.010992375 0)
(0.2985352 -0.010418013 0)
(0.30258064 -0.010147629 0)
(0.30642441 -0.010969563 0)
(0.31126921 -0.0115669 0)
(0.31616757 -0.010796447 0)
(0.32021597 -0.0096671577 0)
(0.32404928 -0.0090698008 0)
(0.32787809 -0.0099271491 0)
(0.33240459 -0.011455063 0)
(0.33777376 -0.011460787 0)
(0.34240496 -0.010039191 0)
(0.34576776 -0.0090468883 0)
(0.34900585 -0.0095866635 0)
(0.35328673 -0.010728825 0)
(0.35830771 -0.010907485 0)
(0.36299123 -0.010014072 0)
(0.36699795 -0.0090652452 0)
(0.37053783 -0.0091308605 0)
(0.3742442 -0.010127633 0)
(0.37875113 -0.010832495 0)
(0.38345595 -0.010439516 0)
(0.38754978 -0.0098425138 0)
(0.39142015 -0.0093088506 0)
(0.39511009 -0.0091241442 0)
(0.39886484 -0.0096218511 0)
(0.40327765 -0.0098146862 0)
(0.40763846 -0.0096516888 0)
(0.41153266 -0.0096981662 0)
(0.4155059 -0.0097379914 0)
(0.41960238 -0.009614622 0)
(0.42344352 -0.0095124727 0)
(0.42724974 -0.0096782641 0)
(0.43136601 -0.009717644 0)
(0.43550416 -0.0094557087 0)
(0.43946932 -0.0089337106 0)
(0.44309584 -0.0086405292 0)
(0.44657249 -0.0091281595 0)
(0.45067815 -0.0099583987 0)
(0.45517055 -0.010282149 0)
(0.45935511 -0.0098074907 0)
(0.46325423 -0.0088469211 0)
(0.46678979 -0.0082640792 0)
(0.46998719 -0.0087356057 0)
(0.4738103 -0.0096298213 0)
(0.47825979 -0.0097959318 0)
(0.48228472 -0.009490837 0)
(0.48595264 -0.0090902551 0)
(0.48973224 -0.0087098384 0)
(0.49344796 -0.0085557976 0)
(0.49709237 -0.0087195937 0)
(0.50084561 -0.0091206463 0)
(0.50482528 -0.0096939563 0)
(0.50908456 -0.0097623673 0)
(0.51313781 -0.009046199 0)
(0.51652482 -0.0083006463 0)
(0.51967965 -0.0081404899 0)
(0.52314558 -0.0085963116 0)
(0.52701736 -0.0090136522 0)
(0.53093663 -0.0093394871 0)
(0.53490201 -0.0095581782 0)
(0.53908166 -0.0092102513 0)
(0.54292242 -0.0083607734 0)
(0.54608394 -0.0079199315 0)
(0.54930183 -0.0081499944 0)
(0.55303276 -0.0085501798 0)
(0.55675866 -0.008823771 0)
(0.56039097 -0.0092172459 0)
(0.56443645 -0.009366869 0)
(0.56841248 -0.0089833502 0)
(0.57194062 -0.0085866612 0)
(0.57551654 -0.0082327361 0)
(0.57894406 -0.0078867074 0)
(0.58218053 -0.0079949363 0)
(0.58568611 -0.0083180103 0)
(0.5893401 -0.0086527306 0)
(0.5930129 -0.0088966127 0)
(0.59684896 -0.0088195304 0)
(0.60066844 -0.0085847052 0)
(0.60441526 -0.0084040138 0)
(0.60806616 -0.0080146752 0)
(0.61135258 -0.0078557588 0)
(0.61455435 -0.0081004198 0)
(0.61803369 -0.0083765887 0)
(0.62154939 -0.008428637 0)
(0.62497236 -0.008460602 0)
(0.62854252 -0.0082830171 0)
(0.63217752 -0.0079737855 0)
(0.63564351 -0.0078170913 0)
(0.6389707 -0.0079490801 0)
(0.64248722 -0.0080814777 0)
(0.64606547 -0.0082029631 0)
(0.64953376 -0.0084069403 0)
(0.65319974 -0.0082648048 0)
(0.65675753 -0.0076357927 0)
(0.65974179 -0.0072668314 0)
(0.66266159 -0.0074329957 0)
(0.66610129 -0.0077274496 0)
(0.66961982 -0.0079082913 0)
(0.67290316 -0.0080101085 0)
(0.67632375 -0.0081374858 0)
(0.67996011 -0.0082316946 0)
(0.68353209 -0.008160642 0)
(0.6868188 -0.0078716052 0)
(0.69010179 -0.0075993121 0)
(0.69346957 -0.0074366666 0)
(0.69687566 -0.0072251354 0)
(0.69985715 -0.0068881779 0)
(0.7028192 -0.0069734398 0)
(0.70586647 -0.0075675619 0)
(0.70938359 -0.0079421312 0)
(0.71259912 -0.0079786801 0)
(0.7161211 -0.0078318526 0)
(0.71937616 -0.0078666625 0)
(0.7228941 -0.007226262 0)
(0.7257403 -0.0070962716 0)
(0.72900063 -0.0067338239 0)
(0.73186823 -0.0071746052 0)
(0.73505115 -0.0070876833 0)
(0.73808056 -0.0075314035 0)
(0.74143273 -0.0078263263 0)
(0.74502021 -0.0079651206 0)
(0.74836414 -0.0081645575 0)
(0.7522473 -0.0074202195 0)
(0.75513335 -0.0070747811 0)
(0.7584366 -0.0062391414 0)
(0.76092302 -0.0062857248 0)
(0.76348792 -0.0063153066 0)
(0.76640954 -0.0067666738 0)
(0.76882855 -0.0071654317 0)
(0.77249472 -0.0074466419 0)
(0.77503075 -0.0076489723 0)
(0.7789704 -0.0075149361 0)
(0.78206829 -0.007626972 0)
(0.78592164 -0.0068048137 0)
(0.78855331 -0.006464335 0)
(0.79162478 -0.0059808077 0)
(0.7941915 -0.0062424898 0)
(0.79701469 -0.0065510973 0)
(0.79983043 -0.0067884299 0)
(0.80269009 -0.0067719238 0)
(0.80587469 -0.0068895266 0)
(0.80882158 -0.0067382035 0)
(0.81168313 -0.0065567903 0)
(0.81483061 -0.0061784464 0)
(0.8171553 -0.0057944581 0)
(0.81991357 -0.0055849285 0)
(0.82254073 -0.0054390854 0)
(0.82465528 -0.0051678107 0)
(0.8276761 -0.005018434 0)
(0.82960066 -0.0045448958 0)
(0.83180454 -0.0041984434 0)
(0.83432644 -0.0039143511 0)
(0.83602174 -0.0028372609 0)
(0.8382015 -0.0024670284 0)
(0.83960194 -0.0016070805 0)
(0.84085297 -0.00040962551 0)
(0.84180728 0.00036722922 0)
(0.8424262 0.0021767795 0)
(0.84220861 0.0037088303 0)
(0.84179472 0.0055901482 0)
(0.84038746 0.0084555408 0)
(0.83870605 0.010201822 0)
(0.8356824 0.014327696 0)
(0.83284015 0.017239897 0)
(0.82755911 0.022563223 0)
(0.82236807 0.029019781 0)
(0.81459761 0.033453716 0)
(0.8036109 0.043878207 0)
(0.79214943 0.05097321 0)
(0.77844657 0.059660061 0)
(0.75943629 0.073700235 0)
(0.74302865 0.085259816 0)
(0.72035208 0.1001416 0)
(0.6942191 0.120803 0)
(0.66695751 0.13694322 0)
(0.63368477 0.15943506 0)
(0.59673429 0.18071159 0)
(0.55255672 0.19908005 0)
(0.50491164 0.21520982 0)
(0.43323372 0.2221245 0)
(0.34411815 0.21167992 0)
(0.21237196 0.16646464 0)
(0.059993209 0.10265852 0)
(-0.039464676 0.094949544 0)
(-0.071040139 0.17684144 0)
(-0.11811945 0.2151502 0)
(-0.2179164 0.1818587 0)
(-0.28542444 0.1251476 0)
(-0.32270249 0.049720439 0)
(-0.33854534 -0.062681062 0)
(-0.31033141 -0.19384313 0)
(-0.25966219 -0.29180034 0)
(-0.15274933 -0.3281859 0)
(-0.052978555 -0.34844664 0)
(-0.0012492115 0.0029388487 0)
(-0.00040517602 -0.0067938756 0)
(0.002959774 -0.012489453 0)
(0.0072068069 -0.015521174 0)
(0.0122635 -0.017143582 0)
(0.017533788 -0.017979946 0)
(0.022964887 -0.018369051 0)
(0.028447444 -0.01850026 0)
(0.033945756 -0.018472435 0)
(0.039393695 -0.018369444 0)
(0.044857157 -0.018173881 0)
(0.050137826 -0.01806386 0)
(0.055618284 -0.017695079 0)
(0.060598456 -0.017816535 0)
(0.066185065 -0.017103015 0)
(0.070891573 -0.017678911 0)
(0.076409679 -0.016611036 0)
(0.081181642 -0.017338695 0)
(0.086383466 -0.016745743 0)
(0.091267128 -0.016439499 0)
(0.096402981 -0.017206788 0)
(0.10128865 -0.016154654 0)
(0.10613622 -0.016693261 0)
(0.11122388 -0.016459909 0)
(0.11640868 -0.016636581 0)
(0.12066761 -0.016451165 0)
(0.12624535 -0.016105767 0)
(0.13088083 -0.016804091 0)
(0.13621359 -0.0164438 0)
(0.14055964 -0.016449838 0)
(0.14571638 -0.016109892 0)
(0.15092575 -0.016568013 0)
(0.15583767 -0.016627034 0)
(0.16076996 -0.016424241 0)
(0.1651114 -0.016132995 0)
(0.17057667 -0.016418107 0)
(0.17590808 -0.016306228 0)
(0.1803181 -0.016115301 0)
(0.18521664 -0.016949557 0)
(0.19026443 -0.016058545 0)
(0.19492883 -0.015553068 0)
(0.19996697 -0.016064061 0)
(0.20527655 -0.016419415 0)
(0.20990013 -0.016303162 0)
(0.21415519 -0.016198621 0)
(0.21931504 -0.015345636 0)
(0.22439868 -0.014825043 0)
(0.22879171 -0.016185942 0)
(0.2335557 -0.016812667 0)
(0.23909419 -0.015323518 0)
(0.24336962 -0.014445462 0)
(0.24724403 -0.015411579 0)
(0.25197832 -0.015998547 0)
(0.25743088 -0.015137019 0)
(0.26230482 -0.014495277 0)
(0.26641737 -0.014969064 0)
(0.2708091 -0.015729118 0)
(0.27542062 -0.015096066 0)
(0.27985256 -0.014114369 0)
(0.28443714 -0.014165561 0)
(0.2888886 -0.014877748 0)
(0.29340917 -0.015202289 0)
(0.29823102 -0.014281215 0)
(0.30243534 -0.013494643 0)
(0.30647109 -0.014334164 0)
(0.31103502 -0.015372854 0)
(0.31534045 -0.014721742 0)
(0.31946265 -0.013198702 0)
(0.32402153 -0.012336224 0)
(0.32818777 -0.013589337 0)
(0.3324122 -0.015589346 0)
(0.33727963 -0.01552702 0)
(0.34177948 -0.013466199 0)
(0.34542298 -0.011688165 0)
(0.34877107 -0.012395025 0)
(0.35284972 -0.014605469 0)
(0.35759727 -0.015251124 0)
(0.3624247 -0.013886804 0)
(0.36705569 -0.012291251 0)
(0.37084518 -0.012094151 0)
(0.37412468 -0.013362318 0)
(0.37808091 -0.014438414 0)
(0.38244215 -0.014164518 0)
(0.38676168 -0.013258971 0)
(0.39116901 -0.012245203 0)
(0.3948747 -0.012262325 0)
(0.39851088 -0.013121925 0)
(0.40307084 -0.013459257 0)
(0.40738323 -0.01326579 0)
(0.41113275 -0.013019992 0)
(0.4150608 -0.012872228 0)
(0.4190921 -0.012868878 0)
(0.42285436 -0.012719597 0)
(0.42668012 -0.012828583 0)
(0.43072165 -0.013076592 0)
(0.4348508 -0.012983668 0)
(0.43906648 -0.012192374 0)
(0.44297674 -0.011664001 0)
(0.44650184 -0.012184762 0)
(0.45043427 -0.013376317 0)
(0.45458567 -0.013962347 0)
(0.45846083 -0.013294927 0)
(0.46244408 -0.011849479 0)
(0.46632171 -0.011136383 0)
(0.46974709 -0.011764359 0)
(0.47360381 -0.012897362 0)
(0.47785395 -0.013171005 0)
(0.48164374 -0.012796362 0)
(0.48519896 -0.012170053 0)
(0.48897837 -0.011900689 0)
(0.49304481 -0.011788631 0)
(0.49703976 -0.011820183 0)
(0.5006871 -0.012255945 0)
(0.50451989 -0.013192329 0)
(0.5086214 -0.013213283 0)
(0.51230985 -0.012144872 0)
(0.51556261 -0.011042204 0)
(0.51888073 -0.01099192 0)
(0.52274938 -0.01160986 -2.1749993e-35)
(0.52690298 -0.012217219 -1.1925257e-30)
(0.53072987 -0.012706947 0)
(0.5345087 -0.01301811 0)
(0.53862926 -0.012554925 0)
(0.54233544 -0.011480526 0)
(0.54541013 -0.01066638 0)
(0.54886185 -0.01098537 0)
(0.55279321 -0.011725782 0)
(0.5563861 -0.012084544 0)
(0.55993017 -0.0123744 -2.2496639e-35)
(0.56393843 -0.012606233 -1.2716175e-30)
(0.56774547 -0.01228215 -2.047048e-35)
(0.57117747 -0.01171506 -1.1943075e-30)
(0.57492233 -0.011086812 0)
(0.57856338 -0.010761273 0)
(0.58197704 -0.010911339 0)
(0.58554973 -0.011238229 0)
(0.58905436 -0.011666251 0)
(0.59252005 -0.012154708 0)
(0.59617364 -0.012167493 -2.1956228e-35)
(0.59990027 -0.011914418 -1.2484661e-30)
(0.60380329 -0.011774694 0)
(0.60774327 -0.011174116 0)
(0.61125444 -0.010529805 0)
(0.6144674 -0.010757157 0)
(0.61782879 -0.011312692 0)
(0.62109948 -0.011365334 0)
(0.62420184 -0.011328517 0)
(0.62762321 -0.011383284 0)
(0.63139466 -0.011233235 0)
(0.63517304 -0.010873352 0)
(0.6388181 -0.01085376 -2.3511725e-35)
(0.64251743 -0.011050138 -1.2795858e-30)
(0.64600559 -0.011258344 0)
(0.64927169 -0.011542388 0)
(0.65275728 -0.011361872 0)
(0.656201 -0.010427408 0)
(0.65914132 -0.0099296831 0)
(0.66219064 -0.01027971 0)
(0.66570068 -0.010629613 0)
(0.6692806 -0.010730546 0)
(0.67273352 -0.011046786 2.0646003e-35)
(0.67623012 -0.011247873 1.2119791e-30)
(0.67976536 -0.011194308 0)
(0.68323565 -0.01103628 0)
(0.6863158 -0.010749457 2.1155095e-35)
(0.68941288 -0.010499453 1.2006778e-30)
(0.69264521 -0.010387079 0)
(0.69637032 -0.010114766 0)
(0.69960244 -0.0095054624 0)
(0.70282784 -0.0095364043 0)
(0.70578118 -0.010294177 2.1760834e-35)
(0.70957065 -0.010839503 1.2256099e-30)
(0.71252019 -0.010834439 0)
(0.71579991 -0.010774673 0)
(0.71873075 -0.010701192 0)
(0.72229752 -0.010123982 0)
(0.72528024 -0.0098150162 0)
(0.72864627 -0.0094212515 0)
(0.73179973 -0.0096862862 0)
(0.73490167 -0.0097570621 0)
(0.73815615 -0.010342977 0)
(0.74129029 -0.010706184 0)
(0.7447292 -0.011055364 0)
(0.74779477 -0.011398385 0)
(0.75171909 -0.010526906 0)
(0.75457112 -0.0098243696 0)
(0.75812354 -0.0088803436 0)
(0.76070306 -0.0084788511 0)
(0.76410305 -0.0085420904 0)
(0.7663334 -0.0088445473 0)
(0.76900745 -0.0094799967 0)
(0.77199466 -0.010190011 0)
(0.77485919 -0.010381687 0)
(0.77865495 -0.01080876 0)
(0.78127985 -0.010660515 0)
(0.78528489 -0.009791843 0)
(0.7884271 -0.0091102075 0)
(0.79134575 -0.0084358599 0)
(0.79464409 -0.008488304 0)
(0.79711586 -0.008923845 0)
(0.80017147 -0.0091192667 0)
(0.80261151 -0.0096142913 0)
(0.80599645 -0.0093863351 0)
(0.80840998 -0.009378943 0)
(0.81203244 -0.0092441597 0)
(0.81436735 -0.0085800135 0)
(0.81715141 -0.0077948484 0)
(0.8198675 -0.0080677134 0)
(0.8224053 -0.0071775858 0)
(0.82499104 -0.0075719585 0)
(0.82781417 -0.006952943 0)
(0.82953587 -0.006374513 0)
(0.83241199 -0.0061812927 8.9018924e-36)
(0.83445164 -0.0057204371 8.0120861e-31)
(0.83662956 -0.0047802107 0)
(0.83892508 -0.0039873138 0)
(0.84074666 -0.0025374233 0)
(0.84205717 -0.0015368429 0)
(0.84392497 0.00013530183 0)
(0.84366082 0.0019543479 0)
(0.84500651 0.0044450702 0)
(0.84420635 0.0065969622 0)
(0.84341556 0.010104164 0)
(0.84282739 0.012972158 0)
(0.83916863 0.017031382 0)
(0.8379183 0.021427565 0)
(0.8330129 0.027512042 0)
(0.82929828 0.034044182 0)
(0.82318247 0.043451456 0)
(0.81338662 0.052899961 0)
(0.80717324 0.062119474 4.566239e-34)
(0.79081531 0.075512537 2.8769657e-29)
(0.77999253 0.087398712 0)
(0.76372232 0.10070642 0)
(0.7433224 0.12161336 0)
(0.72609295 0.13705277 0)
(0.70287669 0.15935875 0)
(0.67862167 0.18165605 0)
(0.65374092 0.2048288 0)
(0.62130837 0.22578046 0)
(0.59152862 0.24656416 0)
(0.5451103 0.26083449 0)
(0.49683884 0.27547197 0)
(0.42258038 0.27366885 0)
(0.31960662 0.26038491 -5.0260787e-35)
(0.17125482 0.21090454 -2.3588977e-29)