/*--------------------------------*- C++ -*----------------------------------*\
| =========                 |                                                 |
| \\      /  F ield         | OpenFOAM: The Open Source CFD Toolbox           |
|  \\    /   O peration     | Version:  2106                                  |
|   \\  /    A nd           | Website:  www.openfoam.com                      |
|    \\/     M anipulation  |                                                 |
\*---------------------------------------------------------------------------*/
FoamFile
{
    version     2.0;
    format      ascii;
    arch        "LSB;label=32;scalar=64";
    class       volScalarField;
    location    "0.26";
    object      p;
}
// * * * * * * * * * * * * * * * * * * * * * * * * * * * * * * * * * * * * * //

dimensions      [1 -1 -2 0 0 0 0];

internalField   nonuniform List<scalar> 
32768
(
174.44948
174.48527
174.54547
174.61448
174.67114
174.71228
174.73225
174.72893
174.70195
174.6519
174.58002
174.48728
174.37468
174.24556
174.09396
173.93907
173.74768
173.56869
173.35807
173.12879
172.91332
172.65566
172.39041
172.13164
171.84165
171.53389
171.22436
170.90626
170.56057
170.20464
169.83697
169.46312
169.07673
168.6637
168.24342
167.82261
167.38986
166.93702
166.48244
166.00935
165.52864
165.06053
164.5726
164.07113
163.56106
163.05346
162.55687
162.03734
161.51028
160.9971
160.47674
159.9475
159.4188
158.89075
158.37146
157.85402
157.3239
156.78849
156.26784
155.74956
155.22133
154.7029
154.18531
153.67111
153.16481
152.63373
152.09987
151.60419
151.10904
150.59457
150.08397
149.56616
149.05428
148.56901
148.07584
147.54992
147.03354
146.54561
146.0485
145.54471
145.05236
144.5424
144.02081
143.52526
143.0242
142.50356
142.00859
141.50461
140.97743
140.47786
139.97794
139.44639
138.92349
138.41367
137.88368
137.35062
136.82975
136.31568
135.79867
135.24684
134.69148
134.17853
133.649
133.08174
132.55085
132.02834
131.45738
130.89324
130.36037
129.81161
129.25292
128.70038
128.14206
127.58284
127.02372
126.45699
125.89706
125.35005
124.79019
124.20578
123.63923
123.09044
122.50815
121.92755
121.393
120.83141
120.22642
119.66779
119.1237
118.51978
117.91752
117.3633
116.79192
116.19812
115.62791
115.0599
114.47162
113.89134
113.31968
112.73197
112.13613
111.56955
111.01609
110.41884
109.81428
109.26012
108.70159
108.09622
107.50135
106.95236
106.39462
105.79082
105.19381
104.64859
104.08621
103.48066
102.91009
102.37443
101.79635
101.1951
100.63674
100.09172
99.504608
98.909134
98.349426
97.794469
97.216183
96.650087
96.09946
95.538923
94.97208
94.413879
93.85384
93.288084
92.730051
92.181505
91.626241
91.066938
90.532967
89.993777
89.440548
88.868976
88.313848
87.772794
87.230883
86.681436
86.128751
85.632655
85.11639
84.576124
84.037679
83.527522
83.031608
82.494936
81.991147
81.506013
81.041308
80.54792
80.087231
79.659289
79.225028
78.812626
78.407692
78.037959
77.68934
77.379721
77.123248
76.922729
76.758315
76.691066
76.709249
76.791701
77.054575
77.427493
77.945517
78.714518
79.586091
80.751084
82.239275
84.08341
86.456805
89.323809
92.799631
97.050637
102.04521
108.27347
115.50546
124.10928
134.1531
145.65573
159.24163
174.3181
191.2895
210.10978
230.15114
251.2216
272.38581
292.3708
308.78219
319.08053
324.0222
328.62915
330.72428
330.30032
330.25345
327.14384
318.95232
304.18144
277.38534
246.26826
232.81359
238.17364
265.23327
314.09046
364.15989
380.70204
165.6828
165.71745
165.77808
165.84728
165.90358
165.94516
165.96493
165.96158
165.93457
165.88398
165.81152
165.71783
165.60476
165.47469
165.32404
165.16603
164.97859
164.7954
164.58456
164.36072
164.13851
163.88172
163.62494
163.35812
163.06584
162.76799
162.4554
162.12986
161.78976
161.43615
161.06564
160.69006
160.30187
159.88955
159.4744
159.04913
158.61014
158.161
157.70855
157.23334
156.75315
156.28175
155.79157
155.29198
154.7849
154.27958
153.77154
153.25144
152.73904
152.21731
151.68634
151.16962
150.64508
150.10945
149.58829
149.07259
148.54369
148.01235
147.48967
146.96687
146.44565
145.9285
145.40317
144.89243
144.38659
143.8546
143.33347
142.83309
142.32001
141.81511
141.31791
140.7962
140.28077
139.79355
139.29511
138.77857
138.27622
137.77829
137.26557
136.77049
136.28481
135.77236
135.2573
134.75985
134.24649
133.73879
133.24933
132.72728
132.20904
131.72025
131.20311
130.67104
130.16396
129.65102
129.11602
128.58631
128.06614
127.55016
127.02211
126.47374
125.94303
125.41914
124.85862
124.31127
123.80054
123.25556
122.68259
122.13932
121.59832
121.03883
120.4849
119.93007
119.37414
118.82139
118.25344
117.68056
117.1308
116.58612
116.01516
115.43664
114.88621
114.32344
113.72739
113.16898
112.63406
112.04567
111.45707
110.91952
110.35204
109.73719
109.15986
108.60676
108.01703
107.4266
106.86441
106.29003
105.70461
105.13089
104.55384
103.96009
103.36927
102.8075
102.24134
101.63658
101.0524
100.50447
99.924521
99.314088
98.744463
98.20145
97.616865
97.007999
96.441674
95.893303
95.304605
94.710657
94.160404
93.606304
93.0143
92.428279
91.878635
91.324129
90.731414
90.142352
89.586371
89.030801
88.455135
87.884306
87.329055
86.776691
86.211871
85.644343
85.085009
84.52397
83.964978
83.41433
82.867047
82.306848
81.763203
81.217135
80.67412
80.111745
79.554244
79.007716
78.463751
77.924319
77.366446
76.85529
76.333856
75.816922
75.277754
74.759612
74.254655
73.731027
73.228064
72.724582
72.263953
71.781689
71.316482
70.869239
70.435077
70.027749
69.617049
69.237664
68.885564
68.565863
68.302046
68.080846
67.913714
67.817331
67.806721
67.88826
68.082714
68.420979
68.898834
69.561253
70.458375
71.594785
72.989052
74.724673
76.962475
79.659661
82.948683
87.130328
91.912236
97.793607
104.70473
112.95132
122.61127
133.58559
146.65072
161.08185
177.32302
195.29259
214.32977
234.492
254.60054
274.26781
291.69118
307.20277
318.28392
322.5459
322.67232
322.83674
323.2361
321.43311
311.0106
292.09049
261.23646
224.76427
204.72593
208.94287
233.46437
276.4852
323.83976
341.4115
156.87767
156.9123
156.97357
157.04284
157.09901
157.14019
157.15936
157.15511
157.12741
157.07628
157.00391
156.90959
156.79811
156.66635
156.5195
156.35787
156.17685
155.98994
155.78093
155.56198
155.33443
155.08261
154.82986
154.5545
154.27043
153.97285
153.65597
153.33307
152.99472
152.63528
152.26876
151.89538
151.49678
151.08777
150.67856
150.24581
149.80364
149.35957
148.90217
148.42411
147.95051
147.47612
146.98051
146.47557
145.97857
145.47517
144.9499
144.44396
143.93391
143.39183
142.87163
142.36597
141.83045
141.29383
140.7798
140.25731
139.7251
139.20187
138.67874
138.15606
137.64188
137.11469
136.5892
136.09245
135.57366
135.03781
134.53731
134.03137
133.50871
133.01817
132.51261
131.97997
131.4837
130.99636
130.48672
129.98455
129.48736
128.97324
128.46515
127.98269
127.48649
126.96726
126.46913
125.96655
125.44682
124.96396
124.46069
123.92204
123.43306
122.93739
122.396
121.88417
121.38939
120.85944
120.32417
119.80444
119.28822
118.77054
118.2239
117.68032
117.1777
116.63018
116.05032
115.54506
115.03644
114.4487
113.88989
113.37524
112.81629
112.25104
111.70543
111.14558
110.58938
110.03552
109.46061
108.89844
108.35986
107.80362
107.22264
106.66206
106.11639
105.52666
104.94174
104.41118
103.84695
103.24364
102.69698
102.15483
101.54316
100.94604
100.40256
99.823661
99.224013
98.664717
98.089915
97.495536
96.929814
96.358874
95.760494
95.171451
94.607135
94.036931
93.440166
92.852838
92.300045
91.732955
91.124875
90.533751
89.98788
89.425481
88.816167
88.231791
87.693581
87.110565
86.495012
85.950375
85.420147
84.815764
84.212321
83.672917
83.118515
82.519898
81.943324
81.392603
80.820833
80.240411
79.682376
79.124415
78.55124
77.989664
77.438952
76.879064
76.310804
75.747863
75.194781
74.643181
74.090415
73.54002
72.995689
72.437614
71.882491
71.330941
70.791801
70.233559
69.675935
69.145906
68.62764
68.097281
67.536612
67.019677
66.509764
65.997132
65.453691
64.944352
64.452101
63.95202
63.460064
62.975405
62.540022
62.067388
61.62116
61.194452
60.790125
60.416443
60.041888
59.727209
59.435428
59.175587
58.993092
58.867099
58.822488
58.866784
58.983725
59.273433
59.67048
60.209302
60.991672
61.990795
63.2645
64.876896
66.848513
69.25767
72.283063
75.965144
80.403993
85.735751
92.049625
99.623863
108.39842
118.61777
130.4122
143.67046
158.49727
174.67999
192.0536
210.29127
228.75524
246.97136
263.87368
278.36515
289.78071
298.16936
305.77423
312.51798
313.81812
309.0495
293.93913
270.77145
235.79615
189.01729
160.10465
158.14458
182.86513
227.80671
277.12339
293.64425
148.03646
148.07113
148.13291
148.20243
148.25847
148.29915
148.31746
148.31213
148.28306
148.23061
148.15679
148.06125
147.94858
147.81534
147.6694
147.50464
147.32746
147.1377
146.92967
146.71524
146.48273
146.23414
145.98599
145.70284
145.42714
145.1251
144.81233
144.4852
144.14725
143.78726
143.42408
143.04429
142.64263
142.23755
141.82638
141.39055
140.94493
140.5013
140.04092
139.56425
139.09073
138.61127
138.11139
137.60604
137.11845
136.60691
136.07471
135.57806
135.06101
134.51583
134.00301
133.49387
132.95785
132.42613
131.90747
131.38093
130.85623
130.33587
129.80983
129.2907
128.7753
128.24517
127.73003
127.23093
126.69896
126.17815
125.69259
125.16848
124.64471
124.16657
123.65127
123.12054
122.63812
122.1448
121.62703
121.1364
120.65053
120.12659
119.61361
119.14195
118.64289
118.12349
117.64044
117.12903
116.60737
116.1389
115.61904
115.08165
114.61653
114.10753
113.55586
113.06284
112.57082
112.02988
111.4986
110.98511
110.46664
109.94036
109.39036
108.86528
108.3676
107.80062
107.22723
106.73779
106.21206
105.6175
105.07896
104.56266
103.99735
103.43505
102.88087
102.32463
101.78056
101.21616
100.6384
100.09135
99.554902
98.986262
98.396515
97.850613
97.307766
96.699885
96.133169
95.621731
95.022651
94.408312
93.899674
93.354987
92.709975
92.131395
91.615417
91.01093
90.395402
89.855456
89.283812
88.681068
88.119464
87.553718
86.951283
86.355818
85.803932
85.24221
84.620072
84.025064
83.507536
82.943235
82.299944
81.725518
81.214781
80.61572
79.974395
79.426875
78.912583
78.303484
77.674041
77.142472
76.625678
76.017149
75.401758
74.865684
74.329576
73.724983
73.125899
72.584563
72.040781
71.457208
70.86928
70.313245
69.76619
69.192657
68.61278
68.075227
67.533845
66.953475
66.38384
65.852981
65.308164
64.736811
64.182992
63.649258
63.104135
62.531928
61.98459
61.441202
60.90099
60.336807
59.799991
59.281904
58.766723
58.23085
57.683115
57.184078
56.666713
56.162464
55.622825
55.142432
54.659185
54.158522
53.690488
53.222467
52.805028
52.352789
51.919739
51.527094
51.155056
50.818434
50.488272
50.210168
50.008188
49.831158
49.73036
49.718043
49.778789
49.9623
50.262016
50.698054
51.318253
52.131528
53.158315
54.531415
56.258738
58.290427
60.945236
64.125422
67.902041
72.662533
78.153947
84.804181
92.650016
101.58897
112.18756
123.91005
137.10756
151.59437
167.01512
183.49948
200.10481
216.82382
232.74304
246.89258
260.01237
270.99828
281.08166
288.37162
291.36138
289.07094
275.47478
247.06527
206.71732
159.54362
129.00434
124.34257
147.27116
192.46915
241.53144
263.47731
139.15892
139.19383
139.25611
139.32581
139.38163
139.42154
139.43865
139.43177
139.40088
139.34658
139.27103
139.17403
139.0603
138.9262
138.78062
138.61558
138.43995
138.2509
138.04389
137.83225
137.59923
137.35358
137.1077
136.82122
136.55422
136.24467
135.93927
135.60549
135.27244
134.90794
134.54778
134.15969
133.76293
133.35549
132.93703
132.50449
132.0536
131.60874
131.14696
130.67132
130.19211
129.71094
129.20976
128.70419
128.21756
127.69881
127.17055
126.67089
126.14682
125.61285
125.09808
124.57724
124.04871
123.52241
122.99476
122.47022
121.95397
121.43211
120.90732
120.38787
119.86741
119.34784
118.84067
118.33005
117.79779
117.29219
116.80435
116.27308
115.76002
115.276
114.75504
114.24614
113.76343
113.25439
112.74173
112.25996
111.77258
111.25044
110.74543
110.27195
109.76165
109.25532
108.78907
108.26335
107.74173
107.28133
106.75604
106.22728
105.76084
105.24484
104.70923
104.21633
103.70766
103.17804
102.65794
102.1319
101.61567
101.09189
100.5313
100.02048
99.531378
98.948688
98.383319
97.899908
97.355632
96.765702
96.242635
95.718823
95.154593
94.595311
94.026351
93.474421
92.944162
92.370376
91.792359
91.257791
90.717188
90.136418
89.548576
89.01427
88.467977
87.855243
87.29612
86.780607
86.179337
85.575996
85.062477
84.500626
83.868862
83.309919
82.77246
82.162604
81.572889
81.013893
80.420163
79.849251
79.2987
78.707213
78.109365
77.534002
76.970607
76.397678
75.782346
75.189302
74.669991
74.105817
73.465305
72.892773
72.381001
71.785581
71.140679
70.591802
70.08726
69.47137
68.841781
68.329861
67.784599
67.146366
66.579526
66.066873
65.477753
64.873434
64.323957
63.772032
63.191459
62.63229
62.078446
61.488999
60.912134
60.370783
59.804318
59.227288
58.679235
58.14059
57.586124
57.028386
56.467628
55.915032
55.366873
54.812066
54.271928
53.726623
53.1778
52.623838
52.087711
51.530002
50.979097
50.433298
49.900124
49.3938
48.878897
48.339736
47.795638
47.31965
46.815567
46.309056
45.793969
45.32265
44.845612
44.346124
43.900434
43.467982
43.049038
42.61043
42.196624
41.837616
41.499278
41.17672
40.920455
40.694023
40.550226
40.459913
40.428659
40.532753
40.698569
40.983765
41.433999
42.052326
42.861431
43.863365
45.145393
46.814199
48.975237
51.458779
54.676526
58.484311
63.095044
68.782428
75.269659
83.034837
92.182786
102.33878
113.87416
126.48418
140.22103
154.82373
169.87026
185.4364
200.40703
214.53658
227.93662
239.0724
248.8487
255.74628
258.84324
256.07547
244.43426
222.25301
187.64635
146.18181
117.0522
113.78093
137.74638
183.35574
233.16271
256.4409
130.24505
130.28025
130.34311
130.41299
130.46849
130.50739
130.52297
130.51412
130.48094
130.42437
130.34653
130.24797
130.13262
129.9981
129.85209
129.68727
129.51317
129.32438
129.11995
128.90942
128.67764
128.43574
128.1886
127.90555
127.63972
127.32775
127.02599
126.68844
126.35678
125.99008
125.6297
125.23409
124.84342
124.42944
124.00624
123.57499
123.12069
122.67192
122.20666
121.73356
121.24707
120.76408
120.26425
119.75848
119.26518
118.7416
118.22303
117.71439
117.18504
116.66547
116.14292
115.61035
115.09103
114.56872
114.03767
113.51486
112.99849
112.47682
111.95912
111.43658
110.91347
110.40753
109.90266
109.37941
108.85399
108.36583
107.868
107.3288
106.83502
106.34703
105.81526
105.32562
104.85398
104.32894
103.80758
103.34252
102.85974
102.3303
101.84406
101.37344
100.83657
100.34422
99.899343
99.357654
98.839752
98.388447
97.859309
97.340388
96.866583
96.348014
95.833651
95.331036
94.808269
94.298856
93.783043
93.235827
92.727319
92.223551
91.649074
91.127387
90.655335
90.082017
89.502979
89.014544
88.48344
87.895345
87.360219
86.840307
86.286377
85.718248
85.144169
84.601526
84.070548
83.50165
82.924453
82.375691
81.849468
81.271236
80.655527
80.136663
79.617272
78.993304
78.427064
77.910828
77.308435
76.710262
76.187286
75.623227
75.011746
74.454635
73.896194
73.295776
72.724272
72.137003
71.532711
70.985253
70.432419
69.837319
69.251339
68.677812
68.116201
67.536955
66.912563
66.333052
65.810913
65.223439
64.604914
64.049728
63.499974
62.912324
62.305529
61.732829
61.20896
60.621116
60.006233
59.481396
58.924089
58.282234
57.712681
57.208108
56.633881
56.016806
55.458514
54.929464
54.352778
53.767468
53.221009
52.65707
52.073468
51.514997
50.954585
50.392919
49.828027
49.256065
48.720788
48.204733
47.623729
47.046574
46.521991
45.976771
45.414009
44.881331
44.344214
43.781081
43.245689
42.706995
42.15882
41.602574
41.045759
40.517555
40.006804
39.492688
38.945842
38.436997
37.922048
37.436552
36.93526
36.425868
35.946149
35.473529
35.018224
34.525057
34.090522
33.689308
33.267885
32.832886
32.423716
32.088089
31.795856
31.504609
31.268172
31.092934
30.992573
30.966894
30.987674
31.105056
31.357583
31.733526
32.257656
32.948653
33.814305
35.040426
36.398346
38.117918
40.566995
43.28774
46.749234
51.254033
56.273185
62.416896
69.755746
78.299287
88.10925
98.778915
110.67249
123.60902
137.25342
151.90409
166.43903
180.6887
193.82811
205.52988
215.2684
222.50468
226.24166
224.80646
216.85206
200.28101
175.61656
146.04167
127.02789
129.91599
157.50471
205.94585
251.54654
275.25538
121.29492
121.33045
121.39399
121.46396
121.51903
121.55667
121.57034
121.55903
121.52303
121.46365
121.38311
121.28255
121.16546
121.03053
120.88398
120.72006
120.54755
120.35936
120.15916
119.94887
119.72043
119.48321
119.23223
118.95864
118.68597
118.38131
118.07295
117.74239
117.40087
117.04245
116.6686
116.28006
115.88611
115.46409
115.03691
114.6068
114.15132
113.69526
113.22741
112.75243
112.26192
111.7748
111.27677
110.77187
110.26697
109.74422
109.23466
108.71346
108.18146
107.67366
107.14237
106.60502
106.09078
105.56671
105.04357
104.52136
103.99549
103.47944
102.96765
102.44509
101.92949
101.4242
100.91412
100.39529
99.876296
99.393164
98.892422
98.352579
97.868238
97.377196
96.848221
96.364392
95.890636
95.375231
94.855583
94.382408
93.906321
93.387786
92.905861
92.435358
91.895304
91.404632
90.960121
90.425546
89.919987
89.460315
88.934545
88.428833
87.937939
87.423803
86.930356
86.410456
85.883833
85.39215
84.873643
84.321235
83.819619
83.316757
82.744387
82.224186
81.738139
81.173723
80.607732
80.101743
79.578978
79.011075
78.454683
77.926625
77.392083
76.807711
76.231695
75.71882
75.169991
74.592752
74.040337
73.476668
72.937058
72.374151
71.764042
71.235765
70.717818
70.110354
69.537983
69.013913
68.429895
67.82647
67.275538
66.717561
66.133943
65.57168
64.988474
64.411655
63.85941
63.239805
62.633597
62.101174
61.523194
60.9279
60.370559
59.791252
59.228388
58.674137
58.034529
57.433782
56.932227
56.334829
55.695122
55.161888
54.62235
54.028834
53.429901
52.863095
52.321391
51.71913
51.140044
50.623116
50.020144
49.401727
48.878301
48.318711
47.711413
47.165407
46.623044
46.031321
45.459498
44.914169
44.34639
43.763736
43.206966
42.655686
42.083539
41.537385
40.988114
40.390687
39.82478
39.317163
38.774637
38.186957
37.632462
37.105465
36.570447
36.001604
35.458295
34.93067
34.385338
33.825319
33.302168
32.784082
32.184197
31.644667
31.126551
30.595987
30.060635
29.563696
29.061097
28.509308
28.029591
27.536598
27.035409
26.519278
26.065718
25.611563
25.106453
24.652693
24.244378
23.813004
23.369703
22.9813
22.619876
22.268063
21.998068
21.721155
21.474176
21.313323
21.145613
21.078999
21.092646
21.190335
21.406047
21.744215
22.25136
22.88655
23.592632
24.725131
26.195791
28.028277
30.330439
33.187692
36.829726
41.303741
46.463831
53.007853
60.612273
69.626284
79.745148
90.225624
102.47422
115.73847
129.39107
143.287
157.19623
169.72602
180.68509
189.80377
195.29483
197.01962
194.86988
187.71304
177.19698
166.50697
164.36533
178.21432
209.46951
252.50899
289.01434
308.31918
112.30858
112.34436
112.40873
112.47868
112.53322
112.56932
112.58067
112.56637
112.52697
112.46418
112.38043
112.2775
112.1585
112.02317
111.87635
111.71375
111.54318
111.35654
111.16087
110.95193
110.72742
110.49484
110.24058
109.97804
109.69653
109.4037
109.08273
108.76351
108.40769
108.05948
107.67157
107.28586
106.88778
106.46503
106.02777
105.59741
105.13878
104.67291
104.20991
103.72735
103.23585
102.74417
102.24087
101.74022
101.22423
100.70398
100.19697
99.666826
99.135561
98.626671
98.094984
97.55836
97.042817
96.51854
95.998905
95.480564
94.950017
94.437738
93.931193
93.41096
92.903713
92.395852
91.882066
91.369607
90.860286
90.382362
89.871743
89.335267
88.864985
88.366196
87.839031
87.366448
86.884804
86.370895
85.8714
85.396571
84.903563
84.402937
83.935226
83.449175
82.9185
82.443568
81.983634
81.45271
80.969839
80.499567
79.976456
79.482512
78.975547
78.475073
77.991784
77.454959
76.936722
76.452043
75.925843
75.374558
74.887711
74.385151
73.800794
73.282282
72.797487
72.237673
71.679847
71.171646
70.645292
70.081415
69.522425
68.986175
68.460836
67.878236
67.293735
66.791426
66.248894
65.662688
65.099903
64.5532
64.023626
63.428228
62.835522
62.337135
61.779709
61.170659
60.624287
60.078069
59.502956
58.923358
58.357953
57.793819
57.217012
56.65426
56.065125
55.498235
54.944393
54.321208
53.736118
53.186308
52.586086
52.002668
51.438919
50.865923
50.321551
49.759496
49.130758
48.538875
48.009338
47.420323
46.79629
46.222653
45.685778
45.142314
44.529743
43.940403
43.417771
42.820845
42.226916
41.700645
41.116556
40.516285
39.984049
39.427289
38.811068
38.24793
37.736145
37.15634
36.541421
36.005314
35.45866
34.839318
34.287007
33.760517
33.175352
32.651571
32.11342
31.51004
30.970601
30.430369
29.83997
29.30037
28.786937
28.207723
27.657112
27.140633
26.575001
26.011255
25.49798
24.936658
24.36102
23.867851
23.314238
22.75876
22.238798
21.68039
21.135707
20.639434
20.170651
19.64338
19.127255
18.609745
18.107729
17.60927
17.084959
16.581134
16.103352
15.625618
15.113921
14.619976
14.187882
13.801763
13.409645
12.993107
12.64844
12.354574
12.006454
11.691465
11.377581
11.125362
10.903248
10.659802
10.474319
10.271637
10.110869
10.011863
9.7570641
9.6885779
9.9416964
10.275259
10.963721
11.92953
13.738092
16.42951
19.897508
24.354338
29.691263
36.278258
44.520403
55.843455
68.345775
80.653907
93.44207
106.46061
119.56178
132.99684
145.56292
156.65201
165.94769
173.44063
178.90647
182.77278
186.32227
192.09408
203.9198
226.6799
260.28044
297.32766
327.27088
343.75092
103.28623
103.32196
103.38737
103.45706
103.51099
103.54522
103.5538
103.53589
103.4924
103.42554
103.33807
103.23236
103.11134
102.97571
102.82897
102.66854
102.50005
102.31671
102.12523
101.91952
101.69911
101.47147
101.21567
100.96562
100.6732
100.39125
100.06329
99.749259
99.3849
99.038019
98.643974
98.260242
97.844758
97.427419
96.983862
96.546857
96.088368
95.611896
95.146073
94.65738
94.170657
93.673187
93.157688
92.664786
92.142605
91.619219
91.109821
90.574913
90.048607
89.528445
89.00316
88.470068
87.942437
87.429749
86.905181
86.384756
85.8715
85.354211
84.843376
84.339027
83.832707
83.315234
82.820138
82.311941
81.793908
81.327239
80.815693
80.28024
79.816477
79.318629
78.797785
78.322149
77.842863
77.33732
76.840242
76.37255
75.879596
75.376333
74.919057
74.439118
73.908482
73.441399
72.982872
72.450251
71.975179
71.506076
70.993254
70.505707
69.987935
69.501612
69.014428
68.466855
67.963227
67.48187
66.957086
66.401211
65.91143
65.419771
64.844396
64.311567
63.820274
63.282188
62.72058
62.209343
61.698176
61.124661
60.553743
60.021338
59.493268
58.918233
58.352094
57.828435
57.280113
56.729894
56.142434
55.573865
55.08278
54.484036
53.865023
53.383281
52.845592
52.222753
51.668933
51.13624
50.55374
49.96451
49.41357
48.855021
48.275408
47.708791
47.112964
46.560036
45.998476
45.366077
44.809207
44.25081
43.62825
43.06722
42.506015
41.899107
41.367197
40.830298
40.190609
39.616072
39.083977
38.467429
37.885652
37.310465
36.719607
36.202972
35.610768
35.004611
34.461812
33.875855
33.329453
32.76121
32.14401
31.620289
31.092146
30.480545
29.902205
29.362916
28.787215
28.229668
27.679429
27.092132
26.515935
25.925797
25.361056
24.823447
24.225849
23.704772
23.197797
22.597508
22.07473
21.554856
20.936508
20.376008
19.89425
19.356938
18.77199
18.224166
17.702812
17.154231
16.570218
16.008966
15.475182
14.913523
14.300742
13.808326
13.352924
12.754554
12.184237
11.700883
11.222811
10.700896
10.203325
9.7189572
9.186085
8.6534018
8.1694337
7.6607635
7.0543837
6.5621731
6.1476282
5.4230977
4.774865
4.4230353
4.0336632
3.7611573
3.5598744
3.3657272
3.1454107
2.9312664
2.7032232
2.4680539
2.2651675
2.0638128
1.8528036
1.6592875
1.4846458
1.3003199
1.105984
0.96606117
0.87878081
0.78131482
0.69867821
0.66036291
0.67143757
0.75924207
0.8590802
0.98783507
1.2801915
1.1317079
0.89102164
4.1021987
21.986367
36.079058
50.894775
66.589021
82.607899
97.010565
110.80527
124.41996
137.86428
151.10728
163.94204
177.11212
191.53396
209.71767
232.96599
261.79
295.61413
329.20352
354.73508
367.31839
94.228276
94.263164
94.329877
94.398849
94.452146
94.484175
94.489485
94.467255
94.418888
94.347187
94.255401
94.14653
94.023498
93.88776
93.741736
93.584352
93.418541
93.240435
93.052816
92.852861
92.636678
92.413756
92.161408
91.915528
91.621398
91.343748
91.014521
90.695002
90.33536
89.976211
89.584683
89.193002
88.768463
88.351525
87.900619
87.452176
86.990598
86.514769
86.04144
85.544501
85.058328
84.556647
84.034304
83.54055
83.018788
82.486746
81.977408
81.441439
80.910251
80.38718
79.864373
79.329153
78.800626
78.291501
77.764095
77.24594
76.742963
76.227586
75.715918
75.216467
74.71695
74.197567
73.7131
73.21695
72.690273
72.223608
71.715611
71.192476
70.73004
70.22534
69.722098
69.240032
68.752828
68.269227
67.776342
67.295005
66.822712
66.332367
65.852824
65.388294
64.877696
64.401843
63.940968
63.416381
62.946817
62.481161
61.975843
61.492836
60.985882
60.497399
59.991791
59.463318
58.963564
58.461729
57.960654
57.41325
56.907998
56.4161
55.850277
55.321392
54.826208
54.286882
53.729154
53.216368
52.702745
52.148917
51.577672
51.029171
50.506986
49.924548
49.366
48.841906
48.278507
47.741864
47.160295
46.591887
46.089554
45.504662
44.908482
44.385678
43.845783
43.261074
42.684744
42.151604
41.60352
40.99418
40.441785
39.890676
39.299766
38.748325
38.146634
37.574068
37.0103
36.409036
35.847911
35.25741
34.664892
34.099784
33.517614
32.932389
32.378032
31.836496
31.236898
30.652212
30.128993
29.538218
28.931226
28.353824
27.771843
27.252064
26.66084
26.049891
25.497501
24.895935
24.358337
23.803448
23.189042
22.6465
22.124999
21.557011
20.961444
20.413686
19.869918
19.287097
18.730721
18.198266
17.587429
16.973225
16.459338
15.877589
15.25809
14.760348
14.176425
13.602063
13.137326
12.566533
11.967314
11.457019
10.967598
10.409489
9.8676454
9.3528684
8.7670857
8.2252637
7.7410884
7.1043823
6.5143583
6.06674
5.3231509
4.6980924
4.3276299
3.9296758
3.6231156
3.3919433
3.175382
2.9352431
2.6935347
2.4560261
2.2051076
1.946951
1.6938799
1.4326312
1.1698437
0.92603473
0.67797534
0.40795802
0.15486788
-0.087991815
-0.1470364
-0.15574636
-0.15399164
-0.15515454
-0.15715068
-0.15845458
-0.16014423
-0.16318871
-0.16757577
-0.17335463
-0.17988071
-0.18672508
-0.19372512
-0.20043167
-0.20652866
-0.21206509
-0.21594547
-0.21764938
-0.21712101
-0.21286359
-0.2046474
-0.1939814
-0.18253586
-0.17081021
-0.15653707
-0.14364927
-0.12152137
0.089277173
0.23620185
0.34504093
0.45180929
14.937261
36.675887
57.328821
75.236023
92.257679
109.78267
127.79009
147.42613
168.49095
191.47336
217.30473
246.30891
278.32455
312.41264
343.45096
366.87012
378.61039
85.135675
85.16786
85.236207
85.303667
85.356388
85.385825
85.387317
85.359957
85.305781
85.228356
85.131623
85.019253
84.894318
84.75888
84.614447
84.461172
84.299291
84.128001
83.945187
83.752846
83.541852
83.323532
83.078728
82.828913
82.545696
82.258463
81.939226
81.604609
81.256939
80.875827
80.492154
80.084856
79.659662
79.229956
78.776552
78.319856
77.854488
77.368508
76.890791
76.392428
75.896573
75.395896
74.874013
74.362466
73.853626
73.309374
72.793235
72.268916
71.720037
71.200647
70.682254
70.129959
69.618769
69.106
68.570412
68.072449
67.561959
67.04823
66.556853
66.050837
65.550168
65.04851
64.567546
64.069677
63.548396
63.087066
62.578402
62.064922
61.602911
61.095236
60.602658
60.120269
59.630378
59.15618
58.674221
58.185818
57.726842
57.252936
56.753625
56.299743
55.811614
55.326018
54.862085
54.365518
53.897241
53.41324
52.927271
52.451711
51.945206
51.456698
50.94439
50.444629
49.937141
49.407873
48.929641
48.390694
47.86682
47.388485
46.846695
46.294471
45.799168
45.26797
44.701182
44.202236
43.679012
43.123699
42.575497
42.025966
41.502484
40.916882
40.342046
39.818215
39.264835
38.720753
38.13466
37.592647
37.077378
36.481001
35.922021
35.390404
34.818453
34.246941
33.690209
33.125523
32.579739
32.014928
31.455379
30.901134
30.326298
29.76298
29.156722
28.58799
28.010083
27.406524
26.853254
26.260518
25.674555
25.118084
24.510492
23.916616
23.379087
22.826468
22.217166
21.659883
21.132281
20.56407
19.977075
19.360823
18.805866
18.288679
17.679622
17.106591
16.516798
15.904874
15.359645
14.785189
14.211362
13.670989
13.149937
12.57361
11.995031
11.432134
10.882387
10.380752
9.7966515
9.2016788
8.682065
8.0267482
7.4759357
6.997463
6.2921579
5.7788095
5.1784398
4.573427
4.1870808
3.8140537
3.5291959
3.3054608
3.0606424
2.7898857
2.527432
2.2676534
1.9921137
1.7250645
1.4626193
1.1853369
0.91856714
0.65185459
0.36627152
0.098575584
-0.1469726
-0.18800298
-0.19016584
-0.18557537
-0.18161572
-0.1773409
-0.17300799
-0.16972159
-0.16777626
-0.16712629
-0.16785117
-0.16934505
-0.17157777
-0.1746248
-0.1763987
-0.17666263
-0.17636448
-0.17414669
-0.16580628
-0.16347431
-0.16175642
-0.1614913
-0.16321054
-0.16551246
-0.16812297
-0.17205947
-0.17766501
-0.18444072
-0.19181478
-0.19983035
-0.20834386
-0.21687209
-0.22494274
-0.23217681
-0.23762489
-0.24059873
-0.2403746
-0.23625148
-0.22856371
-0.21873967
-0.20805174
-0.19705245
-0.18622579
-0.17608453
-0.17502301
-0.18207088
-0.13209036
-0.096776879
-0.053165099
-0.17995361
0.13953616
10.756477
32.214374
55.852276
79.520237
102.78295
127.44288
154.34021
183.55469
214.8836
248.15777
282.61748
316.75431
347.42933
370.90474
382.52363
76.011326
76.035285
76.106131
76.170821
76.223131
76.249569
76.246674
76.213268
76.152198
76.068039
75.965672
75.849522
75.723006
75.588486
75.44694
75.299006
75.142994
74.979957
74.803924
74.620415
74.416178
74.203686
73.96651
73.71368
73.441822
73.142242
72.833706
72.485241
72.140401
71.748787
71.359164
70.944733
70.509706
70.069369
69.614875
69.139775
68.676752
68.17886
67.695746
67.198898
66.68674
66.189477
65.669375
65.138205
64.639909
64.091558
63.560765
63.0436
62.491545
61.959391
61.445698
60.894345
60.376656
59.872315
59.337037
58.840712
58.336656
57.831728
57.340655
56.84372
56.354925
55.84705
55.376578
54.890093
54.363159
53.908715
53.41154
52.897735
52.428342
51.931735
51.440554
50.953359
50.477752
50.00719
49.524456
49.043434
48.601451
48.124662
47.621753
47.186502
46.697729
46.211409
45.752273
45.273282
44.823527
44.328566
43.847843
43.38856
42.870888
42.378998
41.884676
41.385448
40.859648
40.3469
39.878933
39.323711
38.798082
38.327183
37.804295
37.252921
36.742971
36.215326
35.655591
35.147983
34.631
34.082919
33.518597
32.986817
32.464979