/*--------------------------------*- C++ -*----------------------------------*\
| =========                 |                                                 |
| \\      /  F ield         | OpenFOAM: The Open Source CFD Toolbox           |
|  \\    /   O peration     | Version:  2106                                  |
|   \\  /    A nd           | Website:  www.openfoam.com                      |
|    \\/     M anipulation  |                                                 |
\*---------------------------------------------------------------------------*/
FoamFile
{
    version     2.0;
    format      ascii;
    arch        "LSB;label=32;scalar=64";
    class       volScalarField;
    location    "0.26";
    object      reconstructedDistanceFunction;
}
// * * * * * * * * * * * * * * * * * * * * * * * * * * * * * * * * * * * * * //

dimensions      [0 1 0 0 0 0 0];

internalField   nonuniform List<scalar> 
32768
(
0
0
0
0
0
0
0
0
0
0
0
0
0
0
0
0
0
0
0
0
0
0
0
0
0
0
0
0
0
0
0
0
0
0
0
0
0
0
0
0
0
0
0
0
0
0
0
0
0
0
0
0
0
0
0
0
0
0
0
0
0
0
0
0
0
0
0
0
0
0
0
0
0
0
0
0
0
0
0
0
0
0
0
0
0
0
0
0
0
0
0
0
0
0
0
0
0
0
0
0
0
0
0
0
0
0
0
0
0
0
0
0
0
0
0
0
0
0
0
0
0
0
0
0
0
0
0
0
0
0
0
0
0
0
0
0
0
0
0
0
0
0
0
0
0
0
0
0
0
0
0
0
0
0
0
0
0
0
0
0
0
0
0
0
0
0
0
0
0
0
0
0
0
0
0
0
0
0
0
0
0
0
0
0
0
0
0
0
0
0
0
0
0
0
0
0
0
0
0
0
0
0
0
0
0
0
0
0
0
0
0
0
0
0
0
0
0
0
0
0
0
0
0
0
0
0
0
0
0
0
0
0
0
0
0
0
0
0
0
0
0
0
0
0
0
0
0
0
0
0
0
0
0.002518507
0.0018870828
0.0012556585
0.00062423423
0
0
0
0
0
0
0
0
0
0
0
0
0
0
0
0
0
0
0
0
0
0
0
0
0
0
0
0
0
0
0
0
0
0
0
0
0
0
0
0
0
0
0
0
0
0
0
0
0
0
0
0
0
0
0
0
0
0
0
0
0
0
0
0
0
0
0
0
0
0
0
0
0
0
0
0
0
0
0
0
0
0
0
0
0
0
0
0
0
0
0
0
0
0
0
0
0
0
0
0
0
0
0
0
0
0
0
0
0
0
0
0
0
0
0
0
0
0
0
0
0
0
0
0
0
0
0
0
0
0
0
0
0
0
0
0
0
0
0
0
0
0
0
0
0
0
0
0
0
0
0
0
0
0
0
0
0
0
0
0
0
0
0
0
0
0
0
0
0
0
0
0
0
0
0
0
0
0
0
0
0
0
0
0
0
0
0
0
0
0
0
0
0
0
0
0
0
0
0
0
0
0
0
0
0
0
0
0
0
0
0
0
0
0
0
0
0
0
0
0
0
0
0
0
0
0
0
0
0
0
0
0
0
0
0
0
0
0
0
0
0
0
0
0
0
0
0
0
0
0
0
0
0.0031499313
0.002518507
0.0018870828
0.0012556585
0
0
0
0
0
0
0
0
0
0
0
0
0
0
0
0
0
0
0
0
0
0
0
0
0
0
0
0
0
0
0
0
0
0
0
0
0
0
0
0
0
0
0
0
0
0
0
0
0
0
0
0
0
0
0
0
0
0
0
0
0
0
0
0
0
0
0
0
0
0
0
0
0
0
0
0
0
0
0
0
0
0
0
0
0
0
0
0
0
0
0
0
0
0
0
0
0
0
0
0
0
0
0
0
0
0
0
0
0
0
0
0
0
0
0
0
0
0
0
0
0
0
0
0
0
0
0
0
0
0
0
0
0
0
0
0
0
0
0
0
0
0
0
0
0
0
0
0
0
0
0
0
0
0
0
0
0
0
0
0
0
0
0
0
0
0
0
0
0
0
0
0
0
0
0
0
0
0
0
0
0
0
0
0
0
0
0
0
0
0
0
0
0
0
0
0
0
0
0
0
0
0
0
0
0
0
0
0
0
0
0
0
0
0
0
0
0
0
0
0
0
0
0
0
0
0
0
0
0
0
0
0
0
0
0
0
0
0
0
0
0
0
0
0
0
0
0
0
0
0
0
0
0.0037813555
0.0031499312
0.002518507
0.0018870827
0
0
0
0
0
0
0
0
0
0
0
0
0
0
0
0
0
0
0
0
0
0
0
0
0
0
0
0
0
0
0
0
0
0
0
0
0
0
0
0
0
0
0
0
0
0
0
0
0
0
0
0
0
0
0
0
0
0
0
0
0
0
0
0
0
0
0
0
0
0
0
0
0
0
0
0
0
0
0
0
0
0
0
0
0
0
0
0
0
0
0
0
0
0
0
0
0
0
0
0
0
0
0
0
0
0
0
0
0
0
0
0
0
0
0
0
0
0
0
0
0
0
0
0
0
0
0
0
0
0
0
0
0
0
0
0
0
0
0
0
0
0
0
0
0
0
0
0
0
0
0
0
0
0
0
0
0
0
0
0
0
0
0
0
0
0
0
0
0
0
0
0
0
0
0
0
0
0
0
0
0
0
0
0
0
0
0
0
0
0
0
0
0
0
0
0
0
0
0
0
0
0
0
0
0
0
0
0
0
0
0
0
0
0
0
0
0
0
0
0
0
0
0
0
0
0
0
0
0
0
0
0
0
0
0
0
0
0
0
0
0
0
0
0
0
0
0
0
0
0
0
0
0.0044127798
0.0037813555
0.0031499313
0.002518507
0
0
0
0
0
0
0
0
0
0
0
0
0
0
0
0
0
0
0
0
0
0
0
0
0
0
0
0
0
0
0
0
0
0
0
0
0
0
0
0
0
0
0
0
0
0
0
0
0
0
0
0
0
0
0
0
0
0
0
0
0
0
0
0
0
0
0
0
0
0
0
0
0
0
0
0
0
0
0
0
0
0
0
0
0
0
0
0
0
0
0
0
0
0
0
0
0
0
0
0
0
0
0
0
0
0
0
0
0
0
0
0
0
0
0
0
0
0
0
0
0
0
0
0
0
0
0
0
0
0
0
0
0
0
0
0
0
0
0
0
0
0
0
0
0
0
0
0
0
0
0
0
0
0
0
0
0
0
0
0
0
0
0
0
0
0
0
0
0
0
0
0
0
0
0
0
0
0
0
0
0
0
0
0
0
0
0
0
0
0
0
0
0
0
0
0
0
0
0
0
0
0
0
0
0
0
0
0
0
0
0
0
0
0
0
0
0
0
0
0
0
0
0
0
0
0
0
0
0
0
0
0
0
0
0
0
0
0
0
0
0
0
0
0
0
0
0
0
0
0
0
0
0
0
0
0
0
0
0
0
0
0
0
0
0
0
0
0
0
0
0
0
0
0
0
0
0
0
0
0
0
0
0
0
0
0
0
0
0
0
0
0
0
0
0
0
0
0
0
0
0
0
0
0
0
0
0
0
0
0
0
0
0
0
0
0
0
0
0
0
0
0
0
0
0
0
0
0
0
0
0
0
0
0
0
0
0
0
0
0
0
0
0
0
0
0
0
0
0
0
0
0
0
0
0
0
0
0
0
0
0
0
0
0
0
0
0
0
0
0
0
0
0
0
0
0
0
0
0
0
0
0
0
0
0
0
0
0
0
0
0
0
0
0
0
0
0
0
0
0
0
0
0
0
0
0
0
0
0
0
0
0
0
0
0
0
0
0
0
0
0
0
0
0
0
0
0
0
0
0
0
0
0
0
0
0
0
0
0
0
0
0
0
0
0
0
0
0
0
0
0
0
0
0
0
0
0
0
0
0
0.0032931506
0.0032413348
0.0031909365
0.0031432462
0.0030946718
0.0030466715
0.0030008268
0.0029556083
0.0029105887
0.0028665135
0.0028227588
0.0027797715
0.0027385615
0.0026984433
0.0026596712
0.0026228888
0.0025883155
0.0025559074
0.0025258612
0.0025006479
0.0024818185
0.002467196
0.0024595571
0.0024618445
0.0024739695
0.0025011846
0.002541241
0.0025959722
0.0026705243
0.002760761
0.002858295
0.0029982902
0.0031771676
0.0033707248
0.0035865585
0
0
0
0
0
0
0
0
0
0
0
0
0
0
0
0
0
0
0
0
0
0
0
0
0
0
0
0
0
0
0
0
0
0
0
0
0
0
0
0
0
0
0
0
0
0
0
0
0
0
0
0
0
0
0
0
0
0
0
0
0
0
0
0
0
0
0
0
0
0
0
0
0
0
0
0
0
0
0
0
0
0
0
0
0
0
0
0
0
0
0
0
0
0
0
0
0
0
0
0
0
0
0
0
0
0
0
0
0
0
0
0
0
0
0
0
0
0
0
0
0
0
0
0
0
0
0
0
0
0
0
0
0
0
0
0
0
0
0
0
0
0
0
0
0
0
0
0
0
0
0
0
0
0
0
0
0
0
0
0
0
0
0
0
0
0
0
0
0
0
0
0
0
0
0
0
0
0
0
0
0
0
0
0
0
0
0
0
0
0
0
0
0
0
0
0
0
0
0
0
0
0
0
0
0.0032912208
0.003235603
0.0031811865
0.0031288111
0.0030738777
0.0030200595
0.0029679854
0.0029162299
0.0028644243
0.0028128546
0.002761455
0.0027098175
0.002658082
0.0026064796
0.0025548129
0.0025031408
0.0024522377
0.0024016546
0.0023498365
0.0022993348
0.0022515789
0.0022030165
0.0021549526
0.0021090299
0.0020637796
0.0020187355
0.0019746334
0.0019308502
0.0018878063
0.0018465305
0.0018063553
0.0017675131
0.0017306445
0.0016959893
0.0016635013
0.0016333343
0.0016079664
0.0015890166
0.0015743012
0.0015665942
0.0015689055
0.0015812334
0.0016088997
0.0016496983
0.0017056345
0.0017816774
0.0018739544
0.0019763684
0.0021271992
0.0023018822
0.0025003558
0.0027245153
0.0029776487
0.0032720469
0.0035978012
0.0039416914
0
0
0
0
0
0
0
0
0
0
0
0
0
0
0
0
0
0
0
0
0
0
0
0
0
0
0
0
0
0
0
0
0
0
0
0
0
0
0
0
0
0
0
0
0
0
0
0
0
0
0
0
0
0
0
0
0
0
0
0
0
0
0
0
0
0
0
0
0
0
0
0
0
0
0
0
0
0
0
0
0
0
0
0
0
0
0
0
0
0
0
0
0
0
0
0
0
0
0
0
0
0
0
0
0
0
0
0
0
0
0
0
0
0
0
0
0
0
0
0
0
0
0
0
0
0
0
0
0
0
0
0
0
0
0
0
0
0
0
0
0
0
0
0
0
0
0
0
0
0
0
0
0
0
0
0
0
0
0
0
0
0
0
0
0
0
0
0
0
0
0
0
0
0
0
0
0
0
0
0
0
0
0
0
0.0032708518
0.0032158777
0.0031613196
0.0031074308
0.0030516422
0.0029973215
0.0029438662
0.0028900122
0.0028358252
0.0027816879
0.0027274853
0.0026728254
0.002618256
0.0025638343
0.00250888
0.0024541941
0.0023999456
0.00234433
0.0022898367
0.0022374629
0.0021825632
0.0021286831
0.0020765349
0.002024761
0.0019729518
0.0019213724
0.0018699729
0.0018183438
0.0017666096
0.0017150079
0.0016633422
0.0016116461
0.0015607166
0.0015101586
0.0014583383
0.0014077331
0.0013599116
0.0013113613
0.0012632338
0.0012172329
0.001171951
0.0011268823
0.0010827533
0.0010389415
0.00099584103
0.00095449953
0.00091426729
0.00087535493
0.00083840021
0.00080366311
0.00077109532
0.00074080741
0.00071528482
0.00069621479
0.00068140648
0.00067363135
0.00067596653
0.0006884972
0.00071661477
0.00075815552
0.00081529682
0.00089283054
0.00098714781
0.0010944418
0.0012512031
0.0014265967
0.0016295028
0.0018624721
0.0021288486
0.0024425508
0.0027636618
0.0031333288
0.0035391451
0.0039602925
0
0
0
0
0
0
0
0
0
0
0
0
0
0
0
0
0
0
0
0
0
0
0
0
0
0
0
0
0
0
0
0
0
0
0
0
0
0
0
0
0
0
0
0
0
0
0
0
0
0
0
0
0
0
0
0
0
0
0
0
0
0
0
0
0
0
0
0
0
0
0
0
0
0
0
0
0
0
0
0
0
0
0
0
0
0
0
0
0
0
0
0
0
0
0
0
0
0
0
0
0
0
0
0
0
0
0
0
0
0
0
0
0
0
0
0
0
0
0
0
0
0
0
0
0
0
0
0
0
0
0
0
0
0
0
0
0
0
0
0
0
0
0
0
0
0
0
0
0
0
0
0
0
0
0
0
0
0
0
0
0
0
0
0
0
0
0.0032678059
0.0032124657
0.0031573869
0.0031031915
0.0030468966
0.0029903668
0.0029351897
0.0028804243
0.0028255124
0.0027696465
0.0027131149
0.0026569892
0.0026006999
0.0025448436
0.0024896321
0.0024341306
0.0023795691
0.0023245848
0.0022700058
0.0022161524
0.0021603714
0.0021059937
0.0020525095
0.0019986727
0.0019444985
0.001890364
0.001836175
0.0017815256
0.0017269538
0.0016725415
0.0016175906
0.0015628925
0.0015086705
0.001453057
0.001398487
0.0013461147
0.0012912486
0.0012373067
0.0011850845
0.001133292
0.0010814793
0.0010298902
0.00097849074
0.00092687016
0.00087513718
0.00082353619
0.00077187153
0.0007201515
0.00066919542
0.00061866262
0.00056684
0.00051613137
0.00046824427
0.00041970597
0.00037151491
0.00032543589
0.00028012231
0.00023502907
0.00019087317
0.00014703289
0.00010387578
6.2468557e-05
2.2179308e-05
-1.6803247e-05
-5.3844055e-05
-8.8663073e-05
-0.0001213107
-0.00015171948
-0.00017739674
-0.00019658704
-0.00021148825
-0.00021933154
-0.00021697247
-0.00020423896
-0.00017567013
-0.00013338723
-7.504087e-05
3.983673e-06
0.00010034123
0.00021251518
0.00037520692
0.00055999068
0.00076745959
0.001002683
0.001286476
0.001609885
0.0019471428
0.0023350614
0.0027468814
0.0031826886
0.0036392743
0.0041189425
0
0
0
0
0
0
0
0
0
0
0
0
0
0
0
0
0
0
0
0
0
0
0
0
0
0
0
0
0
0
0
0
0
0
0
0
0
0
0
0
0
0
0
0
0
0
0
0
0
0
0
0
0
0
0
0
0
0
0
0
0
0
0
0
0
0
0
0
0
0
0
0
0
0
0
0
0
0
0
0
0
0
0
0
0
0
0
0
0
0
0
0
0
0
0
0
0
0
0
0
0
0
0
0
0
0
0
0
0
0
0
0
0
0
0
0
0
0
0
0
0
0
0
0
0
0
0
0
0
0
0
0
0
0
0
0
0
0
0
0
0
0
0
0
0
0
0
0
0.0032756211
0.003219267
0.0031636668
0.0031083347
0.0030518931
0.0029956755
0.0029390332
0.0028823332
0.002826119
0.0027703711
0.0027148009
0.0026582775
0.0026013011
0.0025442952
0.0024875754
0.0024318817
0.0023765548
0.0023212019
0.0022661023
0.0022119374
0.0021556997
0.0020991587
0.0020439218
0.0019891343
0.0019342545
0.0018784405
0.0018219273
0.001765797
0.0017094949
0.0016536108
0.0015983817
0.0015428616
0.0014882863
0.0014332919
0.0013786919
0.0013248741
0.0012691005
0.001214666
0.0011611528
0.0011073331
0.0010531718
0.00099904016
0.00094486479
0.00089022587
0.0008356516
0.00078124876
0.00072630132
0.000671591
0.00061739532
0.00056178401
0.00050713726
0.00045433334
0.00039993406
0.00034593036
0.00029363399
0.00024182309
0.00019000686
0.00013840803
8.7008624e-05
3.5396486e-05
-1.6335212e-05
-6.7935503e-05
-0.00011959914
-0.00017134313
-0.00022232574
-0.00027283336
-0.00032465826
-0.00037547035
-0.00042342305
-0.00047194929
-0.00052020397
-0.0005663611
-0.00061170635
-0.00065682415
-0.00070100693
-0.00074487574
-0.00078808946
-0.00082956242
-0.00086990868
-0.0009089614
-0.00094608835
-0.00098098924
-0.0010137167
-0.0010442464
-0.0010700783
-0.0010893889
-0.001104383
-0.0011122944
-0.0011099115
-0.0010969751
-0.001067955
-0.00102493
-0.00096537856
-0.0008848632
-0.00078646535
-0.00066941141
-0.00050078923
-0.00031037834
-9.4583607e-05
0.00015388294
0.00045006993
0.00076911322
0.0011365911
0.0015426572
0.0019660797
0.0024106244
0.0028837389
0.003383716
0.0039102406
0
0
0
0
0
0
0
0
0
0
0
0
0
0
0
0
0
0
0
0
0
0
0
0
0
0
0
0
0
0
0
0
0
0
0
0
0
0
0
0
0
0
0
0
0
0
0
0
0
0
0
0
0
0
0
0
0
0
0
0
0
0
0
0
0
0
0
0
0
0
0
0
0
0
0
0
0
0
0
0
0
0
0
0
0
0
0
0
0
0
0
0
0
0
0
0
0
0
0
0
0
0
0
0
0
0
0
0
0
0
0
0
0
0
0
0
0
0
0
0
0
0
0
0
0
0
0
0
0
0
0
0.0032760455
0.0032218147
0.0031676088
0.0031130531
0.0030598295
0.0030049953
0.0029490906
0.0028925332
0.0028357453
0.0027791366
0.0027227309
0.0026656928
0.0026086363
0.0025521282
0.0024957628
0.0024400864
0.0023844085
0.0023280526
0.0022724274
0.0022171149
0.0021606975
0.0021044935
0.0020478653
0.0019911568
0.0019349099
0.0018791367
0.0018235849
0.0017671066
0.0017101567
0.0016531456
0.0015963852
0.0015406466
0.0014853038
0.0014299381
0.0013748176
0.0013206832
0.0012645028
0.0012079506
0.0011526538
0.0010978443
0.0010429967
0.00098723454
0.00093073972
0.00087460482
0.00081829004
0.00076237791
0.00070713139
0.0006515927
0.00059700362
0.00054199905
0.00048737802
0.00043359575
0.00037782962
0.00032333825
0.00026979614
0.00021599359
0.00016184503
0.00010771628
5.3554561e-05
-1.073881e-06
-5.5650569e-05
-0.00011004401
-0.000164988
-0.00021971054
-0.00027387983
-0.000329489
-0.00038421248
-0.0004370309
-0.0004913805
-0.00054544601
-0.0005978165
-0.00064964584
-0.0007014656
-0.00075307418
-0.00080447349
-0.00085607719
-0.0009078076
-0.0009594072
-0.0010110698
-0.0010628378
-0.0011138469
-0.0011643293
-0.0012161565
-0.0012670721
-0.0013150904
-0.0013636046
-0.0014119228
-0.0014581581
-0.001503535
-0.0015486774
-0.001592887
-0.0016367844
-0.0016800547
-0.0017215934
-0.0017619967
-0.0018011196
-0.0018383326
-0.0018733154
-0.0019061228
-0.0019367732
-0.0019627599
-0.0019821907
-0.0019972777
-0.0020052573
-0.0020028505
-0.0019897113
-0.0019602399
-0.0019164727
-0.0018557163
-0.0017737101
-0.0016732719
-0.001551338
-0.0013760888
-0.0011807474
-0.00095662681
-0.00069491713
-0.00037803121
-4.7405764e-05
0.00033832376
0.0007503935
0.0011884758
0.0016485353
0.0021361677
0.0026554391
0.0032116715
0.0038223872
0
0
0
0
0
0
0
0
0
0
0
0
0
0
0
0
0
0
0
0
0
0
0
0
0
0
0
0
0
0
0
0
0
0
0
0
0
0
0
0
0
0
0
0
0
0
0
0
0
0
0
0
0
0
0
0
0
0
0
0
0
0
0
0
0
0
0
0
0
0
0
0
0
0
0
0
0
0
0
0
0
0
0
0
0
0
0
0
0
0
0
0
0
0
0
0
0
0
0
0
0
0
0
0
0
0
0
0
0
0
0
0
0
0.0033022728
0.0032490652
0.0031947279
0.0031402
0.0030861113
0.0030326394
0.0029787932
0.0029248924
0.0028708983
0.0028169537
0.0027630097
0.0027092551
0.002655602
0.0026017315
0.0025477867
0.002493511
0.0024394046
0.0023847378
0.0023304991
0.0022762921
0.0022217082
0.0021684925
0.0021137259
0.0020578883
0.0020013655
0.0019445791
0.0018879582
0.0018315635
0.0017745462
0.001717482
0.00166095
0.0016045538
0.0015488579
0.0014931959
0.0014368382
0.001381188
0.0013258951
0.0012695019
0.0012133115
0.0011566974
0.0010999803
0.0010437009
0.00098790234
0.00093236881
0.00087593563
0.00081901228
0.00076199605
0.0007051949
0.00064941149
0.00059405281
0.00053867428
0.00048353293
0.00042942912
0.00037330591
0.00031674256
0.00026138592
0.00020655435
0.00015173886
9.602852e-05
3.9552154e-05
-1.6587338e-05
-7.2914884e-05
-0.00012885493
-0.00018411894
-0.00023967627
-0.00029427909
-0.00034929383
-0.00040393586
-0.0004576826
-0.00051344125
-0.00056798949
-0.00062156053
-0.00067534595
-0.00072948171
-0.00078360761
-0.00083775567
-0.00089237364
-0.00094695274
-0.0010013368
-0.0010562773
-0.0011110121
-0.001165155
-0.001220762
-0.0012755622
-0.0013283951
-0.0013826951
-0.0014368224
-0.001489267
-0.0015411148
-0.0015929381
-0.0016445564
-0.0016959556
-0.0017475509
-0.00179928
-0.0018508789
-0.0019025405
-0.0019543324
-0.0020053681
-0.0020558253
-0.0021076548
-0.0021586738
-0.0022067577
-0.0022552598
-0.0023036417
-0.0023499551
-0.0023953637
-0.0024405306
-0.0024847671
-0.002528693
-0.0025720199
-0.0026136244
-0.0026540846
-0.0026932777
-0.0027305769
-0.0027656416
-0.0027985288
-0.0028293001
-0.0028554414
-0.0028749925
-0.0028901725
-0.0028982202
-0.0028957895
-0.0028824474
-0.0028525248
-0.0028080155
-0.0027460539
-0.0026625569
-0.0025600785
-0.0024260557
-0.0022513743
-0.0020516393
-0.0018210827
-0.001535501
-0.0012106971
-0.00086392475
-0.00045383062
-2.8133036e-05
0.00042169938
0.0008995387
0.0014144017
0.0019568701
0.0025611877
0.0031647381
0.0038215269
0
0
0
0
0
0
0
0
0
0
0
0
0
0
0
0
0
0
0
0
0
0
0
0
0
0
0
0
0
0
0
0
0
0
0
0
0
0
0
0
0
0
0
0
0
0
0
0
0
0
0
0
0
0
0
0
0
0
0
0
0
0
0
0
0
0
0
0
0
0
0
0
0
0
0
0
0
0
0
0
0
0
0
0
0
0
0
0
0
0
0
0
0
0
0
0.0032517936
0.0032059859
0.0031587694
0.0031119873
0.0030642432
0.0030164935
0.0029685925
0.0029190776
0.0028704094
0.0028209123
0.0027695902
0.0027169942
0.0026652999
0.002614967
0.00256483
0.0025141442
0.0024629579
0.002410846
0.0023577062
0.0023034152
0.0022489353
0.002194769
0.0021412825
0.0020874474
0.0020335546
0.0019795628
0.0019256171
0.0018716668
0.0018179033
0.0017642509
0.0017103896
0.0016564561
0.0016021878
0.0015480931
0.0014934301
0.0014391835
0.0013849754
0.0013303633
0.0012771555
0.0012224564
0.0011666862
0.0011101977
0.0010534129
0.00099677985
0.00094039597
0.00088339963
0.0008263277
0.00076977186
0.0007133448
0.00065762945
0.00060198332
0.00054562372
0.00048994857
0.0004346753
0.0003783063
0.00032212952
0.00026552944
0.00020880388
0.0001524918
9.6667966e-05
4.1152748e-05
-1.5235306e-05
-7.2132135e-05
-0.00012915352
-0.00018599536
-0.00024182364
-0.00029719822
-0.00035258951
-0.00040775174
-0.00046182502
-0.00051789096
-0.0005744655
-0.000629882
-0.00068473565
-0.00073951898
-0.00079517747
-0.00085163544
-0.00090777953
-0.00096411978
-0.0010200878
-0.0010753693
-0.0011309452
-0.0011855618
-0.0012405867
-0.0012952497
-0.001348961
-0.0014047121
-0.0014593172
-0.0015129172
-0.0015666855
-0.0016208084
-0.0016749315
-0.0017290659
-0.0017836734
-0.0018382549
-0.0018926296
-0.0019475666
-0.0020023136
-0.0020564301
-0.002112035
-0.002166912
-0.0022197594
-0.0022740096
-0.0023281988
-0.0023807174
-0.0024325837
-0.0024844105
-0.0025360386
-0.0025874377
-0.0026390245
-0.0026907524
-0.0027423506
-0.0027940111
-0.002845827
-0.0028968892
-0.0029473213
-0.0029991531
-0.0030502755
-0.003098425
-0.0031469151
-0.0031953606
-0.0032417521
0
0
0
0
0
0
0
0
0
0
0
0
0
0
0
0
0
0
0
0
0
-0.0035514038
-0.0034468851
-0.0033020518
-0.0031211124
-0.0029136825
-0.0026698828
-0.0023659474
-0.0020419543
-0.0016584139
-0.0012447419
-0.00080695043
-0.00033566493
0.00016685339
0.00070206862
0.0012999881
0.0019018916
0.0025608997
0.0032143728
0.0039166917
0
0
0
0
0
0
0
0
0
0
0
0
0
0
0
0
0
0
0
0
0
0
0
0
0
0
0
0
0
0
0
0
0
0
0
0
0
0
0
0
0
0
0
0
0
0
0
0
0
0
0
0
0
0
0
0
0
0
0
0
0
0
0
0
0
0
0
0
0
0
0
0
0
0.0032628962
0.0032208197
0.0031786364
0.003137006
0.003094669
0.0030525362
0.0030105596
0.0029678784
0.0029243637
0.0028808724
0.0028365266
0.0027917807
0.002747296
0.0027026764
0.0026591653
0.0026163814
0.0025746666
0.0025330559
0.0024909712
0.0024482212
0.0024047302
0.0023599657
0.0023142195
0.002267036
0.0022202719
0.002172545
0.002124807
0.0020769466
0.0020274525
0.0019787854
0.0019293535
0.0018781287
0.0018255581
0.0017738025
0.0017234143
0.0016732767
0.0016226199
0.0015714743
0.0015194192
0.0014663473
0.0014121026
0.0013576274
0.0013034268
0.0012499256
0.0011961016
0.0011422169
0.0010882273
0.0010342806
0.0009803239
0.00092655145
0.00087289979
0.00081904769
0.00076512549
0.00071086474
0.00065678149
0.00060212237
0.00054786789
0.00049365865
0.00043901835
0.00038581849
0.00033118696
0.00027548396
0.00021903001
0.00016224669
0.00010560145
4.9228526e-05
-7.7469555e-06
-6.4826614e-05
-0.00012140629
-0.0001778642
-0.00023359904
-0.00028922927
-0.00034559073
-0.00040129083
-0.00045654452
-0.00051288929
-0.00056905245
-0.00062563849
-0.00068237257
-0.00073871725
-0.0007945664
-0.00085006331
-0.00090640624
-0.00096327655
-0.0010203031
-0.0010771856
-0.0011330588
-0.0011884492
-0.0012438533
-0.0012990364
-0.0013530791
-0.0014090878
-0.0014656736
-0.0015211499
-0.0015760256
-0.0016307768
-0.0016863835
-0.001742823
-0.0017989717
-0.0018553247
-0.0019113206
-0.0019666196
-0.0020222142
-0.0020768445
-0.0021318796
-0.0021865636
-0.0022406168
-0.002295983
-0.002350645
-0.0024042739
-0.002458025
-0.0025121352
-0.0025662554
-0.0026203761
-0.0026749731
-0.0027295571
-0.0027839223
-0.002838856
-0.0028936152
-0.0029477053
-0.003003308
-0.0030582617
-0.0031111236
-0.0031653242
-0.0032195752
-0.0032721679
0
0
0
0
0
0
0
0
0
0
0
0
0
0
0
0
0
0
0
0
0
0
0
0
0
0
0
0
0
0
0
0
0
0
0
0
0
0
0
0
0
0
-0.0037757257
-0.0035186829
-0.0031986133
-0.0028584733
-0.0024503185
-0.0020223458
-0.0015672257
-0.0010806949
-0.00055273282
3.8788529e-05
0.00063904522
0.0013002725
0.0019605638
0.0026628827
0.0034081382
0.0041162519
0
0
0
0
0
0
0
0
0
0
0
0
0
0
0
0
0
0
0
0
0
0
0
0
0
0
0
0
0
0
0
0
0
0
0
0
0
0
0
0
0
0
0
0
0
0
0
0
0
0
0
0
0.003260061
0.0032122588
0.0031634916
0.0031150722
0.0030693561
0.0030224927
0.0029771941
0.0029317574
0.0028864488
0.0028421731
0.0027981503
0.0027545143
0.002711014
0.0026677113
0.0026249175
0.0025822581
0.0025398606
0.0024972458
0.0024549834
0.0024130562
0.0023709207
0.002328845
0.0022866519
0.0022450216
0.0022026982
0.002160559
0.0021185914
0.0020759434
0.0020324523
0.001988983
0.0019446658
0.0018999307
0.001855444
0.0018108025
0.0017672471
0.0017244151
0.0016826694
0.0016410625
0.0015990034
0.0015562874
0.0015128433
0.0014681379
0.001422453
0.0013753027
0.0013285565
0.0012808468
0.0012331205
0.0011853007
0.0011358274
0.0010871613
0.0010377948
0.00098666719
0.00093412205
0.00088230519
0.00083186148
0.00078172343
0.00073109567
0.00067999066
0.00062799248
0.0005749883
0.00052078987
0.00046631961
0.0004120845
0.00035856867
0.00030475581
0.00025087912
0.00019689179
0.00014294399
8.8980972e-05
3.519963e-05
-1.8451316e-05
-7.2294251e-05
-0.00012620511
-0.00018045837
-0.0002345301
-0.00028918535
-0.00034344772
-0.00039765806
-0.00045232657
-0.00050551853
-0.0005600825
-0.00061571823
-0.00067213774
-0.00072891951
-0.00078557693
-0.00084193895
-0.00089889354
-0.00095598092
-0.0010125844
-0.0010690732
-0.0011248275
-0.0011804419
-0.0012368052
-0.0012925302
-0.0013477643
-0.0014040849
-0.0014602344
-0.0015168064
-0.001573549
-0.0016299263
-0.0016858008
-0.0017412794
-0.0017975772
-0.001854421
-0.0019114527
-0.0019683759
-0.0020242939
-0.0020797003
-0.0021351171
-0.0021903211
-0.0022449163
-0.0023002847
-0.0023568816
-0.0024124178
-0.0024673156
-0.0025220347
-0.0025775895
-0.0026340106
-0.0026901639
-0.0027465296
-0.0028025534
-0.00285787
-0.0029134831
-0.0029681273
-0.0030231725
-0.0030778775
-0.0031319076
-0.0031872539
-0.0032419727
-0.0032956306
0
0
0
0
0
0
0
0
0
0
0
0
0
0
0
0
0
0
0
0
0
0
0
0
0
0
0
0
0
0
0
0
0
0
0
0
0
0
0
0
0
0
0
0
0
0
0
0
0
0
0
0
0
0
0
0
0
0
0
0
-0.0040365029
-0.0036551516
-0.0032389547
-0.0027958755
-0.0023198652
-0.0018075343
-0.001222411
-0.00062380119
3.9645377e-05
0.0007067548
0.0014365844
0.0021619788
0.0028914206
0.0036576012
0
0
0
0
0
0
0
0
0
0
0
0
0
0
0
0
0
0
0
0
0
0
0
0
0
0
0
0
0
0
0
0
0
0
0.0032890064
0.0032395028
0.0031900345
0.0031383444
0.0030869307
0.0030343986
0.0029830101
0.0029303671
0.002877487
0.002825807
0.0027734587
0.0027219357
0.0026702623
0.0026187303
0.002568559
0.0025174699
0.0024677469
0.0024181349
0.0023684299
0.0023206078
0.0022718444
0.0022233521
0.0021775945
0.0021307095
0.0020853857
0.0020399422
0.0019946095
0.0019503007
0.0019062581
0.001862611
0.001819102
0.0017757835
0.0017329725
0.0016903032
0.0016479049
0.0016052862
0.0015630094
0.0015210766
0.0014789452
0.0014368703
0.0013946675
0.0013530373
0.0013107274
0.0012685818
0.0012266231
0.0011840083
0.001140541
0.0010970935
0.0010528049
0.0010080808
0.00096359203
0.00091892854
0.00087532896
0.00083244877
0.00079067228
0.00074906913
0.00070703551
0.00066435353
0.00062095639
0.00057631
0.00053068661
0.0004835693
0.00043684107
0.00038914853
0.00034143396
0.00029365474
0.00024420234
0.00019553732
0.00014623603
9.5205686e-05
4.2685979e-05
-9.1921547e-06
-5.9691294e-05
-0.00010982985
-0.00016042859
-0.00021149296
-0.00026343428
-0.00031637066
-0.00037052281
-0.00042498821
-0.00047925775
-0.00053278824
-0.00058658999
-0.00064045863
-0.00069444371
-0.00074839257
-0.00080236193
-0.00085615222
-0.00090980245
-0.00096363616
-0.0010175357
-0.0010717815
-0.0011258417
-0.0011804931
-0.0012347633
-0.0012889748
-0.0013432586
-0.0013968555
-0.001451352
-0.0015069204
-0.0015633055
-0.0016200857
-0.0016767553
-0.0017331064
-0.0017900401
-0.0018471352
-0.0019037626
-0.0019602822
-0.002016056
-0.0020716545
-0.0021280196
-0.0021837697
-0.0022390544
-0.0022952805
-0.0023514164
-0.0024079743
-0.0024647255
-0.0025211354
-0.0025770351
-0.0026324954
-0.0026887481
-0.0027455654
-0.0028026022
-0.0028595661
-0.002915529
-0.0029709513
-0.0030263809
-0.0030816058
-0.0031361822
-0.0031914816
-0.0032480897
-0.0033036857
0
0
0
0
0
0
0
0
0
0
0
0
0
0
0
0
0
0
0
0
0
0
0
0
0
0
0
0
0
0
0
0
0
0
0
0
0
0
0
0
0
0
0
0
0
0
0
0
0
0
0
0
0
0
0
0
0
0
0
0
0
0
0
0
0
0
0
0
0
0
0
0
0
0
0
0
0
0
-0.0040165586
-0.0035550688
-0.0030500092
-0.0024836106
-0.0018866476
-0.0012209818
-0.0005470542
0.00019042505
0.00090040866
0.0016665893
0.0024441487
0.0032298389
0
0
0
0
0.0035624251
0.0034062449
0.0032620257
0.0031449335
0.0030588362
0.0029914755
0.0029369786
0.0028931458
0.002857932
0.0028294779
0.0028069228
0.0027894064
0.0027761992
0.0027668727
0.0027605599
0.0027562331
0.0027526733
0.0027488201
0.0027437061
0.0027359555
0.0027253956
0.0027101367
0.0026911764
0.0026670427
0.002639124
0.0026066374
0.0025706815
0.002530937
0.0024889718
0.0024435068
0.0023973061
0.0023478905
0.0022984946
0.0022468573
0.0021954689
0.0021429412
0.0020915601
0.0020389514
0.0019860583
0.0019343576
0.0018820002
0.001830466
0.0017787846
0.0017272191
0.0016770297
0.0016259246
0.0015761718
0.0015265461
0.0014767988
0.0014289568
0.0013801973
0.0013316319
0.0012858329
0.0012389263
0.0011935772
0.001148127
0.0011027702
0.0010584283
0.001014366
0.00097070769
0.00092719002
0.00088385565
0.00084102753
0.00079834819
0.00075594923
0.00071332667
0.00067103536
0.00062909702
0.00058696975
0.00054489566
0.00050268307
0.00046105299
0.00041875658
0.00037660464
0.00033465491
0.00029207325
0.00024862962
0.00020520411
0.00016094408
0.00011623079
7.1740016e-05
2.7054616e-05
-1.6589182e-05
-5.951755e-05
-0.00010132486
-0.00014292424
-0.00018493235
-0.00022758033
-0.0002709305
-0.00031551787
-0.00036107981
-0.00040816407
-0.00045487433
-0.0005025497
-0.00055025256
-0.00059799118
-0.00064742275
-0.0006960867
-0.00074532272
-0.00079625582
-0.00084875009
-0.0009006895
-0.00095124407
-0.0010013831
-0.0010519528
-0.0011029766
-0.001154861
-0.0012077296
-0.0012618355
-0.001316296
-0.0013706
-0.0014241451
-0.0014779358
-0.0015317964
-0.0015857792
-0.0016397291
-0.0016937049
-0.001747504
-0.0018011536
-0.0018549781
-0.0019088663
-0.0019631046
-0.0020171532
-0.0020718008
-0.0021260789
-0.0021802915
-0.0022345954
-0.0022881926
-0.0023426214
-0.0023981226
-0.0024544732
-0.0025112519
-0.0025679337
-0.0026242739
-0.0026811867
-0.0027382895
-0.0027949407
-0.0028514912
-0.0029072845
-0.0029628671
-0.0030192341
-0.0030750091
-0.0031302815
-0.0031864761
-0.0032425984
-0.0032991423
0
0
0
0
0
0
0
0
0
0
0
0
0
0
0
0
0
0
0
0
0
0
0
0
0
0
0
0
0
0
0
0
0
0
0
0
0
0
0
0
0
0
0
0
0
0
0
0
0
0
0
0
0
0
0
0
0
0
0
0
0
0
0
0
0
0
0
0
0
0
0
0
0
0
0
0
0
0
0
0
0
0
0
0
0
0
0
0
0
0
0
0
0
0
0
-0.0042975575
-0.0037448101
-0.003149494
-0.0024816089
-0.0017811287
-0.0010557343
-0.00032442258
0.00044840516
0.0012340954
0.002084351
0.0029096732
0.0037349953
0
0
0
0.0026854103
0.0025173677
0.0023830937
0.0022592432
0.0021700423
0.0021007373
0.0020454215
0.0020010961
0.0019655534
0.0019368837
0.0019141843
0.001896572
0.0018833018
0.0018739376
0.0018676062
0.0018632723
0.0018597114
0.0018558618
0.0018507588
0.0018430317
0.0018325162
0.0018173265
0.0017984603
0.0017744428
0.0017466545
0.0017143107
0.0016784995
0.0016388907
0.0015970572
0.0015517035
0.0015056057
0.0014562781
0.0014069548
0.001355371
0.001304007
0.0012514837
0.0012001102
0.0011475357
0.0010946296
0.0010429082
0.00099054172
0.00093899634
0.00088730689
0.00083570797
0.0007855003
0.0007343792
0.00068459664
0.00063495726
0.00058516768
0.00053730574
0.00048855018
0.00043991178
0.00039407124
0.00034714304
0.00030176879
0.00025631189
0.00021093093
0.00016655594
0.00012247383
7.8804374e-05
3.5278048e-05
-8.0721962e-06
-5.0917441e-05
-9.3606769e-05
-0.00013600647
-0.00017863287
-0.00022093868
-0.0002628826
-0.00030500572
-0.00034707901
-0.00038930135
-0.00043093134
-0.00047321423
-0.00051537256
-0.00055731331
-0.00059986181
-0.00064328172
-0.00068668532
-0.00073091676
-0.00077561919
-0.00082011199
-0.00086481931
-0.00090850733
-0.00095148387
-0.000993322
-0.0010349176
-0.0010769002
-0.0011195142
-0.0011628174
-0.0012073457
-0.0012528462
-0.0012998974
-0.0013465897
-0.0013942479
-0.0014419391
-0.0014896371
-0.0015390478
-0.0015877107
-0.0016368815
-0.0016877173
-0.0017401862
-0.0017921868
-0.0018427968
-0.0018929364
-0.0019434771
-0.0019944602
-0.0020462878
-0.0020990886
-0.0021531482
-0.0022076039
-0.0022619423
-0.0023155021
-0.0023692816
-0.0024231341
-0.0024771147
-0.0025310657
-0.0025850478
-0.0026388559
-0.0026925047
-0.00274632
-0.0028001969
-0.0028544277
-0.0029084648
-0.0029631085
-0.0030173945
-0.0030716082
-0.0031259323
-0.0031795296
-0.0032338909
-0.0032893248
0
0
0
0
0
0
0
0
0
0
0
0
0
0
0
0
0
0
0
0
0
0
0
0
0
0
0
0
0
0
0
0
0
0
0
0
0
0
0
0
0
0
0
0
0
0
0
0
0
0
0
0
0
0
0
0
0
0
0
0
0
0
0
0
0
0
0
0
0
0
0
0
0
0
0
0
0
0
0
0
0
0
0
0
0
0
0
0
0
0
0
0
0
0
0
0
0
0
0
0
0
0
0
0
0
0
0
0
0
0
0
0
-0.0044123404
-0.0037422361
-0.0030272881
-0.0023154346
-0.0015473384
-0.00073255019
9.2771907e-05
0.00091809402
0.0017515196
0.0026072637
0.0034630077
0
0
0
0.0018214611
0.001640353
0.0015014005
0.0013735529
0.0012812484
0.0012099991
0.0011538644
0.0011090464
0.0010731749
0.0010442896
0.0010214459
0.0010037375
0.0009904045
0.00098100256
0.00097465248
0.00097031149
0.00096674958
0.00096290345
0.00095781156
0.0009501078
0.00093963674
0.00092451622
0.00090574419
0.00088184289
0.00085418494
0.00082198395
0.00078631746
0.00074684429
0.00070514273
0.00065990023
0.00061390529
0.00056466578
0.00051541494
0.00046388467
0.0004125452
0.00036002621
0.00030866022
0.00025611999
0.0002032009
0.00015145883
9.9083215e-05
4.7526682e-05
-4.1708035e-06
-5.580319e-05
-0.00010602906
-0.00015716617
-0.00020697851
-0.00025663158
-0.00030646343
-0.00035434528
-0.00040309694
-0.00045180837
-0.00049769038
-0.00054464018
-0.00059003966
-0.00063550327
-0.00068090836
-0.00072531645
-0.00076941832
-0.00081309894
-0.00085663392
-0.00090000004
-0.00094286241
-0.00098556173
-0.0010279622
-0.0010705924
-0.0011129127
-0.0011548622
-0.0011969812
-0.0012390537
-0.0012812858
-0.0013229157
-0.001365185
-0.0014073498
-0.0014492815
-0.0014917969
-0.0015351931
-0.0015785747
-0.0016227776
-0.0016674692
-0.001711964
-0.0017566932
-0.0018004255
-0.0018434502
-0.0018853191
-0.001926911
-0.0019688681
-0.002011448
-0.0020547043
-0.0020991736
-0.0021446127
-0.0021916308
-0.0022383526
-0.0022859462
-0.0023336256
-0.002381283
-0.0024306729
-0.0024793347
-0.0025284402
-0.0025791788
-0.0026316222
-0.0026836842
-0.0027343496
-0.0027844897
-0.0028350014
-0.0028859438
-0.0029377146
-0.0029904475
-0.0030444608
-0.0030989117
-0.0031532845
-0.003206859
-0.0032606274
0
0
0
0
0
0
0
0
0
0
0
0
0
0
0
0
0
0
0
0
0
0
0
0
0
0
0
0
0
0
0
0
0
0
0
0
0
0
0
0
0
0
0
0
0
0
0
0
0
0
0
0
0
0
0
0
0
0
0
0
0
0
0
0
0
0
0
0
0
0
0
0
0
0
0
0
0
0
0
0
0
0
0
0
0
0
0
0
0
0
0
0
0
0
0
0
0
0
0
0
0
0
0
0
0
0
0
0
0
0
0
0
0
0
0
0
0
0
0
0
0
0
0
0
0
0
0
0
0
0
-0.0042734475
-0.0035402658
-0.0027241293
-0.0018988072
-0.0010708504
-0.00021510631
0.00064063777
0.0014972648
0.0023688079
0.003240351
0
0
0
0.00094704646
0.00076333821
0.00061970738
0.0004889381
0.00039245451
0.00031926088
0.00026230736
0.00021699668
0.00018079633
0.00015169544
0.00012870743
0.00011090306
9.750715e-05
8.8067485e-05
8.1698758e-05
7.7350698e-05
7.3787721e-05