/*--------------------------------*- C++ -*----------------------------------*\
| =========                 |                                                 |
| \\      /  F ield         | OpenFOAM: The Open Source CFD Toolbox           |
|  \\    /   O peration     | Version:  2106                                  |
|   \\  /    A nd           | Website:  www.openfoam.com                      |
|    \\/     M anipulation  |                                                 |
\*---------------------------------------------------------------------------*/
FoamFile
{
    version     2.0;
    format      ascii;
    arch        "LSB;label=32;scalar=64";
    class       surfaceScalarField;
    location    "0.005";
    object      phi_0;
}
// * * * * * * * * * * * * * * * * * * * * * * * * * * * * * * * * * * * * * //

dimensions      [0 3 -1 0 0 0 0];

oriented        oriented;

internalField   nonuniform List<scalar> 
65152
(
5.5985194e-09
-5.5985194e-09
1.1233397e-08
-5.6348774e-09
1.6878341e-08
-5.6449439e-09
2.2537694e-08
-5.6593538e-09
2.821611e-08
-5.6784154e-09
3.3918379e-08
-5.7022693e-09
3.9649388e-08
-5.731009e-09
4.5414105e-08
-5.7647173e-09
5.1217591e-08
-5.8034855e-09
5.7065008e-08
-5.8474166e-09
6.2961636e-08
-5.8966281e-09
6.8912889e-08
-5.9512531e-09
7.4924331e-08
-6.011442e-09
8.1001695e-08
-6.0773635e-09
8.7150901e-08
-6.1492061e-09
9.3378081e-08
-6.2271801e-09
9.96896e-08
-6.3115192e-09
1.0609208e-07
-6.4024828e-09
1.1259244e-07
-6.5003586e-09
1.1919791e-07
-6.6054653e-09
1.2591606e-07
-6.7181561e-09
1.3275489e-07
-6.8388222e-09
1.3972278e-07
-6.9678974e-09
1.4682864e-07
-7.1058627e-09
1.540819e-07
-7.2532525e-09
1.6149256e-07
-7.4106609e-09
1.6907131e-07
-7.5787497e-09
1.7682957e-07
-7.7582574e-09
1.8477957e-07
-7.9500094e-09
1.9293451e-07
-8.1549311e-09
2.0130857e-07
-8.3740615e-09
2.0991714e-07
-8.6085714e-09
2.1877692e-07
-8.8597834e-09
2.2790612e-07
-9.1291968e-09
2.3732464e-07
-9.418517e-09
2.4705433e-07
-9.7296912e-09
2.5711928e-07
-1.0064952e-08
2.6754615e-07
-1.042687e-08
2.7836457e-07
-1.0818422e-08
2.8960764e-07
-1.1243067e-08
3.0131249e-07
-1.1704854e-08
3.1352104e-07
-1.2208549e-08
3.2628084e-07
-1.2759799e-08
3.3964618e-07
-1.3365343e-08
3.5367947e-07
-1.4033287e-08
3.6845294e-07
-1.477347e-08
3.840509e-07
-1.5597958e-08
4.005726e-07
-1.6521699e-08
4.1813603e-07
-1.7563435e-08
4.3688302e-07
-1.8746983e-08
4.5698608e-07
-2.0103067e-08
4.7865807e-07
-2.1671982e-08
5.0216564e-07
-2.3507575e-08
5.2784887e-07
-2.568323e-08
5.5615028e-07
-2.8301406e-08
5.8765487e-07
-3.15046e-08
6.2318967e-07
-3.5534797e-08
6.6369198e-07
-4.0502312e-08
7.1144152e-07
-4.7749535e-08
7.6902404e-07
-5.7582523e-08
8.3906511e-07
-7.0041065e-08
9.332885e-07
-9.4223392e-08
1.0596721e-06
-1.2638362e-07
1.2450739e-06
-1.8540174e-07
1.497606e-06
-2.5253218e-07
1.4291136e-06
6.8492431e-08
1.1596902e-06
2.6942336e-07
9.6968444e-07
1.900058e-07
8.4579227e-07
1.2389218e-07
7.5902982e-07
8.6762446e-08
6.9477904e-07
6.4250779e-08
6.4412401e-07
5.0655022e-08
6.0251076e-07
4.1613255e-08
5.6723171e-07
3.5279047e-08
5.3660033e-07
3.0631387e-08
5.0954629e-07
2.7054037e-08
4.8533768e-07
2.4208613e-08
4.6344972e-07
2.188796e-08
4.4349288e-07
1.995684e-08
4.2516965e-07
1.8323227e-08
4.0824743e-07
1.6922215e-08
3.9254081e-07
1.5706626e-08
3.778995e-07
1.4641308e-08
3.6419999e-07
1.3699509e-08
3.5133949e-07
1.2860502e-08
3.3923151e-07
1.2107972e-08
3.2780261e-07
1.1428904e-08
3.1698983e-07
1.0812783e-08
3.067388e-07
1.0251026e-08
2.9700225e-07
9.7365535e-09
2.8773877e-07
9.2634809e-09
2.7891189e-07
8.8268722e-09
2.7048934e-07
8.4225584e-09
2.6244234e-07
8.0469941e-09
2.547452e-07
7.6971459e-09
2.4737479e-07
7.3704033e-09
2.4031028e-07
7.0645072e-09
2.3353279e-07
6.7774926e-09
2.2702515e-07
6.5076429e-09
2.207717e-07
6.2534515e-09
2.1475811e-07
6.0135908e-09
2.0897122e-07
5.7868858e-09
2.0339893e-07
5.5722927e-09
1.9803005e-07
5.368881e-09
1.9285423e-07
5.1758183e-09
1.8786187e-07
4.9923574e-09
1.8304405e-07
4.8178256e-09
1.7839243e-07
4.6516154e-09
1.7389926e-07
4.4931764e-09
1.6955725e-07
4.3420083e-09
1.6535959e-07
4.1976553e-09
1.6129989e-07
4.0597011e-09
1.5737213e-07
3.9277637e-09
1.5357063e-07
3.8014927e-09
1.4989007e-07
3.6805613e-09
1.4632541e-07
3.5646652e-09
1.4287192e-07
3.4534859e-09
1.3952541e-07
3.3465159e-09
1.3628305e-07
3.2423543e-09
1.331241e-07
3.1589515e-09
1.300746e-07
3.0494988e-09
1.2711409e-07
2.960513e-09
1.2424107e-07
2.8730131e-09
1.2145363e-07
2.7874437e-09
1.18745e-07
2.7086278e-09
1.1611291e-07
2.6320905e-09
1.1355543e-07
2.5574875e-09
1.1107031e-07
2.4851189e-09
1.0865452e-07
2.4157903e-09
1.0629589e-07
2.3586302e-09
1.0401496e-07
2.2809287e-09
1.0180725e-07
2.2077068e-09
9.9665373e-08
2.1418787e-09
9.7490896e-08
2.1744769e-09
9.5458563e-08
2.0323328e-09
9.3470598e-08
1.9879643e-09
9.1531298e-08
1.9393e-09
8.9654833e-08
1.8764652e-09
8.7826155e-08
1.8286783e-09
8.5967917e-08
1.8582383e-09
8.4228171e-08
1.7397458e-09
8.2532241e-08
1.6959302e-09
8.0866683e-08
1.6655587e-09
7.9240575e-08
1.6261081e-09
7.7653039e-08
1.5875364e-09
7.6093834e-08
1.5592052e-09
7.4581436e-08
1.5123981e-09
7.3105751e-08
1.4756852e-09
7.16643e-08
1.4414516e-09
7.0256099e-08
1.4082005e-09
6.8879856e-08
1.3762431e-09
6.7527737e-08
1.3521196e-09
6.6212794e-08
1.3149431e-09
6.4926991e-08
1.2858028e-09
6.3669012e-08
1.2579794e-09
6.2438073e-08
1.230938e-09
6.1233382e-08
1.2046913e-09
6.0053964e-08
1.1794178e-09
5.8898443e-08
1.1555216e-09
5.7764416e-08
1.1340268e-09
5.6648291e-08
1.116125e-09
5.559605e-08
1.0522412e-09
5.4524756e-08
1.0712942e-09
5.3479421e-08
1.045335e-09
5.2456618e-08
1.0228022e-09
5.1450448e-08
1.0061704e-09
5.0461229e-08
9.8921917e-10
4.952928e-08
9.3194828e-10
4.8576473e-08
9.5280796e-10
4.7644898e-08
9.3157434e-10
4.6733796e-08
9.111021e-10
4.5843741e-08
8.9005501e-10
4.4967703e-08
8.7603829e-10
4.4107719e-08
8.5998331e-10
4.3262368e-08
8.4535189e-10
4.243143e-08
8.3093751e-10
4.1614695e-08
8.1673492e-10
4.0811839e-08
8.028561e-10
4.0022477e-08
7.8936236e-10
3.9246206e-08
7.7627114e-10
3.8482625e-08
7.635808e-10
3.7731341e-08
7.5128421e-10
3.6991966e-08
7.393746e-10
3.626412e-08
7.2784614e-10
3.5547428e-08
7.1669218e-10
3.4841527e-08
7.0590095e-10
3.4146416e-08
6.9511046e-10
3.3465213e-08
6.8120344e-10
3.2790551e-08
6.7466136e-10
3.2125316e-08
6.6523568e-10
3.1469608e-08
6.5570755e-10
3.082312e-08
6.464886e-10
3.0185536e-08
6.3758398e-10
2.9556591e-08
6.2894491e-10
2.8936093e-08
6.204974e-10
2.8323759e-08
6.1233402e-10
2.7719207e-08
6.045526e-10
2.7122026e-08
5.9718125e-10
2.6532551e-08
5.8947504e-10
2.5950385e-08
5.8216528e-10
2.537517e-08
5.7521534e-10
2.4806624e-08
5.6854581e-10
2.4244771e-08
5.6185322e-10
2.3691826e-08
5.5294444e-10
2.3142612e-08
5.4921399e-10
2.2599224e-08
5.4338802e-10
2.2061771e-08
5.3745304e-10
2.1530075e-08
5.3169671e-10
2.100395e-08
5.2612446e-10
2.0483216e-08
5.2073447e-10
1.9967698e-08
5.1551823e-10
1.9457287e-08
5.1041099e-10
1.8951933e-08
5.053535e-10
1.8449441e-08
5.0249215e-10
1.7953252e-08
4.961892e-10
1.7458976e-08
4.9427576e-10
1.6970864e-08
4.8811251e-10
1.6486205e-08
4.8465872e-10
1.6004336e-08
4.8186907e-10
1.5538303e-08
4.6603225e-10
1.506634e-08
4.7196378e-10
1.4587322e-08
4.7901795e-10
1.4124184e-08
4.6313761e-10
1.3662948e-08
4.6123648e-10
1.3204227e-08
4.5872034e-10
1.2748342e-08
4.5588498e-10
1.2295332e-08
4.530099e-10
1.1845136e-08
4.5019674e-10
1.1397657e-08
4.4747895e-10
1.0952805e-08
4.4485173e-10
1.0510483e-08
4.4232223e-10
1.0069894e-08
4.4058928e-10
9.6322332e-09
4.3766027e-10
9.1966736e-09
4.3555962e-10
8.7631205e-09
4.3355306e-10
8.3314861e-09
4.3163441e-10
7.9017526e-09
4.2973353e-10
7.4746284e-09
4.271242e-10
7.0484905e-09
4.2613786e-10
6.6242024e-09
4.2428815e-10
6.2020419e-09
4.2216043e-10
5.7759873e-09
4.2605466e-10
5.356469e-09
4.195183e-10
4.937477e-09
4.18992e-10
4.5191753e-09
4.1830161e-10
4.1017254e-09
4.1744994e-10
3.6846528e-09
4.1707262e-10
3.2710619e-09
4.1359091e-10
2.855555e-09
4.1550686e-10
2.4413607e-09
4.1419429e-10
2.0278393e-09
4.1352143e-10
1.6132027e-09
4.1463656e-10
1.2008563e-09
4.1234639e-10
7.8803972e-10
4.1281654e-10
3.7769861e-10
4.1034099e-10
3.7769849e-10
5.6252861e-09
-1.1223806e-08
1.1292438e-08
-1.1302029e-08
1.6968584e-08
-1.1321091e-08
2.2658807e-08
-1.1349577e-08
2.8368044e-08
-1.1387652e-08
3.4101185e-08
-1.143541e-08
3.9863153e-08
-1.1492977e-08
4.5658943e-08
-1.1560507e-08
5.1493634e-08
-1.1638176e-08
5.7372405e-08
-1.1726188e-08
6.3300555e-08
-1.1824778e-08
6.9283513e-08
-1.1934211e-08
7.5326859e-08
-1.2054788e-08
8.143634e-08
-1.2186845e-08
8.7617893e-08
-1.2330759e-08
9.3877662e-08
-1.248695e-08
1.0022203e-07
-1.2655884e-08
1.0665762e-07
-1.2838079e-08
1.1319137e-07
-1.3034109e-08
1.1983052e-07
-1.3244611e-08
1.2658265e-07
-1.3470288e-08
1.3345575e-07
-1.3711921e-08
1.4045823e-07
-1.3970376e-08
1.4759898e-07
-1.4246611e-08
1.5488741e-07
-1.454169e-08
1.6233355e-07
-1.4856799e-08
1.6994806e-07
-1.5193255e-08
1.7774233e-07
-1.5552528e-08
1.8572858e-07
-1.5936262e-08
1.9391995e-07
-1.6346297e-08
2.0233059e-07
-1.67847e-08
2.1097581e-07
-1.7253797e-08
2.1987224e-07
-1.7756217e-08
2.2903798e-07
-1.8294934e-08
2.384928e-07
-1.8873333e-08
2.4825838e-07
-1.9495274e-08
2.5835861e-07
-2.0165177e-08
2.6881987e-07
-2.0888132e-08
2.7967146e-07
-2.1670018e-08
2.9094606e-07
-2.2517667e-08
3.0268027e-07
-2.3439061e-08
3.149153e-07
-2.444358e-08
3.2769782e-07
-2.5542319e-08
3.4108097e-07
-2.674849e-08
3.5512564e-07
-2.8077956e-08
3.6990208e-07
-2.9549915e-08
3.8549195e-07
-3.1187826e-08
4.0199089e-07
-3.3020637e-08
4.1951193e-07
-3.5084477e-08
4.3818994e-07
-3.7424992e-08
4.5818752e-07
-4.0100644e-08
4.7970297e-07
-4.3187439e-08
5.0298124e-07
-4.6785839e-08
5.2832907e-07
-5.1031067e-08
5.5613641e-07
-5.6108737e-08
5.8691197e-07
-6.2280162e-08
6.2129476e-07
-6.991759e-08
6.603889e-07
-7.9596452e-08
7.0462503e-07
-9.1985669e-08
7.5702232e-07
-1.0997981e-07
8.1856961e-07
-1.3158835e-07
8.9243955e-07
-1.6809333e-07
9.7831276e-07
-2.1225683e-07
1.0892835e-06
-2.9637251e-07
1.199848e-06
-3.6309668e-07
1.1130927e-06
1.5524777e-07
1.0211845e-06
3.613316e-07
9.3973112e-07
2.7145912e-07
8.6364426e-07
1.9997904e-07
7.9731797e-07
1.5308873e-07
7.4030861e-07
1.2126014e-07
6.9163305e-07
9.933059e-08
6.4969927e-07
8.3547034e-08
6.1316428e-07
7.1814032e-08
5.8096912e-07
6.2826548e-08
5.5227727e-07
5.5745884e-08
5.2645253e-07
5.0033354e-08
5.0300946e-07
4.5331032e-08
4.8157282e-07
4.1393481e-08
4.6184824e-07
3.8047805e-08
4.4360131e-07
3.5169139e-08
4.266427e-07
3.2665242e-08
4.1081742e-07
3.0466581e-08
3.9599714e-07
2.851979e-08
3.8207439e-07
2.6783252e-08
3.6895832e-07
2.5224041e-08
3.5657145e-07
2.3815779e-08
3.4484715e-07
2.2537086e-08
3.3372771e-07
2.1370461e-08
3.2316282e-07
2.0301438e-08
3.1310835e-07
1.9317958e-08
3.0352532e-07
1.8409898e-08
2.9437919e-07
1.7568693e-08
2.8563913e-07
1.6787048e-08
2.7727756e-07
1.6058714e-08
2.6926966e-07
1.5378306e-08
2.6159301e-07
1.4741161e-08
2.5422728e-07
1.4143219e-08
2.4715399e-07
1.3580934e-08
2.4035626e-07
1.3051187e-08
2.3381862e-07
1.2551231e-08
2.2752687e-07
1.2078631e-08
2.2146794e-07
1.1631226e-08
2.1562974e-07
1.1207085e-08
2.1000107e-07
1.0804482e-08
2.0457156e-07
1.0421867e-08
1.9933154e-07
1.0057843e-08
1.9427201e-07
9.7111497e-09
1.8938454e-07
9.3806423e-09
1.8466127e-07
9.0652819e-09
1.8009481e-07
8.7641213e-09
1.7567821e-07
8.4762944e-09
1.7140497e-07
8.2010038e-09
1.6726896e-07
7.9375045e-09
1.6326447e-07
7.6850454e-09
1.5938644e-07
7.4426966e-09
1.5563121e-07
7.2087238e-09
1.5199901e-07
6.9787157e-09
1.4849227e-07
6.7490911e-09
1.4498907e-07
6.6621549e-09
1.4168837e-07
6.3501962e-09
1.3847513e-07
6.1737523e-09
1.3535089e-07
5.997254e-09
1.3231956e-07
5.8187672e-09
1.2937169e-07
5.6565057e-09
1.2650666e-07
5.4971165e-09
1.2372415e-07
5.3399944e-09
1.2102539e-07
5.1838876e-09
1.1841416e-07
5.0270139e-09
1.1579104e-07
4.9817539e-09
1.1331755e-07
4.7544218e-09
1.109026e-07
4.6226527e-09
1.0853043e-07
4.5140521e-09
1.0630248e-07
4.4024247e-09
1.0404787e-07
4.286943e-09
1.0185675e-07
4.1790795e-09
9.9716054e-08
4.0799983e-09
9.7702804e-08
3.8897157e-09
9.56576e-08
3.8738829e-09
9.3744876e-08
3.7709619e-09
9.1800515e-08
3.6841074e-09
8.9979437e-08
3.517009e-09
8.8145742e-08
3.4992544e-09
8.6371537e-08
3.4003136e-09
8.4653891e-08
3.305183e-09
8.2918493e-08
3.2946031e-09
8.1283407e-08
3.1474848e-09
7.9680951e-08
3.0781412e-09
7.8113213e-08
3.0091903e-09
7.6583913e-08
2.9375e-09
7.5096834e-08
2.8633226e-09
7.3590544e-08
2.8584098e-09
7.2169123e-08
2.7363641e-09
7.0772757e-08
2.6821689e-09
6.9403572e-08
2.6271644e-09
6.806307e-08
2.57144e-09
6.675122e-08
2.5165408e-09
6.5467633e-08
2.4630046e-09
6.4212193e-08
2.4109622e-09
6.2985803e-08
2.3604165e-09
6.1790172e-08
2.3117565e-09
6.05755e-08
2.2669125e-09
5.9428049e-08
2.2187454e-09
5.8299307e-08
2.1740776e-09
5.7190551e-08
2.1315575e-09
5.6105131e-08
2.0915904e-09
5.5045728e-08
2.0486227e-09
5.3968308e-08
2.0093681e-09
5.2946956e-08
1.9741596e-09
5.1936372e-08
1.9421588e-09
5.0938592e-08
1.9088815e-09
4.9995869e-08
1.8327778e-09
4.9032574e-08
1.839334e-09
4.8092815e-08
1.7997421e-09
4.7170716e-08
1.7674506e-09
4.6264807e-08
1.7368466e-09
4.5374575e-08
1.7069676e-09
4.4499548e-08
1.6778826e-09
4.3639252e-08
1.649658e-09
4.2793224e-08
1.6222996e-09
4.1961016e-08
1.595789e-09
4.1142192e-08
1.5701085e-09
4.0336306e-08
1.5452598e-09
3.9542853e-08
1.5212996e-09
3.8761088e-08
1.4984569e-09
3.7989364e-08
1.477625e-09
3.7225603e-08
1.4588719e-09
3.6501375e-08
1.4054309e-09
3.575984e-08
1.4161967e-09
3.5032305e-08
1.3927704e-09
3.4316912e-08
1.3711007e-09
3.3612028e-08
1.3513731e-09
3.2916939e-08
1.3326727e-09
3.2231256e-08
1.3146284e-09
3.1554844e-08
1.2969094e-09
3.0887384e-08
1.2797938e-09
3.0228373e-08
1.2635636e-09
2.9577009e-08
1.2485449e-09
2.8934393e-08
1.2320918e-09
2.8299684e-08
1.2168735e-09
2.7672204e-08
1.2026954e-09
2.7050804e-08
1.1899465e-09
2.6433967e-08
1.1786899e-09
2.5843716e-08
1.1431959e-09
2.5240591e-08
1.1523388e-09
2.4646503e-08
1.1374754e-09
2.4060071e-08
1.1238852e-09
2.3480231e-08
1.1115372e-09
2.2906567e-08
1.0997883e-09
2.2338871e-08
1.0884305e-09
2.1777133e-08
1.0772566e-09
2.1221933e-08
1.0656101e-09
2.0674248e-08
1.0530387e-09
2.0118239e-08
1.0585017e-09
1.9582856e-08
1.0315721e-09
1.9036801e-08
1.0403302e-09
1.8508495e-08
1.0164194e-09
1.7983138e-08
1.0100154e-09
1.7462034e-08
1.0029725e-09
1.6931965e-08
9.9610218e-10
1.6413562e-08
9.9036661e-10
1.5922729e-08
9.6985087e-10
1.5409795e-08
9.7607149e-10
1.4903357e-08
9.6767424e-10
1.4401953e-08
9.6012463e-10
1.3904407e-08
9.5343113e-10
1.3410265e-08
9.4715187e-10
1.2919312e-08
9.4114992e-10
1.2431476e-08
9.3531447e-10
1.1946973e-08
9.2935521e-10
1.1466304e-08
9.2299028e-10
1.0980772e-08
9.261222e-10
1.0505133e-08
9.1329896e-10
1.0030724e-08
9.0996798e-10
9.5579772e-09
9.0630038e-10
9.0869327e-09
9.0267885e-10
8.6171201e-09
8.9954614e-10
8.15427e-09
8.8997433e-10
7.6880094e-09
8.9239839e-10
7.2238615e-09
8.8843609e-10
6.7609333e-09
8.8508859e-10
6.3045585e-09
8.8242949e-10
5.8446389e-09
8.7943789e-10
5.386699e-09
8.7693189e-10
4.9303542e-09
8.7464637e-10
4.4753609e-09
8.7244331e-10
4.0216974e-09
8.7073601e-10
3.5662717e-09
8.6901667e-10
3.1140384e-09
8.6774017e-10
2.6630999e-09
8.6513275e-10
2.2114484e-09
8.6517288e-10
1.7610113e-09
8.6507361e-10
1.310117e-09
8.6324078e-10
8.60248e-10
8.6268572e-10
4.1057404e-10
8.6001516e-10
7.8827247e-10
5.6165762e-09
-1.6840382e-08
1.1273697e-08
-1.695915e-08
1.6940274e-08
-1.6987668e-08
2.2620961e-08
-1.7030264e-08
2.8320574e-08
-1.7087264e-08
3.4043962e-08
-1.7158798e-08
3.9796026e-08
-1.7245042e-08
4.5581735e-08
-1.7346215e-08
5.1406139e-08
-1.746258e-08
5.7274391e-08
-1.759444e-08
6.3191755e-08
-1.7742142e-08
6.9163627e-08
-1.7906083e-08
7.5195549e-08
-1.808671e-08
8.1293231e-08
-1.8284526e-08
8.7462563e-08
-1.8500092e-08
9.3709646e-08
-1.8734032e-08
1.0004081e-07
-1.8987043e-08
1.0646262e-07
-1.9259895e-08
1.1298196e-07
-1.9553443e-08
1.1960598e-07
-1.9868634e-08
1.2634221e-07
-2.0206517e-08
1.3319854e-07
-2.0568252e-08
1.4018329e-07
-2.0955125e-08
1.4730524e-07
-2.1368562e-08
1.5457369e-07
-2.1810146e-08
1.6199853e-07
-2.2281635e-08
1.6959026e-07
-2.2784984e-08
1.7736011e-07
-2.3322376e-08
1.8532009e-07
-2.3896247e-08
1.9348312e-07
-2.4509323e-08
2.0186308e-07
-2.5164665e-08
2.10475e-07
-2.5865713e-08
2.1933513e-07
-2.6616353e-08
2.2846118e-07
-2.7420978e-08
2.3787242e-07
-2.8284579e-08
2.4758999e-07
-2.9212843e-08
2.5763709e-07
-3.0212276e-08
2.6803931e-07
-3.1290351e-08
2.7882499e-07
-3.2455695e-08
2.9002563e-07
-3.371831e-08
3.0167643e-07
-3.5089857e-08
3.1381685e-07
-3.6584006e-08
3.2649142e-07
-3.8216884e-08
3.3975057e-07
-4.0007641e-08
3.5365179e-07
-4.1979178e-08
3.6826099e-07
-4.4159108e-08
3.8365416e-07
-4.6580996e-08
3.9991955e-07
-4.9286033e-08
4.1716035e-07
-5.2325275e-08
4.3549807e-07
-5.5762711e-08
4.5507692e-07
-5.9679499e-08
4.7606942e-07
-6.4179934e-08
4.9868352e-07
-6.9399946e-08
5.2317192e-07
-7.5519468e-08
5.4984373e-07
-8.2780538e-08
5.7907988e-07
-9.151632e-08
6.1134079e-07
-1.0217849e-07
6.4725865e-07
-1.1551431e-07
6.8719693e-07
-1.3192395e-07
7.3240972e-07
-1.551926e-07
7.8298097e-07
-1.8215961e-07
8.390296e-07
-2.2414196e-07
8.9556772e-07
-2.6879495e-07
9.5493173e-07
-3.5573652e-07
9.9188072e-07
-4.0004568e-07
9.6027768e-07
1.8685082e-07
9.2699385e-07
3.9461544e-07
8.7466235e-07
3.2379062e-07
8.1945896e-07
2.5518242e-07
7.6719362e-07
2.0535407e-07
7.1964663e-07
1.6880713e-07
6.7716851e-07
1.4180871e-07
6.3934624e-07
1.213693e-07
6.0558535e-07
1.0557492e-07
5.7529343e-07
9.3118461e-08
5.4794151e-07
8.3097809e-08
5.230852e-07
7.4889667e-08
5.0035935e-07
6.8056877e-08
4.7946563e-07
6.2287197e-08
4.6015996e-07
5.7353483e-08
4.422416e-07
5.3087502e-08
4.2554434e-07
4.9362499e-08
4.0992949e-07
4.608143e-08
3.9528039e-07
4.3168892e-08
3.8149814e-07
4.0565495e-08
3.684983e-07
3.8223881e-08
3.5620822e-07
3.610586e-08
3.44565e-07
3.4180311e-08
3.3351382e-07
3.2421638e-08
3.2300665e-07
3.0808603e-08
3.1300116e-07
2.9323448e-08
3.0345985e-07
2.7951215e-08
2.9434932e-07
2.6679217e-08
2.8563974e-07
2.5496628e-08
2.773043e-07
2.4394156e-08
2.6931883e-07
2.3363779e-08
2.6166145e-07
2.2398542e-08
2.5431229e-07
2.1492381e-08
2.4725323e-07
2.0639986e-08
2.4046773e-07
1.9836692e-08
2.3394058e-07
1.9078376e-08
2.2765783e-07
1.8361388e-08
2.2160657e-07
1.7682478e-08
2.1577491e-07
1.7038748e-08
2.1015179e-07
1.6427601e-08
2.0472696e-07
1.5846702e-08
1.9949085e-07
1.5293949e-08
1.9443456e-07
1.4767441e-08
1.8954975e-07
1.4265453e-08
1.8482861e-07
1.3786418e-08
1.8026383e-07
1.3328907e-08
1.7584851e-07
1.2891614e-08
1.7157616e-07
1.2473349e-08
1.6744063e-07
1.2073035e-08
1.6343594e-07
1.1689736e-08
1.5955583e-07
1.1322811e-08
1.5579207e-07
1.0972482e-08
1.5212883e-07
1.0641952e-08
1.4854161e-07
1.0336317e-08
1.4527949e-07
9.9242675e-09
1.4190413e-07
9.7255582e-09
1.386549e-07
9.4229802e-09
1.3551732e-07
9.1348315e-09
1.3249266e-07
8.8434289e-09
1.2954042e-07
8.6087487e-09
1.2666999e-07
8.3675478e-09
1.2387981e-07
8.1301749e-09
1.2116221e-07
7.9014887e-09
1.1850603e-07
7.683191e-09
1.1600952e-07
7.4782647e-09
1.1347877e-07
7.2851748e-09
1.1109549e-07
7.0059306e-09
1.0869829e-07
6.9112485e-09
1.0645627e-07
6.6444465e-09
1.0420472e-07
6.5384977e-09
1.0202675e-07
6.3570485e-09
9.9922637e-08
6.1841086e-09
9.7799162e-08
6.013191e-09
9.579226e-08
5.8807853e-09
9.3896037e-08
5.6671854e-09
9.1989112e-08
5.5910332e-09
9.0063347e-08
5.442774e-09
8.8257641e-08
5.3049614e-09
8.6488294e-08
5.1696609e-09
8.4758607e-08
5.0348705e-09
8.3077121e-08
4.9760891e-09
8.1427814e-08
4.7967927e-09
7.981498e-08
4.6909753e-09
7.8238725e-08
4.5854453e-09
7.6695401e-08
4.4808243e-09
7.5179615e-08
4.3791089e-09
7.3756733e-08
4.2812909e-09
7.2308573e-08
4.1845243e-09
7.0899189e-08
4.0915529e-09
6.9524556e-08
4.0017973e-09
6.8181168e-08
3.9148281e-09
6.6867268e-08
3.8304411e-09
6.5581881e-08
3.7483916e-09
6.4324694e-08
3.6681489e-09
6.309666e-08
3.5884509e-09
6.1899255e-08
3.5091614e-09
6.0684184e-08
3.4819832e-09
5.953508e-08
3.3678495e-09
5.8405169e-08
3.303988e-09
5.7294955e-08
3.2417721e-09
5.620545e-08
3.1810952e-09
5.5146281e-08
3.1077913e-09
5.4071812e-08
3.083837e-09
5.306244e-08
2.983532e-09
5.2032602e-08
2.9719962e-09
5.1060069e-08
2.881415e-09
5.005821e-08
2.8346366e-09
4.9111596e-08
2.785948e-09
4.8181717e-08
2.7296218e-09
4.7259995e-08
2.6891726e-09
4.635264e-08
2.6442008e-09
4.5460939e-08
2.5986689e-09
4.4584546e-08
2.5542756e-09
4.3722931e-08
2.511273e-09
4.2875604e-08
2.4696262e-09
4.2042118e-08
2.4292754e-09
4.1222057e-08
2.3901698e-09
4.0415043e-08
2.3522738e-09
3.9620774e-08
2.3155683e-09
3.8839195e-08
2.2800361e-09
3.8071367e-08
2.2454526e-09
3.7319871e-08
2.210368e-09
3.6552626e-08
2.1726763e-09
3.5822979e-08
2.1458435e-09
3.5099477e-08
2.116272e-09
3.4384426e-08
2.0861523e-09
3.3678856e-08
2.0569424e-09
3.2982679e-08
2.0288503e-09
3.2295649e-08
2.0016585e-09
3.161815e-08
1.9744079e-09
3.0949915e-08
1.9480285e-09
3.0290082e-08
1.9233969e-09
2.9636159e-08
1.9024685e-09
2.899281e-08
1.8754407e-09
2.8357625e-08
1.8520585e-09
2.7730109e-08
1.8302107e-09
2.7111069e-08
1.8089864e-09
2.6502483e-08
1.7872759e-09
2.5882279e-08
1.7634001e-09
2.5287206e-08
1.7474115e-09
2.4695499e-08
1.7291826e-09
2.4108935e-08
1.7104499e-09
2.3528277e-08
1.6921949e-09
2.2953541e-08
1.6745248e-09
2.2384475e-08
1.6574959e-09
2.1820363e-08
1.6413688e-09
2.1259413e-08
1.6265603e-09
2.0698737e-08
1.613715e-09
2.0172229e-08
1.5850088e-09
1.9619279e-08
1.5845223e-09
1.908947e-08
1.5701391e-09
1.8551943e-08
1.5539468e-09
1.8022333e-08
1.5396251e-09
1.750002e-08
1.5252853e-09
1.6971286e-08
1.5248362e-09
1.64586e-08
1.5030528e-09
1.5946159e-08
1.4822919e-09
1.5438607e-08
1.4836237e-09
1.4933635e-08
1.4726464e-09
1.4431911e-08
1.4618484e-09
1.3933559e-08
1.4517835e-09
1.3438442e-08
1.4422686e-09
1.2946369e-08
1.4332229e-09
1.2457016e-08
1.4246673e-09
1.1969511e-08
1.4168608e-09
1.1482245e-08
1.4102559e-09
1.1012432e-08
1.3959353e-09
1.0530247e-08
1.3954838e-09
1.0052891e-08
1.3873238e-09
9.5788547e-09
1.3803367e-09
9.1074759e-09
1.3740577e-09
8.6390655e-09
1.3679565e-09
8.1680172e-09
1.3610227e-09
7.703196e-09
1.3572196e-09
7.2389487e-09
1.3526834e-09
6.7755807e-09
1.3484565e-09
6.3175915e-09
1.3404187e-09
5.8570148e-09
1.3400146e-09
5.3981436e-09
1.335803e-09
4.9407507e-09
1.3320392e-09
4.4850665e-09
1.3281276e-09
4.0301666e-09
1.3256359e-09
3.5744308e-09
1.3247525e-09
3.1213965e-09
1.3207745e-09
2.667912e-09
1.3186172e-09
2.2155585e-09
1.3175264e-09
1.7650179e-09
1.3156141e-09
1.3131499e-09
1.3151087e-09
8.6207256e-10
1.3137629e-09
4.1194048e-10
1.3101473e-09
1.2002129e-09
5.6026637e-09
-2.2443046e-08
1.1245444e-08
-2.2601931e-08
1.6897674e-08
-2.2639898e-08
2.2563953e-08
-2.2696543e-08
2.8249029e-08
-2.2772341e-08
3.3957704e-08
-2.2867473e-08
3.9694836e-08
-2.2982173e-08
4.546535e-08
-2.311673e-08
5.1274257e-08
-2.3271487e-08
5.7126663e-08
-2.3446845e-08
6.3027784e-08
-2.3643263e-08
6.8982966e-08
-2.3861264e-08
7.4997695e-08
-2.410144e-08
8.1077622e-08
-2.4364453e-08
8.7228574e-08
-2.4651044e-08
9.3456581e-08
-2.4962038e-08
9.9767891e-08
-2.5298354e-08
1.06169e-07
-2.5661007e-08
1.1266669e-07
-2.6051125e-08
1.1926801e-07
-2.6469956e-08
1.2598037e-07
-2.6918882e-08
1.3281155e-07
-2.739943e-08
1.3976972e-07
-2.7913295e-08
1.4686351e-07
-2.846235e-08
1.5410204e-07
-2.9048677e-08
1.6149499e-07
-2.9674585e-08
1.6905265e-07
-3.0342643e-08
1.7678598e-07
-3.1055713e-08
1.8470672e-07
-3.1816987e-08
1.9282744e-07
-3.2630037e-08
2.0116164e-07
-3.3498866e-08
2.097239e-07
-3.4427972e-08
2.1852997e-07
-3.5422423e-08
2.2759694e-07
-3.6487949e-08
2.369434e-07
-3.7631044e-08
2.4658966e-07
-3.8859098e-08
2.5655793e-07
-4.0180552e-08
2.6687266e-07
-4.1605079e-08
2.7756079e-07
-4.3143823e-08
2.8865215e-07
-4.4809669e-08
3.0017989e-07
-4.6617601e-08
3.1218101e-07
-4.8585126e-08
3.2469695e-07
-5.0732824e-08
3.3777434e-07
-5.3085031e-08
3.5146588e-07
-5.5670716e-08
3.6583138e-07
-5.852461e-08
3.8093906e-07
-6.168867e-08
3.9686702e-07
-6.5214001e-08
4.1370515e-07
-6.9163398e-08
4.3155719e-07
-7.361475e-08
4.5054333e-07
-7.8665644e-08
4.7080305e-07
-8.4439655e-08
4.9249814e-07
-9.1095029e-08
5.1581546e-07
-9.8836797e-08
5.4096863e-07
-1.079337e-07
5.6819584e-07
-1.1874353e-07
5.9775251e-07
-1.3173517e-07
6.298721e-07
-1.476339e-07
6.6472183e-07
-1.6677368e-07
7.0223734e-07
-1.9270811e-07
7.4219922e-07
-2.2212148e-07
7.8277351e-07
-2.6471625e-07
8.2020403e-07
-3.0622548e-07
8.5058412e-07
-3.861166e-07
8.6392139e-07
-4.1338296e-07
8.3965627e-07
2.1111595e-07
8.3186699e-07
4.0240472e-07
8.0332047e-07
3.5233714e-07
7.6764968e-07
2.9085321e-07
7.2933227e-07
2.4367149e-07
6.9163026e-07
2.0650914e-07
6.5607282e-07
1.7736615e-07
6.2313679e-07
1.5430533e-07
5.9286664e-07
1.3584508e-07
5.6510906e-07
1.2087604e-07
5.3963301e-07
1.0857386e-07
5.161929e-07
9.8329782e-08
4.9455667e-07
8.96931e-08
4.7451627e-07
8.2327604e-08
4.5588975e-07
7.598e-08
4.3851994e-07
7.0457312e-08
4.2227165e-07
6.5610788e-08
4.0702867e-07
6.1324408e-08
3.9269091e-07
5.7506652e-08
3.7917187e-07
5.4084533e-08
3.663965e-07
5.099925e-08
3.542994e-07
4.8202967e-08
3.4282329e-07
4.5656423e-08
3.319178e-07
4.3327123e-08
3.2153844e-07
4.1187967e-08
3.116457e-07
3.9216188e-08
3.0220438e-07
3.7392532e-08
2.9318299e-07
3.5700612e-08
2.8455321e-07
3.4126403e-08
2.7628953e-07
3.2657833e-08
2.6836886e-07
3.1284457e-08
2.607702e-07
2.9997198e-08
2.5347446e-07
2.8788126e-08
2.4646415e-07
2.765029e-08
2.3972328e-07
2.6577564e-08
2.3323712e-07
2.5564536e-08
2.2699211e-07
2.4606401e-08
2.2097571e-07
2.369888e-08
2.151763e-07
2.283815e-08
2.0958312e-07
2.2020783e-08
2.0418613e-07
2.1243695e-08
1.9897597e-07
2.0504107e-08
1.9394391e-07
1.9799499e-08
1.8908178e-07
1.912759e-08
1.8438189e-07
1.84863e-08
1.7983707e-07
1.7873735e-08
1.7544052e-07
1.728816e-08
1.7118588e-07
1.6727985e-08
1.6706716e-07
1.619176e-08
1.6307874e-07
1.5678159e-08
1.5921552e-07
1.5186022e-08
1.5547359e-07
1.4714414e-08
1.5185298e-07
1.4262565e-08
1.4836049e-07
1.3828807e-08
1.4487092e-07
1.3413833e-08
1.4158163e-07
1.3014848e-08
1.3837041e-07
1.2634208e-08
1.3523424e-07
1.2270998e-08
1.3226587e-07
1.1811804e-08
1.2930644e-07
1.1568173e-08
1.264404e-07
1.1233588e-08
1.2365871e-07
1.0911867e-08
1.2095194e-07
1.0608263e-08
1.1831172e-07
1.0323412e-08
1.1583304e-07
9.9569408e-09
1.1335521e-07
9.7630026e-09
1.1087471e-07
9.4864368e-09
1.0855714e-07
9.2288086e-09
1.0622166e-07
8.9799292e-09
1.0401603e-07
8.7441332e-09
1.0185816e-07
8.5149101e-09
9.9749569e-08
8.2927046e-09
9.7684242e-08
8.0785177e-09
9.5680406e-08
7.8846216e-09
9.3730167e-08
7.6174245e-09
9.183843e-08
7.4827707e-09
8.9929519e-08
7.3516856e-09
8.81269e-08
7.1075814e-09
8.6352874e-08
6.9436871e-09
8.4599978e-08
6.7877667e-09
8.3007736e-08
6.5683318e-09
8.133469e-08
6.4698386e-09
7.971483e-08
6.3108357e-09
7.8138994e-08
6.1612816e-09
7.6598464e-08
6.0213547e-09
7.5086879e-08
5.8906939e-09
7.366351e-08
5.7046601e-09
7.2219593e-08
5.628441e-09
7.0813508e-08
5.4976374e-09
6.9441634e-08
5.3736721e-09
6.8100747e-08
5.2557151e-09
6.6789068e-08
5.1421195e-09
6.5505315e-08
5.0321445e-09
6.4248358e-08
4.9251059e-09
6.3017359e-08
4.8194499e-09
6.1812942e-08
4.7135791e-09
6.063453e-08
4.6603948e-09
5.9479086e-08
4.5232939e-09
5.8347075e-08
4.4359987e-09
5.7244254e-08
4.3445928e-09
5.6124865e-08
4.3004844e-09
5.5054739e-08
4.177917e-09
5.4032184e-08
4.1063918e-09
5.2978808e-08
4.0369081e-09
5.2027924e-08
3.9228806e-09
5.1024136e-08
3.8852027e-09
5.0014572e-08
3.8442003e-09
4.9058266e-08
3.7422537e-09
4.8145153e-08
3.6427352e-09
4.7217785e-08
3.6165402e-09
4.6309899e-08
3.5520869e-09
4.5419243e-08
3.4893256e-09
4.4544156e-08
3.4293622e-09
4.3683841e-08
3.3715879e-09
4.2837761e-08
3.3157059e-09
4.2005473e-08
3.2615639e-09
4.1186575e-08
3.2090674e-09
4.0380704e-08
3.1581448e-09
3.9587546e-08
3.1087271e-09
3.8806869e-08
3.060713e-09
3.8038422e-08
3.0138996e-09
3.7280877e-08
2.9679129e-09
3.6530951e-08
2.9226025e-09
3.5795589e-08
2.8812053e-09
3.5071451e-08
2.84041e-09
3.4357251e-08
2.8003523e-09
3.3652701e-08
2.7614925e-09
3.2957322e-08
2.7242289e-09
3.2270383e-08
2.6885982e-09
3.1593672e-08
2.6511189e-09
3.092729e-08
2.6144099e-09
3.0272885e-08
2.5778027e-09
2.9609159e-08
2.5661937e-09
2.897094e-08
2.5136599e-09
2.8337403e-08
2.4855962e-09
2.7710494e-08
2.4571194e-09
2.7090971e-08
2.4285093e-09
2.6478145e-08
2.4001023e-09
2.5869546e-08
2.3719985e-09
2.5270424e-08
2.3465339e-09
2.4678226e-08
2.3213808e-09
2.4092104e-08
2.2965713e-09
2.3511994e-08
2.2723046e-09
2.2937887e-08
2.2486319e-09
2.2369732e-08
2.2256517e-09
2.1807185e-08
2.2039155e-09
2.1250772e-08
2.1829732e-09
2.0701795e-08
2.1626918e-09
2.0143601e-08
2.1432035e-09
1.9604399e-08
2.1237242e-09
1.9071243e-08
2.1032945e-09
1.8538245e-08
2.0869454e-09
1.8007615e-08
2.0702549e-09
1.7477848e-08
2.0550524e-09
1.6974412e-08
2.0282721e-09
1.6454753e-08
2.0227119e-09
1.5934279e-08
2.0027662e-09
1.542755e-08
1.9903522e-09
1.492364e-08
1.9765565e-09
1.4422664e-08
1.962824e-09
1.392485e-08
1.9495977e-09
1.3430188e-08
1.9369308e-09
1.2938606e-08
1.9248052e-09
1.2450059e-08
1.9132138e-09
1.1964751e-08
1.9021694e-09
1.1483361e-08
1.891645e-09
1.0997825e-08
1.8814723e-09
1.0521499e-08
1.8718095e-09
1.0046361e-08
1.8624615e-09
9.5731054e-09
1.8535925e-09
9.1019784e-09
1.8451847e-09
8.632809e-09
1.8371259e-09
8.1644876e-09
1.829344e-09
7.699068e-09
1.8226392e-09
7.2355621e-09
1.8161893e-09
6.7741192e-09
1.8098994e-09
6.3113814e-09
1.8031566e-09
5.8527249e-09
1.798671e-09
5.3947039e-09
1.793824e-09
4.9373654e-09
1.7893777e-09
4.4823382e-09
1.7831548e-09
4.0269879e-09
1.7809862e-09
3.5731386e-09
1.7786017e-09
3.1198413e-09
1.7740718e-09
2.6669435e-09
1.771515e-09
2.2149906e-09
1.7694793e-09
1.7634658e-09
1.7671389e-09
1.3123722e-09
1.7662022e-09
8.6139054e-10
1.7647446e-09
4.1182559e-10
1.7597123e-09
1.6120385e-09
5.5839829e-09
-2.8027029e-08
1.1207824e-08
-2.8225771e-08
1.6841022e-08
-2.8273097e-08
2.2488143e-08
-2.8343664e-08
2.8153882e-08
-2.843808e-08
3.3842986e-08
-2.8556576e-08
3.9560257e-08
-2.8699444e-08
4.5310568e-08
-2.886704e-08
5.109887e-08
-2.9059789e-08
5.6930211e-08
-2.9278185e-08
6.2809744e-08
-2.9522796e-08
6.8742746e-08
-2.9794267e-08
7.4734633e-08
-3.0093327e-08
8.0790975e-08
-3.0420796e-08