/*--------------------------------*- C++ -*----------------------------------*\
| =========                 |                                                 |
| \\      /  F ield         | OpenFOAM: The Open Source CFD Toolbox           |
|  \\    /   O peration     | Version:  2106                                  |
|   \\  /    A nd           | Website:  www.openfoam.com                      |
|    \\/     M anipulation  |                                                 |
\*---------------------------------------------------------------------------*/
FoamFile
{
    version     2.0;
    format      ascii;
    arch        "LSB;label=32;scalar=64";
    class       volVectorField;
    location    "0.005";
    object      U;
}
// * * * * * * * * * * * * * * * * * * * * * * * * * * * * * * * * * * * * * //

dimensions      [0 1 -1 0 0 0 0];

internalField   nonuniform List<vector> 
32768
(
(0.00031334603 -0.00031346655 0)
(0.00094453764 -0.00031499787 0)
(0.0015770594 -0.00031555008 0)
(0.0022113244 -0.00031635706 0)
(0.0028473994 -0.00031742328 0)
(0.0034858814 -0.00031875716 0)
(0.0041273141 -0.0003203641 0)
(0.0047722498 -0.00032224882 0)
(0.0054212512 -0.00032441642 0)
(0.0060748917 -0.00032687267 0)
(0.0067337572 -0.00032962415 0)
(0.0073984475 -0.00033267831 0)
(0.0080695784 -0.00033604356 0)
(0.0087477836 -0.00033972932 0)
(0.0094337168 -0.00034374616 0)
(0.010128054 -0.00034810583 0)
(0.010831496 -0.0003528214 0)
(0.011544772 -0.00035790738 0)
(0.012268641 -0.00036337986 0)
(0.013003896 -0.00036925668 0)
(0.013751368 -0.00037555759 0)
(0.01451193 -0.00038230446 0)
(0.015286501 -0.00038952157 0)
(0.016076051 -0.00039723582 0)
(0.016881607 -0.00040547711 0)
(0.017704259 -0.00041427866 0)
(0.018545169 -0.0004236775 0)
(0.019405575 -0.00043371494 0)
(0.020286805 -0.00044443715 0)
(0.021190284 -0.0004558959 0)
(0.022117546 -0.00046814932 0)
(0.02307025 -0.0004812629 0)
(0.024050196 -0.00049531064 0)
(0.02505934 -0.00051037642 0)
(0.026099818 -0.00052655567 0)
(0.02717397 -0.00054395736 0)
(0.028284372 -0.00056270643 0)
(0.029433866 -0.00058294681 0)
(0.030625608 -0.00060484512 0)
(0.03186311 -0.00062859521 0)
(0.033150308 -0.00065442404 0)
(0.034491627 -0.00068259895 0)
(0.035892077 -0.00071343707 0)
(0.037357357 -0.00074731747 0)
(0.038893998 -0.00078469693 0)
(0.04050953 -0.00082613054 0)
(0.042212703 -0.00087229949 0)
(0.044013772 -0.00092404929 0)
(0.045924867 -0.00098244267 0)
(0.047960478 -0.0010488342 0)
(0.05013812 -0.0011249779 0)
(0.052479231 -0.0012131862 0)
(0.055010442 -0.0013165705 0)
(0.057765362 -0.0014394116 0)
(0.060787291 -0.0015877664 0)
(0.064132415 -0.0017701793 0)
(0.067880001 -0.0020017147 0)
(0.072077261 -0.002288848 0)
(0.077331732 -0.0027118291 0)
(0.081499242 -0.0033264864 0)
(0.092447019 -0.0040134246 0)
(0.09415515 -0.005737222 0)
(0.11740451 -0.0079368466 0)
(0.11866495 -0.01230435 0)
(0.15263117 -0.017249216 0)
(0.18736483 -0.0075111757 0)
(0.14028854 0.017789189 0)
(0.11820554 0.012675778 0)
(0.10076529 0.0079117265 0)
(0.089294893 0.0050976416 0)
(0.081320668 0.0035890728 0)
(0.074948186 0.0027538835 0)
(0.069826374 0.0022348199 0)
(0.065552578 0.001883341 0)
(0.061875373 0.001628771 0)
(0.058651827 0.00143493 0)
(0.055784414 0.0012818485 0)
(0.053204163 0.0011575848 0)
(0.050860783 0.0010545107 0)
(0.048716298 0.00096751821 0)
(0.046741313 0.00089304349 0)
(0.044912597 0.00082851557 0)
(0.043211463 0.00077202881 0)
(0.041622652 0.00072213858 0)
(0.040133535 0.00067772885 0)
(0.038733545 0.00063792353 0)
(0.037413744 0.000602025 0)
(0.036166506 0.0005694707 0)
(0.03498527 0.00053980195 0)
(0.033864349 0.00051264115 0)
(0.032798779 0.00048767462 0)
(0.031784201 0.0004646397 0)
(0.030816764 0.0004433147 0)
(0.029893049 0.00042351114 0)
(0.029010007 0.00040506782 0)
(0.0281649 0.00038784611 0)
(0.027355267 0.00037172612 0)
(0.026578882 0.0003566036 0)
(0.025833724 0.00034238755 0)
(0.025117953 0.00032899813 0)
(0.024429889 0.00031636505 0)
(0.023767991 0.00030442612 0)
(0.023130841 0.00029312612 0)
(0.022517136 0.00028241582 0)
(0.021925666 0.00027225121 0)
(0.021355314 0.00026259281 0)
(0.020805041 0.00025340508 0)
(0.020273879 0.00024465592 0)
(0.019760926 0.00023631627 0)
(0.019265339 0.00022835973 0)
(0.018786326 0.00022076223 0)
(0.018323149 0.00021350179 0)
(0.017875109 0.00020655835 0)
(0.017441553 0.00019991376 0)
(0.017021861 0.00019355275 0)
(0.016615454 0.00018746757 0)
(0.016221796 0.00018167302 0)
(0.015840302 0.00017622377 0)
(0.015470845 0.00017039006 0)
(0.015111706 0.00012989937 0)
(0.014763346 0.00015931879 0)
(0.014426338 0.00015589233 0)
(0.014099094 0.00015114123 0)
(0.013781582 0.00014661627 0)
(0.013473298 0.00014241592 0)
(0.013173715 0.00013838455 0)
(0.012882608 0.00013449636 0)
(0.012599731 0.00013082355 0)
(0.012324916 0.00012768093 0)
(0.012057038 0.00012559453 0)
(0.011796689 0.00012063955 0)
(0.011545051 0.00011623626 0)
(0.011300935 0.00011134732 0)
(0.011058804 0.00010550544 0)
(0.010822878 0.00010517226 0)
(0.010597396 0.00010385859 0)
(0.010376997 0.00010189022 0)
(0.010163149 0.00012248661 0)
(0.0099552539 9.6246158e-05 0)
(0.0097483528 0.00011446047 0)
(0.0095465282 9.1453381e-05 0)
(0.0093537816 0.0001111511 0)
(0.0091654745 8.8041287e-05 0)
(0.0089806438 8.5408265e-05 0)
(0.0088004994 8.3772381e-05 0)
(0.0086239385 8.2834389e-05 0)
(0.0084515714 7.9893068e-05 0)
(0.0082840273 7.7675721e-05 0)
(0.0081203985 7.5813878e-05 0)
(0.0079605379 7.4129937e-05 0)
(0.0078044101 7.2775864e-05 0)
(0.0076513264 7.2056798e-05 0)
(0.0075016656 6.9568854e-05 0)
(0.0073558412 6.7691655e-05 0)
(0.0072131538 6.6135224e-05 0)
(0.007073539 6.4689839e-05 0)
(0.0069369176 6.3309782e-05 0)
(0.0068031885 6.199692e-05 0)
(0.0066722184 6.0787456e-05 0)
(0.0065437456 5.9776241e-05 0)
(0.006417574 5.8758936e-05 0)
(0.0062958769 4.3371871e-05 0)
(0.0061767822 5.6285071e-05 0)
(0.0060581326 5.5118128e-05 0)
(0.0059420919 5.3304462e-05 0)
(0.0058282531 3.8085656e-05 0)
(0.0057163355 5.1888687e-05 0)
(0.005608577 5.272983e-05 0)
(0.0055028125 5.120691e-05 0)
(0.0053972032 6.269471e-05 0)
(0.0052938102 4.8169432e-05 0)
(0.0051927507 4.5870914e-05 0)
(0.0050937558 4.5666256e-05 0)
(0.0049963354 4.5094251e-05 0)
(0.0049006863 4.4380041e-05 0)
(0.0048066609 4.3637763e-05 0)
(0.0047142395 4.2896496e-05 0)
(0.0046233933 4.2168956e-05 0)
(0.0045340827 4.1460395e-05 0)
(0.0044462635 4.0772486e-05 0)
(0.0043598906 4.0105432e-05 0)
(0.0042749192 3.9458879e-05 0)
(0.0041913058 3.8832015e-05 0)
(0.0041090069 3.8222607e-05 0)
(0.0040279766 3.7623852e-05 0)
(0.0039482063 3.7024295e-05 0)
(0.0038695582 3.6649117e-05 0)
(0.0037923956 4.4875572e-05 0)
(0.0037163904 3.5630566e-05 0)
(0.0036411701 3.4886831e-05 0)
(0.0035670991 3.4417361e-05 0)
(0.0034940544 3.394563e-05 0)
(0.0034220289 3.3480808e-05 0)
(0.0033509875 3.3027284e-05 0)
(0.0032809045 3.2584475e-05 0)
(0.0032117535 3.2156481e-05 0)
(0.0031434978 3.1747262e-05 0)
(0.0030760901 3.1355267e-05 0)
(0.0030095279 3.095423e-05 0)
(0.0029438101 3.0568067e-05 0)
(0.0028788887 3.019376e-05 0)
(0.0028147513 2.9821564e-05 0)
(0.0027513029 2.9616791e-05 0)
(0.0026887984 3.5508179e-05 0)
(0.0026270079 2.8980405e-05 0)
(0.0025656796 2.8498808e-05 0)
(0.00250507 2.8207613e-05 0)
(0.002445098 2.7913939e-05 0)
(0.0023857635 2.7624077e-05 0)
(0.002327044 2.7343585e-05 0)
(0.0022689213 2.707803e-05 0)
(0.0022113641 2.6835711e-05 0)
(0.0021544196 2.6485749e-05 0)
(0.0020978589 2.1371098e-05 0)
(0.0020418501 2.5894909e-05 0)
(0.0019863051 2.1166421e-05 0)
(0.0019311711 2.5550818e-05 0)
(0.0018766313 2.5519284e-05 0)
(0.00182241 2.5477125e-05 0)
(0.0017692502 2.5483797e-05 0)
(0.0017166004 2.4834232e-05 0)
(0.0016632852 2.7864627e-05 0)
(0.0016104583 2.4183856e-05 0)
(0.0015585795 2.4134914e-05 0)
(0.0015069957 2.4054772e-05 0)
(0.0014556946 2.3924465e-05 0)
(0.0014047133 2.3779898e-05 0)
(0.0013540515 2.3635161e-05 0)
(0.0013037011 2.3496835e-05 0)
(0.0012536426 2.3369597e-05 0)
(0.0012038964 2.3177103e-05 0)
(0.0011543628 2.0364179e-05 0)
(0.0011050907 2.2926051e-05 0)
(0.0010561273 2.2880566e-05 0)
(0.0010073705 2.276288e-05 0)
(0.00095884758 2.2653951e-05 0)
(0.00091052015 2.2613188e-05 0)
(0.00086246574 2.4538131e-05 0)
(0.00081461425 2.2419133e-05 0)
(0.00076690285 2.2241906e-05 0)
(0.00071942546 2.207126e-05 0)
(0.00067184561 2.1847442e-05 0)
(0.00062441805 2.1934754e-05 0)
(0.00057738724 2.1973537e-05 0)
(0.00053042188 2.2007298e-05 0)
(0.00048354345 2.3168157e-05 0)
(0.00043673928 2.1949322e-05 0)
(0.00039014219 2.0973915e-05 0)
(0.00034363429 2.1836026e-05 0)
(0.00029710287 2.2494913e-05 0)
(0.00025067542 2.1714116e-05 0)
(0.00020421823 2.1619829e-05 0)
(0.00015783018 2.1619133e-05 0)
(0.00011150163 2.1854683e-05 0)
(6.5238804e-05 2.1529864e-05 0)
(2.0190644e-05 2.0134708e-05 0)
(0.00031440172 -0.00094403583 0)
(0.00094948056 -0.00095064159 0)
(0.0015854567 -0.00095228678 0)
(0.00222321 -0.00095469611 0)
(0.0028627529 -0.00095790376 0)
(0.0035047045 -0.0009619236 0)
(0.0041496143 -0.00096676827 0)
(0.0047980387 -0.00097245102 0)
(0.0054505427 -0.00097898692 0)
(0.0061077019 -0.00098639324 0)
(0.006770104 -0.00099468972 0)
(0.0074383508 -0.0010038988 0)
(0.0081130599 -0.0010140456 0)
(0.0087948666 -0.0010251588 0)
(0.0094844265 -0.0010372699 0)
(0.010182417 -0.0010504143 0)
(0.010889541 -0.0010646314 0)
(0.011606529 -0.0010799648 0)
(0.01233414 -0.0010964629 0)
(0.01307317 -0.0011141794 0)
(0.01382445 -0.0011331735 0)
(0.014588854 -0.0011535111 0)
(0.015367301 -0.0011752651 0)
(0.016160762 -0.0011985165 0)
(0.016970264 -0.0012233549 0)
(0.017796896 -0.0012498804 0)
(0.018641819 -0.001278204 0)
(0.019506269 -0.0013084499 0)
(0.020391571 -0.0013407567 0)
(0.021299146 -0.0013752798 0)
(0.022230525 -0.0014121937 0)
(0.02318736 -0.0014516949 0)
(0.024171443 -0.0014940053 0)
(0.025184718 -0.0015393765 0)
(0.026229311 -0.0015880945 0)
(0.027307544 -0.0016404858 0)
(0.028421971 -0.0016969244 0)
(0.029575412 -0.0017578412 0)
(0.030770985 -0.0018237344 0)
(0.032012164 -0.0018951832 0)
(0.03330283 -0.001972865 0)
(0.034647341 -0.0020575767 0)
(0.036050619 -0.002150262 0)
(0.037518253 -0.0022520471 0)
(0.039056625 -0.0023642857 0)
(0.040673074 -0.0024886198 0)
(0.042376097 -0.0026270598 0)
(0.044175604 -0.0027820937 0)
(0.046083256 -0.0029568365 0)
(0.048112894 -0.0031552403 0)
(0.050281113 -0.0033823924 0)
(0.052608028 -0.0036449486 0)
(0.055118315 -0.0039517754 0)
(0.057842611 -0.0043149203 0)
(0.060819909 -0.0047511257 0)
(0.064096643 -0.0052839967 0)
(0.067762517 -0.0059501938 0)
(0.071698335 -0.0067875285 0)
(0.077051842 -0.0079379781 0)
(0.080169348 -0.0095531255 0)
(0.091122886 -0.011601253 0)
(0.090790069 -0.015263868 0)
(0.11184299 -0.020078124 0)
(0.10501459 -0.029048763 0)
(0.13239197 -0.038140809 0)
(0.14194531 0.020867539 0)
(0.11369095 0.040662482 0)
(0.11232198 0.028748299 0)
(0.10013268 0.019375491 0)
(0.093039532 0.01409077 0)
(0.086149125 0.010706014 0)
(0.080233217 0.0085723676 0)
(0.075177881 0.0071169927 0)
(0.070795431 0.0060691773 0)
(0.066953571 0.0052837008 0)
(0.063547811 0.0046735267 0)
(0.060496547 0.0041857998 0)
(0.057737716 0.0037868509 0)
(0.055223661 0.0034542484 0)
(0.05291724 0.0031725307 0)
(0.050789076 0.0029307042 0)
(0.048815591 0.0027207376 0)
(0.046977601 0.002536626 0)
(0.045259306 0.0023737892 0)
(0.043647543 0.0022286716 0)
(0.042131235 0.0020984714 0)
(0.040700972 0.0019809502 0)
(0.039348696 0.0018742986 0)
(0.038067452 0.0017770383 0)
(0.036851194 0.0016879496 0)
(0.035694636 0.0016060174 0)
(0.034593123 0.0015303901 0)
(0.033542539 0.0014603481 0)
(0.032539221 0.0013952793 0)
(0.031579898 0.0013346599 0)
(0.030661632 0.001278039 0)
(0.029781777 0.0012250262 0)
(0.028937937 0.0011752822 0)
(0.028127937 0.0011285102 0)
(0.027349793 0.0010844498 0)
(0.026601693 0.0010428713 0)
(0.025881974 0.0010035715 0)
(0.025189107 0.00096636981 0)
(0.024521679 0.00093110527 0)
(0.023878386 0.00089763379 0)
(0.023258019 0.00086582607 0)
(0.022659453 0.00083556566 0)
(0.022081641 0.00080674735 0)
(0.021523606 0.00077927584 0)
(0.020984434 0.00075306449 0)
(0.020463269 0.00072803439 0)
(0.019959308 0.00070411334 0)
(0.019471796 0.00068123502 0)
(0.019000025 0.00065933768 0)
(0.01854333 0.00063836112 0)
(0.018101106 0.00061823758 0)
(0.017672875 0.00059885576 0)
(0.017258422 0.00057994754 0)
(0.016857845 0.00056154264 0)
(0.016464529 0.00057943153 0)
(0.016082849 0.00052892907 0)
(0.015717453 0.00051300891 0)
(0.015361927 0.00049817182 0)
(0.015016611 0.00048338525 0)
(0.014681186 0.00046980518 0)
(0.014355049 0.00045653866 0)
(0.014038214 0.00044353746 0)
(0.013730697 0.00043074344 0)
(0.013432776 0.00041780855 0)
(0.013139086 0.00040506565 0)
(0.01285305 0.00039426365 0)
(0.012578957 0.00038248534 0)
(0.012310323 0.00037321497 0)
(0.012052162 0.00038923468 0)
(0.011800879 0.00035479708 0)
(0.011551448 0.0003458115 0)
(0.011308282 0.00033696189 0)
(0.011075267 0.00030281999 0)
(0.010847505 0.00031800946 0)
(0.010625501 0.00030854693 0)
(0.010409189 0.00030263925 0)
(0.010197847 0.00027321495 0)
(0.009992947 0.00028882557 0)
(0.0097905113 0.00028218469 0)
(0.0095946657 0.00027481656 0)
(0.0094008501 0.00026856585 0)
(0.0092117136 0.00026166265 0)
(0.0090301965 0.0002557812 0)
(0.0088523483 0.00024994656 0)
(0.0086786029 0.00024406018 0)
(0.0085093532 0.00023793078 0)
(0.0083413846 0.00023188339 0)
(0.0081771432 0.00022727305 0)
(0.0080190938 0.00022283924 0)
(0.0078639568 0.00021817781 0)
(0.0077119421 0.00021352808 0)
(0.0075631381 0.00020897699 0)
(0.0074175276 0.00020456841 0)
(0.0072750874 0.00020034992 0)
(0.0071358349 0.00019642696 0)
(0.0070000151 0.00019315236 0)
(0.0068647086 0.00019051426 0)
(0.006732138 0.00018547376 0)
(0.0066045369 0.0001810234 0)
(0.0064790347 0.00017780748 0)
(0.0063559119 0.00018925304 0)
(0.0062355856 0.00017138477 0)
(0.006115684 0.00015440936 0)
(0.0059979218 0.00016389764 0)
(0.0058839675 0.000147989 0)
(0.0057712592 0.00015800286 0)
(0.0056624025 0.00015582882 0)
(0.0055554959 0.0001525534 0)
(0.0054487579 0.00014934202 0)
(0.0053443025 0.00014670855 0)
(0.0052417412 0.00014418275 0)
(0.0051409773 0.00014171038 0)
(0.0050419447 0.00013929943 0)
(0.0049445919 0.00013695741 0)
(0.0048488661 0.00013468611 0)
(0.004754716 0.00013248472 0)
(0.0046620921 0.00013035199 0)
(0.0045709453 0.00012828755 0)
(0.0044812224 0.00012629343 0)
(0.0043928495 0.00012437836 0)
(0.0043056983 0.00012256476 0)
(0.0042195214 0.00012060004 0)
(0.0041360514 0.00010945224 0)
(0.0040538592 0.00011700249 0)
(0.0039714369 0.00011551244 0)
(0.0038904863 0.00011380102 0)
(0.0038108063 0.00011218143 0)
(0.0037322686 0.00011063133 0)
(0.0036548065 0.0001091316 0)
(0.0035783923 0.00010766437 0)
(0.0035030009 0.0001062468 0)
(0.0034285883 0.00010489691 0)
(0.0033550736 0.00010362298 0)
(0.0032824787 0.00010228236 0)
(0.0032108236 0.0001010182 0)
(0.0031400129 9.9826771e-05 0)
(0.0030699508 9.8709105e-05 0)
(0.0030004626 9.7469308e-05 0)
(0.0029327508 8.9722267e-05 0)
(0.0028658263 9.5252372e-05 0)
(0.0027986568 9.4346799e-05 0)
(0.0027324287 9.3278429e-05 0)
(0.002666999 9.2265658e-05 0)
(0.0026022878 9.1293775e-05 0)
(0.0025382575 9.0353401e-05 0)
(0.002474898 8.9432589e-05 0)
(0.0024122405 8.849333e-05 0)
(0.0023503553 8.7591898e-05 0)
(0.0022884333 9.1533535e-05 0)
(0.002227221 8.5983171e-05 0)
(0.0021665383 9.0132248e-05 0)
(0.0021062657 8.4658561e-05 0)
(0.0020471694 8.3971579e-05 0)
(0.0019884696 8.3356351e-05 0)
(0.0019294907 7.8529101e-05 0)
(0.0018706179 8.1908008e-05 0)
(0.0018140436 8.1024186e-05 0)
(0.0017577775 8.0632781e-05 0)
(0.0017005583 8.0160472e-05 0)
(0.0016440174 7.9643112e-05 0)
(0.0015879745 7.9122966e-05 0)
(0.0015323418 7.8613923e-05 0)
(0.0014770782 7.8120677e-05 0)
(0.0014221693 7.7641295e-05 0)
(0.0013676227 7.7163573e-05 0)
(0.0013134694 7.6739819e-05 0)
(0.0012592655 7.9026341e-05 0)
(0.0012053486 7.5937366e-05 0)
(0.001152049 7.5552953e-05 0)
(0.001098915 7.522931e-05 0)
(0.0010459701 7.4911844e-05 0)
(0.00099318234 7.4540627e-05 0)
(0.00094086222 7.2074138e-05 0)
(0.00088874412 7.3926866e-05 0)
(0.00083654596 7.3677474e-05 0)
(0.0007845316 7.338657e-05 0)
(0.00073296077 7.4694121e-05 0)
(0.00068156296 7.2924182e-05 0)
(0.00063006913 7.2741673e-05 0)
(0.00057877576 7.2540433e-05 0)
(0.00052765005 7.1175906e-05 0)
(0.00047667971 7.2294265e-05 0)
(0.00042567449 7.22729e-05 0)
(0.00037475167 7.2061222e-05 0)
(0.00032408927 7.1134817e-05 0)
(0.000273453 7.1764457e-05 0)
(0.00022284587 7.2174837e-05 0)
(0.00017227814 7.1600225e-05 0)
(0.00012169386 7.1512456e-05 0)
(7.1295632e-05 7.1261717e-05 0)
(2.1543739e-05 6.529927e-05 0)
(0.00031390799 -0.0015744619 0)
(0.00094795241 -0.001585523 0)
(0.001582816 -0.0015881919 0)
(0.0022194987 -0.0015921798 0)
(0.0028579669 -0.0015975139 0)
(0.0034988315 -0.0016042067 0)
(0.0041426387 -0.0016122752 0)
(0.0047899419 -0.0016217403 0)
(0.0054413034 -0.0016326265 0)
(0.0060972955 -0.0016449624 0)
(0.0067585024 -0.0016587806 0)
(0.0074255223 -0.0016741183 0)
(0.0080989687 -0.0016910174 0)
(0.0087794728 -0.0017095251 0)
(0.0094676853 -0.0017296939 0)
(0.010164279 -0.0017515825 0)
(0.010869951 -0.0017752562 0)
(0.011585424 -0.0018007872 0)
(0.012311454 -0.0018282558 0)
(0.013048827 -0.0018577508 0)
(0.013798367 -0.0018893706 0)
(0.014560939 -0.0019232241 0)
(0.015337451 -0.0019594323 0)
(0.016128864 -0.0019981288 0)
(0.01693619 -0.0020394624 0)
(0.017760507 -0.0020835983 0)
(0.018602958 -0.0021307203 0)
(0.019464761 -0.0021810335 0)
(0.02034722 -0.002234767 0)
(0.021251733 -0.0022921773 0)
(0.022179803 -0.0023535525 0)
(0.023133051 -0.0024192166 0)
(0.02411323 -0.0024895355 0)
(0.025122246 -0.0025649235 0)
(0.02616217 -0.0026458513 0)
(0.027235269 -0.0027328557 0)
(0.028344028 -0.0028265512 0)
(0.029491182 -0.0029276444 0)
(0.030679753 -0.0030369517 0)
(0.031913094 -0.0031554209 0)
(0.033194944 -0.0032841581 0)
(0.034529484 -0.0034244621 0)
(0.035921419 -0.0035778677 0)
(0.037376067 -0.0037462006 0)
(0.038899471 -0.0039316495 0)
(0.040498537 -0.0041368595 0)
(0.042181205 -0.0043650566 0)
(0.043956665 -0.0046202133 0)
(0.045835619 -0.0049072751 0)
(0.047830626 -0.0052324716 0)
(0.04995653 -0.0056037525 0)
(0.052231015 -0.0060314086 0)
(0.054675315 -0.00652897 0)
(0.057315104 -0.0071145325 0)
(0.060181962 -0.007812737 0)
(0.063311773 -0.0086580133 0)
(0.066772496 -0.0096978403 0)
(0.070441383 -0.011012804 0)
(0.075339129 -0.012650496 0)
(0.077974132 -0.015030998 0)
(0.087781754 -0.017822151 0)
(0.086093097 -0.022327808 0)
(0.10467648 -0.027388754 0)
(0.093192225 -0.037183904 0)
(0.1150524 -0.043490629 0)
(0.11359651 0.016176164 0)
(0.10435844 0.042061223 0)
(0.10223966 0.03334842 0)
(0.094812889 0.025845975 0)
(0.088968105 0.020364316 0)
(0.083367235 0.016458544 0)
(0.078311932 0.01365667 0)
(0.073814164 0.011581566 0)
(0.069806697 0.010007986 0)
(0.066220776 0.0087858812 0)
(0.062993048 0.007814201 0)
(0.060068937 0.0070252753 0)
(0.05740325 0.0063728982 0)
(0.054959007 0.0058247903 0)
(0.052705981 0.0053578961 0)
(0.05061938 0.0049553912 0)
(0.048678737 0.004604749 0)
(0.046867038 0.0042964697 0)
(0.045170025 0.0040232279 0)
(0.043575654 0.0037792889 0)
(0.042073678 0.0035601028 0)
(0.04065531 0.0033620148 0)
(0.039312969 0.0031820572 0)
(0.038040068 0.0030177961 0)
(0.036830848 0.0028672166 0)
(0.035680251 0.0027286376 0)
(0.034583805 0.002600645 0)
(0.03353754 0.0024820417 0)
(0.032537914 0.0023718076 0)
(0.031581752 0.0022690681 0)
(0.030666197 0.0021730692 0)
(0.02978867 0.0020831577 0)
(0.028946829 0.0019987645 0)
(0.028138547 0.0019193918 0)
(0.027361879 0.0018446022 0)
(0.026615046 0.0017740098 0)
(0.025896412 0.0017072727 0)
(0.025204472 0.0016440869 0)
(0.024537835 0.0015841812 0)
(0.023895213 0.0015273128 0)
(0.023275413 0.0014732636 0)
(0.022677323 0.0014218372 0)
(0.022099906 0.0013728558 0)
(0.021542196 0.0013261585 0)
(0.021003287 0.001281599 0)
(0.020482332 0.0012390438 0)
(0.019978532 0.0011983712 0)
(0.019491137 0.0011594694 0)
(0.019019439 0.0011222362 0)
(0.018562759 0.001086577 0)
(0.018120413 0.0010524033 0)
(0.017691567 0.0010196265 0)
(0.017274921 0.00098814165 0)
(0.016867692 0.00095783956 0)
(0.016483374 0.00092896626 0)
(0.016111511 0.00090114249 0)
(0.015739898 0.00087454557 0)
(0.015381389 0.00084850965 0)
(0.015035764 0.00082213221 0)
(0.014700577 0.00079990465 0)
(0.014373801 0.00077748256 0)
(0.014056238 0.00075536087 0)
(0.013747271 0.0007337194 0)
(0.013445576 0.00071292121 0)
(0.013156529 0.00072186629 0)
(0.012874612 0.00067611841 0)
(0.01259884 0.00065884614 0)
(0.012330533 0.00064129159 0)
(0.012070331 0.00059780119 0)
(0.011818427 0.00060647245 0)
(0.011569857 0.00059100764 0)
(0.011329599 0.00057629733 0)
(0.011092423 0.00056256337 0)
(0.010860497 0.00054842593 0)
(0.010641637 0.00053482267 0)
(0.010428545 0.00052148225 0)
(0.01021327 0.00050933782 0)
(0.01000388 0.00049448007 0)
(0.0098034728 0.00048061667 0)
(0.0096070929 0.00046777214 0)
(0.0094157801 0.00047603062 0)
(0.0092289826 0.00044565426 0)
(0.0090458929 0.00043557421 0)
(0.0088669869 0.0004258144 0)
(0.008691984 0.00041589755 0)
(0.0085202409 0.00040622301 0)
(0.0083553994 0.00041492445 0)
(0.008194449 0.00038838687 0)
(0.0080340972 0.0003797646 0)
(0.007877907 0.00037169827 0)
(0.0077254186 0.00036371545 0)
(0.0075763419 0.00035590881 0)
(0.0074305156 0.00034830368 0)
(0.0072878749 0.00034087764 0)
(0.0071484261 0.0003335549 0)
(0.0070124414 0.00032618162 0)
(0.0068769941 0.00031917461 0)
(0.0067442863 0.00031298903 0)
(0.0066165473 0.00030713884 0)
(0.0064909071 0.00030080842 0)
(0.0063674552 0.00028075103 0)
(0.0062469047 0.00028875614 0)
(0.0061271935 0.0002966956 0)
(0.0060101892 0.00027830081 0)
(0.0058958679 0.00028575958 0)
(0.0057836079 0.00026874966 0)
(0.0056727688 0.00025181386 0)
(0.0055633957 0.00025907299 0)
(0.0054582195 0.00025393057 0)
(0.0053543768 0.00024988043 0)
(0.0052517236 0.00024565693 0)
(0.0051507986 0.00024143201 0)
(0.0050516056 0.00023731358 0)
(0.0049541015 0.0002333197 0)
(0.004858228 0.00022945001 0)
(0.0047639324 0.0002257005 0)
(0.0046711664 0.00022206753 0)
(0.0045798854 0.00021854952 0)
(0.0044900507 0.00021514936 0)
(0.0044016456 0.0002118806 0)
(0.0043147244 0.00020878421 0)
(0.004229478 0.0002059738 0)
(0.0041442602 0.00020321685 0)
(0.0040602868 0.00019998801 0)
(0.0039787762 0.00019678509 0)
(0.0038980788 0.00019386712 0)
(0.0038183824 0.00019111796 0)
(0.0037397433 0.00018849084 0)
(0.0036621417 0.00018595023 0)
(0.0035855883 0.00018343303 0)
(0.003510088 0.00018099983 0)
(0.0034356068 0.00017874035 0)
(0.0033618854 0.00017681982 0)
(0.0032890885 0.00017428793 0)
(0.0032173856 0.00017209119 0)
(0.003146544 0.00017006912 0)
(0.0030766127 0.00016816968 0)
(0.0030077343 0.00016645899 0)
(0.002938789 0.00016477267 0)
(0.0028706138 0.00016275868 0)
(0.0028040417 0.00016075324 0)
(0.002737944 0.00015893217 0)
(0.0026724633 0.00015721227 0)
(0.0026076445 0.00015556127 0)
(0.0025434778 0.0001539688 0)
(0.002479904 0.00015243398 0)
(0.0024167805 0.00015093553 0)
(0.0023538234 0.00014945119 0)
(0.0022928526 0.00014798496 0)
(0.0022323173 0.00014647128 0)
(0.0021715563 0.00014504491 0)
(0.0021116917 0.00014397134 0)
(0.0020518281 0.00014292729 0)
(0.0019928085 0.0001418351 0)
(0.0019338419 0.000144787 0)
(0.0018754018 0.00013988683 0)
(0.0018179096 0.00013507183 0)
(0.0017607038 0.00013791381 0)
(0.0017038842 0.00013684512 0)
(0.0016474122 0.00013581038 0)
(0.0015913072 0.00013486582 0)
(0.0015355733 0.00013397833 0)
(0.001480192 0.00013313367 0)
(0.0014251323 0.00013232537 0)
(0.0013703274 0.00013154835 0)
(0.0013156287 0.00013079707 0)
(0.0012619428 0.00013007975 0)
(0.0012085512 0.00012942533 0)
(0.001154717 0.0001288055 0)
(0.0011013422 0.00012821414 0)
(0.0010483028 0.000127663 0)
(0.00099557884 0.00012717291 0)
(0.00094287385 0.00012669229 0)
(0.00089037202 0.0001261725 0)
(0.00083825291 0.00012566824 0)
(0.00078620638 0.0001251962 0)
(0.00073452222 0.00012318158 0)
(0.00068299639 0.00012440344 0)
(0.00063141077 0.00012407366 0)
(0.00058000619 0.00012378291 0)
(0.00052878228 0.00012466595 0)
(0.00047770581 0.00012319105 0)
(0.00042661085 0.00012289522 0)
(0.00037562516 0.00012270859 0)
(0.00032477643 0.00012253878 0)
(0.00027395365 0.00012239691 0)
(0.00022330444 0.00012227012 0)
(0.00017267555 0.00012214817 0)
(0.00012196386 0.0001220591 0)
(7.1514671e-05 0.00012168722 0)
(2.1608812e-05 0.00011142978 0)
(0.00031313208 -0.0022039601 0)
(0.00094558796 -0.0022195667 0)
(0.0015788412 -0.0022232971 0)
(0.0022139107 -0.0022288652 0)
(0.0028507552 -0.0022363161 0)
(0.003489979 -0.0022456673 0)
(0.0041321231 -0.0022569417 0)
(0.0047777364 -0.002270168 0)
(0.0054273761 -0.00228538 0)
(0.0060816099 -0.0023026173 0)
(0.0067410167 -0.0023219252 0)
(0.0074061892 -0.0023433553 0)
(0.0080777349 -0.0023669658 0)
(0.0087562786 -0.0023928222 0)
(0.0094424641 -0.0024209975 0)
(0.010136957 -0.0024515731 0)
(0.010840445 -0.0024846396 0)
(0.011553644 -0.0025202974 0)
(0.012277298 -0.0025586577 0)
(0.013012183 -0.0025998437 0)
(0.013759111 -0.0026439918 0)
(0.014518933 -0.002691253 0)
(0.015292544 -0.0027417945 0)
(0.016080886 -0.0027958017 0)
(0.016884955 -0.0028534802 0)
(0.017705806 -0.0029150585 0)
(0.018544557 -0.0029807907 0)
(0.019402402 -0.00305096 0)
(0.020280613 -0.0031258826 0)
(0.021180552 -0.0032059122 0)
(0.022103684 -0.0032914457 0)
(0.023051581 -0.0033829291 0)
(0.024025945 -0.0034808656 0)
(0.025028617 -0.003585824 0)
(0.026061598 -0.0036984501 0)
(0.027127068 -0.0038194791 0)
(0.028227411 -0.0039497516 0)
(0.029365243 -0.0040902321 0)
(0.030543444 -0.0042420331 0)
(0.031765196 -0.004406443 0)
(0.033034028 -0.0045849622 0)
(0.034353872 -0.0047793471 0)
(0.035729121 -0.0049916667 0)
(0.037164709 -0.0052243737 0)
(0.038666201 -0.0054803954 0)
(0.040239896 -0.0057632531 0)
(0.041892963 -0.0060772162 0)
(0.043633593 -0.0064275078 0)
(0.045471189 -0.0068205781 0)
(0.047416586 -0.0072644764 0)
(0.049482317 -0.007769359 0)
(0.051682913 -0.0083481957 0)
(0.054035242 -0.0090177624 0)
(0.056558827 -0.0098000587 0)
(0.059276312 -0.010724341 0)
(0.062211304 -0.011830281 0)
(0.065407211 -0.013170861 0)
(0.068743583 -0.01483107 0)
(0.073094875 -0.016853162 0)
(0.075193722 -0.019660365 0)
(0.083756894 -0.022884097 0)
(0.080956221 -0.027720939 0)
(0.097210569 -0.032612125 0)
(0.083626052 -0.042108753 0)
(0.10206652 -0.046136143 0)
(0.097212295 0.023858862 0)
(0.093206831 0.045306223 0)
(0.092343932 0.038504196 0)
(0.088152101 0.031002765 0)
(0.083991977 0.025459839 0)
(0.079712788 0.021248624 0)
(0.075591541 0.018042388 0)
(0.07174529 0.015562267 0)
(0.068199816 0.013612899 0)
(0.064946535 0.01205505 0)
(0.061962679 0.010789299 0)
(0.059220952 0.0097447042 0)
(0.056694344 0.0088701916 0)
(0.054358113 0.0081285228 0)
(0.0521904 0.0074921629 0)
(0.050172225 0.0069404545 0)
(0.048287234 0.0064576741 0)
(0.046521366 0.0060316858 0)
(0.044862525 0.0056529983 0)
(0.043300272 0.0053140966 0)
(0.04182557 0.0050089622 0)
(0.040430559 0.0047327237 0)
(0.039108371 0.0044813998 0)
(0.037852981 0.0042517074 0)
(0.036659076 0.0040409166 0)
(0.035521951 0.0038467404 0)
(0.034437423 0.0036672489 0)
(0.033401754 0.0035008035 0)
(0.032411593 0.0033460037 0)
(0.031463925 0.0032016461 0)
(0.030556024 0.0030666909 0)
(0.029685419 0.0029402356 0)
(0.028849865 0.0028214927 0)
(0.02804731 0.0027097725 0)
(0.027275877 0.002604468 0)
(0.026533844 0.0025050429 0)
(0.025819624 0.0024110218 0)
(0.025131754 0.0023219816 0)
(0.02446888 0.0022375443 0)
(0.023829746 0.0021573714 0)
(0.023213186 0.0020811586 0)
(0.022618112 0.0020086312 0)
(0.022043509 0.0019395412 0)
(0.02148843 0.0018736633 0)
(0.020951985 0.0018107928 0)
(0.02043334 0.001750743 0)
(0.019931712 0.0016933431 0)
(0.019446364 0.0016384373 0)
(0.018976601 0.0015858836 0)
(0.018521772 0.001535557 0)
(0.018081276 0.0014873623 0)
(0.017654617 0.0014412817 0)
(0.017241543 0.0013975194 0)
(0.016842448 0.0013562382 -6.982594e-35)
(0.01645068 0.0012824028 -3.8158167e-30)
(0.016070369 0.0012756759 0)
(0.015705802 0.0012377721 0)
(0.015349525 0.0012013524 0)
(0.015007084 0.0011653675 0)
(0.014674706 0.0011325738 0)
(0.014347801 0.0010997787 0)
(0.014030955 0.0010684047 0)
(0.013723066 0.0010385721 0)
(0.013422872 0.0010099087 -5.5401161e-35)
(0.013135709 0.00095397804 -3.0339582e-30)
(0.012857949 0.0009554348 -5.3034963e-35)
(0.012579491 0.00090306557 -2.9031482e-30)
(0.012310271 0.00090568365 0)
(0.012049313 0.00088382838 0)
(0.0117945 0.00085829247 0)
(0.011549821 0.0008344921 0)
(0.011310553 0.00081219327 0)
(0.01107629 0.00079020016 0)
(0.010848 0.00077206921 -4.4596832e-35)
(0.010626177 0.00073023158 -2.4446312e-30)
(0.010410636 0.00073270926 0)
(0.010197382 0.00071260789 0)
(0.0099890589 0.00069593404 0)
(0.0097885686 0.0006795639 0)
(0.00959036 0.00066334638 0)
(0.009402812 0.00064773918 0)
(0.0092199481 0.00063217782 0)
(0.0090350551 0.00061726687 0)
(0.0088557721 0.00060294303 0)
(0.008680948 0.0005892377 0)
(0.0085096035 0.00057585704 -3.4833417e-35)
(0.0083449789 0.00054486128 -1.9117727e-30)
(0.0081842361 0.00055002879 0)
(0.0080242987 0.00053800752 0)
(0.0078684517 0.00052600321 0)
(0.0077162582 0.00051449334 0)
(0.0075674476 0.00050338034 0)
(0.0074218408 0.00049260148 0)
(0.0072793032 0.00048208228 0)
(0.0071397367 0.00047167068 0)
(0.0070030497 0.00046143524 2.8570691e-35)
(0.0068694081 0.00046639359 1.5690955e-30)
(0.0067385226 0.00044288042 0)
(0.0066101516 0.00043414893 0)
(0.0064847152 0.00042574878 2.6429909e-35)
(0.0063600864 0.00043086292 1.451208e-30)
(0.0062372381 0.00040877347 0)
(0.0061198078 0.00039978951 0)
(0.0060032842 0.00039328014 0)
(0.0058908224 0.00038635626 0)
(0.0057813536 0.00037965232 2.3532601e-35)
(0.0056683397 0.00038530906 1.2916359e-30)
(0.005557948 0.00036672626 0)
(0.0054531518 0.00035973988 0)
(0.0053499438 0.00035389418 0)
(0.005246961 0.0003476201 0)
(0.0051460643 0.00034154089 0)
(0.0050470013 0.00033568595 0)
(0.0049496442 0.00033003136 0)
(0.0048539138 0.00032455917 0)
(0.0047597553 0.00031925746 0)
(0.0046671217 0.00031411801 0)
(0.00457597 0.00030913476 0)
(0.004486262 0.00030430234 0)
(0.0043979676 0.00029961253 0)
(0.0043110542 0.00029504043 0)
(0.0042254783 0.00029045737 0)
(0.0041408806 0.00028561347 0)
(0.004057527 0.00028196885 0)
(0.0039756819 0.00027805872 0)