"Points:0","Points:1","Points:2"
0.25,0.5,0
0.24999858,0.5,1
0.25,0.5,1
0.24999858,0.5,0
0.265625,0.49995869,1
0.265625,0.49995869,0
0.28125,0.49991792,1
0.28125,0.49991792,0
0.296875,0.49987805,1
0.296875,0.49987805,0
0.3125,0.49983945,1
0.3125,0.49983945,0
0.328125,0.49980247,1
0.328125,0.49980247,0
0.34375,0.49976751,1
0.34375,0.49976751,0
0.359375,0.49973491,1
0.359375,0.49973491,0
0.375,0.49970493,1
0.375,0.49970493,0
0.390625,0.49967784,1
0.390625,0.49967784,0
0.40625,0.49965391,1
0.40625,0.49965391,0
0.421875,0.49963331,1
0.421875,0.49963331,0
0.4375,0.49961627,1
0.4375,0.49961627,0
0.453125,0.49960285,1
0.453125,0.49960285,0
0.46875,0.4995932,1
0.46875,0.4995932,0
0.484375,0.49958739,1
0.484375,0.49958739,0
0.5,0.49958545,1
0.5,0.49958545,0
0.515625,0.49958739,1
0.515625,0.49958739,0
0.53125,0.4995932,1
0.53125,0.4995932,0
0.546875,0.49960285,1
0.546875,0.49960285,0
0.5625,0.49961627,1
0.5625,0.49961627,0
0.578125,0.49963331,1
0.578125,0.49963331,0
0.59375,0.49965391,1
0.59375,0.49965391,0
0.609375,0.49967784,1
0.609375,0.49967784,0
0.625,0.49970493,1
0.625,0.49970493,0
0.640625,0.49973491,1
0.640625,0.49973491,0
0.65625,0.49976751,1
0.65625,0.49976751,0
0.671875,0.49980247,1
0.671875,0.49980247,0
0.6875,0.49983945,1
0.6875,0.49983945,0
0.703125,0.49987805,1
0.703125,0.49987805,0
0.71875,0.49991792,1
0.71875,0.49991792,0
0.734375,0.49995869,1
0.734375,0.49995869,0
0.75,0.5,1
0.75,0.5,0
0.75000143,0.5,0
0.75000143,0.5,1
0,0.50041455,1
0.015625,0.50041264,1
0,0.50041455,0
0.015625,0.50041264,0
0.03125,0.5004068,1
0.03125,0.5004068,0
0.046875,0.50039715,1
0.046875,0.50039715,0
0.0625,0.50038373,1
0.0625,0.50038373,0
0.078125,0.50036669,1
0.078125,0.50036669,0
0.09375,0.50034612,1
0.09375,0.50034612,0
0.109375,0.50032216,1
0.109375,0.50032216,0
0.125,0.5002951,1
0.125,0.5002951,0
0.140625,0.50026512,1
0.140625,0.50026512,0
0.15625,0.50023246,1
0.15625,0.50023246,0
0.171875,0.50019753,1
0.171875,0.50019753,0
0.1875,0.50016057,1
0.1875,0.50016057,0
0.203125,0.50012195,1
0.203125,0.50012195,0
0.21875,0.50008208,1
0.21875,0.50008208,0
0.234375,0.50004131,1
0.234375,0.50004131,0
0.765625,0.50004131,1
0.765625,0.50004131,0
0.78125,0.50008208,1
0.78125,0.50008208,0
0.796875,0.50012195,1
0.796875,0.50012195,0
0.8125,0.50016057,1
0.8125,0.50016057,0
0.828125,0.50019753,1
0.828125,0.50019753,0
0.84375,0.50023246,1
0.84375,0.50023246,0
0.859375,0.50026512,1
0.859375,0.50026512,0
0.875,0.5002951,1
0.875,0.5002951,0
0.890625,0.50032216,1
0.890625,0.50032216,0
0.90625,0.50034612,1
0.90625,0.50034612,0
0.921875,0.50036669,1
0.921875,0.50036669,0
0.9375,0.50038373,1
0.9375,0.50038373,0
0.953125,0.50039715,1
0.953125,0.50039715,0
0.96875,0.5004068,1
0.96875,0.5004068,0
0.984375,0.50041264,1
0.984375,0.50041264,0
1,0.50041455,1
1,0.50041455,0
