/*--------------------------------*- C++ -*----------------------------------*\
| =========                 |                                                 |
| \\      /  F ield         | OpenFOAM: The Open Source CFD Toolbox           |
|  \\    /   O peration     | Version:  2306                                  |
|   \\  /    A nd           | Website:  www.openfoam.com                      |
|    \\/     M anipulation  |                                                 |
\*---------------------------------------------------------------------------*/
FoamFile
{
    version     2.0;
    format      ascii;
    arch        "LSB;label=32;scalar=64";
    class       volVectorField;
    location    "0.26";
    object      U_0;
}
// * * * * * * * * * * * * * * * * * * * * * * * * * * * * * * * * * * * * * //

dimensions      [0 1 -1 0 0 0 0];

internalField   nonuniform List<vector> 
6400
(
(0.00064582921 0.011903779 1.0292761e-17)
(0.0014023075 0.011802758 1.0995079e-17)
(0.0022833241 0.011533993 1.2451087e-17)
(0.0031109632 0.011138429 -8.4376908e-19)
(0.0039159179 0.010622423 -6.5817376e-19)
(0.0046727018 0.0099882619 -1.1264866e-17)
(0.0053658681 0.0092395815 -6.8439735e-18)
(0.0059797285 0.0083818614 -3.1639308e-18)
(0.0064979102 0.007425256 -3.663998e-18)
(0.0069052119 0.0063842883 4.0385878e-19)
(0.0071893685 0.0052771375 -5.914329e-19)
(0.0073417805 0.0041259958 7.8246364e-19)
(0.0073578408 0.0029547349 1.298736e-18)
(0.0072372387 0.0017883331 1.0225722e-18)
(0.0069843341 0.00065152798 1.601223e-18)
(0.0066081203 -0.00043212641 -4.9986058e-19)
(0.006121539 -0.0014415331 2.1010422e-18)
(0.0055403457 -0.0023593798 1.3789308e-18)
(0.0048819497 -0.0031720337 1.4956835e-18)
(0.0041650958 -0.0038698953 2.6741891e-18)
(0.0034086808 -0.0044469512 1.7472742e-18)
(0.0026307663 -0.0049013258 9.98656e-19)
(0.0018487229 -0.0052348011 6.208092e-19)
(0.001077864 -0.0054507427 7.7156753e-19)
(0.00033231017 -0.0055560821 1.3989219e-18)
(-0.00037449069 -0.0055592548 1.1072777e-18)
(-0.0010338724 -0.0054709635 -2.9327179e-19)
(-0.001639586 -0.0053013554 2.7109139e-19)
(-0.0021857837 -0.0050615224 1.2631608e-18)
(-0.0026690121 -0.0047626108 2.0785901e-18)
(-0.003087519 -0.0044155298 1.1935619e-18)
(-0.0034410398 -0.0040307133 -2.1704015e-19)
(-0.0037305752 -0.0036179414 -1.6659072e-19)
(-0.0039581728 -0.0031862193 6.1682716e-19)
(-0.0041267242 -0.0027436948 1.4997057e-18)
(-0.0042397761 -0.0022975963 -1.4736262e-19)
(-0.0043013037 -0.0018542591 -7.4848947e-19)
(-0.004315653 -0.0014191432 1.4648786e-20)
(-0.0042873068 -0.00099681295 2.6030506e-19)
(-0.0042207929 -0.00059104912 1.1635943e-18)
(-0.0041205874 -0.00020488621 8.7606654e-19)
(-0.0039912327 0.00015936964 8.9743136e-20)
(-0.0038370671 0.00050000242 -1.1211423e-18)
(-0.0036620151 0.00081585616 -8.7606663e-19)
(-0.0034698604 0.001106252 -1.2153855e-19)
(-0.0032641174 0.001370925 -2.3315848e-19)
(-0.0030480149 0.0016099642 -7.3081906e-19)
(-0.0028244911 0.0018237565 -8.2133293e-19)
(-0.002596195 0.0020129338 -9.6784944e-19)
(-0.0023654921 0.0021783255 -2.8558825e-19)
(-0.0021344739 0.0023209166 2.0718711e-19)
(-0.0019049712 0.0024418094 -8.9803947e-20)
(-0.0016785685 0.0025421906 -1.0209529e-19)
(-0.0014566211 0.0026233016 -2.9316063e-19)
(-0.0012402769 0.0026864179 1.985696e-20)
(-0.0010304836 0.0027328271 4.1719147e-19)
(-0.00082800142 0.0027637964 2.8691424e-19)
(-0.00063343863 0.0027805866 -8.0377627e-20)
(-0.00044726986 0.0027844233 -3.6385024e-19)
(-0.000269826 0.002776471 -7.0714982e-20)
(-0.00010133629 0.0027578754 2.0773264e-19)
(5.8000568e-05 0.002729772 4.1782306e-20)
(0.00020818498 0.0026931093 -3.9203665e-19)
(0.00034930794 0.0026488819 -4.0204927e-19)
(0.00048142048 0.0025979893 9.2989732e-20)
(0.00060466848 0.0025412729 1.8969035e-19)
(0.00071924175 0.0024795153 1.8054419e-19)
(0.00082536582 0.0024134413 3.1466252e-20)
(0.00092329536 0.0023437193 -1.1732898e-19)
(0.0010133075 0.002270963 1.8285867e-19)
(0.0010956964 0.0021957347 3.0069409e-19)
(0.0011707687 0.0021185463 -9.4355669e-20)
(0.0012388389 0.0020398637 -1.399743e-19)
(0.0013002264 0.0019601086 -2.098646e-19)
(0.0013552517 0.0018796615 6.4036418e-20)
(0.0014042344 0.001798864 6.1304175e-20)
(0.0014474908 0.0017180222 -8.0762134e-21)
(0.001485332 0.0016374091 -8.6043288e-20)
(0.0015180626 0.0015572666 -1.0523796e-19)
(0.0015459791 0.0014778087 -3.7900963e-20)
(0.00056117823 0.010218996 -7.6944167e-19)
(0.001220313 0.010130387 1.1413121e-17)
(0.0019854431 0.009891352 3.9899788e-18)
(0.0027015182 0.0095401678 1.9049787e-18)
(0.003394606 0.0090830355 -4.6586206e-18)
(0.0040419845 0.0085242044 -5.0015726e-18)
(0.0046310312 0.0078682432 -1.0235889e-18)
(0.0051492425 0.0071216943 -1.3919134e-18)
(0.0055838398 0.0062938085 1.9560154e-18)
(0.0059231074 0.0053973775 1.6230571e-18)
(0.0061581304 0.0044478844 1.8686087e-19)
(0.0062817996 0.0034635652 1.1696333e-18)
(0.0062908639 0.0024637229 1.095019e-18)
(0.0061857854 0.0014686193 8.772076e-19)
(0.0059701355 0.00049886908 7.7039257e-19)
(0.0056513336 -0.00042685196 1.3474128e-18)
(0.0052393921 -0.0012911567 1.2536752e-18)
(0.0047468925 -0.0020796936 1.141858e-18)
(0.0041879714 -0.0027809409 2.2427465e-18)
(0.0035779425 -0.0033863973 1.4672123e-18)
(0.0029321785 -0.0038908019 3.5200071e-19)
(0.0022654627 -0.0042918812 9.645376e-19)
(0.0015925983 -0.0045902096 1.0969257e-18)
(0.00092654225 -0.004788473 1.4181866e-18)
(0.00027927317 -0.0048916429 1.6980833e-18)
(-0.00033775307 -0.0049062354 9.4720806e-19)
(-0.00091663845 -0.0048408248 1.0463648e-18)
(-0.0014513744 -0.0047036218 1.5440266e-18)
(-0.0019366558 -0.0045037507 2.8081358e-18)
(-0.0023690158 -0.0042505026 5.038437e-19)
(-0.002746439 -0.0039530794 1.6368879e-20)
(-0.0030682005 -0.0036203819 8.3347958e-19)
(-0.003334692 -0.0032608455 9.1129165e-19)
(-0.003547252 -0.0028823202 1.9326269e-18)
(-0.00370798 -0.0024919905 -9.7193925e-19)
(-0.0038195989 -0.0020963078 -4.1804802e-19)
(-0.0038853293 -0.0017009858 4.1513591e-19)
(-0.0039086682 -0.0013110175 7.3171181e-19)
(-0.0038933008 -0.00093059179 1.1280526e-18)
(-0.0038430826 -0.00056329118 -9.5996428e-19)
(-0.0037618613 -0.00021201151 -1.1878742e-18)
(-0.003653509 0.00012087648 -8.7250051e-19)
(-0.0035217635 0.00043370706 -1.3775445e-18)
(-0.0033701192 0.00072522013 -9.8969214e-19)
(-0.0032019262 0.0009945974 -4.001661e-19)
(-0.0030203261 0.0012414056 -3.1379039e-19)
(-0.0028282313 0.0014655423 -8.6667427e-19)
(-0.0026283147 0.0016671871 -1.1667112e-18)
(-0.0024230068 0.0018467557 -9.7476149e-19)
(-0.0022144968 0.0020048579 -3.8958613e-19)
(-0.0020047385 0.0021422597 -1.201717e-19)
(-0.0017954582 0.0022598494 -3.9668301e-19)
(-0.0015881656 0.002358607 -3.1391821e-19)
(-0.0013841667 0.0024395769 -4.5149149e-19)
(-0.0011845812 0.0025038475 -3.3633144e-19)
(-0.0009903537 0.0025525333 3.2715663e-20)
(-0.00080225053 0.0025867413 7.8813731e-20)
(-0.0006208954 0.0026075808 -2.8449039e-20)
(-0.00044679924 0.0026161435 -5.0969482e-19)
(-0.00028033037 0.0026134809 -5.5554945e-19)
(-0.00012174112 0.0026006168 -1.4492943e-19)
(2.8697336e-05 0.0025785433 -2.2073135e-19)
(0.00017092297 0.0025482063 -4.8917448e-19)
(0.00030499199 0.0025104744 -4.5554402e-19)
(0.0004308903 0.0024661834 -1.8713162e-19)
(0.00054870933 0.002416117 -2.6340263e-20)
(0.00065858445 0.0023610066 5.4365744e-22)
(0.00076068745 0.0023015334 -1.2349728e-19)
(0.00085522057 0.0022383283 -1.8788508e-19)
(0.00094241067 0.0021719741 -2.0966282e-20)
(0.0010225037 0.0021030067 1.1182933e-19)
(0.0010957603 0.0020319173 -5.0088667e-20)
(0.0011624517 0.0019591548 -1.9140755e-19)
(0.001222856 0.0018851278 -2.1047342e-19)
(0.0012772558 0.0018102068 -4.2063055e-20)
(0.0013259346 0.0017347266 -2.662857e-20)
(0.0013691752 0.0016589888 -6.4096365e-20)
(0.0014072578 0.0015832637 -1.4987099e-19)
(0.001440458 0.0015077929 -1.3735549e-19)
(0.001469046 0.001432791 -6.2040348e-20)
(0.00048614015 0.0087565264 2.874363e-20)
(0.0010582307 0.0086789732 9.6570705e-18)
(0.0017209146 0.0084681 5.6030702e-18)
(0.0023391433 0.0081585413 2.5486657e-18)
(0.0029352597 0.0077564458 5.198137e-19)
(0.0034893214 0.0072667269 2.6619533e-18)
(0.0039909578 0.0066944353 1.3691632e-18)
(0.0044297911 0.0060463408 3.908348e-18)
(0.0047957165 0.0053308015 1.9455973e-18)
(0.005079618 0.0045590658 1.7399465e-18)
(0.005274518 0.0037441889 4.4959898e-19)
(0.0053754027 0.0029010038 1.0984969e-18)
(0.0053797529 0.0020463114 9.0505005e-19)
(0.005288463 0.0011960858 1.1201919e-18)
(0.0051041995 0.0003672974 1.7117196e-18)
(0.0048327791 -0.00042487692 -1.2018577e-18)
(0.0044826934 -0.0011660134 -2.6683852e-19)
(0.0040638841 -0.0018441342 3.4271567e-19)
(0.0035878997 -0.0024494226 1.0422502e-18)
(0.0030671982 -0.0029745783 6.9648015e-20)
(0.0025144868 -0.0034148487 -3.3046811e-19)
(0.0019419869 -0.0037679739 -1.747255e-19)
(0.0013620906 -0.0040335117 -1.0327976e-18)
(0.00078570858 -0.0042138137 4.1260251e-19)
(0.00022318481 -0.0043122584 1.9786181e-19)
(-0.00031566203 -0.0043340125 -6.7655984e-19)
(-0.00082386277 -0.0042857622 -6.6688103e-19)
(-0.0012957126 -0.0041742478 -3.068388e-19)
(-0.0017264324 -0.004006966 5.2111702e-19)
(-0.0021126493 -0.0037916537 8.2156036e-19)
(-0.0024522209 -0.0035360629 -6.1925623e-20)
(-0.0027441171 -0.0032477747 -9.1034724e-19)
(-0.0029882867 -0.0029340502 -7.1443826e-19)
(-0.0031855241 -0.002601713 -3.8573145e-19)
(-0.003337324 -0.0022570675 5.6555957e-19)
(-0.0034457659 -0.0019058586 9.040154e-19)
(-0.003513361 -0.0015532114 -6.7250344e-19)
(-0.0035429324 -0.0012036152 -2.3108427e-19)
(-0.0035375538 -0.00086098994 -6.8114861e-19)
(-0.0035004604 -0.00052868768 -1.8637149e-19)
(-0.0034349259 -0.00020941848 1.0671999e-18)
(-0.0033442541 9.4570997e-05 -2.7932499e-19)
(-0.0032316764 0.0003815439 -9.9700576e-19)
(-0.0031002694 0.00065020725 -5.7683739e-19)
(-0.0029529931 0.00089965678 -2.8068562e-19)
(-0.0027926469 0.0011293367 -1.9535729e-19)
(-0.0026218473 0.0013389974 -6.3242021e-19)
(-0.002443016 0.001528653 -6.6660278e-19)
(-0.0022583726 0.0016985424 -4.5825607e-19)
(-0.0020699331 0.0018490922 -1.3012401e-20)
(-0.0018795121 0.0019808832 2.4576391e-20)
(-0.0016887275 0.0020946194 -1.8511108e-19)
(-0.0014990076 0.0021911015 -1.604452e-19)
(-0.0013116002 0.002271201 -1.1816036e-19)
(-0.0011275864 0.0023358406 3.2404709e-19)
(-0.00094789433 0.0023859779 -6.1635114e-20)
(-0.00077328887 0.0024225792 -1.0493633e-19)
(-0.00060439779 0.0024466131 1.4061141e-19)
(-0.0004417506 0.0024590473 -3.4137472e-20)
(-0.00028574704 0.0024608306 1.3678663e-22)
(-0.00013667951 0.0024528715 -2.9073874e-19)
(5.1774777e-06 0.0024360433 -3.2289542e-19)
(0.00013970012 0.0024112609 -1.3950815e-19)
(0.00026686845 0.0023792895 -1.8545995e-20)
(0.00038664797 0.0023409017 1.3711898e-19)
(0.00049908026 0.0022968239 -1.5037841e-19)
(0.00060425242 0.0022477377 -1.1824268e-19)
(0.00070228887 0.0021942805 9.9564064e-20)
(0.00079334567 0.0021370457 9.1828616e-20)
(0.00087760472 0.0020765843 6.8003204e-20)
(0.00095526869 0.0020134054 -1.0977494e-19)
(0.0010265567 0.0019479779 -1.2091642e-19)
(0.0010917005 0.0018807325 -8.5783164e-20)
(0.0011509409 0.0018120631 3.2705245e-20)
(0.0012045249 0.0017423287 7.3717833e-20)
(0.0012527027 0.0016718555 -1.9126294e-19)
(0.0012957262 0.0016009388 -1.9282842e-19)
(0.0013338464 0.0015298451 -5.2771211e-20)
(0.001367312 0.0014588134 1.0801696e-20)
(0.0013963682 0.001388058 2.5037036e-20)
(0.00041993228 0.0074905206 2.0452272e-18)
(0.00091514694 0.0074229529 1.130367e-18)
(0.0014877248 0.0072379666 3.689793e-18)
(0.0020207755 0.0069666239 1.9508853e-18)
(0.002533173 0.0066146343 1.1385271e-18)
(0.003007322 0.0061873765 -1.0071952e-18)
(0.0034349247 0.005689776 1.8848852e-18)
(0.0038073343 0.0051280273 6.9553534e-19)
(0.0041163533 0.0045101694 1.5538295e-18)
(0.0043547181 0.003845494 1.8851531e-18)
(0.0045170459 0.0031457932 2.8297871e-18)
(0.0045999476 0.0024233366 2.0209772e-18)
(0.0046011818 0.0016915131 1.1397961e-18)
(0.0045213346 0.00096398645 1.0249455e-18)
(0.0043630561 0.00025447696 -1.8279015e-18)
(0.0041313088 -0.00042437619 1.5080515e-18)
(0.0038328098 -0.0010605597 -3.9586382e-21)
(0.00347557 -0.001644246 -5.8122993e-19)
(0.0030690101 -0.0021668152 -1.6594175e-19)
(0.0026233966 -0.0026221771 -1.7994519e-18)
(0.0021490828 -0.0030060155 -5.6882652e-19)
(0.001656502 -0.0033160478 -1.3375211e-19)
(0.0011558522 -0.0035515896 7.4936897e-19)
(0.00065631093 -0.0037142125 2.1558752e-18)
(0.00016700447 -0.0038062451 1.0917995e-18)
(-0.00030388381 -0.0038319869 -2.9218785e-19)
(-0.00075004719 -0.003796486 1.9480835e-19)
(-0.0011662864 -0.0037053025 7.9466572e-19)
(-0.0015482808 -0.0035645989 1.7238702e-18)
(-0.0018928207 -0.0033808155 1.8117851e-18)
(-0.0021977345 -0.0031604781 -4.7718458e-19)
(-0.0024618047 -0.0029100359 -6.2399864e-19)
(-0.0026846656 -0.0026357289 -6.4444659e-20)
(-0.0028667001 -0.0023434771 2.4024954e-19)
(-0.0030089282 -0.0020388034 1.5011977e-18)
(-0.0031128937 -0.001726792 -3.3712795e-19)
(-0.0031805615 -0.0014120072 -7.3973311e-19)
(-0.003214225 -0.0010985357 -2.150983e-19)
(-0.0032164318 -0.00078996407 -5.1130527e-20)
(-0.0031898289 -0.00048936636 7.7243832e-19)
(-0.0031371593 -0.00019929197 -1.0250428e-19)
(-0.0030613183 7.8092427e-05 -5.4091042e-19)
(-0.0029650976 0.00034109176 -2.0466387e-19)
(-0.0028511579 0.00058839874 -3.3195306e-19)
(-0.0027221121 0.00081905509 -5.6890048e-19)
(-0.0025804486 0.0010324194 -5.3283812e-19)
(-0.0024285106 0.0012281311 -2.0679522e-19)
(-0.0022684838 0.0014060746 -3.0663263e-21)
(-0.002102387 0.0015663459 -1.9917493e-19)
(-0.0019320686 0.0017092201 -2.0550495e-19)
(-0.0017592055 0.001835122 -3.1121759e-19)
(-0.0015853054 0.0019445994 -5.5325917e-20)
(-0.0014117114 0.0020382972 -5.2882977e-20)
(-0.0012396078 0.0021169362 1.6165419e-19)
(-0.0010700299 0.0021812936 4.3086242e-19)
(-0.00090387912 0.0022321864 -4.7902757e-19)
(-0.00074191033 0.0022704536 -4.0771094e-19)
(-0.00058474895 0.00229694 -8.3285252e-20)
(-0.00043292472 0.002312496 5.9553425e-20)
(-0.00028686438 0.0023179726 1.8151389e-19)
(-0.00014689788 0.0023141779 -4.2390566e-19)
(-1.3291182e-05 0.0023019077 -5.0253902e-19)
(0.0001137862 0.0022819738 -2.0646684e-19)
(0.00023424788 0.0022550906 -2.108203e-21)
(0.0003480397 0.0022219643 2.516285e-19)
(0.00045516258 0.0021832647 -1.4236822e-19)
(0.00055566225 0.0021396244 -2.3687149e-19)
(0.00064962228 0.0020916378 9.9307067e-21)
(0.00073715815 0.0020398611 2.5369155e-20)
(0.0008184119 0.0019848129 1.2767036e-19)
(0.00089354756 0.0019269753 -9.4918129e-20)
(0.00096274707 0.001866794 -2.5101777e-19)
(0.0010262064 0.0018046806 -1.9539602e-19)
(0.0010841321 0.0017410131 -3.7360669e-20)
(0.0011367387 0.0016761378 1.1858779e-19)
(0.001184246 0.0016103709 -9.0054983e-20)
(0.0012268769 0.0015440002 -2.1370389e-19)
(0.0012648554 0.0014772867 -1.3281212e-19)
(0.0012984048 0.0014104657 -1.172103e-19)
(0.0013277467 0.0013437493 6.4900072e-20)
(0.00036224495 0.0063971834 6.4120836e-20)
(0.00078976658 0.0063384376 -1.4049298e-18)
(0.0012835789 0.0061768648 3.2945793e-19)
(0.0017423564 0.0059399702 -5.2915733e-19)
(0.0021824954 0.0056329136 -4.4734334e-18)
(0.0025885125 0.0052611251 -1.1507151e-18)
(0.0029530901 0.0048292391 -2.2910966e-18)
(0.0032695032 0.0043431787 -1.4483239e-18)
(0.0035308156 0.0038099887 -2.531592e-19)
(0.0037316167 0.0032379114 -1.0537524e-18)
(0.0038676988 0.0026367673 -3.5940978e-19)
(0.0039356332 0.0020169759 2.3238874e-19)
(0.0039341972 0.0013897112 1.0140355e-18)
(0.0038645876 0.00076632347 4.8354643e-19)
(0.0037284089 0.00015821755 8.768087e-19)
(0.0035297748 -0.0004240208 9.1757898e-21)
(0.0032743214 -0.00097059295 4.4578369e-19)
(0.0029686126 -0.0014732367 7.3464572e-19)
(0.0026204041 -0.0019245294 1.1201537e-18)
(0.00223792 -0.0023192339 1.0445294e-18)
(0.001830017 -0.0026535726 2.9636251e-19)
(0.001405268 -0.0029251091 -8.0361338e-19)
(0.00097224225 -0.003133325 2.3264672e-19)
(0.0005388637 -0.0032788506 4.2083873e-19)
(0.00011269804 -0.0033636031 -2.2238619e-19)
(-0.0002991101 -0.0033909838 2.7680131e-19)
(-0.0006908771 -0.0033648375 -5.7395079e-20)
(-0.0010580037 -0.0032897194 4.8428446e-19)
(-0.0013965835 -0.0031706994 9.4885419e-19)
(-0.0017036082 -0.0030131399 3.5526263e-20)
(-0.0019769435 -0.0028225328 -3.3653249e-19)
(-0.0022152712 -0.0026043604 -5.049804e-19)
(-0.0024180127 -0.0023639773 -3.6333469e-20)
(-0.0025852466 -0.0021065127 6.1045579e-19)
(-0.002717625 -0.0018367965 2.9161113e-19)
(-0.0028162713 -0.0015593074 -8.5587751e-19)
(-0.0028827082 -0.0012781232 -6.2772575e-19)
(-0.0029187744 -0.00099692371 -1.3960665e-19)
(-0.0029265287 -0.00071894883 1.0875068e-18)
(-0.002908172 -0.00044699369 1.1257178e-19)
(-0.0028660715 -0.0001835168 -6.3291032e-19)
(-0.0028026762 6.9436681e-05 -6.1137739e-19)
(-0.0027203629 0.00031028064 -1.1345918e-18)
(-0.0026214692 0.00053770298 -7.5263237e-19)
(-0.0025082896 0.0007507171 -5.330171e-19)
(-0.0023830275 0.00094862551 -3.950827e-20)
(-0.0022477745 0.0011309867 1.0942861e-20)
(-0.0021044963 0.0012975853 -4.0525064e-19)
(-0.0019550229 0.0014484034 -4.552465e-19)
(-0.0018010419 0.0015835922 -3.1477782e-19)
(-0.0016440965 0.0017034467 -2.059709e-19)
(-0.0014855851 0.0018083818 -3.9672277e-20)
(-0.0013267635 0.0018989093 -9.724411e-20)
(-0.0011687488 0.001975619 1.9863747e-19)
(-0.001012526 0.00203916 2.2519321e-19)
(-0.00085896202 0.0020902259 -1.0825802e-19)
(-0.00070879447 0.0021295409 -1.3155345e-19)
(-0.00056264097 0.0021578384 -1.3784352e-19)
(-0.00042102565 0.0021758669 1.358764e-19)
(-0.00028438919 0.0021843751 2.2884435e-19)
(-0.00015308021 0.0021840882 -1.648873e-19)
(-2.7372419e-05 0.0021757336 -3.2212264e-19)
(9.2530826e-05 0.0021600236 -3.4483073e-19)
(0.00020650337 0.0021376205 -2.112072e-20)
(0.00031446546 0.0021091697 2.3435935e-19)
(0.0004163847 0.0020752875 -2.7896871e-20)
(0.00051227224 0.0020365587 -9.9975606e-20)
(0.00060217644 0.0019935358 3.7235488e-20)
(0.00068617728 0.0019467385 7.2401552e-20)
(0.00076438195 0.0018966536 2.4487189e-19)
(0.00083692023 0.0018437355 -6.0203232e-21)
(0.00090394061 0.0017884066 -1.8328532e-19)
(0.00096560679 0.0017310585 -1.5950217e-19)
(0.0010220945 0.0016720529 1.1925342e-20)
(0.0010735887 0.0016117222 1.6577179e-19)
(0.001120281 0.0015503716 -4.5552547e-20)
(0.0011623676 0.0014882802 -1.6837043e-19)
(0.0012000474 0.0014257023 -1.4370846e-19)
(0.0012335202 0.0013628684 -4.8003809e-20)
(0.0012629855 0.0012999875 1.585998e-19)
(0.00031182137 0.0054547021 -9.9719224e-19)
(0.00068040087 0.0054035881 8.3555829e-18)
(0.0011055488 0.0052629402 -2.9392399e-18)
(0.0014999269 0.0050566118 5.0670208e-19)
(0.0018775868 0.0047896713 -5.1489907e-19)
(0.0022248892 0.0044668084 -2.1692108e-18)
(0.0025360853 0.0040927284 -1.3041169e-18)
(0.0028053645 0.0036726737 -3.3354299e-20)
(0.0030269438 0.0032128367 -4.4025891e-19)
(0.0031962603 0.0027204909 -1.2510468e-18)
(0.0033099706 0.0022038249 -1.0474852e-18)
(0.0033660267 0.0016716131 6.0215206e-20)
(0.0033630196 0.0011334845 -6.7956777e-19)
(0.0033017772 0.00059899284 -7.4129168e-19)
(0.0031841414 7.7014334e-05 -4.6909065e-19)
(0.0030134214 -0.00042280624 -1.142331e-18)
(0.0027940461 -0.00089284449 -4.3602191e-19)
(0.0025316263 -0.0013258303 -1.0699697e-18)
(0.0022325092 -0.0017156794 -7.6807414e-19)
(0.0019033953 -0.002057697 -3.4619605e-19)
(0.0015517863 -0.0023484822 -3.3899866e-19)
(0.0011848415 -0.0025859537 -9.8702383e-19)
(0.00080973952 -0.0027691435 -1.011645e-18)
(0.00043319912 -0.0028987185 -1.5780812e-18)
(6.1571574e-05 -0.0029757431 -1.4777146e-18)
(-0.00029886026 -0.0030030872 -1.0471065e-18)
(-0.00064296572 -0.0029836802 -1.8937011e-18)
(-0.00096676074 -0.0029212308 -1.289221e-18)
(-0.0012667277 -0.0028199107 -6.7682435e-19)
(-0.0015400792 -0.0026841854 -5.9567887e-19)
(-0.0017847625 -0.0025186768 -1.1868254e-18)
(-0.0019994209 -0.0023280431 -1.6175574e-18)
(-0.0021833374 -0.0021168745 -6.92172e-19)
(-0.0023363699 -0.0018896082 2.6467942e-19)
(-0.0024588848 -0.0016504587 1.6562088e-20)
(-0.0025516756 -0.0014033616 -5.9435816e-19)
(-0.0026159103 -0.0011519558 -4.8837467e-19)
(-0.0026530392 -0.00089951993 7.6466182e-20)
(-0.0026647274 -0.00064898768 7.3126762e-19)
(-0.0026528439 -0.00040296215 5.7036842e-19)
(-0.0026193824 -0.00016372101 5.0958358e-19)
(-0.0025663655 6.6910124e-05 -6.0219765e-19)
(-0.0024958509 0.00028734655 -1.1268657e-18)
(-0.0024098994 0.00049631753 -6.5425506e-19)
(-0.0023105123 0.00069283574 -3.6097784e-19)
(-0.0021996334 0.00087617173 1.4472233e-19)
(-0.0020791241 0.0010458283 -3.8703292e-19)
(-0.0019507475 0.0012015154 -6.2317888e-19)
(-0.0018161564 0.0013431256 -2.1797422e-19)
(-0.0016768869 0.0014707104 -9.9993985e-20)
(-0.0015343533 0.0015844572 -8.823787e-21)
(-0.001389847 0.0016846691 -2.0178621e-19)
(-0.0012445369 0.0017717449 -2.4213973e-19)
(-0.0010994708 0.0018461607 -1.2266068e-19)
(-0.00095558044 0.001908454 1.3912321e-19)
(-0.00081369305 0.0019592101 2.4432167e-19)
(-0.00067452402 0.0019990505 -7.455797e-20)
(-0.00053867565 0.0020286087 -1.5043126e-19)
(-0.00040666362 0.0020485424 -9.005481e-20)
(-0.00027893572 0.0020595086 1.3105772e-19)
(-0.00015584461 0.0020621528 -4.224413e-21)
(-3.7671988e-05 0.0020571282 -3.319603e-19)
(7.5349739e-05 0.0020450821 -4.5140266e-19)
(0.00018306605 0.0020266098 -2.023021e-19)
(0.00028537643 0.0020023012 1.8658777e-19)
(0.00038222093 0.0019727223 2.8627897e-21)
(0.00047358135 0.0019384125 -1.8000709e-19)
(0.00055947583 0.0018998839 -1.1806917e-19)
(0.00063995392 0.0018576204 3.506314e-20)
(0.00071509216 0.0018120778 2.8427534e-19)
(0.00078499018 0.0017636828 -2.0571166e-20)
(0.00084976681 0.0017128345 -1.5536629e-19)
(0.00090955678 0.0016599043 -1.6912025e-19)
(0.00096450793 0.0016052365 -1.9716006e-20)
(0.0010147783 0.0015491493 1.7138855e-19)
(0.0010605338 0.0014919364 -5.420669e-20)
(0.0011019463 0.0014338669 -1.5266459e-19)
(0.0011391913 0.0013751876 -1.1870308e-19)
(0.0011724469 0.0013161233 3.3029227e-21)
(0.0012018918 0.0012568785 1.1910768e-19)
(0.00026809136 0.0046435698 8.7779653e-19)
(0.00058527553 0.0045993011 3.5790098e-18)
(0.0009508403 0.0044768652 5.0573862e-18)
(0.0012894979 0.0042976025 3.5562423e-18)
(0.0016132938 0.0040658716 2.2693258e-18)
(0.0019105059 0.0037861952 2.1350216e-18)
(0.0021760542 0.0034626917 4.3213783e-18)
(0.0024051591 0.0030998986 2.0936152e-18)
(0.0025929583 0.0027035452 1.9354426e-18)
(0.0027359389 0.0022796235 2.5893835e-18)
(0.0028313503 0.0018355306 7.3653391e-19)
(0.0028771947 0.0013784521 3.8704355e-19)
(0.0028729124 0.00091635884 -3.2441827e-19)
(0.002818949 0.00045737707 -2.1067332e-19)
(0.0027170085 9.2535407e-06 -1.8084525e-19)
(0.0025698376 -0.00042029823 -8.5125893e-19)
(0.0023808096 -0.00082474831 1.3107177e-19)
(0.0021548699 -0.0011978739 -4.5981296e-20)
(0.0018971972 -0.0015346319 4.6777185e-19)
(0.0016133635 -0.0018307791 8.4482438e-19)
(0.0013095941 -0.0020834208 2.7010643e-19)
(0.00099202314 -0.0022905715 6.5423356e-19)
(0.00066647174 -0.0024513685 4.3193764e-19)
(0.00033884796 -0.0025659955 5.188918e-19)
(1.4489992e-05 -0.0026353425 4.0240621e-19)
(-0.00030128033 -0.0026614593 2.4289261e-19)
(-0.00060364852 -0.0026467748 1.9363577e-19)
(-0.00088924759 -0.0025942912 4.8754895e-19)
(-0.0011549245 -0.0025074297 1.1153897e-18)
(-0.0013981212 -0.0023899073 2.43945e-19)
(-0.0016168946 -0.002245613 -3.7320874e-19)
(-0.0018098939 -0.0020785032 4.0382277e-20)
(-0.00197632 -0.0018925109 3.6137689e-19)
(-0.0021158738 -0.0016914708 8.9070916e-19)
(-0.0022287075 -0.0014790572 2.8840285e-20)
(-0.0023153672 -0.0012587302 1.8144054e-19)
(-0.0023767154 -0.0010337115 5.768771e-19)
(-0.0024138919 -0.00080693677 7.0099043e-19)
(-0.002428282 -0.00058105707 1.0331928e-18)
(-0.0024214241 -0.00035842226 1.0448245e-18)
(-0.0023949067 -0.00014110843 6.7442347e-19)
(-0.0023504928 6.9126474e-05 -6.3919533e-19)
(-0.002290002 0.0002708013 -9.3755481e-19)
(-0.0022151754 0.00046269801 -4.468997e-19)
(-0.0021277672 0.00064384358 2.2278993e-19)
(-0.0020294907 0.00081349546 2.6344051e-19)
(-0.001921999 0.00097112101 -5.2378041e-19)
(-0.0018068687 0.0011163761 -5.0422013e-19)
(-0.001685589 0.0012490845 -5.9773996e-20)
(-0.001559553 0.001369218 3.5257423e-19)
(-0.001430053 0.0014768765 2.6152404e-19)
(-0.001298277 0.0015722697 -1.2027453e-20)
(-0.0011653082 0.0016557002 1.6135101e-20)
(-0.0010321253 0.001727547 6.1432867e-21)
(-0.00089960488 0.0017882507 6.1711744e-19)
(-0.00076853101 0.0018383014 3.8477326e-19)
(-0.00063959231 0.0018782295 2.8058993e-20)
(-0.00051337158 0.0019085798 2.6765758e-19)
(-0.00039037168 0.0019299256 6.8263222e-20)
(-0.0002710429 0.0019428425 2.9161774e-19)
(-0.00015573825 0.0019479174 1.4765914e-19)
(-4.4731979e-05 0.0019457134 -2.0452139e-19)
(6.1715632e-05 0.0019368209 -1.0468544e-19)
(0.00016342017 0.0019217816 -2.1268655e-21)
(0.00026027228 0.0019011306 3.2644805e-19)
(0.00035218893 0.0018753854 1.2349918e-19)
(0.00043912718 0.0018450423 -1.0933128e-19)
(0.00052107957 0.0018105745 1.3824458e-19)
(0.00059806944 0.0017724315 1.9387012e-19)
(0.00067014686 0.0017310384 2.4697726e-19)
(0.00073738477 0.0016867953 1.1108032e-19)
(0.00079987579 0.0016400777 7.821197e-21)
(0.000857729 0.0015912366 3.9731002e-20)
(0.00091106704 0.0015405992 8.3615558e-20)
(0.00096002369 0.0014884688 1.6344863e-19)
(0.0010047416 0.0014351266 2.5941112e-20)
(0.00104537 0.0013808317 -8.5410947e-20)
(0.0010820632 0.0013258221 9.6907671e-21)
(0.0011149789 0.0012703164 6.7472948e-20)
(0.0011442769 0.0012145138 5.6997705e-20)
(0.00023024957 0.0039465336 1.2713703e-18)
(0.00050271197 0.0039081673 3.1200649e-18)
(0.00081656878 0.0038018184 5.4173873e-18)
(0.0011071095 0.003646304 1.899193e-18)
(0.0013846425 0.0034454768 2.9092063e-18)
(0.0016387287 0.0032033465 5.4926376e-18)
(0.0018651704 0.0029237326 2.5225767e-18)
(0.0020602445 0.0026107245 3.8865546e-18)
(0.0022195948 0.0022690104 4.1658031e-18)
(0.002340332 0.0019041089 1.4687382e-18)
(0.0024201805 0.0015220577 1.8386543e-18)
(0.0024576543 0.0011291898 9.4804418e-19)
(0.0024522219 0.00073240651 4.8107065e-19)
(0.0024045195 0.00033819678 8.2737984e-19)
(0.0023159158 -4.6783412e-05 4.2587784e-19)
(0.0021884538 -0.00041618692 1.3904053e-18)
(0.0020251339 -0.00076434886 2.9460149e-19)
(0.0018300265 -0.0010859677 8.0435553e-19)
(0.0016075167 -0.001376758 1.4786961e-18)
(0.0013621414 -0.0016330253 6.660952e-19)
(0.0010991613 -0.0018523037 6.8093706e-19)
(0.00082368467 -0.0020325922 2.7665716e-19)
(0.00054073072 -0.0021733505 1.2020781e-19)
(0.00025527108 -0.0022741039 5.7637772e-19)
(-2.8217588e-05 -0.0023359833 2.7515576e-19)
(-0.00030497609 -0.0023601329 1.8457303e-20)
(-0.00057083465 -0.0023486583 -2.3048609e-19)
(-0.00082279926 -0.0023040005 2.7906047e-19)
(-0.0010580647 -0.0022289647 9.1979649e-19)
(-0.0012743097 -0.0021266438 1.8429364e-19)
(-0.0014697196 -0.0020003102 -1.4238745e-19)
(-0.0016429808 -0.001853324 -5.1707363e-19)
(-0.0017932553 -0.0016890544 -3.497529e-20)
(-0.0019201418 -0.0015108119 5.162555e-19)
(-0.0020236323 -0.0013217947 1.0534135e-19)
(-0.0021040657 -0.001125043 4.9877181e-19)
(-0.0021620851 -0.00092339355 -1.524482e-19)
(-0.0021985722 -0.00071947398 2.3294529e-19)
(-0.0022146049 -0.00051567646 1.9666859e-19)
(-0.0022114768 -0.00031412907 -5.3375618e-19)
(-0.0021905919 -0.00011670021 -5.2565064e-19)
(-0.0021533794 7.492798e-05 -2.5432975e-20)
(-0.0021013554 0.00025939014 3.7047005e-19)
(-0.0020360729 0.00043552425 -9.5269812e-20)
(-0.0019590584 0.00060238502 -1.7382641e-19)
(-0.0018718162 0.0007592314 -3.1646974e-19)
(-0.0017758101 0.0009055113 1.2814212e-19)
(-0.0016724466 0.0010408434 4.0342323e-19)
(-0.0015630639 0.0011650001 1.4372131e-20)
(-0.0014489222 0.0012778906 1.1138785e-19)
(-0.0013311983 0.0013795438 4.3269487e-21)
(-0.0012109819 0.0014700925 2.0835907e-19)
(-0.0010892729 0.0015497581 2.0101242e-19)
(-0.00096698143 0.0016188368 2.9576318e-19)
(-0.00084492851 0.0016776855 6.4079056e-19)
(-0.00072385344 0.0017267117 2.9681246e-20)
(-0.00060441561 0.0017663645 1.4323167e-19)
(-0.00048717528 0.0017971113 3.4712572e-19)
(-0.00037261963 0.0018194471 3.1289213e-19)
(-0.00026118114 0.0018338768 2.8992565e-19)
(-0.00015322579 0.0018409309 -1.0671047e-19)
(-4.9032055e-05 0.0018411038 -7.7014624e-20)
(5.1145704e-05 0.0018349083 3.9303753e-20)
(0.00014709719 0.0018228546 1.410527e-19)
(0.00023869744 0.0018054223 2.3331351e-19)
(0.00032584751 0.0017830831 9.9723653e-21)
(0.00040848477 0.0017562924 -4.531265e-20)
(0.00048658041 0.0017254863 1.6479548e-19)
(0.00056013535 0.0016910813 1.305662e-19)
(0.00062917672 0.0016534727 9.3792738e-20)
(0.0006937545 0.0016130345 3.9098413e-20)
(0.00075393826 0.0015701192 -5.1678379e-20)
(0.00080981409 0.0015250579 1.8287917e-20)
(0.00086148219 0.0014781598 8.4046527e-20)
(0.00090905453 0.0014297136 9.4016411e-20)
(0.00095265248 0.0013799875 -5.669935e-21)
(0.00099240495 0.00132923 -1.3619311e-19)
(0.0010284467 0.0012776701 -3.1896379e-20)
(0.0010609169 0.0012255191 -1.1881582e-20)
(0.0010899573 0.0011729705 -5.3634328e-21)
(0.00019752909 0.0033481801 2.5759112e-18)
(0.00043132528 0.0033148582 2.9868874e-18)
(0.00070053252 0.0032226042 -1.909101e-18)
(0.0009495125 0.0030878117 -1.8028847e-20)
(0.0011869443 0.0029139526 1.7405331e-19)
(0.0014041036 0.0027045677 9.0951021e-19)
(0.0015973345 0.0024631071 1.1854992e-18)
(0.0017631276 0.0021931017 2.2720821e-18)
(0.0018980654 0.0018985954 1.4882184e-19)
(0.0019999332 0.0015845743 8.1725544e-19)
(0.0020667677 0.0012558847 7.7409436e-19)
(0.002097378 0.00091817804 2.3277562e-19)
(0.0020912886 0.00057706371 4.7434025e-19)
(0.0020487345 0.00023840199 6.012283e-19)
(0.0019712231 -9.2613239e-05 1.9415683e-19)
(0.0018605078 -0.00041034397 -3.9573087e-19)
(0.0017189309 -0.00071013339 1.2494953e-19)
(0.0015500215 -0.00098732939 -1.3232154e-19)
(0.0013573731 -0.0012383146 -1.9677669e-19)
(0.0011447115 -0.0014599781 -5.5728184e-19)
(0.00091658894 -0.0016500072 -7.9085888e-19)
(0.00067719581 -0.0018067074 -1.3520866e-18)
(0.00043085501 -0.0019293705 -6.2985305e-19)
(0.00018176645 -0.0020175541 2.394181e-19)
(-6.6306368e-05 -0.0020721687 -3.0992606e-19)
(-0.0003090524 -0.0020939366 -7.9764413e-19)
(-0.00054293043 -0.0020845579 -9.075043e-19)
(-0.0007652795 -0.0020460379 -5.8511665e-19)
(-0.00097359844 -0.0019806906 7.8590814e-20)
(-0.001165793 -0.0018910901 1.619617e-19)