/*--------------------------------*- C++ -*----------------------------------*\
| =========                 |                                                 |
| \\      /  F ield         | OpenFOAM: The Open Source CFD Toolbox           |
|  \\    /   O peration     | Version:  2106                                  |
|   \\  /    A nd           | Website:  www.openfoam.com                      |
|    \\/     M anipulation  |                                                 |
\*---------------------------------------------------------------------------*/
FoamFile
{
    version     2.0;
    format      ascii;
    arch        "LSB;label=32;scalar=64";
    class       surfaceScalarField;
    location    "0.006";
    object      phi;
}
// * * * * * * * * * * * * * * * * * * * * * * * * * * * * * * * * * * * * * //

dimensions      [0 3 -1 0 0 0 0];

oriented        oriented;

internalField   nonuniform List<scalar> 
8064
(
-0.00013012632
0.00013012632
-0.00025897037
0.00012884405
-0.00038526327
0.0001262929
-0.00050776282
0.00012249955
-0.00062526637
0.00011750355
-0.00073662329
0.00011135692
-0.00084074675
0.00010412346
-0.00093662473
9.5877976e-05
-0.0010233301
8.6705411e-05
-0.0011000299
7.6699803e-05
-0.0011659931
6.5963179e-05
-0.0012205975
5.4604377e-05
-0.0012633353
4.2737787e-05
-0.0012938172
3.0481966e-05
-0.0013117752
1.795794e-05
-0.001317066
5.2908447e-06
-0.001309669
-7.3970463e-06
-0.0012896856
-1.9983347e-05
-0.001257338
-3.2347665e-05
-0.0012129652
-4.4372799e-05
-0.0011570192
-5.5946013e-05
-0.0010900592
-6.6959932e-05
-0.0010127458
-7.7313415e-05
-0.00092583348
-8.6912337e-05
-0.0008301632
-9.5670284e-05
-0.00072665406
-0.00010350914
-0.00061629448
-0.00011035958
-0.00050013297
-0.00011616151
-0.00037926861
-0.00012086436
-0.00025484121
-0.0001244274
-0.0001280213
-0.0001268199
2.9760203e-13
-0.0001280213
0.0001280213
-0.0001280213
0.00025484121
-0.0001268199
0.00037926861
-0.0001244274
0.00050013297
-0.00012086436
0.00061629448
-0.00011616151
0.00072665406
-0.00011035958
0.0008301632
-0.00010350914
0.00092583348
-9.5670284e-05
0.0010127458
-8.6912337e-05
0.0010900592
-7.7313415e-05
0.0011570192
-6.6959932e-05
0.0012129652
-5.5946012e-05
0.001257338
-4.4372799e-05
0.0012896856
-3.2347665e-05
0.001309669
-1.9983347e-05
0.001317066
-7.3970462e-06
0.0013117752
5.2908449e-06
0.0012938172
1.795794e-05
0.0012633353
3.0481966e-05
0.0012205975
4.2737787e-05
0.0011659931
5.4604377e-05
0.0011000299
6.5963179e-05
0.0010233301
7.6699803e-05
0.00093662473
8.6705411e-05
0.00084074675
9.5877976e-05
0.00073662329
0.00010412346
0.00062526637
0.00011135692
0.00050776281
0.00011750355
0.00038526327
0.00012249955
0.00025897037
0.0001262929
0.00013012632
0.00012884405
0.00013012632
-0.00013259262
0.00026271894
-0.00026387778
0.0002601292
-0.00039256171
0.00025497683
-0.00051737789
0.00024731573
-0.00063710022
0.00023722589
-0.00075055576
0.00022481246
-0.0008566367
0.0002102044
-0.0009543117
0.00019355297
-0.0010426361
0.00017502985
-0.0011207614
0.0001548251
-0.0011879432
0.00013314493
-0.0012435481
0.00011020926
-0.0012870595
8.6249205e-05
-0.0013180819
6.150438e-05
-0.0013363443
3.6220306e-05
-0.0013417004
1.0646943e-05
-0.0013341307
-1.4966761e-05
-0.0013137401
-4.0373936e-05
-0.0012807562
-6.5331516e-05
-0.0012355259
-8.9603145e-05
-0.0011785105
-0.00011296137
-0.0011102809
-0.00013518959
-0.0010315104
-0.00015608386
-0.00094296836
-0.0001754544
-0.00084551159
-0.00019312705
-0.00074007634
-0.00020894439
-0.00062766915
-0.00022276677
-0.00050935752
-0.00023447314
-0.0003862602
-0.00024396168
-0.00025953725
-0.00025115035
-0.00013037985
-0.00025597731
4.003607e-13
-0.00025840115
0.00013037985
-0.00025840115
0.00025953725
-0.00025597731
0.0003862602
-0.00025115035
0.00050935752
-0.00024396168
0.00062766915
-0.00023447314
0.00074007634
-0.00022276677
0.00084551159
-0.00020894439
0.00094296836
-0.00019312705
0.0010315104
-0.0001754544
0.0011102809
-0.00015608386
0.0011785105
-0.00013518959
0.0012355259
-0.00011296137
0.0012807562
-8.9603145e-05
0.0013137401
-6.5331516e-05
0.0013341307
-4.0373935e-05
0.0013417004
-1.4966761e-05
0.0013363443
1.0646943e-05
0.0013180819
3.6220306e-05
0.0012870595
6.150438e-05
0.0012435481
8.6249205e-05
0.0011879432
0.00011020926
0.0011207614
0.00013314493
0.0010426361
0.0001548251
0.0009543117
0.00017502985
0.0008566367
0.00019355297
0.00075055576
0.0002102044
0.00063710022
0.00022481246
0.00051737789
0.00023722589
0.00039256171
0.00024731573
0.00026387778
0.00025497683
0.00013259262
0.0002601292
0.00026271894
-0.00013660583
0.00039932477
-0.00027186305
0.00039538642
-0.00040443724
0.00038755102
-0.00053302218
0.00037590066
-0.00065635348
0.0003605572
-0.00077322178
0.00034168075
-0.00088248513
0.00031946775
-0.00098308066
0.00029414851
-0.0010740353
0.00026598445
-0.0011544751
0.00023526494
-0.0012236341
0.00020230389
-0.0012808609
0.00016743606
-0.0013256248
0.00013101316
-0.0013575203
9.3399899e-05
-0.00137627
5.4969991e-05
-0.0013817255
1.610245e-05
-0.0013738687
-2.2823554e-05
-0.0013528102
-6.1432475e-05
-0.0013187867
-9.9355004e-05
-0.0012721576
-0.00013623219
-0.0012134003
-0.00017171869
-0.0011431042
-0.00020548574
-0.0010619642
-0.00023722387
-0.00097077327
-0.0002666453
-0.00087041437
-0.00029348595
-0.00076185149
-0.00031750726
-0.00064612058
-0.00033849769
-0.00052431987
-0.00035627386
-0.00039759991
-0.00037068163
-0.00026715343
-0.00038159683
-0.00013420489
-0.00038892585
3.6513787e-13
-0.00039260604
0.00013420489
-0.00039260604
0.00026715343
-0.00038892585
0.00039759991
-0.00038159683
0.00052431987
-0.00037068163
0.00064612058
-0.00035627386
0.00076185149
-0.00033849769
0.00087041437
-0.00031750726
0.00097077327
-0.00029348595
0.0010619642
-0.0002666453
0.0011431042
-0.00023722387
0.0012134003
-0.00020548574
0.0012721576
-0.00017171869
0.0013187867
-0.00013623219
0.0013528102
-9.9355004e-05
0.0013738687
-6.1432474e-05
0.0013817255
-2.2823554e-05
0.00137627
1.610245e-05
0.0013575203
5.4969991e-05
0.0013256248
9.3399899e-05
0.0012808609
0.00013101316
0.0012236341
0.00016743606
0.0011544751
0.00020230389
0.0010740353
0.00023526494
0.00098308066
0.00026598445
0.00088248513
0.00029414851
0.00077322178
0.00031946775
0.00065635348
0.00034168075
0.00053302218
0.0003605572
0.00040443724
0.00037590066
0.00027186305
0.00038755102
0.00013660583
0.00039538642
0.00039932477
-0.00014198605
0.00054131083
-0.00028256802
0.00053596839
-0.00042035665
0.00052533965
-0.00055399221
0.00050953622
-0.00068215877
0.00048872375
-0.00080359791
0.0004631199
-0.00091712178
0.00043299162
-0.0010216252
0.00039865194
-0.0011160968
0.00036045607
-0.0011996291
0.00031879719
-0.0012714269
0.0002741017
-0.0013308151
0.00022682425
-0.0013772444
0.00017744246
-0.0014102959
0.00012645145
-0.0014296843
7.4358393e-05
-0.0014352589
2.1677016e-05
-0.0014270042
-3.1078253e-05
-0.0014050387
-8.3398008e-05
-0.0013696119
-0.00013478178
-0.0013211006
-0.00018474344
-0.0012600038
-0.00023281549
-0.0011869364
-0.00027855314
-0.0011026224
-0.00032153793
-0.0010078868
-0.00036138091
-0.0009036473
-0.0003977254
-0.00079090522
-0.00043024935
-0.00067073564
-0.00045866727
-0.00054427763
-0.00048273187
-0.00041272394
-0.00050223532
-0.00027731052
-0.00051701026
-0.0001393058
-0.00052693056
3.6898718e-13
-0.00053191185
0.0001393058
-0.00053191185
0.00027731052
-0.00052693056
0.00041272394
-0.00051701026
0.00054427763
-0.00050223532
0.00067073564
-0.00048273187
0.00079090522
-0.00045866727
0.0009036473
-0.00043024935
0.0010078868
-0.0003977254
0.0011026224
-0.00036138091
0.0011869364
-0.00032153793
0.0012600038
-0.00027855314
0.0013211006
-0.00023281549
0.0013696119
-0.00018474344
0.0014050387
-0.00013478178
0.0014270042
-8.3398008e-05
0.0014352589
-3.1078253e-05
0.0014296843
2.1677016e-05
0.0014102959
7.4358393e-05
0.0013772444
0.00012645145
0.0013308151
0.00017744246
0.0012714269
0.00022682425
0.0011996291
0.0002741017
0.0011160968
0.00031879719
0.0010216252
0.00036045607
0.00091712178
0.00039865194
0.00080359791
0.00043299162
0.00068215877
0.0004631199
0.00055399221
0.00048872375
0.00042035665
0.00050953622
0.00028256802
0.00052533965
0.00014198605
0.00053596839
0.00054131083
-0.00014862487
0.00068993569
-0.00029577675
0.00068312027
-0.00043999834
0.00066956125
-0.0005798635
0.00064940139
-0.00071399233
0.00062285258
-0.00084106566
0.00059019323
-0.00095983878
0.00055176474
-0.0010691542
0.00050796736
-0.0011679534
0.00045925525
-0.0012552872
0.00040613098
-0.001330325
0.00034913949
-0.0013923624
0.00028886168
-0.0014408276
0.00022590764
-0.0014752857
0.00016090961
-0.0014954423
9.4514942e-05
-0.0015011442
2.7378924e-05
-0.0014923802
-3.9842247e-05
-0.0014692792
-0.00010649903
-0.0014321072
-0.00017195374
-0.0013812632
-0.00023558742
-0.0013172735
-0.00029680526
-0.0012407849
-0.00035504175
-0.0011525576
-0.00040976524
-0.0010534565
-0.00046048195
-0.00094444252
-0.00050673941
-0.00082656252
-0.00054812934
-0.00070093971
-0.00058429008
-0.00056876306
-0.00061490852
-0.00043127671
-0.00063972166
-0.00028976916
-0.00065851782
-0.00014556221
-0.0006711375
4.1685756e-13
-0.00067747406
0.00014556221
-0.00067747406
0.00028976916
-0.0006711375
0.00043127671
-0.00065851782
0.00056876306
-0.00063972166
0.00070093971
-0.00061490852
0.00082656252
-0.00058429008
0.00094444252
-0.00054812934
0.0010534565
-0.00050673941
0.0011525576
-0.00046048195
0.0012407849
-0.00040976524
0.0013172735
-0.00035504175
0.0013812632
-0.00029680526
0.0014321072
-0.00023558742
0.0014692792
-0.00017195374
0.0014923802
-0.00010649903
0.0015011442
-3.9842247e-05
0.0014954423
2.7378924e-05
0.0014752857
9.4514942e-05
0.0014408276
0.00016090961
0.0013923624
0.00022590764
0.001330325
0.00028886168
0.0012552872
0.00034913949
0.0011679534
0.00040613098
0.0010691542
0.00045925525
0.00095983878
0.00050796736
0.00084106566
0.00055176474
0.00071399233
0.00059019323
0.0005798635
0.00062285258
0.00043999834
0.00064940139
0.00029577675
0.00066956125
0.00014862486
0.00068312027
0.00068993569
-0.00015646683
0.00084640252
-0.00031137876
0.0008380322
-0.00046319759
0.00082138007
-0.00061041826
0.00079662205
-0.00075158489
0.00076401922
-0.00088530623
0.00072391456
-0.0010102701
0.00067672865
-0.0011252572
0.00062295443
-0.0012291531
0.00056315115
-0.0013209596
0.00049793751
-0.0013998044
0.00042798426
-0.0014649489
0.00035400617
-0.0015157949
0.00027675366
-0.0015518895
0.00019700418
-0.0015729279
0.00011555337
-0.0015787552
3.3206176e-05
-0.0015693658
-4.9231575e-05
-0.0015449021
-0.00013096273
-0.0015056506
-0.00021120526
-0.0014520373
-0.00028920075
-0.0013846215
-0.00036422103
-0.0013040888
-0.00043557447
-0.0012112425
-0.00050261147
-0.0011069952
-0.00056472927
-0.00099235857
-0.00062137607
-0.00086843348
-0.00067205443
-0.00073639949
-0.00071632407
-0.0005975039
-0.00075380411
-0.0004530507
-0.00078417486
-0.00030438939
-0.00080717913
-0.00015290366
-0.00082262324
4.7164977e-13
-0.00083037771
0.00015290366
-0.00083037771
0.00030438939
-0.00082262324
0.0004530507
-0.00080717913
0.0005975039
-0.00078417486
0.00073639949
-0.00075380411
0.00086843348
-0.00071632407
0.00099235857
-0.00067205443
0.0011069952
-0.00062137607
0.0012112425
-0.00056472927
0.0013040888
-0.00050261147
0.0013846215
-0.00043557447
0.0014520373
-0.00036422103
0.0015056506
-0.00028920075
0.0015449021
-0.00021120526
0.0015693658
-0.00013096273
0.0015787552
-4.9231575e-05
0.0015729279
3.3206176e-05
0.0015518895
0.00011555337
0.0015157949
0.00019700418
0.0014649489
0.00027675366
0.0013998044
0.00035400617
0.0013209596
0.00042798426
0.0012291531
0.00049793751
0.0011252572
0.00056315115
0.0010102701
0.00062295443
0.00088530623
0.00067672865
0.00075158489
0.00072391456
0.00061041825
0.00076401922
0.00046319759
0.00079662205
0.00031137876
0.00082138007
0.00015646683
0.0008380322
0.00084640252
-0.00016548218
0.0010118847
-0.00032931465
0.0010018647
-0.00048986555
0.00098193097
-0.00064553853
0.00095229503
-0.00079478989
0.00091327058
-0.00093614502
0.0008652697
-0.001068214
0.00080879763
-0.001189706
0.00074444643
-0.0012994425
0.00067288762
-0.0013963689
0.00059486396
-0.0014795651
0.00051118042
-0.0015482535
0.00042269456
-0.0016018062
0.00033030642
-0.0016397501
0.00023494807
-0.0016617697
0.00013757293
-0.0016677086
3.9145097e-05
-0.0016575694
-5.9370815e-05
-0.0016315108
-0.00015702133
-0.0015898442
-0.0002528718
-0.0015330282
-0.00034601677
-0.0014616613
-0.00043558789
-0.0013764745
-0.00052076132
-0.0012783217
-0.00060076424
-0.0011681705
-0.00067488048
-0.0010470914
-0.00074245516
-0.00091624722
-0.00080289864
-0.00077688172
-0.00085568957
-0.00063030845
-0.00090037739
-0.00047789908
-0.00093658423
-0.00032107186
-0.00096400634
-0.00016128
-0.00098241509
4.5287274e-13
-0.00099165772
0.00016128
-0.00099165772
0.00032107186
-0.00098241509
0.00047789908
-0.00096400634
0.00063030845
-0.00093658423
0.00077688172
-0.00090037739
0.00091624722
-0.00085568957
0.0010470914
-0.00080289864
0.0011681705
-0.00074245516
0.0012783217
-0.00067488047
0.0013764745
-0.00060076424
0.0014616613
-0.00052076132
0.0015330282
-0.00043558789
0.0015898442
-0.00034601677
0.0016315108
-0.0002528718
0.0016575694
-0.00015702133
0.0016677086
-5.9370814e-05
0.0016617697
3.9145097e-05
0.0016397501
0.00013757293
0.0016018062
0.00023494807
0.0015482535
0.00033030642
0.0014795651
0.00042269456
0.0013963689
0.00051118042
0.0012994425
0.00059486396
0.001189706
0.00067288762
0.001068214
0.00074444643
0.00093614502
0.00080879763
0.00079478988
0.0008652697
0.00064553853
0.00091327058
0.00048986555
0.00095229503
0.00032931465
0.00098193097
0.00016548218
0.0010018647
0.0010118847
-0.00017563511
0.0011875198
-0.00034951288
0.0011757424
-0.0005198952
0.0011523133
-0.00068508214
0.001117482
-0.00084343043
0.0010716189
-0.00099337108
0.0010152103
-0.0011334261
0.00094885265
-0.001262224
0.00087324429
-0.0013785137
0.00078917734
-0.0014811773
0.00069752762
-0.001569241
0.00059924407
-0.0016418837
0.00049533724
-0.0016984447
0.00038686742
-0.0017384287
0.00027493216
-0.0017615095
0.00016065365
-0.0017675303
4.5165967e-05
-0.0017565043
-7.0396864e-05
-0.0017286106
-0.00018491506
-0.0016841904
-0.00029729195
-0.0016237407
-0.00040646652
-0.0015479059
-0.0005114226
-0.0014574697
-0.00061119754
-0.0013533442
-0.00070488972
-0.0012365598
-0.0007916649
-0.0011082536
-0.00087076143
-0.00096965771
-0.00094149448
-0.00082208789
-0.0010032594
-0.00066693103
-0.0010555342
-0.00050563348
-0.0010978818
-0.00033968899
-0.0011299508
-0.00017062686
-0.0011514772
4.5259125e-13
-0.0011622846
0.00017062686
-0.0011622846
0.00033968899
-0.0011514772
0.00050563348
-0.0011299508
0.00066693103
-0.0010978818
0.00082208789
-0.0010555342
0.00096965771
-0.0010032594
0.0011082536
-0.00094149448
0.0012365598
-0.00087076143
0.0013533442
-0.0007916649
0.0014574697
-0.00070488972
0.0015479059
-0.00061119754
0.0016237407
-0.0005114226
0.0016841904
-0.00040646652
0.0017286106
-0.00029729195
0.0017565043
-0.00018491506
0.0017675303
-7.0396863e-05
0.0017615095
4.5165967e-05
0.0017384287
0.00016065365
0.0016984447
0.00027493216
0.0016418837
0.00038686742
0.001569241
0.00049533724
0.0014811773
0.00059924407
0.0013785137
0.00069752762
0.001262224
0.00078917734
0.0011334261
0.00087324429
0.00099337107
0.00094885265
0.00084343043
0.0010152103
0.00068508214
0.0010716189
0.0005198952
0.001117482
0.00034951288
0.0011523133
0.00017563511
0.0011757424
0.0011875198
-0.00018684536
0.0013743652
-0.00037181339
0.0013607105
-0.00055304754
0.0013335474
-0.00072873252
0.001293167
-0.00089711418
0.0012400005
-0.0010565186
0.0011746147
-0.0012053699
0.0010977039
-0.001342207
0.0010100815
-0.0014656988
0.00091266916
-0.0015746574
0.00080648618
-0.0016680496
0.00069263631
-0.0017450071
0.00057229468
-0.0018048335
0.00044669382
-0.0018470104
0.00031710909
-0.0018712007
0.00018484394
-0.0018772495
5.1214779e-05
-0.0018651835
-8.2462854e-05
-0.001835207
-0.00021489155
-0.001787697
-0.00034480204
-0.0017231952
-0.00047096827
-0.0016423998
-0.00059221799
-0.0015461546
-0.00070744276
-0.0014354379
-0.00081560647
-0.0013113505
-0.00091575226
-0.0011751037
-0.0010070083
-0.0010280062
-0.001088592
-0.00087145191
-0.0011598137
-0.00070690725
-0.0012200789
-0.00053589872
-0.0012688903
-0.00036000067
-0.0013058489
-0.00018082316
-0.0013306547
5.3640007e-13
-0.0013431077
0.00018082316
-0.0013431077
0.00036000067
-0.0013306547
0.00053589872
-0.0013058489
0.00070690725
-0.0012688903
0.00087145191
-0.0012200789
0.0010280062
-0.0011598137
0.0011751037
-0.001088592
0.0013113505
-0.0010070083
0.0014354379
-0.00091575226
0.0015461546
-0.00081560646
0.0016423998
-0.00070744276
0.0017231952
-0.00059221798
0.001787697
-0.00047096827
0.001835207
-0.00034480204
0.0018651835
-0.00021489155
0.0018772495
-8.2462854e-05
0.0018712007
5.121478e-05
0.0018470104
0.00018484394
0.0018048335
0.00031710909
0.0017450071
0.00044669382
0.0016680496
0.00057229468
0.0015746574
0.00069263631
0.0014656988
0.00080648618
0.001342207
0.00091266916
0.0012053699
0.0010100815
0.0010565186
0.0010977039
0.00089711418
0.0011746147
0.00072873252
0.0012400005
0.00055304754
0.001293167
0.00037181339
0.0013335474
0.00018684535
0.0013607105
0.0013743652
-0.00019893949
0.0015733047
-0.00039587051
0.0015576415
-0.0005888071
0.001526484
-0.00077580795
0.0014801678
-0.000954998
0.0014191906
-0.0011245889
0.0013442056
-0.0012828985
0.0012560135
-0.0014283685
0.0011555514
-0.0015595808
0.0010438815
-0.0016752719
0.00092217727
-0.0017743452
0.00079170964
-0.0018558816
0.00065383109
-0.0019191475
0.00050995975
-0.0019636011
0.00036156261
-0.0019888955
0.00021013834
-0.0019948804
5.7199713e-05
-0.0019816007
-9.5742593e-05
-0.0019492914
-0.00024720082
-0.0018983721
-0.00039572135
-0.0018294376
-0.0005399028
-0.0017432474
-0.0006784081
-0.0016407142
-0.00080997597
-0.0015228904
-0.00093343031
-0.0013909549
-0.0010476878
-0.0012461996
-0.0011517635
-0.0010900156
-0.001244776
-0.00092387988
-0.0013259494
-0.00074934202
-0.0013946168
-0.00056801161
-0.0014502207
-0.00038154567
-0.0014923148
-0.00019163655
-0.0015205639
6.2455685e-13
-0.0015347443
0.00019163655
-0.0015347443
0.00038154567
-0.0015205639
0.00056801161
-0.0014923148
0.00074934203
-0.0014502207
0.00092387988
-0.0013946168
0.0010900156
-0.0013259494
0.0012461996
-0.001244776
0.0013909549
-0.0011517635
0.0015228904
-0.0010476878
0.0016407142
-0.00093343031
0.0017432474
-0.00080997597
0.0018294376
-0.0006784081
0.0018983721
-0.00053990279
0.0019492914
-0.00039572135
0.0019816007
-0.00024720081
0.0019948804
-9.5742592e-05
0.0019888955
5.7199714e-05
0.0019636011
0.00021013835
0.0019191475
0.00036156261
0.0018558816
0.00050995975
0.0017743452
0.00065383109
0.0016752719
0.00079170964
0.0015595808
0.00092217727
0.0014283685
0.0010438815
0.0012828985
0.0011555514
0.0011245889
0.0012560135
0.000954998
0.0013442056
0.00077580795
0.0014191906
0.00058880709
0.0014801678
0.00039587051
0.001526484
0.00019893949
0.0015576415
0.0015733047
-0.00021158708
0.0017848917
-0.00042102587
0.0017670803
-0.00062619251
0.0017316507
-0.0008250116
0.0016789869
-0.0010154795
0.0016096585
-0.0011956866
0.0015244127
-0.0013638381
0.001424165
-0.001518273
0.0013099864
-0.001657482
0.0011830905
-0.0017801224
0.0010448176
-0.0018850314
0.00089661874
-0.001971238
0.00074003763
-0.0020379709
0.00057669266
-0.0020846659
0.0004082576
-0.0021109694
0.0002364419
-0.00211674
6.2970258e-05
-0.0021020465
-0.00011043611
-0.0020671622
-0.00028208503
-0.0020125579
-0.00045032564
-0.0019388904
-0.00061357032
-0.0018469902
-0.00077030834
-0.0017378473
-0.00091911887
-0.0016125963
-0.0010586813
-0.0014725008
-0.0011877832
-0.0013189386
-0.0013053258
-0.0011533863
-0.0014103282
-0.00097740546
-0.0015019302
-0.00079262885
-0.0015793934
-0.00060074741
-0.0016421022
-0.00040349793
-0.0016895643
-0.00020265109
-0.0017214107
6.581115e-13
-0.0017373954
0.00020265109
-0.0017373954
0.00040349793
-0.0017214107
0.00060074741
-0.0016895643
0.00079262885
-0.0016421022
0.00097740546
-0.0015793934
0.0011533863
-0.0015019302
0.0013189386
-0.0014103282
0.0014725008
-0.0013053258
0.0016125963
-0.0011877832
0.0017378473
-0.0010586813
0.0018469902
-0.00091911887
0.0019388904
-0.00077030833
0.0020125579
-0.00061357032
0.0020671622
-0.00045032564
0.0021020465
-0.00028208503
0.00211674
-0.00011043611
0.0021109694
6.2970259e-05
0.0020846659
0.0002364419
0.0020379709
0.0004082576
0.001971238
0.00057669266
0.0018850314
0.00074003763
0.0017801224
0.00089661874
0.001657482
0.0010448176
0.001518273
0.0011830905
0.0013638381
0.0013099864
0.0011956866
0.001424165
0.0010154795
0.0015244127
0.0008250116
0.0016096585
0.00062619251
0.0016789869
0.00042102587
0.0017316507
0.00021158708
0.0017670803
0.0017848917
-0.00022421639
0.0020091081
-0.00044614051
0.0019890044
-0.0006635066
0.0019490168
-0.00087410148
0.0018895818
-0.0010757898
0.0018113468
-0.001266538
0.0017151609
-0.0014444366
0.0016020636
-0.0016077209
0.0014732707
-0.0017547894
0.0013301589
-0.0018842201
0.0011742483
-0.0019947852
0.0010071838
-0.0020854626
0.00083071503
-0.0021554461
0.00064667621
-0.0022041528
0.00045696422
-0.0022312271
0.00026351628
-0.0022365431
6.8286237e-05
-0.0022202021
-0.00012677708
-0.0021825255
-0.00031976163
-0.0021240458
-0.00050880534
-0.0020454929
-0.0006921233
-0.0019477786
-0.00086802264
-0.0018319798
-0.0010349176
-0.0016993206
-0.0011913406
-0.0015511542
-0.0013359496
-0.0013889461
-0.0014675339
-0.0012142577
-0.0015850166
-0.0010287313
-0.0016874566
-0.00083407618
-0.0017740485
-0.00063205561
-0.0018441227
-0.00042447508
-0.0018971448
-0.00021317096
-0.0019327148
7.2143729e-13
-0.0019505663
0.00021317096
-0.0019505663
0.00042447508
-0.0019327148
0.00063205562
-0.0018971448
0.00083407619
-0.0018441227
0.0010287313
-0.0017740485
0.0012142577
-0.0016874566
0.0013889461
-0.0015850166
0.0015511542
-0.0014675339
0.0016993206
-0.0013359496
0.0018319798
-0.0011913406
0.0019477786
-0.0010349176
0.0020454929
-0.00086802263
0.0021240458
-0.0006921233
0.0021825255
-0.00050880534
0.0022202021
-0.00031976163
0.0022365431
-0.00012677708
0.0022312271
6.8286238e-05
0.0022041528
0.00026351628
0.0021554461
0.00045696422
0.0020854626
0.00064667621
0.0019947852
0.00083071503
0.0018842201
0.0010071838
0.0017547894
0.0011742483
0.0016077209
0.0013301589
0.0014444366
0.0014732707
0.001266538
0.0016020636
0.0010757898
0.0017151609
0.00087410148
0.0018113468
0.0006635066
0.0018895818
0.00044614051
0.0019490168
0.00022421639
0.0019890044
0.0020091081
-0.00023590467
0.0022450128
-0.00046937628
0.002222476
-0.00069801054
0.002177651
-0.00091946019
0.0021110314
-0.0011314622
0.0020233489
-0.0013318637
0.0019155624
-0.0015186455
0.0017888454
-0.0016899444
0.0016445695
-0.0018440722
0.0014842868
-0.0019795339
0.00130971
-0.002095042
0.0011226918
-0.0021895299
0.000925203
-0.0022621631
0.00071930938
-0.0023123469
0.00050714806
-0.0023397328
0.00029090216
-0.00234422
7.2773411e-05
-0.0023259542
-0.00014504284
-0.0022853177
-0.00036039813
-0.002222919
-0.00057120412
-0.0021395742
-0.00077546808
-0.0020362889
-0.00097130791
-0.0019142364
-0.0011569702
-0.0017747359
-0.001330841
-0.0016192322
-0.0014914533
-0.0014492755
-0.0016374905
-0.0012665042
-0.0017677879
-0.0010726289
-0.001881332
-0.00086941844
-0.001977259
-0.000658688
-0.0020548532
-0.00044228803
-0.0021135448
-0.00022209449
-0.0021529083
8.1997658e-13
-0.0021726608
0.00022209449
-0.0021726608
0.00044228803
-0.0021529083
0.000658688
-0.0021135448
0.00086941844
-0.0020548532
0.0010726289
-0.001977259
0.0012665042
-0.001881332
0.0014492755
-0.0017677879
0.0016192322
-0.0016374905
0.0017747359
-0.0014914533
0.0019142364
-0.001330841
0.0020362889
-0.0011569702
0.0021395742
-0.00097130791
0.002222919
-0.00077546808
0.0022853177
-0.00057120412
0.0023259542
-0.00036039813
0.00234422
-0.00014504284
0.0023397328
7.2773412e-05
0.0023123469
0.00029090216
0.0022621631
0.00050714806
0.0021895299
0.00071930938
0.002095042
0.000925203
0.0019795339
0.0011226918
0.0018440722
0.00130971
0.0016899444
0.0014842868
0.0015186455
0.0016445695
0.0013318637
0.0017888454
0.0011314622
0.0019155624
0.00091946019
0.0020233489
0.00069801054
0.0021110314
0.00046937627
0.002177651
0.00023590467
0.002222476
0.0022450128
-0.00024523911
0.0024902519
-0.00048791895
0.0024651559
-0.00072551146
0.0024152435
-0.00095555025
0.0023410702
-0.00117566
0.0022434586
-0.0013835838
0.0021234863
-0.001577209
0.0019824706
-0.0017545891
0.0018219496
-0.0019139652
0.0016436629
-0.0020537833
0.0014495282
-0.0021727109
0.0012416194
-0.0022696501
0.0010221422
-0.0023437508
0.00079341003
-0.0023944198
0.0005578171
-0.0024213288
0.00031781119
-0.0024244175
7.5862075e-05
-0.0024038927
-0.00016556764
-0.0023602148
-0.00040407599
-0.002294086
-0.00063733294
-0.002206427
-0.00086312709
-0.0020983508
-0.0010793841
-0.0019711363
-0.0012841846
-0.0018262018
-0.0014757755
-0.0016650798
-0.0016525754
-0.0014893946
-0.0018131757
-0.0013008431
-0.0019563394
-0.0011011784
-0.0020809967
-0.00089219695
-0.0021862404
-0.00067572782
-0.0022713223
-0.00045362393
-0.0023356487
-0.00022775468
-0.0023787776
8.164209e-13
-0.0024004155
0.00022775468
-0.0024004155
0.00045362393
-0.0023787776
0.00067572782
-0.0023356487
0.00089219695
-0.0022713223
0.0011011784
-0.0021862404
0.0013008431
-0.0020809967
0.0014893946
-0.0019563394
0.0016650798
-0.0018131757
0.0018262018
-0.0016525754
0.0019711363
-0.0014757755
0.0020983508
-0.0012841846
0.002206427
-0.0010793841
0.002294086
-0.00086312709
0.0023602148
-0.00063733294
0.0024038927
-0.00040407598
0.0024244175
-0.00016556764
0.0024213288
7.5862077e-05
0.0023944198
0.00031781119
0.0023437508
0.0005578171
0.0022696501
0.00079341003
0.0021727109
0.0010221422
0.0020537833
0.0012416194
0.0019139652
0.0014495282
0.0017545891
0.0016436629
0.001577209
0.0018219496
0.0013835838
0.0019824706
0.00117566
0.0021234863
0.00095555025
0.0022434586
0.00072551146
0.0023410702
0.00048791895
0.0024152435
0.0002452391
0.0024651559
0.0024902519
-0.00025014879
0.0027404007
-0.00049764341
0.0027126505
-0.00073986343
0.0026574635
-0.00097425495
0.0025754618
-0.0011983621
0.0024675658
-0.0014098563
0.0023349804
-0.0016065626
0.0021791768
-0.0017864826
0.0020018697
-0.0019478163
0.0018049965
-0.0020889793
0.0015906912
-0.0022086199
0.0013612599
-0.0023056328
0.0011191552
-0.0023791744
0.00086695162
-0.0024286738
0.00060731656
-0.0024538444
0.00034298172
-0.0024546873
7.6705041e-05
-0.0024314941
-0.00018876091
-0.0023848285
-0.00045074157
-0.0023155104
-0.00070665106
-0.0022245854
-0.00095405206
-0.0021132912
-0.0011906783
-0.0019830218
-0.001414454
-0.0018352938
-0.0016235035
-0.0016717162
-0.001816153
-0.0014939648
-0.001990927
-0.0013037606
-0.0021465437
-0.0011028542
-0.0022819032
-0.00089301525
-0.0023960793
-0.00067602355
-0.002488314
-0.00045366503
-0.0025580072
-0.0002277276
-0.002604715
7.9195736e-13
-0.0026281431
0.0002277276
-0.0026281431
0.00045366503
-0.002604715
0.00067602355
-0.0025580072
0.00089301525
-0.002488314
0.0011028542
-0.0023960793
0.0013037606
-0.0022819032
0.0014939648
-0.0021465437
0.0016717162
-0.001990927
0.0018352938
-0.001816153
0.0019830218
-0.0016235035
0.0021132912
-0.001414454
0.0022245854
-0.0011906783
0.0023155104
-0.00095405206
0.0023848285
-0.00070665106
0.0024314941
-0.00045074157
0.0024546873
-0.00018876091
0.0024538444
7.6705043e-05
0.0024286738
0.00034298172
0.0023791744
0.00060731657
0.0023056328
0.00086695162
0.0022086199
0.0011191552
0.0020889793
0.0013612599
0.0019478163
0.0015906912
0.0017864826
0.0018049965
0.0016065626
0.0020018697
0.0014098563
0.0021791768
0.0011983621
0.0023349804
0.00097425495
0.0024675658
0.00073986343
0.0025754618
0.00049764341
0.0026574635
0.00025014878
0.0027126505
0.0027404007
-0.00024771385
0.0029881145
-0.00049273348
0.0029576701
-0.00073240109
0.0028971312
-0.00096413035
0.002807191
-0.0011854401
0.0026888756
-0.001393985
0.0025435253
-0.0015875829
0.0023727748
-0.001764236
0.0021785227
-0.001922154
0.0019629146
-0.0020597697
0.0017283069
-0.0021757552
0.0014772455
-0.0022690361
0.001212436
-0.0023388099
0.00093672548
-0.0023845626
0.00065306924
-0.0024060795
0.00036449864
-0.0024034521
7.4077569e-05
-0.0023770879
-0.00021512509
-0.0023276864
-0.00050014306
-0.0022562206
-0.00077811684
-0.0021638893
-0.0010463834
-0.0020520745
-0.0013024931
-0.0019222931
-0.0015442355
-0.0017761532
-0.0017696433
-0.0016153173
-0.001976989
-0.0014414739
-0.0021647703
-0.0012563102
-0.0023317074
-0.001061502
-0.0024767113
-0.00085870688
-0.0025988744
-0.00064955638
-0.0026974645
-0.00043566304
-0.0027719006
-0.00021861845
-0.0028217596
8.6427535e-13
-0.0028467616
0.00021861845
-0.0028467616
0.00043566304
-0.0028217596
0.00064955638
-0.0027719006
0.00085870688
-0.0026974645
0.001061502
-0.0025988744
0.0012563102
-0.0024767113
0.0014414739
-0.0023317074
0.0016153173
-0.0021647703
0.0017761532
-0.001976989
0.0019222931
-0.0017696433
0.0020520745
-0.0015442355
0.0021638893
-0.0013024931
0.0022562206
-0.0010463834
0.0023276864
-0.00077811684
0.0023770879
-0.00050014306
0.0024034521
-0.00021512509
0.0024060795
7.4077571e-05
0.0023845626
0.00036449864
0.0023388099
0.00065306925
0.0022690361
0.00093672549
0.0021757552
0.001212436
0.0020597697
0.0014772455
0.001922154
0.0017283069
0.001764236
0.0019629146
0.0015875829
0.0021785227
0.001393985
0.0023727748
0.0011854401
0.0025435253
0.00096413035
0.0026888756
0.00073240109
0.002807191
0.00049273348
0.0028971312
0.00024771385
0.0029576701
0.0029881145
-0.00023396897
0.0032220835
-0.00046529049
0.0031889916
-0.00069135646
0.0031231971
-0.00090963507
0.0030254696
-0.0011177071
0.0028969476
-0.0013132969
0.0027391151
-0.0014943025
0.0025537803
-0.0016588079
0.0023430282
-0.0018051137
0.0021092203
-0.0019317433
0.0018549365
-0.0020374615
0.0015829636
-0.0021212833
0.0012962578
-0.0021824987
0.00099794087
-0.0022206925
0.00069126306
-0.0022357642
0.00037957029
-0.0022279369
6.6250306e-05
-0.0021977828
-0.00024527922
-0.0021461809
-0.00055174496
-0.0020743023
-0.00084999545
-0.0019835354
-0.0011371503
-0.0018754315
-0.001410597
-0.0017516363
-0.0016680307
-0.0016138332
-0.0019074464
-0.0014636974
-0.0021271248
-0.0013028707
-0.002325597
-0.0011329146
-0.0025016636
-0.00095532061
-0.0026543054
-0.00077150821
-0.0027826868
-0.00058281199
-0.0028861607
-0.00039051664