/*--------------------------------*- C++ -*----------------------------------*\
| =========                 |                                                 |
| \\      /  F ield         | OpenFOAM: The Open Source CFD Toolbox           |
|  \\    /   O peration     | Version:  2106                                  |
|   \\  /    A nd           | Website:  www.openfoam.com                      |
|    \\/     M anipulation  |                                                 |
\*---------------------------------------------------------------------------*/
FoamFile
{
    version     2.0;
    format      ascii;
    arch        "LSB;label=32;scalar=64";
    class       surfaceScalarField;
    location    "0.006";
    object      phi_0;
}
// * * * * * * * * * * * * * * * * * * * * * * * * * * * * * * * * * * * * * //

dimensions      [0 3 -1 0 0 0 0];

oriented        oriented;

internalField   nonuniform List<scalar> 
8064
(
-0.00013047305
0.00013047305
-0.00025966051
0.00012918746
-0.00038629024
0.00012662973
-0.00050911681
0.00012282657
-0.00062693446
0.00011781765
-0.00073858954
0.00011165509
-0.00084299238
0.00010440283
-0.00093912825
9.6135879e-05
-0.0010260676
8.6939365e-05
-0.0011029752
7.6907552e-05
-0.0011691179
6.6142716e-05
-0.0012238718
5.4753959e-05
-0.0012667278
4.2855955e-05
-0.0012972954
3.0567558e-05
-0.0013153055
1.8010102e-05
-0.0013206145
5.3090493e-06
-0.0013132015
-7.4130067e-06
-0.0012931682
-2.0033353e-05
-0.0012607369
-3.2431267e-05
-0.0012162477
-4.4489222e-05
-0.0011601535
-5.6094163e-05
-0.0010930151
-6.7138406e-05
-0.0010154946
-7.752051e-05
-0.00092834851
-8.714607e-05
-0.0008324201
-9.5928409e-05
-0.00072863094
-0.00010378917
-0.00061797213
-0.00011065881
-0.00050149509
-0.00011647704
-0.00038030196
-0.00012119313
-0.00025553575
-0.00012476622
-0.00012837027
-0.00012716547
3.0683243e-13
-0.00012837027
0.00012837027
-0.00012837027
0.00025553575
-0.00012716547
0.00038030196
-0.00012476622
0.00050149509
-0.00012119313
0.00061797213
-0.00011647704
0.00072863094
-0.00011065881
0.0008324201
-0.00010378917
0.00092834851
-9.5928409e-05
0.0010154946
-8.714607e-05
0.0010930151
-7.7520509e-05
0.0011601535
-6.7138406e-05
0.0012162477
-5.6094163e-05
0.0012607369
-4.4489222e-05
0.0012931682
-3.2431267e-05
0.0013132015
-2.0033353e-05
0.0013206145
-7.4130066e-06
0.0013153055
5.3090495e-06
0.0012972954
1.8010102e-05
0.0012667278
3.0567558e-05
0.0012238718
4.2855955e-05
0.0011691179
5.4753959e-05
0.0011029752
6.6142716e-05
0.0010260676
7.6907552e-05
0.00093912825
8.6939365e-05
0.00084299238
9.6135879e-05
0.00073858954
0.00010440283
0.00062693446
0.00011165509
0.00050911681
0.00011781765
0.00038629024
0.00012282657
0.00025966051
0.00012662973
0.00013047305
0.00012918746
0.00013047305
-0.00013294394
0.00026341698
-0.00026457706
0.00026082058
-0.00039360228
0.00025565495
-0.00051874982
0.00024797411
-0.00063879042
0.00023785825
-0.00075254808
0.00022541274
-0.00085891211
0.00021076687
-0.00095684845
0.00019407222
-0.00104541
0.00017550088
-0.0011237458
0.00015524338
-0.0011911095
0.00013350642
-0.001246866
0.00011051045
-0.0012904972
8.6487147e-05
-0.0013216064
6.167674e-05
-0.0013399216
3.6325368e-05
-0.0013452962
1.0683636e-05
-0.0013377104
-1.4998855e-05
-0.0013172691
-4.0474575e-05
-0.0012842006
-6.5499799e-05
-0.0012388523
-8.9837512e-05
-0.0011816869
-0.00011325962
-0.0011132764
-0.0001355489
-0.0010342961
-0.0001565008
-0.00094551717
-0.00017592498
-0.00084779884
-0.00019364674
-0.00074207981
-0.00020950819
-0.00062936938
-0.00022336924
-0.00051073798
-0.00023510843
-0.00038730747
-0.00024462364
-0.00026024115
-0.00025183254
-0.00013073352
-0.0002566731
4.0890076e-13
-0.00025910379
0.00013073352
-0.00025910379
0.00026024115
-0.0002566731
0.00038730747
-0.00025183254
0.00051073798
-0.00024462364
0.00062936938
-0.00023510843
0.00074207981
-0.00022336924
0.00084779884
-0.00020950819
0.00094551718
-0.00019364674
0.0010342961
-0.00017592498
0.0011132764
-0.0001565008
0.0011816869
-0.0001355489
0.0012388523
-0.00011325962
0.0012842006
-8.9837512e-05
0.0013172691
-6.5499799e-05
0.0013377104
-4.0474575e-05
0.0013452962
-1.4998854e-05
0.0013399216
1.0683636e-05
0.0013216064
3.6325369e-05
0.0012904972
6.167674e-05
0.001246866
8.6487147e-05
0.0011911095
0.00011051045
0.0011237458
0.00013350642
0.00104541
0.00015524338
0.00095684845
0.00017550088
0.00085891211
0.00019407222
0.00075254807
0.00021076687
0.00063879042
0.00022541274
0.00051874982
0.00023785825
0.00039360228
0.00024797411
0.00026457706
0.00025565495
0.00013294394
0.00026082058
0.00026341698
-0.00013696475
0.00040038174
-0.00027257748
0.0003964333
-0.00040550036
0.00038857783
-0.00053442384
0.00037689759
-0.00065808032
0.00036151473
-0.0007752573
0.00034258973
-0.0008848099
0.00032031947
-0.00098567248
0.00029493479
-0.0010768693
0.00026669774
-0.0011575243
0.00023589836
-0.0012268692
0.00020285133
-0.001284251
0.00016789219
-0.0013291374
0.00013137354
-0.0013611216
9.3660978e-05
-0.0013799254
5.5129171e-05
-0.0013853999
1.6158103e-05
-0.0013775266
-2.2872066e-05
-0.0013564164
-6.1584787e-05
-0.0013223065
-9.9609754e-05
-0.001275557
-0.00013658702
-0.0012166463
-0.00017217027
-0.0011461654
-0.00020602979
-0.001064811
-0.00023785522
-0.0009733781
-0.00026735789
-0.00087275191
-0.00029427293
-0.00076389905
-0.00031836106
-0.00064785824
-0.00033941005
-0.00052573073
-0.00035723594
-0.00039867026
-0.00037168411
-0.00026787284
-0.00038262996
-0.00013456635
-0.00038997959
3.7141171e-13
-0.00039367014
0.00013456635
-0.00039367014
0.00026787284
-0.00038997959
0.00039867026
-0.00038262996
0.00052573073
-0.00037168411
0.00064785824
-0.00035723594
0.00076389905
-0.00033941005
0.00087275192
-0.00031836106
0.0009733781
-0.00029427293
0.001064811
-0.00026735789
0.0011461654
-0.00023785522
0.0012166463
-0.00020602979
0.001275557
-0.00017217027
0.0013223065
-0.00013658702
0.0013564164
-9.9609754e-05
0.0013775266
-6.1584787e-05
0.0013853999
-2.2872065e-05
0.0013799254
1.6158103e-05
0.0013611216
5.5129171e-05
0.0013291374
9.3660978e-05
0.001284251
0.00013137354
0.0012268692
0.00016789219
0.0011575243
0.00020285133
0.0010768693
0.00023589836
0.00098567247
0.00026669774
0.0008848099
0.00029493479
0.0007752573
0.00032031947
0.00065808032
0.00034258973
0.00053442384
0.00036151473
0.00040550036
0.00037689759
0.00027257748
0.00038857783
0.00013696475
0.0003964333
0.00040038174
-0.00014235574
0.00054273748
-0.00028330387
0.00053738143
-0.00042145165
0.00052672561
-0.00055543593
0.00051088187
-0.00068393743
0.00049001623
-0.00080569455
0.00046434685
-0.00091951639
0.0004341413
-0.0010242949
0.00039971332
-0.0011190161
0.00036141895
-0.00120277
0.00031965228
-0.0012747595
0.00027484074
-0.0013343073
0.00022744007
-0.0013808628
0.00017792904
-0.0014140059
0.00012680401
-0.0014334501
7.4573418e-05
-0.0014390443
2.1752299e-05
-0.0014307728
-3.1143578e-05
-0.0014087541
-8.3603458e-05
-0.0013732384
-0.00013512552
-0.0013246031
-0.00018522229
-0.0012633484
-0.00023342497
-0.0011900907
-0.00027928748
-0.0011055558
-0.00032239013
-0.0010105709
-0.00036234281
-0.00090605604
-0.00039878777
-0.00079301517
-0.00043140193
-0.00067252628
-0.00045989894
-0.00054573153
-0.00048403069
-0.00041382695
-0.00050358869
-0.00027805188
-0.00051840504
-0.0001396783
-0.00052835317
3.7400912e-13
-0.00053334844
0.0001396783
-0.00053334844
0.00027805188
-0.00052835317
0.00041382695
-0.00051840504
0.00054573154
-0.00050358869
0.00067252628
-0.00048403069
0.00079301517
-0.00045989894
0.00090605605
-0.00043140193
0.0010105709
-0.00039878777
0.0011055558
-0.00036234281
0.0011900907
-0.00032239013
0.0012633484
-0.00027928748
0.0013246031
-0.00023342497
0.0013732384
-0.00018522229
0.0014087541
-0.00013512552
0.0014307728
-8.3603457e-05
0.0014390443
-3.1143578e-05
0.0014334501
2.17523e-05
0.0014140059
7.4573418e-05
0.0013808628
0.00012680401
0.0013343073
0.00017792904
0.0012747595
0.00022744007
0.00120277
0.00027484074
0.0011190161
0.00031965228
0.0010242949
0.00036141895
0.00091951639
0.00039971332
0.00080569455
0.0004341413
0.00068393743
0.00046434685
0.00055543593
0.00049001623
0.00042145165
0.00051088187
0.00028330387
0.00052672561
0.00014235574
0.00053738143
0.00054273748
-0.00014900866
0.00069174613
-0.00029654067
0.00068491345
-0.00044113512
0.00067132007
-0.00058136232
0.00065110906
-0.0007158389
0.00062449281
-0.00084324238
0.00059175033
-0.00096232489
0.00055322381
-0.001071926
0.0005093144
-0.0011709843
0.00046047732
-0.0012585484
0.0004072163
-0.0013337852
0.00035007757
-0.0013959885
0.00028964341
-0.0014445849
0.00022652538
-0.0014791381
0.00016135728
-0.0014993528
9.4788084e-05
-0.0015050752
2.7474725e-05
-0.0014962939
-3.9924897e-05
-0.0014731378
-0.00010675953
-0.0014358736
-0.00017238976
-0.0013849009
-0.00023619495
-0.0013207473
-0.00029757861
-0.0012440612
-0.0003559736
-0.0011556046
-0.00041084673
-0.0010562446
-0.00046170274
-0.00094694465
-0.00050808776
-0.00082875433
-0.00054959225
-0.00070279986
-0.00058585341
-0.00057027342
-0.00061655713
-0.00043242257
-0.00064143954
-0.00029053933
-0.00066028828
-0.00014594919
-0.00067294331
4.2252462e-13
-0.00067929763
0.00014594919
-0.00067929763
0.00029053933
-0.00067294331
0.00043242257
-0.00066028828
0.00057027342
-0.00064143954
0.00070279986
-0.00061655713
0.00082875434
-0.00058585341
0.00094694465
-0.00054959225
0.0010562446
-0.00050808776
0.0011556046
-0.00046170274
0.0012440612
-0.00041084673
0.0013207473
-0.0003559736
0.0013849009
-0.00029757861
0.0014358736
-0.00023619495
0.0014731378
-0.00017238976
0.0014962939
-0.00010675952
0.0015050752
-3.9924897e-05
0.0014993528
2.7474726e-05
0.0014791381
9.4788084e-05
0.0014445849
0.00016135728
0.0013959885
0.00022652538
0.0013337852
0.00028964341
0.0012585484
0.00035007757
0.0011709843
0.0004072163
0.001071926
0.00046047732
0.00096232489
0.0005093144
0.00084324238
0.00055322381
0.0007158389
0.00059175033
0.00058136232
0.00062449281
0.00044113512
0.00065110906
0.00029654067
0.00067132007
0.00014900865
0.00068491345
0.00069174613
-0.0001568683
0.00084861443
-0.00031217788
0.00084022303
-0.00046438675
0.00082352894
-0.00061198615
0.00079870846
-0.00075351659
0.00076602326
-0.00088758334
0.00072581707
-0.001012871
0.00067851143
-0.0011281569
0.00062460038
-0.0012323241
0.00056464446
-0.0013243716
0.0004992638
-0.0014034247
0.00042913069
-0.0014687429
0.00035496161
-0.0015197263
0.00027750878
-0.0015559205
0.00019755153
-0.00157702
0.00011588749
-0.0015828688
3.3323622e-05
-0.0015734616
-4.9332177e-05
-0.0015489404
-0.00013128066
-0.0015095925
-0.00021173769
-0.0014558447
-0.00028994279
-0.0013882575
-0.00036516575
-0.0013075182
-0.00043671294
-0.0012144321
-0.00050393285
-0.0011099139
-0.00056622094
-0.00099497793
-0.0006230237
-0.00087072805
-0.00067384213
-0.0007383469
-0.00071823456
-0.00059908514
-0.00075581888
-0.00045425035
-0.00078627434
-0.00030519573
-0.0008093429
-0.0001533088
-0.00082483024
4.7899102e-13
-0.00083260644
0.00015330881
-0.00083260644
0.00030519573
-0.00082483023
0.00045425035
-0.0008093429
0.00059908514
-0.00078627434
0.0007383469
-0.00075581888
0.00087072805
-0.00071823456
0.00099497793
-0.00067384213
0.0011099139
-0.0006230237
0.0012144321
-0.00056622094
0.0013075182
-0.00050393285
0.0013882575
-0.00043671294
0.0014558447
-0.00036516575
0.0015095925
-0.00028994279
0.0015489404
-0.00021173769
0.0015734616
-0.00013128066
0.0015828689
-4.9332176e-05
0.00157702
3.3323622e-05
0.0015559205
0.00011588749
0.0015197263
0.00019755153
0.0014687429
0.00027750878
0.0014034247
0.00035496161
0.0013243716
0.00042913069
0.0012323241
0.0004992638
0.0011281569
0.00056464446
0.001012871
0.00062460038
0.00088758333
0.00067851143
0.00075351659
0.00072581707
0.00061198615
0.00076602326
0.00046438675
0.00079870846
0.00031217788
0.00082352894
0.0001568683
0.00084022303
0.00084861443
-0.00016590519
0.0010145196
-0.00033015665
0.0010044745
-0.00049111853
0.00098449083
-0.00064719059
0.00095478052
-0.00079682532
0.00091565798
-0.00093854446
0.00086753622
-0.0010709546
0.00081092158
-0.0011927617
0.00074640745
-0.0013027841
0.00067466687
-0.0013999646
0.0005964443
-0.0014833805
0.00051254657
-0.0015522521
0.00042383325
-0.0016059498
0.00033120651
-0.001643999
0.00023560068
-0.0016660831
0.00013797155
-0.001672045
3.9285583e-05
-0.0016618871
-5.949011e-05
-0.0016357682
-0.00015739957
-0.0015940002
-0.00025350564
-0.0015370426
-0.00034690041
-0.0014654953
-0.00043671309
-0.0013800907
-0.00052211745
-0.0012816852
-0.00060233842
-0.0011712484
-0.00067665767
-0.0010498539
-0.00074441829
-0.0009186672
-0.00080502879
-0.00077893563
-0.00085796613
-0.00063197621
-0.0009027783
-0.00047916439
-0.00093908616
-0.00032192235
-0.00096658494
-0.00016170734
-0.00098504525
4.6119253e-13
-0.00099431378
0.00016170734
-0.00099431378
0.00032192235
-0.00098504525
0.00047916439
-0.00096658494
0.00063197621
-0.00093908616
0.00077893563
-0.0009027783
0.0009186672
-0.00085796613
0.0010498539
-0.00080502879
0.0011712484
-0.00074441829
0.0012816852
-0.00067665767
0.0013800907
-0.00060233842
0.0014654953
-0.00052211745
0.0015370426
-0.00043671309
0.0015940002
-0.00034690041
0.0016357682
-0.00025350564
0.0016618871
-0.00015739957
0.001672045
-5.949011e-05
0.0016660831
3.9285583e-05
0.001643999
0.00013797155
0.0016059498
0.00023560068
0.0015522521
0.00033120651
0.0014833805
0.00042383325
0.0013999646
0.00051254657
0.0013027841
0.0005964443
0.0011927617
0.00067466687
0.0010709546
0.00074640745
0.00093854446
0.00081092158
0.00079682532
0.00086753622
0.00064719059
0.00091565798
0.00049111853
0.00095478052
0.00033015664
0.00098449083
0.00016590519
0.0010044745
0.0010145196
-0.00017608387
0.0011906035
-0.00035040614
0.0011787968
-0.00052122449
0.0011553092
-0.00068683484
0.0011203909
-0.0008455899
0.001074413
-0.0009959168
0.0010178631
-0.0011363339
0.00095133865
-0.0012654661
0.0008755397
-0.0013820594
0.00079126011
-0.0014849928
0.0006993777
-0.0015732897
0.00060084355
-0.0016461271
0.00049667059
-0.0017028422
0.00038792159
-0.0017429382
0.00027569674
-0.0017660877
0.00016112098
-0.0017721333
4.5331191e-05
-0.0017610877
-7.0535711e-05
-0.0017331302
-0.00018535703
-0.0016886027
-0.00029803317
-0.0016280029
-0.00040750022
-0.0015519768
-0.00051273915
-0.0014613097
-0.00061278455
-0.001356916
-0.00070673214
-0.0012398285
-0.00079374512
-0.0011111874
-0.00087305948
-0.00097222794
-0.00094398821
-0.0008242694
-0.0010059247
-0.00066870246
-0.0010583452
-0.00050697748
-0.0011008111
-0.00034059238
-0.00113297
-0.00017108078
-0.0011545568
4.6265321e-13
-0.0011653946
0.00017108078
-0.0011653946
0.00034059239
-0.0011545568
0.00050697748
-0.00113297
0.00066870246
-0.0011008111
0.0008242694
-0.0010583452
0.00097222794
-0.0010059247
0.0011111874
-0.00094398821
0.0012398285
-0.00087305948
0.001356916
-0.00079374512
0.0014613097
-0.00070673214
0.0015519768
-0.00061278455
0.0016280029
-0.00051273915
0.0016886027
-0.00040750022
0.0017331302
-0.00029803317
0.0017610877
-0.00018535703
0.0017721333
-7.053571e-05
0.0017660877
4.5331192e-05
0.0017429382
0.00016112098
0.0017028422
0.00027569674
0.0016461271
0.00038792159
0.0015732897
0.00049667059
0.0014849928
0.00060084355
0.0013820594
0.0006993777
0.0012654661
0.00079126011
0.0011363339
0.0008755397
0.0009959168
0.00095133865
0.0008455899
0.0010178631
0.00068683484
0.001074413
0.00052122448
0.0011203909
0.00035040614
0.0011553092
0.00017608387
0.0011787968
0.0011906035
-0.00018732451
0.001377928
-0.00037276715
0.0013642394
-0.00055446689
0.0013370089
-0.000730604
0.001296528
-0.00089942005
0.0012432291
-0.001059237
0.00117768
-0.001208475
0.0011005767
-0.0013456694
0.0010127341
-0.0014694855
0.00091507624
-0.0015787323
0.00080862452
-0.001672374
0.00069448522
-0.0017495396
0.0005738362
-0.0018095309
0.00044791286
-0.0018518277
0.0003179936
-0.0018760917
0.00018538501
-0.0018821673
5.140679e-05
-0.0018700808
-8.2622222e-05
-0.0018400366
-0.00021540124
-0.0017924122
-0.00034565762
-0.0017277504
-0.00047216197
-0.0016467508
-0.00059373873
-0.0015502591
-0.00070927626
-0.001439256
-0.00081773533
-0.0013148449
-0.00091815618
-0.0011782402
-0.0010096642
-0.0010307542
-0.0010914743
-0.00087378438
-0.0011628944
-0.00070880134
-0.0012233283
-0.00053733582
-0.0012722767
-0.00036096666
-0.0013093392
-0.00018130854
-0.001334215
5.4938219e-13
-0.0013467031
0.00018130854
-0.0013467031
0.00036096666
-0.001334215
0.00053733582
-0.0013093392
0.00070880134
-0.0012722767
0.00087378438
-0.0012233283
0.0010307542
-0.0011628944
0.0011782402
-0.0010914743
0.0013148449
-0.0010096642
0.001439256
-0.00091815618
0.0015502591
-0.00081773533
0.0016467508
-0.00070927626
0.0017277504
-0.00059373873
0.0017924122
-0.00047216197
0.0018400366
-0.00034565762
0.0018700808
-0.00021540124
0.0018821673
-8.2622221e-05
0.0018760917
5.140679e-05
0.0018518277
0.00018538501
0.0018095309
0.0003179936
0.0017495396
0.00044791286
0.001672374
0.0005738362
0.0015787323
0.00069448522
0.0014694855
0.00080862452
0.0013456694
0.00091507624
0.001208475
0.0010127341
0.001059237
0.0011005767
0.00089942005
0.00117768
0.000730604
0.0012432291
0.00055446689
0.001296528
0.00037276715
0.0013370089
0.00018732451
0.0013642394
0.001377928
-0.0001994542
0.0015773822
-0.00039689507
0.0015616803
-0.00059033181
0.0015304457
-0.00077781841
0.0014840146
-0.00095747517
0.0014228859
-0.0011275094
0.0013477142
-0.0012862345
0.0012593018
-0.0014320885
0.001158588
-0.0015636494
0.0010466372
-0.0016796505
0.00092462559
-0.0017789921
0.00079382687
-0.0018607526
0.00065559664
-0.001924196
0.00051135633
-0.0019687788
0.00036257639
-0.0019941529
0.00021075911
-0.0020001671
5.7420966e-05
-0.0019868658
-9.5923557e-05
-0.0019544842
-0.00024778285
-0.0019034423
-0.00039669944
-0.0018343362
-0.0005412681
-0.0017479269
-0.000680148
-0.001645129
-0.00081207417
-0.0015269974
-0.00093586694
-0.001394714
-0.0010504396
-0.001249574
-0.0011548042
-0.0010929721
-0.0012480761
-0.00092638949
-0.0013294771
-0.00075138005
-0.0013983377
-0.00056955798
-0.0014540987
-0.00038258513
-0.001496312
-0.00019215886
-0.0015246412
6.3910528e-13
-0.001538862
0.00019215886
-0.001538862
0.00038258513
-0.0015246412
0.00056955798
-0.001496312
0.00075138005
-0.0014540987
0.00092638949
-0.0013983377
0.0010929721
-0.0013294771
0.001249574
-0.0012480761
0.001394714
-0.0011548042
0.0015269974
-0.0010504396
0.001645129
-0.00093586694
0.0017479269
-0.00081207417
0.0018343362
-0.000680148
0.0019034423
-0.0005412681
0.0019544842
-0.00039669944
0.0019868658
-0.00024778284
0.0020001671
-9.5923556e-05
0.0019941529
5.7420966e-05
0.0019687788
0.00021075911
0.001924196
0.00036257639
0.0018607526
0.00051135633
0.0017789921
0.00065559664
0.0016796505
0.00079382687
0.0015636494
0.00092462559
0.0014320885
0.0010466372
0.0012862345
0.001158588
0.0011275094
0.0012593018
0.00095747517
0.0013477142
0.00077781841
0.0014228859
0.00059033181
0.0014840146
0.00039689507
0.0015304457
0.0001994542
0.0015616803
0.0015773822
-0.00021214315
0.0017895253
-0.00042213277
0.0017716699
-0.0006278398
0.0017361527
-0.00082718374
0.0016833585
-0.001018156
0.0016138581
-0.0011988421
0.0015284004
-0.0013674428
0.0014279025
-0.0015222928
0.0013134381
-0.0016618788
0.0011862232
-0.0017848545
0.0010476012
-0.0018900539
0.00089902629
-0.001976503
0.00074204572
-0.0020434282
0.0005782816
-0.0020902634
0.00040941162
-0.0021166537
0.00023714935
-0.0021224564
6.3223691e-05
-0.0021077401
-0.00011063984
-0.0020727783
-0.0002827447
-0.0020180421
-0.00045143563
-0.0019441895
-0.00061512067
-0.0018520527
-0.00077228478
-0.0017426239
-0.00092150295
-0.0016170404
-0.0010614505
-0.0014765688
-0.0011909112
-0.0013225905
-0.0013087825
-0.0011565862
-0.0014140804
-0.00098012185
-0.0015059414
-0.0007948349
-0.0015836247
-0.00060242133
-0.0016465123
-0.00040462316
-0.0016941102
-0.0002032165
-0.0017260479
6.7011541e-13
-0.0017420785
0.00020321651
-0.0017420785
0.00040462316
-0.0017260479
0.00060242133
-0.0016941102
0.0007948349
-0.0016465123
0.00098012185
-0.0015836247
0.0011565862
-0.0015059414
0.0013225905
-0.0014140804
0.0014765688
-0.0013087825
0.0016170404
-0.0011909112
0.0017426239
-0.0010614505
0.0018520527
-0.00092150295
0.0019441895
-0.00077228478
0.0020180421
-0.00061512067
0.0020727783
-0.00045143563
0.0021077401
-0.0002827447
0.0021224564
-0.00011063984
0.0021166537
6.3223692e-05
0.0020902634
0.00023714935
0.0020434282
0.00040941162
0.001976503
0.0005782816
0.0018900539
0.00074204572
0.0017848545
0.00089902629
0.0016618788
0.0010476012
0.0015222928
0.0011862232
0.0013674428
0.0013134381
0.0011988421
0.0014279025
0.001018156
0.0015284004
0.00082718374
0.0016138581
0.0006278398
0.0016833585
0.00042213277
0.0017361527
0.00021214315
0.0017716699
0.0017895253
-0.00022482042
0.0020143458
-0.00044734288
0.0019941923
-0.00066529599
0.0019541058
-0.00087646107
0.0018945236
-0.0010786974
0.0018160944
-0.0012699661
0.0017196691
-0.001448353
0.0016062893
-0.0016120885
0.0014771736
-0.0017595669
0.0013337016
-0.0018893623
0.0011773966
-0.0020002433
0.0010099073
-0.0020911848
0.00083298719
-0.002161378
0.00064847477
-0.0022102376
0.0004582713
-0.0022374069
0.00026431864
-0.0022427586
6.8575366e-05
-0.0022263936
-0.00012700483
-0.0021886333
-0.00032050497
-0.0021300109
-0.00051005804
-0.0020512574
-0.0006938742
-0.0019532865
-0.00087025572
-0.0018371773
-0.0010376121
-0.0017041568
-0.0011944711
-0.0015555815
-0.0013394864
-0.001392921
-0.001471443
-0.0012177409
-0.0015892605
-0.0010316884
-0.001691994
-0.00083647781
-0.0017788352
-0.00063387801
-0.0018491121
-0.00042570016
-0.0019022881
-0.00021378656
-0.0019379615
7.3026053e-13
-0.001955865
0.00021378656
-0.001955865
0.00042570016
-0.0019379615
0.00063387801
-0.0019022881
0.00083647781
-0.0018491121
0.0010316884
-0.0017788352
0.0012177409
-0.001691994
0.001392921
-0.0015892605
0.0015555815
-0.001471443
0.0017041568
-0.0013394864
0.0018371773
-0.0011944711
0.0019532865
-0.0010376121
0.0020512574
-0.00087025572
0.0021300109
-0.0006938742
0.0021886333
-0.00051005804
0.0022263936
-0.00032050497
0.0022427586
-0.00012700483
0.0022374069
6.8575367e-05
0.0022102376
0.00026431864
0.002161378
0.00045827131
0.0020911848
0.00064847477
0.0020002433
0.00083298719
0.0018893623
0.0010099073
0.0017595669
0.0011773966
0.0016120885
0.0013337016
0.001448353
0.0014771736
0.0012699661
0.0016062893
0.0010786974
0.0017196691
0.00087646107
0.0018160944
0.00066529599
0.0018945236
0.00044734288
0.0019541058
0.00022482042
0.0019941923
0.0020143458
-0.00023656416
0.0022509099
-0.00047068907
0.0022283173
-0.00069996433
0.0021833811
-0.00092203664
0.0021165959
-0.0011346372
0.0020286949
-0.0013356072
0.0019206392
-0.0015229224
0.0017936046
-0.0016947144
0.0016489655
-0.0018492904
0.0014882776
-0.0019851508
0.0013132571
-0.0021010046
0.001125761
-0.0021957816
0.00092776428
-0.0022686445
0.00072133767
-0.0023189964
0.00050862317
-0.0023464868
0.00029180906
-0.0023510139
7.3102441e-05
-0.0023327228
-0.00014529592
-0.0022919958
-0.000361232
-0.0022294419
-0.00057261191
-0.0021458787
-0.00077743738
-0.0020423136
-0.00097382082
-0.0019199223
-0.0011600034
-0.0017800273
-0.0013343661
-0.0016240768
-0.0014954369
-0.0014536255
-0.0016418944
-0.0012703165
-0.0017725695
-0.0010758655
-0.0018864449
-0.0008720473
-0.0019826534
-0.00066068292
-0.0020604765
-0.00044362913
-0.0021193419
-0.0002227684
-0.0021588222
8.2738976e-13
-0.0021786334
0.0002227684
-0.0021786334
0.00044362913
-0.0021588222
0.00066068292
-0.0021193419
0.0008720473
-0.0020604765
0.0010758655
-0.0019826534
0.0012703165
-0.0018864449
0.0014536255
-0.0017725695
0.0016240768
-0.0016418944
0.0017800273
-0.0014954369
0.0019199223
-0.0013343661
0.0020423136
-0.0011600034
0.0021458787
-0.00097382082
0.0022294419
-0.00077743738
0.0022919958
-0.00057261191
0.0023327228
-0.000361232
0.0023510139
-0.00014529592
0.0023464868
7.3102442e-05
0.0023189964
0.00029180906
0.0022686445
0.00050862317
0.0021957816
0.00072133767
0.0021010046
0.00092776429
0.0019851508
0.001125761
0.0018492904
0.0013132571
0.0016947144
0.0014882776
0.0015229224
0.0016489655
0.0013356072
0.0017936046
0.0011346372
0.0019206392
0.00092203664
0.0020286949
0.00069996433
0.0021165959
0.00047068907
0.0021833811
0.00023656416
0.0022283173
0.0022509099
-0.00024596266
0.0024968726
-0.00048935931
0.0024717139
-0.00072765515
0.0024216769
-0.00095837722
0.002347318
-0.0011791438
0.0022494615
-0.0013876918
0.0021291872
-0.0015819026
0.0019878154
-0.0017598243
0.0018268872
-0.0019196926
0.0016481459
-0.0020599491
0.0014535136
-0.0021792568
0.0012450686
-0.0022765142
0.0010250217
-0.002350868
0.00079569142
-0.0024017224
0.00055947765
-0.0024287473
0.00031883395
-0.0024318809
7.6236036e-05
-0.0024113294
-0.0001658474
-0.0023675533
-0.00040500815
-0.0023012552
-0.00063890999
-0.0022133573
-0.00086533527
-0.0021049746
-0.0010822036
-0.0019773886
-0.0012875893
-0.0018320211
-0.0014797337
-0.0016704084
-0.0016570496
-0.0014941797
-0.001818123
-0.0013050371
-0.0019617122
-0.0011047394
-0.0020867426
-0.00089508949
-0.0021923033
-0.00067792296
-0.002277643
-0.00045509969
-0.0023421651
-0.00022849628
-0.0023854256
8.202128e-13
-0.0024071297
0.00022849628
-0.0024071297
0.00045509969
-0.0023854256
0.00067792296
-0.0023421651
0.00089508949
-0.002277643
0.0011047394
-0.0021923033
0.0013050371
-0.0020867426
0.0014941797
-0.0019617122
0.0016704084
-0.001818123
0.0018320211
-0.0016570496
0.0019773886
-0.0014797337
0.0021049746
-0.0012875893
0.0022133573
-0.0010822036
0.0023012552
-0.00086533527
0.0023675533
-0.00063890999
0.0024113294
-0.00040500815
0.0024318809
-0.0001658474
0.0024287473
7.6236037e-05
0.0024017224
0.00031883395
0.0023508679
0.00055947765
0.0022765142
0.00079569143
0.0021792568
0.0010250217
0.0020599491
0.0012450686
0.0019196926
0.0014535136
0.0017598243
0.0016481459
0.0015819026
0.0018268872
0.0013876918
0.0019878154
0.0011791438
0.0021291872
0.00095837722
0.0022494615
0.00072765515
0.002347318
0.00048935931
0.0024216769
0.00024596266
0.0024717139
0.0024968726
-0.00025094621
0.0027478188
-0.00049923084
0.0027199985
-0.00074222608
0.0026646721
-0.00097737082
0.0025824627
-0.0012022021
0.0024742928
-0.0014143846
0.0023413697
-0.0016117368
0.0021851676
-0.0017922544
0.0020074048
-0.0019541314
0.001810023
-0.0020957785
0.0015951607
-0.002215839
0.0013651291
-0.0023132038
0.0011223865
-0.0023870256
0.00086951326
-0.0024367309
0.00060918288
-0.0024620305
0.00034413355
-0.0024629243
7.7129906e-05
-0.002439703
-0.00018906872
-0.0023929304
-0.00045178082
-0.0023234268
-0.00070841354
-0.0022322395
-0.00095652262
-0.0021206081
-0.0011938349
-0.0019899296
-0.0014182678
-0.0018417242
-0.0016279391
-0.0016776052
-0.0018211686
-0.0014992538
-0.0019964745
-0.0013083966
-0.0021525694
-0.0011067909
-0.0022883483
-0.00089621319
-0.002402881
-0.0006784506
-0.0024954056
-0.00045529677
-0.0025653189
-0.00022854761
-0.0026121748
7.9051463e-13
-0.0026356773
0.00022854761
-0.0026356773
0.00045529677
-0.0026121748
0.0006784506
-0.0025653189
0.00089621319
-0.0024954056
0.0011067909
-0.002402881
0.0013083966
-0.0022883483
0.0014992538
-0.0021525694
0.0016776052
-0.0019964745
0.0018417242
-0.0018211686
0.0019899296
-0.0016279391
0.0021206081
-0.0014182678
0.0022322395
-0.0011938349
0.0023234268
-0.00095652262
0.0023929304
-0.00070841354
0.002439703
-0.00045178081
0.0024629243
-0.00018906872
0.0024620305
7.7129907e-05
0.0024367309
0.00034413355
0.0023870256
0.00060918289
0.0023132038
0.00086951326
0.002215839
0.0011223865
0.0020957785
0.0013651291
0.0019541314
0.0015951607
0.0017922544
0.001810023
0.0016117368
0.0020074048
0.0014143846
0.0021851676
0.0012022021
0.0023413697
0.00097737082
0.0024742928
0.00074222608
0.0025824627
0.00049923084
0.0026646721
0.00025094621
0.0027199985
0.0027478188
-0.00024859619
0.002996415
-0.00049448999
0.0029658923
-0.00073501548
0.0029051976
-0.00096757837
0.0028150256
-0.0011896898
0.0026964042
-0.0013989967
0.0025506766
-0.00159331
0.0023794809
-0.001770625
0.0021847198
-0.0019291452
0.0019685432
-0.0020672976
0.001733313
-0.0021837491
0.0014815807
-0.0022774208
0.0012160581
-0.0023475062
0.00093959871
-0.0023934881
0.00065516482
-0.0024151495
0.00036579495
-0.0024125801
7.4560443e-05
-0.0023861865
-0.00021546232
-0.002336668
-0.00050129927
-0.0022649984
-0.00078008317
-0.0021723778
-0.0010491432
-0.0020601907
-0.001306022
-0.001929957
-0.0015485015
-0.0017832889
-0.0017746072
-0.0016218532
-0.0019826043
-0.0014473444
-0.0021709832
-0.0012614564
-0.0023384574
-0.0010658723
-0.0024839324
-0.00086225733
-0.002606496
-0.00065225114
-0.0027054118
-0.00043747485
-0.0027800952
-0.00021952897
-0.0028301207
8.6190221e-13
-0.0028552063
0.00021952897
-0.0028552063
0.00043747485
-0.0028301207
0.00065225114
-0.0027800952
0.00086225733
-0.0027054118
0.0010658723
-0.002606496
0.0012614564
-0.0024839324
0.0014473444
-0.0023384574
0.0016218532
-0.0021709832
0.0017832889
-0.0019826043
0.001929957
-0.0017746072
0.0020601907
-0.0015485015
0.0021723778
-0.001306022
0.0022649984
-0.0010491432
0.002336668
-0.00078008317
0.0023861865
-0.00050129927
0.0024125801
-0.00021546232
0.0024151495
7.4560445e-05
0.0023934881
0.00036579495
0.0023475062
0.00065516482
0.0022774208
0.00093959871
0.0021837491
0.0012160581
0.0020672976
0.0014815807
0.0019291452
0.001733313
0.001770625
0.0019685432
0.00159331
0.0021847198
0.0013989967
0.0023794809
0.0011896898
0.0025506766
0.00096757836
0.0026964042
0.00073501548
0.0028150256
0.00049448999
0.0029051976
0.00024859619
0.0029658923
0.002996415
-0.00023494843
0.0032313634
-0.00046724038
0.0031981843
-0.00069425879
0.003132216
-0.00091346304
0.0030342299
-0.0011224253
0.0029053665
-0.0013188617
0.0027471129
-0.0015006621
0.0025612813
-0.0016659033
0.002349961
-0.0018128787
0.0021155186
-0.0019401054
0.0018605398
-0.0020463423
0.0015878176
-0.0021305995
0.0013003153
-0.0021921625
0.0010011617
-0.0022306126
0.00069361496
-0.0022458465
0.00038102889
-0.0022380856
6.6799475e-05
-0.0022079006
-0.00024564728
-0.0021561706
-0.00055302932
-0.0020840672
-0.00085218656
-0.0019929805
-0.0011402299
-0.0018844643
-0.0014145382
-0.0017601676
-0.0016727982
-0.0016217781
-0.0019129967
-0.0014709754
-0.0021334069
-0.0013094082
-0.0023325504
-0.001138646
-0.0025092196
-0.00096018827
-0.0026623901
-0.00077546306
-0.0027912212
-0.00058581389
-0.002895061
-0.00039253505
-0.0029733741