/*--------------------------------*- C++ -*----------------------------------*\
| =========                 |                                                 |
| \\      /  F ield         | OpenFOAM: The Open Source CFD Toolbox           |
|  \\    /   O peration     | Version:  2106                                  |
|   \\  /    A nd           | Website:  www.openfoam.com                      |
|    \\/     M anipulation  |                                                 |
\*---------------------------------------------------------------------------*/
FoamFile
{
    version     2.0;
    format      ascii;
    arch        "LSB;label=32;scalar=64";
    class       volVectorField;
    location    "0.037";
    object      U;
}
// * * * * * * * * * * * * * * * * * * * * * * * * * * * * * * * * * * * * * //

dimensions      [0 1 -1 0 0 0 0];

internalField   nonuniform List<vector> 
4096
(
(-0.0029131838 0.002901932 0)
(-0.0087114112 0.0028738177 0)
(-0.014425241 0.0028178661 0)
(-0.019999332 0.0027346288 0)
(-0.025379721 0.0026249257 0)
(-0.030514352 0.0024898368 0)
(-0.035353589 0.0023306905 0)
(-0.039850699 0.0021490501 0)
(-0.043962305 0.0019466972 0)
(-0.047648813 0.0017256136 0)
(-0.050874788 0.0014879608 0)
(-0.053609291 0.001236058 0)
(-0.055826176 0.00097235824 0)
(-0.05750433 0.00069942197 0)
(-0.058627913 0.00041988456 0)
(-0.059186287 0.00013650259 0)
(-0.059174597 -0.00014805552 0)
(-0.058593166 -0.00043101683 0)
(-0.057447957 -0.00070966737 0)
(-0.055750311 -0.00098133619 0)
(-0.053516854 -0.0012434254 0)
(-0.050769332 -0.0014934343 0)
(-0.047534393 -0.0017289826 0)
(-0.043843317 -0.0019478319 0)
(-0.039731717 -0.0021479067 0)
(-0.035239187 -0.0023273128 0)
(-0.030408928 -0.0024843545 0)
(-0.025287328 -0.0026175493 0)
(-0.019923523 -0.0027256417 0)
(-0.014368931 -0.0028076136 0)
(-0.0086767671 -0.0028626936 0)
(-0.0029015385 -0.0028903638 0)
(0.0029014654 -0.002890364 0)
(0.0086766947 -0.0028626942 0)
(0.01436886 -0.0028076145 0)
(0.019923454 -0.002725643 0)
(0.025287262 -0.002617551 0)
(0.030408866 -0.0024843564 0)
(0.03523913 -0.0023273151 0)
(0.039731664 -0.0021479093 0)
(0.043843269 -0.0019478347 0)
(0.047534351 -0.0017289856 0)
(0.050769297 -0.0014934376 0)
(0.053516825 -0.0012434289 0)
(0.055750289 -0.00098133981 0)
(0.057447943 -0.0007096711 0)
(0.058593159 -0.00043102064 0)
(0.059174598 -0.00014805938 0)
(0.059186296 0.00013649873 0)
(0.05862793 0.00041988073 0)
(0.057504354 0.00069941821 0)
(0.055826208 0.00097235458 0)
(0.05360933 0.0012360545 0)
(0.050874834 0.0014879575 0)
(0.047648866 0.0017256105 0)
(0.043962364 0.0019466943 0)
(0.039850763 0.0021490474 0)
(0.035353659 0.0023306882 0)
(0.030514426 0.0024898348 0)
(0.025379798 0.002624924 0)
(0.019999412 0.0027346275 0)
(0.014425323 0.0028178652 0)
(0.0087114955 0.0028738171 0)
(0.0029132688 0.0029019318 0)
(-0.0029425145 0.0087289521 0)
(-0.0087991177 0.0086443825 0)
(-0.014570465 0.0084760767 0)
(-0.020200653 0.0082256938 0)
(-0.025635171 0.0078957007 0)
(-0.030821437 0.0074893463 0)
(-0.035709309 0.0070106271 0)
(-0.040251585 0.0064642457 0)
(-0.044404451 0.0058555619 0)
(-0.048127915 0.0051905375 0)
(-0.051386188 0.0044756746 0)
(-0.054148024 0.0037179497 0)
(-0.05638702 0.0029247422 0)
(-0.058081858 0.0021037591 0)
(-0.059216517 0.0012629536 0)
(-0.059780368 0.0004104831 0)
(-0.059768347 -0.00044542933 0)
(-0.059180898 -0.0012965562 0)
(-0.058024026 -0.002134716 0)
(-0.056309189 -0.0029518732 0)
(-0.054053189 -0.0037402135 0)
(-0.051277994 -0.0044922151 0)
(-0.048010522 -0.0052007184 0)
(-0.044282371 -0.0058589913 0)
(-0.040129511 -0.0064607913 0)
(-0.035591934 -0.0070004213 0)
(-0.030713273 -0.0074727808 0)
(-0.025540377 -0.0078734118 0)
(-0.020122874 -0.0081985376 0)
(-0.014512691 -0.0084450967 0)
(-0.0087635725 -0.008610769 0)
(-0.0029305658 -0.0086939966 0)
(0.0029304916 -0.0086939971 0)
(0.0087634991 -0.0086107706 0)
(0.01451262 -0.0084450995 0)
(0.020122804 -0.0081985415 0)
(0.025540311 -0.0078734167 0)
(0.03071321 -0.0074727867 0)
(0.035591876 -0.0070004281 0)
(0.040129457 -0.006460799 0)
(0.044282323 -0.0058589998 0)
(0.04801048 -0.0052007276 0)
(0.051277958 -0.004492225 0)
(0.05405316 -0.003740224 0)
(0.056309167 -0.0029518841 0)
(0.058024011 -0.0021347272 0)
(0.059180892 -0.0012965677 0)
(0.059768348 -0.00044544093 0)
(0.059780377 0.00041047148 0)
(0.059216534 0.001262942 0)
(0.058081882 0.0021037477 0)
(0.056387052 0.0029247312 0)
(0.054148064 0.003717939 0)
(0.051386235 0.0044756645 0)
(0.048127968 0.005190528 0)
(0.04440451 0.0058555531 0)
(0.04025165 0.0064642377 0)
(0.035709379 0.00701062 0)
(0.030821511 0.0074893402 0)
(0.02563525 0.0078956956 0)
(0.020200735 0.0082256897 0)
(0.014570549 0.0084760737 0)
(0.0087992032 0.0086443807 0)
(0.0029426008 0.0087289515 0)
(-0.0029878908 0.014636985 0)
(-0.0089348056 0.014495168 0)
(-0.01479514 0.014212932 0)
(-0.020512123 0.013793061 0)
(-0.026030398 0.01323969 0)
(-0.031296566 0.012558271 0)
(-0.036259713 0.011755505 0)
(-0.040871904 0.010839281 0)
(-0.045088652 0.0098185871 0)
(-0.04886935 0.0087034224 0)
(-0.052177659 0.0075046917 0)
(-0.054981858 0.0062340945 0)
(-0.057255142 0.0049040065 0)
(-0.058975873 0.0035273538 0)
(-0.060127785 0.0021174843 0)
(-0.06070011 0.00068805112 0)
(-0.06068769 -0.00074715222 0)
(-0.060091001 -0.002174313 0)
(-0.05891614 -0.0035797193 0)
(-0.057174753 -0.0049499005 0)
(-0.054883905 -0.0062717546 0)
(-0.052065907 -0.0075326703 0)
(-0.048748095 -0.0087206438 0)
(-0.044962556 -0.0098243888 0)
(-0.040745814 -0.010833439 0)
(-0.036138476 -0.011738244 0)
(-0.031184843 -0.012530253 0)
(-0.025932485 -0.013201992 0)
(-0.020431784 -0.01374713 0)
(-0.014735465 -0.014160534 0)
(-0.0088980904 -0.014438315 0)
(-0.0029755483 -0.014577862 0)
(0.0029754723 -0.014577863 0)
(0.0088980152 -0.014438318 0)
(0.014735392 -0.014160538 0)
(0.020431713 -0.013747136 0)
(0.025932416 -0.013202 0)
(0.031184779 -0.012530263 0)
(0.036138416 -0.011738256 0)
(0.040745759 -0.010833452 0)
(0.044962507 -0.0098244032 0)
(0.048748052 -0.0087206594 0)
(0.052065871 -0.0075326869 0)
(0.054883875 -0.0062717721 0)
(0.057174731 -0.0049499188 0)
(0.058916126 -0.0035797382 0)
(0.060090994 -0.0021743323 0)
(0.060687692 -0.00074717171 0)
(0.060700119 0.00068803158 0)
(0.060127802 0.0021174649 0)
(0.058975898 0.0035273348 0)
(0.057255175 0.004903988 0)
(0.054981898 0.0062340767 0)
(0.052177707 0.0075046747 0)
(0.048869404 0.0087034064 0)
(0.045088713 0.0098185724 0)
(0.04087197 0.010839268 0)
(0.036259785 0.011755494 0)
(0.031296642 0.012558261 0)
(0.026030478 0.013239682 0)
(0.020512206 0.013793054 0)
(0.014795226 0.014212927 0)
(0.0089348932 0.014495165 0)
(0.0029879792 0.014636984 0)
(-0.0030502447 0.020652317 0)
(-0.0091212621 0.020452207 0)
(-0.015103881 0.020053958 0)
(-0.020940138 0.019461499 0)
(-0.026573516 0.018680671 0)
(-0.031949498 0.017719162 0)
(-0.037016103 0.016586434 0)
(-0.041724394 0.015293619 0)
(-0.046028957 0.013853402 0)
(-0.04988834 0.012279895 0)
(-0.053265449 0.010588486 0)
(-0.056127908 0.008795686 0)
(-0.058448359 0.0069189586 0)
(-0.060204724 0.0049765451 0)
(-0.061380401 0.0029872832 0)
(-0.061964413 0.00097042497 0)
(-0.061951499 -0.0010545634 0)
(-0.061342156 -0.0030681863 0)
(-0.060142618 -0.0050511001 0)
(-0.058364777 -0.0069843011 0)
(-0.056026063 -0.0088493053 0)
(-0.053149256 -0.010628321 0)
(-0.049762266 -0.012304414 0)
(-0.04589785 -0.013861663 0)
(-0.041593293 -0.015285302 0)
(-0.036890047 -0.01656186 0)
(-0.031833335 -0.017679273 0)
(-0.026471712 -0.018626999 0)
(-0.020856606 -0.019396107 0)
(-0.015041834 -0.019979358 0)
(-0.0090830871 -0.020371265 0)
(-0.0030374111 -0.020568144 0)
(0.0030373326 -0.020568145 0)
(0.0090830094 -0.020371269 0)
(0.015041758 -0.019979365 0)
(0.020856532 -0.019396117 0)
(0.026471641 -0.018627011 0)
(0.031833268 -0.017679287 0)
(0.036889985 -0.016561876 0)
(0.041593236 -0.015285321 0)
(0.045897799 -0.013861683 0)
(0.049762222 -0.012304436 0)
(0.053149219 -0.010628345 0)
(0.056026032 -0.0088493302 0)
(0.058364754 -0.006984327 0)
(0.060142603 -0.0050511268 0)
(0.061342149 -0.0030682136 0)
(0.0619515 -0.001054591 0)
(0.061964422 0.0009703973 0)
(0.061380419 0.0029872557 0)
(0.06020475 0.0049765181 0)
(0.058448393 0.0069189323 0)
(0.056127949 0.0087956607 0)
(0.053265498 0.010588462 0)
(0.049888396 0.012279872 0)
(0.04602902 0.013853381 0)
(0.041724463 0.0152936 0)
(0.037016177 0.016586417 0)
(0.031949577 0.017719147 0)
(0.026573599 0.018680658 0)
(0.020940225 0.01946149 0)
(0.01510397 0.020053951 0)
(0.0091213526 0.020452203 0)
(0.003050336 0.020652316 0)
(-0.0031307027 0.026809177 0)
(-0.0093618556 0.026549393 0)
(-0.015502265 0.026032386 0)
(-0.02149243 0.025263257 0)
(-0.027274337 0.02424959 0)
(-0.032792024 0.02300137 0)
(-0.037992136 0.021530881 0)
(-0.042824445 0.019852579 0)
(-0.047242338 0.017982936 0)
(-0.051203274 0.015940273 0)
(-0.054669186 0.01374457 0)
(-0.057606851 0.011417264 0)
(-0.059988199 0.0089810282 0)
(-0.061790577 0.006459544 0)
(-0.062996958 0.0038772668 0)
(-0.063596085 0.0012591841 0)
(-0.063582571 -0.0013694337 0)
(-0.062956936 -0.0039832773 0)
(-0.061725585 -0.0065572389 0)
(-0.059900733 -0.0090666525 0)
(-0.057500274 -0.011487527 0)
(-0.054547595 -0.01379677 0)
(-0.051071343 -0.015972403 0)
(-0.04710514 -0.017993761 0)
(-0.042687252 -0.019841682 0)
(-0.037860224 -0.02149868 0)
(-0.032670463 -0.0229491 0)
(-0.027167802 -0.02417926 0)
(-0.021405017 -0.025177569 0)
(-0.015437334 -0.025934632 0)
(-0.0093219065 -0.026443329 0)
(-0.0031172724 -0.026698878 0)
(0.0031171906 -0.02669888 0)
(0.0093218255 -0.026443334 0)
(0.015437255 -0.025934641 0)
(0.02140494 -0.025177581 0)
(0.027167728 -0.024179275 0)
(0.032670394 -0.022949119 0)
(0.037860159 -0.021498701 0)
(0.042687193 -0.019841706 0)
(0.047105086 -0.017993788 0)
(0.051071297 -0.015972432 0)
(0.054547556 -0.013796801 0)
(0.057500242 -0.011487559 0)
(0.059900709 -0.0090666863 0)
(0.061725569 -0.0065572738 0)
(0.062956929 -0.0039833129 0)
(0.063582573 -0.0013694698 0)
(0.063596095 0.001259148 0)
(0.062996976 0.003877231 0)
(0.061790604 0.0064595087 0)
(0.059988234 0.0089809939 0)
(0.057606894 0.011417231 0)
(0.054669237 0.013744539 0)
(0.051203332 0.015940243 0)
(0.047242404 0.017982908 0)
(0.042824516 0.019852554 0)
(0.037992213 0.021530859 0)
(0.032792106 0.02300135 0)
(0.027274423 0.024249574 0)
(0.02149252 0.025263245 0)
(0.015502357 0.026032377 0)
(0.0093619498 0.026549388 0)
(0.0031307978 0.026809176 0)
(-0.0032306524 0.033145182 0)
(-0.0096607353 0.032823978 0)
(-0.015997162 0.032184739 0)
(-0.022178522 0.031233773 0)
(-0.028144942 0.029980458 0)
(-0.033838667 0.028437146 0)
(-0.039204634 0.026619029 0)
(-0.044191011 0.024543983 0)
(-0.048749699 0.022232379 0)
(-0.052836801 0.019706875 0)
(-0.056413043 0.016992179 0)
(-0.05944415 0.014114797 0)
(-0.061901166 0.011102765 0)
(-0.063760729 0.0079853645 0)
(-0.065005277 0.0047928316 0)
(-0.065623209 0.0015560576 0)
(-0.065608979 -0.0016937152 0)
(-0.064963132 -0.0049251966 0)
(-0.063692289 -0.008107348 0)
(-0.061809062 -0.011209678 0)
(-0.059331922 -0.01420253 0)
(-0.056285005 -0.017057358 0)
(-0.052697875 -0.019746995 0)
(-0.048605225 -0.022245897 0)
(-0.044046543 -0.024530377 0)
(-0.039065727 -0.026578822 0)
(-0.03371066 -0.028371881 0)
(-0.028032757 -0.029892642 0)
(-0.022086473 -0.03112678 0)
(-0.015928788 -0.032062681 0)
(-0.0096186675 -0.032691544 0)
(-0.0032165097 -0.03300746 0)
(0.0032164237 -0.033007462 0)
(0.0096185824 -0.03269155 0)
(0.015928705 -0.032062692 0)
(0.022086392 -0.031126795 0)
(0.02803268 -0.029892662 0)
(0.033710587 -0.028371904 0)
(0.039065659 -0.026578848 0)
(0.044046481 -0.024530407 0)
(0.048605169 -0.02224593 0)
(0.052697826 -0.019747031 0)
(0.056284963 -0.017057397 0)
(0.059331888 -0.01420257 0)
(0.061809037 -0.01120972 0)
(0.063692273 -0.0081073914 0)
(0.064963125 -0.0049252409 0)
(0.06560898 -0.00169376 0)
(0.06562322 0.0015560127 0)
(0.065005296 0.0047927869 0)
(0.063760757 0.0079853207 0)
(0.061901203 0.011102722 0)
(0.059444195 0.014114756 0)
(0.056413097 0.01699214 0)
(0.052836862 0.019706839 0)
(0.048749768 0.022232345 0)
(0.044191086 0.024543952 0)
(0.039204715 0.026619001 0)
(0.033838753 0.028437122 0)
(0.028145033 0.029980438 0)
(0.022178617 0.031233757 0)
(0.015997259 0.032184728 0)
(0.0096608342 0.032823972 0)
(0.0032307523 0.03314518 0)
(-0.0033518841 0.03970084 0)
(-0.010023254 0.039316076 0)
(-0.016597434 0.038550344 0)
(-0.0230107 0.037411204 0)
(-0.029200918 0.035909895 0)
(-0.035108161 0.034061216 0)
(-0.040675297 0.031883371 0)
(-0.045848545 0.02939778 0)
(-0.050578004 0.026628851 0)
(-0.054818136 0.023603729 0)
(-0.058528202 0.020352018 0)
(-0.061672651 0.016905472 0)
(-0.064221455 0.013297676 0)
(-0.066150389 0.0095637077 0)
(-0.067441248 0.0057397837 0)
(-0.068082009 0.0018629046 0)
(-0.068066933 -0.00202951 0)
(-0.067396598 -0.005899984 0)
(-0.066077881 -0.0097113439 0)
(-0.064123877 -0.013427073 0)
(-0.061553753 -0.017011655 0)
(-0.058392554 -0.020430904 0)
(-0.054670953 -0.023652286 0)
(-0.050424944 -0.026645211 0)
(-0.045695491 -0.029381312 0)
(-0.040528134 -0.031834708 0)
(-0.034972547 -0.033982225 0)
(-0.029082066 -0.035803611 0)
(-0.02291318 -0.037281711 0)
(-0.016524997 -0.038402616 0)
(-0.0099786861 -0.039155789 0)
(-0.0033369007 -0.039534154 0)
(0.0033368098 -0.039534156 0)
(0.0099785961 -0.039155797 0)
(0.016524909 -0.038402629 0)
(0.022913094 -0.037281729 0)
(0.029081984 -0.035803634 0)
(0.03497247 -0.033982253 0)
(0.040528062 -0.03183474 0)
(0.045695425 -0.029381349 0)
(0.050424885 -0.02664525 0)
(0.054670901 -0.02365233 0)
(0.05839251 -0.020430951 0)
(0.061553717 -0.017011703 0)
(0.06412385 -0.013427124 0)
(0.066077864 -0.0097113962 0)
(0.067396589 -0.0059000374 0)
(0.068066934 -0.0020295641 0)
(0.06808202 0.0018628504 0)
(0.067441268 0.0057397299 0)
(0.066150419 0.0095636547 0)
(0.064221494 0.013297625 0)
(0.061672699 0.016905422 0)
(0.058528259 0.020351971 0)
(0.054818201 0.023603685 0)
(0.050578076 0.026628809 0)
(0.045848624 0.029397742 0)
(0.040675382 0.031883338 0)
(0.035108253 0.034061187 0)
(0.029201014 0.035909871 0)
(0.023010799 0.037411185 0)
(0.016597537 0.03855033 0)
(0.010023359 0.039316067 0)
(0.0033519896 0.039700837 0)
(-0.0034968131 0.046520633 0)
(-0.010456635 0.046069734 0)
(-0.017315041 0.045172386 0)
(-0.024005538 0.043837453 0)
(-0.030463296 0.04207811 0)
(-0.036625787 0.039911706 0)
(-0.042433403 0.037359584 0)
(-0.047830039 0.03444685 0)
(-0.052763638 0.031202118 0)
(-0.057186702 0.027657206 0)
(-0.061056739 0.023846811 0)
(-0.064336678 0.01980815 0)
(-0.066995208 0.015580584 0)
(-0.069007075 0.011205219 0)
(-0.070353305 0.0067244942 0)
(-0.071021373 0.0021817644 0)
(-0.071005307 -0.0023791262 0)
(-0.070305723 -0.0069142686 0)
(-0.068929806 -0.01138011 0)
(-0.066891223 -0.015733869 0)
(-0.064209973 -0.019933936 0)
(-0.060912185 -0.023940261 0)
(-0.057029855 -0.027714727 0)
(-0.052600528 -0.031221498 0)
(-0.047666936 -0.034427342 0)
(-0.042276578 -0.037301936 0)
(-0.036481269 -0.039818132 0)
(-0.03033664 -0.041952203 0)
(-0.023901615 -0.043684052 0)
(-0.017237847 -0.044997384 0)
(-0.01040914 -0.045879854 0)
(-0.0034808457 -0.046323172 0)
(0.0034807489 -0.046323176 0)
(0.010409044 -0.045879863 0)
(0.017237754 -0.044997399 0)
(0.023901524 -0.043684073 0)
(0.030336553 -0.041952231 0)
(0.036481186 -0.039818165 0)
(0.042276502 -0.037301974 0)
(0.047666866 -0.034427385 0)
(0.052600465 -0.031221545 0)
(0.057029799 -0.027714778 0)
(0.060912138 -0.023940315 0)
(0.064209935 -0.019933993 0)
(0.066891194 -0.015733929 0)
(0.068929787 -0.011380172 0)
(0.070305714 -0.0069143317 0)
(0.071005308 -0.00237919 0)
(0.071021384 0.0021817004 0)
(0.070353326 0.0067244306 0)
(0.069007106 0.011205157 0)
(0.066995249 0.015580524 0)
(0.064336729 0.019808092 0)
(0.061056799 0.023846755 0)
(0.05718677 0.027657154 0)
(0.052763715 0.031202069 0)
(0.047830123 0.034446806 0)
(0.042433494 0.037359544 0)
(0.036625884 0.039911672 0)
(0.030463398 0.042078081 0)
(0.024005644 0.043837431 0)
(0.01731515 0.04517237 0)
(0.010456746 0.046069724 0)
(0.0034969252 0.04652063 0)
(-0.0036687786 0.053654624 0)
(-0.010970861 0.053134525 0)
(-0.018166513 0.052099466 0)
(-0.025185955 0.050559673 0)
(-0.031961153 0.04853035 0)
(-0.038426496 0.04603152 0)
(-0.044519438 0.043087809 0)
(-0.050181114 0.039728188 0)
(-0.055356914 0.035985673 0)
(-0.059997011 0.031896974 0)
(-0.064056841 0.027502122 0)
(-0.067497527 0.02284405 0)
(-0.070286241 0.017968163 0)
(-0.072396506 0.012921873 0)
(-0.07380844 0.0077541287 0)
(-0.074508922 0.0025149309 0)
(-0.074491703 -0.0027451587 0)
(-0.073757445 -0.0079755056 0)
(-0.072313696 -0.013125888 0)
(-0.070174798 -0.018146973 0)
(-0.067361736 -0.022990782 0)
(-0.063901921 -0.027611133 0)
(-0.059828917 -0.031964073 0)
(-0.055182108 -0.036008279 0)
(-0.050006316 -0.03970543 0)
(-0.044351367 -0.043020559 0)
(-0.038271615 -0.04592236 0)
(-0.031825415 -0.048383474 0)
(-0.02507458 -0.050380722 0)
(-0.018083785 -0.051895317 0)
(-0.010919961 -0.052913022 0)
(-0.0036516659 -0.053424276 0)
(0.0036515626 -0.05342428 0)
(0.010919859 -0.052913033 0)
(0.018083685 -0.051895335 0)
(0.025074483 -0.050380747 0)
(0.031825323 -0.048383506 0)
(0.038271527 -0.045922398 0)
(0.044351286 -0.043020603 0)
(0.050006241 -0.03970548 0)
(0.05518204 -0.036008334 0)
(0.059828858 -0.031964133 0)
(0.063901871 -0.027611196 0)
(0.067361695 -0.022990849 0)
(0.070174767 -0.018147043 0)
(0.072313675 -0.01312596 0)
(0.073757435 -0.007975579 0)
(0.074491704 -0.002745233 0)
(0.074508933 0.0025148564 0)
(0.073808462 0.0077540547 0)
(0.072396539 0.0129218 0)
(0.070286284 0.017968092 0)
(0.067497581 0.022843982 0)
(0.064056905 0.027502057 0)
(0.059997084 0.031896913 0)
(0.055356995 0.035985616 0)
(0.050181203 0.039728137 0)
(0.044519534 0.043087763 0)
(0.038426599 0.04603148 0)
(0.031961262 0.048530317 0)
(0.025186068 0.050559646 0)
(0.01816663 0.052099447 0)
(0.01097098 0.053134514 0)
(0.0036688983 0.05365462 0)
(-0.003872405 0.06116063 0)
(-0.011579762 0.060567704 0)
(-0.019174747 0.059387711 0)
(-0.026583688 0.057632319 0)
(-0.033734759 0.055318869 0)
(-0.040558695 0.0524702 0)
(-0.046989472 0.0491144 0)
(-0.052964958 0.045284511 0)
(-0.05842752 0.041018186 0)
(-0.063324579 0.036357289 0)
(-0.067609115 0.031347464 0)
(-0.071240118 0.026037667 0)
(-0.074182964 0.02047966 0)
(-0.076409736 0.014727493 0)
(-0.077899474 0.0088369618 0)
(-0.078638353 0.0028650558 0)
(-0.078619799 -0.0031305988 0)
(-0.077844525 -0.0090922962 0)
(-0.076320505 -0.014962803 0)
(-0.074062881 -0.020685898 0)
(-0.071093799 -0.026206905 0)
(-0.067442184 -0.031473196 0)
(-0.063143452 -0.036434678 0)
(-0.058239162 -0.041044257 0)
(-0.052776609 -0.045258259 0)
(-0.046808371 -0.04903683 0)
(-0.040391806 -0.052344292 0)
(-0.033588498 -0.055149459 0)
(-0.026463679 -0.057425914 0)
(-0.019085605 -0.059152242 0)
(-0.011524915 -0.060312218 0)
(-0.0038539652 -0.060894943 0)
(0.0038538543 -0.060894948 0)
(0.011524806 -0.06031223 0)
(0.019085498 -0.059152263 0)
(0.026463575 -0.057425943 0)
(0.033588399 -0.055149495 0)
(0.040391712 -0.052344336 0)
(0.046808284 -0.049036881 0)
(0.052776528 -0.045258316 0)
(0.05823909 -0.04104432 0)
(0.063143389 -0.036434746 0)
(0.06744213 -0.031473268 0)
(0.071093755 -0.026206982 0)
(0.074062848 -0.020685978 0)
(0.076320483 -0.014962885 0)
(0.077844514 -0.0090923806 0)
(0.0786198 -0.0031306842 0)
(0.078638365 0.0028649702 0)
(0.077899497 0.0088368767 0)
(0.076409771 0.014727409 0)
(0.07418301 0.020479578 0)
(0.071240175 0.026037588 0)
(0.067609183 0.031347389 0)
(0.063324656 0.036357218 0)
(0.058427607 0.04101812 0)
(0.052965054 0.045284452 0)
(0.046989575 0.049114347 0)
(0.040558805 0.052470154 0)
(0.033734875 0.055318831 0)
(0.026583809 0.057632288 0)
(0.019174872 0.059387689 0)
(0.011579889 0.06056769 0)
(0.0038725333 0.061160625 0)
(-0.0041140016 0.069107172 0)
(-0.012302203 0.068437119 0)
(-0.020370981 0.067103639 0)
(-0.028242042 0.065119926 0)
(-0.035839061 0.06250559 0)
(-0.043088435 0.059286457 0)
(-0.049920018 0.055494285 0)
(-0.0562678 0.051166436 0)
(-0.062070563 0.046345478 0)
(-0.067272463 0.041078737 0)
(-0.071823575 0.03541781 0)
(-0.075680356 0.029418026 0)
(-0.078806058 0.023137886 0)
(-0.081171057 0.016638465 0)
(-0.082753117 0.0099828043 0)
(-0.083537581 0.0032352897 0)
(-0.083517487 -0.0035389801 0)
(-0.082693606 -0.010274819 0)
(-0.081074417 -0.016907578 0)
(-0.078676005 -0.023373751 0)
(-0.075521889 -0.029611575 0)
(-0.071642785 -0.035561601 0)
(-0.067076301 -0.041167241 0)
(-0.061866568 -0.04637529 0)
(-0.056063815 -0.051136408 0)
(-0.049723884 -0.055405567 0)
(-0.042907693 -0.059142455 0)
(-0.035680658 -0.062311836 0)
(-0.028112071 -0.064883862 0)
(-0.020274438 -0.066834336 0)
(-0.012242803 -0.068144923 0)
(-0.0040940302 -0.06880331 0)
(0.004093911 -0.068803315 0)
(0.012242685 -0.068144937 0)
(0.020274323 -0.06683436 0)
(0.028111959 -0.064883895 0)
(0.035680551 -0.062311878 0)
(0.042907592 -0.059142505 0)
(0.04972379 -0.055405625 0)
(0.056063729 -0.051136473 0)
(0.06186649 -0.046375362 0)
(0.067076232 -0.041167319 0)
(0.071642727 -0.035561684 0)
(0.075521842 -0.029611663 0)
(0.078675969 -0.023373842 0)
(0.081074393 -0.016907672 0)
(0.082693594 -0.010274915 0)
(0.083517487 -0.0035390774 0)
(0.083537594 0.0032351921 0)
(0.082753142 0.0099827074 0)
(0.081171094 0.016638369 0)
(0.078806107 0.023137793 0)
(0.075680417 0.029417937 0)
(0.071823647 0.035417724 0)
(0.067272546 0.041078656 0)
(0.062070656 0.046345403 0)
(0.056267903 0.051166368 0)
(0.049920128 0.055494224 0)
(0.043088554 0.059286404 0)
(0.035839185 0.062505546 0)
(0.028242172 0.065119891 0)
(0.020371115 0.067103614 0)
(0.012302339 0.068437104 0)
(0.0041141394 0.069107167 0)
(-0.0044019594 0.077577244 0)
(-0.013163275 0.076824953 0)
(-0.021796759 0.075327817 0)
(-0.030218612 0.073100659 0)
(-0.03834714 0.070165515 0)
(-0.046103575 0.0665514 0)
(-0.053412852 0.062293995 0)
(-0.060204345 0.057435273 0)
(-0.066412561 0.052023049 0)
(-0.071977772 0.046110483 0)
(-0.076846588 0.03975552 0)
(-0.080972457 0.033020291 0)
(-0.084316099 0.025970477 0)
(-0.08684586 0.018674644 0)
(-0.088537989 0.011203553 0)
(-0.089376835 0.0036294651 0)
(-0.089354973 -0.0039745632 0)
(-0.088473243 -0.011535383 0)
(-0.08674072 -0.018980449 0)
(-0.084174607 -0.0262385 0)
(-0.080800052 -0.033240227 0)
(-0.076649897 -0.039918912 0)
(-0.071764358 -0.046211049 0)
(-0.066190626 -0.05205692 0)
(-0.059982421 -0.057401143 0)
(-0.05319947 -0.062193172 0)
(-0.045906939 -0.066387755 0)
(-0.038174808 -0.069945333 0)
(-0.030077211 -0.072832398 0)
(-0.021691727 -0.075021784 0)
(-0.01309865 -0.076492905 0)
(-0.0043802304 -0.07723194 0)
(0.0043801021 -0.077231945 0)
(0.013098523 -0.076492922 0)
(0.021691602 -0.075021811 0)
(0.03007709 -0.072832435 0)
(0.038174693 -0.06994538 0)
(0.04590683 -0.066387811 0)
(0.053199369 -0.062193237 0)
(0.059982328 -0.057401216 0)
(0.066190542 -0.052057001 0)
(0.071764284 -0.046211137 0)
(0.076649835 -0.039919006 0)
(0.080800001 -0.033240325 0)
(0.084174568 -0.026238603 0)
(0.086740694 -0.018980555 0)
(0.08847323 -0.011535492 0)
(0.089354973 -0.0039746732 0)
(0.089376848 0.0036293548 0)
(0.088538015 0.011203443 0)
(0.0868459 0.018674536 0)
(0.084316151 0.025970372 0)
(0.080972522 0.033020189 0)
(0.076846665 0.039755423 0)
(0.071977861 0.046110392 0)
(0.066412661 0.052022964 0)
(0.060204455 0.057435195 0)
(0.053412971 0.062293926 0)
(0.046103702 0.06655134 0)
(0.038347274 0.070165465 0)
(0.030218751 0.073100619 0)
(0.021796903 0.075327788 0)
(0.013163421 0.076824936 0)
(0.0044021076 0.077577238 0)
(-0.0047470799 0.086672848 0)
(-0.014195277 0.085832211 0)
(-0.023505566 0.084159264 0)
(-0.032587542 0.081670588 0)
(-0.041353083 0.078390827 0)
(-0.049717226 0.074352432 0)
(-0.057599013 0.069595306 0)
(-0.064922284 0.064166382 0)
(-0.071616429 0.058119124 0)
(-0.077617064 0.051512964 0)
(-0.08286665 0.044412674 0)
(-0.087315033 0.036887694 0)
(-0.090919905 0.029011421 0)
(-0.093647181 0.020860459 0)
(-0.095471293 0.012513856 0)
(-0.096375404 0.0040523211 0)
(-0.096351531 -0.0044425552 0)
(-0.095400593 -0.012889086 0)
(-0.093532372 -0.021206259 0)
(-0.090765402 -0.029314495 0)
(-0.087126775 -0.03713639 0)
(-0.082651874 -0.04459743 0)
(-0.077384027 -0.051626675 0)
(-0.07137409 -0.058157415 0)
(-0.064679958 -0.064127777 0)
(-0.057366014 -0.069481284 0)
(-0.049502513 -0.074167371 0)
(-0.041164909 -0.078141834 0)
(-0.032433142 -0.081367227 0)
(-0.023390877 -0.08381319 0)
(-0.01412471 -0.085456719 0)
(-0.0047233518 -0.086282366 0)
(0.0047232134 -0.086282372 0)
(0.014124573 -0.085456738 0)
(0.023390743 -0.083813221 0)
(0.032433012 -0.081367269 0)
(0.041164785 -0.078141887 0)
(0.049502395 -0.074167435 0)
(0.057365905 -0.069481358 0)
(0.064679857 -0.06412786 0)
(0.071373999 -0.058157507 0)
(0.077383948 -0.051626774 0)
(0.082651807 -0.044597535 0)
(0.08712672 -0.037136502 0)
(0.090765359 -0.029314611 0)
(0.093532343 -0.021206379 0)
(0.095400578 -0.012889208 0)
(0.09635153 -0.0044426788 0)
(0.096375417 0.0040521971 0)
(0.09547132 0.012513732 0)
(0.093647222 0.020860338 0)
(0.090919961 0.029011302 0)
(0.087315103 0.03688758 0)
(0.082866732 0.044412565 0)
(0.077617158 0.051512861 0)
(0.071616535 0.058119029 0)
(0.064922402 0.064166294 0)
(0.05759914 0.069595228 0)
(0.049717363 0.074352365 0)
(0.041353227 0.078390771 0)
(0.032587693 0.081670543 0)
(0.023505721 0.084159232 0)
(0.014195435 0.085832191 0)
(0.0047472397 0.086672841 0)
(-0.0051627408 0.096520079 0)
(-0.015438213 0.095583756 0)
(-0.025563642 0.093720395 0)
(-0.035440669 0.090948482 0)
(-0.044973428 0.087295497 0)
(-0.054069498 0.082797617 0)
(-0.062640823 0.077499328 0)
(-0.070604583 0.071452948 0)
(-0.077884001 0.064718071 0)
(-0.084409091 0.057360926 0)
(-0.090117321 0.04945369 0)
(-0.0949542 0.041073722 0)
(-0.098873776 0.032302773 0)
(-0.10183904 0.023226151 0)
(-0.10382223 0.013931865 0)
(-0.1048051 0.0045097608 0)
(-0.10477897 -0.0049493498 0)
(-0.10374485 -0.014354552 0)
(-0.10171338 -0.023615683 0)
(-0.098704674 -0.032644173 0)
(-0.094748156 -0.041353863 0)
(-0.089882256 -0.049661802 0)
(-0.084154042 -0.057489006 0)
(-0.077618772 -0.06476119 0)
(-0.070339369 -0.071409445 0)
(-0.062385819 -0.077370868 0)
(-0.053834506 -0.082589132 0)
(-0.044767482 -0.087014994 0)
(-0.035271687 -0.090606735 0)
(-0.025438121 -0.093330532 0)
(-0.015360981 -0.095160755 0)
(-0.0051367702 -0.096080191 0)
(0.0051366205 -0.096080198 0)
(0.015360833 -0.095160775 0)
(0.025437976 -0.093330566 0)
(0.035271547 -0.090606782 0)
(0.044767348 -0.087015053 0)
(0.053834379 -0.082589204 0)
(0.062385701 -0.077370951 0)
(0.070339261 -0.071409538 0)
(0.077618675 -0.064761292 0)
(0.084153956 -0.057489116 0)
(0.089882183 -0.04966192 0)
(0.094748097 -0.041353988 0)
(0.098704628 -0.032644303 0)
(0.10171335 -0.023615817 0)
(0.10374484 -0.014354688 0)
(0.10477897 -0.0049494879 0)
(0.10480511 0.0045096221 0)
(0.10382226 0.013931727 0)
(0.10183908 0.023226015 0)
(0.098873835 0.03230264 0)
(0.094954274 0.041073593 0)
(0.090117409 0.049453567 0)
(0.084409192 0.057360811 0)
(0.077884115 0.064717963 0)
(0.070604709 0.07145285 0)
(0.062640961 0.07749924 0)
(0.054069645 0.082797541 0)
(0.044973584 0.087295433 0)
(0.035440831 0.090948432 0)
(0.025563809 0.093720359 0)
(0.015438384 0.095583734 0)
(0.0051629135 0.096520072 0)
(-0.005664768 0.10727432 0)
(-0.016939408 0.10623346 0)
(-0.028049352 0.10416206 0)
(-0.038886642 0.10108071 0)
(-0.049346058 0.097019983 0)
(-0.059326174 0.092020143 0)
(-0.068730365 0.086130693 0)
(-0.077467763 0.079409846 0)
(-0.085454151 0.071923901 0)
(-0.092612773 0.063746532 0)
(-0.098875069 0.054958008 0)
(-0.10418131 0.045644347 0)
(-0.10848115 0.035896427 0)
(-0.11173403 0.025809055 0)
(-0.11390958 0.015480019 0)
(-0.11498779 0.0050091245 0)
(-0.11495919 -0.005502764 0)
(-0.11382486 -0.015954676 0)
(-0.11159646 -0.026246478 0)
(-0.10829601 -0.036279796 0)
(-0.10395573 -0.045958921 0)
(-0.098617721 -0.055191692 0)
(-0.092333549 -0.063890341 0)
(-0.085163784 -0.071972302 0)
(-0.077177415 -0.079360972 0)
(-0.068451195 -0.085986416 0)
(-0.059068914 -0.091786 0)
(-0.049120597 -0.096704966 0)
(-0.038701647 -0.10069692 0)
(-0.027911937 -0.10372424 0)
(-0.016854858 -0.10575842 0)
(-0.0056363351 -0.10678032 0)
(0.0056361729 -0.10678033 0)
(0.016854697 -0.10575844 0)
(0.02791178 -0.10372427 0)
(0.038701495 -0.10069697 0)
(0.049120451 -0.096705032 0)
(0.059068777 -0.09178608 0)
(0.068451067 -0.085986508 0)
(0.077177298 -0.079361076 0)
(0.085163679 -0.071972416 0)
(0.092333456 -0.063890464 0)
(0.098617642 -0.055191824 0)
(0.10395567 -0.04595906 0)
(0.10829596 -0.03627994 0)
(0.11159643 -0.026246627 0)
(0.11382485 -0.015954828 0)
(0.11495918 -0.0055029177 0)
(0.11498781 0.0050089701 0)
(0.11390961 0.015479866 0)
(0.11173408 0.025808904 0)
(0.10848121 0.035896279 0)
(0.10418139 0.045644203 0)
(0.098875162 0.05495787 0)
(0.092612881 0.063746402 0)
(0.085454274 0.071923781 0)
(0.077467899 0.079409736 0)
(0.068730513 0.086130595 0)
(0.059326333 0.092020058 0)
(0.049346226 0.097019912 0)
(0.038886817 0.10108065 0)
(0.028049534 0.10416202 0)
(0.016939594 0.10623343 0)
(0.0056649552 0.10727431 0)
(-0.0062708498 0.11912482 0)
(-0.018751757 0.11796872 0)
(-0.031050291 0.115668 0)
(-0.043046908 0.11224556 0)
(-0.054625107 0.10773539 0)
(-0.065672592 0.10218227 0)
(-0.076082394 0.095641252 0)
(-0.085753934 0.088177053 0)
(-0.094594007 0.079863379 0)
(-0.10251769 0.070782121 0)
(-0.10944913 0.06102248 0)
(-0.1153223 0.050680024 0)
(-0.12008151 0.03985569 0)
(-0.12368196 0.028654748 0)
(-0.12609007 0.017185747 0)
(-0.12728374 0.0055594481 0)
(-0.1272525 -0.0061122321 0)
(-0.12599754 -0.017717271 0)
(-0.12353171 -0.029144572 0)
(-0.11987932 -0.040284978 0)
(-0.11507595 -0.05103227 0)
(-0.10916809 -0.061284141 0)
(-0.10221276 -0.070943134 0)
(-0.094276916 -0.079917551 0)
(-0.085436865 -0.088122293 0)
(-0.075777535 -0.095479658 0)
(-0.065391659 -0.10192004 0)
(-0.0543789 -0.1073826 0)
(-0.042844892 -0.11181575 0)
(-0.030900232 -0.11517769 0)
(-0.018659427 -0.11743673 0)
(-0.0062398003 -0.1185716 0)
(0.0062396238 -0.11857161 0)
(0.018659252 -0.11743676 0)
(0.030900061 -0.11517773 0)
(0.042844727 -0.11181581 0)
(0.054378742 -0.10738267 0)
(0.06539151 -0.10192013 0)
(0.075777396 -0.09547976 0)
(0.085436738 -0.088122409 0)