/*--------------------------------*- C++ -*----------------------------------*\
| =========                 |                                                 |
| \\      /  F ield         | OpenFOAM: The Open Source CFD Toolbox           |
|  \\    /   O peration     | Version:  2306                                  |
|   \\  /    A nd           | Website:  www.openfoam.com                      |
|    \\/     M anipulation  |                                                 |
\*---------------------------------------------------------------------------*/
FoamFile
{
    version     2.0;
    format      ascii;
    arch        "LSB;label=32;scalar=64";
    class       volVectorField;
    location    "0.07";
    object      U_0;
}
// * * * * * * * * * * * * * * * * * * * * * * * * * * * * * * * * * * * * * //

dimensions      [0 1 -1 0 0 0 0];

internalField   nonuniform List<vector> 
6400
(
(2.1108575e-05 2.3879575e-05 1.3108381e-21)
(2.1686838e-05 2.329618e-05 7.6311098e-22)
(2.2241259e-05 2.2688193e-05 -1.4838118e-21)
(2.277144e-05 2.2057066e-05 -2.9133575e-22)
(2.3276839e-05 2.1403756e-05 7.0569531e-22)
(2.3756955e-05 2.0729288e-05 -2.9416854e-22)
(2.4211355e-05 2.0034839e-05 -2.7221041e-22)
(2.4639577e-05 1.9321684e-05 -6.592848e-22)
(2.5041355e-05 1.8591088e-05 1.6237322e-22)
(2.5416427e-05 1.7843972e-05 3.2791754e-22)
(2.5764559e-05 1.708152e-05 -2.3047239e-22)
(2.6085557e-05 1.6305075e-05 2.218394e-22)
(2.6379303e-05 1.5515839e-05 -8.6625826e-22)
(2.6645768e-05 1.4714719e-05 -3.3270012e-22)
(2.6884846e-05 1.3902971e-05 3.1896655e-22)
(2.7096498e-05 1.3081657e-05 -3.4561441e-22)
(2.7280641e-05 1.2251798e-05 -9.6459003e-23)
(2.7437316e-05 1.1414739e-05 -4.7592128e-22)
(2.7566686e-05 1.0571338e-05 2.1222853e-22)
(2.7668924e-05 9.7229626e-06 -1.309414e-22)
(2.7744306e-05 8.870438e-06 -1.7473603e-22)
(2.7792909e-05 8.0149175e-06 -8.4615455e-23)
(2.7814864e-05 7.157243e-06 -2.9895823e-22)
(2.7810558e-05 6.298667e-06 -9.8444812e-23)
(2.7780303e-05 5.4400781e-06 -1.9856842e-22)
(2.7724314e-05 4.5821252e-06 -2.9491958e-22)
(2.7642886e-05 3.7259474e-06 -1.7507548e-22)
(2.7536432e-05 2.8726378e-06 -5.4746912e-23)
(2.7405351e-05 2.0228641e-06 2.8522272e-22)
(2.7250014e-05 1.1774338e-06 -4.8779055e-22)
(2.7070785e-05 3.3750562e-07 -5.0381579e-22)
(2.6868112e-05 -4.9645474e-07 1.2311246e-22)
(2.6642522e-05 -1.3233397e-06 7.976387e-22)
(2.6394483e-05 -2.1426017e-06 -6.865034e-23)
(2.6124408e-05 -2.9534458e-06 -7.1186907e-22)
(2.5832876e-05 -3.755084e-06 -3.899311e-22)
(2.5520371e-05 -4.5469281e-06 3.062795e-22)
(2.5187329e-05 -5.3283e-06 4.9259646e-22)
(2.4834347e-05 -6.0986419e-06 -6.8662467e-23)
(2.4461955e-05 -6.8570975e-06 -9.8597435e-22)
(2.4070658e-05 -7.6032442e-06 -1.918179e-22)
(2.3661105e-05 -8.3363403e-06 5.0160502e-22)
(2.3233923e-05 -9.0560006e-06 2.9654415e-22)
(2.278956e-05 -9.7616259e-06 -9.8494611e-23)
(2.2328598e-05 -1.0452719e-05 -5.9740748e-22)
(2.185164e-05 -1.1128705e-05 -4.901614e-22)
(2.1359253e-05 -1.1789387e-05 2.1634607e-22)
(2.0852124e-05 -1.2434181e-05 5.1179015e-22)
(2.0330748e-05 -1.3062632e-05 -9.437973e-23)
(1.979567e-05 -1.3674265e-05 -1.9432836e-22)
(1.9247577e-05 -1.4268991e-05 -3.7218985e-22)
(1.86871e-05 -1.4846055e-05 -7.0928917e-24)
(1.8114797e-05 -1.5405451e-05 6.100101e-22)
(1.7531218e-05 -1.5946789e-05 -3.7286538e-23)
(1.6937027e-05 -1.646974e-05 -5.6204333e-22)
(1.6332812e-05 -1.6974137e-05 -2.8610817e-22)
(1.5719116e-05 -1.7459473e-05 1.2121257e-22)
(1.5096592e-05 -1.7925887e-05 5.8332696e-22)
(1.4465851e-05 -1.8372814e-05 -2.5435656e-22)
(1.3827455e-05 -1.8800193e-05 -6.7038329e-22)
(1.3181981e-05 -1.9207877e-05 -2.8995617e-22)
(1.253006e-05 -1.959578e-05 1.9193738e-23)
(1.1872243e-05 -1.99636e-05 6.8201505e-22)
(1.1209049e-05 -2.031124e-05 7.5668742e-23)
(1.054108e-05 -2.0638695e-05 -5.6405599e-22)
(9.8689771e-06 -2.0945595e-05 -3.1360034e-22)
(9.1933573e-06 -2.1232108e-05 -9.4470452e-23)
(8.5146979e-06 -2.1498189e-05 5.4449032e-22)
(7.833549e-06 -2.1743682e-05 5.3087889e-23)
(7.1504448e-06 -2.1968663e-05 -5.4903789e-22)
(6.4659257e-06 -2.2173051e-05 -3.4766588e-23)
(5.780629e-06 -2.2356709e-05 1.3522711e-23)
(5.0951282e-06 -2.251966e-05 3.6363385e-22)
(4.4099553e-06 -2.2662118e-05 -2.5034197e-23)
(3.7255511e-06 -2.2783964e-05 -4.2905459e-22)
(3.0424341e-06 -2.288537e-05 -9.0955109e-24)
(2.3612535e-06 -2.2966294e-05 9.0707411e-23)
(1.6823965e-06 -2.3026949e-05 1.9671544e-22)
(1.0058874e-06 -2.3067781e-05 -2.139524e-22)
(3.3332607e-07 -2.3090242e-05 -3.4738853e-22)
(2.0547182e-05 2.3043746e-05 -7.4603734e-22)
(2.1101009e-05 2.2479426e-05 -1.2066974e-22)
(2.1632042e-05 2.1891563e-05 1.2551117e-22)
(2.2139845e-05 2.1281403e-05 -1.2446251e-21)
(2.2624012e-05 2.0649869e-05 -3.0716049e-22)
(2.3084084e-05 1.9997921e-05 -3.0334668e-22)
(2.3519511e-05 1.9326925e-05 -6.2394597e-22)
(2.3929865e-05 1.8637907e-05 8.1394198e-22)
(2.4314944e-05 1.7931972e-05 -7.4374263e-22)
(2.4674553e-05 1.7210154e-05 -7.9020265e-23)
(2.5008309e-05 1.6473566e-05 1.8813128e-22)
(2.5315952e-05 1.5723369e-05 2.0326718e-22)
(2.5597506e-05 1.4960635e-05 1.9017643e-22)
(2.5852899e-05 1.4186452e-05 -9.847833e-22)
(2.6082004e-05 1.3402019e-05 7.7356081e-23)
(2.6284791e-05 1.260842e-05 -1.5613171e-22)
(2.646122e-05 1.1806596e-05 8.4145579e-23)
(2.6611288e-05 1.0997745e-05 5.7952903e-22)
(2.673508e-05 1.0182748e-05 -9.1250646e-22)
(2.6832771e-05 9.3626636e-06 -9.6175464e-23)
(2.6904527e-05 8.538415e-06 5.0084329e-23)
(2.6950535e-05 7.711297e-06 -2.2974804e-22)
(2.6970913e-05 6.881925e-06 5.7914551e-22)
(2.6965939e-05 6.0515092e-06 -5.731629e-22)
(2.6936086e-05 5.2209372e-06 4.2570576e-23)
(2.6881471e-05 4.3911211e-06 -4.175608e-23)
(2.6802269e-05 3.562973e-06 1.6771984e-22)
(2.6698859e-05 2.7374375e-06 4.4737469e-22)
(2.6571673e-05 1.9152266e-06 -4.1610342e-22)
(2.6421042e-05 1.097165e-06 2.8098399e-22)
(2.6247347e-05 2.84336e-07 6.5131068e-22)
(2.6051085e-05 -5.2287295e-07 1.9213144e-22)
(2.5832618e-05 -1.3234046e-06 -1.0211781e-22)
(2.5592435e-05 -2.1166163e-06 -8.0929148e-22)
(2.5331011e-05 -2.9017919e-06 4.3689846e-22)
(2.504874e-05 -3.6781528e-06 6.3698105e-22)
(2.4746129e-05 -4.4450679e-06 9.8227037e-23)
(2.4423745e-05 -5.2019138e-06 -1.8894543e-22)
(2.4082027e-05 -5.9481055e-06 -2.9622583e-22)
(2.3721474e-05 -6.6828546e-06 1.223915e-22)
(2.3342642e-05 -7.4058165e-06 1.9709781e-22)
(2.2946088e-05 -8.1163312e-06 3.2586628e-22)
(2.2532345e-05 -8.8138509e-06 1.0590998e-23)
(2.2101979e-05 -9.4978571e-06 -2.4860723e-22)
(2.1655518e-05 -1.0167777e-05 1.4333285e-22)
(2.1193536e-05 -1.0823192e-05 5.545049e-22)
(2.0716638e-05 -1.1463764e-05 7.297318e-22)
(2.0225339e-05 -1.2089001e-05 8.9315883e-24)
(1.972014e-05 -1.269838e-05 -4.4863161e-22)
(1.9201686e-05 -1.3291648e-05 5.5690574e-22)
(1.8670586e-05 -1.3868482e-05 5.0831046e-22)
(1.8127353e-05 -1.4428338e-05 1.7141639e-22)
(1.757267e-05 -1.4971113e-05 2.2756733e-22)
(1.7007114e-05 -1.549631e-05 6.5674593e-24)
(1.6431173e-05 -1.6003765e-05 5.2862349e-23)
(1.5845419e-05 -1.649322e-05 2.7599724e-22)
(1.5250454e-05 -1.6964227e-05 3.21226e-22)
(1.4646844e-05 -1.7416891e-05 3.6076847e-22)
(1.4035167e-05 -1.7850742e-05 -6.6442523e-23)
(1.341605e-05 -1.8265711e-05 7.2322579e-23)
(1.2790098e-05 -1.8661481e-05 2.8872665e-22)
(1.2157847e-05 -1.9038098e-05 1.1880393e-22)
(1.1519781e-05 -1.9395088e-05 2.3312168e-22)
(1.087645e-05 -1.9732585e-05 2.6101951e-22)
(1.0228503e-05 -2.0050519e-05 2.7136939e-22)
(9.5765616e-06 -2.0348714e-05 2.0474317e-22)
(8.9211134e-06 -2.0626958e-05 6.6064823e-23)
(8.2626453e-06 -2.0885376e-05 1.7924334e-22)
(7.6017498e-06 -2.1123754e-05 2.7045207e-23)
(6.9389813e-06 -2.1342171e-05 3.0705511e-23)
(6.2748221e-06 -2.154054e-05 3.1117972e-22)
(5.6098182e-06 -2.1718965e-05 2.9737241e-22)
(4.9445984e-06 -2.1877336e-05 3.4315559e-22)
(4.2796788e-06 -2.2015761e-05 2.1517309e-22)
(3.615529e-06 -2.2134118e-05 1.0703943e-22)
(2.9526407e-06 -2.2232594e-05 1.4863457e-23)
(2.291592e-06 -2.2311271e-05 2.3523647e-22)
(1.6327597e-06 -2.2370192e-05 2.8978631e-22)
(9.7623717e-07 -2.2409868e-05 7.5737395e-24)
(3.2353882e-07 -2.2431642e-05 -1.5534381e-22)
(2.0003973e-05 2.2239188e-05 7.1813346e-22)
(2.0534321e-05 2.1693115e-05 9.9578763e-22)
(2.1042868e-05 2.1124479e-05 1.2137792e-21)
(2.1529165e-05 2.0534416e-05 1.4929649e-21)
(2.1992958e-05 1.9923803e-05 1.281279e-21)
(2.2433709e-05 1.9293575e-05 3.7018171e-22)
(2.2850824e-05 1.8644915e-05 4.8014112e-23)
(2.3243952e-05 1.7978977e-05 1.0791563e-21)
(2.361293e-05 1.7296713e-05 8.6886844e-22)
(2.3957564e-05 1.6599084e-05 9.5817885e-22)
(2.427746e-05 1.5887278e-05 8.9549316e-22)
(2.4572341e-05 1.5162341e-05 4.3665284e-22)
(2.4842102e-05 1.4425288e-05 5.9059184e-22)
(2.5086726e-05 1.3677081e-05 9.4092691e-22)
(2.5306171e-05 1.2918888e-05 1.3127169e-21)
(2.5500278e-05 1.2151818e-05 3.4156923e-22)
(2.5669062e-05 1.1376794e-05 -7.1006861e-23)
(2.5812613e-05 1.0594909e-05 5.0341118e-22)
(2.5931008e-05 9.8070634e-06 5.2730537e-22)
(2.6024367e-05 9.0141986e-06 1.1165225e-21)
(2.6092735e-05 8.2174085e-06 1.0684887e-23)
(2.6136224e-05 7.4175659e-06 -2.1872308e-22)
(2.6155097e-05 6.6155756e-06 1.2601403e-22)
(2.6149552e-05 5.8125518e-06 3.5993399e-22)
(2.611982e-05 5.00917e-06 9.7263028e-22)
(2.6066223e-05 4.2064174e-06 5.4430287e-23)
(2.5988954e-05 3.4052666e-06 -2.2896393e-22)
(2.5888398e-05 2.6065214e-06 9.8712979e-23)
(2.5764925e-05 1.8109474e-06 1.904037e-23)
(2.5618772e-05 1.0193458e-06 2.7512909e-22)
(2.5450395e-05 2.3246754e-07 -5.6091771e-22)
(2.5260254e-05 -5.4884216e-07 -2.5506532e-22)
(2.5048681e-05 -1.3238111e-06 2.3014467e-22)
(2.481603e-05 -2.0917535e-06 3.4974891e-22)
(2.4562765e-05 -2.8520393e-06 4.5798299e-22)
(2.4289366e-05 -3.603884e-06 -3.3729045e-22)
(2.3996306e-05 -4.3466607e-06 -4.4413244e-22)
(2.3684051e-05 -5.0798453e-06 2.1141868e-22)
(2.3353122e-05 -5.8026964e-06 6.0839271e-23)
(2.3003981e-05 -6.5145656e-06 2.7473542e-22)
(2.2637139e-05 -7.2150398e-06 -2.6155059e-22)
(2.2253132e-05 -7.9035252e-06 -3.1420125e-22)
(2.1852453e-05 -8.5795594e-06 2.6467906e-23)
(2.143561e-05 -9.2426396e-06 2.0713893e-22)
(2.1003071e-05 -9.8919561e-06 2.0182923e-22)
(2.0555455e-05 -1.0527376e-05 -2.4647385e-22)
(2.0093406e-05 -1.1148492e-05 -2.1164533e-22)
(1.961742e-05 -1.1754767e-05 3.5730618e-23)
(1.912796e-05 -1.2345752e-05 -9.189206e-23)
(1.8625556e-05 -1.2921127e-05 2.3939884e-22)
(1.8110843e-05 -1.348056e-05 -7.4086016e-23)
(1.7584452e-05 -1.4023608e-05 -4.4059711e-22)
(1.7046821e-05 -1.4550245e-05 -8.0153987e-23)
(1.6498548e-05 -1.5059846e-05 7.2030604e-23)
(1.5940236e-05 -1.5552179e-05 1.3056529e-22)
(1.5372344e-05 -1.6027017e-05 -1.3742817e-22)
(1.4795504e-05 -1.6484122e-05 -3.6143719e-22)
(1.4210269e-05 -1.6923393e-05 -1.0344795e-22)
(1.3617186e-05 -1.7344523e-05 -7.7785752e-23)
(1.301681e-05 -1.7747313e-05 9.3332241e-23)
(1.2409726e-05 -1.8131523e-05 -5.559039e-23)
(1.1796486e-05 -1.8497116e-05 -5.9418112e-22)
(1.1177574e-05 -1.8843671e-05 -5.6629244e-23)
(1.0553584e-05 -1.9171366e-05 -2.577142e-23)
(9.9250768e-06 -1.9480039e-05 1.1413366e-22)
(9.2925944e-06 -1.9769566e-05 2.0497763e-23)
(8.6566504e-06 -2.0039765e-05 -5.0221387e-22)
(8.0177951e-06 -2.029075e-05 -9.7061932e-23)
(7.3765687e-06 -2.0522283e-05 -1.316386e-22)
(6.733483e-06 -2.07344e-05 2.0326805e-23)
(6.0890756e-06 -2.0926988e-05 8.5822572e-23)
(5.4438971e-06 -2.1100293e-05 -1.5596595e-22)
(4.7984901e-06 -2.1254157e-05 -9.7471344e-23)
(4.1533024e-06 -2.1388586e-05 -8.5582431e-23)
(3.5087543e-06 -2.1503536e-05 3.2230134e-23)
(2.86543e-06 -2.1599179e-05 -8.1603672e-23)
(2.2238931e-06 -2.1675579e-05 -2.551014e-22)
(1.5844808e-06 -2.1732814e-05 -8.4969449e-23)
(9.4738979e-07 -2.1771354e-05 -2.12775e-22)
(3.1400588e-07 -2.1792453e-05 -1.7190352e-22)
(1.9478223e-05 2.1464817e-05 -1.1915753e-21)
(1.9985966e-05 2.0936277e-05 5.5982027e-24)
(2.047278e-05 2.03861e-05 3.6978454e-22)
(2.0938454e-05 1.9815189e-05 -1.8218986e-21)
(2.1382679e-05 1.9224511e-05 -2.0718779e-21)
(2.1804825e-05 1.8615117e-05 -1.4202333e-21)
(2.2204364e-05 1.7988037e-05 -2.3472733e-23)
(2.2580983e-05 1.7344159e-05 1.8370825e-22)
(2.2934495e-05 1.6684447e-05 -1.4247361e-21)
(2.3264607e-05 1.6010041e-05 -1.4914735e-21)
(2.3571021e-05 1.5322064e-05 -5.3645727e-22)
(2.3853503e-05 1.4621393e-05 1.6594108e-22)
(2.411195e-05 1.3908947e-05 -1.3300428e-22)
(2.4346292e-05 1.3185753e-05 -9.1061377e-22)
(2.4556358e-05 1.2452897e-05 -9.1124492e-22)
(2.4742071e-05 1.1711399e-05 -5.5633592e-22)
(2.4903485e-05 1.0962134e-05 1.4653904e-22)
(2.5040726e-05 1.0206119e-05 -1.1157182e-22)
(2.5153772e-05 9.444306e-06 -8.6895818e-22)
(2.524261e-05 8.6775747e-06 -5.3608706e-22)
(2.5307424e-05 7.9072066e-06 -3.7647768e-22)
(2.5348427e-05 7.1337638e-06 3.7917752e-22)
(2.536575e-05 6.3581454e-06 -2.7105608e-22)
(2.535953e-05 5.5814701e-06 -7.3043493e-22)
(2.5329991e-05 4.804419e-06 -2.2709962e-22)
(2.5277395e-05 4.0278861e-06 -9.0905626e-24)
(2.5202032e-05 3.2528503e-06 3.7674687e-22)
(2.5104169e-05 2.4798914e-06 -2.6000791e-23)
(2.4984122e-05 1.7099679e-06 -6.7892615e-22)
(2.4842315e-05 9.4385483e-07 -6.3284225e-23)
(2.4679053e-05 1.8222512e-07 5.8309096e-22)
(2.4494623e-05 -5.7415317e-07 7.8685364e-22)
(2.4289463e-05 -1.3244094e-06 -7.9340233e-22)
(2.4064011e-05 -2.0679338e-06 -5.9780625e-22)
(2.3818708e-05 -2.8040888e-06 4.0783936e-22)
(2.3553929e-05 -3.5321715e-06 5.5000698e-22)
(2.3270061e-05 -4.2515804e-06 1.5358311e-22)
(2.296755e-05 -4.9617334e-06 -4.4174999e-22)
(2.2646943e-05 -5.6619997e-06 -4.3219767e-22)
(2.2308798e-05 -6.3518004e-06 3.2167443e-22)
(2.195348e-05 -7.0305863e-06 6.2297643e-22)
(2.1581451e-05 -7.6977488e-06 2.5960856e-22)
(2.1193318e-05 -8.3528717e-06 -4.0459415e-22)
(2.0789499e-05 -8.9954509e-06 -2.9924041e-22)
(2.0370507e-05 -9.6248864e-06 3.9748353e-22)
(1.9936905e-05 -1.024097e-05 5.0808124e-22)
(1.9489152e-05 -1.0843208e-05 2.5393684e-22)
(1.9027877e-05 -1.1431034e-05 -3.2157169e-22)
(1.8553603e-05 -1.2004078e-05 -2.8551457e-22)
(1.806679e-05 -1.2562134e-05 2.2786454e-22)
(1.7567982e-05 -1.3104763e-05 4.5730256e-22)
(1.7057717e-05 -1.3631534e-05 2.0703303e-22)
(1.6536584e-05 -1.4142298e-05 -4.5485127e-22)
(1.6005073e-05 -1.4636676e-05 -1.5176328e-22)
(1.546375e-05 -1.511436e-05 5.7989706e-22)
(1.4913181e-05 -1.5575128e-05 5.3654957e-22)
(1.4353895e-05 -1.601878e-05 2.4824885e-22)
(1.3786459e-05 -1.6445022e-05 -3.1414751e-22)
(1.321141e-05 -1.6853701e-05 -2.0725971e-22)
(1.2629216e-05 -1.7244514e-05 5.5206937e-22)
(1.2040411e-05 -1.7617517e-05 6.6031368e-22)
(1.144561e-05 -1.7972408e-05 -1.4161092e-22)
(1.0845332e-05 -1.8308833e-05 -4.4045402e-22)
(1.0240099e-05 -1.8626977e-05 -3.8237259e-24)
(9.6304513e-06 -1.8926677e-05 4.6515327e-22)
(9.0169169e-06 -1.920781e-05 4.2586875e-22)
(8.3999641e-06 -1.9470058e-05 -7.7993501e-23)
(7.7801132e-06 -1.9713739e-05 -2.3719228e-22)
(7.1580134e-06 -1.9938585e-05 1.0665462e-22)
(6.5340893e-06 -2.0144603e-05 3.4327997e-22)
(5.9088027e-06 -2.0331748e-05 4.0193804e-22)
(5.2827573e-06 -2.0500101e-05 1.1752089e-22)
(4.6564363e-06 -2.0649441e-05 -2.4602054e-22)
(4.0303508e-06 -2.0779935e-05 1.9247338e-22)
(3.4049464e-06 -2.0891479e-05 3.4070187e-22)
(2.7807073e-06 -2.0984408e-05 1.6078321e-22)
(2.158112e-06 -2.1058662e-05 8.5243521e-23)
(1.5375752e-06 -2.1114341e-05 -7.416793e-23)
(9.1928029e-07 -2.1151767e-05 1.6575345e-23)
(3.0462918e-07 -2.1172166e-05 5.4223232e-23)
(1.896904e-05 2.0719617e-05 -1.9223882e-21)
(1.9455114e-05 2.0207812e-05 -1.9281632e-21)
(1.9921208e-05 1.967525e-05 -1.1630571e-21)
(2.0367103e-05 1.9122698e-05 -7.2300153e-22)
(2.079246e-05 1.8551139e-05 -1.4911172e-21)
(2.1196609e-05 1.7961604e-05 -1.7060098e-21)
(2.1579191e-05 1.735514e-05 -1.6384355e-21)
(2.1939964e-05 1.6732489e-05 -3.8890351e-22)
(2.2278538e-05 1.6094569e-05 8.0326062e-22)
(2.2594641e-05 1.544249e-05 -1.2885322e-21)
(2.2888064e-05 1.4777284e-05 -1.8455036e-21)
(2.3158589e-05 1.4099836e-05 -1.4731938e-21)
(2.3406081e-05 1.3410987e-05 -7.3676273e-22)
(2.3630419e-05 1.2711834e-05 3.3587113e-22)
(2.383146e-05 1.2003276e-05 -8.3449314e-22)
(2.4009149e-05 1.1286376e-05 -1.0300698e-21)
(2.4163519e-05 1.0561958e-05 -9.1136576e-22)
(2.4294607e-05 9.8309695e-06 -7.4202911e-22)
(2.4402413e-05 9.0943663e-06 6.1062122e-22)
(2.4486919e-05 8.3530021e-06 -5.3240327e-22)
(2.454824e-05 7.6079125e-06 -7.8503939e-22)
(2.4586647e-05 6.8597681e-06 -6.5285394e-22)
(2.4602326e-05 6.1095432e-06 -5.0875512e-22)
(2.459532e-05 5.3582301e-06 7.0448636e-22)
(2.456583e-05 4.6065352e-06 1.7551102e-23)
(2.4514194e-05 3.8551958e-06 -2.9317877e-22)
(2.4440664e-05 3.1053068e-06 -4.2155755e-22)
(2.4345391e-05 2.3574111e-06 -5.3597717e-22)
(2.4228635e-05 1.6123455e-06 4.8856951e-22)
(2.4090881e-05 8.7075394e-07 7.4656229e-23)
(2.3932443e-05 1.3362732e-07 -3.6280079e-22)
(2.375352e-05 -5.98603e-07 -6.2795086e-22)
(2.3554535e-05 -1.3249504e-06 -1.642092e-22)
(2.3335951e-05 -2.0449458e-06 9.8856101e-22)
(2.3098159e-05 -2.7578233e-06 3.908693e-22)
(2.284154e-05 -3.4629097e-06 -1.2611886e-22)
(2.256646e-05 -4.1596519e-06 -3.5166525e-22)
(2.2273381e-05 -4.8475086e-06 -9.3337089e-23)
(2.1962838e-05 -5.5259462e-06 7.3991071e-22)
(2.1635232e-05 -6.1942612e-06 6.0078855e-22)
(2.1290982e-05 -6.8519631e-06 2.5700112e-22)
(2.0930588e-05 -7.4985333e-06 -5.7554688e-22)
(2.0554509e-05 -8.1334469e-06 -2.5513152e-22)
(2.0163245e-05 -8.756222e-06 8.0945357e-22)
(1.9757281e-05 -9.3663686e-06 6.3946479e-22)
(1.933712e-05 -9.9636294e-06 -1.3290995e-22)
(1.8903286e-05 -1.0547461e-05 -3.0718206e-22)
(1.8456293e-05 -1.1117455e-05 2.1794417e-22)
(1.7996677e-05 -1.1673109e-05 5.5564993e-22)
(1.7524842e-05 -1.2214278e-05 6.2101366e-22)
(1.7041328e-05 -1.2740522e-05 1.6681091e-22)
(1.6546724e-05 -1.3251483e-05 -1.5637616e-22)
(1.6041569e-05 -1.3746994e-05 3.2957723e-23)
(1.5526392e-05 -1.4226603e-05 4.4334331e-22)
(1.5001658e-05 -1.4690023e-05 7.4867135e-22)
(1.4467852e-05 -1.5137024e-05 3.7903485e-22)
(1.3925484e-05 -1.5567496e-05 -2.3330838e-23)
(1.3375224e-05 -1.5981232e-05 5.2529918e-23)
(1.2817595e-05 -1.6377819e-05 3.0971736e-22)
(1.2253029e-05 -1.675711e-05 6.4023246e-22)
(1.1681998e-05 -1.7119095e-05 6.1425764e-22)
(1.1105009e-05 -1.7463539e-05 9.1512894e-23)
(1.0522755e-05 -1.7790115e-05 -2.4358593e-23)
(9.9357662e-06 -1.8098917e-05 1.7131658e-22)
(9.3444267e-06 -1.8389866e-05 4.7020477e-22)
(8.7492005e-06 -1.8662835e-05 4.393163e-22)
(8.1506635e-06 -1.8917458e-05 4.4345587e-23)
(7.5493846e-06 -1.9154028e-05 1.180123e-22)
(6.9458311e-06 -1.9372361e-05 3.5819338e-22)
(6.3404665e-06 -1.957233e-05 4.4646524e-22)
(5.7338024e-06 -1.9754018e-05 3.8046923e-22)
(5.1263633e-06 -1.9917491e-05 7.4914437e-23)
(4.5186188e-06 -2.0062533e-05 -1.2560058e-22)
(3.9110137e-06 -2.0189356e-05 2.1016518e-22)
(3.3041095e-06 -2.0297665e-05 5.7902858e-22)
(2.6984132e-06 -2.0387864e-05 4.5674673e-22)
(2.094327e-06 -2.045995e-05 9.2572428e-23)
(1.4922011e-06 -2.0514021e-05 -1.5945582e-23)
(8.9215231e-07 -2.0550461e-05 -5.890824e-23)
(2.9563065e-07 -2.0570235e-05 2.1892818e-23)
(1.8475856e-05 2.0002254e-05 -8.6520839e-22)
(1.894099e-05 1.9506479e-05 -1.7691424e-22)
(1.9387176e-05 1.8990758e-05 -5.8041136e-23)
(1.9814074e-05 1.8455841e-05 2.0237491e-23)
(2.0221305e-05 1.7902697e-05 2.5957729e-22)
(2.0608207e-05 1.7332251e-05 -1.5170179e-22)
(2.0974519e-05 1.6745434e-05 -5.1838743e-23)
(2.1319981e-05 1.6143136e-05 7.3146603e-22)
(2.1644218e-05 1.5526187e-05 4.2142077e-22)
(2.1946869e-05 1.489552e-05 -3.8794403e-23)
(2.222774e-05 1.4252182e-05 3.0248184e-23)
(2.2486702e-05 1.3597027e-05 -1.2921167e-22)
(2.2723578e-05 1.2930905e-05 -4.8850248e-23)
(2.2938213e-05 1.2254808e-05 -7.6390949e-24)
(2.3130459e-05 1.1569649e-05 9.1566971e-23)
(2.3300312e-05 1.0876342e-05 -4.0006387e-23)
(2.3447798e-05 1.0175807e-05 -1.7248227e-22)
(2.3572911e-05 9.4688758e-06 2.1480168e-22)
(2.367559e-05 8.7565675e-06 2.6036758e-22)
(2.3755862e-05 8.0396794e-06 -3.1553773e-22)
(2.3813942e-05 7.3189307e-06 2.1847613e-22)
(2.3849946e-05 6.5952438e-06 -1.6744587e-22)
(2.386393e-05 5.8695016e-06 1.2726517e-22)
(2.3856079e-05 5.1426749e-06 2.9467136e-23)
(2.3826656e-05 4.4153901e-06 -6.2221751e-23)
(2.3775868e-05 3.6883793e-06 2.5750313e-22)
(2.3703859e-05 2.9627526e-06 -3.8068906e-22)
(2.3610863e-05 2.2390399e-06 -9.329264e-23)
(2.3497284e-05 1.5179263e-06 2.7709582e-22)
(2.3363426e-05 8.0010772e-07 -5.4640019e-23)
(2.3209517e-05 8.6573409e-08 2.9025223e-22)
(2.3035907e-05 -6.2226003e-07 -3.8273792e-22)
(2.2842947e-05 -1.325508e-06 3.1106722e-22)
(2.2630986e-05 -2.0226517e-06 -4.6136374e-23)
(2.2400406e-05 -2.7129982e-06 -3.6184683e-22)
(2.2151615e-05 -3.3958952e-06 3.6087169e-22)
(2.1885075e-05 -4.0707557e-06 -2.6003857e-24)
(2.1601164e-05 -4.7370864e-06 -8.5124298e-23)
(2.1300253e-05 -5.3943678e-06 -2.4696491e-22)
(2.098277e-05 -6.0418044e-06 -4.4649151e-22)
(2.0649168e-05 -6.679088e-06 4.1484221e-22)
(2.029993e-05 -7.305647e-06 -8.7411056e-23)
(1.9935496e-05 -7.9209563e-06 -2.70511e-22)
(1.9556313e-05 -8.5245727e-06 -2.1478508e-22)
(1.9162922e-05 -9.1160258e-06 -2.5794198e-22)
(1.8755776e-05 -9.6949958e-06 -4.1443307e-23)
(1.8335293e-05 -1.0260974e-05 -4.7620778e-22)
(1.7902039e-05 -1.0813642e-05 -6.3136648e-23)
(1.7456567e-05 -1.1352533e-05 -1.2815695e-22)
(1.6999297e-05 -1.1877253e-05 -7.0960827e-23)
(1.6530662e-05 -1.2387604e-05 3.4834307e-23)
(1.605121e-05 -1.2883168e-05 -4.8733522e-22)
(1.5561494e-05 -1.3363888e-05 -1.3528329e-23)
(1.5061965e-05 -1.3829112e-05 -7.2490893e-23)
(1.4553152e-05 -1.4278708e-05 -2.5111587e-22)
(1.4035633e-05 -1.4712366e-05 1.2194856e-22)
(1.3509849e-05 -1.5129984e-05 -2.8259435e-22)
(1.2976236e-05 -1.5531454e-05 -1.4921284e-22)
(1.2435371e-05 -1.5916316e-05 -3.3910951e-22)
(1.1887835e-05 -1.6284464e-05 -4.0785992e-22)
(1.133407e-05 -1.6635712e-05 4.3449978e-23)
(1.0774515e-05 -1.696998e-05 -3.4838682e-22)
(1.0209761e-05 -1.7287032e-05 2.3533817e-23)
(9.6403734e-06 -1.7586783e-05 -1.0903707e-22)
(9.0667505e-06 -1.7869182e-05 -3.8369866e-22)
(8.4893106e-06 -1.8134097e-05 -3.4519423e-23)
(7.9086345e-06 -1.8381357e-05 -5.0226216e-22)
(7.3253296e-06 -1.8611055e-05 -7.274848e-23)
(6.7397477e-06 -1.8823004e-05 -1.3582165e-22)
(6.1523693e-06 -1.9017202e-05 -3.3659543e-22)
(5.5637867e-06 -1.9193559e-05 7.5683124e-23)
(4.9744266e-06 -1.9352232e-05 -3.5234284e-22)
(4.3847476e-06 -1.9493115e-05 -3.2601819e-22)
(3.7951708e-06 -1.9616237e-05 -2.2139816e-22)
(3.2062583e-06 -1.9721489e-05 -2.569737e-22)
(2.6185228e-06 -1.9809061e-05 3.7686432e-23)
(2.0323685e-06 -1.9879028e-05 -2.1421981e-22)
(1.4480991e-06 -1.9931506e-05 -2.3445538e-22)
(8.6578057e-07 -1.9966895e-05 -2.0974973e-22)
(2.8689607e-07 -1.9986102e-05 -1.6733104e-22)
(1.7997788e-05 1.931174e-05 1.2111481e-21)
(1.8442863e-05 1.883135e-05 -6.7544722e-22)
(1.8869949e-05 1.8331787e-05 -5.1604716e-22)
(1.927856e-05 1.7813708e-05 -3.2075064e-22)
(1.9668379e-05 1.7278188e-05 -5.1950004e-22)
(2.0038827e-05 1.6726038e-05 6.1139731e-22)
(2.0389542e-05 1.6158132e-05 -1.2139515e-21)
(2.0720246e-05 1.5575338e-05 -3.3626716e-23)
(2.1030634e-05 1.4978441e-05 -6.4172404e-23)
(2.1320352e-05 1.4368358e-05 -9.9652631e-23)
(2.1589164e-05 1.3746033e-05 8.1348739e-22)
(2.1836988e-05 1.3112294e-05 -6.7679714e-22)
(2.2063649e-05 1.2468054e-05 -2.2718083e-22)
(2.2268883e-05 1.1814167e-05 -4.8266668e-23)
(2.2452609e-05 1.1151527e-05 -2.5838669e-24)
(2.2614882e-05 1.048094e-05 4.1095647e-22)
(2.2755676e-05 9.8033598e-06 -6.4504342e-22)
(2.287486e-05 9.1195803e-06 -1.2205326e-23)
(2.2972549e-05 8.4305718e-06 -1.6181676e-22)
(2.3048851e-05 7.7371436e-06 -2.4684453e-22)
(2.3103687e-05 7.039943e-06 5.190458e-22)
(2.3137164e-05 6.3399266e-06 -5.8917083e-22)
(2.314947e-05 5.6377912e-06 1.3719091e-22)
(2.314081e-05 4.9345196e-06 1.8275807e-22)
(2.3111377e-05 4.2307873e-06 -8.1428568e-23)
(2.3061319e-05 3.5273407e-06 1.1780902e-22)
(2.2990785e-05 2.8251255e-06 -4.5644521e-22)
(2.2900077e-05 2.1247216e-06 5.6010896e-23)
(2.2789513e-05 1.4267026e-06 3.9729741e-22)
(2.2659333e-05 7.3190955e-07 2.1870742e-22)
(2.2509796e-05 4.1158098e-08 4.9785179e-22)
(2.2341178e-05 -6.4510201e-07 -4.0313379e-22)
(2.2153877e-05 -1.3260393e-06 -1.2030508e-22)
(2.1948281e-05 -2.0010293e-06 -6.0941488e-23)
(2.1724705e-05 -2.6696406e-06 2.652317e-22)
(2.1483503e-05 -3.3310308e-06 3.5868116e-22)
(2.122508e-05 -3.9847522e-06 -3.9363963e-22)
(2.0949842e-05 -4.6302109e-06 -1.3630643e-22)
(2.0658163e-05 -5.2669396e-06 2.7570327e-22)
(2.0350431e-05 -5.8941958e-06 1.7929244e-22)
(2.0027095e-05 -6.5116885e-06 8.8052729e-23)
(1.9688657e-05 -7.1188536e-06 -8.9144384e-23)
(1.933552e-05 -7.7151965e-06 3.7480642e-23)
(1.8968032e-05 -8.3001601e-06 2.1123841e-22)
(1.8586728e-05 -8.8735125e-06 2.0815129e-22)
(1.8192136e-05 -9.4347468e-06 3.0856956e-22)
(1.7784649e-05 -9.9834237e-06 8.1257395e-23)
(1.7364745e-05 -1.0519303e-05 1.6371494e-23)
(1.6932914e-05 -1.1041893e-05 1.6396463e-22)
(1.6489617e-05 -1.1550721e-05 4.5485311e-22)
(1.6035337e-05 -1.2045623e-05 6.5267142e-23)
(1.5570586e-05 -1.252626e-05 -2.534796e-22)
(1.5095796e-05 -1.299246e-05 2.3557427e-22)
(1.4611503e-05 -1.3443752e-05 3.8816752e-22)
(1.4118206e-05 -1.3879927e-05 2.4573232e-22)
(1.3616367e-05 -1.4300677e-05 -2.8168228e-24)
(1.3106488e-05 -1.4705844e-05 8.0734135e-23)
(1.2589033e-05 -1.5095262e-05 3.5924602e-22)
(1.206457e-05 -1.5468774e-05 2.2759632e-22)
(1.153356e-05 -1.5826037e-05 6.8595061e-23)
(1.099644e-05 -1.616688e-05 5.9671056e-23)
(1.0453733e-05 -1.6491326e-05 -1.7427919e-22)
(9.9059999e-06 -1.6799043e-05 2.5779154e-22)
(9.3536595e-06 -1.7090014e-05 4.2827189e-22)
(8.7971518e-06 -1.7364105e-05 2.9050042e-22)
(8.2370269e-06 -1.762124e-05 -1.144462e-23)
(7.6737812e-06 -1.7861229e-05 -9.5938735e-23)
(7.1078385e-06 -1.8084289e-05 2.9534308e-22)
(6.5396939e-06 -1.8290005e-05 2.8702678e-22)
(5.9698324e-06 -1.8478571e-05 1.3933086e-22)
(5.3987255e-06 -1.8649838e-05 1.493682e-23)
(4.826924e-06 -1.8803879e-05 1.5261524e-22)
(4.2547492e-06 -1.8940606e-05 3.5373294e-22)
(3.6826563e-06 -1.9060134e-05 3.24283e-22)
(3.1112506e-06 -1.9162394e-05 1.4597023e-22)
(2.5409569e-06 -1.9247429e-05 -1.5061495e-22)
(1.9721659e-06 -1.9315352e-05 1.2905328e-22)
(1.4051593e-06 -1.93663e-05 2.3884795e-22)
(8.4009921e-07 -1.9400638e-05 -9.761274e-24)
(2.7839449e-07 -1.9419287e-05 -1.4459663e-22)
(1.7534121e-05 1.8647236e-05 8.8936489e-22)
(1.7960116e-05 1.8181428e-05 1.8296564e-21)
(1.8368899e-05 1.7697323e-05 -7.3012709e-22)
(1.8760065e-05 1.7195408e-05 8.7464029e-22)
(1.9133096e-05 1.6676721e-05 2.8089314e-22)
(1.9487657e-05 1.6142078e-05 8.8021056e-22)
(1.9823359e-05 1.5592351e-05 8.3987513e-22)
(2.0139886e-05 1.5028255e-05 -5.2986636e-22)
(2.0436917e-05 1.4450644e-05 7.430341e-22)
(2.0714134e-05 1.3860337e-05 6.1679658e-23)
(2.0971357e-05 1.3258217e-05 9.3924672e-22)
(2.1208421e-05 1.2645083e-05 1.2310822e-21)
(2.1425118e-05 1.2021843e-05 -4.9209657e-22)
(2.1621321e-05 1.1389339e-05 5.5048492e-22)
(2.179694e-05 1.0748319e-05 -6.5564544e-23)
(2.1951932e-05 1.009962e-05 4.5123651e-22)
(2.2086213e-05 9.4441559e-06 8.2307978e-22)
(2.2199695e-05 8.7827423e-06 -2.3243163e-22)
(2.2292492e-05 8.1160476e-06 3.220922e-22)
(2.2364767e-05 7.4451848e-06 -8.2472116e-23)
(2.2416501e-05 6.7707808e-06 3.5771351e-22)
(2.2447647e-05 6.0935301e-06 8.298625e-22)
(2.2458365e-05 5.4141285e-06 -1.9717277e-22)
(2.2448864e-05 4.7335889e-06 3.5304147e-22)
(2.2419334e-05 4.0526072e-06 -2.759931e-22)
(2.2369905e-05 3.3718915e-06 3.4473921e-23)
(2.2300733e-05 2.6922361e-06 5.551165e-22)
(2.221215e-05 2.014332e-06 -1.6651999e-23)
(2.210441e-05 1.3387051e-06 2.4590719e-22)
(2.1977674e-05 6.6611312e-07 -6.4935867e-22)
(2.1832285e-05 -2.7060217e-09 -6.7983374e-22)
(2.1668547e-05 -6.6703958e-07 5.7433581e-22)
(2.1486724e-05 -1.3264047e-06 5.3504216e-22)
(2.1287222e-05 -1.9800695e-06 3.8781481e-22)
(2.1070355e-05 -2.627606e-06 -5.6284807e-22)
(2.08364e-05 -3.2681735e-06 -6.2463737e-22)
(2.0585803e-05 -3.9013711e-06 2.2288233e-22)
(2.0318945e-05 -4.5266555e-06 7.4913323e-22)
(2.0036097e-05 -5.1434432e-06 4.5194571e-22)
(1.9737729e-05 -5.7512402e-06 -6.0726846e-22)
(1.9424364e-05 -6.3495937e-06 -6.5044853e-22)
(1.9096316e-05 -6.937912e-06 5.2490592e-22)
(1.8753965e-05 -7.5158625e-06 7.7976835e-22)
(1.8397786e-05 -8.082795e-06 3.5019805e-22)
(1.8028248e-05 -8.6385665e-06 -5.9578731e-22)
(1.7645783e-05 -9.1826351e-06 -3.5832548e-22)
(1.7250821e-05 -9.7145579e-06 5.0660654e-22)
(1.6843807e-05 -1.0234114e-05 6.7353367e-22)
(1.6425159e-05 -1.07408e-05 1.083566e-22)
(1.5995371e-05 -1.1234193e-05 -4.42561e-22)
(1.5554957e-05 -1.1714147e-05 -4.111583e-22)
(1.5104382e-05 -1.2180333e-05 6.2072468e-23)
(1.4644078e-05 -1.2632403e-05 5.7034726e-22)
(1.4174527e-05 -1.30702e-05 2.0135536e-22)
(1.3696192e-05 -1.349329e-05 -4.381714e-22)
(1.3209545e-05 -1.3901455e-05 -3.2389487e-22)
(1.2715085e-05 -1.4294572e-05 1.0087518e-22)
(1.2213328e-05 -1.4672417e-05 6.8656877e-22)
(1.1704744e-05 -1.5034813e-05 1.5320527e-22)
(1.1189739e-05 -1.5381446e-05 -3.705447e-22)
(1.0668812e-05 -1.5712212e-05 -2.1310553e-22)
(1.014241e-05 -1.6027049e-05 -1.4190679e-22)
(9.6110605e-06 -1.6325729e-05 5.6459611e-22)
(9.0752821e-06 -1.6608151e-05 1.052844e-22)
(8.5354927e-06 -1.6874183e-05 -2.9244184e-22)
(7.9921578e-06 -1.7123784e-05 -8.6064086e-23)
(7.4457743e-06 -1.7356688e-05 -5.4389397e-23)
(6.8967339e-06 -1.7573193e-05 5.4034028e-22)
(6.3454916e-06 -1.7772888e-05 5.6298587e-23)
(5.7925998e-06 -1.7955911e-05 -2.8291536e-22)
(5.2385297e-06 -1.8122253e-05 -2.4953854e-23)
(4.6836816e-06 -1.827178e-05 1.1222159e-22)
(4.1284963e-06 -1.8404505e-05 4.9963342e-22)
(3.5734719e-06 -1.8520547e-05 1.7787587e-22)
(3.01901e-06 -1.8619855e-05 -1.4308619e-22)
(2.4656254e-06 -1.870244e-05 -8.7230985e-23)
(1.9137101e-06 -1.8768377e-05 1.6666411e-23)
(1.3635296e-06 -1.8817806e-05 3.6975573e-22)
(8.1518977e-07 -1.885112e-05 -7.7129657e-23)
(2.7009586e-07 -1.8869248e-05 -2.6647104e-22)
(1.7084573e-05 1.8007437e-05 -7.8287927e-22)
(1.7492294e-05 1.7555594e-05 2.3545003e-21)
(1.7883489e-05 1.7086251e-05 8.9663006e-23)
(1.8257789e-05 1.6599918e-05 -1.2332634e-21)
(1.8614753e-05 1.6097483e-05 2.2808333e-22)
(1.8954073e-05 1.5579657e-05 2.2468861e-22)
(1.9275313e-05 1.5047346e-05 1.8668447e-21)
(1.9578146e-05 1.4501203e-05 7.4877054e-23)
(1.9862306e-05 1.3942106e-05 -1.28751e-21)
(2.0127514e-05 1.3370799e-05 -1.0594019e-23)