/*--------------------------------*- C++ -*----------------------------------*\
| =========                 |                                                 |
| \\      /  F ield         | OpenFOAM: The Open Source CFD Toolbox           |
|  \\    /   O peration     | Version:  2306                                  |
|   \\  /    A nd           | Website:  www.openfoam.com                      |
|    \\/     M anipulation  |                                                 |
\*---------------------------------------------------------------------------*/
FoamFile
{
    version     2.0;
    format      ascii;
    arch        "LSB;label=32;scalar=64";
    class       volVectorField;
    location    "0.03";
    object      U;
}
// * * * * * * * * * * * * * * * * * * * * * * * * * * * * * * * * * * * * * //

dimensions      [0 1 -1 0 0 0 0];

internalField   nonuniform List<vector> 
51200
(
(-8.9947495e-06 9.9381413e-06 1.7470807e-20)
(-2.0595072e-05 1.0698978e-05 -3.5137578e-22)
(-3.381589e-05 1.062995e-05 -4.5123734e-21)
(-4.6748569e-05 1.0618647e-05 -1.2049781e-22)
(-5.9902265e-05 1.0589178e-05 2.4289777e-21)
(-7.2962043e-05 1.0533833e-05 -2.2876983e-21)
(-8.5919418e-05 1.046561e-05 -1.7248871e-21)
(-9.8752891e-05 1.0384039e-05 2.6195814e-21)
(-0.00011144189 1.0290369e-05 3.2831282e-21)
(-0.00012396673 1.018535e-05 -2.9264422e-21)
(-0.00013630917 1.0069552e-05 -3.4745502e-21)
(-0.00014845162 9.9434921e-06 4.8869594e-21)
(-0.00016037673 9.8076684e-06 -2.5643262e-21)
(-0.00017206794 9.6625717e-06 -2.0827873e-21)
(-0.00018350972 9.508683e-06 1.5067501e-21)
(-0.00019468743 9.3464995e-06 -3.0613137e-22)
(-0.00020558737 9.1765291e-06 3.9194315e-22)
(-0.00021619673 8.9992816e-06 -2.9804728e-21)
(-0.00022650363 8.8152888e-06 -2.2551134e-21)
(-0.0002364971 8.6250782e-06 1.8690927e-21)
(-0.00024616713 8.4291824e-06 -6.9096456e-22)
(-0.00025550464 8.2281404e-06 -1.3339793e-21)
(-0.00026450151 8.0224876e-06 1.2793549e-21)
(-0.00027315057 7.8127553e-06 5.3101868e-21)
(-0.00028144559 7.599467e-06 7.5286321e-21)
(-0.00028938131 7.3831356e-06 -4.3045124e-21)
(-0.00029695336 7.1642549e-06 -1.4407691e-20)
(-0.00030415832 6.9433183e-06 1.9298966e-22)
(-0.00031099365 6.7207978e-06 1.1758872e-20)
(-0.00031745769 6.4971507e-06 5.6807053e-21)
(-0.00032354964 6.2728058e-06 -8.9907889e-23)
(-0.00032926953 6.0481688e-06 -1.2575094e-21)
(-0.00033461818 5.8236146e-06 7.4090151e-21)
(-0.00033959719 5.599469e-06 -4.4327581e-21)
(-0.0003442089 5.3760038e-06 -1.4890159e-20)
(-0.00034845633 5.1534227e-06 9.9263201e-21)
(-0.00035234316 4.9318643e-06 1.0842628e-20)
(-0.0003558737 4.7113807e-06 -1.6476977e-20)
(-0.00035905296 4.4919366e-06 4.6993622e-23)
(-0.00036188692 4.2735015e-06 2.1118069e-20)
(-0.00036438315 4.0566169e-06 1.0857428e-20)
(-0.0003665492 3.8437409e-06 -6.8515744e-21)
(-0.00036839098 3.6372678e-06 -2.8578757e-20)
(-0.00036991417 3.4380444e-06 -3.1968544e-20)
(-0.00037112559 3.245889e-06 8.6564637e-22)
(-0.00037203306 3.0603157e-06 5.7481407e-20)
(-0.00037264497 2.8808842e-06 2.1795383e-20)
(-0.00037297001 2.707273e-06 -1.6600549e-20)
(-0.00037301707 2.5392532e-06 -2.2951807e-20)
(-0.00037279516 2.3766782e-06 -4.014407e-20)
(-0.00037231339 2.2194406e-06 2.8869374e-20)
(-0.00037158096 2.0674696e-06 2.3668699e-20)
(-0.00037060713 1.9207075e-06 -1.4450831e-20)
(-0.00036940119 1.7791044e-06 1.8583969e-20)
(-0.00036797245 1.6426106e-06 -3.2854195e-20)
(-0.00036633022 1.5111853e-06 -2.710478e-20)
(-0.00036448375 1.3847745e-06 4.2534183e-20)
(-0.00036244224 1.2633303e-06 6.9569951e-21)
(-0.00036021483 1.1467983e-06 -1.5188072e-20)
(-0.00035781055 1.0351246e-06 7.563134e-21)
(-0.00035523831 9.2824768e-07 2.4321244e-21)
(-0.00035250692 8.2612176e-07 -1.4700937e-20)
(-0.000349625 7.2868041e-07 -9.9263977e-21)
(-0.00034660105 6.3588158e-07 2.0874638e-20)
(-0.00034344337 5.4768509e-07 7.4947886e-21)
(-0.00034016012 4.6405911e-07 -1.910556e-20)
(-0.00033675923 3.8500372e-07 1.5712361e-20)
(-0.00033324848 3.1054196e-07 -6.8073519e-21)
(-0.00032963542 2.4074358e-07 -1.1996968e-20)
(-0.00032592743 1.7573027e-07 5.7180235e-20)
(-0.00032213166 1.1567698e-07 -1.1530639e-20)
(-0.000318255 6.0717668e-08 -4.9066043e-20)
(-0.00031430374 1.0765749e-08 1.1799863e-20)
(-0.00031028205 -3.5067967e-08 2.2721672e-20)
(-0.00030619062 -8.2875654e-08 1.0931585e-20)
(-0.00030204362 -1.515213e-07 -4.6120518e-20)
(-0.00029785425 -2.2128054e-07 -2.9586557e-20)
(-0.00029362215 -2.8675829e-07 3.9307779e-20)
(-0.00028935059 -3.4749079e-07 4.6604227e-20)
(-0.0002850443 -4.0367273e-07 -6.2606966e-21)
(-0.00028070814 -4.5572185e-07 -4.2976364e-20)
(-0.00027634678 -5.0404534e-07 7.3960339e-21)
(-0.00027196466 -5.4898961e-07 1.7078536e-20)
(-0.00026756602 -5.9083257e-07 -3.4638891e-21)
(-0.00026315487 -6.2981464e-07 1.5420243e-20)
(-0.000258735 -6.6614273e-07 -8.4786866e-21)
(-0.00025430999 -6.9998922e-07 -2.5315096e-21)
(-0.00024988322 -7.3150522e-07 -6.7442377e-22)
(-0.0002454579 -7.6082453e-07 -9.1844293e-21)
(-0.00024103703 -7.8806799e-07 1.3998976e-20)
(-0.00023662346 -8.1334985e-07 -2.4317175e-20)
(-0.00023221984 -8.3677543e-07 -3.7288641e-21)
(-0.00022782868 -8.5844426e-07 2.2276746e-20)
(-0.0002234523 -8.7845504e-07 -1.6609808e-21)
(-0.00021909289 -8.9689866e-07 -2.1199432e-21)
(-0.00021475247 -9.1385324e-07 -1.1473112e-20)
(-0.00021043293 -9.2940278e-07 -5.4186292e-21)
(-0.00020613601 -9.4362517e-07 -3.5332097e-22)
(-0.00020186334 -9.5658992e-07 2.1449759e-20)
(-0.00019761639 -9.6837585e-07 7.7774565e-21)
(-0.00019339652 -9.7904801e-07 -2.5974676e-20)
(-0.00018920499 -9.8866808e-07 4.3543066e-21)
(-0.00018504291 -9.9730212e-07 -5.7688781e-22)
(-0.00018091131 -1.005006e-06 9.202697e-21)
(-0.00017681112 -1.0118388e-06 8.254915e-21)
(-0.00017274315 -1.0178411e-06 -1.9646852e-20)
(-0.00016870814 -1.0230863e-06 6.4475642e-21)
(-0.00016470672 -1.0276045e-06 7.8358956e-21)
(-0.00016073946 -1.0314526e-06 1.3178145e-21)
(-0.00015680682 -1.0346673e-06 -5.9220589e-21)
(-0.00015290922 -1.0372945e-06 -1.7171103e-20)
(-0.00014904697 -1.0393737e-06 8.6589293e-21)
(-0.00014522034 -1.0409474e-06 5.4040336e-21)
(-0.00014142951 -1.0420514e-06 -9.61826e-22)
(-0.00013767463 -1.0427151e-06 7.0019983e-21)
(-0.00013395578 -1.0429815e-06 -8.1158023e-21)
(-0.00013027297 -1.0428764e-06 8.2855974e-22)
(-0.00012662617 -1.0424282e-06 -1.0788133e-21)
(-0.00012301531 -1.0416682e-06 2.2869569e-21)
(-0.00011944027 -1.040623e-06 9.6401225e-21)
(-0.00011590089 -1.0393171e-06 -7.8357053e-21)
(-0.00011239695 -1.0377776e-06 -2.5984685e-21)
(-0.00010892823 -1.0360288e-06 4.7360814e-21)
(-0.00010549444 -1.0340884e-06 9.6951948e-21)
(-0.00010209528 -1.0319815e-06 5.8732119e-22)
(-9.8730406e-05 -1.029724e-06 -1.6527084e-20)
(-9.5399467e-05 -1.0273324e-06 -6.1216862e-21)
(-9.2102074e-05 -1.0248318e-06 6.4077265e-21)
(-8.8837811e-05 -1.0222295e-06 6.4462589e-21)
(-8.5606245e-05 -1.0195488e-06 -3.5053537e-21)
(-8.2406924e-05 -1.0167996e-06 -4.204228e-21)
(-7.9239374e-05 -1.0140021e-06 4.393569e-22)
(-7.6103108e-05 -1.0111628e-06 -5.3001025e-21)
(-7.2997627e-05 -1.0082961e-06 -2.6478274e-21)
(-6.9922415e-05 -1.0054153e-06 -1.3119102e-21)
(-6.6876943e-05 -1.0025296e-06 4.711595e-21)
(-6.3860672e-05 -9.9964899e-07 7.2325627e-21)
(-6.0873057e-05 -9.9678206e-07 -7.0268795e-22)
(-5.7913543e-05 -9.9393854e-07 -9.1499065e-23)
(-5.4981571e-05 -9.9112681e-07 -7.2427178e-22)
(-5.2076568e-05 -9.8835591e-07 -1.5404632e-21)
(-4.9197968e-05 -9.8562802e-07 7.9909494e-22)
(-4.6345197e-05 -9.8295213e-07 -2.127382e-21)
(-4.3517674e-05 -9.8033212e-07 1.7798248e-21)
(-4.0714819e-05 -9.7777822e-07 4.6688527e-21)
(-3.7936053e-05 -9.7528848e-07 -3.2126064e-21)
(-3.5180798e-05 -9.7287583e-07 -3.2500932e-21)
(-3.2448474e-05 -9.7053484e-07 1.2635538e-21)
(-2.973851e-05 -9.6826696e-07 3.7314421e-21)
(-2.7050335e-05 -9.6607966e-07 -1.1962666e-22)
(-2.438339e-05 -9.6397126e-07 -3.3030964e-21)
(-2.1737124e-05 -9.6193356e-07 -1.3234315e-21)
(-1.911101e-05 -9.5995278e-07 1.5051798e-21)
(-1.6504577e-05 -9.5797898e-07 8.4330878e-22)
(-1.3917458e-05 -9.5589987e-07 -1.1542195e-21)
(-1.134953e-05 -9.5343377e-07 -6.8699454e-22)
(-8.8014009e-06 -9.4998321e-07 3.3691622e-22)
(-6.2759866e-06 -9.4508152e-07 4.1890892e-22)
(-3.7739732e-06 -9.5045449e-07 1.1421459e-22)
(-1.2441531e-06 -1.0518128e-06 -4.581116e-22)
(-1.2823718e-05 4.3206317e-05 -2.3875415e-21)
(-2.8433291e-05 4.3530636e-05 -8.2060856e-22)
(-4.6471743e-05 4.3470585e-05 1.267222e-22)
(-6.4079085e-05 4.3413845e-05 4.8138487e-21)
(-8.199146e-05 4.3274159e-05 4.1975556e-21)
(-9.9776735e-05 4.3071459e-05 -2.897126e-21)
(-0.0001174286 4.2818938e-05 3.8368538e-21)
(-0.00013491615 4.2520496e-05 -9.193633e-22)
(-0.00015221037 4.2178842e-05 -1.9160523e-21)
(-0.00016928332 4.1795874e-05 -8.2570964e-22)
(-0.00018610917 4.1373188e-05 4.4211217e-22)
(-0.00020266322 4.0912303e-05 4.4658294e-22)
(-0.00021892133 4.0414729e-05 -2.7184075e-21)
(-0.0002348606 3.9882002e-05 8.7314899e-21)
(-0.00025045954 3.9315675e-05 3.1245607e-21)
(-0.00026569799 3.8717385e-05 -6.6952968e-22)
(-0.00028055708 3.8088796e-05 4.8798901e-21)
(-0.00029501922 3.7431631e-05 -1.5517707e-21)
(-0.0003090681 3.6747674e-05 -5.1395217e-21)
(-0.00032268871 3.6038732e-05 -3.2759394e-21)
(-0.00033586734 3.5306642e-05 -1.339329e-22)
(-0.00034859159 3.4553269e-05 -1.6852747e-21)
(-0.00036085037 3.3780488e-05 -1.3929765e-21)
(-0.0003726339 3.2990183e-05 4.7471939e-21)
(-0.00038393372 3.218423e-05 1.1174452e-20)
(-0.00039474265 3.1364502e-05 1.7614826e-21)
(-0.00040505479 3.0532838e-05 -1.0268875e-20)
(-0.0004148655 2.9691062e-05 -6.9316274e-21)
(-0.0004241714 2.8840958e-05 -4.4618217e-21)
(-0.00043297028 2.7984259e-05 9.5606895e-21)
(-0.00044126113 2.7122643e-05 1.6770315e-20)
(-0.00044904409 2.6257729e-05 -5.2396535e-21)
(-0.00045632038 2.5391081e-05 -6.3533614e-21)
(-0.00046309233 2.4524166e-05 -5.9663751e-21)
(-0.00046936327 2.3658399e-05 -2.4704903e-21)
(-0.00047513749 2.2795103e-05 4.9345066e-21)
(-0.00048042021 2.1935516e-05 -1.1895404e-20)
(-0.00048521755 2.1080752e-05 -2.0753017e-20)
(-0.00048953643 2.023184e-05 2.2758478e-20)
(-0.00049338431 1.9389818e-05 3.2203523e-20)
(-0.00049676849 1.8556191e-05 -4.0017484e-20)
(-0.00049969711 1.7733826e-05 -1.4259498e-20)
(-0.00050218026 1.6925553e-05 3.7513553e-20)
(-0.00050422887 1.6132952e-05 3.1994167e-20)
(-0.00050585386 1.5356608e-05 -4.7428583e-24)
(-0.00050706617 1.459669e-05 -6.8794595e-20)
(-0.00050787704 1.3853308e-05 -4.0371687e-20)
(-0.00050829802 1.3126608e-05 4.8209168e-20)
(-0.000508341 1.241677e-05 4.2906261e-20)
(-0.00050801812 1.1724001e-05 -2.3322177e-20)
(-0.0005073417 1.104852e-05 -4.3577393e-20)
(-0.00050632425 1.0390511e-05 2.9240645e-20)
(-0.00050497836 9.7501555e-06 4.8379004e-20)
(-0.0005033167 9.1275762e-06 -4.892451e-21)
(-0.00050135196 8.5228669e-06 -2.6876233e-20)
(-0.00049909679 7.9361024e-06 -3.6350646e-20)
(-0.00049656384 7.3672895e-06 -6.329815e-21)
(-0.00049376567 6.8164094e-06 5.1750316e-20)
(-0.0004907147 6.2834023e-06 1.9360443e-20)
(-0.00048742326 5.7681835e-06 -5.7083298e-20)
(-0.00048390351 5.2706159e-06 -1.7500599e-20)
(-0.00048016739 4.7905485e-06 5.4721882e-20)
(-0.0004762267 4.3277749e-06 1.6114362e-20)
(-0.00047209297 3.8820916e-06 -4.9875433e-20)
(-0.0004677775 3.4532558e-06 -1.6762418e-20)
(-0.00046329133 3.0409836e-06 2.9372941e-20)
(-0.00045864524 2.6449979e-06 1.4163053e-20)
(-0.00045384969 2.2649935e-06 7.9472182e-21)
(-0.00044891487 1.9006489e-06 -9.7851303e-21)
(-0.00044385066 1.5516481e-06 -3.5515078e-20)
(-0.00043866669 1.2176949e-06 8.2387811e-21)
(-0.00043337246 8.9852284e-07 2.1165431e-20)
(-0.00042797799 5.9391957e-07 -1.1635086e-20)
(-0.00042249693 3.0346508e-07 3.725561e-21)
(-0.00041695052 2.5492219e-08 2.422749e-20)
(-0.00041132731 -2.4443158e-07 6.1895565e-21)
(-0.00040561724 -5.0192324e-07 -3.3480638e-20)
(-0.00039984162 -7.4654282e-07 -1.6974687e-20)
(-0.0003940123 -9.7871672e-07 1.508438e-20)
(-0.00038813692 -1.1989763e-06 7.0385773e-21)
(-0.00038222215 -1.4078105e-06 -2.8186935e-21)
(-0.00037627422 -1.6056643e-06 2.0618088e-21)
(-0.000370299 -1.7929519e-06 1.2456007e-20)
(-0.00036430207 -1.9700665e-06 -1.307892e-20)
(-0.00035828878 -2.1373936e-06 -1.6217487e-21)
(-0.00035226421 -2.2953191e-06 1.7296211e-20)
(-0.00034623316 -2.4442124e-06 -2.3100918e-20)
(-0.00034020022 -2.5844345e-06 1.4372e-23)
(-0.00033416969 -2.7163407e-06 1.2270839e-20)
(-0.00032814565 -2.8402792e-06 -4.1730009e-22)
(-0.00032213194 -2.9565917e-06 -2.7986478e-21)
(-0.00031613215 -3.0656075e-06 -1.7683551e-20)
(-0.00031014966 -3.167651e-06 1.166168e-20)
(-0.00030418764 -3.2630406e-06 1.1231469e-20)
(-0.00029824903 -3.3520827e-06 -6.1361117e-21)
(-0.00029233658 -3.4350705e-06 -1.2627904e-21)
(-0.00028645285 -3.5122903e-06 -4.4484061e-21)
(-0.00028060018 -3.5840307e-06 6.6523668e-21)
(-0.00027478077 -3.6505588e-06 3.4981608e-21)
(-0.00026899663 -3.7121348e-06 -1.1531759e-20)
(-0.00026324958 -3.7690154e-06 -2.7572723e-21)
(-0.00025754132 -3.8214392e-06 6.954917e-21)
(-0.00025187338 -3.8696493e-06 7.2293191e-21)
(-0.00024624714 -3.9138722e-06 2.2781969e-21)
(-0.00024066383 -3.9543291e-06 -8.5526612e-21)
(-0.00023512458 -3.9912126e-06 -8.436938e-21)
(-0.00022963035 -4.0247558e-06 3.9717805e-21)
(-0.00022418203 -4.0551361e-06 1.2918291e-20)
(-0.00021878036 -4.0825392e-06 9.9134313e-22)
(-0.00021342597 -4.1071543e-06 -1.4737535e-20)
(-0.0002081194 -4.129146e-06 -2.0408937e-21)
(-0.0002028611 -4.1486836e-06 8.8112689e-22)
(-0.0001976514 -4.1659295e-06 9.1375362e-21)
(-0.00019249057 -4.1810318e-06 1.0607013e-20)
(-0.00018737878 -4.1941262e-06 -8.8430121e-21)
(-0.00018231613 -4.2053644e-06 -8.1907669e-21)
(-0.00017730264 -4.2148729e-06 -2.1921972e-21)
(-0.00017233827 -4.2227752e-06 6.784799e-21)
(-0.00016742291 -4.229197e-06 4.6594249e-21)
(-0.00016255639 -4.2342542e-06 -8.2337735e-21)
(-0.00015773848 -4.2380587e-06 -2.4963928e-21)
(-0.00015296889 -4.2407033e-06 5.601276e-21)
(-0.0001482473 -4.242301e-06 4.8457032e-21)
(-0.00014357333 -4.2429368e-06 -9.9146141e-22)
(-0.00013894656 -4.2427013e-06 -8.1508551e-21)
(-0.00013436653 -4.2416846e-06 -1.5178451e-21)
(-0.00012983274 -4.2399585e-06 3.623912e-21)
(-0.00012534465 -4.2376095e-06 3.8039043e-21)
(-0.00012090171 -4.2347021e-06 -4.6072771e-22)
(-0.00011650333 -4.2313158e-06 -6.1023579e-21)
(-0.00011214886 -4.2275063e-06 -1.1709636e-21)
(-0.00010783769 -4.2233416e-06 5.6379542e-21)
(-0.00010356913 -4.2188688e-06 3.5143598e-21)
(-9.9342504e-05 -4.2141475e-06 -2.8429453e-21)
(-9.5157109e-05 -4.2092338e-06 -7.8624995e-21)
(-9.1012225e-05 -4.2041751e-06 2.452519e-22)
(-8.6907119e-05 -4.1990118e-06 7.0410884e-21)
(-8.2841039e-05 -4.193787e-06 2.5598077e-21)
(-7.8813232e-05 -4.1885448e-06 -1.6250454e-21)
(-7.4822932e-05 -4.1833207e-06 -2.622955e-21)
(-7.0869363e-05 -4.1781472e-06 2.8775566e-22)
(-6.6951749e-05 -4.1730602e-06 1.0467596e-21)
(-6.3069304e-05 -4.1680844e-06 6.8207377e-22)
(-5.9221237e-05 -4.1632524e-06 -9.314681e-22)
(-5.5406761e-05 -4.1585903e-06 -1.3897121e-21)
(-5.1625089e-05 -4.1541157e-06 3.476008e-22)
(-4.7875425e-05 -4.1498615e-06 7.1005525e-22)
(-4.4156982e-05 -4.1458297e-06 1.2850674e-21)
(-4.0468978e-05 -4.1420383e-06 -2.3465497e-22)
(-3.681063e-05 -4.1385087e-06 -1.9827857e-21)
(-3.3181161e-05 -4.1352414e-06 -1.5618514e-22)
(-2.9579809e-05 -4.1322294e-06 9.4644095e-22)
(-2.600581e-05 -4.1294521e-06 1.0096505e-21)
(-2.2458405e-05 -4.1268321e-06 -5.1693571e-22)
(-1.893682e-05 -4.1242098e-06 -1.0109178e-21)
(-1.544016e-05 -4.1211982e-06 1.857344e-22)
(-1.1967066e-05 -4.1170268e-06 2.0871733e-22)
(-8.5147918e-06 -4.1105333e-06 -1.8102459e-23)
(-5.0797829e-06 -4.1002938e-06 -2.088088e-22)
(-1.6757363e-06 -4.0991631e-06 -3.538247e-22)
(-1.3319172e-05 8.1630106e-05 -1.4465691e-20)
(-2.9484011e-05 8.1758896e-05 -5.9782018e-21)
(-4.8236741e-05 8.1652121e-05 2.8159301e-22)
(-6.6489133e-05 8.1464157e-05 3.6279733e-21)
(-8.5065392e-05 8.1167785e-05 -2.5795032e-21)
(-0.0001035034 8.0775232e-05 -5.1093382e-21)
(-0.00012180143 8.0295349e-05 8.0308752e-21)
(-0.00013992837 7.9732404e-05 -1.0085835e-21)
(-0.00015785445 7.9089782e-05 1.5932614e-21)
(-0.00017555073 7.8370368e-05 1.0793468e-20)
(-0.00019299032 7.7576867e-05 1.2728315e-21)
(-0.0002101475 7.6711963e-05 4.1764574e-21)
(-0.00022699713 7.5778409e-05 -6.0334006e-21)
(-0.00024351537 7.4779063e-05 4.1377512e-21)
(-0.00025967986 7.3716861e-05 8.769671e-21)
(-0.00027546962 7.259488e-05 -1.6159289e-21)
(-0.00029086504 7.1416268e-05 6.3956612e-21)
(-0.00030584781 7.0184301e-05 -2.088458e-21)
(-0.00032040101 6.8902333e-05 -6.0978336e-21)
(-0.00033450906 6.7573787e-05 5.0580609e-21)
(-0.00034815771 6.6202144e-05 1.7483355e-21)
(-0.00036133414 6.4790927e-05 -3.78113e-22)
(-0.00037402684 6.3343688e-05 1.2084969e-21)
(-0.00038622571 6.1863989e-05 7.3464149e-21)
(-0.000397922 6.0355385e-05 8.6704059e-21)
(-0.00040910831 5.8821422e-05 1.0399525e-21)
(-0.0004197786 5.7265609e-05 -5.1438417e-21)
(-0.00042992812 5.5691404e-05 -1.0519597e-20)
(-0.0004395534 5.4102212e-05 -9.6456799e-21)
(-0.00044865225 5.2501362e-05 -7.3705418e-22)
(-0.00045722371 5.0892092e-05 1.4495814e-21)
(-0.00046526799 4.9277552e-05 7.0965214e-21)
(-0.00047278642 4.7660811e-05 -1.1797552e-22)
(-0.00047978144 4.6044813e-05 -1.6472033e-20)
(-0.00048625655 4.4432428e-05 -1.8322207e-21)
(-0.00049221623 4.2826425e-05 7.4066993e-21)
(-0.00049766594 4.1229484e-05 1.8936177e-21)
(-0.00050261201 3.9644178e-05 -5.4246378e-21)
(-0.00050706159 3.807301e-05 -3.7461422e-21)
(-0.00051102247 3.6518415e-05 2.5699863e-21)
(-0.00051450296 3.4982578e-05 -3.3282759e-21)
(-0.00051751219 3.3466854e-05 2.4597907e-21)
(-0.00052006033 3.1972483e-05 5.2135259e-21)
(-0.00052215826 3.0501059e-05 7.1233817e-21)
(-0.00052381719 2.9054262e-05 8.8912775e-21)
(-0.00052504858 2.7633619e-05 -1.1083208e-20)
(-0.00052586419 2.6240459e-05 -9.2426403e-21)
(-0.00052627611 2.4875929e-05 1.7188201e-21)
(-0.00052629675 2.354102e-05 5.0914827e-21)
(-0.00052593874 2.2236583e-05 5.3155145e-21)
(-0.00052521493 2.0963366e-05 -1.2893296e-20)
(-0.00052413833 1.9721969e-05 -3.0531575e-22)
(-0.00052272203 1.8512909e-05 1.2704974e-20)
(-0.0005209792 1.7336567e-05 2.2105119e-21)
(-0.00051892304 1.6193239e-05 -4.6858573e-22)
(-0.00051656672 1.5083126e-05 -4.5275892e-21)
(-0.00051392335 1.4006329e-05 -2.8626156e-21)
(-0.00051100598 1.2962863e-05 8.4823591e-21)
(-0.00050782754 1.1952653e-05 9.2780996e-22)
(-0.00050440081 1.0975559e-05 -1.1358367e-20)
(-0.00050073842 1.0031361e-05 -4.0045639e-21)
(-0.0004968528 9.1197646e-06 7.9758472e-21)
(-0.00049275618 8.2404104e-06 6.3449435e-21)
(-0.00048846054 7.3928734e-06 -4.5568422e-21)
(-0.00048397764 6.576686e-06 -1.0621033e-21)
(-0.00047931897 5.7912931e-06 -7.1721873e-22)
(-0.00047449575 5.0361024e-06 -4.0571658e-22)
(-0.00046951893 4.3104509e-06 6.5107257e-21)
(-0.00046439916 3.6136118e-06 -3.0626274e-21)
(-0.00045914678 2.9447993e-06 -4.1098022e-21)
(-0.00045377178 2.3031838e-06 2.7265256e-21)
(-0.00044828371 1.6879776e-06 1.7464695e-22)
(-0.00044269152 1.0985495e-06 -1.7903513e-21)
(-0.00043700282 5.3467827e-07 3.3912717e-21)
(-0.00043122385 4.0849291e-10 3.3653469e-21)
(-0.00042536701 -4.8824838e-07 -2.2263527e-21)
(-0.00041944468 -9.5010004e-07 -3.7787997e-21)
(-0.00041346233 -1.3901259e-06 -3.6453906e-21)
(-0.00040742579 -1.8092399e-06 -2.8315727e-21)
(-0.00040134174 -2.2081391e-06 3.6224305e-21)
(-0.00039521688 -2.5873473e-06 3.9123468e-21)
(-0.00038905771 -2.9473703e-06 -6.6335276e-21)
(-0.00038287043 -3.2887286e-06 2.7341517e-22)
(-0.00037666091 -3.6119777e-06 -3.5306815e-21)
(-0.00037043477 -3.9176999e-06 -3.446333e-21)
(-0.00036419731 -4.2065032e-06 4.6666093e-21)
(-0.00035795356 -4.4790076e-06 -3.462113e-21)
(-0.00035170826 -4.7358228e-06 1.7015242e-21)
(-0.00034546587 -4.9775611e-06 1.0903636e-21)
(-0.00033923063 -5.2048282e-06 8.773422e-22)
(-0.00033300648 -5.4182257e-06 2.126704e-21)
(-0.00032679715 -5.6183396e-06 -4.8019393e-21)
(-0.00032060613 -5.8057444e-06 4.1960485e-21)
(-0.00031443667 -5.9810124e-06 9.3610672e-22)
(-0.00030829182 -6.1446906e-06 -1.3417148e-21)
(-0.0003021744 -6.2973177e-06 3.8718786e-21)
(-0.00029608703 -6.4394069e-06 -2.4569519e-21)
(-0.00029003216 -6.5714771e-06 -1.4601876e-22)
(-0.00028401202 -6.6940228e-06 -3.0122916e-21)
(-0.00027802867 -6.8075052e-06 -1.3705392e-21)
(-0.00027208402 -6.9123963e-06 3.2108538e-21)
(-0.00026617978 -7.0091433e-06 -6.2223864e-22)
(-0.00026031752 -7.0981682e-06 2.4898937e-21)
(-0.00025449866 -7.1798998e-06 -2.9070349e-21)
(-0.00024872447 -7.2547317e-06 -3.2359536e-22)
(-0.00024299609 -7.3230435e-06 4.1657758e-21)
(-0.00023731453 -7.3852111e-06 -1.1250848e-21)
(-0.00023168066 -7.4415975e-06 1.6119488e-21)
(-0.00022609524 -7.4925302e-06 -2.7269099e-21)
(-0.00022055894 -7.538356e-06 -3.7372156e-21)
(-0.00021507229 -7.5793756e-06 2.5436506e-21)
(-0.00020963574 -7.6159086e-06 -2.7819677e-22)
(-0.00020424963 -7.6482335e-06 1.1963048e-21)
(-0.00019891422 -7.6766331e-06 9.1541487e-22)
(-0.00019362968 -7.7013623e-06 -1.4486965e-21)
(-0.00018839612 -7.7226852e-06 7.6354169e-22)
(-0.00018321353 -7.7408449e-06 -1.42643e-21)
(-0.00017808187 -7.7560662e-06 1.7817335e-21)
(-0.00017300102 -7.7685765e-06 8.5538853e-24)
(-0.00016797078 -7.7785862e-06 -1.5327961e-21)
(-0.00016299093 -7.786301e-06 1.8548367e-21)
(-0.00015806115 -7.791901e-06 -2.2066413e-22)
(-0.0001531811 -7.795577e-06 -1.021349e-22)
(-0.00014835039 -7.7975004e-06 -1.2759023e-21)
(-0.00014356857 -7.7978277e-06 -6.3666662e-22)
(-0.00013883517 -7.7967269e-06 2.7118666e-21)
(-0.00013414965 -7.7943336e-06 2.6255567e-22)
(-0.00012951146 -7.7907979e-06 -1.0469836e-22)
(-0.00012492002 -7.7862494e-06 -1.2604394e-21)
(-0.0001203747 -7.7808204e-06 -6.5321922e-22)
(-0.00011587486 -7.7746217e-06 2.0015788e-21)
(-0.00011141984 -7.7677742e-06 4.1278918e-22)
(-0.00010700893 -7.7603777e-06 -3.4052589e-22)
(-0.00010264142 -7.7525289e-06 -1.2440104e-21)
(-9.8316587e-05 -7.7443301e-06 -4.6456145e-22)
(-9.4033675e-05 -7.7358716e-06 6.7297671e-22)
(-8.9791921e-05 -7.7272273e-06 4.0501398e-22)
(-8.5590555e-05 -7.7184811e-06 4.7641433e-22)
(-8.1428788e-05 -7.7097105e-06 -1.0744985e-21)
(-7.7305827e-05 -7.7009787e-06 -5.5190195e-22)
(-7.3220867e-05 -7.6923416e-06 8.6181471e-22)
(-6.9173098e-05 -7.6838744e-06 -5.2062421e-22)
(-6.5161709e-05 -7.6756192e-06 2.8516368e-22)
(-6.118588e-05 -7.6676349e-06 -6.3238646e-22)
(-5.7244796e-05 -7.659962e-06 -6.4893226e-23)
(-5.3337635e-05 -7.6526467e-06 1.4547273e-21)
(-4.9463578e-05 -7.6457303e-06 -4.6079037e-22)
(-4.5621804e-05 -7.6392333e-06 -1.4639365e-22)
(-4.1811497e-05 -7.6331972e-06 -5.0392123e-22)
(-3.8031848e-05 -7.6276475e-06 -1.3778791e-22)
(-3.4282047e-05 -7.6225952e-06 1.3458368e-21)
(-3.0561286e-05 -7.6180568e-06 9.1751887e-23)
(-2.6868763e-05 -7.6140267e-06 6.9064301e-23)
(-2.3203661e-05 -7.6104821e-06 -1.1100514e-21)
(-1.9565124e-05 -7.607386e-06 -3.1082444e-22)
(-1.5952208e-05 -7.6046883e-06 1.3926404e-21)
(-1.236372e-05 -7.6024299e-06 8.1152748e-23)
(-8.7976611e-06 -7.6011823e-06 -3.1393231e-22)
(-5.2514266e-06 -7.6030048e-06 -2.3741132e-22)
(-1.7377641e-06 -7.6116736e-06 4.4428859e-22)
(-1.3350316e-05 0.00011962827 -4.7469933e-20)
(-2.9694417e-05 0.00011962154 -1.5308658e-20)
(-4.8635278e-05 0.00011942036 7.3164116e-21)
(-6.704531e-05 0.00011909857 -1.2552183e-20)
(-8.5786791e-05 0.0001186405 5.065685e-21)
(-0.00010438471 0.00011805239 -2.4621208e-21)
(-0.00012283897 0.00011734001 -1.1147979e-21)
(-0.00014111868 0.00011650753 1.5427299e-21)
(-0.00015919407 0.00011555882 3.2485977e-21)
(-0.00017703608 0.00011449763 5.5911268e-21)
(-0.00019461766 0.00011332767 2.2007062e-21)
(-0.00021191285 0.0001120528 6.894505e-21)
(-0.00022889625 0.00011067702 -6.1572198e-21)
(-0.00024554378 0.00010920452 -2.6838056e-22)
(-0.00026183283 0.00010763966 4.8847783e-21)
(-0.00027774222 0.00010598699 -6.6268716e-21)
(-0.00029325212 0.00010425119 6.8390931e-21)
(-0.00030834406 0.00010243713 3.2038153e-21)
(-0.00032300094 0.00010054976 -4.0614192e-21)
(-0.00033720704 9.8594156e-05 2.3485507e-21)
(-0.00035094804 9.6575483e-05 1.5619944e-22)
(-0.00036421098 9.4498948e-05 1.1875517e-21)
(-0.00037698434 9.2369818e-05 8.2859418e-21)
(-0.00038925794 9.0193356e-05 3.8122522e-21)
(-0.00040102305 8.7974829e-05 -5.5293602e-21)
(-0.00041227225 8.5719472e-05 -6.6685334e-21)
(-0.00042299953 8.3432479e-05 -4.8903804e-21)
(-0.00043320019 8.1118968e-05 2.2487172e-21)
(-0.00044287083 7.8783972e-05 1.6600689e-21)
(-0.00045200934 7.6432437e-05 -2.5138158e-21)
(-0.00046061485 7.4069168e-05 -3.3632767e-21)
(-0.00046868768 7.1698849e-05 -3.8434284e-22)
(-0.0004762293 6.9326029e-05 6.383666e-21)
(-0.00048324231 6.6955093e-05 -3.4106989e-21)
(-0.00048973035 6.459024e-05 -1.1081009e-20)
(-0.00049569807 6.2235498e-05 2.7802341e-21)
(-0.00050115108 5.9894726e-05 1.1139604e-20)
(-0.00050609588 5.7571591e-05 2.4557671e-21)
(-0.00051053978 5.5269584e-05 6.0286806e-22)
(-0.00051449083 5.2991989e-05 -6.1593213e-23)
(-0.00051795777 5.0741805e-05 4.9680943e-22)
(-0.00052095007 4.8521618e-05 1.5816572e-21)
(-0.00052347796 4.6333824e-05 6.290331e-22)
(-0.00052555232 4.4180788e-05 -6.0559659e-21)
(-0.00052718443 4.2064806e-05 3.6077337e-21)
(-0.00052838596 3.9987987e-05 5.8446601e-22)
(-0.00052916892 3.7952216e-05 -3.2657126e-21)
(-0.00052954563 3.5959145e-05 2.077247e-21)
(-0.0005295287 3.4010213e-05 -9.3619453e-21)
(-0.00052913099 3.2106656e-05 1.09366e-21)
(-0.00052836552 3.0249544e-05 7.8084194e-21)
(-0.00052724549 2.8439756e-05 -1.3148385e-21)
(-0.00052578418 2.6678018e-05 1.8365326e-21)
(-0.00052399493 2.4964883e-05 -1.9152948e-21)
(-0.00052189107 2.3300765e-05 -1.9169416e-22)
(-0.00051948596 2.1685933e-05 2.8844485e-21)
(-0.00051679286 2.0120525e-05 -1.6180487e-21)
(-0.00051382495 1.8604557e-05 6.5672441e-22)
(-0.0005105953 1.7137904e-05 -1.142475e-22)
(-0.00050711683 1.5720352e-05 -4.4129878e-21)
(-0.00050340227 1.4351586e-05 7.7823719e-22)
(-0.00049946416 1.3031191e-05 3.136688e-21)
(-0.00049531485 1.1758664e-05 5.9152308e-22)
(-0.00049096642 1.0533412e-05 -6.7804216e-22)
(-0.00048643071 9.3548013e-06 3.8448413e-23)
(-0.00048171928 8.2221257e-06 -1.4269189e-21)
(-0.00047684341 7.1346257e-06 -3.2983647e-21)
(-0.00047181411 6.0915075e-06 2.5978282e-21)
(-0.00046664205 5.0919391e-06 1.5818355e-21)
(-0.00046133762 4.1350724e-06 2.8388911e-21)
(-0.00045591087 3.2200258e-06 -1.0093877e-21)
(-0.00045037149 2.3458654e-06 -4.4770106e-22)
(-0.00044472876 1.5114795e-06 -9.3981404e-22)
(-0.00043899098 7.1547794e-07 -4.3175827e-21)
(-0.00043316405 -4.4001458e-08 7.4176909e-22)
(-0.00042726077 -7.6858979e-07 -2.0900724e-21)
(-0.00042129265 -1.4593013e-06 1.7098415e-21)
(-0.00041526391 -2.1162098e-06 -1.592232e-21)
(-0.00040918136 -2.7400656e-06 -5.3429729e-21)
(-0.00040305209 -3.3318908e-06 2.0014025e-21)
(-0.0003968829 -3.892821e-06 1.199608e-21)
(-0.0003906803 -4.4240082e-06 -3.0089808e-21)
(-0.00038445048 -4.926594e-06 1.0389776e-21)
(-0.0003781993 -5.4016742e-06 -5.3175071e-22)
(-0.00037193235 -5.8503039e-06 7.0685471e-22)
(-0.00036565493 -6.2735344e-06 2.001239e-21)
(-0.00035937204 -6.6723891e-06 -2.9609026e-21)
(-0.00035308843 -7.0478596e-06 8.6835019e-22)
(-0.00034680855 -7.400912e-06 -2.3853256e-21)
(-0.00034053662 -7.7324967e-06 -1.8219909e-21)
(-0.00033427659 -8.04354e-06 1.0802599e-21)
(-0.00032803218 -8.3349353e-06 2.0308023e-22)
(-0.00032180685 -8.6075644e-06 4.3596654e-21)
(-0.00031560386 -8.862283e-06 -1.8415285e-21)
(-0.00030942623 -9.0999235e-06 -2.1188263e-22)
(-0.00030327678 -9.3212885e-06 2.8991968e-21)
(-0.00029715813 -9.5271508e-06 -2.5654824e-21)
(-0.00029107269 -9.7182797e-06 7.8299992e-22)
(-0.0002850227 -9.8954012e-06 -1.2305297e-21)
(-0.00027901021 -1.0059221e-05 -2.6716663e-22)
(-0.00027303708 -1.0210428e-05 1.9674465e-21)
(-0.00026710503 -1.0349689e-05 -1.7574839e-21)
(-0.00026121562 -1.0477629e-05 1.5228161e-21)
(-0.00025537025 -1.0594876e-05 -1.9724742e-21)
(-0.00024957017 -1.0702015e-05 6.888269e-22)
(-0.00024381652 -1.0799616e-05 2.6302864e-21)
(-0.00023811027 -1.0888224e-05 -2.3603287e-21)
(-0.0002324523 -1.0968372e-05 4.8554375e-22)
(-0.00022684335 -1.1040559e-05 -2.2227594e-21)
(-0.00022128406 -1.110527e-05 -1.937835e-21)
(-0.00021577495 -1.1162968e-05 3.9090851e-22)
(-0.00021031646 -1.1214115e-05 6.0678129e-22)
(-0.00020490892 -1.1259112e-05 2.1965201e-21)
(-0.00019955257 -1.1298388e-05 -1.0792753e-21)
(-0.00019424757 -1.1332314e-05 -1.9575881e-21)
(-0.000188994 -1.1361284e-05 1.0994408e-21)
(-0.00018379186 -1.1385643e-05 -3.6705478e-22)
(-0.00017864108 -1.1405733e-05 1.4615292e-21)
(-0.00017354153 -1.1421881e-05 2.0997556e-22)
(-0.000168493 -1.1434389e-05 2.759096e-23)
(-0.00016349524 -1.1443551e-05 4.9789925e-22)
(-0.00015854795 -1.1449658e-05 -1.4773708e-21)
(-0.00015365077 -1.1452966e-05 -4.9287118e-23)
(-0.00014880327 -1.1453733e-05 2.7894912e-22)
(-0.00014400502 -1.1452198e-05 1.2974556e-21)
(-0.00013925551 -1.1448594e-05 1.5854675e-21)
(-0.00013455421 -1.1443132e-05 3.9083301e-23)
(-0.00012990056 -1.1436023e-05 4.8956748e-22)
(-0.00012529395 -1.1427458e-05 -2.0664019e-21)
(-0.00012073376 -1.1417623e-05 -3.9100518e-23)
(-0.00011621933 -1.1406684e-05 1.5537668e-21)
(-0.00011174999 -1.139482e-05 2.0680879e-22)
(-0.00010732502 -1.1382184e-05 1.1538952e-21)
(-0.0001029437 -1.1368909e-05 -9.7973264e-22)
(-9.8605304e-05 -1.1355144e-05 -1.218306e-21)
(-9.430906e-05 -1.1341017e-05 -1.0123081e-21)
(-9.0054203e-05 -1.1326645e-05 5.8362831e-22)
(-8.5839947e-05 -1.1312145e-05 7.9702151e-23)
(-8.1665498e-05 -1.1297626e-05 -7.4878969e-22)
(-7.7530055e-05 -1.1283184e-05 2.3265606e-22)
(-7.3432805e-05 -1.126891e-05 6.0692304e-22)
(-6.9372929e-05 -1.1254895e-05 -2.2541399e-22)
(-6.534961e-05 -1.1241218e-05 9.5436418e-22)
(-6.1362019e-05 -1.1227951e-05 3.3759353e-23)
(-5.7409331e-05 -1.1215162e-05 -6.959401e-22)
(-5.3490721e-05 -1.1202918e-05 3.7334789e-22)
(-4.9605359e-05 -1.1191276e-05 -9.3342298e-22)
(-4.5752418e-05 -1.1180273e-05 4.3289992e-22)
(-4.1931075e-05 -1.1169968e-05 9.9288274e-22)
(-3.8140513e-05 -1.1160397e-05 5.9497928e-22)
(-3.4379908e-05 -1.1151583e-05 4.5314411e-22)
(-3.0648446e-05 -1.1143562e-05 1.3512548e-24)
(-2.6945314e-05 -1.1136345e-05 5.3569728e-22)
(-2.3269685e-05 -1.1129945e-05 -1.2690609e-21)
(-1.962072e-05 -1.1124377e-05 -2.0725419e-22)
(-1.5997557e-05 -1.1119683e-05 8.8286736e-22)