/*--------------------------------*- C++ -*----------------------------------*\
| =========                 |                                                 |
| \\      /  F ield         | OpenFOAM: The Open Source CFD Toolbox           |
|  \\    /   O peration     | Version:  2306                                  |
|   \\  /    A nd           | Website:  www.openfoam.com                      |
|    \\/     M anipulation  |                                                 |
\*---------------------------------------------------------------------------*/
FoamFile
{
    version     2.0;
    format      ascii;
    arch        "LSB;label=32;scalar=64";
    class       volVectorField;
    location    "0.13";
    object      U;
}
// * * * * * * * * * * * * * * * * * * * * * * * * * * * * * * * * * * * * * //

dimensions      [0 1 -1 0 0 0 0];

internalField   nonuniform List<vector> 
6400
(
(-2.1654333e-05 1.4170628e-05 5.3885856e-20)
(-5.2250154e-05 1.8105272e-05 -9.3692718e-22)
(-8.7338405e-05 1.8210344e-05 -1.5041326e-20)
(-0.00012172307 1.8574596e-05 3.4141036e-21)
(-0.00015717762 1.8749757e-05 1.4105249e-20)
(-0.00019245344 1.8728383e-05 -9.8409844e-21)
(-0.00022745806 1.8652915e-05 -9.603129e-21)
(-0.00026214549 1.8537208e-05 1.106888e-20)
(-0.00029646691 1.8391206e-05 1.3165585e-20)
(-0.00033037722 1.8221244e-05 -2.210184e-20)
(-0.00036383501 1.8030498e-05 -2.0331662e-20)
(-0.00039680066 1.7820737e-05 2.3796021e-20)
(-0.00042923524 1.7593204e-05 -6.8044567e-22)
(-0.00046110076 1.734886e-05 -2.0005155e-20)
(-0.00049236049 1.7088527e-05 -1.1657436e-20)
(-0.00052297908 1.6812946e-05 3.5010934e-21)
(-0.00055292259 1.652284e-05 1.7680027e-20)
(-0.00058215863 1.6218906e-05 -6.5192755e-21)
(-0.00061065647 1.5901804e-05 -1.6258838e-20)
(-0.00063838712 1.5572171e-05 3.2299162e-21)
(-0.00066532339 1.5230583e-05 -2.6814826e-21)
(-0.00069143996 1.4877539e-05 -4.0705415e-21)
(-0.00071671342 1.4513426e-05 2.0994515e-20)
(-0.00074112228 1.4138462e-05 5.5353291e-20)
(-0.00076464697 1.3752586e-05 8.9480113e-20)
(-0.00078726981 1.3355327e-05 -3.8005729e-20)
(-0.00080897499 1.2945582e-05 -1.7530302e-19)
(-0.00082974873 1.2521427e-05 -2.9487756e-20)
(-0.00084958111 1.2080183e-05 8.6977292e-20)
(-0.00086847476 1.1621081e-05 7.5045522e-20)
(-0.00088643327 1.116163e-05 4.903071e-20)
(-0.00090344033 1.0722313e-05 -1.0068837e-20)
(-0.0009194792 1.0302489e-05 3.3131255e-20)
(-0.00093454758 9.8976131e-06 -8.4585934e-20)
(-0.00094864825 9.5041072e-06 -1.2938402e-19)
(-0.00096178576 9.1197445e-06 1.2313353e-19)
(-0.00097396579 8.7432183e-06 3.8134051e-20)
(-0.00098519522 8.3737902e-06 -2.3627269e-19)
(-0.00099548231 8.0110816e-06 6.263478e-20)
(-0.0010048367 7.6549348e-06 3.3765211e-19)
(-0.0010132694 7.3053312e-06 7.9369905e-20)
(-0.0010207929 6.9623279e-06 -1.6311292e-19)
(-0.0010274208 6.6260193e-06 -2.511089e-19)
(-0.0010331681 6.2965252e-06 -2.1371361e-19)
(-0.001038051 5.9739799e-06 1.2105127e-19)
(-0.0010420866 5.6585165e-06 5.2963784e-19)
(-0.0010452931 5.3502582e-06 5.1022972e-20)
(-0.0010476895 5.0493263e-06 -1.8309333e-19)
(-0.0010492958 4.7558282e-06 -1.7708474e-19)
(-0.0010501327 4.4698525e-06 -4.5187922e-19)
(-0.0010502213 4.1914762e-06 2.6208305e-19)
(-0.0010495836 3.9207566e-06 2.8843534e-19)
(-0.0010482418 3.6577477e-06 -6.1913754e-20)
(-0.0010462188 3.4024661e-06 1.7275019e-19)
(-0.0010435375 3.1549359e-06 -3.5775341e-19)
(-0.0010402214 2.9151632e-06 -2.7940345e-19)
(-0.0010362939 2.6831631e-06 3.5336074e-19)
(-0.0010317787 2.4589581e-06 8.8519911e-20)
(-0.0010266994 2.2426097e-06 -7.7798817e-20)
(-0.0010210796 2.0342285e-06 6.6619966e-20)
(-0.0010149429 1.834006e-06 -1.0198464e-20)
(-0.0010083127 1.6421918e-06 -2.9501834e-20)
(-0.0010012123 1.4589594e-06 -3.1003666e-20)
(-0.00099366477 1.2843176e-06 -5.6661531e-20)
(-0.00098569299 1.1182287e-06 -1.5961736e-19)
(-0.0009773194 9.6065649e-07 -4.662221e-20)
(-0.00096856616 8.1159263e-07 3.4422055e-19)
(-0.00095945502 6.7109042e-07 -2.5031497e-20)
(-0.00095000736 5.3926807e-07 -1.4376849e-19)
(-0.00094024415 4.1634519e-07 3.8066827e-19)
(-0.00093018598 3.0266735e-07 -6.1794596e-20)
(-0.00091985307 1.9866511e-07 -2.9226753e-19)
(-0.00090926517 1.0474727e-07 5.9152297e-20)
(-0.00089844098 2.1101145e-08 1.1748596e-19)
(-0.00088739496 -5.292546e-08 1.094905e-19)
(-0.00087613387 -1.2760281e-07 -2.6477592e-19)
(-0.00086467604 -2.3355739e-07 -2.2518497e-19)
(-0.0008530601 -3.7057517e-07 2.4152814e-19)
(-0.00084130664 -5.0720289e-07 2.9332069e-19)
(-0.00082941924 -6.3550637e-07 -9.9951288e-20)
(-4.4849868e-05 0.00011849324 3.426823e-20)
(-0.0001019108 0.00012246347 -1.1252973e-21)
(-0.00016708231 0.00012318704 5.1774047e-21)
(-0.00023075096 0.00012401166 4.3897446e-20)
(-0.00029605257 0.00012423206 3.0016016e-20)
(-0.00036105064 0.00012396828 -2.0414502e-20)
(-0.00042559362 0.00012345952 2.5694447e-20)
(-0.00048960804 0.00012277521 -3.0392428e-21)
(-0.00055299348 0.00012194703 -1.7198926e-20)
(-0.00061565085 0.00012099337 6.2798276e-21)
(-0.00067748964 0.000119925 9.1657898e-21)
(-0.00073842537 0.00011874895 4.7105246e-21)
(-0.00079837755 0.00011747059 -7.5417382e-22)
(-0.00085726941 0.0001160944 6.9059676e-20)
(-0.000915028 0.0001146245 2.1678114e-20)
(-0.000971584 0.00011306481 1.1946207e-20)
(-0.0010268717 0.00011141927 7.2637505e-20)
(-0.0010808288 0.00010969184 5.0010319e-21)
(-0.0011333969 0.00010788654 -6.8640875e-20)
(-0.0011845213 0.00010600743 -4.2074233e-20)
(-0.0012341511 0.00010405861 -5.0585748e-21)
(-0.0012822391 0.0001020442 -1.3383356e-20)
(-0.0013287423 9.9968286e-05 1.6559334e-20)
(-0.0013736217 9.7834868e-05 1.0196819e-19)
(-0.0014168424 9.5647785e-05 1.1911616e-19)
(-0.0014583737 9.3410594e-05 -9.0724023e-20)
(-0.0014981893 9.1126441e-05 -1.844714e-19)
(-0.0015362672 8.8797983e-05 -7.4552813e-20)
(-0.0015725885 8.6427499e-05 -6.0804004e-20)
(-0.0016071289 8.4018929e-05 1.7906638e-19)
(-0.0016398668 8.1588844e-05 2.7440094e-19)
(-0.001670802 7.9156847e-05 -8.9054747e-20)
(-0.0016999413 7.6727489e-05 -1.9109373e-19)
(-0.0017272859 7.4301037e-05 -1.1655365e-19)
(-0.0017528385 7.1878199e-05 7.6702181e-20)
(-0.0017766049 6.9460675e-05 1.2840938e-19)
(-0.0017985949 6.7050795e-05 -2.1052838e-19)
(-0.0018188214 6.4651269e-05 -3.3727e-19)
(-0.0018373007 6.2265007e-05 3.3718943e-19)
(-0.0018540519 5.9894987e-05 4.456833e-19)
(-0.0018690969 5.7544188e-05 -5.2061617e-19)
(-0.0018824603 5.5215522e-05 -2.3385386e-19)
(-0.0018941689 5.2911796e-05 5.7708609e-19)
(-0.0019042521 5.0635691e-05 6.878659e-19)
(-0.0019127412 4.8389745e-05 3.4663837e-20)
(-0.0019196695 4.6176347e-05 -1.1521916e-18)
(-0.0019250719 4.3997729e-05 -7.0288887e-19)
(-0.0019289853 4.185596e-05 6.5686079e-19)
(-0.0019314476 3.9752967e-05 6.0557953e-19)
(-0.0019324982 3.7690488e-05 -3.540574e-19)
(-0.0019321776 3.5670113e-05 -5.7788495e-19)
(-0.0019305274 3.3693275e-05 5.0974697e-19)
(-0.0019275896 3.1761255e-05 7.5379164e-19)
(-0.0019234072 2.9875155e-05 -7.7121722e-20)
(-0.0019180238 2.8035937e-05 -4.7072035e-19)
(-0.001911483 2.6244414e-05 -5.5708248e-19)
(-0.0019038288 2.4501232e-05 -4.8262718e-20)
(-0.0018951055 2.2806858e-05 6.8908397e-19)
(-0.001885357 2.1161578e-05 2.4981507e-19)
(-0.0018746273 1.956548e-05 -6.953713e-19)
(-0.0018629601 1.8018455e-05 -2.4126254e-19)
(-0.001850399 1.6520213e-05 7.0363368e-19)
(-0.0018369875 1.5070387e-05 2.17512e-19)
(-0.0018227686 1.3668716e-05 -7.463722e-19)
(-0.0018077843 1.231492e-05 -3.770189e-19)
(-0.0017920763 1.1008652e-05 4.3326734e-19)
(-0.001775685 9.7494884e-06 4.1140471e-19)
(-0.0017586506 8.536951e-06 1.3343984e-19)
(-0.001741012 7.3705168e-06 -2.0454709e-19)
(-0.0017228074 6.2496553e-06 -5.3349939e-19)
(-0.0017040741 5.1738779e-06 8.1671932e-20)
(-0.0016848487 4.142757e-06 3.6124072e-19)
(-0.0016651671 3.1559076e-06 -7.9772637e-20)
(-0.001645066 2.2129139e-06 6.4346864e-20)
(-0.0016245883 1.3132937e-06 2.704825e-19)
(-0.0016037844 4.5038366e-07 6.1877746e-20)
(-0.0015826726 -3.9868747e-07 -3.9843452e-19)
(-0.0015612404 -1.2252236e-06 -3.0265619e-19)
(-0.0015395129 -2.013434e-06 1.5444193e-19)
(-0.0015175388 -2.7619687e-06 1.2948546e-19)
(-5.3910382e-05 0.00027228324 -7.6963043e-20)
(-0.0001210202 0.00027513687 -2.5131125e-20)
(-0.0001976768 0.00027593178 -2.9261749e-21)
(-0.00027214737 0.00027639376 3.3526055e-20)
(-0.0003484072 0.00027614756 1.3569733e-20)
(-0.00042426258 0.00027530467 -3.9242247e-20)
(-0.00049957751 0.00027405331 3.450457e-20)
(-0.00057428767 0.00027246968 -1.7636434e-21)
(-0.00064827788 0.00027059416 1.6934062e-20)
(-0.00072142897 0.00026845239 9.5900606e-20)
(-0.00079363085 0.00026606163 2.2472235e-20)
(-0.0008647806 0.00026343476 3.37458e-20)
(-0.00093478058 0.00026058246 -2.3289321e-20)
(-0.0010035382 0.00025751434 4.8297963e-20)
(-0.0010709656 0.00025423955 7.7785015e-20)
(-0.0011369801 0.00025076709 2.3510381e-21)
(-0.001201503 0.00024710606 5.8567032e-20)
(-0.0012644605 0.0002432657 -1.4359864e-20)
(-0.0013257834 0.00023925547 -5.6045893e-20)
(-0.001385407 0.00023508502 3.249176e-20)
(-0.0014432711 0.00023076421 1.7289294e-20)
(-0.0014993205 0.00022630309 4.9277579e-21)
(-0.0015535046 0.00022171188 3.8046411e-20)
(-0.0016057777 0.00021700098 8.0548494e-20)
(-0.0016560989 0.00021218095 4.3784685e-20)
(-0.0017044322 0.00020726253 -2.2060364e-20)
(-0.0017507461 0.00020225673 -4.9299711e-20)
(-0.0017950142 0.00019717494 -9.6282581e-20)
(-0.0018372139 0.00019202902 -1.0781888e-19)
(-0.0018773267 0.00018683064 1.7137138e-20)
(-0.0019153395 0.00018158394 7.736868e-20)
(-0.001951247 0.0001762917 2.6349495e-20)
(-0.0019850473 0.00017096516 -8.1894139e-20)
(-0.0020167404 0.00016561611 -1.3067019e-19)
(-0.0020463306 0.0001602553 3.6905266e-20)
(-0.0020738262 0.00015489261 8.5872978e-20)
(-0.0020992397 0.00014953727 -2.1976965e-20)
(-0.0021225878 0.00014419806 -5.7534854e-20)
(-0.0021438903 0.00013888332 1.5221495e-20)
(-0.0021631709 0.00013360103 -3.8788159e-20)
(-0.0021804562 0.00012835877 -1.5892269e-19)
(-0.0021957758 0.00012316375 7.7088903e-20)
(-0.0022091624 0.00011802278 2.5877639e-19)
(-0.0022206508 0.00011294227 2.5844597e-19)
(-0.0022302788 0.0001079282 1.3169273e-20)
(-0.0022380859 0.00010298618 -5.1667789e-19)
(-0.0022441139 9.8121366e-05 -2.3713637e-19)
(-0.0022484065 9.3338542e-05 1.8925149e-19)
(-0.0022510089 8.8642088e-05 2.0871208e-19)
(-0.0022519677 8.4035959e-05 1.3601115e-19)
(-0.002251331 7.9523731e-05 -2.831998e-19)
(-0.0022491476 7.5108617e-05 6.4423368e-21)
(-0.0022454675 7.0793426e-05 2.9658288e-19)
(-0.0022403414 6.6580598e-05 -2.6060511e-20)
(-0.0022338206 6.247221e-05 -4.3737045e-20)
(-0.0022259565 5.8470013e-05 -1.1147825e-19)
(-0.0022168012 5.4575368e-05 -9.6420868e-20)
(-0.0022064067 5.0789285e-05 2.0234238e-19)
(-0.0021948251 4.7112401e-05 5.6549849e-20)
(-0.0021821081 4.3544971e-05 -2.6864566e-19)
(-0.0021683075 4.0086848e-05 -7.5803509e-20)
(-0.0021534742 3.6737529e-05 2.065938e-19)
(-0.0021376586 3.3496326e-05 6.4870266e-20)
(-0.0021209104 3.0362535e-05 -1.3294443e-19)
(-0.0021032788 2.7335337e-05 2.2975145e-20)
(-0.0020848123 2.4413735e-05 7.9189628e-20)
(-0.0020655585 2.1596525e-05 -3.7807123e-20)
(-0.0020455641 1.8882307e-05 5.5367642e-20)
(-0.0020248749 1.6269517e-05 -2.1724892e-20)
(-0.0020035356 1.3756442e-05 -1.9320115e-19)
(-0.0019815897 1.1341258e-05 1.7000247e-20)
(-0.0019590797 9.0220941e-06 1.0721664e-19)
(-0.0019360466 6.797066e-06 -2.7620759e-20)
(-0.0019125299 4.6641872e-06 5.0143357e-20)
(-0.0018885694 2.6216312e-06 7.0130222e-20)
(-0.0018642081 6.7420767e-07 3.5619608e-20)
(-0.0018394732 -1.1611023e-06 -7.5625377e-20)
(-0.0018143923 -2.8880389e-06 -1.7505619e-19)
(-0.0017890082 -4.529963e-06 -4.3720532e-20)
(-0.001763355 -6.093644e-06 1.316122e-19)
(-5.6344786e-05 0.00043370219 -2.5223643e-19)
(-0.00012716458 0.0004350237 -1.0821343e-19)
(-0.0002079092 0.00043523988 4.4683294e-20)
(-0.00028608487 0.00043501691 -5.7565095e-20)
(-0.00036612339 0.00043409382 2.1824605e-20)
(-0.00044568142 0.00043252663 -4.3796403e-20)
(-0.0005246417 0.00043042778 -2.8876458e-20)
(-0.00060295407 0.00042785685 -4.8804025e-22)
(-0.00068050484 0.00042485176 3.4993734e-20)
(-0.00075717176 0.00042143956 7.2543774e-20)
(-0.00083284012 0.00041764093 3.8431942e-20)
(-0.00090740174 0.00041347299 4.51231e-20)
(-0.00098075361 0.00040895101 -4.0207546e-20)
(-0.0010527978 0.00040408945 9.8805448e-21)
(-0.0011234417 0.00039890245 4.6657057e-20)
(-0.0011925975 0.00039340414 -4.0286872e-20)
(-0.0012601825 0.00038760891 5.1403885e-20)
(-0.0013261185 0.00038153138 1.6178946e-20)
(-0.0013903326 0.00037518655 -3.0528986e-20)
(-0.0014527566 0.00036858972 3.1012505e-20)
(-0.0015133273 0.0003617565 7.4284843e-21)
(-0.0015719867 0.00035470276 7.3490969e-21)
(-0.0016286816 0.00034744462 5.8520402e-20)
(-0.0016833642 0.00033999836 1.9524708e-20)
(-0.0017359915 0.00033238041 -3.5526578e-20)
(-0.001786526 0.00032460729 -4.4699986e-20)
(-0.0018349349 0.00031669557 -5.7890664e-20)
(-0.0018811907 0.00030866176 -6.7691459e-21)
(-0.0019252704 0.00030052233 1.5699614e-21)
(-0.0019671561 0.00029229339 -2.3113834e-20)
(-0.0020068351 0.00028398987 -3.1038139e-20)
(-0.0020443003 0.00027562686 -4.5161293e-21)
(-0.0020795492 0.00026722094 4.7917312e-20)
(-0.0021125832 0.00025878829 -3.5445014e-20)
(-0.0021434075 0.00025034412 -8.7819727e-20)
(-0.0021720318 0.00024190275 1.8644099e-20)
(-0.00219847 0.00023347791 8.1592758e-20)
(-0.0022227399 0.00022508279 3.3363745e-20)
(-0.0022448632 0.00021673005 1.5698469e-22)
(-0.002264865 0.00020843184 -2.3136181e-20)
(-0.002282774 0.00020019977 -1.4921578e-20)
(-0.0022986218 0.00019204488 3.5728658e-20)
(-0.0023124431 0.00018397762 4.3816897e-20)
(-0.0023242753 0.00017600781 -3.9633259e-20)
(-0.0023341584 0.00016814466 1.8215642e-20)
(-0.0023421345 0.00016039677 -4.3949144e-20)
(-0.002348248 0.00015277207 -7.4361339e-20)
(-0.0023525451 0.00014527787 1.717182e-20)
(-0.0023550738 0.00013792085 -2.5460183e-20)
(-0.0023558835 0.00013070706 5.4328826e-20)
(-0.0023550249 0.00012364194 2.7522274e-20)
(-0.0023525497 0.00011673034 -5.2202579e-20)
(-0.0023485109 0.00010997648 3.9153257e-20)
(-0.0023429618 0.00010338403 9.5363184e-21)
(-0.0023359564 9.6956103e-05 -1.0574752e-20)
(-0.0023275492 9.0695263e-05 -6.1225299e-21)
(-0.0023177949 8.4603572e-05 -2.5568223e-20)
(-0.0023067481 7.8682615e-05 4.163129e-20)
(-0.0022944636 7.2933531e-05 5.5896818e-21)
(-0.0022809957 6.7357059e-05 -9.5101806e-20)
(-0.0022663988 6.1953543e-05 -1.4396011e-20)
(-0.0022507265 5.6722971e-05 7.1026998e-20)
(-0.0022340318 5.1664891e-05 1.9405918e-20)
(-0.0022163672 4.6778315e-05 -2.2414063e-20)
(-0.0021977843 4.2061898e-05 1.6642359e-20)
(-0.0021783338 3.7513976e-05 -3.6078272e-21)
(-0.0021580658 3.3132612e-05 -5.2571532e-20)
(-0.002137029 2.8915621e-05 1.7441068e-20)
(-0.0021152712 2.486059e-05 8.0996826e-21)
(-0.0020928392 2.0964932e-05 9.383496e-22)
(-0.0020697784 1.7225899e-05 -1.3985159e-23)
(-0.0020461331 1.3640615e-05 -2.307366e-21)
(-0.0020219462 1.0205996e-05 -2.1918824e-20)
(-0.0019972596 6.9185281e-06 -2.8536177e-20)
(-0.0019721136 3.7741296e-06 3.2633941e-20)
(-0.0019465475 7.7290317e-07 7.0510477e-21)
(-0.0019205992 -2.0749641e-06 -3.4606828e-20)
(-0.0018943065 -4.7860721e-06 -6.5189675e-20)
(-0.0018677047 -7.3704964e-06 -4.0116868e-20)
(-0.0018408252 -9.8312471e-06 3.1837333e-20)
(-5.704754e-05 0.00059934379 -4.2638619e-19)
(-0.00012913481 0.00059977937 -2.0104798e-19)
(-0.00021143665 0.00059941917 -5.1769644e-21)
(-0.00029104059 0.00059851359 1.1207501e-19)
(-0.00037257259 0.00059687624 -4.6899957e-20)
(-0.0004535803 0.00059452508 -1.4919387e-19)
(-0.00053395062 0.00059152214 -1.5477181e-19)
(-0.00061364099 0.00058790989 -7.9882964e-20)
(-0.0006925414 0.00058372121 -8.6739395e-21)
(-0.00077053108 0.00057898288 5.5986277e-20)
(-0.0008474954 0.0005737178 -4.3095893e-20)
(-0.00092332541 0.00056794667 1.854977e-20)
(-0.00099791679 0.00056168906 -3.0750769e-20)
(-0.0010711701 0.00055496416 -2.6013014e-20)
(-0.0011429909 0.00054779119 4.9352937e-20)
(-0.0012132899 0.00054018958 -4.4479002e-20)
(-0.0012819825 0.00053217925 1.5232042e-20)
(-0.0013489893 0.00052378053 -4.8241379e-21)
(-0.0014142357 0.00051501426 -4.5684874e-20)
(-0.0014776522 0.00050590177 3.2926779e-20)
(-0.0015391746 0.00049646479 5.5869461e-20)
(-0.0015987436 0.00048672542 -5.0356898e-20)
(-0.0016563054 0.00047670609 -4.7442915e-20)
(-0.0017118112 0.00046642945 -2.3429045e-20)
(-0.0017652177 0.00045591836 -5.623907e-20)
(-0.0018164865 0.00044519574 -5.8055913e-20)
(-0.0018655847 0.00043428457 -4.0817576e-20)
(-0.0019124846 0.00042320772 1.6739014e-20)
(-0.0019571634 0.00041198794 2.7257087e-20)
(-0.0019996033 0.00040064759 4.551456e-20)
(-0.0020397917 0.00038920837 -4.2775794e-20)
(-0.0020777212 0.00037769163 -6.3836509e-20)
(-0.0021133897 0.00036611885 1.3528154e-20)
(-0.0021467991 0.00035451126 1.4058907e-21)
(-0.0021779558 0.00034288943 5.7146222e-20)
(-0.0022068703 0.00033127317 1.4422361e-20)
(-0.0022335574 0.00031968156 4.9760553e-21)
(-0.0022580357 0.00030813295 -5.1287791e-20)
(-0.0022803279 0.0002966449 -2.8784344e-20)
(-0.0023004602 0.00028523424 -8.0505916e-21)
(-0.0023184622 0.00027391698 -1.4702701e-20)
(-0.0023343668 0.00026270832 4.2620754e-21)
(-0.0023482099 0.00025162261 2.7846626e-21)
(-0.0023600301 0.00024067336 -5.8991699e-20)
(-0.0023698685 0.00022987319 6.558332e-21)
(-0.0023777688 0.00021923385 1.7846883e-20)
(-0.0023837765 0.0002087662 -4.1285284e-20)
(-0.0023879392 0.00019848023 -4.0901094e-20)
(-0.0023903063 0.00018838505 -3.059135e-20)
(-0.0023909284 0.0001784889 1.8522733e-20)
(-0.0023898578 0.00016879918 1.4642606e-20)
(-0.0023871474 0.00015932247 -2.1697394e-20)
(-0.0023828515 0.00015006449 1.3197327e-21)
(-0.0023770248 0.00014103018 -6.5474744e-21)
(-0.0023697227 0.00013222374 -3.0684473e-21)
(-0.0023610008 0.00012364856 5.8043563e-21)
(-0.002350915 0.00011530736 -2.5154804e-20)
(-0.0023395214 0.00010720215 -3.2260284e-20)
(-0.0023268758 9.9334263e-05 -7.7385715e-21)
(-0.0023130339 9.1704444e-05 -7.6888678e-21)
(-0.0022980509 8.4312822e-05 8.8157583e-21)
(-0.0022819816 7.7159021e-05 4.0134126e-20)
(-0.0022648801 7.0242113e-05 2.107441e-20)
(-0.0022468 6.3560644e-05 9.694519e-21)
(-0.0022277938 5.7112712e-05 -1.1246155e-20)
(-0.0022079133 5.0895949e-05 -4.0204491e-20)
(-0.0021872093 4.4907603e-05 -3.9234457e-21)
(-0.0021657315 3.9144562e-05 -4.5087683e-22)
(-0.0021435287 3.3603355e-05 -4.0927428e-20)
(-0.0021206482 2.8280218e-05 5.1873758e-21)
(-0.0020971365 2.3171121e-05 1.3632782e-20)
(-0.0020730384 1.8271834e-05 1.528611e-20)
(-0.0020483974 1.3577935e-05 6.9348499e-23)
(-0.0020232551 9.084937e-06 -2.1931194e-20)
(-0.0019976502 4.7887495e-06 -7.9904124e-21)
(-0.0019716174 6.8732685e-07 -1.6229914e-20)
(-0.0019452006 -3.219404e-06 1.2318468e-21)
(-0.0019184466 -6.9414295e-06 -4.5627682e-20)
(-0.001891389 -1.0485485e-05 -6.2310057e-20)
(-0.0018640576 -1.385765e-05 -3.2376103e-21)
(-5.7405393e-05 0.00076634748 -5.2132562e-19)
(-0.00013020275 0.00076633692 -2.5993693e-19)
(-0.00021339569 0.00076551097 -3.1626827e-19)
(-0.00029386294 0.00076400266 -1.5211321e-19)
(-0.00037631362 0.0007616729 -1.4082488e-19)
(-0.00045822039 0.00075852413 -1.4673848e-19)
(-0.00053946479 0.00075459428 -8.7928087e-20)
(-0.00062000471 0.00074991561 1.0466904e-20)
(-0.00069973114 0.00074451739 1.9764326e-22)
(-0.00077852411 0.00073842631 8.8746816e-20)
(-0.00085626927 0.00073166728 4.8185884e-20)
(-0.00093285748 0.00072426426 4.6835975e-20)
(-0.0010081838 0.0007162409 5.8600307e-20)
(-0.0010821481 0.00070762099 1.1479349e-19)
(-0.001154655 0.00069842875 1.1824924e-19)
(-0.001225614 0.00068868893 -5.0054523e-20)
(-0.0012949399 0.00067842695 6.4638539e-20)
(-0.0013625519 0.00066766893 9.4762109e-20)
(-0.0014283749 0.00065644166 5.689004e-20)
(-0.0014923386 0.00064477252 3.7636286e-20)
(-0.0015543778 0.00063268949 -1.7186923e-20)
(-0.0016144329 0.00062022101 -7.0529133e-20)
(-0.0016724494 0.0006073959 -4.6307248e-20)
(-0.0017283782 0.00059424332 5.253306e-20)
(-0.0017821756 0.00058079259 4.9475704e-20)
(-0.0018338033 0.00056707316 4.9643273e-20)
(-0.0018832282 0.00055311447 -2.9047405e-21)
(-0.0019304226 0.00053894585 -3.8332883e-20)
(-0.001975364 0.0005245964 -8.4639251e-21)
(-0.0020180351 0.00051009483 4.9007541e-20)
(-0.0020584237 0.00049546935 -6.3297346e-21)
(-0.0020965228 0.00048074764 -1.7536982e-20)
(-0.0021323304 0.00046595707 3.4548238e-20)
(-0.0021658491 0.00045112452 8.6765717e-20)
(-0.002197086 0.00043627613 1.1457312e-19)
(-0.0022260524 0.0004214372 -1.335332e-20)
(-0.002252764 0.00040663216 6.7573403e-21)
(-0.0022772404 0.00039188445 -3.9847365e-21)
(-0.0022995052 0.00037721657 7.3565219e-21)
(-0.0023195856 0.00036265001 2.8885003e-20)
(-0.0023375123 0.00034820519 -4.6984535e-20)
(-0.0023533192 0.00033390151 -4.8866661e-20)
(-0.0023670433 0.00031975726 7.0699612e-20)
(-0.0023787242 0.0003057896 1.0610374e-19)
(-0.0023884044 0.0002920146 1.4329674e-20)
(-0.0023961285 0.00027844718 -1.9296548e-21)
(-0.0024019432 0.00026510111 -4.4044125e-20)
(-0.0024058974 0.00025198906 3.6529721e-20)
(-0.0024080414 0.00023912256 6.7595946e-20)
(-0.0024084271 0.00022651203 -1.33882e-20)
(-0.0024071078 0.00021416681 -2.0643091e-20)
(-0.0024041376 0.00020209516 -1.0649792e-20)
(-0.0023995718 0.0001903043 -3.0231267e-21)
(-0.0023934662 0.00017880043 -1.9585477e-20)
(-0.0023858771 0.00016758876 -9.0721842e-21)
(-0.0023768613 0.00015667356 1.6930121e-20)
(-0.0023664756 0.00014605818 -9.8068263e-21)
(-0.0023547769 0.00013574508 -2.3819365e-20)
(-0.0023418219 0.00012573591 -1.3324797e-21)
(-0.0023276672 0.00011603153 1.2211697e-20)
(-0.0023123687 0.00010663204 -2.1105616e-21)
(-0.0022959821 9.7536847e-05 4.3240778e-21)
(-0.0022785622 8.8744687e-05 2.893102e-20)
(-0.002260163 8.0253654e-05 5.6982961e-20)
(-0.002240838 7.2061283e-05 1.8063577e-20)
(-0.0022206395 6.4164556e-05 -1.982962e-20)
(-0.0021996188 5.6559963e-05 7.5207968e-21)
(-0.0021778261 4.924358e-05 -2.8815175e-20)
(-0.0021553106 4.2211059e-05 -7.237532e-20)
(-0.0021321202 3.5457729e-05 -1.9374854e-21)
(-0.0021083014 2.8978604e-05 3.4370732e-20)
(-0.0020838995 2.2768429e-05 1.1071343e-20)
(-0.0020589583 1.6821669e-05 -2.1222093e-20)
(-0.0020335196 1.1132502e-05 6.3422114e-21)
(-0.0020076228 5.69483e-06 3.5749265e-20)
(-0.0019813049 5.0126766e-07 -7.1218777e-21)
(-0.00195461 -4.4552262e-06 -4.3866658e-21)
(-0.0019275815 -9.1834136e-06 -5.4534264e-20)
(-0.0019002527 -1.3686691e-05 -5.7473676e-20)
(-0.0018726551 -1.7971094e-05 1.1209183e-20)
(-5.7850569e-05 0.0009345417 -6.2693879e-19)
(-0.00013132689 0.00093431961 -1.376581e-19)
(-0.00021534766 0.00093311947 -2.4333488e-19)
(-0.0002966382 0.00093107826 -4.2763733e-19)
(-0.00037995809 0.00092808319 -3.0216052e-19)
(-0.00046272557 0.00092413505 1.0131437e-20)
(-0.00054481409 0.00091926477 6.1483565e-21)
(-0.00062617833 0.00091350092 -3.01673e-20)
(-0.0007067077 0.00090687167 5.5388361e-20)
(-0.00078628128 0.00089940459 7.3255723e-20)
(-0.000864784 0.00089112693 1.1712515e-20)
(-0.00094210588 0.00088206595 -2.9705454e-20)
(-0.0010181411 0.00087224935 -7.3299526e-20)
(-0.0010927884 0.00086170551 1.5572811e-20)
(-0.0011659514 0.00085046361 9.259252e-20)
(-0.0012375387 0.00083855373 -4.663954e-20)
(-0.0013074637 0.00082600687 -7.3144237e-22)
(-0.0013756451 0.00081285499 1.8058341e-20)
(-0.0014420066 0.00079913086 3.0595906e-21)
(-0.0015064772 0.00078486808 9.3039719e-20)
(-0.001568991 0.00077010094 8.4154128e-20)
(-0.0016294879 0.00075486432 4.3050746e-20)
(-0.0016879128 0.00073919359 2.1470816e-20)
(-0.0017442164 0.00072312446 8.0943161e-20)
(-0.0017983548 0.00070669291 4.6939872e-20)
(-0.0018502895 0.00068993501 -1.1149196e-20)
(-0.0018999876 0.00067288682 8.3118702e-21)
(-0.0019474214 0.00065558426 -1.1533869e-21)
(-0.0019925688 0.00063806296 1.7294242e-20)
(-0.0020354129 0.00062035812 7.4628184e-20)
(-0.0020759421 0.0006025044 4.5826063e-20)
(-0.0021141498 0.00058453589 5.6043156e-20)
(-0.0021500347 0.00056648602 9.0919675e-20)
(-0.0021835999 0.00054838755 6.8309443e-20)
(-0.0022148536 0.00053027234 1.0285661e-20)
(-0.0022438079 0.00051217126 -4.4070953e-20)
(-0.0022704796 0.00049411411 2.3016894e-20)
(-0.0022948893 0.00047612953 2.2152225e-20)
(-0.0023170619 0.00045824498 -1.6340422e-21)
(-0.0023370255 0.00044048665 3.6336966e-20)
(-0.0023548123 0.00042287948 3.4877207e-20)
(-0.0023704572 0.00040544708 1.8820732e-20)
(-0.0023839985 0.0003882117 -2.3382924e-20)
(-0.0023954771 0.00037119424 4.8606457e-20)
(-0.0024049368 0.00035441422 3.1157846e-20)
(-0.0024124235 0.00033788976 3.3345996e-20)
(-0.0024179852 0.00032163757 3.3087341e-20)
(-0.002421672 0.000305673 7.5840668e-21)
(-0.0024235355 0.00029001002 -1.7020188e-21)
(-0.0024236289 0.00027466122 -2.9722595e-21)
(-0.0024220067 0.00025963789 2.5074235e-20)
(-0.0024187243 0.00024494996 -1.5607465e-20)
(-0.002413838 0.00023060614 -2.8069952e-20)
(-0.0024074049 0.00021661385 -1.7648592e-20)
(-0.0023994824 0.00020297933 -5.2554926e-20)
(-0.0023901282 0.00018970766 -1.5159248e-20)
(-0.0023794002 0.00017680279 4.4868556e-20)
(-0.0023673564 0.00016426762 3.96848e-20)
(-0.0023540543 0.00015210404 7.7581496e-21)
(-0.0023395514 0.00014031295 1.7753772e-20)
(-0.0023239045 0.00012889438 -1.6708636e-20)
(-0.0023071701 0.00011784745 -3.2506923e-20)
(-0.0022894036 0.00010717051 -1.9124171e-20)
(-0.0022706599 9.6861134e-05 4.8789241e-20)
(-0.002250993 8.691619e-05 5.4064589e-20)
(-0.0022304557 7.733191e-05 5.7982778e-21)
(-0.0022091001 6.8103921e-05 -3.2812607e-21)
(-0.0021869767 5.9227318e-05 -2.599231e-20)
(-0.0021641353 5.0696694e-05 -4.3687059e-20)
(-0.002140624 4.250622e-05 -7.0265868e-21)
(-0.0021164898 3.4649662e-05 1.6394989e-20)
(-0.0020917783 2.7120409e-05 3.0595771e-21)
(-0.0020665337 1.9911534e-05 -1.610289e-20)
(-0.0020407988 1.3015783e-05 -1.0762932e-20)
(-0.0020146141 6.425603e-06 7.9639571e-21)
(-0.0019880146 1.319171e-07 -5.8007314e-22)
(-0.0019610457 -5.8757896e-06 6.7377234e-21)
(-0.0019337509 -1.1603552e-05 -4.4297811e-20)
(-0.0019061607 -1.705738e-05 -2.8252425e-20)
(-0.0018783086 -2.2245334e-05 -4.2525088e-21)
(-5.8443994e-05 0.0011042944 -8.2692954e-19)
(-0.00013271865 0.0011039539 -5.0974575e-19)
(-0.00021767969 0.0011024308 -3.2178273e-19)
(-0.00029989999 0.0010998991 -2.4706315e-19)
(-0.00038418904 0.001096256 -2.4588051e-19)
(-0.00046791979 0.0010915062 -1.604502e-19)
(-0.00055095787 0.0010856823 -4.5674075e-20)
(-0.00063325374 0.0010788135 -1.2895945e-19)
(-0.00071469367 0.0010709291 -3.820501e-20)
(-0.00079515445 0.0010620588 2.7637084e-20)
(-0.00087451921 0.0010522328 -1.2355844e-20)
(-0.00095267633 0.0010414818 -3.8051136e-20)
(-0.0010295185 0.0010298379 -1.5893884e-19)
(-0.0011049429 0.001017334 -6.8851017e-20)
(-0.0011788518 0.0010040045 -5.4732485e-21)
(-0.0012511524 0.0009898848 -2.523626e-20)
(-0.0013217569 0.00097501164 2.4729763e-20)
(-0.0013905828 0.00095942291 -9.9698723e-21)
(-0.0014575528 0.00094315754 -6.8557004e-20)
(-0.0015225948 0.00092625546 3.333265e-21)
(-0.0015856424 0.00090875743 6.4832942e-20)
(-0.0016466345 0.00089070493 -2.6400622e-20)
(-0.0017055159 0.00087214002 8.6298382e-22)
(-0.0017622366 0.00085310517 1.3618014e-19)
(-0.0018167525 0.00083364313 1.2716699e-19)
(-0.0018690252 0.00081379678 -5.8561005e-20)
(-0.0019190218 0.00079360897 -3.9795894e-20)
(-0.0019667148 0.00077312235 -4.6294137e-20)
(-0.0020120825 0.00075237926 -1.2243707e-21)
(-0.0020551085 0.00073142154 4.0751114e-20)
(-0.0020957818 0.00071029042 -2.4090884e-20)
(-0.0021340965 0.00068902641 2.7313902e-20)
(-0.0021700519 0.00066766919 4.4284925e-20)
(-0.0022036524 0.00064625756 -6.0368759e-20)
(-0.0022349067 0.00062482923 -6.3222947e-20)
(-0.0022638285 0.00060342075 -2.5469848e-20)
(-0.0022904355 0.00058206739 2.2569998e-20)
(-0.0023147497 0.00056080305 -1.9814861e-20)
(-0.0023367973 0.00053966021 -1.0181522e-19)
(-0.002356608 0.00051866989 -8.7290256e-20)
(-0.0023742151 0.00049786153 -1.3333866e-20)
(-0.0023896552 0.00047726304 6.8710975e-20)
(-0.002402968 0.00045690069 -6.76372e-21)
(-0.002414196 0.00043679913 -6.2776591e-20)
(-0.0024233844 0.00041698135 -1.3346321e-20)
(-0.0024305807 0.0003974687 5.1111091e-20)
(-0.0024358344 0.00037828085 8.2292138e-20)
(-0.0024391971 0.00035943582 -1.8116744e-20)
(-0.002440722 0.00034095001 -5.9258125e-20)
(-0.0024404637 0.0003228382 9.4598545e-21)
(-0.0024384782 0.00030511355 -1.4095473e-20)
(-0.0024348222 0.00028778772 -8.3985252e-21)
(-0.0024295536 0.0002708708 -2.1901582e-20)
(-0.0024227306 0.00025437145 -5.8290907e-20)
(-0.002414412 0.00023829687 -4.3385889e-20)
(-0.0024046568 0.00022265293 -2.6500526e-20)
(-0.002393524 0.00020744412 1.5650806e-20)
(-0.0023810728 0.00019267373 -1.8891048e-20)
(-0.0023673618 0.0001783438 -2.8047009e-20)
(-0.0023524495 0.00016445528 2.9488735e-21)
(-0.0023363937 0.000151008 -2.3861552e-21)
(-0.0023192517 0.00013800079 1.7860269e-20)
(-0.0023010799 0.00012543154 -3.6191348e-20)
(-0.0022819339 0.00011329723 -1.9769483e-20)
(-0.0022618685 0.000101594 3.711535e-20)
(-0.0022409372 9.0317281e-05 -1.0456144e-20)
(-0.0022191926 7.9461749e-05 9.2335781e-21)
(-0.002196686 6.9021471e-05 -1.5680698e-20)
(-0.0021734673 5.8989917e-05 -3.0017175e-20)
(-0.0021495855 4.9360053e-05 -2.7219944e-21)
(-0.0021250878 4.0124364e-05 -3.9387424e-21)
(-0.0021000203 3.1274916e-05 -4.4946824e-21)
(-0.0020744274 2.2803424e-05 2.5996168e-21)
(-0.002048352 1.470129e-05 8.0890467e-21)
(-0.0020218351 6.9597545e-06 1.4523615e-21)
(-0.0019949157 -4.3096072e-07 -1.1148257e-20)
(-0.0019676357 -7.4857285e-06 -9.1273884e-21)
(-0.0019400349 -1.4208675e-05 -3.8375961e-20)
(-0.0019121474 -2.0608724e-05 -4.22319e-20)
(-0.001884007 -2.6695741e-05 -1.5938094e-20)
(-5.9178268e-05 0.0012760139 -1.0308526e-18)
(-0.00013440371 0.001275589 -7.5130238e-19)
(-0.00022046459 0.0012737674 -2.2780236e-19)
(-0.00030376174 0.0012707658 -1.1545152e-19)
(-0.00038916368 0.0012664812 -7.2350869e-20)
(-0.00047400008 0.0012609233 -1.1327679e-19)
(-0.0005581297 0.00125413 1.5801924e-20)
(-0.00064149874 0.0012461337 3.144146e-20)
(-0.00072398966 0.0012369667 7.2404089e-20)
(-0.00080547607 0.0012266617 1.1573209e-19)
(-0.00088583845 0.0012152523 1.3528878e-19)
(-0.00096496288 0.0012027734 1.1371289e-19)
(-0.0010427399 0.0011892613 1.9721014e-20)
(-0.0011190647 0.001174754 4.0585186e-20)