/*--------------------------------*- C++ -*----------------------------------*\
| =========                 |                                                 |
| \\      /  F ield         | OpenFOAM: The Open Source CFD Toolbox           |
|  \\    /   O peration     | Version:  2306                                  |
|   \\  /    A nd           | Website:  www.openfoam.com                      |
|    \\/     M anipulation  |                                                 |
\*---------------------------------------------------------------------------*/
FoamFile
{
    version     2.0;
    format      ascii;
    arch        "LSB;label=32;scalar=64";
    class       surfaceScalarField;
    location    "0.55";
    object      phi;
}
// * * * * * * * * * * * * * * * * * * * * * * * * * * * * * * * * * * * * * //

dimensions      [0 3 -1 0 0 0 0];

oriented        oriented;

internalField   nonuniform List<scalar> 
101920
(
1.7989001e-09
-1.7989e-09
7.3794368e-09
-5.5805368e-09
1.6599144e-08
-9.219707e-09
2.942192e-08
-1.2822776e-08
4.5761058e-08
-1.6339139e-08
6.5523319e-08
-1.9762261e-08
8.8631916e-08
-2.3108597e-08
1.1500135e-07
-2.6369437e-08
1.4453347e-07
-2.9532121e-08
1.7711662e-07
-3.2583143e-08
2.1262574e-07
-3.5509125e-08
2.5092324e-07
-3.8297501e-08
2.9186002e-07
-4.0936783e-08
3.3527651e-07
-4.3416489e-08
3.8100369e-07
-4.5727178e-08
4.2886401e-07
-4.7860318e-08
4.7867237e-07
-4.9808361e-08
5.3023713e-07
-5.1564755e-08
5.8336105e-07
-5.312392e-08
6.3784221e-07
-5.448116e-08
6.9347512e-07
-5.5632913e-08
7.5005149e-07
-5.6576365e-08
8.0736127e-07
-5.7309786e-08
8.651936e-07
-5.7832333e-08
9.2333788e-07
-5.8144274e-08
9.8158434e-07
-5.8246462e-08
1.0397252e-06
-5.814085e-08
1.0975566e-06
-5.7831421e-08
1.1548875e-06
-5.7330868e-08
1.2115585e-06
-5.6671034e-08
1.267359e-06
-5.5800452e-08
1.3220809e-06
-5.4721924e-08
1.3755477e-06
-5.3466804e-08
1.427594e-06
-5.2046344e-08
1.4780626e-06
-5.046858e-08
1.5268052e-06
-4.8742616e-08
1.5736815e-06
-4.6876281e-08
1.6185614e-06
-4.4879838e-08
1.6613252e-06
-4.2763857e-08
1.701863e-06
-4.0537816e-08
1.7400761e-06
-3.8213058e-08
1.7758774e-06
-3.5801352e-08
1.8091906e-06
-3.3313162e-08
1.8399542e-06
-3.0763646e-08
1.8681156e-06
-2.8161346e-08
1.8936335e-06
-2.5517888e-08
1.9164803e-06
-2.2846787e-08
1.9366413e-06
-2.0160979e-08
1.9541139e-06
-1.747269e-08
1.968904e-06
-1.4790081e-08
1.9809754e-06
-1.2071346e-08
1.9903598e-06
-9.3844785e-09
1.9970991e-06
-6.7392887e-09
2.0012106e-06
-4.1115041e-09
2.0026742e-06
-1.4635578e-09
2.0016149e-06
1.0593194e-09
1.998219e-06
3.3958481e-09
1.9924854e-06
5.7335888e-09
1.984472e-06
8.0134689e-09
1.9742559e-06
1.0216077e-08
1.9619252e-06
1.2330707e-08
1.9475703e-06
1.4354901e-08
1.9312918e-06
1.6278484e-08
1.9131879e-06
1.810392e-08
1.8933614e-06
1.9826533e-08
1.871917e-06
2.1444366e-08
1.8489609e-06
2.2956128e-08
1.8246016e-06
2.4359245e-08
1.798947e-06
2.565457e-08
1.7720975e-06
2.6849507e-08
1.744165e-06
2.7932533e-08
1.7152563e-06
2.8908742e-08
1.6854738e-06
2.9782493e-08
1.654918e-06
3.0555801e-08
1.6236847e-06
3.1233291e-08
1.5918784e-06
3.1806305e-08
1.5595848e-06
3.2293563e-08
1.5269039e-06
3.2680933e-08
1.4939202e-06
3.2983651e-08
1.4607167e-06
3.3203527e-08
1.427373e-06
3.3343653e-08
1.3939629e-06
3.341015e-08
1.360558e-06
3.3404902e-08
1.3272278e-06
3.3330158e-08
1.2940348e-06
3.3193056e-08
1.2610366e-06
3.2998137e-08
1.2282886e-06
3.2748021e-08
1.1958405e-06
3.244814e-08
1.1637378e-06
3.2102651e-08
1.1320241e-06
3.1713734e-08
1.1007368e-06
3.1287323e-08
1.0699095e-06
3.0827293e-08
1.0395719e-06
3.0337532e-08
1.0097508e-06
2.9821127e-08
9.8046881e-07
2.9282026e-08
9.5174506e-07
2.8723752e-08
9.2359587e-07
2.8149179e-08
8.9603428e-07
2.7561591e-08
8.6907032e-07
2.696395e-08
8.4271142e-07
2.6358903e-08
8.1696235e-07
2.5749078e-08
7.9182542e-07
2.5136927e-08
7.6730077e-07
2.4524638e-08
7.4338644e-07
2.3914328e-08
7.2007857e-07
2.3307871e-08
6.9737159e-07
2.270698e-08
6.7525837e-07
2.2113217e-08
6.5373041e-07
2.152795e-08
6.3277802e-07
2.0952398e-08
6.1239038e-07
2.0387633e-08
5.9255581e-07
1.9834578e-08
5.7326175e-07
1.9294047e-08
5.5449512e-07
1.8766634e-08
5.3624197e-07
1.8253144e-08
5.1848777e-07
1.7754202e-08
5.012177e-07
1.7270062e-08
4.8441674e-07
1.6800966e-08
4.6806924e-07
1.6347506e-08
4.5215906e-07
1.5910174e-08
4.3666978e-07
1.5489286e-08
4.2158446e-07
1.508532e-08
4.0688681e-07
1.469766e-08
3.9256117e-07
1.4325643e-08
3.7859201e-07
1.396915e-08
3.6496386e-07
1.3628152e-08
3.5166142e-07
1.3302436e-08
3.3866981e-07
1.2991613e-08
3.2597478e-07
1.2695047e-08
3.1356246e-07
1.2412323e-08
3.0141717e-07
1.214528e-08
2.895179e-07
1.1899262e-08
2.7785216e-07
1.1665737e-08
2.6640793e-07
1.1444223e-08
2.5517286e-07
1.1235077e-08
2.4413439e-07
1.1038467e-08
2.332801e-07
1.08543e-08
2.2259763e-07
1.0682476e-08
2.1207476e-07
1.0522856e-08
2.0169987e-07
1.0374896e-08
1.9146126e-07
1.0238616e-08
1.8134786e-07
1.0113403e-08
1.7134868e-07
9.9991805e-09
1.6145286e-07
9.8958262e-09
1.5164957e-07
9.8032786e-09
1.4192851e-07
9.7210766e-09
1.3227911e-07
9.6493988e-09
1.2269079e-07
9.5883046e-09
1.1315261e-07
9.5381859e-09
1.0365273e-07
9.4998837e-09
9.4177692e-08
9.4750282e-09
8.4711036e-08
9.4666417e-09
7.5231572e-08
9.4794732e-09
6.5709449e-08
9.5221185e-09
5.610265e-08
9.6068049e-09
4.6355432e-08
9.7472179e-09
3.6410334e-08
9.9451126e-09
2.6262455e-08
1.0147884e-08
1.6129528e-08
1.0132919e-08
6.858455e-09
9.2710798e-09
6.8584482e-09
3.3713466e-09
-5.1702466e-09
1.3319943e-08
-1.5529133e-08
2.9708863e-08
-2.5608627e-08
5.2333245e-08
-3.5447158e-08
8.1029863e-08
-4.5035757e-08
1.1565927e-07
-5.4391667e-08
1.560695e-07
-6.3518823e-08
2.0209189e-07
-7.2391827e-08
2.5353394e-07
-8.0974171e-08
3.1017675e-07
-8.9225951e-08
3.7177549e-07
-9.7107871e-08
4.3806103e-07
-1.0458304e-07
5.0874201e-07
-1.1161776e-07
5.8350704e-07
-1.1818152e-07
6.6202693e-07
-1.2424706e-07
7.439566e-07
-1.2978999e-07
8.2893726e-07
-1.3478902e-07
9.1659842e-07
-1.3922591e-07
1.00656e-06
-1.4308553e-07
1.0984343e-06
-1.4635545e-07
1.1918282e-06
-1.4902681e-07
1.2863451e-06
-1.5109323e-07
1.3815868e-06
-1.5255151e-07
1.477156e-06
-1.5340149e-07
1.5726582e-06
-1.5364648e-07
1.6677038e-06
-1.5329209e-07
1.76191e-06
-1.52347e-07
1.8549018e-06
-1.5082324e-07
1.9463099e-06
-1.4873902e-07
2.0357498e-06
-1.461109e-07
2.1228952e-06
-1.4294583e-07
2.2074369e-06
-1.3926366e-07
2.2890661e-06
-1.3509602e-07
2.3674872e-06
-1.3046747e-07
2.4424238e-06
-1.2540517e-07
2.5136192e-06
-1.1993803e-07
2.5808366e-06
-1.1409359e-07
2.6438615e-06
-1.0790482e-07
2.7025015e-06
-1.0140387e-07
2.7565847e-06
-9.4620988e-08
2.8059626e-06
-8.7590943e-08
2.8505127e-06
-8.0351494e-08
2.8901348e-06
-7.2935263e-08
2.9247538e-06
-6.5382614e-08
2.9543135e-06
-5.7720995e-08
2.9787797e-06
-4.9984123e-08
2.9981376e-06
-4.220473e-08
3.0123937e-06
-3.4417051e-08
3.0215829e-06
-2.6661914e-08
3.0258083e-06
-1.9015474e-08
3.0250681e-06
-1.133111e-08
3.0195313e-06
-3.8476935e-09
3.0092357e-06
3.5563693e-09
2.9942563e-06
1.0867816e-08
2.9748444e-06
1.7948408e-08
2.9510788e-06
2.4824911e-08
2.9230228e-06
3.1451784e-08
2.8909355e-06
3.7820886e-08
2.8550218e-06
4.3927206e-08
2.8154818e-06
4.9756064e-08
2.7725228e-06
5.528977e-08
2.7263427e-06
6.0534979e-08
2.677167e-06
6.5454151e-08
2.6252082e-06
7.0062763e-08
2.5706861e-06
7.4348669e-08
2.5138251e-06
7.8305326e-08
2.4548473e-06
8.1933912e-08
2.3939782e-06
8.5228361e-08
2.3314407e-06
8.8192087e-08
2.2674371e-06
9.0853079e-08
2.2021958e-06
9.3173819e-08
2.1359275e-06
9.5177084e-08
2.0688365e-06
9.6873422e-08
2.0011227e-06
9.8269643e-08
1.9329648e-06
9.9391211e-08
1.8645647e-06
1.0020635e-07
1.7960975e-06
1.0076075e-07
1.7277341e-06
1.0104438e-07
1.659639e-06
1.0107878e-07
1.5919624e-06
1.0088011e-07
1.5248485e-06
1.0045755e-07
1.4584322e-06
9.9826439e-08
1.3928394e-06
9.8997684e-08
1.3281885e-06
9.7981081e-08
1.2645874e-06
9.679417e-08
1.202134e-06
9.5451556e-08
1.1409176e-06
9.3964414e-08
1.081018e-06
9.2347737e-08
1.0225113e-06
9.0609375e-08
9.6545928e-07
8.8765723e-08
9.099162e-07
8.6830405e-08
8.5592992e-07
8.4813569e-08
8.035414e-07
8.2726044e-08
7.5278185e-07
8.0580681e-08
7.03677e-07
7.8386878e-08
6.5624665e-07
7.6154098e-08
6.1050316e-07
7.3892675e-08
5.6645359e-07
7.1611159e-08
5.2409972e-07
6.9317821e-08
4.8343789e-07
6.7020736e-08
4.4445992e-07
6.4727054e-08
4.071533e-07
6.244354e-08
3.7150153e-07
6.0176413e-08
3.3748447e-07
5.7931385e-08
3.0507877e-07
5.571359e-08
2.7425812e-07
5.3527629e-08
2.4499367e-07
5.1377678e-08
2.1725428e-07
4.9267331e-08
1.9100696e-07
4.7199724e-08
1.6621701e-07
4.517757e-08
1.4284834e-07
4.3203238e-08
1.2086374e-07
4.1278643e-08
1.002253e-07
3.9405065e-08
8.0894011e-08
3.7584427e-08
6.2829906e-08
3.5818322e-08
4.5993106e-08
3.4106868e-08
3.0344356e-08
3.2449702e-08
1.5842283e-08
3.0849576e-08
2.4465101e-09
2.9305948e-08
-9.8833978e-09
2.7819187e-08
-2.118811e-08
2.6390039e-08
-3.1507595e-08
2.501714e-08
-4.0879766e-08
2.3697822e-08
-4.9342192e-08
2.2431584e-08
-5.6931994e-08
2.1217954e-08
-6.3685454e-08
2.0055895e-08
-6.9637688e-08
1.8943843e-08
-7.4822147e-08
1.7879491e-08
-7.9269463e-08
1.6859639e-08
-8.3008316e-08
1.588414e-08
-8.6094601e-08
1.4985545e-08
-8.8550898e-08
1.412204e-08
-9.0404415e-08
1.3297753e-08
-9.1683539e-08
1.2514192e-08
-9.2416388e-08
1.1771314e-08
-9.2630475e-08
1.1068398e-08
-9.235249e-08
1.040449e-08
-9.1608266e-08
9.7786208e-09
-9.0422805e-08
9.1894344e-09
-8.8820362e-08
8.6361766e-09
-8.6824446e-08
8.1174917e-09
-8.4457893e-08
7.6326205e-09
-8.1742852e-08
7.1807707e-09
-7.8700965e-08
6.7613989e-09
-7.5353605e-08
6.3737062e-09
-7.172186e-08
6.01766e-09
-6.7826986e-08
5.6934327e-09
-6.3690882e-08
5.4020823e-09
-5.933673e-08
5.1457303e-09
-5.4790161e-08
4.9284703e-09
-5.0081121e-08
4.7576001e-09
-4.5245964e-08
4.6443207e-09
-4.0329045e-08
4.6051795e-09
-3.538264e-08
4.6603878e-09
-3.0457269e-08
4.8218448e-09
-2.5570413e-08
5.0582448e-09
-2.063218e-08
5.2096574e-09
-1.5293654e-08
4.7943666e-09
-8.7817463e-09
2.7591834e-09
-1.9232852e-09
3.6427274e-09
-8.812974e-09
1.433799e-08
-2.6224395e-08
3.1953367e-08
-4.3224005e-08
5.6261457e-08
-5.9755248e-08
8.7081394e-08
-7.5855695e-08
1.2424794e-07
-9.1558214e-08
1.6757401e-07
-1.0684489e-07
2.1685025e-07
-1.2166807e-07
2.7184049e-07
-1.3596441e-07
3.3227939e-07
-1.4966485e-07
3.9787274e-07
-1.6270122e-07
4.682988e-07
-1.7500911e-07
5.4321058e-07
-1.8652954e-07
6.222382e-07
-1.9720913e-07
7.0499145e-07
-2.0700031e-07
7.9106215e-07
-2.1586069e-07
8.800268e-07
-2.2375367e-07
9.7144914e-07
-2.3064825e-07
1.0648826e-06
-2.3651901e-07
1.1598729e-06
-2.4134577e-07
1.2559608e-06
-2.451147e-07
1.3526844e-06
-2.4781677e-07
1.4495814e-06
-2.4944856e-07
1.5461923e-06
-2.5001234e-07
1.6420622e-06
-2.4951644e-07
1.7367439e-06
-2.4797382e-07
1.829799e-06
-2.45402e-07
1.9207999e-06
-2.4182419e-07
2.009332e-06
-2.3727115e-07
2.0949939e-06
-2.3177278e-07
2.177412e-06
-2.2536393e-07
2.256228e-06
-2.1807965e-07
2.3311032e-06
-2.0997123e-07
2.4017188e-06
-2.0108307e-07
2.4677824e-06
-1.9146873e-07
2.5290241e-06
-1.8117976e-07
2.5852013e-06
-1.7027077e-07
2.6360998e-06
-1.5880338e-07
2.6815316e-06
-1.4683564e-07
2.7213364e-06
-1.3442579e-07
2.755381e-06
-1.2163549e-07
2.7835594e-06
-1.0852989e-07
2.805795e-06
-9.5170877e-08
2.8220398e-06
-8.1627392e-08
2.8322756e-06
-6.7956843e-08
2.8365076e-06
-5.4216096e-08
2.8347634e-06
-4.0460553e-08
2.8271243e-06
-2.6777973e-08
2.8136716e-06
-1.3209142e-08
2.7947227e-06
-6.6598391e-11
2.7698226e-06
1.3568949e-08
2.7393626e-06
2.6612286e-08
2.7036123e-06
3.9306685e-08
2.6628129e-06
5.1667247e-08
2.6171203e-06
6.3641054e-08
2.5667685e-06
7.5176661e-08
2.5119584e-06
8.6261924e-08
2.4529419e-06
9.6837311e-08
2.3899664e-06
1.0690276e-07
2.3232896e-06
1.1643284e-07
2.2531926e-06
1.2538674e-07
2.1799472e-06
1.3378043e-07
2.1038373e-06
1.4156405e-07
2.0251483e-06
1.4875172e-07
1.9441614e-06
1.5533558e-07
1.8611619e-06
1.6130487e-07
1.7764319e-06
1.6666393e-07
1.6902562e-06
1.7140407e-07
1.6029131e-06
1.755351e-07
1.5146626e-06
1.7910366e-07
1.4257771e-06
1.8205927e-07
1.3365133e-06
1.8444093e-07
1.2471244e-06
1.8626232e-07
1.1578629e-06
1.8753112e-07
1.0688933e-06
1.8836081e-07
9.8050441e-07
1.8859526e-07
8.9291124e-07
1.8835392e-07
8.0628473e-07
1.876709e-07
7.208154e-07
1.865481e-07
6.366794e-07
1.850161e-07
5.5404e-07
1.8309696e-07
4.7305589e-07
1.8081053e-07
3.9386722e-07
1.7818636e-07
3.1659357e-07
1.7525473e-07
2.4135199e-07
1.7203575e-07
1.682502e-07
1.6855334e-07
9.7378524e-08
1.648361e-07
2.8821808e-08
1.6090444e-07
-3.7351085e-08
1.5678227e-07
-1.0108678e-07
1.5250142e-07
-1.6233277e-07
1.480764e-07
-2.2104856e-07
1.4352935e-07
-2.7720352e-07
1.38881e-07
-3.3077595e-07
1.3415311e-07
-3.8175261e-07
1.2936354e-07
-4.3012829e-07
1.2452979e-07
-4.7590512e-07
1.196695e-07
-5.1909213e-07
1.1479817e-07
-5.5970476e-07
1.0993045e-07
-5.9776437e-07
1.0508035e-07
-6.3329777e-07
1.0026044e-07
-6.6633665e-07
9.548242e-08
-6.9691718e-07
9.0756943e-08
-7.2507958e-07
8.6093789e-08
-7.5086763e-07
8.1501637e-08
-7.7432814e-07
7.6988155e-08
-7.9551079e-07
7.2560306e-08
-8.1446739e-07
6.8223937e-08
-8.3125167e-07
6.3983996e-08
-8.459189e-07
5.9844795e-08
-8.5852572e-07
5.5810077e-08
-8.6912969e-07
5.1882613e-08
-8.7778829e-07
4.806366e-08
-8.8455952e-07
4.4355656e-08
-8.8950382e-07
4.0762621e-08
-8.9268082e-07
3.7283879e-08
-8.9414588e-07
3.3914769e-08
-8.9395843e-07
3.066212e-08
-8.9217711e-07
2.7524618e-08
-8.8885812e-07
2.4500189e-08
-8.8405955e-07
2.1591483e-08
-8.7784094e-07
1.8798521e-08
-8.702527e-07
1.6109576e-08
-8.6134692e-07
1.3525804e-08
-8.5117513e-07
1.1046155e-08
-8.3978746e-07
8.6682237e-09
-8.272325e-07
6.3888848e-09
-8.1355688e-07
4.2038683e-09
-7.988023e-07
2.1050619e-09
-7.8298988e-07
7.1701565e-11
-7.662515e-07
-1.7528329e-09
-7.4856873e-07
-3.5607503e-09
-7.2998165e-07
-5.2893084e-09
-7.1053029e-07
-6.9371815e-09
-6.9025286e-07
-8.5061133e-09
-6.6918592e-07
-9.998537e-09
-6.4736453e-07
-1.1416906e-08
-6.2482222e-07
-1.2763674e-08
-6.0159143e-07
-1.4041371e-08
-5.7770311e-07
-1.5252145e-08
-5.5318729e-07
-1.6398319e-08
-5.2807283e-07
-1.7481837e-08
-5.023876e-07
-1.8504476e-08
-4.7615851e-07
-1.9467687e-08
-4.49412e-07
-2.0372801e-08
-4.2217389e-07
-2.122045e-08
-3.9446988e-07
-2.2010584e-08
-3.6632582e-07
-2.274198e-08
-3.3776839e-07
-2.3411693e-08
-3.0882578e-07
-2.4014144e-08
-2.7952821e-07
-2.4539981e-08
-2.4990847e-07
-2.4975412e-08
-2.2000074e-07
-2.5302542e-08
-1.8983465e-07
-2.5505687e-08
-1.5942252e-07
-2.5590277e-08
-1.2873458e-07
-2.5629687e-08
-9.7661369e-08
-2.5863554e-08
-6.5992104e-08
-2.6874903e-08
-3.3481285e-08
-2.975164e-08
-3.5404574e-08
3.3581849e-09
-1.2171159e-08
1.3333475e-08
-3.6199685e-08
2.9820415e-08
-5.9710946e-08
5.2653981e-08
-8.2588814e-08
8.1668094e-08
-1.0486981e-07
1.1668233e-07
-1.2657245e-07
1.5749047e-07
-1.4765303e-07
2.038618e-07
-1.680394e-07
2.5553926e-07
-1.8764187e-07
3.1223839e-07
-2.0636399e-07
3.7364734e-07
-2.2411016e-07
4.3942781e-07
-2.4078958e-07
5.0921683e-07
-2.5631857e-07
5.8262889e-07
-2.7062118e-07
6.5925828e-07
-2.8362971e-07
7.3868171e-07
-2.9528412e-07
8.2046084e-07
-3.0553281e-07
9.0414493e-07
-3.1433234e-07
9.8927377e-07
-3.2164786e-07
1.0753804e-06
-3.2745242e-07
1.1619936e-06
-3.317279e-07
1.2486407e-06
-3.3446381e-07
1.3348504e-06
-3.3565827e-07
1.4201552e-06
-3.3531721e-07
1.5040944e-06
-3.3345558e-07
1.5862164e-06
-3.3009588e-07
1.6660808e-06
-3.2526635e-07
1.7432611e-06
-3.1900447e-07
1.8173451e-06
-3.1135518e-07
1.8879391e-06
-3.0236674e-07
1.9546733e-06
-2.9209815e-07
2.0171985e-06
-2.806049e-07
2.0751884e-06
-2.6796109e-07
2.1283396e-06
-2.5423424e-07
2.1763782e-06
-2.3950735e-07
2.2190527e-06
-2.2385427e-07
2.256144e-06
-2.0736206e-07
2.2874634e-06
-1.9012274e-07
2.3128458e-06
-1.7221808e-07
2.3321604e-06
-1.5374036e-07
2.345305e-06
-1.3478016e-07
2.3522076e-06
-1.1543248e-07
2.3528301e-06
-9.5793359e-08
2.3471595e-06
-7.5956781e-08
2.3352245e-06
-5.6021902e-08
2.3170735e-06
-3.6065085e-08
2.2928024e-06
-1.6189458e-08
2.2624524e-06
3.5720678e-09
2.2260677e-06
2.3175523e-08
2.1836694e-06
4.233174e-08
2.1359784e-06
6.1259942e-08
2.0828829e-06
7.9707797e-08
2.0245507e-06
9.7638852e-08
1.9612404e-06
1.1497758e-07
1.8932023e-06
1.316792e-07
1.8206939e-06
1.4768505e-07
1.7439703e-06
1.6298551e-07
1.6633391e-06
1.7746851e-07
1.5790963e-06
1.9114559e-07
1.4915363e-06
2.0399277e-07
1.4009782e-06
2.1594484e-07
1.3077606e-06
2.2699804e-07
1.21217e-06
2.3715467e-07
1.114548e-06
2.4637366e-07
1.0152071e-06
2.5467653e-07
9.1444466e-07
2.620673e-07
8.1257158e-07
2.6853701e-07
7.0990501e-07
2.7407063e-07
6.0673032e-07
2.7870979e-07
5.0342313e-07
2.8241086e-07
4.001958e-07
2.8528659e-07
2.973228e-07
2.8731392e-07
1.9506818e-07
2.8851694e-07
9.3665068e-08
2.8893424e-07
-6.4708612e-09
2.8849673e-07
-1.052998e-07
2.8742421e-07
-2.0257046e-07
2.8562457e-07
-2.9805882e-07
2.8315926e-07
-3.9157195e-07
2.8006124e-07
-4.8292841e-07
2.7637256e-07
-5.7196267e-07
2.7213123e-07
-6.5852622e-07
2.6737408e-07
-7.4248198e-07
2.6214212e-07
-8.2370325e-07
2.56476e-07
-9.0208028e-07
2.5041278e-07
-9.775173e-07
2.4399036e-07
-1.0499285e-06
2.3724735e-07
-1.1192437e-06
2.3021958e-07
-1.1854041e-06
2.229427e-07
-1.2483574e-06
2.1545469e-07
-1.3080677e-06
2.0778674e-07
-1.364509e-06
1.9997063e-07
-1.4176652e-06
1.9203721e-07
-1.4675288e-06
1.8401663e-07
-1.5141015e-06
1.7593632e-07
-1.5573941e-06
1.6782239e-07
-1.5974244e-06
1.5969977e-07
-1.6342177e-06
1.5159139e-07
-1.6678058e-06
1.4351865e-07
-1.6982268e-06
1.355013e-07
-1.7255241e-06
1.2755774e-07
-1.7497461e-06
1.1970449e-07
-1.770946e-06
1.1195676e-07
-1.7891803e-06
1.0432815e-07
-1.8045096e-06
9.6830864e-08
-1.8169971e-06
8.9475668e-08
-1.8267089e-06
8.2272166e-08
-1.833713e-06
7.5228061e-08
-1.8380789e-06
6.8349887e-08
-1.839877e-06
6.1642869e-08
-1.8391791e-06
5.5112131e-08
-1.8360586e-06
4.8762141e-08
-1.8305864e-06
4.2591419e-08
-1.8228325e-06
3.6601791e-08
-1.8128736e-06
3.0803746e-08
-1.8007884e-06
2.5198647e-08
-1.7866278e-06
1.9754185e-08
-1.770477e-06
1.4511287e-08
-1.7524016e-06
9.4492242e-09
-1.732468e-06
4.5666172e-09
-1.7107556e-06
-1.2094769e-10
-1.6873356e-06
-4.6214695e-09
-1.6622554e-06
-8.9705384e-09
-1.6355801e-06
-1.3149562e-08
-1.6073715e-06
-1.716244e-08
-1.5776894e-06
-2.1013893e-08
-1.5465916e-06
-2.470888e-08
-1.5141352e-06
-2.8252529e-08
-1.4803801e-06
-3.1650006e-08
-1.4454056e-06
-3.4902803e-08
-1.4091716e-06
-3.7986836e-08
-1.3717846e-06
-4.0947785e-08
-1.3332905e-06
-4.3783359e-08
-1.2937327e-06
-4.6494964e-08
-1.2531532e-06
-4.9085695e-08
-1.2115923e-06
-5.1559424e-08
-1.169089e-06
-5.3920135e-08
-1.1256809e-06
-5.6171855e-08
-1.0814037e-06
-5.8318536e-08
-1.0362918e-06
-6.0363987e-08
-9.9037838e-07
-6.2311788e-08
-9.4369495e-07
-6.4165274e-08
-8.9627191e-07
-6.5927509e-08
-8.4813844e-07
-6.7601142e-08
-7.9932282e-07
-6.9188421e-08
-7.4985243e-07
-7.0690835e-08
-6.9975394e-07
-7.2109067e-08
-6.4905358e-07
-7.3442337e-08
-5.9777714e-07
-7.4688136e-08
-5.4595013e-07
-7.5841162e-08
-4.9359713e-07
-7.6892971e-08
-4.4074065e-07
-7.7831886e-08
-3.8739775e-07
-7.8645438e-08
-3.3357423e-07
-7.9329224e-08
-2.7925574e-07
-7.9908758e-08
-2.2440039e-07
-8.048505e-08
-1.6894628e-07
-8.1317677e-08
-1.1287638e-07
-8.2944815e-08
-5.6379469e-08
-8.6248534e-08
-9.1784045e-08
2.9939843e-09
-1.5165143e-08
1.1978134e-08
-4.5183834e-08
2.6912055e-08
-7.4644867e-08
4.7702241e-08
-1.03379e-07
7.4206871e-08
-1.3137444e-07
1.0624208e-07
-1.5860765e-07
1.4359294e-07
-1.850039e-07
1.8601778e-07
-2.1046423e-07
2.3324898e-07
-2.3487308e-07
2.8499365e-07
-2.5810866e-07
3.4093389e-07
-2.800504e-07
4.0072707e-07
-3.0058275e-07
4.6400768e-07
-3.1959918e-07
5.3038953e-07
-3.3700304e-07
5.9946624e-07
-3.5270641e-07
6.7081534e-07
-3.6663322e-07
7.4400019e-07
-3.7871766e-07
8.1857336e-07
-3.889055e-07
8.9407683e-07
-3.9715132e-07
9.7004866e-07
-4.0342426e-07
1.0460225e-06
-4.0770172e-07
1.1215328e-06
-4.0997412e-07
1.1961147e-06
-4.102402e-07
1.2693115e-06
-4.0851402e-07
1.34067e-06
-4.048141e-07
1.4097509e-06
-3.9917675e-07
1.4761246e-06
-3.9164003e-07
1.5393812e-06
-3.822611e-07
1.5991223e-06
-3.7109625e-07
1.6549735e-06
-3.5821793e-07
1.7065796e-06
-3.4370428e-07
1.7536088e-06
-3.2763403e-07
1.7957569e-06
-3.1010929e-07
1.8327447e-06
-2.9122196e-07
1.8643198e-06
-2.7108251e-07
1.8902544e-06
-2.4978883e-07
1.9103576e-06
-2.2746525e-07
1.9244623e-06
-2.0422747e-07
1.9324337e-06
-1.8018951e-07
1.9341706e-06
-1.5547723e-07
1.9296e-06
-1.3020952e-07
1.9186784e-06
-1.0451088e-07
1.9013933e-06
-7.8508243e-08
1.8777636e-06
-5.2327155e-08
1.8478816e-06
-2.6139838e-08
1.8117797e-06
3.681906e-11
1.7695056e-06
2.6084588e-08
1.7212636e-06
5.1814044e-08
1.6672464e-06
7.719278e-08
1.6075204e-06
1.020577e-07
1.5424e-06
1.2638041e-07
1.4720911e-06
1.5001662e-07
1.3968099e-06
1.729201e-07
1.3168199e-06
1.9496762e-07
1.2323921e-06
2.1610695e-07
1.143806e-06
2.3627113e-07
1.0514189e-06
2.5537266e-07
9.5547012e-07
2.7341727e-07
8.5630153e-07
2.9031418e-07
7.5430346e-07
3.0599084e-07
6.4974416e-07
3.2050413e-07
5.4296446e-07
3.3377774e-07
4.3431915e-07
3.4579999e-07
3.2414794e-07
3.5654487e-07
2.1279467e-07
3.660298e-07
1.006003e-07
3.7426168e-07
-1.2103967e-08
3.8124128e-07
-1.2504217e-07
3.8700883e-07
-2.3788737e-07
3.9155499e-07
-3.503657e-07
3.9488919e-07
-4.6214646e-07
3.9706736e-07
-5.7294783e-07
3.9811529e-07
-6.8249702e-07
3.9806613e-07
-7.9052123e-07
3.9695846e-07
-8.9684417e-07
3.9481968e-07
-1.001155e-06
3.9173507e-07
-1.103259e-06
3.8772851e-07
-1.202953e-06
3.8285327e-07
-1.3000497e-06
3.7715796e-07
-1.3943737e-06
3.7069649e-07
-1.4857646e-06
3.6352213e-07
-1.5740783e-06
3.556878e-07
-1.6591843e-06
3.4724812e-07
-1.7409655e-06
3.3825724e-07
-1.8193202e-06
3.2876749e-07
-1.8941607e-06
3.1883084e-07
-1.9654121e-06
3.0849874e-07
-2.0330133e-06
2.9782079e-07
-2.0969161e-06
2.8684543e-07
-2.1570819e-06
2.756205e-07
-2.2134855e-06
2.6419042e-07
-2.2661129e-06
2.5259802e-07
-2.3149603e-06
2.4088452e-07
-2.3600328e-06
2.2908921e-07
-2.4013454e-06
2.172489e-07
-2.4389213e-06
2.0539825e-07
-2.4727914e-06
1.9356988e-07
-2.502994e-06
1.8179399e-07
-2.529574e-06
1.7009865e-07
-2.5525823e-06
1.5850963e-07
-2.5720752e-06
1.4705066e-07
-2.588114e-06
1.3574323e-07
-2.600764e-06
1.2460681e-07
-2.610095e-06
1.1365912e-07
-2.6161792e-06
1.0291508e-07
-2.619092e-06
9.2388499e-08
-2.6189107e-06
8.2090805e-08
-2.6157149e-06
7.2032306e-08
-2.609585e-06
6.2220004e-08
-2.6006033e-06
5.2661083e-08
-2.5888519e-06
4.3360759e-08
-2.5744155e-06
3.4325769e-08
-2.5573741e-06
2.5550005e-08
-2.5377933e-06
1.7020944e-08
-2.5157714e-06
8.7818625e-09
-2.4914176e-06
8.449026e-10
-2.4647368e-06
-6.9266329e-09
-2.4358614e-06
-1.4364183e-08
-2.4048675e-06
-2.154462e-08
-2.3718316e-06
-2.8469336e-08
-2.336816e-06
-3.5136505e-08
-2.2998859e-06
-4.1551596e-08
-2.2611276e-06
-4.7728854e-08
-2.2206071e-06
-5.3670041e-08
-2.1783898e-06
-5.9379749e-08
-2.1345397e-06
-6.4863998e-08
-2.0891195e-06
-7.0129111e-08
-2.0421905e-06
-7.5181571e-08
-1.9938131e-06
-8.0027322e-08
-1.9440456e-06
-8.4670349e-08
-1.8929208e-06
-8.9111617e-08
-1.8405011e-06
-9.3367467e-08
-1.7868391e-06
-9.7445397e-08
-1.7319828e-06
-1.0135125e-07
-1.6759777e-06
-1.0509083e-07
-1.6188669e-06
-1.0867016e-07
-1.560692e-06
-1.1209511e-07
-1.5014923e-06
-1.1537155e-07
-1.4413055e-06
-1.1850527e-07
-1.3801678e-06
-1.2150175e-07
-1.3181133e-06
-1.2436623e-07
-1.255175e-06
-1.2710362e-07
-1.1913841e-06
-1.2971845e-07
-1.1267704e-06
-1.3221483e-07
-1.0613626e-06
-1.3459622e-07
-9.9518797e-07
-1.3686544e-07
-9.2827275e-07
-1.3902429e-07
-8.6064181e-07
-1.4107327e-07
-7.923187e-07
-1.4301124e-07
-7.2332487e-07
-1.4483499e-07
-6.5367871e-07
-1.4653913e-07
-5.8339359e-07
-1.48117e-07
-5.1247465e-07
-1.4956438e-07
-4.4091515e-07
-1.5088871e-07
-3.6869498e-07
-1.5212894e-07
-2.9578839e-07
-1.5339163e-07
-2.2219853e-07
-1.5490754e-07
-1.4804893e-07
-1.5709443e-07
-7.3738503e-08
-1.6055895e-07
-1.6552254e-07
2.7290819e-09
-1.7894225e-08
1.0969161e-08
-5.3423914e-08
2.4723735e-08
-8.839944e-08
4.3949542e-08
-1.2260481e-07
6.8527832e-08
-1.5595273e-07
9.8280359e-08
-1.8836018e-07
1.3299117e-07
-2.1971471e-07
1.7241373e-07
-2.498868e-07
2.16275e-07
-2.7873435e-07
2.6427705e-07
-3.061107e-07
3.1609814e-07
-3.3187149e-07
3.7139397e-07
-3.5587858e-07
4.2979793e-07
-3.7800314e-07
4.9092302e-07
-3.9812812e-07
5.5436485e-07
-4.1614824e-07
6.197027e-07
-4.3197107e-07
6.8650254e-07
-4.455175e-07
7.543192e-07
-4.5672217e-07
8.227022e-07
-4.6553432e-07
8.9119136e-07
-4.7191342e-07
9.593279e-07
-4.7583826e-07
1.0266514e-06
-4.7729757e-07
1.0927058e-06
-4.7629464e-07
1.1570398e-06
-4.7284803e-07
1.219213e-06
-4.6698726e-07
1.2787912e-06
-4.5875501e-07
1.3353626e-06
-4.4821138e-07
1.3885252e-06
-4.3542369e-07
1.4378909e-06
-4.2046195e-07
1.4830992e-06
-4.0342627e-07
1.5238111e-06
-3.8441617e-07
1.5597156e-06
-3.6353854e-07
1.5905184e-06
-3.4091205e-07
1.6159506e-06
-3.1665417e-07
1.6357868e-06
-2.9091872e-07
1.6498194e-06
-2.6382142e-07
1.6578678e-06
-2.3551372e-07
1.6597945e-06
-2.0615418e-07
1.6554809e-06
-1.7587583e-07
1.6448442e-06
-1.4484057e-07
1.6278282e-06
-1.1319356e-07
1.6044311e-06
-8.1113761e-08
1.5746325e-06
-4.8709664e-08
1.5384695e-06
-1.6164102e-08
1.4960845e-06
1.6245098e-08
1.4475285e-06
4.8592815e-08
1.3929475e-06
8.066561e-08
1.3324568e-06
1.1230481e-07
1.2662704e-06
1.4337915e-07
1.1945616e-06
1.7376652e-07
1.1175854e-06
2.0335657e-07
1.035569e-06
2.3203301e-07
9.4882494e-07
2.5966417e-07
8.5756616e-07
2.8622639e-07
7.6212576e-07
3.1154735e-07
6.6280332e-07
3.3559357e-07
5.5990268e-07
3.582733e-07
4.5379248e-07
3.7952747e-07
3.4474993e-07
3.9935673e-07
2.3315387e-07
4.1758689e-07
1.1941735e-07
4.3424065e-07
3.8775442e-09
4.4931755e-07
-1.1314948e-07
4.62827e-07
-2.3135495e-07
4.7475034e-07
-3.5037903e-07
4.8505388e-07
-4.6987322e-07
4.9375588e-07
-5.8950411e-07
5.0087217e-07
-7.0892584e-07
5.0643056e-07
-8.2782279e-07
5.1045194e-07
-9.4589703e-07
5.1296343e-07
-1.0628444e-06
5.1401476e-07
-1.1783771e-06
5.1364795e-07
-1.2922215e-06
5.1191053e-07
-1.4041179e-06
5.0885489e-07
-1.513834e-06
5.0453581e-07
-1.6211223e-06
4.9902332e-07
-1.7257693e-06
4.9237547e-07
-1.8275734e-06
4.8465745e-07
-1.9263503e-06
4.7593484e-07
-2.0219298e-06
4.6627593e-07
-2.114157e-06
4.5574941e-07
-2.2028934e-06
4.4442417e-07
-2.2880148e-06
4.323695e-07
-2.3694117e-06
4.1965418e-07
-2.4469899e-06
4.0634566e-07
-2.5206694e-06
3.9251038e-07
-2.5903841e-06
3.7821342e-07
-2.6560813e-06
3.63518e-07
-2.7177213e-06
3.4848544e-07
-2.7752761e-06
3.3317524e-07
-2.8287296e-06
3.1764397e-07
-2.8780773e-06
3.019457e-07
-2.9233248e-06
2.8613205e-07
-2.9644876e-06
2.7025198e-07
-3.0015902e-06
2.5435148e-07
-3.0346657e-06
2.3847373e-07
-3.0637549e-06
2.2265906e-07
-3.0889059e-06
2.0694498e-07
-3.1101731e-06
1.9136591e-07
-3.127617e-06
1.7595356e-07
-3.1413035e-06
1.6073705e-07
-3.1513026e-06
1.4574238e-07
-3.1576887e-06
1.309929e-07
-3.1605396e-06
1.1651003e-07
-3.1599371e-06
1.0231262e-07
-3.1559644e-06
8.8415735e-08
-3.1487083e-06
7.4834705e-08
-3.1382565e-06
6.1580516e-08
-3.1246988e-06
4.8662348e-08
-3.1081162e-06
3.6078432e-08
-3.0885961e-06
2.3840686e-08
-3.0662438e-06
1.1973427e-08
-3.0411544e-06
4.6059149e-10
-3.0133432e-06
-1.0790193e-08
-2.982963e-06
-2.1598341e-08
-2.950067e-06
-3.2051124e-08
-2.9148142e-06
-4.2179379e-08
-2.8772298e-06
-5.1948611e-08
-2.8374021e-06
-6.1372325e-08
-2.795414e-06
-7.0457463e-08
-2.7513412e-06
-7.9209222e-08
-2.7052577e-06
-8.7635115e-08
-2.6572417e-06
-9.5744927e-08
-2.6073657e-06
-1.0354599e-07
-2.5556995e-06
-1.1104593e-07
-2.5023107e-06
-1.1825286e-07
-2.4472644e-06
-1.2517533e-07
-2.3906242e-06
-1.3182179e-07
-2.332451e-06
-1.3820053e-07
-2.2728021e-06
-1.4431929e-07
-2.2117277e-06
-1.5018601e-07
-2.1492829e-06
-1.5581228e-07
-2.0855203e-06
-1.6120797e-07
-2.0204896e-06
-1.6638198e-07
-1.9542376e-06
-1.7134279e-07
-1.886809e-06
-1.760987e-07
-1.8182464e-06
-1.8065779e-07
-1.7485899e-06
-1.8502802e-07
-1.6778782e-06
-1.8921702e-07
-1.6061476e-06
-1.9323227e-07
-1.5334331e-06
-1.9708074e-07
-1.4597676e-06
-2.0076913e-07
-1.3851825e-06
-2.0430359e-07
-1.3097075e-06
-2.0768984e-07
-1.2333708e-06
-2.109329e-07
-1.1561991e-06
-2.1403713e-07
-1.0782175e-06
-2.1700587e-07
-9.9944927e-07
-2.1984148e-07
-9.199156e-07
-2.2254491e-07
-8.3963476e-07
-2.2511585e-07
-7.5862094e-07
-2.2755295e-07
-6.7688268e-07
-2.2985527e-07
-5.9442086e-07
-2.320262e-07
-5.1122805e-07
-2.3408152e-07
-4.2729258e-07
-2.360644e-07
-3.4261427e-07
-2.3806992e-07
-2.5724485e-07
-2.4027697e-07
-1.7136833e-07
-2.4297095e-07
-8.5409757e-08
-2.4651753e-07
-2.5093231e-07
2.5970325e-09
-2.0491258e-08
1.0448758e-08
-6.127564e-08
2.3574815e-08
-1.015255e-07
4.1953186e-08
-1.4098318e-07
6.547957e-08
-1.7947911e-07
9.3983994e-08
-2.168646e-07
1.2725322e-07
-2.5298393e-07
1.6503936e-07
-2.8767293e-07
2.0706616e-07
-3.2076115e-07
2.5303153e-07
-3.5207608e-07
3.0260929e-07
-3.8144925e-07
3.5545048e-07
-4.0871978e-07
4.1118507e-07
-4.3373773e-07
4.6942337e-07
-4.5636642e-07
5.2975766e-07
-4.7648253e-07
5.9176554e-07
-4.9397895e-07
6.5501203e-07
-5.08764e-07
7.1904969e-07
-5.2075982e-07
7.834258e-07
-5.2991043e-07
8.4768417e-07
-5.3617179e-07
9.1136219e-07
-5.3951627e-07
9.7400281e-07
-5.399382e-07
1.0351507e-06
-5.3744253e-07
1.0943564e-06
-5.3205375e-07
1.151183e-06
-5.2381382e-07
1.2052002e-06
-5.1277227e-07
1.2559972e-06
-4.9900839e-07
1.3031739e-06
-4.8260032e-07
1.3463621e-06
-4.6365021e-07
1.3851969e-06
-4.4226108e-07
1.419349e-06
-4.185682e-07
1.4485133e-06
-3.9270286e-07
1.4724022e-06
-3.6480099e-07
1.4907714e-06
-3.3502338e-07
1.5033853e-06
-3.0353263e-07
1.510052e-06
-2.7048803e-07
1.51062e-06
-2.3608175e-07
1.5049375e-06
-2.0047167e-07
1.4929143e-06
-1.6385263e-07
1.4744849e-06
-1.2641114e-07
1.4496107e-06
-8.831936e-08
1.4182572e-06
-4.9760334e-08
1.3804803e-06
-1.0932683e-08
1.3364419e-06
2.7874291e-08
1.2860385e-06
6.6648442e-08
1.2294617e-06
1.0516962e-07
1.1668719e-06
1.4325547e-07
1.0984294e-06
1.8074727e-07
1.0243366e-06
2.1747194e-07
9.4480375e-07
2.532994e-07
8.6007417e-07
2.8808614e-07
7.7041483e-07
3.2169236e-07
6.7608881e-07
3.5399019e-07
5.7747046e-07
3.8484474e-07
4.7477901e-07
4.1423881e-07
3.6838542e-07
4.4198715e-07
2.5853299e-07
4.6812573e-07
1.4558725e-07
4.924732e-07