/*--------------------------------*- C++ -*----------------------------------*\
| =========                 |                                                 |
| \\      /  F ield         | OpenFOAM: The Open Source CFD Toolbox           |
|  \\    /   O peration     | Version:  2306                                  |
|   \\  /    A nd           | Website:  www.openfoam.com                      |
|    \\/     M anipulation  |                                                 |
\*---------------------------------------------------------------------------*/
FoamFile
{
    version     2.0;
    format      ascii;
    arch        "LSB;label=32;scalar=64";
    class       surfaceScalarField;
    location    "0.55";
    object      phi_0;
}
// * * * * * * * * * * * * * * * * * * * * * * * * * * * * * * * * * * * * * //

dimensions      [0 3 -1 0 0 0 0];

oriented        oriented;

internalField   nonuniform List<scalar> 
101920
(
1.7982198e-09
-1.7982198e-09
7.3763749e-09
-5.5781554e-09
1.6591956e-08
-9.2155809e-09
2.9408729e-08
-1.2816773e-08
4.5739994e-08
-1.6331265e-08
6.5492577e-08
-1.9752583e-08
8.8589734e-08
-2.3097157e-08
1.1494601e-07
-2.6356273e-08
1.4446328e-07
-2.951727e-08
1.7702992e-07
-3.2566642e-08
2.1252094e-07
-3.5491015e-08
2.5079876e-07
-3.8277822e-08
2.9171434e-07
-4.0915582e-08
3.3510815e-07
-4.3393816e-08
3.8081124e-07
-4.5703084e-08
4.286461e-07
-4.7834859e-08
4.7842769e-07
-4.9781598e-08
5.2996444e-07
-5.1536747e-08
5.8305918e-07
-5.3094737e-08
6.3751005e-07
-5.445087e-08
6.9311164e-07
-5.5601588e-08
7.4965572e-07
-5.6544078e-08
8.0693233e-07
-5.7276617e-08
8.647307e-07
-5.7798358e-08
9.2284028e-07
-5.8109582e-08
9.8105141e-07
-5.8211139e-08
1.0391564e-06
-5.8104973e-08
1.0969515e-06
-5.7795064e-08
1.1542454e-06
-5.729399e-08
1.2108791e-06
-5.6633651e-08
1.2666422e-06
-5.5763145e-08
1.3213268e-06
-5.4684568e-08
1.3747562e-06
-5.3429404e-08
1.4267652e-06
-5.2008984e-08
1.4771965e-06
-5.0431346e-08
1.5259021e-06
-4.8705604e-08
1.5727417e-06
-4.6839574e-08
1.6175852e-06
-4.4843527e-08
1.6603133e-06
-4.2728026e-08
1.7008158e-06
-4.0502551e-08
1.7389943e-06
-3.817844e-08
1.7747617e-06
-3.5767479e-08
1.8080418e-06
-3.3280106e-08
1.8387733e-06
-3.0731498e-08
1.8669035e-06
-2.813018e-08
1.8923913e-06
-2.5487789e-08
1.9152092e-06
-2.2817885e-08
1.9353424e-06
-2.0133193e-08
1.952788e-06
-1.7445557e-08
1.96755e-06
-1.4762034e-08
1.9795963e-06
-1.2046337e-08
1.9889578e-06
-9.361441e-09
1.9956754e-06
-6.717645e-09
1.9997664e-06
-4.0909487e-09
2.0012097e-06
-1.4433622e-09
2.0001341e-06
1.0755969e-09
1.9967223e-06
3.4117934e-09
1.990974e-06
5.7483519e-09
1.9829471e-06
8.026871e-09
1.972719e-06
1.022805e-08
1.9603778e-06
1.2341216e-08
1.9460139e-06
1.4363904e-08
1.929728e-06
1.6285921e-08
1.9116181e-06
1.8109871e-08
1.8917871e-06
1.9831073e-08
1.8703395e-06
2.1447541e-08
1.8473816e-06
2.2957936e-08
1.8230219e-06
2.4359695e-08
1.7973682e-06
2.5653711e-08
1.7705207e-06
2.6847407e-08
1.7425915e-06
2.7929202e-08
1.7136873e-06
2.8904212e-08
1.6839105e-06
2.9776824e-08
1.6533615e-06
3.0549052e-08
1.622136e-06
3.122547e-08
1.5903386e-06
3.179742e-08
1.5580548e-06
3.2283734e-08
1.5253847e-06
3.2670148e-08
1.4924127e-06
3.2971992e-08
1.4592217e-06
3.3191034e-08
1.4258913e-06
3.3330376e-08
1.3924951e-06
3.3396143e-08
1.3591049e-06
3.3390218e-08
1.3257901e-06
3.3314826e-08
1.292613e-06
3.3177128e-08
1.2596313e-06
3.2981677e-08
1.2269002e-06
3.2731059e-08
1.1944695e-06
3.243073e-08
1.1623847e-06
3.2084806e-08
1.1306892e-06
3.1695507e-08
1.0994204e-06
3.126876e-08
1.068612e-06
3.0808422e-08
1.0382936e-06
3.0318405e-08
1.0084918e-06
2.9801767e-08
9.7922936e-07
2.9262466e-08
9.5052533e-07
2.8704025e-08
9.2239602e-07
2.8129318e-08
8.948544e-07
2.7541609e-08
8.6791054e-07
2.6943871e-08
8.4157177e-07
2.6338756e-08
8.158429e-07
2.5728889e-08
7.9072618e-07
2.5116707e-08
7.6622177e-07
2.4504412e-08
7.4232766e-07
2.3894113e-08
7.1903999e-07
2.3287678e-08
6.9635316e-07
2.2686813e-08
6.7426007e-07
2.2093097e-08
6.5275219e-07
2.1507873e-08
6.3181982e-07
2.0932379e-08
6.1145216e-07
2.0367641e-08
5.9163753e-07
1.9814636e-08
5.7236338e-07
1.9274149e-08
5.5361661e-07
1.8746784e-08
5.3538321e-07
1.8233397e-08
5.1764864e-07
1.7734557e-08
5.0039814e-07
1.7250517e-08
4.8361662e-07
1.6781513e-08
4.6728847e-07
1.632814e-08
4.5139757e-07
1.5890899e-08
4.3592741e-07
1.5470174e-08
4.2086107e-07
1.5066337e-08
4.0618237e-07
1.4678691e-08
3.9187568e-07
1.4306705e-08
3.7792544e-07
1.3950236e-08
3.6431619e-07
1.3609252e-08
3.5103264e-07
1.3283538e-08
3.3805994e-07
1.2972691e-08
3.2538376e-07
1.2676189e-08
3.129899e-07
1.2393881e-08
3.0086177e-07
1.2128132e-08
2.889805e-07
1.1881262e-08
2.7733312e-07
1.1647359e-08
2.6590732e-07
1.1425793e-08
2.5469067e-07
1.1216683e-08
2.4367054e-07
1.1020111e-08
2.3283455e-07
1.0835997e-08
2.2217033e-07
1.0664199e-08
2.1166573e-07
1.050461e-08
2.0130906e-07
1.0356663e-08
1.9108866e-07
1.0220384e-08
1.8099349e-07
1.0095186e-08
1.7101254e-07
9.9809535e-09
1.6113497e-07
9.8775821e-09
1.5134994e-07
9.7850148e-09
1.4164717e-07
9.7027981e-09
1.320161e-07
9.6310863e-09
1.2244613e-07
9.5699497e-09
1.1292635e-07
9.5197797e-09
1.0344494e-07
9.4814272e-09
9.39884e-08
9.4565107e-09
8.4540345e-08
9.4480771e-09
7.5079504e-08
9.46084e-09
6.5576113e-08
9.5034101e-09
5.5988076e-08
9.5880286e-09
4.6259664e-08
9.7284014e-09
3.6333346e-08
9.9263097e-09
2.620417e-08
1.0129195e-08
1.6089829e-08
1.0114337e-08
6.8377601e-09
9.2520451e-09
6.8377737e-09
3.3691476e-09
-5.1673673e-09
1.3311047e-08
-1.5520055e-08
2.9688687e-08
-2.5593221e-08
5.2297158e-08
-3.5425243e-08
8.097326e-08
-4.5007368e-08
1.1557761e-07
-5.4356928e-08
1.5595831e-07
-6.3477859e-08
2.0194679e-07
-7.2344758e-08
2.5335065e-07
-8.0921129e-08
3.0995108e-07
-8.9167074e-08
3.7150337e-07
-9.7043308e-08
4.377385e-07
-1.0451295e-07
5.0836525e-07
-1.1154233e-07
5.8307236e-07
-1.1810093e-07
6.6153079e-07
-1.2416151e-07
7.4339563e-07
-1.296997e-07
8.2830824e-07
-1.3469421e-07
9.1589831e-07
-1.3912683e-07
1.005786e-06
-1.4298241e-07
1.0975837e-06
-1.4624856e-07
1.1908985e-06
-1.4891642e-07
1.285334e-06
-1.5097961e-07
1.3804924e-06
-1.5243495e-07
1.4759763e-06
-1.5328228e-07
1.5713916e-06
-1.5352492e-07
1.666349e-06
-1.5316847e-07
1.7604656e-06
-1.5222163e-07
1.853367e-06
-1.5069641e-07
1.944684e-06
-1.4861103e-07
2.0340325e-06
-1.4598209e-07
2.1210859e-06
-1.4281661e-07
2.2055356e-06
-1.391343e-07
2.287073e-06
-1.3496679e-07
2.3654027e-06
-1.3033867e-07
2.4402485e-06
-1.2527711e-07
2.5113539e-06
-1.1981101e-07
2.5784822e-06
-1.139679e-07
2.6414194e-06
-1.0778074e-07
2.6999731e-06
-1.0128169e-07
2.7539716e-06
-9.4500995e-08
2.8032666e-06
-8.7473432e-08
2.8477359e-06
-8.0236788e-08
2.8872793e-06
-7.2823578e-08
2.921822e-06
-6.5274205e-08
2.9513079e-06
-5.7616055e-08
2.975703e-06
-4.9882888e-08
2.9949928e-06
-4.2107676e-08
3.0091838e-06
-3.4324235e-08
3.018311e-06
-2.6572654e-08
3.0224717e-06
-1.8922824e-08
3.0216758e-06
-1.1250402e-08
3.0160879e-06
-3.7735426e-09
3.0057417e-06
3.6285451e-09
2.990716e-06
1.0934776e-08
2.9712621e-06
1.8010555e-08
2.9474555e-06
2.4882201e-08
2.9193631e-06
3.1504209e-08
2.887243e-06
3.7868421e-08
2.8513e-06
4.3969847e-08
2.8117342e-06
4.9793838e-08
2.7687528e-06
5.5322638e-08
2.7225538e-06
6.0562884e-08
2.6733629e-06
6.5476868e-08
2.6213921e-06
7.0080619e-08
2.5668613e-06
7.4361893e-08
2.5099948e-06
7.8314027e-08
2.4510147e-06
8.1938126e-08
2.3901463e-06
8.5228097e-08
2.3276124e-06
8.8187522e-08
2.2636154e-06
9.0844433e-08
2.1983835e-06
9.3161157e-08
2.1321272e-06
9.5160521e-08
2.0650509e-06
9.6853099e-08
1.9973541e-06
9.8245804e-08
1.9292156e-06
9.9363964e-08
1.8608374e-06
1.0017565e-07
1.7923942e-06
1.0072694e-07
1.7240568e-06
1.0100757e-07
1.6559896e-06
1.0103913e-07
1.5883429e-06
1.008378e-07
1.5212605e-06
1.0041272e-07
1.4548774e-06
9.9779276e-08
1.3893193e-06
9.8948344e-08
1.3247044e-06
9.7929686e-08
1.2611407e-06
9.6740874e-08
1.1987259e-06
9.5396524e-08
1.1375492e-06
9.3907772e-08
1.0776902e-06
9.2289671e-08
1.0192251e-06
9.0549904e-08
9.6221565e-07
8.8704999e-08
9.067158e-07
8.6768609e-08
8.5277343e-07
8.47508e-08
8.0042943e-07
8.2662397e-08
7.4971492e-07
8.0516275e-08
7.0065558e-07
7.832181e-08
6.5327116e-07
7.6088452e-08
6.0757394e-07
7.3826539e-08
5.6357092e-07
7.1544601e-08
5.2126388e-07
6.9250936e-08
4.8064905e-07
6.6953578e-08
4.4171824e-07
6.4659697e-08
4.0445889e-07
6.2376049e-08
3.6885449e-07
6.0108835e-08
3.3488484e-07
5.7863762e-08
3.0252656e-07
5.564597e-08
2.7175332e-07
5.3460052e-08
2.4253625e-07
5.1310167e-08
2.1484423e-07
4.9199924e-08
1.8864417e-07
4.7132411e-08
1.6390149e-07
4.5110365e-08
1.4058001e-07
4.313611e-08
1.1864256e-07
4.1211579e-08
9.8051261e-08
3.9338108e-08
7.8766919e-08
3.7517718e-08
6.0749614e-08
3.5751877e-08
4.39595e-08
3.4040629e-08
2.8357304e-08
3.23837e-08
1.3901636e-08
3.0783806e-08
5.5212596e-10
2.9240409e-08
-1.1731591e-08
2.7753888e-08
-2.2990437e-08
2.6325169e-08
-3.3264002e-08
2.4952263e-08
-4.259031e-08
2.363299e-08
-5.1006922e-08
2.2366851e-08
-5.8550943e-08
2.1153291e-08
-6.5258642e-08
1.9991229e-08
-7.1164972e-08
1.8879053e-08
-7.6303286e-08
1.7814457e-08
-8.0704301e-08
1.6794876e-08
-8.4401099e-08
1.5824938e-08
-8.744208e-08
1.4922234e-08
-8.9852792e-08
1.4058099e-08
-9.1660857e-08
1.3233842e-08
-9.2894578e-08
1.2450388e-08
-9.3582068e-08
1.170761e-08
-9.3750826e-08
1.1004755e-08
-9.3427492e-08
1.0340868e-08
-9.263789e-08
9.7149993e-09
-9.1407013e-08
9.1257959e-09
-8.9759098e-08
8.5724934e-09
-8.7717656e-08
8.0537253e-09
-8.5305494e-08
7.568778e-09
-8.2544747e-08
7.1168193e-09
-7.9457048e-08
6.6973354e-09
-7.6063777e-08
6.3094959e-09
-7.2385985e-08
5.9532923e-09
-6.8444942e-08
5.6288849e-09
-6.42625e-08
5.3373535e-09
-5.9861854e-08
5.0807818e-09
-5.5268612e-08
4.8632846e-09
-5.0512704e-08
4.6921642e-09
-4.5630512e-08
4.5786096e-09
-4.0666296e-08
4.539195e-09
-3.5672395e-08
4.5941154e-09
-3.0699308e-08
4.7553298e-09
-2.5764518e-08
4.9915255e-09
-2.0778165e-08
5.1428264e-09
-1.539121e-08
4.727384e-09
-8.8305532e-09
2.6913968e-09
-1.9927851e-09
3.6395027e-09
-8.8068701e-09
1.4325209e-08
-2.6205761e-08
3.1924687e-08
-4.3192698e-08
5.6210586e-08
-5.9711143e-08
8.7002091e-08
-7.5798872e-08
1.2413402e-07
-9.1488858e-08
1.6741937e-07
-1.0676321e-07
2.1664891e-07
-1.215743e-07
2.7158659e-07
-1.3585881e-07
3.3196722e-07
-1.495477e-07
3.9749673e-07
-1.6257282e-07
4.6785357e-07
-1.748698e-07
5.4269093e-07
-1.8637969e-07
6.2163913e-07
-1.9704912e-07
7.0430818e-07
-2.0683057e-07
7.9029014e-07
-2.1568165e-07
8.7916174e-07
-2.2356581e-07
9.7048696e-07
-2.3045205e-07
1.0638195e-06
-2.3631498e-07
1.1587054e-06
-2.4113444e-07
1.2546856e-06
-2.4489662e-07
1.3512985e-06
-2.4759252e-07
1.4480823e-06
-2.492187e-07
1.5445774e-06
-2.4977746e-07
1.6403297e-06
-2.4927716e-07
1.734892e-06
-2.4773073e-07
1.8278261e-06
-2.4515574e-07
1.918705e-06
-2.4157535e-07
2.0071143e-06
-2.3702037e-07
2.092653e-06
-2.315207e-07
2.1749476e-06
-2.2511121e-07
2.2536401e-06
-2.1782689e-07
2.3283924e-06
-2.0971906e-07
2.3988858e-06
-2.0083208e-07
2.4648282e-06
-1.9121951e-07
2.5259501e-06
-1.8093291e-07
2.5820091e-06
-1.7002686e-07
2.6327913e-06
-1.5856298e-07
2.6781089e-06
-1.4659931e-07
2.717802e-06
-1.3419406e-07
2.7517374e-06
-1.2140888e-07
2.7798096e-06
-1.0830894e-07
2.8019421e-06
-9.4956061e-08
2.818087e-06
-8.1419188e-08
2.8282266e-06
-6.7755605e-08
2.8323658e-06
-5.4022049e-08
2.8305334e-06
-4.0275362e-08
2.8228116e-06
-2.6602449e-08
2.8092873e-06
-1.3048344e-08
2.7902391e-06
1.2540848e-10
2.7652731e-06
1.3715635e-08
2.7347458e-06
2.6753744e-08
2.6989339e-06
3.9440398e-08
2.6580764e-06
5.1792328e-08
2.6123299e-06
6.3757036e-08
2.5619289e-06
7.528316e-08
2.5070741e-06
8.635907e-08
2.4480175e-06
9.6924944e-08
2.3850065e-06
1.0698091e-07
2.3182987e-06
1.1650159e-07
2.2481752e-06
1.254461e-07
2.1749078e-06
1.3383036e-07
2.098781e-06
1.4160368e-07
2.0200795e-06
1.4878211e-07
1.9390842e-06
1.553572e-07
1.8560803e-06
1.6131791e-07
1.7713499e-06
1.6666852e-07
1.685178e-06
1.7139997e-07
1.5978428e-06
1.7552279e-07
1.5096035e-06
1.7908372e-07
1.4207329e-06
1.8203169e-07
1.3314875e-06
1.8440597e-07
1.2421203e-06
1.8622025e-07
1.1528841e-06
1.8748207e-07
1.0639417e-06
1.8830631e-07
9.7558384e-07
1.8853355e-07
8.880244e-07
1.8828637e-07
8.0143412e-07
1.8759786e-07
7.1600342e-07
1.8646981e-07
6.3190836e-07
1.8493286e-07
5.4931201e-07
1.8300907e-07
4.6837302e-07
1.8071827e-07
3.8923137e-07
1.7808999e-07
3.1200646e-07
1.751546e-07
2.3681523e-07
1.7193212e-07
1.6376527e-07
1.6844645e-07
9.29468e-08
1.6472625e-07
2.4444617e-08
1.6079184e-07
-4.1672732e-08
1.5666725e-07
-1.0535191e-07
1.5238421e-07
-1.6654047e-07
1.4795716e-07
-2.2519799e-07
1.4340832e-07
-2.8129395e-07
1.3875836e-07
-3.3480675e-07
1.3402908e-07
-3.8572323e-07
1.2923828e-07
-4.3403826e-07
1.2440348e-07
-4.7975405e-07
1.1954229e-07
-5.2287966e-07
1.1467022e-07
-5.6343061e-07
1.098019e-07
-6.0142834e-07
1.0495131e-07
-6.3689968e-07
1.0013104e-07
-6.6987639e-07
9.5352741e-08
-7.0039467e-07
9.0627107e-08
-7.284948e-07
8.5963882e-08
-7.5422055e-07
8.1371735e-08
-7.7761883e-07
7.6858325e-08
-7.9873928e-07
7.2430616e-08
-8.1763377e-07
6.8094417e-08
-8.3435604e-07
6.3854672e-08
-8.4896133e-07
5.9715666e-08
-8.6150631e-07
5.5681075e-08
-8.7204845e-07
5.1753724e-08
-8.8064519e-07
4.793485e-08
-8.8735488e-07
4.4227404e-08
-8.9223791e-07
4.0634888e-08
-8.9535373e-07
3.7156445e-08
-8.9675779e-07
3.3787769e-08
-8.9650949e-07
3.0535499e-08
-8.9466736e-07
2.7398298e-08
-8.9128769e-07
2.4374217e-08
-8.8642933e-07
2.1466801e-08
-8.8015044e-07
1.8673373e-08
-8.7250196e-07
1.5984532e-08
-8.6353608e-07
1.3400957e-08
-8.5330426e-07
1.0921461e-08
-8.418566e-07
8.5435564e-09
-8.2924148e-07
6.2639639e-09
-8.1550483e-07
4.0778217e-09
-8.0068466e-07
1.9747004e-09
-7.8482654e-07
-3.3186421e-11
-7.6802507e-07
-1.8792483e-09
-7.5028174e-07
-3.6852215e-09
-7.3163487e-07
-5.4130652e-09
-7.1212385e-07
-7.0605977e-09
-6.9178685e-07
-8.6293793e-09
-6.7066037e-07
-1.0121756e-08
-6.4877938e-07
-1.1540114e-08
-6.2617743e-07
-1.288693e-08
-6.0288693e-07
-1.4164718e-08
-5.7893884e-07
-1.5375618e-08
-5.5436313e-07
-1.6521952e-08
-5.2918869e-07
-1.7605666e-08
-5.0344332e-07
-1.8628538e-08
-4.7715398e-07
-1.9592004e-08
-4.5034706e-07
-2.0497419e-08
-4.2304836e-07
-2.1345394e-08
-3.9528357e-07
-2.2135893e-08
-3.6707854e-07
-2.2867694e-08
-3.3845991e-07
-2.3537831e-08
-3.0945586e-07
-2.4140753e-08
-2.8009659e-07
-2.4667089e-08
-2.504149e-07
-2.5103071e-08
-2.2044492e-07
-2.543078e-08
-1.9021628e-07
-2.5634505e-08
-1.5974128e-07
-2.5719693e-08
-1.289901e-07
-2.5759644e-08
-9.7853296e-08
-2.5993999e-08
-6.6120076e-08
-2.7005843e-08
-3.3545231e-08
-2.9883427e-08
-3.5538029e-08
3.3544546e-09
-1.2161325e-08
1.3318705e-08
-3.6170012e-08
2.9787365e-08
-5.9661358e-08
5.2595509e-08
-8.2519288e-08
8.1577131e-08
-1.0478049e-07
1.1655187e-07
-1.2646359e-07
1.573136e-07
-1.4752494e-07
2.0363173e-07
-1.6789243e-07
2.5524935e-07
-1.8747643e-07
3.1188217e-07
-2.0618052e-07
3.7321851e-07
-2.2390916e-07
4.3892028e-07
-2.4057157e-07
5.0862474e-07
-2.5608415e-07
5.8194661e-07
-2.7037099e-07
6.5848044e-07
-2.833644e-07
7.378032e-07
-2.9500441e-07
8.1947684e-07
-3.0523945e-07
9.0305091e-07
-3.1402612e-07
9.8806553e-07
-3.2132959e-07
1.074054e-06
-3.2712296e-07
1.1605455e-06
-3.3138812e-07
1.2470676e-06
-3.3411461e-07
1.3331495e-06
-3.3530057e-07
1.418324e-06
-3.3495195e-07
1.5021305e-06
-3.3308372e-07
1.5841182e-06
-3.2971839e-07
1.6638466e-06
-3.248842e-07
1.7408899e-06
-3.1861865e-07
1.8148362e-06
-3.1096667e-07
1.8852921e-06
-3.0197654e-07
1.9518881e-06
-2.9170725e-07
2.0142755e-06
-2.8021427e-07
2.0721282e-06
-2.6757172e-07
2.1251431e-06
-2.5384706e-07
2.1730469e-06
-2.3912329e-07
2.2155883e-06
-2.2347425e-07
2.2525484e-06
-2.0698696e-07
2.2837389e-06
-1.8975347e-07
2.308995e-06
-1.7185546e-07
2.3281862e-06
-1.5338522e-07
2.3412106e-06
-1.3443328e-07
2.3479963e-06
-1.1509465e-07
2.3485056e-06
-9.5465352e-08
2.3427257e-06
-7.5639344e-08
2.3306858e-06
-5.5715642e-08
2.3124325e-06
-3.5768772e-08
2.2880657e-06
-1.5908609e-08
2.2576189e-06
3.8444024e-09
2.2211381e-06
2.343244e-08
2.1786802e-06
4.2583287e-08
2.1309051e-06
6.1490764e-08
2.0777352e-06
7.9923631e-08
2.019335e-06
9.7840611e-08
1.9559623e-06
1.1516503e-07
1.8878672e-06
1.3185218e-07
1.815307e-06
1.4784331e-07
1.7385369e-06
1.6312923e-07
1.6578644e-06
1.7759737e-07
1.5735856e-06
1.9125973e-07
1.4859947e-06
2.0409254e-07
1.3954103e-06
2.1603052e-07
1.3021708e-06
2.2706977e-07
1.2065657e-06
2.3720885e-07
1.1089335e-06
2.4641426e-07
1.0095867e-06
2.5470399e-07
9.0882277e-07
2.620819e-07
8.0695207e-07
2.6853922e-07
7.0429326e-07
2.7405877e-07
6.0112999e-07
2.7868606e-07
4.978387e-07
2.8237501e-07
3.9463107e-07
2.852393e-07
2.9178147e-07
2.8725557e-07
1.8955379e-07
2.8844794e-07
8.8180745e-08
2.8885512e-07
-1.1920039e-08
2.8840709e-07
-1.1071267e-07
2.8732619e-07
-2.0794388e-07
2.8551758e-07
-3.0338989e-07
2.8304388e-07
-3.9685803e-07
2.7993796e-07
-4.8816704e-07
2.7624187e-07
-5.7715155e-07
2.7199358e-07
-6.6366324e-07
2.6722994e-07
-7.4756519e-07
2.6199195e-07
-8.2873083e-07
2.5632024e-07
-9.0705056e-07
2.5025184e-07
-9.8242876e-07
2.4382467e-07
-1.0547798e-06
2.370773e-07
-1.1240335e-06
2.3004556e-07
-1.1901314e-06
2.227651e-07
-1.253021e-06
2.1527384e-07
-1.3126668e-06
2.0760299e-07
-1.3690428e-06
1.9978427e-07
-1.422133e-06
1.9184858e-07
-1.4719299e-06
1.8382599e-07
-1.5184356e-06
1.7574396e-07
-1.5616606e-06
1.6762854e-07
-1.601623e-06
1.5950467e-07
-1.638348e-06
1.5139526e-07
-1.6718678e-06
1.4332169e-07
-1.7022202e-06
1.3530369e-07
-1.7294488e-06
1.2735964e-07
-1.7536021e-06
1.1950609e-07
-1.7747332e-06
1.1175819e-07
-1.7928988e-06
1.0412952e-07
-1.8081594e-06
9.6632311e-08
-1.8205784e-06
8.9277278e-08
-1.8302218e-06
8.2074047e-08
-1.8371577e-06
7.5030282e-08
-1.8414555e-06
6.8152485e-08
-1.8431857e-06
6.1445821e-08
-1.8424199e-06
5.4915381e-08
-1.8392317e-06
4.8565536e-08
-1.8336913e-06
4.2394418e-08
-1.8258701e-06
3.6406224e-08
-1.8158444e-06
3.060915e-08
-1.8036922e-06
2.5004242e-08
-1.7894649e-06
1.9560498e-08
-1.7732477e-06
1.4318211e-08
-1.7551058e-06
9.2564489e-09
-1.7351052e-06
4.3736097e-09
-1.7133294e-06
-3.0897893e-10
-1.689843e-06
-4.8130401e-09
-1.6646971e-06
-9.1613834e-09
-1.6379562e-06
-1.3339905e-08
-1.6096823e-06
-1.7352405e-08
-1.5799352e-06
-2.1203614e-08
-1.5487727e-06
-2.4898509e-08
-1.5162528e-06
-2.8442134e-08
-1.4824391e-06
-3.1838975e-08
-1.4473864e-06
-3.5085862e-08
-1.4110915e-06
-3.8174157e-08
-1.3736409e-06
-4.1135767e-08
-1.3350826e-06
-4.3971326e-08
-1.2954604e-06
-4.668283e-08
-1.2548163e-06
-4.9273502e-08
-1.2131908e-06
-5.1747214e-08
-1.170623e-06
-5.4107981e-08
-1.1271501e-06
-5.6359802e-08
-1.0828082e-06
-5.8506638e-08
-1.0376315e-06
-6.0552305e-08
-9.9165306e-07
-6.250037e-08
-9.4490459e-07
-6.4354172e-08
-8.9741632e-07
-6.6116757e-08
-8.4921753e-07
-6.7790809e-08
-8.0033639e-07
-6.9378557e-08
-7.5080031e-07
-7.0881481e-08
-7.0063593e-07
-7.230027e-08
-6.4986946e-07
-7.3634157e-08
-5.9852669e-07
-7.4880627e-08
-5.4663307e-07
-7.6034373e-08
-4.9421322e-07
-7.7086959e-08
-4.4128959e-07
-7.8026703e-08
-3.8787922e-07
-7.8841136e-08
-3.3398791e-07
-7.9525839e-08
-2.7960127e-07
-8.0106327e-08
-2.2467737e-07
-8.0683534e-08
-1.6915431e-07
-8.1517064e-08
-1.1301506e-07
-8.3145098e-08
-5.6448656e-08
-8.6449826e-08
-9.1986693e-08
2.9900738e-09
-1.5151398e-08
1.1962607e-08
-4.5142546e-08
2.6877293e-08
-7.4576044e-08
4.7640731e-08
-1.0328273e-07
7.411118e-08
-1.3125094e-07
1.0610485e-07
-1.5845726e-07
1.4340693e-07
-1.8482703e-07
1.8577587e-07
-2.1026137e-07
2.3294422e-07
-2.3464478e-07
2.8461925e-07
-2.5785554e-07
3.4048326e-07
-2.7977317e-07
4.0019385e-07
-3.0028216e-07
4.6338575e-07
-3.1927605e-07
5.2967303e-07
-3.3665826e-07
5.9864956e-07
-3.5234093e-07
6.6989318e-07
-3.6624803e-07
7.4296756e-07
-3.7831382e-07
8.1742556e-07
-3.8848412e-07
8.928095e-07
-3.9671353e-07
9.686578e-07
-4.0297126e-07
1.0445044e-06
-4.0723474e-07
1.1198842e-06
-4.0949441e-07
1.1943327e-06
-4.0974905e-07
1.2673935e-06
-4.0801275e-07
1.3386138e-06
-4.0430404e-07
1.4075547e-06
-3.9865925e-07
1.4737869e-06
-3.9111645e-07
1.5369011e-06
-3.8173281e-07
1.5964991e-06
-3.7056462e-07
1.6522068e-06
-3.5768432e-07
1.7036697e-06
-3.4317008e-07
1.7505559e-06
-3.2710055e-07
1.7925621e-06
-3.095779e-07
1.829409e-06
-2.9069396e-07
1.8608449e-06
-2.705592e-07
1.8866421e-06
-2.4927143e-07
1.9066101e-06
-2.26955e-07
1.9205822e-06
-2.0372557e-07
1.9284239e-06
-1.7969711e-07
1.9300341e-06
-1.5499543e-07
1.9253402e-06
-1.2973941e-07
1.9142991e-06
-1.0405349e-07
1.8968983e-06
-7.8064611e-08
1.8731574e-06
-5.1898461e-08
1.8431705e-06
-2.5728732e-08
1.8069601e-06
4.4170519e-10
1.7645884e-06
2.6463005e-08
1.7162554e-06
5.2177458e-08
1.662149e-06
7.7538872e-08
1.6023451e-06
1.0238712e-07
1.5371466e-06
1.2668931e-07
1.4667649e-06
1.5030533e-07
1.3914164e-06
1.7318905e-07
1.3113648e-06
1.9521666e-07
1.226881e-06
2.1633599e-07
1.1382443e-06
2.3648006e-07
1.0458122e-06
2.5556124e-07
9.49824e-07
2.7358561e-07
8.5062133e-07
2.904624e-07
7.4859501e-07
3.0611887e-07
6.4401196e-07
3.2061356e-07
5.3720899e-07
3.3387276e-07
4.2855577e-07
3.4586205e-07
3.1837725e-07
3.5659278e-07
2.0702103e-07
3.6606022e-07
9.4828856e-08
3.7427406e-07
-1.7867483e-08
3.8123556e-07
-1.3079608e-07
3.8698736e-07
-2.4362653e-07
3.9151652e-07
-3.5608593e-07
3.9483441e-07
-4.678436e-07
3.9699699e-07
-5.78618e-07
3.9802997e-07
-6.8813654e-07
3.9796648e-07
-7.9612652e-07
3.9684509e-07
-9.0241255e-07
3.9469313e-07
-1.0066827e-06
3.9159632e-07
-1.1087431e-06
3.8757802e-07
-1.2083909e-06
3.8269167e-07
-1.3054389e-06
3.769859e-07
-1.3997117e-06
3.7051462e-07
-1.4910491e-06
3.6333108e-07
-1.5793074e-06
3.5548819e-07
-1.664356e-06
3.4704056e-07
-1.7460781e-06
3.3804233e-07
-1.8243721e-06
3.2854581e-07
-1.8991503e-06
3.1860295e-07
-1.9703382e-06
3.0826517e-07
-2.0378747e-06
2.9758207e-07
-2.1017117e-06
2.8660207e-07
-2.1618108e-06
2.7537297e-07
-2.218147e-06
2.6393917e-07
-2.2707062e-06
2.5234347e-07
-2.3194847e-06
2.4062707e-07
-2.3644879e-06
2.2882925e-07
-2.4057308e-06
2.1698678e-07
-2.4432366e-06
2.051343e-07
-2.4770363e-06
1.9330442e-07
-2.5071684e-06
1.815273e-07
-2.5336777e-06
1.6983101e-07
-2.5566153e-06
1.5824127e-07
-2.5760374e-06
1.4678181e-07
-2.5920054e-06
1.3547409e-07
-2.6045848e-06
1.2433755e-07
-2.6138452e-06
1.1338991e-07
-2.619859e-06
1.0264609e-07
-2.6227016e-06
9.211988e-08
-2.6224502e-06
8.1822668e-08
-2.6191846e-06
7.1764763e-08
-2.6129853e-06
6.195313e-08
-2.6039344e-06
5.2394862e-08
-2.5921141e-06
4.3095087e-08
-2.5776093e-06
3.4060754e-08
-2.5604968e-06
2.5281878e-08
-2.5408479e-06
1.6757424e-08
-2.518759e-06
8.5201912e-09
-2.4943363e-06
5.8157231e-10
-2.4675882e-06
-7.1876401e-09
-2.4386456e-06
-1.4624382e-08
-2.407585e-06
-2.180417e-08
-2.3744832e-06
-2.8728133e-08
-2.3393986e-06
-3.5393585e-08
-2.3024028e-06
-4.1808841e-08
-2.2635785e-06
-4.7985647e-08
-2.2229922e-06
-5.392627e-08
-2.1807091e-06
-5.9635463e-08
-2.1367935e-06
-6.5119255e-08
-2.0913081e-06
-7.0383919e-08
-2.0443144e-06
-7.5435852e-08
-1.9958727e-06
-8.0280675e-08
-1.9460366e-06
-8.492196e-08
-1.8948469e-06
-8.9363887e-08
-1.8423626e-06
-9.3620094e-08
-1.7886358e-06
-9.7698079e-08
-1.7337147e-06
-1.0160391e-07
-1.6776448e-06
-1.0534347e-07
-1.6204692e-06
-1.0892282e-07
-1.5622293e-06
-1.1234786e-07
-1.5029647e-06
-1.1562446e-07
-1.4427129e-06
-1.187584e-07
-1.3815101e-06
-1.2175515e-07
-1.3193905e-06
-1.2461998e-07
-1.2563869e-06
-1.2735778e-07
-1.1925305e-06
-1.299731e-07
-1.1278514e-06
-1.3247003e-07
-1.0623779e-06
-1.3485201e-07
-9.9613742e-07
-1.3712193e-07
-9.2915616e-07
-1.3928155e-07
-8.6145899e-07
-1.4133134e-07
-7.9306941e-07
-1.432702e-07
-7.2400885e-07
-1.4509492e-07
-6.5429574e-07
-1.468001e-07
-5.8394337e-07
-1.4837908e-07
-5.1295686e-07
-1.4982764e-07
-4.413295e-07
-1.511532e-07
-3.6904108e-07
-1.523947e-07
-2.9606591e-07
-1.5365872e-07
-2.2240705e-07
-1.5517593e-07
-1.4818807e-07
-1.5736407e-07
-7.380806e-08
-1.6082985e-07
-1.6579473e-07
2.725145e-09
-1.7876544e-08
1.0953476e-08
-5.3370877e-08
2.4688561e-08
-8.8311128e-08
4.388723e-08
-1.2248139e-07
6.8430813e-08
-1.5579453e-07
9.8141156e-08
-1.8816761e-07
1.3280242e-07
-2.1948829e-07
1.7216822e-07
-2.4962716e-07
2.1596566e-07
-2.7844222e-07
2.63897e-07
-3.0578689e-07
3.1564072e-07
-3.3151689e-07
3.7085273e-07
-3.5549418e-07
4.2916669e-07
-3.7759001e-07
4.9019584e-07
-3.9768741e-07
5.5353609e-07
-4.1568118e-07
6.1876702e-07
-4.3147896e-07
6.8545489e-07
-4.450017e-07
7.5315488e-07
-4.5618411e-07
8.2141685e-07
-4.649755e-07
8.8978095e-07
-4.7133537e-07
9.5778879e-07
-4.7524257e-07
1.0249802e-06
-4.7668587e-07
1.0908998e-06
-4.7566859e-07
1.1550963e-06
-4.7220933e-07
1.2171299e-06
-4.6633763e-07
1.2765669e-06
-4.5809618e-07
1.3329955e-06
-4.4754512e-07
1.3860145e-06
-4.3475177e-07
1.435236e-06
-4.197861e-07
1.4802999e-06
-4.0274826e-07
1.5208676e-06
-3.8373775e-07
1.5566285e-06
-3.6286145e-07
1.5872886e-06
-3.40238e-07
1.6125794e-06
-3.1598479e-07
1.6322759e-06
-2.9025573e-07
1.6461709e-06
-2.6316637e-07
1.654084e-06
-2.3486815e-07
1.6558781e-06
-2.0551967e-07
1.6514348e-06
-1.7525378e-07
1.6406718e-06
-1.442324e-07
1.6235329e-06
-1.1260057e-07
1.6000168e-06
-8.0537339e-08
1.570103e-06
-4.8150802e-08
1.5338284e-06
-1.562389e-08
1.4913356e-06
1.6764037e-08
1.4426836e-06
4.909371e-08
1.3880036e-06
8.1143062e-08
1.327421e-06
1.1276003e-07
1.2611483e-06
1.4381157e-07
1.1893598e-06
1.7417566e-07
1.1123081e-06
2.0374091e-07
1.0302213e-06
2.3239217e-07
9.4341251e-07
2.5999784e-07
8.5209438e-07
2.8653479e-07
7.5660028e-07
3.1183009e-07
6.5722966e-07
3.3585068e-07
5.5428633e-07
3.5850457e-07
4.481394e-07
3.7973254e-07
3.390654e-07
3.995364e-07
2.2744459e-07
4.1773967e-07
1.1369136e-07
4.343668e-07
-1.8494599e-09
4.4941356e-07
-1.1889968e-07
4.6291228e-07
-2.3711369e-07
4.7480679e-07
-3.5613908e-07
4.8508559e-07
-4.7562927e-07
4.9376424e-07
-5.9525175e-07
5.0085806e-07
-7.1465949e-07
5.063951e-07
-8.3353845e-07
5.1039549e-07
-9.5159072e-07
5.1288665e-07
-1.0685122e-06
5.1391845e-07
-1.1840151e-06
5.1353291e-07
-1.2978262e-06
5.1177754e-07
-1.4096859e-06
5.0870478e-07
-1.5193621e-06
5.043694e-07
-1.6266073e-06
4.9884153e-07
-1.7312084e-06
4.9217908e-07
-1.832964e-06
4.844473e-07
-1.9316899e-06
4.7571174e-07
-2.0272159e-06
4.6604069e-07
-2.1193877e-06
4.5550285e-07
-2.2080666e-06
4.4416708e-07
-2.2931287e-06
4.3210265e-07
-2.3744646e-06
4.1937832e-07
-2.4519804e-06
4.0606153e-07
-2.5255961e-06
3.9221869e-07
-2.5952458e-06
3.7791485e-07
-2.6608769e-06
3.6321321e-07
-2.7224499e-06
3.4817505e-07
-2.7799368e-06
3.3285984e-07
-2.8333218e-06
3.1732414e-07
-2.8826002e-06
3.0162196e-07
-2.9277781e-06
2.8580492e-07
-2.9688708e-06
2.6992193e-07
-3.0059029e-06
2.5401894e-07
-3.0389078e-06
2.3813913e-07
-3.0679261e-06
2.2232277e-07
-3.0930062e-06
2.0660738e-07
-3.1142025e-06
1.910273e-07
-3.1315754e-06
1.7561425e-07
-3.145191e-06
1.6039731e-07
-3.1551193e-06
1.4540246e-07
-3.1614348e-06
1.3065303e-07
-3.1642153e-06
1.1617041e-07
-3.1635426e-06
1.0197344e-07
-3.1594999e-06
8.8077155e-08
-3.1521741e-06
7.449692e-08
-3.141653e-06
6.1243677e-08
-3.1280266e-06
4.8326599e-08
-3.1113754e-06
3.5743778e-08
-3.091787e-06
2.3506639e-08
-3.0693707e-06
1.1644424e-08
-3.0442031e-06
1.1429586e-10
-3.0163276e-06
-1.1118052e-08
-2.9858804e-06
-2.1927009e-08
-2.952919e-06
-3.2379849e-08
-2.9175995e-06
-4.2507051e-08
-2.8799487e-06
-5.2275204e-08
-2.8400551e-06
-6.1697864e-08
-2.7980013e-06
-7.0781883e-08
-2.7538624e-06
-7.953244e-08
-2.7077137e-06
-8.7957588e-08
-2.6596327e-06
-9.6066638e-08
-2.609692e-06
-1.0386693e-07
-2.5579614e-06
-1.1136614e-07
-2.5045083e-06
-1.1857235e-07
-2.4493981e-06
-1.2549413e-07
-2.392694e-06
-1.3213986e-07
-2.334457e-06
-1.3851777e-07
-2.2747433e-06
-1.4463563e-07
-2.213605e-06
-1.5050218e-07
-2.1510967e-06
-1.561284e-07
-2.0872707e-06
-1.6152404e-07
-2.0221766e-06
-1.6669798e-07
-1.9558613e-06
-1.7165876e-07
-1.8883695e-06
-1.764147e-07
-1.8197434e-06
-1.8097389e-07
-1.7500236e-06
-1.8534428e-07
-1.6792484e-06
-1.8953354e-07
-1.6074545e-06
-1.9354913e-07
-1.5346764e-06
-1.9739801e-07
-1.4609473e-06
-2.010869e-07
-1.3862984e-06
-2.0462195e-07
-1.3107596e-06
-2.0800887e-07
-1.2343589e-06
-2.1125269e-07
-1.1571231e-06
-2.1435776e-07
-1.0790772e-06
-2.1732742e-07
-1.0002445e-06
-2.2016406e-07
-9.2064611e-07
-2.2286857e-07
-8.4030034e-07
-2.2544069e-07
-7.5922135e-07
-2.2787908e-07
-6.7741764e-07
-2.3018277e-07
-5.9489009e-07
-2.3235518e-07
-5.1163128e-07
-2.3441205e-07
-4.2762947e-07
-2.3639654e-07
-3.4288448e-07
-2.3840371e-07
-2.57448e-07
-2.4061239e-07
-1.7150405e-07
-2.43308e-07
-8.5477738e-08
-2.4685616e-07
-2.5127245e-07
2.5931132e-09
-2.0469657e-08
1.0433104e-08
-6.1210868e-08
2.3539659e-08
-1.0141768e-07
4.1890828e-08
-1.4083256e-07
6.5382391e-08
-1.7928609e-07
9.384447e-08
-2.1662969e-07
1.2706395e-07
-2.5270778e-07
1.6479309e-07
-2.873563e-07
2.067558e-07
-3.2040494e-07
2.526502e-07
-3.5168127e-07
3.0215028e-07
-3.8101697e-07
3.5490735e-07
-4.0825125e-07
4.1055161e-07
-4.3323427e-07
4.6869365e-07
-4.5582946e-07
5.2892604e-07
-4.7591357e-07
5.9082667e-07
-4.9337959e-07
6.539609e-07
-5.0813593e-07
7.1788159e-07
-5.201048e-07
7.821364e-07
-5.292303e-07
8.4626947e-07
-5.3546844e-07
9.0981856e-07
-5.3879165e-07
9.7232701e-07
-5.3919431e-07
1.0333399e-06
-5.3668143e-07
1.092408e-06
-5.3127752e-07
1.149095e-06
-5.2302457e-07
1.2029709e-06
-5.1197213e-07
1.2536254e-06
-4.9819953e-07
1.3006585e-06
-4.8178487e-07
1.3437027e-06
-4.6283036e-07
1.3823934e-06
-4.4143895e-07
1.4164016e-06
-4.1774594e-07
1.4454227e-06
-3.9188259e-07
1.4691695e-06
-3.6398478e-07
1.487398e-06
-3.3421328e-07
1.4998729e-06
-3.0273064e-07
1.5064027e-06
-2.6969608e-07
1.5068363e-06
-2.3530179e-07
1.5010221e-06
-1.9970547e-07
1.4888703e-06
-1.6310198e-07
1.4703156e-06
-1.2567775e-07
1.4453199e-06
-8.7604793e-08
1.4138486e-06
-4.9066013e-08
1.3759578e-06
-1.026007e-08
1.3318111e-06
2.8522834e-08
1.2813024e-06
6.7272726e-08
1.2246271e-06
1.0576901e-07
1.1619422e-06
1.4382796e-07
1.09341e-06
1.8129223e-07
1.019233e-06
2.1798857e-07
9.3962162e-07
2.5378704e-07
8.5481867e-07
2.8854386e-07
7.6509126e-07
3.2211958e-07
6.7070255e-07
3.5438655e-07
5.7202751e-07
3.8520982e-07
4.6928472e-07
4.1457288e-07
3.628454e-07
4.4228999e-07
2.5295213e-07
4.6839783e-07