/*--------------------------------*- C++ -*----------------------------------*\
| =========                 |                                                 |
| \\      /  F ield         | OpenFOAM: The Open Source CFD Toolbox           |
|  \\    /   O peration     | Version:  2106                                  |
|   \\  /    A nd           | Website:  www.openfoam.com                      |
|    \\/     M anipulation  |                                                 |
\*---------------------------------------------------------------------------*/
FoamFile
{
    version     2.0;
    format      ascii;
    arch        "LSB;label=32;scalar=64";
    class       surfaceScalarField;
    location    "0.045";
    object      phi;
}
// * * * * * * * * * * * * * * * * * * * * * * * * * * * * * * * * * * * * * //

dimensions      [0 3 -1 0 0 0 0];

oriented        oriented;

internalField   nonuniform List<scalar> 
8064
(
1.8330249e-05
-1.833265e-05
3.6488229e-05
-1.815798e-05
5.4298458e-05
-1.7810229e-05
7.1591063e-05
-1.7292605e-05
8.8200954e-05
-1.6609891e-05
0.00010396936
-1.5768403e-05
0.0001187453
-1.4775943e-05
0.00013238703
-1.3641729e-05
0.00014476336
-1.2376328e-05
0.00015575491
-1.0991558e-05
0.00016525531
-9.5003963e-06
0.00017317218
-7.9168648e-06
0.00017942808
-6.2559071e-06
0.00018396134
-4.5332581e-06
0.00018672664
-2.7653017e-06
0.00018769557
-9.6892304e-07
0.00018685691
8.3865119e-07
0.0001842169
2.640018e-06
0.00017979912
4.417781e-06
0.00017364447
6.154649e-06
0.00016581076
7.8337022e-06
0.00015637225
9.4385126e-06
0.00014541893
1.0953319e-05
0.00013305574
1.2363192e-05
0.00011940155
1.3654191e-05
0.00010458804
1.4813514e-05
8.8758403e-05
1.5829632e-05
7.2065987e-05
1.6692417e-05
5.4672736e-05
1.7393251e-05
3.6747614e-05
1.7925122e-05
1.8464911e-05
1.8282703e-05
2.504616e-09
1.8462406e-05
-1.8459925e-05
1.846243e-05
-3.6742699e-05
1.8282773e-05
-5.4667938e-05
1.7925239e-05
-7.2061351e-05
1.7393413e-05
-8.8753974e-05
1.6692623e-05
-0.00010458385
1.582988e-05
-0.00011939765
1.4813801e-05
-0.00013305217
1.3654515e-05
-0.00014541572
1.2363549e-05
-0.00015636942
1.0953705e-05
-0.00016580835
9.4389252e-06
-0.00017364248
7.8341369e-06
-0.00017979759
6.1551017e-06
-0.00018421583
4.4182474e-06
-0.00018685633
2.6404936e-06
-0.00018769546
8.3913148e-07
-0.00018672702
-9.684427e-07
-0.00018396219
-2.764826e-06
-0.0001794294
-4.5327914e-06
-0.00017317395
-6.255454e-06
-0.00016525752
-7.9164296e-06
-0.00015575753
-9.4999833e-06
-0.00014476636
-1.0991171e-05
-0.00013239039
-1.237597e-05
-0.00011874899
-1.3641406e-05
-0.00010397333
-1.4775655e-05
-8.8205175e-05
-1.5768155e-05
-7.159549e-05
-1.6609685e-05
-5.4303048e-05
-1.7292442e-05
-3.6492936e-05
-1.7810112e-05
-1.8335027e-05
-1.8157909e-05
-1.8332626e-05
1.8667936e-05
-3.7003021e-05
3.7160422e-05
-3.6650467e-05
5.5298756e-05
-3.5948562e-05
7.2909935e-05
-3.4903785e-05
8.9825833e-05
-3.3525789e-05
0.00010588475
-3.1827322e-05
0.00012093294
-2.9824131e-05
0.00013482603
-2.7534824e-05
0.00014743043
-2.4980725e-05
0.00015862457
-2.2185692e-05
0.00016830009
-1.9175917e-05
0.00017636292
-1.5979699e-05
0.00018273421
-1.2627201e-05
0.00018735114
-9.1501815e-06
0.00019016754
-5.5817094e-06
0.00019115448
-1.955862e-06
0.00019030054
1.692592e-06
0.00018761203
5.3285293e-06
0.00018311301
8.916803e-06
0.0001768451
1.242256e-05
0.00016886717
1.581163e-05
0.00015925483
1.9050853e-05
0.00014809974
2.2108414e-05
0.00013550875
2.495418e-05
0.00012160293
2.7560011e-05
0.00010651638
2.9900063e-05
9.0394946e-05
3.1951065e-05
7.339479e-05
3.3692572e-05
5.5680852e-05
3.5107189e-05
3.7425215e-05
3.6180759e-05
1.880539e-05
3.6902528e-05
2.5395409e-09
3.7265256e-05
-1.8800335e-05
3.7265304e-05
-3.7420232e-05
3.6902671e-05
-5.5675988e-05
3.6180995e-05
-7.339009e-05
3.5107516e-05
-9.0390455e-05
3.3692987e-05
-0.00010651214
3.1951564e-05
-0.00012159898
2.9900641e-05
-0.00013550513
2.7560662e-05
-0.00014809648
2.4954898e-05
-0.00015925196
2.2109193e-05
-0.00016886472
1.9051684e-05
-0.00017684309
1.5812506e-05
-0.00018311146
1.2423472e-05
-0.00018761096
8.9177425e-06
-0.00019029995
5.3294872e-06
-0.00019115438
1.6935594e-06
-0.00019016792
-1.9548946e-06
-0.000187352
-5.5807511e-06
-0.00018273555
-9.1492416e-06
-0.00017636472
-1.2626288e-05
-0.00016830232
-1.5978822e-05
-0.00015862722
-1.9175085e-05
-0.00014743348
-2.2184913e-05
-0.00013482944
-2.4980006e-05
-0.00012093668
-2.7534172e-05
-0.00010588878
-2.9823552e-05
-8.9830115e-05
-3.1826823e-05
-7.2914426e-05
-3.3525373e-05
-5.5303411e-05
-3.4903458e-05
-3.7165197e-05
-3.5948326e-05
-1.8672783e-05
-3.6650324e-05
-3.7002973e-05
1.9243182e-05
-5.6248695e-05
3.8305471e-05
-5.5712756e-05
5.7002657e-05
-5.4645748e-05
7.5156393e-05
-5.3057521e-05
9.2593356e-05
-5.0962752e-05
0.00010914686
-4.8380826e-05
0.00012465841
-4.533568e-05
0.00013897919
-4.185561e-05
0.0001519715
-3.7973032e-05
0.00016351003
-3.3724219e-05
0.0001734831
-2.9148988e-05
0.00018179376
-2.4290362e-05
0.00018836075
-1.9194192e-05
0.00019311933
-1.3908756e-05
0.00019602194
-8.4843211e-06
0.00019703877
-2.9726873e-06
0.00019615806
2.5732977e-06
0.00019338635
8.1002404e-06
0.00018874845
1.3554707e-05
0.00018228727
1.8883737e-05
0.00017406351
2.403539e-05
0.0001641551
2.8959258e-05
0.00015265653
3.3606984e-05
0.00013967795
3.7932763e-05
0.00012534414
4.1893821e-05
0.00010979333
4.5450875e-05
9.3175841e-05
4.8568552e-05
7.5652639e-05
5.1215774e-05
5.7393731e-05
5.3366097e-05
3.8576484e-05
5.4998006e-05
1.9383864e-05
5.6095149e-05
2.5970166e-09
5.6646523e-05
-1.9378694e-05
5.6646595e-05
-3.8571388e-05
5.6095365e-05
-5.7388756e-05
5.4998363e-05
-7.5647833e-05
5.3366593e-05
-9.3171248e-05
5.1216402e-05
-0.00010978899
4.8569308e-05
-0.0001253401
4.545175e-05
-0.00013967425
4.1894807e-05
-0.0001526532
3.7933851e-05
-0.00016415217
3.3608163e-05
-0.000174061
2.8960517e-05
-0.00018228521
2.4036717e-05
-0.00018874686
1.8885119e-05
-0.00019338525
1.355613e-05
-0.00019615745
8.1016917e-06
-0.00019703866
2.5747632e-06
-0.00019602233
-2.9712216e-06
-0.00019312021
-8.4828693e-06
-0.00018836212
-1.3907332e-05
-0.0001817956
-1.9192809e-05
-0.00017348539
-2.4289034e-05
-0.00016351275
-2.9147728e-05
-0.00015197462
-3.3723038e-05
-0.00013898268
-3.7971942e-05
-0.00012466223
-4.1854621e-05
-0.00010915098
-4.5334803e-05
-9.2597737e-05
-4.8380069e-05
-7.5160988e-05
-5.0962122e-05
-5.7007421e-05
-5.3057024e-05
-3.8310358e-05
-5.4645389e-05
-1.9248142e-05
-5.5712539e-05
-5.6248623e-05
2.0055818e-05
-7.6307085e-05
3.9923039e-05
-7.5579976e-05
5.9409661e-05
-7.413237e-05
7.8329775e-05
-7.1977634e-05
9.6502711e-05
-6.9135688e-05
0.00011375473
-6.563284e-05
0.00012992062
-6.1501575e-05
0.0001448453
-5.6780292e-05
0.00015838525
-5.1512982e-05
0.0001704099
-4.5748863e-05
0.00018080287
-3.9541962e-05
0.00018946316
-3.2950654e-05
0.00019630612
-2.6037149e-05
0.00020126431
-1.8866944e-05
0.00020428822
-1.1508233e-05
0.00020534682
-4.0312854e-06
0.00020442791
3.4922093e-06
0.00020153833
1.0989819e-05
0.00019670397
1.8389062e-05
0.0001899696
2.5618107e-05
0.00018139849
3.26065e-05
0.00017107188
3.9285869e-05
0.00015908825
4.559062e-05
0.00014556238
5.1458625e-05
0.00013062434
5.6831867e-05
0.00011441815
6.165706e-05
9.7100481e-05
6.5886225e-05
7.8839048e-05
6.9477207e-05
5.9811007e-05
7.2394138e-05
4.0201179e-05
7.4607834e-05
2.0200212e-05
7.6096116e-05
2.6772677e-09
7.6844058e-05
-2.0194883e-05
7.6844155e-05
-4.0195925e-05
7.6096407e-05
-5.9805879e-05
7.4608317e-05
-7.8834094e-05
7.2394807e-05
-9.7095747e-05
6.9478056e-05
-0.00011441368
6.5887246e-05
-0.00013062018
6.1658242e-05
-0.00014555857
5.6833199e-05
-0.00015908481
5.1460095e-05
-0.00017106886
4.5592213e-05
-0.00018139591
3.9287569e-05
-0.00018996749
3.2608292e-05
-0.00019670234
2.5619973e-05
-0.0002015372
1.8390984e-05
-0.00020442728
1.0991779e-05
-0.00020534671
3.4941884e-06
-0.00020428863
-4.029306e-06
-0.00020126522
-1.1506272e-05
-0.00019630753
-1.8865021e-05
-0.00018946506
-2.6035282e-05
-0.00018080523
-3.2948861e-05
-0.0001704127
-3.954026e-05
-0.00015838847
-4.5747268e-05
-0.0001448489
-5.151151e-05
-0.00012992457
-5.6778958e-05
-0.00011375898
-6.1500391e-05
-9.6507232e-05
-6.5631817e-05
-7.8334517e-05
-6.9134837e-05
-5.9414577e-05
-7.1976964e-05
-3.9928081e-05
-7.4131886e-05
-2.0060936e-05
-7.5579684e-05
-7.6306988e-05
2.1117335e-05
-9.7427095e-05
4.2035996e-05
-9.6498637e-05
6.2553797e-05
-9.4650171e-05
8.2474938e-05
-9.1898775e-05
0.00010160915
-8.8269898e-05
0.00011977346
-8.3797148e-05
0.00013679391
-7.8522028e-05
0.0001525072
-7.2493586e-05
0.00016676223
-6.5768015e-05
0.00017942155
-5.840818e-05
0.00019036268
-5.0483086e-05
0.0001994793
-4.2067279e-05
0.00020668235
-3.3240204e-05
0.00021190091
-2.4085495e-05
0.0002150829
-1.4690223e-05
0.00021619572
-5.1441066e-06
0.0002152266
4.4613301e-06
0.0002121828
1.4033616e-05
0.00020709164
2.348022e-05
0.00020000029
3.2709453e-05
0.00019097542
4.1631378e-05
0.00018010257
5.0158719e-05
0.00016748544
5.820775e-05
0.0001532449
6.5699163e-05
0.00013751786
7.2558903e-05
0.00012045597
7.8718955e-05
0.00010222412
8.4118073e-05
8.2998878e-05
8.870245e-05
6.2966714e-05
9.2426302e-05
4.2322172e-05
9.5252376e-05
2.1265928e-05
9.715236e-05
2.7811601e-09
9.8107204e-05
-2.1260392e-05
9.8107328e-05
-4.2316715e-05
9.715273e-05
-6.2961387e-05
9.5252989e-05
-8.2993732e-05
9.2427152e-05
-0.0001022192
8.8703529e-05
-0.00012045133
8.4119369e-05
-0.00013751354
7.8720456e-05
-0.00015324094
7.2560595e-05
-0.00016748187
6.5701029e-05
-0.00018009943
5.8209772e-05
-0.00019097274
5.0160878e-05
-0.0001999981
4.1633653e-05
-0.00020708995
3.2711822e-05
-0.00021218163
2.3482661e-05
-0.00021522595
1.4036105e-05
-0.00021619561
4.463843e-06
-0.00021508332
-5.1415934e-06
-0.00021190186
-1.4687734e-05
-0.00020668383
-2.4083053e-05
-0.00019948127
-3.3237833e-05
-0.00019036513
-4.2065002e-05
-0.00017942447
-5.0480924e-05
-0.00016676558
-5.8406155e-05
-0.00015251095
-6.5766145e-05
-0.00013679801
-7.249189e-05
-0.00011977788
-7.8520523e-05
-0.00010161385
-8.3795849e-05
-8.247987e-05
-8.8268817e-05
-6.255891e-05
-9.1897924e-05
-4.2041239e-05
-9.4649557e-05
-2.1122657e-05
-9.6498266e-05
-9.742697e-05
2.2451177e-05
-0.00011988107
4.4691006e-05
-0.00011873847
6.6504494e-05
-0.00011646366
8.7683404e-05
-0.00011307769
0.00010802539
-0.00010861188
0.00012733589
-0.00010310765
0.00014542993
-9.6616073e-05
0.00016213391
-8.9197561e-05
0.00017728719
-8.0921295e-05
0.00019074368
-7.186467e-05
0.00020237322
-6.2112627e-05
0.00021206287
-5.1756929e-05
0.00021971802
-4.0895352e-05
0.00022526335
-2.963082e-05
0.0002286436
-1.8070482e-05
0.00022982423
-6.3247278e-06
0.00022879172
5.493832e-06
0.00022555391
1.7271431e-05
0.00022013989
2.8894237e-05
0.00021259989
4.0249456e-05
0.00020300481
5.1226459e-05
0.00019144564
6.1717886e-05
0.00017803264
7.1620749e-05
0.00016289431
8.0837497e-05
0.00014617617
8.9277037e-05
0.00012803942
9.6855709e-05
0.00010865931
0.00010349818
8.8223502e-05
0.00010913826
6.6930165e-05
0.00011371964
4.498605e-05
0.00011719649
2.2604417e-05
0.00011953399
2.9100963e-09
0.00012070871
-2.2598625e-05
0.00012070886
-4.498034e-05
0.00011953445
-6.6924592e-05
0.00011719724
-8.8218118e-05
0.00011372068
-0.00010865417
0.00010913958
-0.00012803456
0.00010349976
-0.00014617165
9.6857545e-05
-0.00016289016
8.9279106e-05
-0.00017802891
8.0839778e-05
-0.00019144236
7.1623221e-05
-0.00020300201
6.1720525e-05
-0.00021259759
5.1229239e-05
-0.00022013812
4.0252352e-05
-0.00022555268
2.889722e-05
-0.00022879105
1.7274473e-05
-0.00022982411
5.4969036e-06
-0.00022864405
-6.3216558e-06
-0.00022526435
-1.8067439e-05
-0.00021971956
-2.9627835e-05
-0.00021206494
-4.0892454e-05
-0.0002023758
-5.1754145e-05
-0.00019074674
-6.2109985e-05
-0.0001772907
-7.1862194e-05
-0.00016213783
-8.091901e-05
-0.00014543424
-8.9195489e-05
-0.00012734053
-9.6614234e-05
-0.00010803032
-0.00010310606
-8.768857e-05
-0.00010861056
-6.6509849e-05
-0.00011307664
-4.4696498e-05
-0.00011646291
-2.2456752e-05
-0.00011873801
-0.00011988092
2.4093185e-05
-0.00014397721
4.7959405e-05
-0.00014260469
7.1367891e-05
-0.00013987215
9.4095086e-05
-0.00013580488
0.00011592377
-0.00013044057
0.0001366451
-0.00012382898
0.00015606056
-0.00011603153
0.00017398382
-0.00010712083
0.00019024255
-9.7180025e-05
0.00020468002
-8.6302136e-05
0.00021715662
-7.4589232e-05
0.00022755126
-6.2151567e-05
0.00023576251
-4.9106605e-05
0.00024170968
-3.5577986e-05
0.0002453336
-2.1694403e-05
0.00024659731
-7.5884354e-06
0.00024548645
6.6046873e-06
0.00024200953
2.0748357e-05
0.00023619787
3.4705896e-05
0.00022810544
4.8341884e-05
0.00021780839
6.1523502e-05
0.00020540442
7.4121863e-05
0.00019101184
8.601333e-05
0.00017476854
9.7080795e-05
0.00015683067
0.0001072149
0.00013737115
0.00011631523
0.000116578
0.00012429133
9.4652509e-05
0.00013106375
7.1807246e-05
0.0001365649
4.8263975e-05
0.00014073976
2.4251435e-05
0.00014354653
3.0659344e-09
0.00014495708
-2.4245332e-05
0.00014495726
-4.8257959e-05
0.00014354707
-7.1801374e-05
0.00014074066
-9.4646837e-05
0.00013656614
-0.00011657258
0.00013106533
-0.00013736604
0.00012429322
-0.00015682591
0.00011631741
-0.00017476417
0.00010721737
-0.00019100791
9.7083514e-05
-0.00020540096
8.6016277e-05
-0.00021780545
7.4125009e-05
-0.00022810302
6.1526816e-05
-0.00023619601
4.8345335e-05
-0.00024200824
3.4709451e-05
-0.00024548575
2.0751982e-05
-0.00024659719
6.6083477e-06
-0.00024533407
-7.5847745e-06
-0.00024171074
-2.1690777e-05
-0.00023576414
-3.5574428e-05
-0.00022755344
-4.9103151e-05
-0.00021715934
-6.2148249e-05
-0.00020468324
-7.4586082e-05
-0.00019024625
-8.6299185e-05
-0.00017398796
-9.7177301e-05
-0.00015606509
-0.00010711836
-0.00013664999
-0.00011602934
-0.00011592897
-0.00012382708
-9.4100536e-05
-0.000130439
-7.1373542e-05
-0.00013580364
-4.79652e-05
-0.00013987125
-2.4099067e-05
-0.00014260414
-0.00014397703
2.6092272e-05
-0.00017007262
5.1938545e-05
-0.00016845096
7.7288835e-05
-0.00016522244
0.00010190092
-0.00016041696
0.00012553946
-0.00015407911
0.00014797822
-0.00014626774
0.00016900218
-0.00013705548
0.00018840955
-0.0001265282
0.00020601373
-0.0001147842
0.00022164505
-0.00010193346
0.00023515244
-8.8096615e-05
0.00024640485
-7.3403981e-05
0.00025529261
-5.7994365e-05
0.00026172847
-4.2013849e-05
0.00026564854
-2.5614471e-05
0.00026701294
-8.952835e-06
0.00026580629
7.8113393e-06
0.00026203792
2.4516722e-05
0.00025574191
4.1001913e-05
0.00024697678
5.7107011e-05
0.00023582509
7.2675194e-05
0.00022239266
8.7554288e-05
0.00020680767
0.00010159832
0.00018921943
0.00011466904
0.000169797
0.00012663733
0.00014872758
0.00013738464
0.00012621472
0.00014680419
0.00010247629
0.00015480219
7.7742374e-05
0.00016129882
5.2253003e-05
0.00016622913
2.6255745e-05
0.00016954379
3.2509732e-09
0.00017120957
-2.6249274e-05
0.00017120979
-5.2246624e-05
0.00016954442
-7.7736148e-05
0.00016623018
-0.00010247027
0.00016130027
-0.00012620897
0.00015480403
-0.00014872216
0.0001468064
-0.00016979195
0.0001373872
-0.0001892148
0.00012664022
-0.00020680351
0.00011467222
-0.000222389
0.00010160177
-0.00023582196
8.755797e-05
-0.00024697422
7.2679074e-05
-0.00025573994
5.7111051e-05
-0.00026203656
4.1006075e-05
-0.00026580554
2.4520966e-05
-0.00026701282
7.8156242e-06
-0.00026564905
-8.9485494e-06
-0.0002617296
-2.5610225e-05
-0.00025529434
-4.2009684e-05
-0.00024640717
-5.7990321e-05
-0.00023515532
-7.3400096e-05
-0.00022164848
-8.8092928e-05
-0.00020601766
-0.00010193
-0.00018841395
-0.00011478101
-0.000169007
-0.00012652531
-0.00014798342
-0.00013705291
-0.00012554498
-0.00014626552
-0.00010190671
-0.00015407727
-7.7294836e-05
-0.00016041551
-5.1944699e-05
-0.00016522139
-2.6098519e-05
-0.00016845033
-0.00017007241
2.851078e-05
-0.00019858676
5.675251e-05
-0.00019669269
8.4451946e-05
-0.00019292187
0.00011134427
-0.00018730929
0.00013717222
-0.00017990706
0.00016168849
-0.00017078401
0.00018465809
-0.00016002508
0.00020586054
-0.00014773065
0.00022509197
-0.00013401564
0.00024216708
-0.00011900857
0.00025692091
-0.00010285044
0.00026921043
-8.5693503e-05
0.00027891598
-6.7699911e-05
0.00028594242
-4.9040289e-05
0.00029022014
-2.9892191e-05
0.00029170578
-1.0438472e-05
0.00029038272
9.1343978e-06
0.00028626135
2.8638093e-05
0.00027937904
4.7884224e-05
0.00026979988
6.6686167e-05
0.00025761417
8.4860905e-05
0.00024293761
0.00010223085
0.00022591025
0.00011862568
0.00020669525
0.00013388404
0.0001854773
0.00014785529
0.00016246087
0.00016040107
0.00013786825
0.00017139681
0.00011193738
0.00018073306
8.4919527e-05
0.00018831667
5.7076779e-05
0.00019407188
2.8679469e-05
0.0001979411
3.4680063e-09
0.00019988558
-2.8672566e-05
0.00019988582
-5.7069974e-05
0.00019794183
-8.4912885e-05
0.00019407309
-0.00011193097
0.00018831835
-0.00013786212
0.00018073518
-0.00016245509
0.00017139937
-0.00018547192
0.00016040403
-0.00020669032
0.00014785862
-0.00022590581
0.00013388772
-0.0002429337
0.00011862966
-0.00025761084
0.00010223511
-0.00026979716
8.4865388e-05
-0.00027937694
6.6690836e-05
-0.0002862599
4.7889033e-05
-0.00029038193
2.8642996e-05
-0.00029170566
9.1393492e-06
-0.00029022069
-1.043352e-05
-0.00028594363
-2.9887285e-05
-0.00027891783
-4.9035477e-05
-0.00026921292
-6.7695237e-05
-0.000256924
-8.5689013e-05
-0.00024217075
-0.00010284618
-0.00022509617
-0.00011900458
-0.00020586524
-0.00013401195
-0.00018466324
-0.0001477273
-0.00016169404
-0.00016002212
-0.00013717811
-0.00017078145
-0.00011135045
-0.00017990493
-8.4458357e-05
-0.00018730761
-5.6759086e-05
-0.00019292066
-2.8517455e-05
-0.00019669196
-0.00019858651
3.1423774e-05
-0.00023001414
6.2550704e-05
-0.00022781962
9.3079519e-05
-0.00022345069
0.00012271817
-0.00021694794
0.00015118295
-0.00020837185
0.00017820121
-0.00019780227
0.00020351388
-0.00018533775
0.00022687796
-0.00017109472
0.00024806879
-0.00015520647
0.00026688224
-0.00013782202
0.00028313664
-0.00011910485
0.00029667456
-9.9231417e-05
0.0003073643
-7.8389658e-05
0.00031510128
-5.6777265e-05
0.00031980901
-3.459992e-05
0.00032143995
-1.2069417e-05
0.00031997604
1.0598305e-05
0.00031542895
3.3185185e-05
0.00030784006
5.5473115e-05
0.00029728017
7.7246056e-05
0.00028384892
9.8292155e-05
0.00026767391
0.00011840587
0.00024890954
0.00013739005
0.00022773561
0.00015505796
0.00020435563
0.00017123526
0.00017899488
0.00018576183
0.00015189821
0.00019849348
0.00012332771
0.00020930355
9.3560125e-05
0.00021808426
6.2884107e-05
0.0002247479
3.1597369e-05
0.00022922784
3.7204449e-09
0.00023147922
-3.1589963e-05
0.0002314795
-6.2876807e-05
0.00022922867
-9.3553001e-05
0.00022474928
-0.00012332083
0.00021808618
-0.00015189163
0.00020930599
-0.00017898867
0.00019849641
-0.00020434986
0.00018576522
-0.00022773032
0.00017123908
-0.00024890478
0.00015506217
-0.00026766973
0.00013739461
-0.00028384536
0.00011841074
-0.00029727725
9.8297287e-05
-0.00030783782
7.7251399e-05
-0.0003154274
5.5478619e-05
-0.0003199752
3.3190797e-05
-0.00032143983
1.0603972e-05
-0.0003198096
-1.2063749e-05
-0.00031510258
-3.4594306e-05
-0.0003073663
-5.6771756e-05
-0.00029667723
-7.8384309e-05
-0.00028313996
-9.9226278e-05
-0.00026688618
-0.00011909997
-0.0002480733
-0.00013781745
-0.00022688301
-0.00015520225
-0.00020351942
-0.00017109089
-0.00017820718
-0.00018533436
-0.00015118929
-0.00019779933
-0.00012272481
-0.00020836941
-9.3086409e-05
-0.00021694601
-6.255777e-05
-0.0002234493
-3.1430947e-05
-0.00022781878
-0.00023001386
3.4916317e-05
-0.00026493435
6.9502431e-05
-0.00026240573
0.00010342346
-0.00025737171
0.00013635467
-0.00024987915
0.00016798068
-0.00023999785
0.00019799838
-0.00022781997
0.00022611985
-0.00021345923
0.00025207508
-0.00019704994
0.00027561449
-0.00017874588
0.0002965114
-0.00015871893
0.00031456411
-0.00013715756
0.00032959791
-0.00011426522
0.00034146675
-9.0258499e-05
0.00035005469
-6.5365207e-05
0.00035527707
-3.9822297e-05
0.00035708136
-1.3873712e-05
0.0003554478
1.223187e-05
0.00035038961
3.8243372e-05
0.00034195303
6.3909698e-05
0.00033021692
8.8982163e-05
0.00031529215
0.00011321692
0.0002973206
0.00013637742
0.00027647387
0.00015823677
0.00025295176
0.00017858007
0.00022698032
0.00019720671
0.00019880973
0.00021393242
0.00016871193
0.00022859129
0.00013697792
0.00024103756
0.00010391497
0.00025114721
6.9843529e-05
0.00025881934
3.5094123e-05
0.00026397725
4.0124985e-09
0.00026656933
-3.5086136e-05
0.00026656965
-6.9835657e-05
0.0002639782
-0.00010390728
0.00025882091
-0.0001369705
0.00025114939
-0.00016870484
0.00024104033
-0.00019880304
0.00022859461
-0.00022697409
0.00021393627
-0.00025294606
0.00019721105
-0.00027646875
0.00017858486
-0.00029731609
0.00015824195
-0.00031528831
0.00013638296
-0.00033021378
0.00011322276
-0.00034195061
8.8988234e-05
-0.00035038795
6.3915952e-05
-0.0003554469
3.8249748e-05
-0.00035708123
1.2238308e-05
-0.00035527771
-1.3867273e-05
-0.0003500561
-3.9815918e-05
-0.00034146891
-6.5358948e-05
-0.00032960079
-9.025242e-05
-0.0003145677
-0.00011425938
-0.00029651565
-0.00013715201
-0.00027561937
-0.00015871373
-0.00025208053
-0.00017874109
-0.00022612583
-0.00019704559
-0.00019800483
-0.00021345536
-0.00016798753
-0.00022781663
-0.00013636186
-0.00023999508
-0.0001034309
-0.00024987696
-6.9510066e-05
-0.00025737013
-3.4924067e-05
-0.00026240478
-0.00026493403
3.9077609e-05
-0.00030401619
7.7785235e-05
-0.00030111336
0.00011574793
-0.00029533441
0.00015260203
-0.00028673325
0.00018799433
-0.00027539015
0.00022158546
-0.00026141111
0.00025305312
-0.00024492689
0.00028209509
-0.00022609191
0.00030843213
-0.00020508292
0.00033181065
-0.00018209745
0.00035200513
-0.00015735204
0.00036882029
-0.00013108038
0.00038209299
-0.0001035312
0.00039169381
-7.4966024e-05
0.00039752834
-4.5656831e-05
0.00039953819
-1.5883553e-05
0.00039770155
1.4068504e-05
0.00039203359
4.3911334e-05
0.00038258633
7.3356957e-05
0.0003694483
0.0001021202
0.00035274376
0.00012992147
0.00033263162
0.00015648955
0.00030930404
0.00018156435
0.00028298459
0.00020489952
0.00025392621
0.00022626509
0.00022240877
0.00024544985
0.00018873643
0.00026226363
0.00015323462
0.00027653936
0.00011624694
0.00028813489
7.8131717e-05
0.00029693456
3.9258492e-05
0.00030285047
4.3493888e-09
0.00030582348
-3.9249835e-05
0.00030582384
-7.8123185e-05
0.00030285155
-0.00011623861
0.00029693634
-0.00015322658
0.00028813736
-0.00018872875
0.00027654249
-0.00022240153
0.0002622674
-0.00025391947
0.00024545421
-0.00028297842
0.00022627
-0.00030929849
0.00020490493
-0.00033262675
0.00018157021
-0.0003527396
0.00015649581
-0.0003694449
0.00012992806
-0.00038258373
0.00010212706
-0.0003920318
7.3364022e-05
-0.00039770059
4.3918537e-05
-0.00039953805
1.4075778e-05
-0.00039752905
-1.5876278e-05
-0.00039169534
-4.5649623e-05
-0.00038209534
-7.4958952e-05
-0.00036882343
-0.00010352433
-0.00035200903
-0.00013107378
-0.00033181527
-0.00015734577
-0.00030843742
-0.00018209157
-0.00028210101
-0.0002050775
-0.00025305962
-0.00022608699
-0.00022159246
-0.00024492252
-0.00018800176
-0.00026140734
-0.00015260982
-0.00027538701
-0.00011575602
-0.00028673077
-7.7793527e-05
-0.00029533262
-3.9086026e-05
-0.00030111228
-0.00030401582
4.3990788e-05
-0.00034801159
8.7564596e-05
-0.00034468717
0.00013029916
-0.00033806898
0.00017178481
-0.00032821889
0.00021162371
-0.00031522905
0.00024943365
-0.00029922105
0.0002848517
-0.00028034493
0.00031753762
-0.00025877783
0.00034717714
-0.00023472244
0.00037348493
-0.00020840523
0.00039620732
-0.00018007443
0.00041512478
-0.00014999784
0.00043005398
-0.0001184604
0.00044084962
-8.5761659e-05
0.00044740583
-5.2213039e-05
0.00044965727
-1.8134998e-05
0.00044757985
1.6145931e-05
0.00044119099
5.030019e-05
0.00043054963
8.3998313e-05
0.00041575573
0.0001169141
0.00039694943
0.00014872777
0.00037430979
0.00017912919
0.00034805322
0.00020782092
0.00031843142
0.00023452132
0.00028572906
0.00025896745
0.00025026107
0.00028091784
0.00021236961
0.00030015509
0.00017242077
0.0003164882
0.000130801
0.00032975467
8.7913274e-05
0.00033982228
4.4173175e-05
0.00034659057
4.737539e-09
0.00034999191
-4.4163745e-05
0.00034999232
-8.7903981e-05
0.00034659178
-0.00013079193
0.00033982429
-0.00017241202
0.00032975745
-0.00021236125
0.00031649172
-0.00025025318
0.00030015933
-0.00028572172
0.00028092275
-0.0003184247
0.00025897298
-0.00034804719
0.00023452742
-0.0003743045
0.00020782752
-0.00039694492
0.00017913623
-0.00041575205
0.00014873519
-0.0004305468
0.00011692181
-0.00044118904
8.4006262e-05
-0.0004475788
5.0308294e-05
-0.00044965714
1.6154114e-05
-0.0004474066
-1.8126813e-05
-0.0004408513
-5.220493e-05
-0.00043005655
-8.5753702e-05
-0.00041512821
-0.00011845267
-0.00039621157
-0.00014999041
-0.00037348997
-0.00018006738
-0.00034718292
-0.00020839862
-0.00031754408
-0.00023471633
-0.00028485878
-0.00025877229
-0.00024944128
-0.00028034001
-0.00021163182
-0.0002992168
-0.00017179332
-0.00031522551
-0.00013030799
-0.0003282161
-8.7573644e-05
-0.00033806697
-4.3999974e-05
-0.00034468595
-0.00034801118
4.9717193e-05
-0.00039773384
9.8962609e-05
-0.00039393258
0.00014725884
-0.00038636521
0.00019414256
-0.00037510262
0.00023916391
-0.0003602504
0.00028189074
-0.00034194789
0.00032191276
-0.00032036695
0.00035884541
-0.00029571048
0.00039233357
-0.0002682106
0.00042205489
-0.00023812656
0.00044772294
-0.00020574248
0.00046908987
-0.00017136478
0.00048594888
-0.0001353194
0.00049813612
-9.7948908e-05
0.00050553242
-5.9609337e-05
0.00050806439
-2.0666963e-05
0.00050570523
1.8505082e-05
0.00049847513
5.7530293e-05
0.0004864411
9.6032348e-05
0.00046971647
0.00013363872
0.00044845994
0.00016998431
0.00042287411
0.00020471502
0.00039320369
0.00023749134
0.00035973319
0.00026799182
0.0003227843
0.00029591635
0.00028271277
0.00032098937
0.00023990509
0.00034296277
0.00019477467
0.00036161862
0.00014775785
0.00037677149
9.9309631e-05
0.0003882705
4.9899178e-05
0.00039600102
5.1846328e-09
0.00039988591
-4.9888859e-05
0.00039988636
-9.9299462e-05
0.00039600238
-0.00014774793
0.00038827276
-0.00019476509
0.00037677461
-0.00023989595
0.00036162258
-0.00028270415
0.00034296753
-0.00032277628
0.00032099488
-0.00035972586
0.00029592256
-0.0003931971
0.00026799866
-0.00042286833
0.00023749875
-0.00044845501
0.00020472292
-0.00046971245
0.00016999262
-0.00048643802
0.00013364738
-0.00049847302
9.6041263e-05
-0.0005057041
5.7539381e-05
-0.00050806425
1.8514259e-05
-0.00050553328
-2.0657784e-05
-0.00049813796
-5.9600243e-05
-0.00048595168
-9.7939984e-05
-0.00046909362
-0.00013531073
-0.00044772759
-0.00017135644
-0.00042206041
-0.00020573456
-0.00039233989
-0.00023811913
-0.00035885249
-0.00026820374
-0.00032192052
-0.00029570426
-0.00028189911
-0.00032036142
-0.0002391728
-0.00034194311
-0.00019415189
-0.00036024642
-0.00014726851
-0.00037509948
-9.897253e-05
-0.00038636294
-4.9727264e-05
-0.00039393122
-0.00039773339
5.6274142e-05
-0.00045401356
0.00011201377
-0.00044967221
0.00016667831
-0.00044102975
0.00021974304
-0.00042816735
0.00027069849
-0.00041120585
0.00031905534
-0.00039030473
0.00036434903
-0.00036566064
0.00040614427
-0.00033750572
0.00044403912
-0.00030610545
0.00047766888
-0.00027175631
0.00050670952
-0.00023478311
0.00053088079
-0.00019553605
0.00054994896
-0.00015438757
0.000563729
-0.00011172895
0.00057208644
-6.7966775e-05
0.0005749387
-2.3519222e-05
0.00057225596
2.1187817e-05
0.00056406156
6.5724699e-05
0.00055043182
0.00010966208
0.00053149548
0.00015257506
0.00050743253
0.00019404725
0.0004784726
0.00023367495
0.00044489285
0.0002710711
0.0004070154
0.00030586927
0.00036520432
0.00033772742
0.00031986218
0.00036633151
0.00027142615
0.0003913988
0.00022036383
0.00041268094
0.00016716868
0.00042996664
0.00011235517
0.00044308401
5.6453771e-05
0.00045190242
5.6993661e-09
0.00045633398
-5.6442428e-05
0.00045633449
-0.00011234399
0.00045190395
-0.00016715778
0.00044308654
-0.00022035331
0.00042997015
-0.00027141611
0.00041268538
-0.00031985272
0.00039140414
-0.00036519553
0.00036633769
-0.00040700735
0.00033773438
-0.00044488562
0.00030587693
-0.00047846627
0.00027107939
-0.00050742715
0.00023368379
-0.00053149109
0.00019405657
-0.00055042845
0.00015258475
-0.00056405925
0.00010967206
-0.00057225473
6.5734865e-05
-0.00057493856
2.1198082e-05
-0.00057208738
-2.3508956e-05
-0.00056373102
-6.7956602e-05
-0.00054995205
-0.00011171896
-0.00053088491
-0.00015437787
-0.00050671463
-0.00019552673
-0.00047767494
-0.00023477425
-0.00044404608
-0.000271748
-0.00040615205
-0.00030609777
-0.00036435756
-0.00033749875
-0.00031906454
-0.00036565445
-0.00027070828
-0.00039029937
-0.00021975331
-0.00041120139
-0.00016668896
-0.00042816383
-0.00011202469
-0.00044102721
-5.6285235e-05
-0.00044967067
-0.00045401305
6.3605834e-05
-0.00051762556
0.00012660704
-0.00051267342
0.00018839245
-0.00050281516
0.00024836866
-0.00048814357
0.0003059596
-0.00046879679
0.00036061199
-0.00044495712
0.00041180064
-0.00041684929
0.00045903347
-0.00038473855
0.00050185619
-0.00034892817
0.00053985666
-0.00030975678
0.0005726688
-0.00026759525
0.00059997609
-0.00022284334
0.00062151461
-0.00017592609
0.00063707561
-0.00012728994
0.00064650749
-7.739866e-05
0.00064971739
-2.672912e-05
0.0006466721
2.4233105e-05
0.00063739852
7.4998278e-05
0.00062198347
0.00012507713
0.00060057297
0.00017398556
0.0005733709
0.00022124932
0.00054063719
0.00026640867
0.00050268536
0.00030902293
0.00045987965
0.00034867498
0.00041263158
0.00038497549
0.00036139604
0.00041756705
0.00030666692
0.00044612792
0.00024897237
0.00047037549
0.00018886967
0.00049006934
0.00012693977
0.0005050139
6.378163e-05
0.00051506056
6.2906389e-09
0.00052010932
-6.376911e-05
0.00052010989
-0.00012692744
0.00051506228
-0.00018885764
0.00050501674
-0.00024896077
0.00049007327
-0.00030665585
0.00047038047
-0.00036138561
0.0004461339
-0.0004126219
0.00041757397
-0.0004598708
0.00038498328
-0.00050267742
0.00034868355
-0.00054063023
0.00030903221
-0.00057336499
0.00026641855
-0.00060056815
0.00022125973
-0.00062197979
0.00017399638
-0.000637396
0.00012508827
-0.00064667076
7.5009628e-05
-0.00064971725
2.4244563e-05
-0.00064650854
-2.6717659e-05
-0.00063707784
-7.7387302e-05
-0.00062151801
-0.00012727879
-0.00059998062
-0.00017591526
-0.00057267443
-0.00022283292
-0.00053986334
-0.00026758534
-0.00050186385
-0.00030974748
-0.00045904205
-0.00034891957
-0.00041181006
-0.00038473074