/*--------------------------------*- C++ -*----------------------------------*\
| =========                 |                                                 |
| \\      /  F ield         | OpenFOAM: The Open Source CFD Toolbox           |
|  \\    /   O peration     | Version:  2106                                  |
|   \\  /    A nd           | Website:  www.openfoam.com                      |
|    \\/     M anipulation  |                                                 |
\*---------------------------------------------------------------------------*/
FoamFile
{
    version     2.0;
    format      ascii;
    arch        "LSB;label=32;scalar=64";
    class       volVectorField;
    location    "0.045";
    object      U;
}
// * * * * * * * * * * * * * * * * * * * * * * * * * * * * * * * * * * * * * //

dimensions      [0 1 -1 0 0 0 0];

internalField   nonuniform List<vector> 
4096
(
(0.00058801928 -0.00058491868 0)
(0.0017587623 -0.00057934573 0)
(0.0029127456 -0.00056825047 0)
(0.0040389667 -0.0005517353 0)
(0.0051266796 -0.0005299528 0)
(0.0061654941 -0.0005031045 0)
(0.0071454728 -0.00047143928 0)
(0.0080572244 -0.00043525131 0)
(0.0088919921 -0.00039487765 0)
(0.0096417368 -0.00035069544 0)
(0.010299215 -0.00030311869 0)
(0.010858049 -0.00025259477 0)
(0.011312791 -0.00019960048 0)
(0.011658977 -0.00014463785 0)
(0.011893172 -8.8229626e-05 0)
(0.01201301 -3.0914495e-05 0)
(0.012017218 2.6758143e-05 0)
(0.011905639 8.4231531e-05 0)
(0.011679221 0.00014095301 0)
(0.011340038 0.00019636945 0)
(0.010891254 0.00024994118 0)
(0.010337106 0.0003011441 0)
(0.009682862 0.00034947535 0)
(0.0089347769 0.0003944586 0)
(0.0081000309 0.00043564907 0)
(0.0071866627 0.00047263828 0)
(0.0062034916 0.0005050584 0)
(0.0051600325 0.00053258629 0)
(0.0040664015 0.00055494699 0)
(0.0029332165 0.0005719168 0)
(0.0017714914 0.00058332571 0)
(0.00059252633 0.0005890593 0)
(-0.0005922057 0.00058906006 0)
(-0.0017711738 0.00058332796 0)
(-0.0029329049 0.00057192054 0)
(-0.0040660989 0.00055495217 0)
(-0.0051597417 0.00053259286 0)
(-0.0062032154 0.0005050663 0)
(-0.0071864036 0.00047264743 0)
(-0.0080997914 0.00043565939 0)
(-0.0089345592 0.00039446999 0)
(-0.0096826681 0.00034948769 0)
(-0.010336937 0.00030115727 0)
(-0.010891113 0.00024995506 0)
(-0.011339925 0.00019638391 0)
(-0.011679137 0.0001409679 0)
(-0.011905586 8.4246719e-05 0)
(-0.012017195 2.6773478e-05 0)
(-0.012013019 -3.0899158e-05 0)
(-0.011893211 -8.8214433e-05 0)
(-0.011659046 -0.00014462295 0)
(-0.01131289 -0.00019958602 0)
(-0.010858177 -0.00025258088 0)
(-0.01029937 -0.00030310551 0)
(-0.0096419171 -0.00035068309 0)
(-0.0088921963 -0.00039486625 0)
(-0.0080574505 -0.00043524097 0)
(-0.0071457185 -0.00047143011 0)
(-0.0061657569 -0.00050309658 0)
(-0.005126957 -0.00052994621 0)
(-0.004039256 -0.00055173011 0)
(-0.0029130439 -0.00056824673 0)
(-0.0017590666 -0.00057934347 0)
(-0.0005883266 -0.00058491792 0)
(0.00059884093 -0.0017628794 0)
(0.0017911287 -0.0017460834 0)
(0.0029663485 -0.0017126439 0)
(0.0041132955 -0.0016628696 0)
(0.0052210261 -0.0015972203 0)
(0.0062789591 -0.0015163034 0)
(0.0072769744 -0.0014208689 0)
(0.0082055079 -0.0013118034 0)
(0.0090556417 -0.0011901227 0)
(0.009819189 -0.0010569634 0)
(0.010488773 -0.00091357335 0)
(0.011057899 -0.00076130069 0)
(0.011521018 -0.00060158244 0)
(0.011873584 -0.00043593161 0)
(0.012112099 -0.00026592368 0)
(0.012234153 -9.318224e-05 0)
(0.01223845 8.0636101e-05 0)
(0.012124826 0.00025385846 0)
(0.011894251 0.00042481031 0)
(0.011548835 0.00059183061 0)
(0.011091799 0.00075329169 0)
(0.010527457 0.00090761372 0)
(0.0098611756 0.001053281 0)
(0.0090993227 0.001188858 0)
(0.0082492109 0.0013130039 0)
(0.0073190267 0.0014244877 0)
(0.006317752 0.0015222006 0)
(0.0052550768 0.0016051686 0)
(0.0041413038 0.001672563 0)
(0.0029872467 0.0017237095 0)
(0.0018041227 0.0017580956 0)
(0.0006034404 0.0017753765 0)
(-0.00060311531 0.0017753788 0)
(-0.0018038007 0.0017581024 0)
(-0.0029869308 0.0017237208 0)
(-0.004140997 0.0016725786 0)
(-0.005254782 0.0016051884 0)
(-0.0063174719 0.0015222244 0)
(-0.007318764 0.0014245152 0)
(-0.008248968 0.001313035 0)
(-0.009099102 0.0011888922 0)
(-0.0098609791 0.0010533182 0)
(-0.010527287 0.00090765338 0)
(-0.011091656 0.00075333349 0)
(-0.011548721 0.00059187414 0)
(-0.011894167 0.00042485515 0)
(-0.012124772 0.00025390419 0)
(-0.012238428 8.0682274e-05 0)
(-0.012234162 -9.3136061e-05 0)
(-0.012112139 -0.00026587794 0)
(-0.011873655 -0.00043588674 0)
(-0.011521119 -0.00060153888 0)
(-0.011058028 -0.00076125886 0)
(-0.01048893 -0.00091353364 0)
(-0.009819372 -0.0010569262 0)
(-0.0090558489 -0.0011900884 0)
(-0.0082057373 -0.0013117722 0)
(-0.0072772237 -0.0014208412 0)
(-0.0062792258 -0.0015162795 0)
(-0.0052213075 -0.0015972004 0)
(-0.0041135889 -0.001662854 0)
(-0.002966651 -0.0017126326 0)
(-0.0017914374 -0.0017460766 0)
(-0.00059915269 -0.0017628772 0)
(0.00061729341 -0.0029722654 0)
(0.001846317 -0.0029439465 0)
(0.0030577448 -0.0028875659 0)
(0.0042400258 -0.0028036442 0)
(0.0053818783 -0.0026929566 0)
(0.0064723942 -0.0025565273 0)
(0.0075011413 -0.0023956209 0)
(0.0084582607 -0.0022117325 0)
(0.00933456 -0.0020065747 0)
(0.0101216 -0.001782064 0)
(0.010811779 -0.0015403041 0)
(0.011398402 -0.0012835684 0)
(0.01187575 -0.0010142795 0)
(0.012239139 -0.00073498856 0)
(0.012484965 -0.00044835164 0)
(0.012610744 -0.00015710601 0)
(0.012615142 0.00013595565 0)
(0.01249799 0.00042801202 0)
(0.012260292 0.00071623954 0)
(0.01190422 0.00099783922 0)
(0.011433098 0.0012700663 0)
(0.010851372 0.001530257 0)
(0.010164573 0.001775856 0)
(0.0093792672 0.0020044426 0)
(0.0085029905 0.0022137565 0)
(0.0075441816 0.0024017218 0)
(0.0065120985 0.0025664692 0)
(0.005416729 0.0027063564 0)
(0.0042686921 0.002819986 0)
(0.003079134 0.002906221 0)
(0.0018596161 0.0029641974 0)
(0.0006220008 0.0029933337 0)
(-0.00062166835 0.0029933376 0)
(-0.0018592868 0.0029642089 0)
(-0.0030788109 0.00290624 0)
(-0.0042683784 0.0028200122 0)
(-0.0054164275 0.0027063897 0)
(-0.0065118121 0.0025665092 0)
(-0.007543913 0.0024017682 0)
(-0.0085027422 0.0022138087 0)
(-0.0093790415 0.0020045002 0)
(-0.010164373 0.0017759184 0)
(-0.010851198 0.0015303237 0)
(-0.011432952 0.0012701366 0)
(-0.011904103 0.0009979124 0)
(-0.012260206 0.00071631493 0)
(-0.012497935 0.0004280889 0)
(-0.012615119 0.00013603328 0)
(-0.012610753 -0.00015702837 0)
(-0.012485006 -0.00044827474 0)
(-0.012239211 -0.00073491313 0)
(-0.011875853 -0.0010142063 0)
(-0.011398534 -0.0012834981 0)
(-0.01081194 -0.0015402374 0)
(-0.010121788 -0.0017820014 0)
(-0.009334772 -0.002006517 0)
(-0.0084584955 -0.0022116801 0)
(-0.0075013964 -0.0023955745 0)
(-0.0064726671 -0.0025564872 0)
(-0.0053821663 -0.0026929232 0)
(-0.0042403261 -0.0028036179 0)
(-0.0030580544 -0.002887547 0)
(-0.0018466329 -0.002943935 0)
(-0.00061761244 -0.0029722616 0)
(0.00064336112 -0.0042260286 0)
(0.0019242806 -0.0041857621 0)
(0.0031868575 -0.0041055951 0)
(0.0044190508 -0.0039862678 0)
(0.0056091004 -0.0038288828 0)
(0.0067456363 -0.0036348969 0)
(0.0078177847 -0.0034061087 0)
(0.0088152702 -0.0031446441 0)
(0.0097285124 -0.0028529389 0)
(0.010548717 -0.0025337184 0)
(0.011267963 -0.0021899744 0)
(0.011879273 -0.0018249392 0)
(0.012376692 -0.0014420579 0)
(0.012755339 -0.0010449577 0)
(0.013011461 -0.00063741516 0)
(0.013142472 -0.000223322 0)
(0.013146985 0.00019335134 0)
(0.013024827 0.0006085933 0)
(0.012777046 0.0010183894 0)
(0.012405908 0.001418761 0)
(0.011914879 0.0018058059 0)
(0.011308593 0.002175737 0)
(0.010592817 0.0025249213 0)
(0.0097743919 0.0028499176 0)
(0.0088611729 0.0031475122 0)
(0.0078619539 0.0034147539 0)
(0.0067863822 0.0036489852 0)
(0.0056448656 0.0038478711 0)
(0.0044484697 0.004009425 0)
(0.0032088086 0.0041320304 0)
(0.0019379298 0.0042144588 0)
(0.00064819351 0.0042558835 0)
(-0.00064785079 0.0042558889 0)
(-0.0019375903 0.0042144749 0)
(-0.0032084756 0.0041320572 0)
(-0.0044481463 0.0040094621 0)
(-0.0056445548 0.0038479183 0)
(-0.006786087 0.0036490419 0)
(-0.007861677 0.0034148196 0)
(-0.008860917 0.0031475862 0)
(-0.0097741593 0.0028499992 0)
(-0.01059261 0.0025250098 0)
(-0.011308414 0.0021758315 0)
(-0.011914728 0.0018059054 0)
(-0.012405788 0.0014188647 0)
(-0.012776957 0.0010184961 0)
(-0.01302477 0.00060870217 0)
(-0.013146962 0.00019346127 0)
(-0.013142482 -0.00022321205 0)
(-0.013011503 -0.00063730625 0)
(-0.012755414 -0.0010448509 0)
(-0.012376798 -0.0014419542 0)
(-0.01187941 -0.0018248396 0)
(-0.011268128 -0.0021898798 0)
(-0.010548911 -0.0025336299 0)
(-0.0097287312 -0.0028528571 0)
(-0.0088155124 -0.0031445699 0)
(-0.0078180479 -0.0034060429 0)
(-0.0067459178 -0.0036348401 0)
(-0.0056093976 -0.0038288356 0)
(-0.0044193607 -0.0039862305 0)
(-0.003187177 -0.0041055682 0)
(-0.0019246065 -0.0041857458 0)
(-0.0006436903 -0.0042260232 0)
(0.00067741266 -0.0055393736 0)
(0.0020261218 -0.0054865885 0)
(0.0033555119 -0.0053814985 0)
(0.0046529011 -0.0052250742 0)
(0.0059059039 -0.0050187618 0)
(0.0071025464 -0.0047644716 0)
(0.0082313779 -0.0044645622 0)
(0.0092815786 -0.0041218215 0)
(0.010243062 -0.0037394435 0)
(0.011106569 -0.0033210015 0)
(0.011863761 -0.002870418 0)
(0.012507297 -0.0023919308 0)
(0.013030909 -0.0018900563 0)
(0.013429462 -0.0013695492 0)
(0.013699008 -0.00083536007 0)
(0.013836832 -0.00029258988 0)
(0.013841474 0.00025355731 0)
(0.013712758 0.00079782359 0)
(0.013451792 0.0013349474 0)
(0.013060964 0.0018597149 0)
(0.012543926 0.002367012 0)
(0.011905559 0.0028518754 0)
(0.011151936 0.0033095442 0)
(0.01029026 0.0037355084 0)
(0.009328801 0.0041255567 0)
(0.0082768172 0.0044758214 0)
(0.0071444645 0.0047828196 0)
(0.0059426986 0.0050434914 0)
(0.0046831674 0.0052552334 0)
(0.0033780963 0.0054159269 0)
(0.0020401662 0.0055239621 0)
(0.00068238728 0.0055782557 0)
(-0.00068203126 0.0055782627 0)
(-0.0020398136 0.0055239832 0)
(-0.0033777504 0.0054159619 0)
(-0.0046828315 0.0052552818 0)
(-0.0059423757 0.0050435529 0)
(-0.0071441579 0.0047828935 0)
(-0.0082765297 0.004475907 0)
(-0.0093285352 0.0041256533 0)
(-0.010290018 0.0037356149 0)
(-0.011151721 0.0033096596 0)
(-0.011905373 0.0028519986 0)
(-0.01254377 0.0023671418 0)
(-0.01306084 0.0018598501 0)
(-0.0134517 0.0013350867 0)
(-0.0137127 0.00079796558 0)
(-0.01384145 0.00025370069 0)
(-0.013836842 -0.00029244649 0)
(-0.013699052 -0.00083521803 0)
(-0.013429539 -0.0013694099 0)
(-0.01303102 -0.001889921 0)
(-0.01250744 -0.0023918009 0)
(-0.011863934 -0.0028702946 0)
(-0.01110677 -0.0033208859 0)
(-0.010243289 -0.0037393369 0)
(-0.0092818305 -0.0041217248 0)
(-0.0082316516 -0.0044644764 0)
(-0.0071028392 -0.0047643975 0)
(-0.005906213 -0.0050187002 0)
(-0.0046532233 -0.0052250256 0)
(-0.0033558442 -0.0053814635 0)
(-0.0020264608 -0.0054865674 0)
(-0.00067775499 -0.0055393665 0)
(0.00072020009 -0.0069288793 0)
(0.0021540898 -0.0068628452 0)
(0.0035674323 -0.006731378 0)
(0.00494674 -0.0065356928 0)
(0.0062788411 -0.0062775999 0)
(0.0075510022 -0.0059594904 0)
(0.0087510476 -0.0055843165 0)
(0.0098674733 -0.0051555674 0)
(0.010889556 -0.0046772405 0)
(0.011807455 -0.0041538073 0)
(0.012612308 -0.0035901761 0)
(0.013296313 -0.0029916494 0)
(0.013852813 -0.0023638775 0)
(0.014276353 -0.0017128086 0)
(0.014562745 -0.0010446355 0)
(0.014709105 -0.00036573847 0)
(0.01471389 0.00031737343 0)
(0.014576918 0.00099812416 0)
(0.01429937 0.0016699335 0)
(0.013883792 0.0023262814 0)
(0.013334068 0.0029607722 0)
(0.012655391 0.0035671998 0)
(0.011854217 0.0041396102 0)
(0.010938206 0.0046723641 0)
(0.0099161486 0.0051601953 0)
(0.0087978854 0.0055982673 0)
(0.0075942111 0.0059822249 0)
(0.0063167696 0.0063082418 0)
(0.0049779401 0.0065730625 0)
(0.003590715 0.0067740377 0)
(0.0021685707 0.0069091543 0)
(0.00072533301 0.0069770576 0)
(-0.00072496048 0.0069770664 0)
(-0.0021682017 0.0069091806 0)
(-0.0035903531 0.0067740811 0)
(-0.0049775886 0.0065731227 0)
(-0.0063164318 0.0063083183 0)
(-0.0075938903 0.0059823168 0)
(-0.0087975846 0.0055983738 0)
(-0.0099158706 0.0051603153 0)
(-0.010937953 0.0046724965 0)
(-0.011853993 0.0041397537 0)
(-0.012655196 0.0035673529 0)
(-0.013333905 0.0029609336 0)
(-0.013883662 0.0023264494 0)
(-0.014299274 0.0016701066 0)
(-0.014576857 0.00099830069 0)
(-0.014713865 0.00031755168 0)
(-0.014709116 -0.0003655602 0)
(-0.014562791 -0.0010444589 0)
(-0.014276435 -0.0017126354 0)
(-0.013852929 -0.0023637093 0)
(-0.013296462 -0.0029914878 0)
(-0.012612488 -0.0035900228 0)
(-0.011807666 -0.0041536636 0)
(-0.010889794 -0.0046771079 0)
(-0.0098677372 -0.0051554472 0)
(-0.0087513343 -0.0055842098 0)
(-0.007551309 -0.0059593983 0)
(-0.0062791648 -0.0062775232 0)
(-0.0049470776 -0.0065356324 0)
(-0.0035677804 -0.0067313344 0)
(-0.0021544449 -0.0068628189 0)
(-0.00072055873 -0.0069288705 0)
(0.00077287313 -0.0084129393 0)
(0.0023116227 -0.0083327484 0)
(0.003828312 -0.0081730972 0)
(0.0053084607 -0.0079354625 0)
(0.0067379284 -0.0076220445 0)
(0.0081030465 -0.0072357489 0)
(0.0093907461 -0.0067801633 0)
(0.010588681 -0.0062595277 0)
(0.011685345 -0.0056786985 0)
(0.01267018 -0.0050431086 0)
(0.013533679 -0.0043587202 0)
(0.014267477 -0.003631974 0)
(0.014864434 -0.0028697325 0)
(0.015318708 -0.0020792192 0)
(0.015625809 -0.0012679538 0)
(0.015782652 -0.00044368301 0)
(0.01578759 0.0003856907 0)
(0.015640434 0.0012121841 0)
(0.01534246 0.0020278095 0)
(0.014896403 0.0028246524 0)
(0.014306438 0.0035949502 0)
(0.013578139 0.0043311698 0)
(0.012718436 0.0050260849 0)
(0.01173555 0.0056728508 0)
(0.010638913 0.006265076 0)
(0.0094390823 0.0067968903 0)
(0.0081476386 0.0072630079 0)
(0.0067770723 0.0076587849 0)
(0.0053406623 0.0079802698 0)
(0.0038523442 0.0082242475 0)
(0.0023265729 0.0083882746 0)
(0.00077817773 0.0084707069 0)
(-0.00077778525 0.0084707175 0)
(-0.0023261841 0.0083883063 0)
(-0.0038519629 0.0082242999 0)
(-0.005340292 0.0079803425 0)
(-0.0067767165 0.0076588771 0)
(-0.0081473007 0.0072631188 0)
(-0.0094387655 0.0067970187 0)
(-0.01063862 0.0062652207 0)
(-0.011735284 0.0056730104 0)
(-0.0127182 0.0050262579 0)
(-0.013577933 0.0043313544 0)
(-0.014306266 0.0035951447 0)
(-0.014896266 0.002824855 0)
(-0.015342359 0.0020280182 0)
(-0.01564037 0.0012123969 0)
(-0.015787564 0.00038590558 0)
(-0.015782664 -0.0004434681 0)
(-0.015625858 -0.0012677409 0)
(-0.015318794 -0.0020790104 0)
(-0.014864557 -0.0028695297 0)
(-0.014267634 -0.0036317792 0)
(-0.013533869 -0.0043585353 0)
(-0.012670402 -0.0050429353 0)
(-0.011685596 -0.0056785386 0)
(-0.01058896 -0.0062593827 0)
(-0.0093910487 -0.0067800347 0)
(-0.0081033702 -0.0072356378 0)
(-0.00673827 -0.007621952 0)
(-0.0053088169 -0.0079353896 0)
(-0.0038286792 -0.0081730446 0)
(-0.0023119974 -0.0083327166 0)
(-0.00077325151 -0.0084129287 0)
(0.00083700077 -0.010012621 0)
(0.0025034127 -0.0099171625 0)
(0.0041459206 -0.0097271163 0)
(0.0057488349 -0.009444242 0)
(0.0072968353 -0.0090711613 0)
(0.0087751136 -0.0086113364 0)
(0.010169514 -0.0080690415 0)
(0.011466664 -0.0074493274 0)
(0.012654103 -0.0067579792 0)
(0.013720403 -0.0060014672 0)
(0.014655271 -0.0051868919 0)
(0.015449657 -0.0043219222 0)
(0.016095837 -0.0034147283 0)
(0.016587492 -0.0024739092 0)
(0.016919773 -0.001508415 0)
(0.017089348 -0.0005274657 0)
(0.017094444 0.00045953503 0)
(0.016934866 0.0014430879 0)
(0.016612005 0.002413689 0)
(0.016128829 0.0033619224 0)
(0.015489865 0.004278553 0)
(0.014701155 0.0051546195 0)
(0.013770205 0.0059815254 0)
(0.012705917 0.0067511284 0)
(0.011518506 0.0074558254 0)
(0.0102194 0.0080886336 0)
(0.0088211373 0.0086432654 0)
(0.0073372375 0.0091141964 0)
(0.0057820739 0.0094967264 0)
(0.00417073 0.0097870307 0)
(0.0025188507 0.0099822028 0)
(0.00084248578 0.010080287 0)
(-0.00084206961 0.010080299 0)
(-0.0025184385 0.0099822402 0)
(-0.0041703257 0.0097870926 0)
(-0.0057816812 0.0094968122 0)
(-0.0073368603 0.0091143053 0)
(-0.008820779 0.0086433963 0)
(-0.010219064 0.0080887852 0)
(-0.011518195 0.0074559962 0)
(-0.012705635 0.0067513168 0)
(-0.013769954 0.0059817295 0)
(-0.014700937 0.0051548374 0)
(-0.015489683 0.0042787826 0)
(-0.016128684 0.0033621615 0)
(-0.016611898 0.0024139353 0)
(-0.016934799 0.001443339 0)
(-0.017094417 0.00045978864 0)
(-0.017089361 -0.00052721205 0)
(-0.016919825 -0.0015081638 0)
(-0.016587584 -0.0024736627 0)
(-0.016095967 -0.003414489 0)
(-0.015449824 -0.0043216923 0)
(-0.014655474 -0.0051866737 0)
(-0.013720639 -0.0060012627 0)
(-0.012654371 -0.0067577904 0)
(-0.011466959 -0.0074491562 0)
(-0.010169835 -0.0080688896 0)
(-0.0087754573 -0.0086112052 0)
(-0.007297198 -0.0090710521 0)
(-0.0057492132 -0.009444156 0)
(-0.0041463106 -0.0097270542 0)
(-0.0025038105 -0.009917125 0)
(-0.00083740259 -0.010012609 0)
(0.00091458281 -0.011752555 0)
(0.0027354399 -0.01164048 0)
(0.004530161 -0.011417354 0)
(0.006281592 -0.011085247 0)
(0.0079729842 -0.010647238 0)
(0.0095881506 -0.010107398 0)
(0.011111619 -0.0094707499 0)
(0.012528776 -0.0087432291 0)
(0.013826008 -0.0079316328 0)
(0.01499083 -0.0070435626 0)
(0.016012004 -0.0060873588 0)
(0.016879649 -0.0050720283 0)
(0.017585337 -0.0040071651 0)
(0.018122174 -0.0029028652 0)
(0.018484876 -0.0017696353 0)
(0.018669816 -0.0006182972 0)
(0.018675068 0.0005401127 0)
(0.018500432 0.0016944472 0)
(0.018147438 0.0028335549 0)
(0.017619339 0.003946388 0)
(0.016921089 0.0050221122 0)
(0.016059294 0.0060502142 0)
(0.015042158 0.0070206095 0)
(0.01387941 0.0079237464 0)
(0.012582207 0.0087507061 0)
(0.011163036 0.0094932973 0)
(0.0096355886 0.010144144 0)
(0.0080146303 0.010696766 0)
(0.0063158573 0.01114565 0)
(0.0045557405 0.01148631 0)
(0.002751363 0.011715335 0)
(0.00092025002 0.011830432 0)
(-0.00091980607 0.011830446 0)
(-0.0027509233 0.011715379 0)
(-0.0045553092 0.011486382 0)
(-0.0063154385 0.01114575 0)
(-0.0080142279 0.010696893 0)
(-0.0096352065 0.010144296 0)
(-0.011162678 0.0094934735 0)
(-0.012581876 0.0087509047 0)
(-0.013879109 0.0079239655 0)
(-0.015041891 0.0070208468 0)
(-0.016059062 0.0060504675 0)
(-0.016920895 0.0050223791 0)
(-0.017619185 0.003946666 0)
(-0.018147324 0.0028338412 0)
(-0.01850036 0.0016947392 0)
(-0.018675039 0.00054040752 0)
(-0.018669829 -0.00061800234 0)
(-0.018484932 -0.0017693432 0)
(-0.018122273 -0.0029025786 0)
(-0.017585476 -0.0040068869 0)
(-0.016879828 -0.0050717611 0)
(-0.016012221 -0.0060871051 0)
(-0.014991082 -0.0070433248 0)
(-0.013826294 -0.0079314133 0)
(-0.012529092 -0.00874303 0)
(-0.011111962 -0.0094705732 0)
(-0.0095885178 -0.010107245 0)
(-0.0079733718 -0.010647111 0)
(-0.0062819962 -0.011085146 0)
(-0.0045305776 -0.011417282 0)
(-0.0027358651 -0.011640436 0)
(-0.00091501216 -0.01175254 0)
(0.0010080272 -0.013661792 0)
(0.0030149054 -0.013531472 0)
(0.004992957 -0.013272025 0)
(0.0069232633 -0.012885859 0)
(0.0087873536 -0.012376562 0)
(0.010567379 -0.011748872 0)
(0.012246282 -0.011008638 0)
(0.013807955 -0.010162769 0)
(0.015237394 -0.009219175 0)
(0.016520843 -0.0081867023 0)
(0.017645925 -0.0070750547 0)
(0.018601759 -0.0058947092 0)
(0.019379071 -0.0046568241 0)
(0.019970278 -0.0033731393 0)
(0.020369569 -0.0020558702 0)
(0.020572967 -0.00071759633 0)
(0.020578363 0.00062885515 0)
(0.020385551 0.00197053 0)
(0.019996233 0.0032944703 0)
(0.019414005 0.0045878403 0)
(0.018644335 0.0058380525 0)
(0.017694511 0.0070328935 0)
(0.016573579 0.0081606485 0)
(0.015292261 0.0092102217 0)
(0.013862854 0.010171253 0)
(0.012299114 0.011034227 0)
(0.010616125 0.011790576 0)
(0.0088301504 0.012432774 0)
(0.0069584793 0.012954414 0)
(0.0050192518 0.013350287 0)
(0.0030312816 0.013616431 0)
(0.0010138688 0.013750181 0)
(-0.0010133925 0.013750198 0)
(-0.0030308098 0.013616481 0)
(-0.0050187891 0.013350369 0)
(-0.00695803 0.012954529 0)
(-0.0088297189 0.012432919 0)
(-0.010615715 0.011790751 0)
(-0.01229873 0.01103443 0)
(-0.013862499 0.010171481 0)
(-0.015291939 0.0092104736 0)
(-0.016573292 0.0081609214 0)
(-0.017694262 0.0070331848 0)
(-0.018644127 0.0058383594 0)
(-0.01941384 0.0045881599 0)
(-0.019996111 0.0032947995 0)
(-0.020385475 0.0019708656 0)
(-0.020578332 0.00062919407 0)
(-0.020572982 -0.00071725736 0)
(-0.02036963 -0.0020555344 0)
(-0.019970383 -0.0033728099 0)
(-0.01937922 -0.0046565042 0)
(-0.018601952 -0.0058944019 0)
(-0.017646157 -0.0070747629 0)
(-0.016521114 -0.0081864289 0)
(-0.0152377 -0.0092189226 0)
(-0.013808294 -0.01016254 0)
(-0.012246651 -0.011008435 0)
(-0.010567774 -0.011748697 0)
(-0.0087877701 -0.012376416 0)
(-0.0069236975 -0.012885743 0)
(-0.0049934048 -0.013271942 0)
(-0.0030153623 -0.013531422 0)
(-0.0010084886 -0.013661776 0)
(0.0011200624 -0.015774575 0)
(0.0033499689 -0.015624049 0)
(0.0055478207 -0.015324378 0)
(0.0076925817 -0.014878349 0)
(0.0097637161 -0.014290112 0)
(0.011741382 -0.013565148 0)
(0.013606619 -0.012710222 0)
(0.015341526 -0.011733324 0)
(0.016929436 -0.0106436 0)
(0.018355069 -0.0094512776 0)
(0.019604681 -0.0081675717 0)
(0.020666196 -0.0068045898 0)
(0.021529323 -0.0053752232 0)
(0.022185655 -0.0038930326 0)
(0.022628758 -0.0023721248 0)
(0.022854227 -0.00082702484 0)
(0.022859742 0.00072745933 0)
(0.022645093 0.002276375 0)
(0.022212184 0.0038047675 0)
(0.021565029 0.0052978245 0)
(0.020709712 0.0067410213 0)
(0.019654341 0.0081202663 0)
(0.018408972 0.0094220436 0)
(0.016985519 0.010633552 0)
(0.015397644 0.011742839 0)
(0.013660625 0.012738928 0)
(0.011791214 0.013611934 0)
(0.0098074711 0.014353175 0)
(0.0077285915 0.014955261 0)
(0.0055747154 0.01541218 0)
(0.0033667291 0.015719364 0)
(0.0011260585 0.015873739 0)
(-0.0011255449 0.015873758 0)
(-0.0033662204 0.015719421 0)
(-0.0055742164 0.015412275 0)
(-0.0077281071 0.014955392 0)
(-0.0098070058 0.014353341 0)
(-0.011790772 0.013612134 0)
(-0.013660211 0.012739159 0)
(-0.015397262 0.011743099 0)
(-0.016985172 0.010633839 0)
(-0.018408663 0.0094223547 0)
(-0.019654073 0.0081205985 0)
(-0.020709488 0.0067413712 0)
(-0.021564851 0.0052981888 0)
(-0.022212054 0.0038051428 0)
(-0.02264501 0.0022767577 0)
(-0.022859709 0.00072784569 0)
(-0.022854243 -0.00082663841 0)
(-0.022628823 -0.002371742 0)
(-0.02218577 -0.003892657 0)
(-0.021529484 -0.0053748585 0)
(-0.020666404 -0.0068042394 0)
(-0.019604932 -0.008167239 0)
(-0.018355362 -0.0094509658 0)
(-0.016929768 -0.010643312 0)
(-0.015341893 -0.011733063 0)
(-0.013607017 -0.012709991 0)
(-0.011741808 -0.013564948 0)
(-0.0097641661 -0.014289945 0)
(-0.0076930509 -0.014878217 0)
(-0.0055483045 -0.015324284 0)
(-0.0033504625 -0.015623992 0)
(-0.001120561 -0.015774556 0)
(0.0012535499 -0.018130842 0)
(0.0037491875 -0.017957765 0)
(0.0062089218 -0.0176132 0)
(0.0086091928 -0.017100359 0)
(0.010927003 -0.016424024 0)
(0.013140133 -0.015590506 0)
(0.015227357 -0.014607595 0)
(0.017168638 -0.013484492 0)
(0.018945322 -0.012231726 0)
(0.020540316 -0.010861068 0)
(0.021938249 -0.0093854238 0)
(0.02312562 -0.0078187215 0)
(0.024090931 -0.0061757886 0)
(0.024824794 -0.0044722178 0)
(0.025320028 -0.0027242269 0)
(0.025571729 -0.00094851024 0)
(0.025577325 0.00083791544 0)
(0.025336599 0.0026178704 0)
(0.024851707 0.004374175 0)
(0.024127155 0.0060898153 0)
(0.023169768 0.00774811 0)
(0.02198863 0.009332876 0)
(0.020595003 0.010828593 0)
(0.019002222 0.01222056 0)
(0.017225576 0.013495055 0)
(0.015282156 0.014639474 0)
(0.013190701 0.015642467 0)
(0.010971409 0.016494064 0)
(0.0086457457 0.017185783 0)
(0.0062362316 0.01771072 0)
(0.0037662202 0.01806363 0)
(0.0012596667 0.018240983 0)
(-0.0012591099 0.018241005 0)
(-0.0037656688 0.018063695 0)
(-0.0062356908 0.017710827 0)
(-0.0086452206 0.017185931 0)
(-0.010970905 0.016494253 0)
(-0.013190222 0.015642693 0)
(-0.015281707 0.014639736 0)
(-0.017225161 0.013495351 0)
(-0.019001846 0.012220886 0)
(-0.020594669 0.010828945 0)
(-0.021988341 0.0093332523 0)
(-0.023169526 0.0077485064 0)
(-0.024126962 0.006090228 0)
(-0.024851566 0.0043746 0)
(-0.025336511 0.0026183038 0)
(-0.02557729 0.00083835309 0)
(-0.025571748 -0.00094807251 0)
(-0.0253201 -0.0027237932 0)
(-0.024824918 -0.0044717923 0)
(-0.024091107 -0.0061753754 0)
(-0.023125846 -0.0078183245 0)
(-0.021938522 -0.0093850468 0)
(-0.020540634 -0.010860715 0)
(-0.018945682 -0.0122314 0)
(-0.017169036 -0.013484196 0)
(-0.01522779 -0.014607332 0)
(-0.013140596 -0.015590279 0)
(-0.010927491 -0.016423835 0)
(-0.0086097023 -0.017100211 0)
(-0.0062094471 -0.017613093 0)
(-0.0037497235 -0.0179577 0)
(-0.0012540914 -0.01813082 0)
(0.0014111565 -0.020776252 0)
(0.0042205364 -0.020577835 0)
(0.0069894673 -0.020182829 0)
(0.0096914076 -0.019594921 0)
(0.012300451 -0.018819605 0)
(0.014791574 -0.01786413 0)
(0.017140871 -0.016737443 0)
(0.019325783 -0.015450105 0)
(0.021325313 -0.014014207 0)
(0.023120225 -0.012443255 0)
(0.024693226 -0.010752057 0)
(0.026029136 -0.0089565916 0)
(0.02711503 -0.0070738617 0)
(0.027940364 -0.0051217446 0)
(0.028497079 -0.0031188291 0)
(0.028779683 -0.0010842458 0)
(0.028785305 0.0009625095 0)
(0.028513728 0.0030017579 0)
(0.027967402 0.0050138244 0)
(0.027151422 0.0069792264 0)
(0.026073489 0.0088788646 0)
(0.024743843 0.010694212 0)
(0.023175169 0.012407503 0)
(0.021382484 0.01400191 0)
(0.019382995 0.015461726 0)
(0.017195939 0.016772524 0)
(0.014842395 0.017921316 0)
(0.012345087 0.01889669 0)
(0.0097281589 0.019688939 0)
(0.0070169381 0.020290161 0)
(0.0042376878 0.020694354 0)
(0.0014173463 0.020897479 0)
(-0.0014167398 0.020897503 0)
(-0.0042370871 0.020694427 0)
(-0.0070163491 0.020290282 0)
(-0.0097275872 0.019689106 0)
(-0.012344538 0.018896903 0)
(-0.014841874 0.017921571 0)
(-0.01719545 0.01677282 0)
(-0.019382545 0.015462059 0)
(-0.021382075 0.014002277 0)
(-0.023174806 0.0124079 0)
(-0.024743528 0.010694637 0)
(-0.026073226 0.0088793116 0)
(-0.027151213 0.0069796917 0)
(-0.027967249 0.0050143036 0)
(-0.028513632 0.0030022465 0)
(-0.028785267 0.00096300284 0)
(-0.028779704 -0.0010837523 0)
(-0.028497158 -0.0031183402 0)
(-0.0279405 -0.0051212649 0)
(-0.027115222 -0.0070733958 0)
(-0.026029382 -0.0089561439 0)
(-0.024693524 -0.010751632 0)
(-0.023120572 -0.012442856 0)
(-0.021325706 -0.014013839 0)
(-0.019326218 -0.015449772 0)
(-0.017141343 -0.016737146 0)
(-0.014792079 -0.017863874 0)
(-0.012300985 -0.018819392 0)
(-0.0096919636 -0.019594753 0)
(-0.0069900406 -0.020182708 0)
(-0.0042211214 -0.020577762 0)
(-0.0014117473 -0.020776228 0)
(0.0015948494 -0.023761388 0)
(0.0047699003 -0.023534354 0)
(0.0078992025 -0.023082384 0)
(0.010952739 -0.022409706 0)
(0.013901213 -0.021522619 0)
(0.016716329 -0.020429436 0)
(0.01937106 -0.019140411 0)
(0.021839907 -0.01766765 0)
(0.02409914 -0.016025005 0)
(0.026127024 -0.014227951 0)
(0.027904031 -0.012293448 0)
(0.029413018 -0.010239788 0)
(0.030639399 -0.0080864368 0)
(0.031571285 -0.0058538505 0)
(0.032199593 -0.0035632958 0)
(0.032518146 -0.0012366533 0)
(0.032523728 0.0011037838 0)
(0.032216126 0.003435518 0)
(0.031598134 0.0057360601 0)
(0.030675538 0.0079831454 0)
(0.029457063 0.01015495 0)
(0.027954298 0.012230309 0)
(0.026181592 0.014188923 0)
(0.024155921 0.016011575 0)
(0.021896734 0.017680322 0)
(0.019425763 0.019178688 0)
(0.01676682 0.020491837 0)
(0.013945569 0.021606739 0)
(0.010989272 0.022512306 0)
(0.007926527 0.023199516 0)
(0.004786984 0.023661513 0)
(0.0016010545 0.023893686 0)
(-0.0016003907 0.023893713 0)
(-0.0047863268 0.023661596 0)
(-0.0079258825 0.023199652 0)
(-0.010988647 0.022512494 0)
(-0.013944969 0.021606978 0)
(-0.01676625 0.020492125 0)
(-0.019425229 0.01917902 0)
(-0.021896241 0.017680696 0)
(-0.024155475 0.016011988 0)
(-0.026181195 0.01418937 0)
(-0.027953954 0.012230785 0)
(-0.029456776 0.010155453 0)
(-0.030675311 0.0079836681 0)
(-0.031597968 0.0057365984 0)
(-0.032216022 0.0034360667 0)
(-0.032523688 0.0011043379 0)
(-0.032518169 -0.0012360991 0)
(-0.03219968 -0.0035627467 0)
(-0.031571434 -0.0058533117 0)
(-0.03063961 -0.0080859134 0)
(-0.029413287 -0.010239285 0)
(-0.027904357 -0.01229297 0)
(-0.026127404 -0.014227503 0)
(-0.02409957 -0.016024591 0)
(-0.021840383 -0.017667274 0)
(-0.019371577 -0.019140077 0)
(-0.016716882 -0.020429148 0)
(-0.013901797 -0.02152238 0)
(-0.010953348 -0.022409517 0)
(-0.0078998311 -0.023082248 0)
(-0.0047705417 -0.023534272 0)
(-0.0015954973 -0.02376136 0)
(0.0018051843 -0.027139758 0)
(0.0053989414 -0.026880315 0)
(0.0089408818 -0.026363831 0)
(0.012397008 -0.02559515 0)
(0.015734142 -0.024581485 0)
(0.018920241 -0.023332357 0)
(0.021924704 -0.021859505 0)
(0.024718663 -0.020176788 0)
(0.027275258 -0.01830006 0)
(0.029569895 -0.016247026 0)
(0.031580478 -0.014037086 0)
(0.033287622 -0.01169116 0)
(0.034674838 -0.0092314994 0)
(0.03572869 -0.0066814861 0)
(0.036438929 -0.0040654188 0)
(0.036798589 -0.0014082921 0)
(0.036804065 0.0012644346 0)
(0.036455146 0.0039270739 0)
(0.035755028 0.006553954 0)
(0.034710288 0.0091196643 0)
(0.033330829 0.011599302 0)
(0.03162979 0.013968719 0)
(0.029623428 0.016204761 0)
(0.027330968 0.018285507 0)
(0.024774423 0.020190494 0)
(0.021978388 0.02190093 0)
(0.018969802 0.023399899 0)
(0.015777693 0.024672541 0)
(0.012432894 0.025706213 0)
(0.0089677434 0.026490627 0)
(0.0054157661 0.027017969 0)
(0.0018113456 0.027282977 0)
(-0.001810616 0.027283008 0)
(-0.0054150436 0.027018061 0)
(-0.0089670351 0.02649078 0)
(-0.012432207 0.025706424 0)
(-0.015777034 0.024672809 0)
(-0.018969176 0.023400221 0)
(-0.021977802 0.021901303 0)
(-0.024773883 0.020190914 0)
(-0.027330478 0.01828597 0)
(-0.029622993 0.016205262 0)
(-0.031629414 0.013969253 0)
(-0.033330515 0.011599865 0)
(-0.034710039 0.0091202498 0)
(-0.035754846 0.0065545569 0)
(-0.036455032 0.0039276884 0)
(-0.036804021 0.001265055 0)
(-0.036798615 -0.0014076715 0)
(-0.036439024 -0.0040648039 0)
(-0.035728854 -0.0066808826 0)
(-0.034675069 -0.0092309131 0)
(-0.033287918 -0.011690596 0)
(-0.031580836 -0.01403655 0)
(-0.029570312 -0.016246524 0)
(-0.02727573 -0.018299596 0)
(-0.024719186 -0.020176367 0)
(-0.021925273 -0.021859131 0)
(-0.01892085 -0.023332034 0)
(-0.015734785 -0.024581216 0)
(-0.012397679 -0.025594937 0)
(-0.0089415739 -0.026363677 0)
(-0.0053996478 -0.026880222 0)
(-0.0018058979 -0.027139727 0)
(0.0020403707 -0.030964162 0)
(0.0061023082 -0.030668007 0)
(0.010105646 -0.030078447 0)
(0.014011939 -0.029201023 0)
(0.017783667 -0.028043988 0)
(0.021384601 -0.026618231 0)
(0.024780142 -0.024937179 0)
(0.027937654 -0.023016681 0)