/*--------------------------------*- C++ -*----------------------------------*\
| =========                 |                                                 |
| \\      /  F ield         | OpenFOAM: The Open Source CFD Toolbox           |
|  \\    /   O peration     | Version:  2106                                  |
|   \\  /    A nd           | Website:  www.openfoam.com                      |
|    \\/     M anipulation  |                                                 |
\*---------------------------------------------------------------------------*/
FoamFile
{
    version     2.0;
    format      ascii;
    arch        "LSB;label=32;scalar=64";
    class       volScalarField;
    location    "0.135";
    object      p;
}
// * * * * * * * * * * * * * * * * * * * * * * * * * * * * * * * * * * * * * //

dimensions      [1 -1 -2 0 0 0 0];

internalField   nonuniform List<scalar> 
32768
(
358.70271
358.7099
358.6722
358.59569
358.47788
358.3172
358.11355
357.86699
357.57771
357.24582
356.87147
356.45469
355.99542
355.49366
354.94943
354.36274
353.73347
353.06152
352.34676
351.58904
350.78822
349.94402
349.05647
348.12486
347.14981
346.12974
345.06583
343.95725
342.80038
341.60674
340.34915
339.07424
337.71717
336.34239
334.91394
333.41039
331.9076
330.3168
328.67499
327.02823
325.28556
323.49506
321.70024
319.81354
317.87193
315.91708
313.89326
311.81229
309.69351
307.52054
305.30581
303.04923
300.73101
298.36479
295.97118
293.53556
291.04381
288.51063
285.94417
283.33567
280.69022
278.01847
275.31129
272.55565
269.77126
266.97566
264.13974
261.28033
258.41373
255.50978
252.58164
249.64219
246.67753
243.71576
240.74851
237.74266
234.74289
231.74028
228.71287
225.69873
222.68399
219.65676
216.64686
213.64613
210.62986
207.63588
204.65975
201.67282
198.72611
195.79286
192.84031
189.94441
187.07828
184.18397
181.34023
178.55343
175.7568
172.98913
170.28677
167.5863
164.88539
162.24896
159.66452
157.08162
154.53432
152.06669
149.62876
147.18404
144.79611
142.46318
140.12746
137.82755
135.61582
133.44554
131.28379
129.17333
127.15126
125.17255
123.18012
121.21148
119.33064
117.49715
115.65581
113.83475
112.06616
110.34892
108.66726
107.02423
105.45325
103.94856
102.45134
100.94308
99.464513
98.034619
96.635006
95.282388
93.997675
92.750512
91.520472
90.321851
89.171477
88.06849
86.989121
85.937928
84.939778
83.979086
83.029797
82.130501
81.34781
80.709398
80.15828
79.411113
78.689995
78.1964
77.576817
76.877719
76.168279
75.523263
75.096813
74.813586
74.45982
74.045196
73.759445
73.638212
73.768352
73.969293
74.088619
74.091521
73.960542
73.704685
73.291429
72.657983
71.785838
70.744975
69.582179
68.262648
66.759575
65.052125
63.06622
60.785992
58.27412
55.690892
52.816507
49.852083
47.473149
45.242201
43.076123
41.105561
38.439671
34.85896
31.962538
30.874995
32.180062
34.17827
31.729955
25.828323
39.080084
1.7164167
0.99200214
1.0486269
0.95473439
0.7988975
0.69151221
0.61360468
0.55312353
0.50502623
0.46570263
0.43285798
0.40495488
0.380921
0.35998357
0.34156904
0.32524383
0.310668
0.29757806
0.28576097
0.27504501
0.2652897
0.25637649
0.24821028
0.24069904
0.23377669
0.22739071
0.22148329
0.216009
0.21092946
0.20621067
0.20182263
0.19773888
0.19393596
0.19039315
0.18709159
0.18401536
0.18114956
0.17848075
0.17599703
0.17368772
0.17154341
0.16955494
0.16771466
0.16601555
0.16445105
0.16301711
0.16170714
0.16051654
0.15944143
0.15847821
0.15762382
0.15687467
0.15622912
0.1556849
0.15524029
0.15489442
0.15464586
0.15449405
0.15444368
349.95533
349.96095
349.92393
349.84825
349.73014
349.5692
349.3654
349.11882
348.82971
348.49799
348.12355
347.70649
347.24687
346.74473
346.20006
345.61281
344.98294
344.31035
343.59495
342.83656
342.03512
341.19021
340.3021
339.36962
338.39417
337.37296
336.30896
335.19885
334.04242
332.84601
331.59033
330.31085
328.95524
327.58118
326.14562
324.64819
323.1425
321.54138
319.91411
318.25691
316.50492
314.73229
312.92353
311.02652
309.10318
307.13854
305.09981
303.03202
300.9118
298.72582
296.51326
294.25726
291.93076
289.5658
287.17416
284.72617
282.22811
279.70379
277.13597
274.51441
271.86645
269.1981
266.48301
263.72109
260.94209
258.14509
255.29672
252.434
249.56674
246.65895
243.73309
240.79013
237.82078
234.85877
231.88317
228.87238
225.87767
222.86955
219.84094
216.82795
213.7995
210.77024
207.7702
204.75853
201.73372
198.75125
195.76753
192.77512
189.83484
186.88423
183.93327
181.05616
178.16791
175.26948
172.45041
169.64617
166.83211
164.08656
161.38278
158.66258
155.97446
153.3543
150.7541
148.161
145.62831
143.16277
140.7011
138.25905
135.89813
133.56224
131.20891
128.91936
126.72127
124.54445
122.3688
120.25884
118.24298
116.2572
114.26722
112.32642
110.44618
108.57537
106.73165
104.94995
103.20329
101.48005
99.79622
98.159577
96.576375
95.039731
93.532378
92.052873
90.608949
89.194261
87.793928
86.426091
85.119771
83.866009
82.640555
81.439327
80.290104
79.197944
78.121591
77.063674
76.070154
75.137443
74.235269
73.357116
72.540347
71.828219
71.199574
70.525783
69.847627
69.183563
68.515185
67.879242
67.306599
66.810102
66.390264
66.018173
65.673478
65.49026
65.304353
65.189675
65.278295
65.394411
65.475198
65.477649
65.338178
65.043635
64.587872
63.95918
63.147351
62.166398
60.973454
59.540117
57.969166
56.223724
54.159422
51.807259
49.012066
46.50778
43.997183
41.228247
39.212727
36.666297
33.269461
30.969758
28.853834
26.140283
23.37581
22.525777
23.224413
19.443424
24.302124
41.878937
5.1316463
0.64714212
0.80191591
0.90599803
0.81875456
0.72369892
0.64603847
0.58204076
0.52918741
0.48538287
0.44867152
0.4175112
0.39074647
0.36751242
0.34715502
0.32917252
0.31317582
0.29885451
0.28596573
0.27430906
0.26372383
0.25407496
0.24524909
0.23715048
0.22970519
0.22284425
0.2164999
0.21062794
0.20518584
0.20013465
0.19544061
0.19107421
0.18700945
0.18322326
0.17969515
0.17640669
0.17334217
0.17048669
0.16782704
0.16535152
0.16304963
0.16091198
0.1589293
0.15709437
0.15540043
0.15384133
0.15241019
0.15110301
0.14991518
0.14884252
0.1478814
0.14702855
0.1462817
0.14563794
0.14509514
0.14465181
0.14430637
0.14405835
0.14390741
0.14385714
341.19485
341.19996
341.16305
341.08738
340.96895
340.80765
340.6035
340.35661
340.06708
339.73507
339.3605
338.94341
338.48385
337.98179
337.43718
336.84996
336.22005
335.54736
334.83178
334.07313
333.27137
332.42601
331.53751
330.60427
329.6286
328.60596
327.54248
326.42962
325.27523
324.07445
322.82182
321.53675
320.18307
318.80699
317.36582
315.8759
314.35948
312.75902
311.13847
309.46427
307.7172
305.95224
304.12111
302.23082
300.31524
298.32766
296.29446
294.2322
292.09238
289.90735
287.70234
285.42999
283.09279
280.73913
278.34125
275.87499
273.37954
270.85709
268.27279
265.64564
263.0059
260.32883
257.5937
254.83086
252.05982
249.25018
246.38772
243.53253
240.65705
237.73366
234.80971
231.85952
228.88696
225.93052
222.93756
219.91938
216.9317
213.90821
210.87734
207.86208
204.81751
201.79763
198.79963
195.75989
192.74286
189.77443
186.75964
183.77258
180.83802
177.85521
174.9237
172.05513
169.12741
166.24907
163.45628
160.61427
157.78849
155.07259
152.35962
149.60811
146.93226
144.3387
141.72011
139.11384
136.61352
134.14593
131.64246
129.21664
126.88732
124.52309
122.16354
119.91209
117.71367
115.51313
113.35632
111.27823
109.23601
107.19355
105.20964
103.33732
101.47953
99.56669
97.703886
95.948665
94.224947
92.493844
90.799117
89.19463
87.639621
86.064717
84.506916
83.032467
81.612718
80.196895
78.80533
77.469985
76.171996
74.898408
73.665209
72.478059
71.33007
70.22327
69.165539
68.159952
67.185943
66.226093
65.30756
64.445568
63.628692
62.865458
62.150294
61.459169
60.812818
60.196367
59.562066
58.932064
58.355547
57.865122
57.479071
57.143486
56.847437
56.652738
56.562522
56.58347
56.695965
56.817722
56.891609
56.895835
56.836582
56.67097
56.277638
55.645504
54.833327
53.799157
52.503594
50.990585
49.262277
47.365237
45.493356
43.149207
40.45901
38.07647
35.418163
32.073609
30.114778
28.002918
24.749395
22.157411
19.844321
15.111906
10.302665
9.0712169
5.8412912
7.4703623
32.579636
5.4350849
-0.086157468
0.40261205
0.63966874
0.68904319
0.67342465
0.63093778
0.58232417
0.53580621
0.493959
0.4571832
0.42508229
0.39704942
0.37247658
0.35082424
0.33163736
0.31454129
0.29922619
0.28544806
0.27298787
0.26167642
0.25137183
0.24195277
0.23331961
0.22538431
0.21807474
0.21132708
0.20508471
0.19930086
0.19393436
0.18894872
0.18431194
0.1799958
0.17597531
0.17222832
0.16873508
0.16547869
0.1624413
0.15960971
0.15697179
0.15451586
0.15223146
0.15010908
0.14814102
0.14631929
0.14463694
0.14308798
0.14166637
0.14036754
0.13918713
0.13812109
0.13716576
0.13631803
0.13557534
0.13493517
0.13439556
0.13395472
0.13361119
0.13336428
0.13321411
0.13316314
332.42163
332.4263
332.38926
332.31336
332.19455
332.03275
331.82805
331.58057
331.29039
330.95761
330.58222
330.16423
329.70365
329.20046
328.65465
328.06616
327.43493
326.76086
326.04385
325.28373
324.48044
323.6335
322.74335
321.80845
320.83096
319.80653
318.74122
317.62595
316.47073
315.26548
314.01435
312.72259
311.36985
309.98965
308.54255
307.05617
305.53064
303.92776
302.30829
300.62368
298.8735
297.11088
295.26692
293.37269
291.45771
289.45934
287.42131
285.35372
283.20485
281.01674
278.80738
276.51955
274.17476
271.8238
269.41369
266.93425
264.43393
261.90452
259.3066
256.67482
254.03373
251.34075
248.58771
245.82239
243.05031
240.22466
237.352
234.49983
231.60322
228.66244
225.74167
222.77785
219.80373
216.84819
213.82827
210.80546
207.81872
204.77123
201.74417
198.72406
195.6589
192.65196
189.64323
186.57069
183.57003
180.59735
177.54908
174.58204
171.63577
168.62282
165.72688
162.84185
159.8788
157.0372
154.23508
151.3574
148.55805
145.8424
143.09332
140.3495
137.69847
135.09325
132.46428
129.87317
127.3842
124.89247
122.36701
119.9729
117.66082
115.26153
112.90322
110.69628
108.49801
106.25782
104.11865
102.09382
100.03835
97.948184
95.973886
94.125298
92.255718
90.363163
88.553824
86.794243
85.032946
83.301604
81.60929
79.977578
78.421984
76.882374
75.34154
73.870622
72.464953
71.040817
69.62349
68.292821
67.039016
65.796487
64.550595
63.362216
62.241448
61.133712
60.050548
59.045586
58.101581
57.181998
56.27874
55.393809
54.56556
53.813383
53.084226
52.326752
51.58959
50.940236
50.355173
49.806714
49.310845
48.876957
48.497993
48.181401
47.948492
47.79049
47.731008
47.799763
47.963551
48.183132
48.352173
48.399655
48.334532
48.160819
47.779647
47.267284
46.636962
45.630652
44.087719
42.42068
40.766125
39.009038
37.31491
34.566597
31.035122
28.740336
26.101106
21.213255
20.777548
19.797227
9.9840548
6.3490564
10.839307
7.7039173
-3.2759345
7.7606118
10.644106
4.3500543
0.12726922
-0.31645923
-0.051920147
0.24003556
0.43412621
0.51786949
0.54250709
0.53388681
0.51007912
0.48087609
0.45094639
0.42239888
0.39606022
0.37213565
0.35054925
0.3311107
0.31359632
0.29778545
0.28347626
0.27048697
0.25866479
0.24787568
0.23799846
0.22893378
0.2205958
0.21291259
0.20581523
0.19924458
0.19315689
0.18750818
0.18225872
0.17737501
0.17282751
0.16858992
0.16463878
0.16095316
0.15751435
0.15430525
0.15131149
0.14851946
0.14591657
0.14349188
0.14123553
0.13913852
0.13719306
0.13539157
0.1337274
0.13219455
0.13078789
0.12950251
0.12833398
0.12727845
0.12633242
0.12549286
0.12475708
0.12412279
0.12358806
0.12315116
0.12281073
0.12256607
0.12241739
0.12236679
323.63577
323.64006
323.60268
323.52633
323.40695
323.24448
323.03904
322.79073
322.49965
322.16586
321.7894
321.37029
320.90853
320.4041
319.85697
319.26711
318.63445
317.95889
317.24034
316.47861
315.67365
314.82499
313.933
312.99624
312.01672
310.9902
309.92276
308.80494
307.64785
306.43912
305.1868
303.89041
302.53634
301.15152
299.69992
298.21374
296.67854
295.07519
293.45324
291.75552
290.00745
288.24074
286.38226
284.48709
282.56889
280.55747
278.51287
276.43958
274.28102
272.08675
269.86712
267.56606
265.21523
262.8582
260.4337
257.9423
255.43217
252.89565
250.28387
247.64294
244.99223
242.28292
239.5183
236.74523
233.96406
231.12205
228.23959
225.38209
222.46028
219.51317
216.58969
213.5994
210.62947
207.6657
204.61529
201.59756
198.59943
195.52625
192.51407
189.47271
186.38878
183.40108
180.35973
177.2669
174.29045
171.28902
168.21951
165.27777
162.29761
159.2687
156.40319
153.48441
150.50537
147.70387
144.88606
141.95649
139.17116
136.4992
133.70726
130.92161
128.33679
125.74201
123.04021
120.48334
118.05776
115.50396
112.9438
110.60662
108.28558
105.8573
103.54691
101.37001
99.138332
96.874091
94.75017
92.754418
90.722088
88.632161
86.653688
84.799294
82.900407
81.009229
79.255271
77.537115
75.764116
74.013738
72.348714
70.728413
69.098134
67.506271
66.017445
64.60738
63.226293
61.845102
60.467171
59.114435
57.803992
56.542899
55.311083
54.125499
53.002893
51.917566
50.872246
49.883072
48.930271
48.017472
47.137435
46.250472
45.380152
44.576639
43.852703
43.16048
42.469521
41.796297
41.152012
40.583198
40.157911
39.815491
39.475697
39.175316
38.959779
38.836974
38.837811
38.972603
39.242032
39.545974
39.800347
40.022247
40.064586
40.001686
39.464242
38.870051
38.342928
37.360654
35.857413
34.25245
32.326159
30.236945
28.914101
25.859182
22.097233
21.526341
18.829375
11.050178
10.275403
11.758565
5.8554413
7.6946741
0.54375161
-0.46835978
-0.47240524
-0.59581298
-0.34903512
-0.3195798
-0.3229809
-0.22792066
-0.037674409
0.16145914
0.31050465
0.39511124
0.43436481
0.44478745
0.43846421
0.4233289
0.40415794
0.38367389
0.36334963
0.34392964
0.32574707
0.30891007
0.29340893
0.27917516
0.26611752
0.25413057
0.24312189
0.2330024
0.22367788
0.21507305
0.20712239
0.19976371
0.19294413
0.1866155
0.18073536
0.17526539
0.17017165
0.16542424
0.16099646
0.15686437
0.15300654
0.14940365
0.14603845
0.14289495
0.13995981
0.13722043
0.13466473
0.1322824
0.13006415
0.12800148
0.12608676
0.12431295
0.12267373
0.12116335
0.11977685
0.11850944
0.11735691
0.11631556
0.11538218
0.11455387
0.11382772
0.11320151
0.11267351
0.11224212
0.111906
0.11166452
0.1115179
0.11146814
314.83746
314.84132
314.80347
314.72647
314.60635
314.44304
314.23666
313.98732
313.6951
313.36009
312.98231
312.5618
312.09856
311.59257
311.0438
310.45222
309.81774
309.14028
308.41974
307.65593
306.84877
305.99786
305.10344
304.16428
303.18199
302.15296
301.08237
299.96173
298.80149
297.589
296.3342
295.03271
293.67598
292.28632
290.829
289.34096
287.79668
286.19074
284.5638
282.85399
281.10731
279.32918
277.46019
275.56419
273.63258
271.61048
269.56248
267.47362
265.30381
263.10835
260.86763
258.55224
256.19981
253.82787
251.38473
248.88114
246.35986
243.81137
241.18294
238.53416
235.86306
233.13313
230.36198
227.58006
224.78156
221.91711
219.02756
216.15319
213.20403
210.26234
207.32453
204.30356
201.33888
198.34519
195.27088
192.26712
189.24222
186.14969
183.15582
180.0779
176.97652
174.00182
170.90775
167.80972
164.8656
161.81045
158.7427
155.83206
152.78631
149.76346
146.92224
143.93449
140.96075
138.18748
135.33795
132.41575
129.62906
126.92885
124.14849
121.36625
118.76503
116.18163
113.47081
110.89898
108.48966
105.91993
103.36888
101.08522
98.72697
96.243795
93.98815
91.87277
89.61272
87.351001
85.253139
83.186455
81.119802
79.138401
77.240668
75.336821
73.381399
71.485484
69.725175
68.020079
66.301264
64.578103
62.906766
61.333364
59.739841
58.074898
56.51805
55.128463
53.750017
52.363919
51.063275
49.806945
48.51919
47.217336
45.943487
44.728785
43.588
42.50586
41.484904
40.53522
39.621444
38.730566
37.8444
36.965081
36.141249
35.337185
34.532173
33.766217
33.097315
32.538346
31.972862
31.379399
30.859332
30.408531
30.02018
29.789536
29.714258
29.701495
29.818969
30.052695
30.445969
30.871943
31.206266
31.7201
31.884904
31.49668
31.083044
30.863007
30.643051
29.761741
27.602028
25.702225
23.770894
20.211812
20.823868
18.060011
8.4404924
5.055236
5.6838731
4.2212236
9.5690187
7.5230796
1.3534153
-0.076209831
-0.18487726
-0.067886639
-0.17207071
-0.32589144
-0.34033782
-0.30507979
-0.217097
-0.13123835
-0.009349017
0.1215784
0.23168895
0.30427035
0.34693781
0.3670596
0.37187105
0.36706584
0.35665148
0.34327017
0.32858572
0.31360573
0.29891559
0.28483502
0.27152364
0.25904319
0.24739948
0.23656965
0.22651055
0.21716739
0.20849367
0.20043947
0.19295432
0.18599066
0.17950922
0.17347275
0.16784482
0.16259397
0.15769172
0.15311226
0.14883231
0.14483079
0.14108863
0.13758856
0.13431493
0.13125372
0.12839212
0.12571787
0.12322087
0.12089148
0.1187209
0.11670119
0.11482513
0.11308615
0.11147831
0.10999619
0.10863497
0.10739021
0.10625795
0.10523458
0.10431713
0.10350258
0.10278841
0.1021726
0.10165331
0.10122895
0.10089839
0.10066088
0.10051683
0.10046803
306.02699
306.03037
305.99189
305.91407
305.79303
305.62869
305.42118
305.1706
304.87703
304.54056
304.16122
303.73904
303.27403
302.76618
302.21546
301.62181
300.98518
300.30545
299.58253
298.81625
298.00649
297.1529
296.2556
295.31358
294.32805
293.29601
292.22167
291.09786
289.93346
288.7172
287.45849
286.15174
284.79178
283.39556
281.93329
280.44118
278.88632
277.27946
275.64321
273.92183
272.17652
270.38243
268.50284
266.6063
264.65631
262.62344
260.57088
258.46169
256.28303
254.08149
251.81271
249.48803
247.13421
244.73465
242.271
239.75909
237.22707
234.65613
232.00602
229.35263
226.65497
223.90446
221.12792
218.32928
215.50587
212.61694
209.72537
206.82264
203.85216
200.91947
197.94379
194.89943
191.93927
188.89758
185.81773
182.82493
179.75056
176.65424
173.66862
170.54698
167.44656
164.46616
161.31938
158.23103
155.2874
152.17825
149.13035
146.21944
143.1202
140.12382
137.2823
134.24973
131.28766
128.51491
125.60898
122.68819
119.98347
117.23683
114.35894
111.66821
109.11568
106.39881
103.69783
101.2414
98.76801
96.127674
93.645048
91.392255
89.011823
86.547065
84.297954
82.149221
79.875657
77.664665
75.65048
73.586752
71.405366
69.382898
67.595452
65.748604
63.796288
61.923702
60.136223
58.360116
56.631383
54.979732
53.336428
51.735417
50.224427
48.679511
47.078457
45.593017
44.193541
42.757917
41.421925
40.199648
38.974397
37.766544
36.573847
35.368743
34.200081
33.089495
32.050895
31.070777
30.11196
29.223632
28.378415
27.544985
26.755623
25.980964
25.227884
24.491229
23.817237
23.207434
22.571981
22.025326
21.626441
21.120894
20.521903
20.143364
20.133053
20.112446
20.394133
20.855726
21.495304
22.125497
22.66235
23.295231
23.751329
23.260332
22.864807
22.797986
21.969593
21.252146
19.236656
19.076387
16.982019
10.050942
9.776431
11.4626
6.9771478
3.235838
0.21285875
-0.01416504
-0.31191768
-0.27320061
-0.18336649
-0.17410979
-0.15608208
-0.15647703
-0.22585984
-0.26626435
-0.25863321
-0.23134033
-0.1624215
-0.088655726
0.00044307786
0.093229912
0.17456941
0.23557341
0.27657541
0.30069034
0.31198361
0.31422615
0.3104464
0.30288589
0.29311823
0.28220814
0.27085154
0.25949696
0.24840951
0.23774906
0.22760427
0.21801424
0.20898546
0.20050515
0.19255936
0.18512261
0.17816226
0.17165141
0.1655595
0.15985646
0.15451883
0.14952215
0.14484276
0.14045934
0.13635242
0.13250413
0.12889804
0.12551917
0.12235375
0.11938938
0.11661417
0.1140178
0.1115908
0.1093244
0.10721058
0.10524202
0.10341208
0.10171468
0.10014429
0.098695893
0.09736494
0.096147307
0.095039269
0.094037488
0.093138895
0.092340892
0.091641235
0.091037891
0.090529035
0.090113205
0.089789264
0.089556602
0.089415581
0.089367965
297.20467
297.20747
297.16824
297.08944
296.96731
296.80177
296.59292
296.3409
296.04576
295.70759
295.32644
294.90233
294.43527
293.92524
293.37223
292.77618
292.13702
291.45466
290.72896
289.95979
289.14699
288.29026
287.38962
286.44426
285.45497
284.4194
283.34076
282.21317
281.04402
279.82326
278.56003
277.24726
275.88312
274.48003
273.01152
271.51406
269.94888
268.33885
266.69148
264.96049
263.21161
261.40005
259.51156
257.6114
255.63875
253.59569
251.53721
249.40511
247.21563
244.99936
242.71037
240.37328
238.00712
235.57817
233.09912
230.57406
228.02565
225.42799
222.75548
220.09329
217.36785
214.59611
211.81123
208.98954
206.13315
203.22167
200.33222
197.38868
194.40299
191.46926
188.44018
185.39379
182.42658
179.32633
176.25414
173.26274
170.12348
167.02662
164.0338
160.87707
157.77578
154.79154
151.60716
148.53291
145.56986
142.3898
139.37152
136.43406
133.27344
130.32643
127.46429
124.39245
121.46538
118.68802
115.74905
112.79878
110.11536
107.3905
104.43802
101.73401
99.272889
96.521237
93.739903
91.353735
88.900114
86.219677
83.784187
81.518295
79.054701
76.650252
74.51717
72.298447
69.935017
67.778099
65.788169
63.758627
61.670689
59.60292
57.715646
55.87088
53.960582
52.152821
50.457571
48.688503
46.874005
45.178106
43.568862
41.97324
40.428052
38.969762
37.500377
36.022279
34.611912
33.167383
31.762993
30.470498
29.192585
27.967105
26.814562
25.733889
24.705364
23.640338
22.597565
21.622089
20.62821
19.650325
18.703059
17.848089
17.112874
16.406839
15.732027
14.980884
14.333359
13.744541
13.000605
12.40994
12.112202
11.694608
11.088468
11.186835
11.183568
11.188977
11.532439
11.991112
12.824343
13.393947
14.308423
15.132421
15.714745
14.743842
13.434291
14.673016
13.97477
13.22969
8.4856577
6.4190653
5.4575842
2.5184475
9.392148
5.4088888
0.11369664
-0.13616975
-0.23686225
-0.21426635
-0.27059195
-0.27681132
-0.23289627
-0.19591365
-0.17675843
-0.17554031
-0.20328898
-0.21754148
-0.20940418
-0.18151913
-0.13098506
-0.069972209
-0.001341956
0.068322195
0.13121617
0.18196824
0.21930793
0.24425661
0.2589303
0.2656874
0.26667193
0.2636405
0.25794318
0.25057372
0.24224066
0.23343499
0.22449153
0.21563374
0.2070022
0.19868396
0.19072861
0.18316286
0.17599522
0.1692198
0.16282862
0.15680754
0.15113992
0.14580812
0.14079439
0.136082
0.13165237
0.12748922
0.12357729
0.11990211
0.11645015
0.11320881
0.1101664
0.10731214
0.10463594
0.10212865
0.099781832
0.097587672
0.095539005
0.093629246
0.091852367
0.090202844
0.088675624
0.087266099
0.085970084
0.084783776
0.083703719
0.082726812
0.081850213
0.08107149
0.080388614
0.079799584
0.079302731
0.078896732
0.078580465
0.078353476
0.07821596
0.078169821
288.37086
288.37298
288.33289
288.25294
288.12956
287.96263
287.75227
287.49859
287.20167
286.86157
286.47835
286.05203
285.58263
285.07013
284.51451
283.91572
283.27368
282.58829
281.85944
281.08697
280.27072
279.41041
278.50599
277.55677
276.56328
275.52363
274.44021
273.30824
272.13373
270.90796
269.63931
268.32008
266.95104
265.53976
264.06556
262.55985
260.98501
259.37062
257.7089
255.97071
254.21354
252.38341
250.48807
248.57827
246.58162
244.5311
242.46073
240.30108
238.10629
235.86659
233.55732
231.20579
228.82265
226.36277
223.86713
221.32565
218.75611
216.12758
213.43648
210.75427
208.00339
205.21144
202.40693
199.55634
196.67176
193.74106
190.84281
187.85092
184.85946
181.90032
178.81664
175.79299
172.80008
169.64695
166.57634
163.56651
160.38104
157.26765
154.26126
151.08633
147.94858
144.96196
141.77556
138.67145
135.70515
132.49907
129.46404
126.49908
123.30985
120.35899
117.49097
114.38317
111.44525
108.67531
105.70298
102.79202
100.10987
97.298495
94.383264
91.725318
89.162605
86.419405
83.748626
81.313077
78.77162
76.156135
73.771959
71.483306
68.992288
66.558864
64.48681
62.313618
59.903052
57.749973
55.79999
53.702263
51.644633
49.756775
47.829063
45.86694
43.989793
42.174695
40.469036
38.796361
37.089765
35.383619
33.692936
32.096544
30.596322
29.083244
27.574356
26.240681
24.897625
23.435691
22.142145
20.903416
19.58288
18.299554
16.968454
15.714704
14.725629
13.767822
12.858498
11.91238
10.940378
10.056475
9.1808296
8.2868287
7.4758548
6.7705153
6.0062574
5.13645
4.5985291
3.9164382
3.1913613
2.7738245
2.628764
2.4209627
2.0392379
1.7924472
1.8288206
1.8532201
1.9622938
2.7523726
4.1737244
4.5908471
6.1051176
7.909895
8.4256888
5.0253425
3.5060697
5.6571726
5.8079431
4.2854361
7.2666603
8.5283286
1.4491879
-0.25101154
-0.60813904
-0.44473574
-0.3662347
-0.34573933
-0.31146642
-0.30510391
-0.29232832
-0.27057042
-0.24258629
-0.21679639
-0.19951417
-0.19329074
-0.19688763
-0.19536453
-0.18284334
-0.15132538
-0.11164692
-0.062643772
-0.0086324585
0.045835164
0.096043734
0.13850001
0.17177725
0.19597319
0.21209938
0.22156487
0.22582172
0.2261777
0.22372211
0.21931606
0.21361837
0.20711436
0.20016362
0.19301865
0.18585545
0.17879535
0.17191985
0.16528183
0.15891124
0.15282516
0.1470318
0.14152916
0.13631466
0.13138064
0.12671644
0.12231044
0.11815151
0.11422842
0.11052981
0.10704463
0.10376229
0.10067272
0.097766365
0.095034273
0.092468024
0.09005979
0.087802289
0.085688747
0.083712891
0.081868914
0.080151471
0.078555635
0.077076865
0.075711002
0.074454263
0.073303195
0.072254659
0.071305796
0.070454011
0.069697053
0.069033012
0.068460172
0.067976919
0.067581972
0.067274445
0.067053752
0.066920194
0.066875741
279.52596
279.5273
279.48622
279.405
279.28019
279.1117
278.89963
278.6441
278.34517
278.00291
277.61737
277.18858
276.71655
276.20128
275.64273
275.04085
274.39558
273.7068
272.9744
272.19823
271.37811
270.51378
269.60513
268.65159
267.65343
266.60917
265.52048
264.38355
263.20314
261.97173
260.69702
259.37059
257.99606
256.57565
255.09526
253.57985
251.99516
250.37439
248.69695
246.95255
245.18247
243.33406
241.43275
239.50564
237.48863
235.42692
233.34131
231.15496
228.94885
226.68394
224.35605
221.98727
219.57393
217.09068
214.5783
212.01138
209.41827
206.74881
204.05132
201.34163
198.55779
195.74501
192.91329
190.0271
187.126
184.17593
181.24897
178.21397
175.21596
172.21127
169.08288
166.10541
163.04994
159.84255
156.77326
153.74176
150.52345
147.37645
144.37323
141.16521
137.98698
134.98566
131.77737
128.64807
125.66707
122.4476
119.41982
116.42564
113.20473
110.25945
107.36966
104.21395
101.2753
98.511968
95.451617
92.561699
89.953993
87.052358
84.123602
81.571902
78.958233
76.095383
73.508183
71.145153
68.503204
65.882077
63.571606
61.239199
58.77266
56.402226
54.268111
52.063586
49.761152
47.616934
45.602211
43.536808
41.446608
39.595944
37.808324
35.790623
33.813908
32.112508
30.435881
28.594735
26.954633
25.491116
23.793059
22.105472
20.706306
19.25397
17.516009
16.019954
14.850435
13.384802
12.05612
10.972271
9.7084754
8.5719808
7.3769645
5.8362899
4.669731
3.6723598
3.3110093
2.9048632
2.4627774
2.063221
1.7194849
1.4044577
1.1205855
0.83178992
0.48553063
0.10913682
-0.22389259
-0.43400898
-0.50587096
-0.50724863
-0.48082123
-0.44960273
-0.4125811
-0.36847924
-0.31101199
-0.21878065
-0.07304388
0.19162332
-0.13536054
-0.90600438
-0.039296243
0.54826077
0.59534673
-0.045157867
-0.28718921
1.1737248
3.0423424
1.6511912
-0.26769164
-0.62296203
-0.54911833
-0.50176571
-0.53597782
-0.48570102
-0.42774136
-0.37239262
-0.33457242
-0.31519147
-0.29671975
-0.27481595
-0.25219884
-0.23122436
-0.21441236
-0.20336059
-0.1952628
-0.18429244
-0.1661356
-0.13823731
-0.10340815
-0.062828589
-0.019050651
0.024920473
0.066044101
0.10196177
0.13142928
0.15417742
0.17062495
0.18157787
0.18798841
0.19079681
0.19084652
0.18884915
0.18538096
0.18089514
0.17573912
0.17017595
0.16439675
0.15854344
0.15271982
0.14699912
0.14142775
0.13603916
0.13085555
0.12588928
0.1211462
0.11662696
0.11232849
0.10824486
0.10437268
0.10070512
0.097234499
0.093953102
0.090853269
0.087927445
0.085168272
0.082568672
0.080121873
0.077821457
0.075661362
0.073635882
0.071739683
0.069967759
0.0683155
0.06677863
0.065353124
0.064035296
0.06282181
0.061709583
0.060695751
0.059777798
0.058953354
0.05822056
0.057577482
0.057022483
0.056554235
0.056171586
0.055873619
0.05565991
0.055530739
0.055488161
270.67029
270.67084
270.62867
270.54604
270.41967
270.24945
270.03549
269.77789
269.47674
269.13208
268.74398
268.31245
267.83752
267.31917
266.75737
266.15207
265.50321
264.81068
264.07435
263.29407
262.46968
261.6009
260.68759
259.72925
258.72598
257.67657
256.58218
255.43969
254.25289
253.01524
251.73373
250.39974
249.01859
247.58864
246.10141
244.57479
242.98062
241.35045
239.65718
237.90613
236.12001
234.25269
232.34693
230.39409
228.35917
226.28843
224.17513
221.96719
219.74674
217.45337
215.10307
212.71595
210.26675
207.76415
205.23021
202.62572
200.01277
197.30144
194.59968
191.84689
189.02492
186.20057
183.3395
180.40011
177.49307
174.52476
171.54718
168.48215
165.45438
162.42355
159.29477
156.25153
153.1532
149.95522
146.81799
143.80043
140.55117
137.35622
134.38344
131.07308
127.89609
124.92989
121.5993
118.46737
115.51888
112.20331
109.17069
106.22503
102.92371
99.984827
97.104395
93.865398
90.94907
88.199359
85.087921
82.175319
79.570507
76.652519
73.738067
71.17359
68.543664
65.724113
63.092707
60.676435
58.100939
55.499045
53.163915
50.840539
48.366713
46.057591
43.95333
41.624046
39.356176
37.415981
35.287224
33.113164
31.192775
29.260116
27.431624
25.612909
23.586347
21.787526
20.2937
18.483064
16.570916
15.170319
13.706667
11.976056
10.496319
9.2255512
7.4221785
5.6632028
4.429707
3.3706085
2.8477589
2.3966776
1.8895967
1.3778634
0.89587827
0.42350917
-0.092640296
-0.18407843
-0.20468678
-0.20704345
-0.21518975
-0.2280634
-0.2451236
-0.27046439
-0.30507387
-0.34780514
-0.39913362
-0.45333096
-0.49653003
-0.51907247
-0.52960847
-0.52518382
-0.49544194
-0.45722343
-0.41586757
-0.37749215
-0.34226223
-0.30337464
-0.25859031
-0.25041018
-0.29555299
-0.46660878
-0.5162794
-0.57078049
-0.6239887
-0.65301016
-0.68034209
-0.68286146
-0.6075464
-0.54166349
-0.57439101
-0.61462357
-0.58401317
-0.57015213
-0.52379576
-0.47184543
-0.42784384
-0.38462759
-0.35025411
-0.3251158
-0.30333768
-0.28168219
-0.26052208
-0.24089158
-0.2236946
-0.20914135
-0.19532832
-0.17930482
-0.1593082
-0.13331424
-0.10245323
-0.067946558
-0.031449116
0.0050369393
0.039489867
0.070285854
0.096411906
0.11748872
0.13363161
0.14527857
0.15303804
0.15756979
0.15950882
0.15942357
0.15780016
0.15503822
0.15146014
0.14732109
0.14281523
0.13809741
0.13327805
0.12844152
0.12365132
0.11895443
0.11438184
0.10995562
0.10568935
0.10159328
0.097669817
0.093921691
0.090348718
0.086948326
0.083716843
0.080649943
0.077742837
0.074990455
0.072387604
0.069929084
0.067609765
0.065424655
0.063368939
0.061437996
0.05962744
0.057933082
0.056351055
0.054877912
0.053509978
0.052244116
0.051077427
0.050007364
0.049031271
0.04814687
0.047352375
0.046645658
0.046025228
0.045489594
0.045037606
0.0446683
0.044380762
0.044174697
0.044050336
0.0440098
261.80432
261.80408
261.76075
261.67659
261.54851
261.37639
261.16035