/*--------------------------------*- C++ -*----------------------------------*\
| =========                 |                                                 |
| \\      /  F ield         | OpenFOAM: The Open Source CFD Toolbox           |
|  \\    /   O peration     | Version:  2106                                  |
|   \\  /    A nd           | Website:  www.openfoam.com                      |
|    \\/     M anipulation  |                                                 |
\*---------------------------------------------------------------------------*/
FoamFile
{
    version     2.0;
    format      ascii;
    arch        "LSB;label=32;scalar=64";
    class       volVectorField;
    location    "0.135";
    object      U;
}
// * * * * * * * * * * * * * * * * * * * * * * * * * * * * * * * * * * * * * //

dimensions      [0 1 -1 0 0 0 0];

internalField   nonuniform List<vector> 
32768
(
(0.0011104931 -0.0013805102 0)
(0.0049710948 -0.0018127469 0)
(0.0094819471 -0.0019319889 0)
(0.014138227 -0.0019894461 0)
(0.018820069 -0.0020067524 0)
(0.023520212 -0.0020117201 0)
(0.028231383 -0.0020154231 0)
(0.032950461 -0.0020210974 0)
(0.037681674 -0.0020268964 0)
(0.042437343 -0.0020589056 0)
(0.047213118 -0.0021002236 0)
(0.052007591 -0.0021443723 0)
(0.056820551 -0.0021884877 0)
(0.061652155 -0.0022315779 0)
(0.066503112 -0.0022727931 0)
(0.071374851 -0.002311801 0)
(0.076269107 -0.0023488881 0)
(0.081187582 -0.0023844767 0)
(0.086132081 -0.0024190386 0)
(0.091104135 -0.0024527587 0)
(0.096106136 -0.0024863693 0)
(0.10113852 -0.0025190868 0)
(0.10620632 -0.0025534207 0)
(0.11130478 -0.0025847911 0)
(0.11644857 -0.0026223289 0)
(0.12161685 -0.0026506315 0)
(0.12684803 -0.0026938545 0)
(0.13209175 -0.0027196476 0)
(0.1374147 -0.0027638401 0)
(0.14275232 -0.0028007209 0)
(0.1481553 -0.0028226944 0)
(0.15361101 -0.0028991362 0)
(0.15909986 -0.0028750195 0)
(0.16465871 -0.0029939669 0)
(0.17026198 -0.0029649333 0)
(0.17594823 -0.0030274226 0)
(0.18161336 -0.0031205406 0)
(0.18745192 -0.0030673652 0)
(0.19329182 -0.003183715 0)
(0.19909079 -0.0032339782 0)
(0.20515702 -0.0032004314 0)
(0.21119269 -0.0033182858 0)
(0.21713172 -0.0033614918 0)
(0.22334947 -0.0033408376 0)
(0.2296455 -0.0034527548 0)
(0.23580195 -0.0034924592 0)
(0.24207823 -0.003477736 0)
(0.24854026 -0.0035797506 0)
(0.25502915 -0.0036407019 0)
(0.26149121 -0.0036260586 0)
(0.26798473 -0.003680007 0)
(0.27460868 -0.0037661822 0)
(0.2813559 -0.0037919191 0)
(0.28811688 -0.0038161411 0)
(0.294845 -0.0038729411 0)
(0.30160466 -0.0039015096 0)
(0.30848821 -0.003930705 0)
(0.31549938 -0.0040104271 0)
(0.32253543 -0.0040634913 0)
(0.32952737 -0.0040501262 0)
(0.33651939 -0.0040635008 0)
(0.34358683 -0.004139565 0)
(0.35076423 -0.0042000026 0)
(0.35803083 -0.0042202615 0)
(0.36530737 -0.0042525726 0)
(0.37255636 -0.0042862394 0)
(0.3798088 -0.0042851886 0)
(0.38706016 -0.0043085884 0)
(0.39437005 -0.0043647572 0)
(0.40182386 -0.0044190386 0)
(0.40934051 -0.0044640393 0)
(0.41683328 -0.0044705842 0)
(0.42428451 -0.0044602229 0)
(0.43167838 -0.0044826569 0)
(0.4391128 -0.0045145692 0)
(0.44665564 -0.0045497139 0)
(0.45423705 -0.0046047748 0)
(0.46186648 -0.0046311078 0)
(0.4695312 -0.0046489341 0)
(0.47714576 -0.0046695047 0)
(0.48473395 -0.0046582159 0)
(0.49235113 -0.0046637421 0)
(0.49998039 -0.0047088284 0)
(0.50761232 -0.0047264633 0)
(0.51526586 -0.0047256308 0)
(0.52292731 -0.0047655502 0)
(0.5306067 -0.0047815123 0)
(0.5382979 -0.0047825596 0)
(0.54595369 -0.0048156187 0)
(0.55364282 -0.0048084732 0)
(0.56138348 -0.004802023 0)
(0.56905322 -0.0048407727 0)
(0.57668802 -0.0048208876 0)
(0.58434262 -0.0047877098 0)
(0.59191694 -0.0048165915 0)
(0.59942026 -0.0048126058 0)
(0.60694992 -0.0047845519 0)
(0.61450324 -0.0048214135 0)
(0.62209759 -0.0048622943 0)
(0.62976802 -0.0048453322 0)
(0.63741237 -0.0048277892 0)
(0.644913 -0.0048260097 0)
(0.65229838 -0.0047929012 0)
(0.65963794 -0.0047437636 0)
(0.66693412 -0.0047325446 0)
(0.67419539 -0.0047446204 0)
(0.68150531 -0.0047254974 0)
(0.68890277 -0.0047077655 0)
(0.69630279 -0.0047287814 0)
(0.7036272 -0.0047197765 0)
(0.71084354 -0.004650017 0)
(0.71788544 -0.0045846429 0)
(0.72473891 -0.0045586011 0)
(0.73151765 -0.0045575959 0)
(0.73834249 -0.0045554498 0)
(0.74524388 -0.0045534846 0)
(0.75219425 -0.0045479568 0)
(0.75917822 -0.0045216775 0)
(0.76617813 -0.004463539 0)
(0.77311205 -0.0044507928 0)
(0.77991416 -0.0044178216 0)
(0.78660669 -0.0043108815 0)
(0.79319206 -0.0041873096 0)
(0.79960776 -0.0041189091 0)
(0.80582131 -0.0040828039 0)
(0.811844 -0.0040410281 0)
(0.81771585 -0.0040092058 0)
(0.8235355 -0.0040163021 0)
(0.82945232 -0.0040515506 0)
(0.83559848 -0.0040726091 0)
(0.84199937 -0.0040676799 0)
(0.84852286 -0.0040373318 0)
(0.85492373 -0.0039713663 0)
(0.86098891 -0.0038464657 0)
(0.86666102 -0.0036977104 0)
(0.8720161 -0.0035439423 0)
(0.87721157 -0.0034530315 0)
(0.88246232 -0.0034519716 0)
(0.88792722 -0.0035439969 0)
(0.89358248 -0.003514124 0)
(0.89925616 -0.0033296664 0)
(0.90476316 -0.0030640033 0)
(0.90997423 -0.0028283379 0)
(0.91480077 -0.002672323 0)
(0.91917688 -0.0026378519 0)
(0.92310608 -0.0026871723 0)
(0.92667493 -0.0027313964 0)
(0.93008541 -0.002707782 0)
(0.93364913 -0.0026182485 0)
(0.9377265 -0.0025081399 0)
(0.94255495 -0.002334473 0)
(0.94806655 -0.0017698365 0)
(0.95310429 -0.00074753984 0)
(0.9564404 7.1074593e-05 0)
(0.95839346 0.00030746834 0)
(0.9592316 0.00011869818 0)
(0.95936876 5.572408e-05 0)
(0.95930401 0.00010477796 0)
(0.95934706 0.0003172497 0)
(0.95964552 0.00066203528 0)
(0.96028436 0.0013043849 0)
(0.96077815 0.0014490687 0)
(0.96176049 0.000642061 0)
(0.96397655 -0.00060186141 0)
(0.96733484 -0.0016034911 0)
(0.97164141 -0.0023020659 0)
(0.97681955 -0.002886531 0)
(0.98270366 -0.0034136953 0)
(0.989045 -0.0038697644 0)
(0.9955315 -0.0042576205 0)
(1.0019346 -0.0046148822 0)
(1.0082528 -0.0049549117 0)
(1.0147402 -0.0052710854 0)
(1.0217276 -0.0055259537 0)
(1.0294669 -0.0056748251 0)
(1.0381849 -0.0057297885 0)
(1.0480223 -0.0057279278 0)
(1.0588059 -0.0056218838 0)
(1.0698891 -0.0053454077 0)
(1.0801795 -0.0050530434 0)
(1.0886053 -0.0051519618 0)
(1.0950588 -0.0057329396 0)
(1.1008955 -0.0065603433 0)
(1.1081551 -0.0074173079 0)
(1.1182119 -0.0075540932 0)
(1.1306959 -0.0065120056 0)
(1.1445032 -0.0056399474 0)
(1.1586782 -0.0061739375 0)
(1.1724137 -0.0079930763 0)
(1.1851331 -0.010363227 0)
(1.1975275 -0.012525953 0)
(1.211438 -0.014289497 0)
(1.2277578 -0.015461181 0)
(1.2444686 -0.018548911 0)
(1.2607148 -0.028164861 0)
(1.2738717 -0.030465759 0)
(1.2365544 -0.016672238 0)
(1.0902853 -0.012395069 0)
(1.0993399 0.091748991 0)
(0.66563629 0.11335881 0)
(0.48603287 0.075901229 0)
(0.39159342 0.044020714 0)
(0.31710687 0.027324967 0)
(0.26734569 0.01915685 0)
(0.23117309 0.013885434 0)
(0.2034605 0.010626681 0)
(0.18141825 0.0084553241 0)
(0.16337101 0.0069188788 0)
(0.14827086 0.0057817958 0)
(0.13541781 0.0049115567 0)
(0.12432509 0.0042283882 0)
(0.1146353 0.0036793859 0)
(0.10609871 0.0032502113 0)
(0.09850389 0.002715342 0)
(0.091699343 0.0025291798 0)
(0.085563907 0.0021590529 0)
(0.079993024 0.0020406532 0)
(0.074920025 0.0018754242 0)
(0.070269071 0.0017189778 0)
(0.066010272 0.0015807477 0)
(0.062086911 0.0014470711 0)
(0.058429329 0.0014105382 0)
(0.055025977 0.0012420648 0)
(0.051860282 0.0011447967 0)
(0.04890138 0.0010663449 0)
(0.046124658 0.00099659489 0)
(0.043512629 0.00093379654 0)
(0.041049809 0.00087710748 0)
(0.038722232 0.00082584531 0)
(0.03651694 0.00077936474 0)
(0.034424731 0.00073638756 0)
(0.032431599 0.00065348501 0)
(0.03052932 0.0006566765 0)
(0.028713498 0.00063151055 0)
(0.026974592 0.00060390279 0)
(0.025306191 0.00057801691 0)
(0.023700861 0.00055536339 0)
(0.02215646 0.00056240345 0)
(0.020666828 0.00051655865 0)
(0.019224425 0.00049423492 0)
(0.017827231 0.00047574728 0)
(0.01646685 0.00045975095 0)
(0.01514324 0.00044673418 0)
(0.013856645 0.00043622594 0)
(0.012599975 0.00042729988 0)
(0.011370028 0.00043276364 0)
(0.010163986 0.00041025966 0)
(0.0089805118 0.00038969662 0)
(0.0078156649 0.00039407195 0)
(0.0066660771 0.00039713496 0)
(0.0055303226 0.00038386953 0)
(0.0044047053 0.00037871534 0)
(0.003291013 0.00037440832 0)
(0.0021959277 0.00036932313 0)
(0.001128821 0.00034389895 0)
(0.00025912286 0.00025550628 0)
(0.0010892656 -0.0046261175 0)
(0.0054669474 -0.0066880665 0)
(0.010746462 -0.007187863 0)
(0.016018859 -0.0073439702 0)
(0.021343364 -0.0073888574 0)
(0.026684981 -0.0074036911 0)
(0.03203467 -0.0074144901 0)
(0.037387772 -0.0074266581 0)
(0.042753421 -0.0074503093 0)
(0.048106928 -0.0074557063 0)
(0.053458306 -0.0074538595 0)
(0.058812637 -0.0074501909 0)
(0.064174318 -0.0074485908 0)
(0.069546816 -0.0074509981 0)
(0.074933343 -0.0074576073 0)
(0.08033644 -0.0074682446 0)
(0.085758521 -0.0074829102 0)
(0.091201731 -0.0075015371 0)
(0.096668808 -0.0075241958 0)
(0.10216036 -0.0075503216 0)
(0.1076825 -0.0075810526 0)
(0.11322694 -0.0076130533 0)
(0.11882016 -0.0076538561 0)
(0.12440924 -0.0076868125 0)
(0.13011083 -0.0077436731 0)
(0.13570238 -0.0077718084 0)
(0.14159351 -0.0078378955 0)
(0.14710045 -0.0079033117 0)
(0.15328461 -0.0078612576 0)
(0.15865535 -0.0081956346 0)
(0.16511431 -0.0077027727 0)
(0.17049414 -0.0086460787 0)
(0.17700327 -0.0076090076 0)
(0.18263894 -0.0087119456 0)
(0.18900693 -0.0082157772 0)
(0.19513244 -0.0081170207 0)
(0.20103035 -0.0089558129 0)
(0.20788747 -0.0082553252 0)
(0.21371348 -0.0085183622 0)
(0.22002936 -0.0090487427 0)
(0.22710822 -0.0086039048 0)
(0.23306709 -0.0087100139 0)
(0.23941197 -0.0091901953 0)
(0.24669545 -0.0089383937 0)
(0.25315559 -0.0090573829 0)
(0.25950771 -0.0092036681 0)
(0.26653951 -0.0091855229 0)
(0.27356712 -0.0094403514 0)
(0.28044049 -0.0094380296 0)
(0.28724998 -0.0093363313 0)
(0.294181 -0.0095263941 0)
(0.30141252 -0.0097398681 0)
(0.30871299 -0.0097377568 0)
(0.31586458 -0.0096942135 0)
(0.32292034 -0.0097598589 0)
(0.33010688 -0.0098559778 0)
(0.33759325 -0.0099824283 0)
(0.3451934 -0.010105248 0)
(0.35262222 -0.010088913 0)
(0.35995153 -0.009999878 0)
(0.36736841 -0.010049275 0)
(0.37492918 -0.010226903 0)
(0.38264414 -0.010368627 0)
(0.39047214 -0.01034415 0)
(0.39816655 -0.010334176 0)
(0.40582134 -0.010394132 0)
(0.41352742 -0.010249857 0)
(0.42109676 -0.010340573 0)
(0.42893351 -0.010550131 0)
(0.43705646 -0.010596103 0)
(0.44503857 -0.010640177 0)
(0.45299758 -0.010589734 0)
(0.4608543 -0.010407102 0)
(0.46853136 -0.010497809 0)
(0.47651049 -0.010610555 0)
(0.4846133 -0.010569731 0)
(0.49260867 -0.010762448 0)
(0.50086778 -0.010764199 0)
(0.50902729 -0.010662439 0)
(0.51700927 -0.010693422 0)
(0.52507098 -0.010641824 0)
(0.53322346 -0.010630587 0)
(0.54129062 -0.010687574 0)
(0.54939731 -0.010705872 0)
(0.55759215 -0.010605087 0)
(0.56572809 -0.010714292 0)
(0.57398205 -0.01072262 0)
(0.58218716 -0.010567895 0)
(0.59022647 -0.010726 0)
(0.59859589 -0.010736674 0)
(0.60693391 -0.010575513 0)
(0.61494972 -0.010664209 0)
(0.62321093 -0.010630687 0)
(0.63148536 -0.010393061 0)
(0.63943248 -0.010411973 0)
(0.64743484 -0.010413514 0)
(0.65557867 -0.010309763 0)
(0.66367822 -0.010391095 0)
(0.67195944 -0.0106141 0)
(0.68040786 -0.010533204 0)
(0.68863819 -0.010317165 0)
(0.69660515 -0.010196214 0)
(0.70454103 -0.010099605 0)
(0.71250042 -0.0099206823 0)
(0.72035269 -0.0098833204 0)
(0.72815182 -0.010018283 0)
(0.73620127 -0.010113291 0)
(0.7444343 -0.010077108 0)
(0.75255051 -0.010124444 0)
(0.76059002 -0.0099836101 0)
(0.76852798 -0.0096430581 0)
(0.77611538 -0.0093520723 0)
(0.78345556 -0.0092294231 0)
(0.79089443 -0.0091632156 0)
(0.7985496 -0.0092330028 0)
(0.80630839 -0.0093771896 0)
(0.81402399 -0.0095589151 0)
(0.82180197 -0.0095961589 0)
(0.82966894 -0.0094706865 0)
(0.83742122 -0.0093176064 0)
(0.84503236 -0.0092948676 0)
(0.85262929 -0.0091527885 0)
(0.86007848 -0.0088480456 0)
(0.86729175 -0.0085248332 0)
(0.87428215 -0.0082117966 0)
(0.88099012 -0.0079323118 0)
(0.88749234 -0.0077191838 0)
(0.8940501 -0.0077577946 0)
(0.90091237 -0.0081525631 0)
(0.90822756 -0.0086489089 0)
(0.91595889 -0.0089037127 0)
(0.92380779 -0.0088287894 0)
(0.93130321 -0.0084707319 0)
(0.93821228 -0.007910934 0)
(0.94463813 -0.0073377106 0)
(0.95070227 -0.0070589043 0)
(0.95669743 -0.0070888158 0)
(0.96309959 -0.0073311728 0)
(0.97010268 -0.0076620155 0)
(0.97747179 -0.007901083 0)
(0.98485123 -0.0079542617 0)
(0.99200487 -0.0077643825 0)
(0.99880723 -0.0072942022 0)
(1.005079 -0.0066084131 0)
(1.0106389 -0.0057414694 0)
(1.0154553 -0.0047844765 0)
(1.0197209 -0.004157911 0)
(1.0238383 -0.0042246442 0)
(1.0283353 -0.0050727876 0)
(1.0337306 -0.006549997 0)
(1.0403439 -0.0081122691 0)
(1.0482259 -0.0087239696 0)
(1.0570852 -0.0077505557 0)
(1.0660381 -0.0056334942 0)
(1.0737322 -0.0031867672 0)
(1.0790985 -0.0011675447 0)
(1.0820759 -8.6275519e-05 0)
(1.083553 7.6982154e-06 0)
(1.0847126 -0.00069916625 0)
(1.0864426 -0.0016332627 0)
(1.0891823 -0.002305343 0)
(1.09292 -0.0027297364 0)
(1.097616 -0.0035251116 0)
(1.1031039 -0.0047953721 0)
(1.1088158 -0.006086362 0)
(1.1151342 -0.0071869982 0)
(1.1218809 -0.0081978837 0)
(1.1289136 -0.0088689699 0)
(1.1357749 -0.0090873542 0)
(1.1418491 -0.0088599677 0)
(1.1468684 -0.0083627769 0)
(1.1511758 -0.0080378048 0)
(1.1555644 -0.0082694995 0)
(1.1604222 -0.009265025 0)
(1.1660759 -0.010929363 0)
(1.1731431 -0.012975911 0)
(1.1819469 -0.015040213 0)
(1.19213 -0.016551315 0)
(1.2023983 -0.016452134 0)
(1.210348 -0.01404459 0)
(1.2145059 -0.010205575 0)
(1.216555 -0.0069111473 0)
(1.2200547 -0.0061925286 0)
(1.2285091 -0.0094082546 0)
(1.2427164 -0.01519187 0)
(1.258916 -0.02030412 0)
(1.2736285 -0.023530357 0)
(1.2866554 -0.02286254 0)
(1.2989015 -0.018001163 0)
(1.3106743 -0.013208221 0)
(1.3235479 -0.012341839 0)
(1.3392031 -0.014665159 0)
(1.3539874 -0.019255327 0)
(1.3572684 -0.025260173 0)
(1.3374315 -0.011633891 0)
(1.2650137 0.018591409 0)
(1.1072454 0.033886247 0)
(1.1601756 0.41411688 0)
(0.83174897 0.37601649 0)
(0.5979521 0.30919702 0)
(0.52667063 0.20917296 0)
(0.45063882 0.13252419 0)
(0.38825748 0.090013138 0)
(0.33947276 0.064558613 0)
(0.3005542 0.049127042 0)
(0.26897985 0.038864339 0)
(0.2429237 0.031651311 0)
(0.22105489 0.026363707 0)
(0.20241527 0.022357094 0)
(0.18631214 0.01923904 0)
(0.17223927 0.016758044 0)
(0.15981418 0.014754201 0)
(0.14875858 0.013063898 0)
(0.1388352 0.011868688 0)
(0.12987639 0.010573615 0)
(0.12173478 0.0097047945 0)
(0.11429262 0.008752707 0)
(0.10746941 0.0079797054 0)
(0.10118968 0.007344539 0)
(0.095378408 0.006666649 0)
(0.089955105 0.0062407945 0)
(0.084924694 0.0058088718 0)
(0.080246091 0.0054198534 0)
(0.07584167 0.0050738313 0)
(0.071695087 0.0047612006 0)
(0.067787189 0.0044782579 0)
(0.06409587 0.0042222959 0)
(0.060600394 0.0039905082 0)
(0.057282592 0.0037802516 0)
(0.054126231 0.0035890131 0)
(0.05111769 0.0034132737 0)
(0.048242158 0.0033075889 0)
(0.045489069 0.0031222993 0)
(0.042849151 0.0029816967 0)
(0.04031198 0.002860017 0)
(0.03786902 0.0027500495 0)
(0.035511371 0.0026491293 0)
(0.033235574 0.0025211703 0)
(0.031032891 0.0024658673 0)
(0.028893541 0.0023940005 0)
(0.02681326 0.0023239856 0)
(0.02479159 0.0022831415 0)
(0.022821804 0.0022045571 0)
(0.020893789 0.0021499836 0)
(0.019007021 0.0021021903 0)
(0.017157998 0.0020444422 0)
(0.015342668 0.0020223185 0)
(0.013554475 0.0019917989 0)
(0.011791504 0.0019625905 0)
(0.010053429 0.0019268571 0)
(0.0083340979 0.0019149635 0)
(0.0066317148 0.0019029247 0)
(0.0049469843 0.0018716332 0)
(0.0032898572 0.0018203614 0)
(0.0016897418 0.0016694663 0)
(0.00035440972 0.0011343189 0)
(0.0010955601 -0.0078601377 0)
(0.0054534902 -0.011550493 0)
(0.010678671 -0.012401447 0)
(0.01591788 -0.012619372 0)
(0.021212132 -0.012681417 0)
(0.026520266 -0.012704897 0)
(0.031833707 -0.012721259 0)
(0.037152235 -0.012739767 0)
(0.042475437 -0.012760766 0)
(0.047806419 -0.01278642 0)
(0.053148992 -0.01281858 0)
(0.058504221 -0.012857326 0)
(0.063873468 -0.012902384 0)
(0.06925849 -0.01295308 0)
(0.074660935 -0.013009096 0)
(0.080082364 -0.013070184 0)
(0.085524492 -0.01313609 0)
(0.09098879 -0.013206629 0)
(0.096477738 -0.013281699 0)
(0.10199093 -0.013361239 0)
(0.10753612 -0.013445224 0)
(0.11309957 -0.013533787 0)
(0.1187213 -0.013626255 0)
(0.12431466 -0.013725124 0)
(0.1300741 -0.013822631 0)
(0.13560817 -0.013940123 0)
(0.14166622 -0.014023834 0)
(0.14693485 -0.014199887 0)
(0.15353713 -0.014189 0)
(0.15837381 -0.014578361 0)
(0.16550049 -0.014208421 0)
(0.1702662 -0.015182613 0)
(0.1772429 -0.014101664 0)
(0.18273428 -0.015659652 0)
(0.18902286 -0.014638329 0)
(0.19531486 -0.015124346 0)
(0.20119528 -0.015968153 0)
(0.20799092 -0.014967925 0)
(0.21381657 -0.015664073 0)
(0.22034743 -0.016352901 0)
(0.22721911 -0.015716933 0)
(0.23313974 -0.01580372 0)
(0.23980864 -0.016752582 0)
(0.24687516 -0.016565 0)
(0.25321662 -0.016423925 0)
(0.25989876 -0.016556896 0)
(0.26679538 -0.017155558 0)
(0.27369837 -0.017495219 0)
(0.28076955 -0.017031938 0)
(0.28755889 -0.017010384 0)
(0.29434784 -0.01774519 0)
(0.30175309 -0.018091954 0)
(0.30910459 -0.017860117 0)
(0.31601755 -0.017836627 0)
(0.32316153 -0.017968719 0)
(0.33057639 -0.018210889 0)
(0.33795491 -0.018713515 0)
(0.34541275 -0.018903827 0)
(0.35287877 -0.018563515 0)
(0.36032095 -0.018412578 0)
(0.36775435 -0.018803217 0)
(0.37531665 -0.01923194 0)
(0.38301753 -0.019416965 0)
(0.39077148 -0.019384863 0)
(0.39837869 -0.01940837 0)
(0.40622124 -0.019443114 0)
(0.41404412 -0.019107914 0)
(0.42145569 -0.019509518 0)
(0.42929712 -0.02007485 0)
(0.43740948 -0.020193069 0)
(0.44530647 -0.020179822 0)
(0.45344369 -0.019994644 0)
(0.46130463 -0.019644981 0)
(0.46887538 -0.019965092 0)
(0.47693257 -0.020252988 0)
(0.48499395 -0.020245426 0)
(0.49288885 -0.020699377 0)
(0.50131564 -0.020661996 0)
(0.50951667 -0.020499075 0)
(0.51745058 -0.020473909 0)
(0.52552776 -0.020455592 0)
(0.53357684 -0.020563917 0)
(0.5415731 -0.020693696 0)
(0.54978243 -0.020629276 0)
(0.55795395 -0.020632929 0)
(0.56611592 -0.020993899 0)
(0.57467384 -0.020827306 0)
(0.58276681 -0.020657238 0)
(0.59065707 -0.021056762 0)
(0.59915235 -0.021018336 0)
(0.60731785 -0.020805805 0)
(0.61518717 -0.021016224 0)
(0.62360832 -0.02084834 0)
(0.6318941 -0.020596811 0)
(0.63985016 -0.02060723 0)
(0.64808284 -0.020530793 0)
(0.65630225 -0.020579173 0)
(0.6642372 -0.020974668 0)
(0.67251443 -0.021263546 0)
(0.6810488 -0.021075217 0)
(0.68914277 -0.0207037 0)
(0.69699484 -0.020461415 0)
(0.7051491 -0.020291058 0)
(0.71332859 -0.020112452 0)
(0.72112063 -0.020066457 0)
(0.72884321 -0.020329467 0)
(0.73684408 -0.020545194 0)
(0.74487832 -0.02065908 0)
(0.75287977 -0.020690657 0)
(0.76104227 -0.020324941 0)
(0.76903476 -0.019645544 0)
(0.7766341 -0.019201615 0)
(0.78420521 -0.019125928 0)
(0.79201913 -0.019246195 0)
(0.7999397 -0.019447782 0)
(0.80777953 -0.019738935 0)
(0.8154132 -0.019986865 0)
(0.823093 -0.019997267 0)
(0.83072026 -0.019778126 0)
(0.83812516 -0.019576533 0)
(0.84541815 -0.019395417 0)
(0.85281095 -0.019068695 0)
(0.86010019 -0.018690482 0)
(0.86740094 -0.018223479 0)
(0.87483585 -0.017606887 0)
(0.88223535 -0.017036597 0)
(0.88938541 -0.016815736 0)
(0.89618334 -0.017080457 0)
(0.90285058 -0.017874939 0)
(0.90988422 -0.018847812 0)
(0.91736646 -0.019441001 0)
(0.92509385 -0.019202402 0)
(0.9327851 -0.018225072 0)
(0.94010613 -0.016953982 0)
(0.94680772 -0.015788683 0)
(0.95284733 -0.01514826 0)
(0.95854936 -0.015461901 0)
(0.96446207 -0.01649901 0)
(0.97103333 -0.01750508 0)
(0.97817953 -0.017862723 0)
(0.98549811 -0.017633733 0)
(0.99257207 -0.016864089 0)
(0.99922785 -0.015638347 0)
(1.0054519 -0.014276207 0)
(1.0114498 -0.013041283 0)
(1.017455 -0.011925088 0)
(1.0233518 -0.011179562 0)
(1.028985 -0.011230818 0)
(1.0345498 -0.012404467 0)
(1.0402879 -0.014534328 0)
(1.0462541 -0.01690866 0)
(1.0525097 -0.018449631 0)
(1.0591297 -0.018340213 0)
(1.0660498 -0.016276191 0)
(1.072717 -0.012605736 0)
(1.0783002 -0.0082740398 0)
(1.0824668 -0.0046121455 0)
(1.0855316 -0.002725392 0)
(1.088301 -0.0027762043 0)
(1.091453 -0.0038964565 0)
(1.095182 -0.0054677186 0)
(1.0994748 -0.007373628 0)
(1.1041385 -0.0096691794 0)
(1.1091823 -0.011944167 0)
(1.1149282 -0.013769926 0)
(1.1210457 -0.015308819 0)
(1.1269094 -0.016618944 0)
(1.131999 -0.017093584 0)
(1.1365356 -0.016377156 0)
(1.1410923 -0.014804788 0)
(1.1461293 -0.013424944 0)
(1.1525138 -0.013306943 0)
(1.1607055 -0.014448722 0)
(1.1699604 -0.016179409 0)
(1.1789911 -0.018394357 0)
(1.1869126 -0.021491246 0)
(1.1932672 -0.024800598 0)
(1.1980532 -0.026002566 0)
(1.2018123 -0.023010224 0)
(1.2062644 -0.015978043 0)
(1.2129166 -0.010141622 0)
(1.2218049 -0.010781536 0)
(1.2321806 -0.017874924 0)
(1.2468363 -0.029951355 0)
(1.2663914 -0.038036843 0)
(1.2871417 -0.03498593 0)
(1.3090215 -0.029371738 0)
(1.323079 -0.030425615 0)
(1.3285135 -0.033929268 0)
(1.3320787 -0.037640701 0)
(1.3339042 -0.045137337 0)
(1.3367903 -0.05647519 0)
(1.3301416 -0.047276776 0)
(1.2959439 -0.0079385431 0)
(1.2039483 0.03576323 0)
(1.0063759 0.074016239 0)
(0.92795156 0.28740044 0)
(0.64575187 0.53181455 0)
(0.51390536 0.49617928 0)
(0.49816047 0.38414338 0)
(0.46698057 0.26674826 0)
(0.42313128 0.1883194 0)
(0.37951216 0.13839296 0)
(0.34044709 0.10535033 0)
(0.30667518 0.082811864 0)
(0.27781597 0.066897249 0)
(0.25314243 0.05528679 0)
(0.23190397 0.046561231 0)
(0.2134629 0.039830421 0)
(0.197311 0.034521064 0)
(0.18304334 0.030252319 0)
(0.17035067 0.026765499 0)
(0.15896002 0.023869273 0)
(0.14868228 0.021460573 0)
(0.13937577 0.019395574 0)
(0.13088088 0.017645389 0)
(0.12309671 0.016118917 0)
(0.11592654 0.014798165 0)
(0.10929934 0.013627667 0)
(0.10314978 0.012721226 0)
(0.097416946 0.011772089 0)
(0.092071836 0.010847368 0)
(0.087071174 0.010195846 0)
(0.082370372 0.0095766855 0)
(0.077941068 0.0090075953 0)
(0.073758502 0.0084907916 0)
(0.069799752 0.0080225592 0)
(0.066044193 0.0075980504 0)
(0.062473296 0.0072125466 0)
(0.059071074 0.0068617932 0)
(0.055819712 0.0065421143 0)
(0.052711966 0.0062528957 0)
(0.049736694 0.0059855448 0)
(0.046875211 0.0057409991 0)
(0.044120632 0.0055177673 0)
(0.041465569 0.0053139001 0)
(0.038902681 0.0051275018 0)
(0.036421767 0.0049526286 0)
(0.034015929 0.0047986549 0)
(0.031681708 0.0046562461 0)
(0.029410804 0.0045250332 0)
(0.027200307 0.0043811296 0)
(0.025043657 0.0042939654 0)
(0.022932588 0.0041997723 0)
(0.020864776 0.0041128772 0)
(0.018836857 0.0040493365 0)
(0.016844621 0.0039651086 0)
(0.014881757 0.0039022937 0)
(0.012945945 0.0038473088 0)
(0.011034805 0.0037995423 0)
(0.0091440742 0.0037601797 0)
(0.0072733381 0.0037218278 0)
(0.0054227362 0.0036713805 0)
(0.0036034753 0.0035701407 0)
(0.0018534126 0.0032782934 0)
(0.00038050578 0.0022227872 0)
(0.0011054519 -0.011105255 0)
(0.00546566 -0.016391363 0)
(0.010684337 -0.01760077 0)
(0.01592288 -0.017905716 0)
(0.021217935 -0.017991317 0)
(0.026526396 -0.018023274 0)
(0.031839312 -0.01804488 0)
(0.037156631 -0.018067893 0)
(0.042479691 -0.018095748 0)
(0.04781057 -0.018127956 0)
(0.053151532 -0.018165232 0)
(0.058504298 -0.018207831 0)
(0.063870467 -0.018255681 0)
(0.069251673 -0.01830888 0)
(0.074649574 -0.018367619 0)
(0.080065829 -0.018432078 0)
(0.085502245 -0.018502425 0)
(0.090960388 -0.018578864 0)
(0.096442719 -0.018661467 0)
(0.1019492 -0.018750673 0)
(0.10748676 -0.018845697 0)
(0.11304425 -0.018949146 0)
(0.11865512 -0.019054308 0)
(0.12424896 -0.019178161 0)
(0.12998347 -0.01928091 0)
(0.13554428 -0.019449181 0)
(0.14153422 -0.019507752 0)
(0.14688864 -0.019785067 0)
(0.15336354 -0.019705566 0)
(0.15830926 -0.020223058 0)
(0.16537253 -0.019818054 0)
(0.17006458 -0.02083076 0)
(0.1772467 -0.019837492 0)
(0.1824476 -0.021364818 0)
(0.18895515 -0.02041231 0)
(0.1951581 -0.020948053 0)
(0.2010394 -0.021824056 0)
(0.20778452 -0.020831312 0)
(0.21367274 -0.021599676 0)
(0.22026237 -0.022372028 0)
(0.22696125 -0.02169804 0)
(0.23285241 -0.021834888 0)
(0.23986866 -0.022880438 0)
(0.24669028 -0.022759983 0)
(0.2527879 -0.02255474 0)
(0.25980144 -0.022724589 0)
(0.26682298 -0.023512117 0)
(0.27347628 -0.023823542 0)
(0.28041589 -0.023340786 0)
(0.28739367 -0.023315262 0)
(0.29423265 -0.024234035 0)
(0.30174577 -0.024649799 0)
(0.30900226 -0.024245063 0)
(0.31557166 -0.024317031 0)
(0.32283748 -0.02459035 0)
(0.3306643 -0.024850578 0)
(0.33810862 -0.025303686 0)
(0.3452442 -0.025480144 0)
(0.35245442 -0.025196283 0)
(0.3599754 -0.025220565 0)
(0.36771348 -0.025579196 0)
(0.37541401 -0.025873822 0)
(0.38317913 -0.026077055 0)
(0.39073431 -0.026141091 0)
(0.39794845 -0.026320966 0)
(0.40581874 -0.026409371 0)
(0.41386584 -0.025737157 0)
(0.42153282 -0.026266102 0)
(0.4297722 -0.026882345 0)
(0.43764932 -0.027019681 0)
(0.44493214 -0.027230757 0)
(0.45310433 -0.026962701 0)
(0.46088296 -0.026303454 0)
(0.46877756 -0.026776896 0)
(0.47724588 -0.027029583 0)
(0.4853916 -0.027008329 0)
(0.49293726 -0.027743301 0)
(0.50137662 -0.027679431 0)
(0.50946678 -0.027391287 0)
(0.51713002 -0.027172533 0)
(0.52544964 -0.027120374 0)
(0.53354795 -0.027309368 0)
(0.54157299 -0.027465774 0)
(0.55003216 -0.027358653 0)
(0.55806418 -0.027573655 0)
(0.56626373 -0.02809819 0)
(0.57509479 -0.027611645 0)
(0.58288216 -0.027238963 0)
(0.590648 -0.027685428 0)
(0.59934873 -0.027603248 0)
(0.60730628 -0.027350747 0)
(0.61506889 -0.027562495 0)
(0.62352053 -0.027498602 0)
(0.63177934 -0.027361602 0)
(0.64006818 -0.027306587 0)
(0.6486051 -0.027072042 0)
(0.6567725 -0.026950043 0)
(0.66476913 -0.027433273 0)
(0.67312559 -0.027830465 0)
(0.68138599 -0.027414407 0)
(0.68909727 -0.026907868 0)
(0.69679263 -0.026877243 0)
(0.70498735 -0.02667987 0)
(0.71341183 -0.026335944 0)
(0.72150752 -0.026141814 0)
(0.72937894 -0.02621887 0)
(0.73727927 -0.026343789 0)
(0.74502161 -0.026745845 0)
(0.7529538 -0.026899212 0)
(0.76131847 -0.026410268 0)
(0.76945658 -0.02562472 0)
(0.77707709 -0.025162868 0)
(0.7847386 -0.025084998 0)
(0.79273829 -0.025324588 0)
(0.80081624 -0.02545384 0)
(0.80860305 -0.025432649 0)
(0.81602531 -0.025307856 0)
(0.82329718 -0.025297363 0)
(0.83057431 -0.025105702 -2.2571327e-34)
(0.83785298 -0.024915632 -1.2281239e-29)
(0.84524391 -0.024493779 0)
(0.8524444 -0.024007026 0)
(0.85943677 -0.023866043 0)
(0.86693253 -0.023972655 0)
(0.87505525 -0.023654589 0)
(0.88331038 -0.02298459 0)
(0.891373 -0.022263838 0)
(0.89878527 -0.02205271 0)
(0.90537855 -0.02239035 -1.8278453e-34)
(0.91158004 -0.02333466 -1.0174816e-29)
(0.91788301 -0.024330342 -1.7785209e-34)
(0.92444172 -0.024695844 -9.501465e-30)
(0.93142625 -0.023934356 0)
(0.9388211 -0.022359422 0)
(0.94619728 -0.020591009 0)
(0.95304379 -0.019293843 0)
(0.95926159 -0.019009405 0)
(0.96536824 -0.020072218 0)
(0.97188485 -0.02171025 -1.4376136e-34)
(0.97873592 -0.02272237 -7.6271929e-30)
(0.98559301 -0.022715173 0)
(0.99230469 -0.021972625 0)
(0.99879005 -0.020737674 0)
(1.0050143 -0.019369888 0)
(1.0112904 -0.01804341 0)
(1.0178236 -0.016826444 0)
(1.02462 -0.015924812 0)
(1.0314722 -0.01569923 0)
(1.0380773 -0.016553649 0)
(1.0444061 -0.018394434 0)
(1.0505161 -0.020602252 -8.7842858e-35)
(1.0562925 -0.022125426 -4.9366231e-30)
(1.0614204 -0.022041013 0)
(1.0656254 -0.019873859 0)
(1.0692741 -0.015747805 0)
(1.0728063 -0.010948962 0)
(1.0765626 -0.0072384484 0)
(1.0810024 -0.0057869452 0)
(1.086402 -0.0066196997 0)
(1.0924648 -0.0084330957 0)
(1.0987177 -0.010206578 2.2982799e-35)
(1.1047664 -0.011707586 7.1829606e-31)
(1.1098194 -0.013535128 0)
(1.113718 -0.016038825 0)
(1.1171149 -0.018311445 -2.2601963e-35)
(1.1201544 -0.019447284 -1.2832462e-30)
(1.1228764 -0.019477938 0)
(1.1255793 -0.018938874 0)
(1.1286739 -0.018878543 0)
(1.1332842 -0.019065215 0)
(1.140611 -0.019853798 5.2831329e-35)
(1.1507179 -0.022357166 3.773289e-30)
(1.162523 -0.025520743 0)
(1.1741082 -0.027507343 0)
(1.1829011 -0.0278703 0)
(1.1875945 -0.027051613 0)
(1.1892337 -0.025786075 0)
(1.1919737 -0.025071486 0)
(1.1995611 -0.025290861 0)
(1.2121593 -0.026252982 0)
(1.2289052 -0.027811528 0)
(1.2483821 -0.028783196 0)
(1.2668912 -0.032616211 0)
(1.2827309 -0.044617528 0)
(1.2983798 -0.058641355 0)
(1.3084719 -0.065839612 0)
(1.3166977 -0.067460872 0)
(1.3068433 -0.047918901 0)
(1.2705527 -0.024067787 0)
(1.2125687 -0.016509452 0)
(1.1680539 -0.018965953 0)
(1.1300043 -0.013230407 0)
(1.0443202 0.024939979 0)
(0.94966561 0.076398447 0)
(0.80920997 0.15166365 0)
(0.59467399 0.39173399 0)
(0.37684686 0.55536919 0)
(0.33362759 0.57935858 0)
(0.36896631 0.5095267 0)
(0.39983679 0.38689742 0)
(0.39569467 0.29206462 0)
(0.37487458 0.22318643 0)
(0.34773435 0.17355054 0)
(0.31978532 0.13763035 0)
(0.2933811 0.11136031 0)
(0.26938294 0.091835804 0)
(0.24793283 0.077038207 0)
(0.22886147 0.06559713 0)
(0.21190084 0.056584312 0)
(0.19677367 0.049361806 0)
(0.18322629 0.043485845 0)
(0.17103468 0.038630709 0)
(0.1600125 0.034624798 -1.3338673e-33)
(0.1500023 0.03103277 -6.7789176e-29)
(0.14085281 0.028218586 0)
(0.13246773 0.025755018 0)
(0.12476555 0.023598622 0)
(0.11764888 0.021711804 0)
(0.1110398 0.020052851 0)
(0.10488854 0.018600017 0)
(0.099164947 0.017307887 0)
(0.093805663 0.016138414 0)
(0.088763226 0.015111076 0)
(0.084021247 0.014189415 0)
(0.079552008 0.013358009 0)
(0.075326684 0.012606269 0)
(0.071321679 0.011925294 0)
(0.067517148 0.011307294 0)
(0.063895535 0.010745426 0)
(0.060440747 0.010233828 0)
(0.057139811 0.0097698643 -3.2463261e-34)
(0.053977964 0.0092914807 -1.6947265e-29)
(0.0509425 0.0089412532 0)
(0.048025654 0.0085924999 0)
(0.045217596 0.0082665838 0)
(0.042508728 0.0079670347 0)
(0.039891273 0.007692188 0)
(0.037355392 0.0074390563 0)
(0.034895107 0.0072097688 0)
(0.032506792 0.007000573 0)
(0.030183173 0.0068091082 0)
(0.027917715 0.0066313848 0)
(0.025705041 0.0064744424 0)
(0.023541026 0.0063308135 0)
(0.021420855 0.0062000078 -1.0863865e-34)
(0.019339863 0.0060661032 -5.4686064e-30)
(0.017294036 0.005978795 8.7019112e-35)
(0.015280134 0.0059050427 4.3040954e-30)
(0.013293933 0.0058117249 0)
(0.01133073 0.0057404964 0)
(0.0093883971 0.0056796074 -4.7509866e-35)
(0.007466097 0.0056135133 -2.123789e-30)
(0.0055645205 0.0055428185 -2.8646375e-35)
(0.0036954936 0.0053846801 -1.0746909e-30)
(0.0018999758 0.004943703 9.6283725e-36)