/*--------------------------------*- C++ -*----------------------------------*\
| =========                 |                                                 |
| \\      /  F ield         | OpenFOAM: The Open Source CFD Toolbox           |
|  \\    /   O peration     | Version:  2306                                  |
|   \\  /    A nd           | Website:  www.openfoam.com                      |
|    \\/     M anipulation  |                                                 |
\*---------------------------------------------------------------------------*/
FoamFile
{
    version     2.0;
    format      ascii;
    arch        "LSB;label=32;scalar=64";
    class       surfaceScalarField;
    location    "0.27";
    object      phi;
}
// * * * * * * * * * * * * * * * * * * * * * * * * * * * * * * * * * * * * * //

dimensions      [0 3 -1 0 0 0 0];

oriented        oriented;

internalField   nonuniform List<scalar> 
12640
(
1.6768278e-07
-4.914824e-07
6.6911621e-07
-1.459171e-06
1.489528e-06
-2.3147903e-06
2.6024773e-06
-2.9716384e-06
3.9681378e-06
-3.3334836e-06
5.5345891e-06
-3.3180406e-06
7.2427705e-06
-2.8588468e-06
9.0237074e-06
-1.9011767e-06
1.0810092e-05
-4.0495193e-07
1.2518215e-05
1.6634395e-06
1.4071853e-05
4.3091509e-06
1.5392199e-05
7.53184e-06
1.6402576e-05
1.131302e-05
1.7030387e-05
1.5619009e-05
1.7208979e-05
2.0401616e-05
1.6879166e-05
2.5599508e-05
1.599059e-05
3.1139462e-05
1.4502467e-05
3.6938295e-05
1.2384381e-05
4.2904073e-05
9.6171068e-06
4.893785e-05
6.1926285e-06
5.4934524e-05
2.114456e-06
6.0785461e-05
-2.5957433e-06
6.638067e-05
-7.9169919e-06
7.1609114e-05
-1.38027e-05
7.6345382e-05
-2.0195232e-05
8.0478493e-05
-2.7021647e-05
8.3896134e-05
-3.419313e-05
8.6491071e-05
-4.1604917e-05
8.8164301e-05
-4.9136692e-05
8.8828787e-05
-5.6653891e-05
8.8414027e-05
-6.4010109e-05
8.6870973e-05
-7.1050765e-05
8.4177061e-05
-7.7618084e-05
8.0340865e-05
-8.3557296e-05
7.5405762e-05
-8.8723706e-05
6.9451959e-05
-9.2990122e-05
6.2596272e-05
-9.6253932e-05
5.4989328e-05
-9.8443255e-05
4.6810567e-05
-9.9521523e-05
3.8260745e-05
-9.948987e-05
2.9552423e-05
-9.8387128e-05
2.089943e-05
-9.628737e-05
1.2506264e-05
-9.329835e-05
4.5613364e-06
-8.9537315e-05
-2.7910712e-06
-8.5161145e-05
-9.4075634e-06
-8.0320298e-05
-1.5207066e-05
-7.5170335e-05
-2.0138322e-05
-6.9860817e-05
-2.4186078e-05
-6.4529709e-05
-2.7367747e-05
-5.9298778e-05
-2.9728919e-05
-5.4270376e-05
-3.1337859e-05
-4.9525605e-05
-3.227952e-05
-4.5123622e-05
-3.2649692e-05
-4.1102127e-05
-3.2549408e-05
-3.7478923e-05
-3.2079494e-05
-3.4254279e-05
-3.1335913e-05
-3.1413885e-05
-3.0406032e-05
-2.893214e-05
-2.9365906e-05
-2.6775556e-05
-2.8278618e-05
-2.4906033e-05
-2.7193656e-05
-2.3283793e-05
-2.6147241e-05
-2.1869811e-05
-2.5163467e-05
-2.0627791e-05
-2.4255847e-05
-1.952553e-05
-2.3429269e-05
-1.8535637e-05
-2.2682157e-05
-1.7635744e-05
-2.2008551e-05
-1.6808292e-05
-2.1399957e-05
-1.6040022e-05
-2.0846864e-05
-1.5321289e-05
-2.033989e-05
-1.4645305e-05
-1.9870546e-05
-1.40074e-05
-1.9431672e-05
-1.3404364e-05
-1.9017575e-05
-1.2833914e-05
-1.8623986e-05
-1.2294288e-05
-1.8247862e-05
-1.1783969e-05
-1.7887146e-05
-1.1301513e-05
-1.7540501e-05
-1.0845469e-05
-1.7207076e-05
-1.0414352e-05
-1.6886307e-05
-1.6577779e-05
1.9838452e-07
-6.8986692e-07
7.9165376e-07
-2.0524403e-06
1.7619102e-06
-3.2850467e-06
3.0779946e-06
-4.2877228e-06
4.6928517e-06
-4.9483406e-06
6.5473875e-06
-5.1725764e-06
8.5727435e-06
-4.8842028e-06
1.0691535e-05
-4.0199683e-06
1.2819537e-05
-2.5329535e-06
1.4872858e-05
-3.8988172e-07
1.675546e-05
2.4265484e-06
1.8378845e-05
5.908455e-06
1.9654864e-05
1.0037001e-05
2.0500436e-05
1.4773437e-05
2.083948e-05
2.0062571e-05
2.0604715e-05
2.5834273e-05
1.9738911e-05
3.2005267e-05
1.8195908e-05
3.8481298e-05
1.5941382e-05
4.51586e-05
1.295302e-05
5.1926211e-05
9.2206457e-06
5.8666899e-05
4.7470964e-06
6.525901e-05
-4.474644e-07
7.1575231e-05
-6.3388961e-06
7.7500546e-05
-1.2880042e-05
8.2886528e-05
-2.0009211e-05
8.7607662e-05
-2.7647298e-05
9.1534221e-05
-3.5696659e-05
9.4540432e-05
-4.4040363e-05
9.6508005e-05
-5.254212e-05
9.7330545e-05
-6.1047253e-05
9.6919159e-05
-6.9385098e-05
9.5208818e-05
-7.7373086e-05
9.2165049e-05
-8.4822656e-05
8.7790435e-05
-9.1546931e-05
8.2130038e-05
-9.7369777e-05
7.5274805e-05
-0.00010213553
6.7362023e-05
-0.00010571842
5.8572216e-05
-0.0001080308
4.9122952e-05
-0.00010902938
3.9259324e-05
-0.00010871842
2.9241461e-05
-0.00010714975
1.9330767e-05
-0.00010441933
9.7758418e-06
-0.0001006613
8.0330625e-07
-9.6030296e-05
-7.4220779e-06
-9.0716903e-05
-1.4720956e-05
-8.4910094e-05
-2.1013876e-05
-7.8799383e-05
-2.6249033e-05
-7.2565281e-05
-3.042018e-05
-6.6371938e-05
-3.356109e-05
-6.036171e-05
-3.5739147e-05
-5.4651582e-05
-3.7047988e-05
-4.9331321e-05
-3.7599781e-05
-4.4463e-05
-3.7518012e-05
-4.0082115e-05
-3.6930293e-05
-3.6199887e-05
-3.5961722e-05
-3.2806573e-05
-3.4729227e-05
-2.9875427e-05
-3.3337177e-05
-2.7367029e-05
-3.1874303e-05
-2.5233671e-05
-3.0411976e-05
-2.3423499e-05
-2.9003828e-05
-2.1884096e-05
-2.7686645e-05
-2.0565555e-05
-2.6482007e-05
-1.9422844e-05
-2.5398559e-05
-1.8417226e-05
-2.4434887e-05
-1.75169e-05
-2.3582482e-05
-1.6696969e-05
-2.2828483e-05
-1.5938891e-05
-2.2158035e-05
-1.5229598e-05
-2.1556158e-05
-1.4560416e-05
-2.1009072e-05
-1.3925969e-05
-2.0504994e-05
-1.3323148e-05
-2.0034493e-05
-1.2750246e-05
-1.9590478e-05
-1.2206287e-05
-1.9167944e-05
-1.1690559e-05
-1.876359e-05
-1.1202322e-05
-1.8375383e-05
-1.0740666e-05
-1.8002158e-05
-1.0304469e-05
-1.7643273e-05
-9.8924258e-06
-1.729835e-05
-1.6967096e-05
2.3449384e-07
-9.2436076e-07
9.3566167e-07
-2.7536081e-06
2.0811545e-06
-4.4305395e-06
3.6340272e-06
-5.8405956e-06
5.5380316e-06
-6.852345e-06
7.7252875e-06
-7.3598323e-06
1.0116523e-05
-7.275438e-06
1.2623946e-05
-6.5273921e-06
1.5151349e-05
-5.0603556e-06
1.7598667e-05
-2.8371999e-06
1.986297e-05
1.622448e-07
2.1837508e-05
3.9339169e-06
2.3421634e-05
8.4528759e-06
2.4520324e-05
1.3674747e-05
2.5046962e-05
1.9535933e-05
2.4925283e-05
2.5955952e-05
2.4090873e-05
3.2839677e-05
2.2492008e-05
4.0080162e-05
2.0089919e-05
4.756069e-05
1.685928e-05
5.515685e-05
1.2787719e-05
6.273846e-05
7.8766283e-06
7.01701e-05
2.1416449e-06
7.7310214e-05
-4.3795637e-06
8.4021754e-05
-1.165286e-05
9.0159824e-05
-1.9608507e-05
9.5563309e-05
-2.8162115e-05
0.00010008783
-3.7207729e-05
0.00010358605
-4.6615962e-05
0.00010591624
-5.6233287e-05
0.00010694787
-6.5882408e-05
0.00010656828
-7.5364437e-05
0.00010469085
-8.4463296e-05
0.00010126391
-9.2952654e-05
9.6279792e-05
-0.00010060543
8.9782809e-05
-0.00010720543
8.1874809e-05
-0.00011256025
7.2716843e-05
-0.00011651394
6.2525906e-05
-0.0001189582
5.1567214e-05
-0.00011984087
4.0141994e-05
-0.00011917048
2.857107e-05
-0.00011701628
1.7176572e-05
-0.00011350915
6.2687086e-06
-0.00010878948
-3.9163687e-06
-0.00010309931
-1.311224e-05
-9.6652596e-05
-2.1167674e-05
-8.9686813e-05
-2.7979658e-05
-8.2434701e-05
-3.3501145e-05
-7.5114496e-05
-3.7740385e-05
-6.7921432e-05
-4.0754153e-05
-6.1021556e-05
-4.2639024e-05
-5.4547893e-05
-4.3521651e-05
-4.8598661e-05
-4.3549013e-05
-4.3237286e-05
-4.2879387e-05
-3.8494367e-05
-4.1673212e-05
-3.4370968e-05
-4.0085122e-05
-3.0843203e-05
-3.8256992e-05
-2.7867504e-05
-3.6312877e-05
-2.5386261e-05
-3.4355546e-05
-2.3333447e-05
-3.246479e-05
-2.1639742e-05
-3.0697533e-05
-2.0237039e-05
-2.9089348e-05
-1.9062391e-05
-2.7656656e-05
-1.8060662e-05
-2.6400287e-05
-1.7186001e-05
-2.5309548e-05
-1.6402269e-05
-2.4366214e-05
-1.5682622e-05
-2.354813e-05
-1.5008462e-05
-2.2832195e-05
-1.4368023e-05
-2.2196596e-05
-1.3754775e-05
-2.1622319e-05
-1.3165823e-05
-2.1093946e-05
-1.2600519e-05
-2.0599797e-05
-1.2059352e-05
-2.0131645e-05
-1.1543146e-05
-1.968415e-05
-1.1052548e-05
-1.9254189e-05
-1.0587753e-05
-1.8840178e-05
-1.0148432e-05
-1.8441479e-05
-9.7337703e-06
-1.8057934e-05
-9.3425865e-06
-1.7689534e-05
-1.7336218e-05
2.7730521e-07
-1.201666e-06
1.1062291e-06
-3.582532e-06
2.4573105e-06
-5.7816209e-06
4.2866387e-06
-7.6699238e-06
6.525549e-06
-9.0912553e-06
9.0963389e-06
-9.9306221e-06
1.190917e-05
-1.0088269e-05
1.4863783e-05
-9.4820052e-06
1.7851308e-05
-8.0478804e-06
2.0756126e-05
-5.7420183e-06
2.3459827e-05
-2.5414559e-06
2.5840127e-05
1.5536168e-06
2.7780569e-05
6.5124337e-06
2.917221e-05
1.2283106e-05
2.9916572e-05
1.8791571e-05
2.9927676e-05
2.5944847e-05
2.913341e-05
3.3633943e-05
2.7476332e-05
4.173724e-05
2.4913797e-05
5.0123224e-05
2.1417365e-05
5.8653282e-05
1.6972841e-05
6.7182984e-05
1.158112e-05
7.5561821e-05
5.2553786e-06
8.3635955e-05
-1.9689826e-06
9.1246115e-05
-1.0059779e-05
9.8250621e-05
-1.8939599e-05
0.00010444313
-2.8523073e-05
0.0001096713
-3.8697239e-05
0.00011376021
-4.932058e-05
0.00011653958
-6.0221459e-05
0.00011784875
-7.1197515e-05
0.00011754434
-8.2017237e-05
0.00011551057
-9.2424472e-05
0.00011167114
-0.00010214641
0.00010600173
-0.00011090531
9.8541708e-05
-0.00011843353
8.9403024e-05
-0.00012449069
7.8774008e-05
-0.00012888106
6.6916276e-05
-0.00013146887
5.4155021e-05
-0.00013219018
4.0863305e-05
-0.00013105876
2.7439645e-05
-0.00012816608
1.42839e-05
-0.00012367642
1.7790493e-06
-0.00011779134
-9.8014563e-06
-0.00011079594
-2.0107638e-05
-0.00010297165
-2.899196e-05
-9.4611662e-05
-3.6339649e-05
-8.6001297e-05
-4.211151e-05
-7.74043e-05
-4.6337382e-05
-6.9052548e-05
-4.9105905e-05
-6.1139059e-05
-5.0552513e-05
-5.3814059e-05
-5.0846651e-05
-4.7183353e-05
-5.0179719e-05
-4.1309233e-05
-4.8753506e-05
-3.6213624e-05
-4.6768822e-05
-3.1882575e-05
-4.441617e-05
-2.8272635e-05
-4.1866932e-05
-2.5317749e-05
-3.9267763e-05
-2.2936579e-05
-3.6736716e-05
-2.1039593e-05
-3.4361776e-05
-1.9535324e-05
-3.2201802e-05
-1.8336401e-05
-3.028827e-05
-1.7364322e-05
-2.8628736e-05
-1.655246e-05
-2.7212149e-05
-1.5847465e-05
-2.6014543e-05
-1.5209293e-05
-2.5004387e-05
-1.4610194e-05
-2.4147229e-05
-1.4033046e-05
-2.3409342e-05
-1.3469113e-05
-2.276053e-05
-1.291562e-05
-2.2175812e-05
-1.2373575e-05
-2.1635992e-05
-1.1845931e-05
-2.1127441e-05
-1.1336215e-05
-2.0641361e-05
-1.0847593e-05
-2.0172772e-05
-1.0382355e-05
-1.9719426e-05
-9.9417303e-06
-1.9280802e-05
-9.5259303e-06
-1.8857279e-05
-9.1343404e-06
-1.8449524e-05
-8.7657652e-06
-1.8058109e-05
-1.7683309e-05
3.2864952e-07
-1.5303155e-06
1.3104215e-06
-4.5643039e-06
2.9035854e-06
-7.3747849e-06
5.0566904e-06
-9.8230287e-06
7.6826587e-06
-1.1717224e-05
1.0694655e-05
-1.2942618e-05
1.3991302e-05
-1.3384917e-05
1.7459954e-05
-1.2950656e-05
2.0977488e-05
-1.1565415e-05
2.4410182e-05
-9.1747124e-06
2.7619205e-05
-5.7504784e-06
3.0469973e-05
-1.297152e-06
3.2821314e-05
4.1610934e-06
3.4550653e-05
1.0553767e-05
3.5545853e-05
1.7796371e-05
3.5710489e-05
2.5780211e-05
3.4964751e-05
3.4379682e-05
3.3245849e-05
4.3456142e-05
3.0507437e-05
5.2861637e-05
2.671889e-05
6.2441829e-05
2.1864691e-05
7.2037183e-05
1.5941381e-05
8.1485131e-05
8.9610679e-06
9.0616269e-05
9.5026449e-07
9.9256919e-05
-8.0308201e-06
0.00010723171
-1.7936952e-05
0.00011434926
-2.8674425e-05
0.00012040877
-4.0123612e-05
0.0001252094
-5.2131995e-05
0.00012854796
-6.450965e-05
0.0001302264
-7.7027031e-05
0.00013006172
-8.94153e-05
0.00012789884
-0.00010137052
0.00012362637
-0.00011256261
0.00011719382
-0.00012264959
0.00010862869
-0.00013129709
9.8050526e-05
-0.00013820143
8.5678349e-05
-0.00014311359
7.1828431e-05
-0.00014586072
5.6902152e-05
-0.00014636308
4.1365664e-05
-0.00014464353
2.5720092e-05
-0.00014083053
1.0470902e-05
-0.0001350876
-3.9638738e-06
-0.00012776136
-1.7127695e-05
-0.00011916579
-2.8703215e-05
-0.00010966435
-3.8493393e-05
-9.9623795e-05
-4.6380208e-05
-8.9394865e-05
-5.234044e-05
-7.9296249e-05
-5.6435998e-05
-6.9602727e-05
-5.8799428e-05
-6.0537586e-05
-5.9617654e-05
-5.2268876e-05
-5.9115361e-05
-4.4908186e-05
-5.7540409e-05
-3.8512902e-05
-5.514879e-05
-3.3091099e-05
-5.2190625e-05
-2.8607253e-05
-4.8900017e-05
-2.4991277e-05
-4.5482908e-05
-2.2147377e-05
-4.2111663e-05
-1.9963489e-05
-3.8920603e-05
-1.8319906e-05
-3.600536e-05
-1.7097395e-05
-3.3424313e-05
-1.6184957e-05
-3.1200709e-05
-1.5485694e-05
-2.9327999e-05
-1.4920142e-05
-2.77777e-05
-1.4427365e-05
-2.650732e-05
-1.3964356e-05
-2.5467395e-05
-1.3504429e-05
-2.4607157e-05
-1.3034327e-05
-2.3879444e-05
-1.255071e-05
-2.3244147e-05
-1.2056781e-05
-2.266974e-05
-1.155932e-05
-2.2133453e-05
-1.1066321e-05
-2.162044e-05
-1.0585315e-05
-2.1122367e-05
-1.0122363e-05
-2.0635723e-05
-9.6816131e-06
-2.0160177e-05
-9.2652857e-06
-1.969713e-05
-8.8739511e-06
-1.9248613e-05
-8.5069473e-06
-1.8816528e-05
-8.1628215e-06
-1.8402235e-05
-1.8006411e-05
3.9134117e-07
-1.9216567e-06
1.5591587e-06
-5.7321215e-06
3.4386803e-06
-9.2543064e-06
5.9727144e-06
-1.2357063e-05
9.0439229e-06
-1.4788432e-05
1.2560484e-05
-1.6459179e-05
1.641008e-05
-1.7234513e-05
2.0467717e-05
-1.7008294e-05
2.4594601e-05
-1.5692298e-05
2.8636919e-05
-1.321703e-05
3.2433478e-05
-9.5470383e-06
3.5822589e-05
-4.6862623e-06
3.864788e-05
1.335802e-06
4.0764951e-05
8.4366959e-06
4.2046789e-05
1.6514533e-05
4.2386081e-05
2.5440919e-05
4.1695647e-05
3.5070116e-05
3.9908287e-05
4.5243501e-05
3.6975356e-05
5.5794569e-05
3.286497e-05
6.6552214e-05
2.7559936e-05
7.7342217e-05
2.1057367e-05
8.79877e-05
1.3365268e-05
9.8308368e-05
4.5077141e-06
0.00010811447
-5.4702753e-06
0.00011720969
-1.6517871e-05
0.00012539686
-2.8543786e-05
0.00013243469
-4.1428472e-05
0.00013809408
-5.501206e-05
0.00014213155
-6.9087695e-05
0.00014430204
-8.3397289e-05
0.00014437131
-9.7629946e-05
0.0001421315
-0.0001114251
0.00013742152
-0.00012438203
0.00013015075
-0.00013607699
0.00012032365
-0.00014608833
0.00010806187
-0.00015402779
9.3617808e-05
-0.00015957409
7.7374729e-05
-0.00016250345
5.9831511e-05
-0.00016271336
4.157557e-05
-0.00016023446
2.3241195e-05
-0.00015523881
5.4752555e-06
-0.00014796255
-1.1240142e-05
-0.00013882617
-2.6264074e-05
-0.00012825354
-3.927584e-05
-0.00011670287
-5.0044063e-05
-0.000104632
-5.8451076e-05
-9.2471984e-05
-6.450046e-05
-8.0607283e-05
-6.8300699e-05
-6.9362311e-05
-7.0044399e-05
-5.8993629e-05
-6.9986336e-05
-4.9686797e-05
-6.8422192e-05
-4.1556043e-05
-6.5671164e-05
-3.4648244e-05
-6.2056589e-05
-2.8950788e-05
-5.788808e-05
-2.4397701e-05
-5.3453104e-05
-2.0883141e-05
-4.8997469e-05
-1.8272319e-05
-4.4722485e-05
-1.6413522e-05
-4.07794e-05
-1.514853e-05
-3.7270351e-05
-1.432355e-05
-3.4249293e-05
-1.3798611e-05
-3.1725648e-05
-1.3455232e-05
-2.9671378e-05
-1.3199886e-05
-2.8033046e-05
-1.2964396e-05
-2.6742809e-05
-1.2704916e-05
-2.5726875e-05
-1.2398946e-05
-2.4913128e-05
-1.2040451e-05
-2.4237939e-05
-1.1634864e-05
-2.3649733e-05
-1.1194376e-05
-2.3110228e-05
-1.0733967e-05
-2.2593862e-05
-1.0268416e-05
-2.2085992e-05
-9.8103424e-06
-2.1580441e-05
-9.3691826e-06
-2.1076883e-05
-8.9509668e-06
-2.0578392e-05
-8.5586407e-06
-2.0089456e-05
-8.192716e-06
-1.9614538e-05
-7.852039e-06
-1.9157205e-05
-7.5345042e-06
-1.8719769e-05
-1.8303285e-05
4.6981734e-07
-2.391474e-06
1.8704301e-06
-7.1327343e-06
4.0892604e-06
-1.1473137e-05
7.0742914e-06
-1.5342094e-05
1.0653818e-05
-1.8367959e-05
1.4743194e-05
-2.0548555e-05
1.9220127e-05
-2.1711445e-05
2.3950096e-05
-2.1738263e-05
2.8778017e-05
-2.0520219e-05
3.352461e-05
-1.7963623e-05
3.7999909e-05
-1.4022338e-05
4.2010755e-05
-8.6971077e-06
4.5382834e-05
-2.036277e-06
4.7942158e-05
5.8773711e-06
4.9548347e-05
1.4908345e-05
5.0082381e-05
2.4906885e-05
4.945081e-05
3.5701687e-05
4.7583659e-05
4.7110652e-05
4.4432081e-05
5.8946147e-05
3.9964941e-05
7.1019353e-05
3.4165435e-05
8.3141724e-05
2.7028525e-05
9.5124611e-05
1.8560434e-05
0.00010677646
8.7785174e-06
0.00011789639
-2.283873e-06
0.00012827209
-1.4585769e-05
0.00013769875
-2.8039119e-05
0.00014588804
-4.2531355e-05
0.00015258632
-5.7900236e-05
0.00015750043
-7.3925299e-05
0.0001603271
-9.0319902e-05
0.00016076591
-0.00010672681
0.0001585384
-0.00012271897
0.00015341368
-0.00013780876
0.00014524054
-0.00015146795
0.00013398283
-0.0001631597
0.00011975362
-0.00017238136
0.00010283947
-0.0001787121
8.3705469e-05
-0.0001818575
6.2976908e-05
-0.00018168563
4.1403702e-05
-0.00017824888
1.980445e-05
-0.00017171775
-1.0558748e-06
-0.00016250678
-2.0451112e-05
-0.00015111268
-3.7658177e-05
-0.00013809237
-5.2296154e-05
-0.0001240312
-6.4105233e-05
-0.00010950283
-7.2979441e-05
-9.5037009e-05
-7.8966284e-05
-8.1096333e-05
-8.2241376e-05
-6.8061699e-05
-8.3079033e-05
-5.6225081e-05
-8.1822954e-05
-4.5787782e-05
-7.885949e-05
-3.6861689e-05
-7.4597257e-05
-2.9475001e-05
-6.9443277e-05
-2.3585543e-05
-6.3777538e-05
-1.9085072e-05
-5.7953575e-05
-1.5820229e-05
-5.2262312e-05
-1.360544e-05
-4.6937274e-05
-1.2237834e-05
-4.2147006e-05
-1.1510525e-05
-3.799766e-05
-1.1227059e-05
-3.4532759e-05
-1.1211858e-05
-3.1740849e-05
-1.1321254e-05
-2.9561982e-05
-1.144661e-05
-2.790769e-05
-1.151392e-05
-2.6675499e-05
-1.1482273e-05
-2.5758522e-05
-1.1337815e-05
-2.5057586e-05
-1.1086649e-05
-2.4489105e-05
-1.0747667e-05
-2.3988715e-05
-1.0346071e-05
-2.3511825e-05
-9.9081541e-06
-2.3031778e-05
-9.4575792e-06
-2.2536567e-05
-9.0131205e-06
-2.2024899e-05
-8.5878593e-06
-2.1502144e-05
-8.1894036e-06
-2.0976848e-05
-7.8207686e-06
-2.0458091e-05
-7.4816423e-06
-1.9953664e-05
-7.1696568e-06
-1.946919e-05
-6.8814667e-06
-1.900796e-05
-1.8571204e-05
5.7147242e-07
-2.9629464e-06
2.2733869e-06
-8.8346487e-06
4.8942332e-06
-1.4093983e-05
8.4173829e-06
-1.8865244e-05
1.256875e-05
-2.2519326e-05
1.730084e-05
-2.5280645e-05
2.2482927e-05
-2.6893532e-05
2.7978394e-05
-2.7233729e-05
3.3613406e-05
-2.6155231e-05
3.9176181e-05
-2.3526398e-05
4.4439074e-05
-1.9285231e-05
4.9174727e-05
-1.343276e-05
5.3168651e-05
-6.0302012e-06
5.6230671e-05
2.815351e-06
5.8199647e-05
1.2939368e-05
5.8945366e-05
2.4161166e-05
5.8370064e-05
3.6276989e-05
5.6404283e-05
4.9076433e-05
5.3002299e-05
6.2348131e-05
4.8136963e-05
7.588469e-05
4.1794e-05
8.9484686e-05
3.3967907e-05
0.0001029507
2.4659997e-05
0.00011608437
1.3876324e-05
0.00012868006
1.631733e-06
0.00014051668
-1.2023013e-05
0.0001513535
-2.704243e-05
0.00016090746
-4.3322321e-05
0.00016886621
-6.0704836e-05
0.00017488295
-7.8962257e-05
0.00017858452
-9.7782009e-05
0.00017958567
-0.00011675746
0.00017751386
-0.0001353847
0.00017204092
-0.00015306977
0.0001629256
-0.00016915071
0.00015006377
-0.00018293781
0.00013354073
-0.0001937718
0.00011367345
-0.00020109238
9.1026053e-05
-0.00020450412
6.6388649e-05
-0.00020382953
4.0729116e-05
-0.0001991494
1.5124313e-05
-0.00019067478
-9.5304912e-06
-0.00017899884
-3.2127053e-05
-0.00016476398
-5.1893039e-05
-0.00014869874
-6.8361391e-05
-0.00013155251
-8.1251461e-05
-0.00011404454
-9.048741e-05
-9.6824718e-05
-9.6186108e-05
-8.0447084e-05
-9.861901e-05
-6.5355257e-05
-9.817086e-05
-5.1877028e-05
-9.5301183e-05
-4.0225203e-05
-9.0511316e-05
-3.0502198e-05
-8.4320262e-05
-2.2706055e-05
-7.723942e-05
-1.6753275e-05
-6.9730318e-05
-1.2478259e-05
-6.2228591e-05
-9.6645663e-06
-5.5076004e-05
-8.0607892e-06
-4.8541051e-05
-7.3982763e-06
-4.2809519e-05
-7.408621e-06
-3.7987315e-05
-7.8439622e-06
-3.4097418e-05
-8.485018e-06
-3.1099793e-05
-9.1584324e-06
-2.8888568e-05
-9.739742e-06
-2.7326381e-05
-1.0152684e-05
-2.6262558e-05
-1.036466e-05
-2.5546546e-05
-1.0377202e-05
-2.5045044e-05
-1.0215551e-05
-2.4650756e-05
-9.918495e-06
-2.4285771e-05
-9.5296282e-06
-2.3900691e-05
-9.0905462e-06
-2.347086e-05
-8.6360734e-06
-2.2991039e-05
-8.1920591e-06
-2.2468913e-05
-7.7750885e-06
-2.1919115e-05
-7.3934276e-06
-2.1358509e-05
-7.0489159e-06
-2.0802603e-05
-6.7391453e-06
-2.0263435e-05
-6.4594367e-06
-1.9748899e-05
-6.2043828e-06
-1.9263013e-05
-1.8806694e-05
7.1009765e-07
-3.6730441e-06
2.8157287e-06
-1.094028e-05
5.9130004e-06
-1.7191255e-05
1.0081961e-05
-2.3034205e-05
1.4860518e-05
-2.7297883e-05
2.0298958e-05
-3.0719085e-05
2.6262861e-05
-3.2857434e-05
3.2629387e-05
-3.3600255e-05
3.9200153e-05
-3.2725998e-05
4.5714205e-05
-3.0040449e-05
5.18948e-05
-2.5465826e-05
5.7467302e-05
-1.9005262e-05
6.217712e-05
-1.074002e-05
6.580615e-05
-8.1367811e-07
6.8174802e-05
1.0570716e-05
6.9142273e-05
2.3193695e-05
6.8610437e-05
3.6808825e-05
6.6515254e-05
5.1171616e-05
6.2819577e-05
6.6043808e-05
5.7505066e-05
8.1199201e-05
5.0563862e-05
9.6425891e-05
4.1992122e-05
0.00011152244
3.1784748e-05
0.00012629174
1.9936904e-05
0.00014052791
6.4463488e-06
0.00015400723
-8.6760914e-06
0.00016647594
-2.5401545e-05
0.00017763291
-4.3652627e-05
0.00018711729
-6.3291524e-05
0.00019452184
-8.4095119e-05
0.00019938812
-0.0001057323
0.00020122284
-0.00012774663
0.0001995282
-0.00014954748
0.00019384177
-0.00017041209
0.00018379021
-0.00018950771
0.0001691594
-0.00020594047
0.00014997349
-0.00021883421
0.00012656718
-0.00022743004
9.9621884e-05
-0.00023118458
7.0143188e-05
-0.00022985123
3.9395766e-05
-0.00022355984
8.8329246e-06
-0.00021258954
-2.0500794e-05
-0.00019775504
-4.6961547e-05
-0.00017992641
-6.9721677e-05
-0.00016005737
-8.823043e-05
-0.00013910959
-0.00010219924
-0.00011798475
-0.00011161225
-9.747729e-05
-0.00011669356
-7.82459e-05
-0.0001178504
-6.0801295e-05
-0.00011561546
-4.5504631e-05
-0.00011059785
-3.257215e-05
-0.0001034438
-2.2086172e-05
-9.4806239e-05
-1.399997e-05
-8.5325622e-05
-8.1749813e-06
-7.5555306e-05
-4.3697249e-06
-6.6033848e-05
-2.2802005e-06
-5.7165528e-05
-1.5684493e-06
-4.9252802e-05
-1.8807499e-06
-4.2497218e-05
-2.8744527e-06
-3.6993612e-05
-4.2426608e-06
-3.272921e-05
-5.7138845e-06
-2.9628569e-05
-7.0766095e-06
-2.7525843e-05
-8.1911576e-06
-2.6211832e-05
-8.9845643e-06
-2.5469151e-05
-9.4408706e-06
-2.5090239e-05
-9.5868968e-06
-2.4899017e-05
-9.4768662e-06
-2.4760787e-05
-9.1783158e-06
-2.4584321e-05
-8.7605473e-06
-2.431846e-05
-8.28515e-06
-2.3946258e-05
-7.8005006e-06
-2.3475689e-05
-7.3400714e-06
-2.2929343e-05
-6.9229265e-06
-2.233626e-05
-6.556109e-06
-2.1725326e-05
-6.2381512e-06
-2.1120561e-05
-5.9625653e-06
-2.0539021e-05
-5.7207757e-06
-1.9990689e-05
-5.5042319e-06
-1.9479557e-05
-1.9005255e-05
9.1650535e-07
-4.5895494e-06
3.5944157e-06
-1.361819e-05
7.2425595e-06
-2.0839398e-05
1.2181479e-05
-2.7973124e-05
1.7612997e-05
-3.2729402e-05
2.379862e-05
-3.6904708e-05
3.0615467e-05
-3.9674281e-05
3.7980884e-05
-4.0965673e-05
4.565119e-05
-4.0396303e-05
5.3289028e-05
-3.7678288e-05
6.0546765e-05
-3.2723563e-05
6.7090979e-05
-2.5549476e-05
7.2620848e-05
-1.6269889e-05
7.6883999e-05
-5.0768291e-06
7.9680397e-05
7.774317e-06
8.0866607e-05
2.2007485e-05
8.0348756e-05
3.7326676e-05
7.8075408e-05
5.3444965e-05
7.4025742e-05
7.0093474e-05
6.8197606e-05
8.7027337e-05
6.059539e-05
0.00010402811
5.1219475e-05
0.00012089836
4.0059972e-05
0.00013745125
2.7092622e-05
0.00015349526
1.2288783e-05
0.00016881107
-4.3759961e-06
0.00018314072
-2.2928155e-05
0.00019618507
-4.3324726e-05
0.00020751386
-6.5468745e-05
0.00021666586
-8.915958e-05
0.00022307895
-0.00011406155
0.00022612482
-0.00013967361
0.00022514025
-0.0001653106
0.00021947876
-0.00019009634
0.00020857595
-0.0002129811
0.00019204416
-0.00023279773
0.00016979012
-0.00024836708
0.00014213653
-0.00025864434
0.00010989915
-0.00026287076
7.4369606e-05
-0.00026069433
3.7219332e-05
-0.00025225579
3.9438911e-07
-0.00023803851
-3.4718072e-05
-0.00021914074
-6.5859314e-05
-0.00019674095
-9.2121467e-05
-0.00017210023
-0.00011287115
-0.00014645687
-0.0001278426
-0.00012093962
-0.0001371295
-9.6513827e-05
-0.00014111936
-7.3953772e-05
-0.00014041046
-5.3837356e-05
-0.00013573188
-3.65519e-05
-0.0001278833
-2.230463e-05
-0.00011769107
-1.1142956e-05
-0.00010596791
-2.9681487e-06
-9.350043e-05
2.4882003e-06
-8.1011655e-05
5.5334499e-06
-6.9079097e-05
6.5608205e-06
-5.8192899e-05
6.014425e-06
-4.8706407e-05
4.3559044e-06
-4.0838698e-05
2.0324859e-06
-3.4670194e-05
-5.3837483e-07
-3.0158349e-05
-3.0421722e-06
-2.7124772e-05
-5.2326496e-06
-2.5335365e-05
-6.9550377e-06
-2.4489444e-05
-8.1477548e-06
-2.4276434e-05
-8.8243609e-06
-2.4413633e-05
-9.05141e-06
-2.4671968e-05
-8.9259215e-06
-2.4886275e-05
-8.5567324e-06
-2.495351e-05
-8.0481586e-06
-2.4827034e-05
-7.4872668e-06
-2.4507149e-05
-6.9382543e-06
-2.4024701e-05
-6.4418373e-06
-2.342576e-05
-6.0169419e-06
-2.2761155e-05
-5.6660795e-06
-2.2076189e-05
-5.3810597e-06
-2.140558e-05
-5.148349e-06
-2.0771732e-05
-4.9532861e-06
-2.0185752e-05
-4.7828467e-06
-1.9649997e-05
-1.9161115e-05
1.2693904e-06
-5.8589398e-06
4.818032e-06
-1.7166832e-05
9.05438e-06
-2.5075746e-05
1.486944e-05
-3.3788184e-05
2.0895985e-05
-3.8755947e-05
2.7817175e-05
-4.3825897e-05
3.5551697e-05
-4.7408804e-05
4.4092054e-05
-4.9506029e-05
5.3095241e-05
-4.9399491e-05
6.2091451e-05
-4.6674498e-05
7.0630917e-05
-4.1263029e-05
7.8307178e-05
-3.3225736e-05
8.4768257e-05
-2.2730968e-05
8.9727517e-05
-1.0036089e-05
9.296678e-05
4.5350544e-06
9.4347798e-05
2.0626467e-05
9.3788619e-05
3.7885855e-05
9.1260894e-05
5.5972689e-05
8.6771622e-05
7.4582746e-05
8.0345815e-05
9.3453144e-05
7.2008914e-05
0.00011236501
6.1770804e-05
0.00013113647
4.9615575e-05
0.00014960648
3.5497862e-05
0.00016761297
1.9344968e-05
0.00018496396
1.0715393e-06
0.00020141415
-1.9385784e-05
0.00021664239
-4.2076829e-05
0.00023020491
-6.6968048e-05
0.00024155708
-9.3906504e-05
0.00025001741
-0.00012257534
0.00025479365
-0.00015244431
0.00025500922
-0.00018273161
0.00024976607
-0.00021238344
0.00023822778
-0.00024007769
0.00021973841
-0.00026428161
0.00019399403
-0.0002833876
0.00016124253
-0.00029592923
0.00012244077
-0.00030082584
7.9266222e-05
-0.00029760385
3.3997336e-05
-0.00028620023
-1.1009227e-05
-0.00026775928
-5.3159022e-05
-0.00024358353
-9.0035066e-05
-0.00021532689
-0.0001203781
-0.00018467379
-0.00014352425
-0.00015321973
-0.00015929666
-0.0001223714
-0.00016797783
-9.3290144e-05
-0.00017020062
-6.6870926e-05
-0.00016682967
-4.3750363e-05
-0.00015885244
-2.4327038e-05
-0.00014730663
-8.7912859e-06
-0.00013322682
2.9187578e-06
-0.00011767796
1.0980996e-05
-0.00010156267
1.5701626e-05
-8.5732285e-05
1.7531739e-05
-7.090921e-05
1.7010706e-05
-5.7671866e-05
1.4726264e-05
-4.6421965e-05
1.1278617e-05
-3.7391051e-05
7.2406341e-06
-3.0632211e-05
3.1157219e-06
-2.6033437e-05
-6.7539654e-07
-2.3333653e-05
-3.8463118e-06
-2.216445e-05
-6.2410136e-06
-2.2094742e-05
-7.8236764e-06
-2.2693771e-05
-8.6575857e-06
-2.3579724e-05
-8.8700137e-06
-2.445954e-05
-8.6205722e-06
-2.5135717e-05
-8.076789e-06
-2.5497293e-05
-7.3895528e-06
-2.551427e-05
-6.6776605e-06
-2.5219042e-05
-6.0227848e-06
-2.4679577e-05
-5.4703005e-06
-2.3978244e-05
-5.0340712e-06
-2.3197385e-05
-4.7066121e-06
-2.2403648e-05
-4.4677783e-06
-2.1644414e-05
-4.2926822e-06
-2.0946828e-05
-4.1577019e-06
-2.0320732e-05
-4.043841e-06
-1.9763858e-05
-1.9267142e-05
1.9449174e-06
-7.8038572e-06
6.9169581e-06
-2.2138873e-05
1.1624173e-05
-2.9782961e-05
1.8283415e-05
-4.0447426e-05
2.4659868e-05
-4.51324e-05
3.2216471e-05
-5.1382501e-05
4.0942689e-05
-5.6135021e-05
5.0944931e-05
-5.9508272e-05
6.1657044e-05
-6.0111603e-05
7.2368189e-05
-5.7385643e-05
8.247226e-05
-5.13671e-05
9.1475528e-05
-4.2229004e-05
9.8984858e-05
-3.0240298e-05
0.00010469005
-1.5741285e-05
0.0001083591
8.6600977e-07
0.00010987668
1.9108887e-05
0.0001091803
3.8582236e-05
0.00010628047
5.8872519e-05
0.0001012286
7.9634615e-05
9.4092305e-05
0.00010058944
8.4930313e-05
0.000121527
7.3769972e-05
0.00014229681
6.0591021e-05
0.00016278543
4.5318609e-05
0.00018288538
2.7827217e-05
0.00020245536
7.9581644e-06
0.0002212832
-1.4456752e-05
0.00023905731
-3.9555885e-05
0.00025530404
-6.7413816e-05
0.00026941501
-9.7967681e-05
0.00028057127
-0.00013095762
0.00028778359
-0.00016585489
0.00028990649
-0.00020179177
0.00028570295
-0.00023751645
0.00027395245
-0.00027137041
0.00025359238
-0.00030133494
0.00022395856
-0.00032519559
0.00018510317
-0.0003408526
0.00013809779
-0.00034671699
8.5130611e-05
-0.00034207324
2.9353589e-05
-0.00032689419
-2.6188281e-05
-0.00030271487
-7.7338348e-05
-0.00027157265
-0.00012117728
-0.00023574851
-0.00015620224
-0.00019748735
-0.00018178542
-0.00015883525
-0.00019794876
-0.00012152976
-0.00020528332
-8.6946344e-05
-0.00020478403
-5.6094717e-05
-0.0001976813
-2.9650255e-05
-0.00018529691
-7.9961804e-06
-0.0001689607
8.8202015e-06
-0.0001500432
2.0842555e-05
-0.00012970031
2.8362294e-05
-0.00010908241
3.1842752e-05
-8.9212744e-05
3.1890342e-05
-7.09568e-05
2.9213044e-05
-5.4994568e-05
2.4581265e-05
-4.1790187e-05
1.8770137e-05
-3.1579923e-05
1.2511495e-05
-2.4373569e-05
6.4449868e-06
-1.9966928e-05
1.0860656e-06
-1.7974732e-05
-3.223637e-06
-1.7854748e-05
-6.3311871e-06
-1.8987192e-05
-8.2475185e-06
-2.077744e-05
-9.1160109e-06
-2.2711232e-05
-9.1548081e-06
-2.4420743e-05
-8.6152722e-06
-2.5675253e-05
-7.7464282e-06
-2.6366137e-05
-6.7603647e-06
-2.6500334e-05
-5.8143305e-06
-2.6165076e-05
-5.006936e-06
-2.5486971e-05
-4.3822312e-06
-2.4602949e-05
-3.9403013e-06
-2.3639314e-05
-3.655059e-06
-2.268889e-05
-3.4866674e-06
-2.1812806e-05
-3.3928587e-06
-2.1040636e-05
-3.3374654e-06
-2.0376125e-05
-3.294043e-06
-1.980728e-05
-1.9315127e-05
3.1264904e-06
-1.0930348e-05
1.0430251e-05
-2.9442633e-05
1.5094507e-05
-3.4447217e-05
2.2165242e-05
-4.7518162e-05
2.8368764e-05
-5.1335921e-05
3.6398911e-05
-5.9412648e-05
4.6297744e-05
-6.6033855e-05
5.8296017e-05
-7.1506545e-05
7.1369482e-05
-7.3185068e-05
8.4394511e-05
-7.0410672e-05
9.6512539e-05
-6.3485128e-05
0.00010712179
-5.2838258e-05
0.0001158108
-3.8929302e-05
0.00012228518
-2.2215671e-05
0.00012632705
-3.1758616e-06
0.00012786558
1.7570358e-05
0.0001268734
3.9574423e-05
0.00012342171
6.2324208e-05
0.00011762882
8.5427503e-05
0.00010962659
0.00010859167
9.9525296e-05
0.00013162829
8.7380963e-05
0.00015444114
7.3171603e-05
0.00017699479
5.6785649e-05
0.00019927133
3.802471e-05
0.00022121629
1.6624963e-05
0.00024268295
-7.7067125e-06
0.00026338899
-3.5253739e-05
0.00028285107
-6.6247458e-05
0.00030040873
-0.00010077209
0.00031509591
-0.00013868271
0.00032569422
-0.00017950568
0.00033072946
-0.00022232636
0.00032852363
-0.00026568998
0.00031731606
-0.00030753313
0.00029543553
-0.00034519642
0.00026162185
-0.00037559947
0.00021550623
-0.00039566404
0.00015816235
-0.00040298451
9.2451078e-05
-0.00039635734
2.2726423e-05
-0.00037601158
-4.6534045e-05
-0.00034408737
-0.00010926255
-0.00030365762
-0.00016160703
-0.00025797383
-0.00020188603
-0.00021004463
-0.00022971462
-0.00016247278
-0.00024552061
-0.00011737562
-0.00025038048
-7.6343065e-05