/*--------------------------------*- C++ -*----------------------------------*\
| =========                 |                                                 |
| \\      /  F ield         | OpenFOAM: The Open Source CFD Toolbox           |
|  \\    /   O peration     | Version:  2306                                  |
|   \\  /    A nd           | Website:  www.openfoam.com                      |
|    \\/     M anipulation  |                                                 |
\*---------------------------------------------------------------------------*/
FoamFile
{
    version     2.0;
    format      ascii;
    arch        "LSB;label=32;scalar=64";
    class       surfaceScalarField;
    location    "0.27";
    object      phi_0;
}
// * * * * * * * * * * * * * * * * * * * * * * * * * * * * * * * * * * * * * //

dimensions      [0 3 -1 0 0 0 0];

oriented        oriented;

internalField   nonuniform List<scalar> 
12640
(
1.6754129e-07
-4.8965245e-07
6.6854814e-07
-1.4536763e-06
1.4882458e-06
-2.3056415e-06
2.6001918e-06
-2.9588727e-06
3.9645621e-06
-3.3171812e-06
5.5294327e-06
-3.298322e-06
7.2357542e-06
-2.8358736e-06
9.0145632e-06
-1.8751479e-06
1.0798581e-05
-3.7612465e-07
1.2504069e-05
1.6948284e-06
1.405485e-05
4.3427506e-06
1.5372147e-05
7.5672806e-06
1.6379309e-05
1.1349908e-05
1.7003768e-05
1.5656916e-05
1.7178901e-05
2.0440083e-05
1.6845556e-05
2.5638048e-05
1.5953414e-05
3.1177559e-05
1.4461725e-05
3.6975406e-05
1.2340119e-05
4.2939629e-05
9.5694144e-06
4.897125e-05
6.1416396e-06
5.4965141e-05
2.0602921e-06
6.0812653e-05
-2.6526378e-06
6.6403894e-05
-7.9762866e-06
7.1627446e-05
-1.3863988e-05
7.6358237e-05
-2.0257964e-05
8.0485138e-05
-2.7085151e-05
8.3895874e-05
-3.4256614e-05
8.6483257e-05
-4.1667465e-05
8.8148359e-05
-4.9197271e-05
8.8804254e-05
-5.6711368e-05
8.8380593e-05
-6.4063272e-05
8.682853e-05
-7.1098364e-05
8.4125745e-05
-7.765888e-05
8.0281094e-05
-8.3590122e-05
7.5338267e-05
-8.8747533e-05
6.937779e-05
-9.3004126e-05
6.2516786e-05
-9.6257554e-05
5.4906151e-05
-9.8436252e-05
4.6725538e-05
-9.9504004e-05
3.8175834e-05
-9.9462303e-05
2.9469638e-05
-9.8350326e-05
2.0820706e-05
-9.6242456e-05
1.2433364e-05
-9.3246727e-05
4.4957983e-06
-8.9480476e-05
-2.8481634e-06
-8.5100735e-05
-9.4553911e-06
-8.0257961e-05
-1.5245207e-05
-7.5107651e-05
-2.0166744e-05
-6.979924e-05
-2.4205104e-05
-6.447051e-05
-2.7378005e-05
-5.9243008e-05
-2.9731283e-05
-5.4218842e-05
-3.1333383e-05
-4.9478862e-05
-3.2269372e-05
-4.5081979e-05
-3.263509e-05
-4.1065661e-05
-3.2531558e-05
-3.7447506e-05
-3.2059533e-05
-3.4227617e-05
-3.1314861e-05
-3.1391553e-05
-3.0384764e-05
-2.8913629e-05
-2.9345126e-05
-2.6760313e-05
-2.8258855e-05
-2.4893496e-05
-2.7175265e-05
-2.3273427e-05
-2.6130421e-05
-2.1861129e-05
-2.5148283e-05
-2.0620373e-05
-2.4242256e-05
-1.9519029e-05
-2.341715e-05
-1.8529784e-05
-2.267134e-05
-1.763034e-05
-2.1998844e-05
-1.68032e-05
-2.1391166e-05
-1.6035157e-05
-2.0838808e-05
-1.5316604e-05
-2.0332413e-05
-1.4640779e-05
-1.986352e-05
-1.400303e-05
-1.9424998e-05
-1.3400157e-05
-1.9011182e-05
-1.2829878e-05
-1.8617824e-05
-1.229043e-05
-1.82419e-05
-1.1780292e-05
-1.7881365e-05
-1.1298017e-05
-1.7534891e-05
-1.0842151e-05
-1.7201629e-05
-1.0411205e-05
-1.688102e-05
-1.6572647e-05
1.9823321e-07
-6.8788566e-07
7.9104592e-07
-2.046489e-06
1.7605377e-06
-3.2751332e-06
3.0755463e-06
-4.2738813e-06
4.6890164e-06
-4.9306514e-06
6.5418553e-06
-5.1511608e-06
8.56521e-06
-4.8592283e-06
1.0681705e-05
-3.9916426e-06
1.2807118e-05
-2.5015382e-06
1.4857604e-05
-3.5565686e-07
1.6737095e-05
2.4632595e-06
1.8357163e-05
5.9472123e-06
1.9629678e-05
1.0077392e-05
2.047159e-05
1.4815004e-05
2.0806853e-05
2.0104821e-05
2.0568217e-05
2.5876683e-05
1.969849e-05
3.2047286e-05
1.8151551e-05
3.8522345e-05
1.5893116e-05
4.5198064e-05
1.290092e-05
5.1963446e-05
9.1648378e-06
5.8701223e-05
4.6877838e-06
6.5289707e-05
-5.0984215e-07
7.160152e-05
-6.4042948e-06
7.7521898e-05
-1.2947898e-05
8.2901841e-05
-2.0078923e-05
8.7616163e-05
-2.7718142e-05
9.1535093e-05
-3.5767762e-05
9.4532878e-05
-4.4110701e-05
9.6491298e-05
-5.2610514e-05
9.7304067e-05
-6.1112383e-05
9.6882462e-05
-6.9445532e-05
9.5161679e-05
-7.7427323e-05
9.2107535e-05
-8.4869185e-05
8.7722956e-05
-9.1584311e-05
8.2053393e-05
-9.7396721e-05
7.51902e-05
-0.00010215099
6.7271057e-05
-0.00010572168
5.8476841e-05
-0.00010802155
4.9025402e-05
-0.00010900772
3.9162011e-05
-0.00010868493
2.9146849e-05
-0.00010710546
1.9241235e-05
-0.00010436565
9.693555e-06
-0.00010059996
7.3010701e-07
-9.5963152e-05
-7.4849734e-06
-9.0645989e-05
-1.4772555e-05
-8.4837426e-05
-2.1053769e-05
-7.8726878e-05
-2.6277293e-05
-7.2494675e-05
-3.0437307e-05
-6.6304727e-05
-3.3567954e-05
-6.0299102e-05
-3.5736907e-05
-5.4594477e-05
-3.7038009e-05
-4.92803e-05
-3.7583548e-05
-4.4418337e-05
-3.7497053e-05
-4.0043798e-05
-3.6906097e-05
-3.616766e-05
-3.5935671e-05
-3.277998e-05
-3.4702541e-05
-2.9853867e-05
-3.3310876e-05
-2.7349811e-05
-3.1849182e-05
-2.5220065e-05
-3.0388601e-05
-2.3412784e-05
-2.8982546e-05
-2.1875599e-05
-2.7667607e-05
-2.0558682e-05
-2.64652e-05
-1.9417096e-05
-2.5383842e-05
-1.8412209e-05
-2.4422036e-05
-1.7512323e-05
-2.3571226e-05
-1.6692632e-05
-2.2818535e-05
-1.5934673e-05
-2.2149124e-05
-1.5225438e-05
-2.1548043e-05
-1.4556297e-05
-2.1001553e-05
-1.3921902e-05
-2.0497915e-05
-1.3319158e-05
-2.0027742e-05
-1.2746363e-05
-1.9583978e-05
-1.2202537e-05
-1.916165e-05
-1.1686963e-05
-1.8757475e-05
-1.1198892e-05
-1.8369436e-05
-1.0737408e-05
-1.7996376e-05
-1.0301381e-05
-1.7637656e-05
-9.8895016e-06
-1.7292899e-05
-1.6961809e-05
2.3433211e-07
-9.2221777e-07
9.3501125e-07
-2.7471682e-06
2.0796864e-06
-4.4198083e-06
3.6314085e-06
-5.8256035e-06
5.5339275e-06
-6.8331703e-06
7.7193635e-06
-7.3365969e-06
1.0108444e-05
-7.2483092e-06
1.2613388e-05
-6.4965863e-06
1.5137991e-05
-5.0261415e-06
1.7582241e-05
-2.7999064e-06
1.9843144e-05
2.0235643e-07
2.1814088e-05
3.9762681e-06
2.3394399e-05
8.4970811e-06
2.4489099e-05
1.3720304e-05
2.5011608e-05
1.9582313e-05
2.4885695e-05
2.6002596e-05
2.4046982e-05
3.2885999e-05
2.2443783e-05
4.0125544e-05
2.0037365e-05
4.7604481e-05
1.6802449e-05
5.5198363e-05
1.2726709e-05
6.2776963e-05
7.8115996e-06
7.0204817e-05
2.0728027e-06
7.7340317e-05
-4.4517464e-06
8.4046447e-05
-1.1727972e-05
9.0178067e-05
-1.9685981e-05
9.5574171e-05
-2.8241188e-05
0.0001000903
-3.7287458e-05
0.00010357915
-4.6695205e-05
0.00010589905
-5.6310704e-05
0.00010691957
-6.5956466e-05
0.00010652822
-7.5433439e-05
0.00010463865
-8.4525433e-05
0.00010119953
-9.3006074e-05
9.6203597e-05
-0.00010064834
8.9695655e-05
-0.00010723621
8.177807e-05
-0.00011257756
7.2612409e-05
-0.00011651685
6.241613e-05
-0.00011894627
5.1454824e-05
-0.00011981422
4.0029963e-05
-0.00011912982
2.8462447e-05
-0.00011696289
1.7074307e-05
-0.00011344489
6.1755555e-06
-0.00010871632
-3.9984719e-06
-0.00010301976
-1.3181526e-05
-9.6569134e-05
-2.1223184e-05
-8.9601906e-05
-2.8020998e-05
-8.2350671e-05
-3.3528527e-05
-7.5033422e-05
-3.7754556e-05
-6.7845073e-05
-4.0756303e-05
-6.0951299e-05
-4.2630681e-05
-5.4484732e-05
-4.3504576e-05
-4.8543187e-05
-4.3525093e-05
-4.3189707e-05
-4.2850533e-05
-3.8454543e-05
-4.1641261e-05
-3.4338464e-05
-4.0051751e-05
-3.081735e-05
-3.8223655e-05
-2.7847469e-05
-3.6280757e-05
-2.5371118e-05
-3.4325533e-05
-2.3322245e-05
-3.2437475e-05
-2.1631559e-05
-3.0673232e-05
-2.0231037e-05
-2.9068129e-05
-1.9057849e-05
-2.7638388e-05
-1.8056998e-05
-2.6384692e-05
-1.7182777e-05
-2.5296258e-05
-1.639918e-05
-2.4354822e-05
-1.5679483e-05
-2.3538232e-05
-1.5005185e-05
-2.2823423e-05
-1.436459e-05
-2.2188638e-05
-1.3751216e-05
-2.1614927e-05
-1.3162193e-05
-2.1086938e-05
-1.2596882e-05
-2.0593053e-05
-1.2055767e-05
-2.0125092e-05
-1.1539664e-05
-1.9677753e-05
-1.1049203e-05
-1.9247936e-05
-1.0584567e-05
-1.8834072e-05
-1.0145413e-05
-1.8435529e-05
-9.7309194e-06
-1.805215e-05
-9.3398957e-06
-1.7683922e-05
-1.7330782e-05
2.7713221e-07
-1.19935e-06
1.1055326e-06
-3.5755685e-06
2.4557406e-06
-5.7700164e-06
4.283841e-06
-7.6537039e-06
6.521165e-06
-9.0704943e-06
9.090007e-06
-9.9054389e-06
1.1900525e-05
-1.0058827e-05
1.4852462e-05
-9.4485232e-06
1.7836955e-05
-8.0106344e-06
2.0738399e-05
-5.70135e-06
2.3438499e-05
-2.4977436e-06
2.5814867e-05
1.5998999e-06
2.775115e-05
6.5607979e-06
2.9138444e-05
1.233301e-05
2.9878305e-05
1.8842452e-05
2.9884789e-05
2.5996112e-05
2.9085816e-05
3.3684972e-05
2.7423978e-05
4.1787382e-05
2.4856665e-05
5.0171794e-05
2.1355477e-05
5.8699551e-05
1.6906264e-05
6.7226176e-05
1.1509994e-05
7.5601087e-05
5.1799243e-06
8.3670386e-05
-2.0483452e-06
9.1274717e-05
-1.0142831e-05
9.8272552e-05
-1.9025671e-05
0.00010445701
-2.8611358e-05
0.00010967599
-3.8786726e-05
0.00011375451
-4.9410012e-05
0.00011652233
-6.0309318e-05
0.00011781887
-7.1282025e-05
0.00011750093
-8.2096388e-05
0.00011545302
-9.2496075e-05
0.00011159922
-0.00010220819
0.00010591571
-0.00011095501
9.844248e-05
-0.00011846909
8.9292146e-05
-0.00012451039
7.8653713e-05
-0.00012888367
6.678941e-05
-0.00013145379
5.4024938e-05
-0.00013215752
4.0733697e-05
-0.00013100939
2.7314317e-05
-0.00012810163
1.4166551e-05
-0.00012359917
1.6730923e-06
-0.00011770393
-9.8937147e-06
-0.00011070143
-2.0184027e-05
-0.00010287315
-2.9051459e-05
-9.4512209e-05
-3.6381941e-05
-8.5903716e-05
-4.2137021e-05
-7.7311079e-05
-4.6347193e-05
-6.8965754e-05
-4.9101628e-05
-6.1060277e-05
-5.0536158e-05
-5.3744372e-05
-5.0820481e-05
-4.7123338e-05
-5.0146127e-05
-4.1258992e-05
-4.8714879e-05
-3.6172833e-05
-4.672742e-05
-3.1850555e-05
-4.4374029e-05
-2.8248433e-05
-4.1825776e-05
-2.5300232e-05
-3.9228958e-05
-2.2924521e-05
-3.6701243e-05
-2.103176e-05
-3.4330236e-05
-1.9530547e-05
-3.2174445e-05
-1.8333643e-05
-3.0265033e-05
-1.7362718e-05
-2.8609313e-05
-1.6551341e-05
-2.719607e-05
-1.5846353e-05
-2.6001245e-05
-1.5207889e-05
-2.4993286e-05
-1.460835e-05
-2.4137771e-05
-1.4030733e-05
-2.340104e-05
-1.3466382e-05
-2.2752989e-05
-1.2912569e-05
-2.2168739e-05
-1.237032e-05
-2.1629188e-05
-1.1842587e-05
-2.1120786e-05
-1.1332881e-05
-2.0634799e-05
-1.0844343e-05
-2.016629e-05
-1.0379242e-05
-1.9713038e-05
-9.9387808e-06
-1.9274533e-05
-9.5231547e-06
-1.8851155e-05
-9.1317355e-06
-1.8443569e-05
-8.7633202e-06
-1.8052338e-05
-1.7677728e-05
3.2846358e-07
-1.5278136e-06
1.3096718e-06
-4.5567767e-06
2.9019027e-06
-7.3622473e-06
5.0537019e-06
-9.805503e-06
7.6779827e-06
-1.1694775e-05
1.0687903e-05
-1.2915359e-05
1.3982074e-05
-1.3352999e-05
1.7447845e-05
-1.2914294e-05
2.0962107e-05
-1.1524896e-05
2.4391159e-05
-9.1304016e-06
2.7596219e-05
-5.7028041e-06
3.0442738e-05
-1.246619e-06
3.2789558e-05
4.2139781e-06
3.451417e-05
1.0608398e-05
3.5504476e-05
1.7852146e-05
3.5664084e-05
2.5836504e-05
3.4913214e-05
3.4435842e-05
3.3189107e-05
4.351149e-05
3.0445441e-05
5.2915459e-05
2.6651626e-05
6.2493367e-05
2.1792184e-05
7.2085618e-05
1.5863698e-05
8.1529573e-05
8.8783442e-06
9.065574e-05
8.6271148e-07
9.929035e-05
-8.122649e-06
0.00010725791
-1.803253e-05
0.00011436689
-2.8772993e-05
0.00012041645
-4.0224123e-05
0.00012520564
-5.2233083e-05
0.00012853129
-6.4609612e-05
0.0001301954
-7.7123816e-05
0.00013001513
-8.9506528e-05
0.00012783573
-0.00010145354
0.00012354623
-0.0001126346
0.00011709677
-0.00012270772
0.0001085156
-0.00013133871
9.7923134e-05
-0.00013822429
8.5539292e-05
-0.00014311605
7.168117e-05
-0.00014584194
5.6750835e-05
-0.00014632315
4.1214902e-05
-0.00014458352
2.5574694e-05
-0.00014075263
1.0335657e-05
-0.00013499428
-4.0852587e-06
-0.00012765653
-1.7231463e-05
-0.00011905315
-2.878741e-05
-0.00010954777
-3.8556836e-05
-9.9507014e-05
-4.6422698e-05
-8.9281322e-05
-5.2362712e-05
-7.9188926e-05
-5.6439589e-05
-6.9504044e-05
-5.8786511e-05
-6.0449345e-05
-5.9590856e-05
-5.2192238e-05
-5.9077588e-05
-4.4843677e-05
-5.7494688e-05
-3.846046e-05
-5.5098096e-05
-3.3050142e-05
-5.2137738e-05
-2.8576773e-05
-4.8847398e-05
-2.4969949e-05
-4.54326e-05
-2.2133678e-05
-4.206523e-05
-1.9955811e-05
-3.8879111e-05
-1.8316655e-05
-3.5969392e-05
-1.7097097e-05
-3.3394003e-05
-1.6186334e-05
-3.1175795e-05
-1.5487722e-05
-2.9307926e-05
-1.4922063e-05
-2.7761729e-05
-1.4428678e-05
-2.649463e-05
-1.3964795e-05
-2.545717e-05
-1.3503918e-05
-2.4598648e-05
-1.3032933e-05
-2.3872025e-05
-1.2548586e-05
-2.3237336e-05
-1.2054123e-05
-2.2663203e-05
-1.1556327e-05
-2.2126983e-05
-1.1063172e-05
-2.1613941e-05
-1.0582155e-05
-2.1115816e-05
-1.0119297e-05
-2.0629149e-05
-9.6787035e-06
-2.0153631e-05
-9.2625635e-06
-1.9690673e-05
-8.871422e-06
-1.9242297e-05
-8.5046009e-06
-1.8810391e-05
-8.1606385e-06
-1.83963e-05
-1.8000688e-05
3.9113914e-07
-1.9189527e-06
1.5583432e-06
-5.7239808e-06
3.4368665e-06
-9.2407706e-06
5.9695194e-06
-1.2338156e-05
9.0389407e-06
-1.4764196e-05
1.2553301e-05
-1.6429719e-05
1.6400255e-05
-1.7199952e-05
2.0454796e-05
-1.6968836e-05
2.4578142e-05
-1.5648242e-05
2.8616509e-05
-1.3168768e-05
3.240875e-05
-9.4950453e-06
3.5793232e-05
-4.6311005e-06
3.8613622e-05
1.3935882e-06
4.072556e-05
8.4964601e-06
4.2002089e-05
1.6575617e-05
4.2335929e-05
2.5502664e-05
4.1639924e-05
3.5131847e-05
3.9846897e-05
4.5304517e-05
3.6908219e-05
5.5854137e-05
3.2792027e-05
6.6609558e-05
2.7481153e-05
7.7396492e-05
2.0972754e-05
8.8037972e-05
1.3274895e-05
9.8353599e-05
4.4117579e-06
0.00010815349
-5.5715171e-06
0.00011724119
-1.6623854e-05
0.00012541923
-2.8653782e-05
0.00013244638
-4.1541409e-05
0.00013809327
-5.5126479e-05
0.00014211636
-6.9201704e-05
0.00014427063
-8.3508535e-05
0.00014432197
-9.7735618e-05
0.00014206281
-0.00011152198
0.00013733259
-0.00012446661
0.0001300414
-0.00013614568
0.00012019467
-0.0001461377
0.00010791515
-0.00015405487
9.3456466e-05
-0.00015957669
7.7202993e-05
-0.0001624804
5.9654544e-05
-0.00016266467
4.1399169e-05
-0.00016016142
2.307144e-05
-0.00015514391
5.3181539e-06
-0.00014784974
-1.1379435e-05
-0.00013870002
-2.6381174e-05
-0.00012811885
-3.9368588e-05
-0.00011656447
-5.0111215e-05
-0.00010449452
-5.8492643e-05
-9.2339611e-05
-6.4517623e-05
-8.0483584e-05
-6.8295616e-05
-6.9250112e-05
-7.0019982e-05
-5.889496e-05
-6.9946008e-05
-4.9602874e-05
-6.8369675e-05
-4.1487286e-05
-6.5610276e-05
-3.4594348e-05
-6.1991034e-05
-2.8910816e-05
-5.782127e-05
-2.4370205e-05
-5.3388009e-05
-2.0866309e-05
-4.8936495e-05
-1.8264125e-05
-4.4667413e-05
-1.6411865e-05
-4.073137e-05
-1.5151371e-05
-3.7229887e-05
-1.4329035e-05
-3.4216339e-05
-1.3805177e-05
-3.1699653e-05
-1.3461673e-05
-2.9651429e-05
-1.3205361e-05
-2.8018041e-05
-1.2968409e-05
-2.6731582e-05
-1.2707279e-05
-2.57183e-05
-1.2399709e-05
-2.4906218e-05
-1.2039826e-05
-2.4231907e-05
-1.1633154e-05
-2.3644009e-05
-1.1191909e-05
-2.3104448e-05
-1.0731053e-05
-2.2587839e-05
-1.0265316e-05
-2.2079678e-05
-9.8072528e-06
-2.1573879e-05
-9.3662337e-06
-2.1070168e-05
-8.9482299e-06
-2.0571635e-05
-8.5561403e-06
-2.0082762e-05
-8.1904448e-06
-1.9607992e-05
-7.8499711e-06
-1.9150864e-05
-7.5326067e-06
-1.8713665e-05
-1.8297425e-05
4.6959265e-07
-2.3885453e-06
1.869523e-06
-7.1239111e-06
4.0872807e-06
-1.1458528e-05
7.0708661e-06
-1.5321741e-05
1.0648513e-05
-1.8341843e-05
1.4735575e-05
-2.0516781e-05
1.92097e-05
-2.1674077e-05
2.3936343e-05
-2.1695479e-05
2.8760434e-05
-2.0472334e-05
3.3502732e-05
-1.7911066e-05
3.7973329e-05
-1.3965642e-05
4.1979112e-05
-8.6368835e-06
4.5345871e-05
-1.9731708e-06
4.7899644e-05
5.9426869e-06
4.9500092e-05
1.4975169e-05
5.0028238e-05
2.4974518e-05
4.939065e-05
3.5769434e-05
4.7517365e-05
4.7177802e-05
4.4359539e-05
5.9011964e-05
3.988604e-05
7.1083056e-05
3.408007e-05
8.3202462e-05
2.6936613e-05
9.518143e-05
1.8461948e-05
0.00010682826
8.6735366e-06
0.0001179419
-2.3950864e-06
0.00012830981
-1.470307e-05
0.00013772721
-2.8161754e-05
0.00014590506
-4.2658251e-05
0.00015258977
-5.8029877e-05
0.00015748799
-7.4055617e-05
0.00016029637
-9.0448222e-05
0.00016071457
-0.00010684982
0.00015846441
-0.00012283278
0.00015331555
-0.000137909
0.00014511762
-0.00015155001
0.00013383568
-0.00016321911
0.00011958425
-0.00017241418
0.00010265153
-0.00017871536
8.3504177e-05
-0.00018182955
6.2768732e-05
-0.00018162637
4.1195987e-05
-0.00017816021
1.9605288e-05
-0.00017160134
-1.2407246e-06
-0.00016236969
-2.0611079e-05
-0.00015096031
-3.7790556e-05
-0.00013793073
-5.2398165e-05
-0.00012386638
-6.4175569e-05
-0.00010934057
-7.3018455e-05
-9.4882396e-05
-7.8975794e-05
-8.0953626e-05
-8.2224385e-05
-6.7934182e-05
-8.3039426e-05
-5.6115012e-05
-8.1765178e-05
-4.5696391e-05
-7.8788296e-05
-3.6789216e-05
-7.4517451e-05
-2.9420787e-05
-6.9359463e-05
-2.3548172e-05
-6.3693885e-05
-1.9062508e-05
-5.7873674e-05
-1.5810027e-05
-5.2188976e-05
-1.3604928e-05
-4.6872513e-05
-1.2244278e-05
-4.209202e-05
-1.152133e-05
-3.7952835e-05
-1.1239908e-05
-3.449776e-05
-1.1224841e-05
-3.171472e-05
-1.1332967e-05
-2.9543304e-05
-1.1456142e-05
-2.7894865e-05
-1.1520831e-05
-2.6666893e-05
-1.1486521e-05
-2.575261e-05
-1.1339646e-05
-2.5053093e-05
-1.1086494e-05
-2.4485059e-05
-1.0746039e-05
-2.3984465e-05
-1.034348e-05
-2.3507007e-05
-9.9050536e-06
-2.3026266e-05
-9.4543265e-06
-2.2530405e-05
-9.0099668e-06
-2.2018238e-05
-8.5849547e-06
-2.149518e-05
-8.1868136e-06
-2.0969776e-05
-7.8184971e-06
-2.0451079e-05
-7.4796552e-06
-1.9946834e-05
-7.167902e-06
-1.9462617e-05
-6.8798891e-06
-1.9001678e-05
-1.8565216e-05
5.7120939e-07
-2.9597547e-06
2.2723318e-06
-8.8250336e-06
4.8920179e-06
-1.4078214e-05
8.4136885e-06
-1.8843412e-05
1.2563098e-05
-2.2491253e-05
1.7292792e-05
-2.5246476e-05
2.247191e-05
-2.6853195e-05
2.7963801e-05
-2.718737e-05
3.3594651e-05
-2.6103184e-05
3.9152738e-05
-2.3469152e-05
4.4410495e-05
-1.9223399e-05
4.9140639e-05
-1.3367028e-05
5.3128766e-05
-5.9612973e-06
5.6184793e-05
2.8866601e-06
5.814758e-05
1.3012381e-05
5.8886968e-05
2.4235131e-05
5.8305206e-05
3.6351196e-05
5.6332833e-05
4.9150175e-05
5.2924109e-05
6.2420688e-05
4.8051863e-05
7.5955302e-05
4.17018e-05
8.9552525e-05
3.3868404e-05
0.00010301483
2.4553005e-05
0.00011614366
1.3761698e-05
0.00012873321
1.5094094e-06
0.0001405621
-1.2152675e-05
0.0001513893
-2.7178969e-05
0.00016093136
-4.3464822e-05
0.00016887562
-6.0851805e-05
0.00017487497
-7.9111497e-05
0.00017855606
-9.7930519e-05
0.00017953359
-0.00011690138
0.00017743527
-0.00013551931
0.00017193348
-0.00015318961
0.00016278792
-0.00016924987
0.00014989594
-0.00018301039
0.00013334476
-0.00019381248
0.00011345363
-0.00020109715
9.0788848e-05
-0.00020447068
6.6142262e-05
-0.00020375729
4.0482594e-05
-0.00019903897
1.4886971e-05
-0.00019053302
-9.7466805e-06
-0.00017883177
-3.2312327e-05
-0.00016457921
-5.2043117e-05
-0.00014850406
-6.8473311e-05
-0.00013135561
-8.1324023e-05
-0.00011385254
-9.0521527e-05
-9.6643819e-05
-9.6184513e-05
-8.0282345e-05
-9.858586e-05
-6.5210459e-05
-9.8111312e-05
-5.1754642e-05
-9.5220995e-05
-4.0126405e-05
-9.0416533e-05
-3.0426948e-05
-8.4216907e-05
-2.2653184e-05
-7.7133227e-05
-1.6720735e-05
-6.9626335e-05
-1.2463224e-05
-6.2131184e-05
-9.6637776e-06
-5.4988423e-05
-8.0707415e-06
-4.8465549e-05
-7.415424e-06
-4.2747337e-05
-7.4296794e-06
-3.793858e-05
-7.8660817e-06
-3.4061358e-05
-8.5058327e-06
-3.1074969e-05
-9.1763316e-06
-2.8872805e-05
-9.7537774e-06
-2.7317419e-05
-1.0162549e-05
-2.6258121e-05
-1.0370555e-05
-2.5544604e-05
-1.0379679e-05
-2.5043969e-05
-1.0215355e-05
-2.4649382e-05
-9.9164329e-06
-2.4283387e-05
-9.5264556e-06
-2.3896984e-05
-9.086894e-06
-2.3465827e-05
-8.6324097e-06
-2.2984889e-05
-8.1886857e-06
-2.2461962e-05
-7.7721586e-06
-2.1911707e-05
-7.3909782e-06
-2.1350956e-05
-7.0469067e-06
-2.079515e-05
-6.737495e-06
-2.0256246e-05
-6.4580515e-06
-1.9742061e-05
-6.2031759e-06
-1.9256553e-05
-1.8800597e-05
7.097542e-07
-3.6695089e-06
2.8143923e-06
-1.0929672e-05
5.9104068e-06
-1.7174229e-05
1.0077937e-05
-2.3010943e-05
1.4854506e-05
-2.7267821e-05
2.0290523e-05
-3.0682493e-05
2.6251301e-05
-3.2813973e-05
3.261397e-05
-3.3550039e-05
3.9180185e-05
-3.2669399e-05
4.5689082e-05
-2.9978049e-05
5.1864044e-05
-2.5398361e-05
5.7430544e-05
-1.8933529e-05
6.21341e-05
-1.0664853e-05
6.5756616e-05
-7.3585637e-07
6.8118619e-05
1.0650379e-05
6.9079324e-05
2.3274425e-05
6.8540606e-05
3.6889914e-05
6.64384e-05
5.1252381e-05
6.2735522e-05
6.6123566e-05
5.7413578e-05
8.1277246e-05
5.0464649e-05
9.6501454e-05
4.1884842e-05
0.00011159463
3.1669021e-05
0.00012635948
1.9812376e-05
0.00014058985
6.3127567e-06
0.00015406172
-8.8188592e-06
0.00016652091
-2.5553181e-05
0.00017766568
-4.3812438e-05
0.00018713488
-6.3458128e-05
0.00019452066
-8.4266269e-05
0.0001993642
-0.00010590469
0.00020117202
-0.00012791582
0.0001994464
-0.00014970778
0.00019372543
-0.00017055668
0.00018363682
-0.00018962896
0.00016896822
-0.00020603049
0.00014974629
-0.00021888577
0.00012630891
-0.00022743766
9.9340736e-05
-0.00023114542
6.9850023e-05
-0.00022976499
3.9102165e-05
-0.00022342218
8.5441576e-06
-0.00021241401
-2.0754847e-05
-0.0001975501
-4.7176237e-05
-0.00017970131
-6.9891911e-05
-0.00015982197
-8.8352644e-05
-0.0001388736
-0.00010227239
-0.000117757
-0.00011163812
-9.7265328e-05
-0.00011667619
-7.8055686e-05
-0.0001177955
-6.0637132e-05
-0.00011552987
-4.536915e-05
-0.00011048898
-3.2466373e-05
-0.00010331931
-2.2009657e-05
-9.4673623e-05
-1.3950805e-05
-8.5192079e-05
-8.1503224e-06
-7.5426817e-05
-4.3656559e-06
-6.5915851e-05
-2.2923709e-06
-5.7061708e-05
-1.592268e-06
-4.9165652e-05
-1.9117369e-06
-4.2427868e-05
-2.9084664e-06
-3.694185e-05
-4.2763441e-06
-3.269348e-05
-5.7441362e-06
-2.9607177e-05
-7.1016198e-06
-2.7515321e-05
-8.2100128e-06
-2.6209026e-05
-8.9972029e-06
-2.5470931e-05
-9.4478796e-06
-2.5093928e-05
-9.5892797e-06
-2.4902569e-05
-9.475822e-06
-2.476284e-05
-9.1750564e-06
-2.4584153e-05
-8.7561513e-06
-2.4315889e-05
-8.2804654e-06
-2.3941513e-05
-7.7961131e-06
-2.3469242e-05
-7.3363172e-06
-2.2921758e-05
-6.9199282e-06
-2.2328096e-05
-6.5538367e-06
-2.1717048e-05
-6.2364844e-06
-2.1112503e-05
-5.9613464e-06
-2.0531384e-05
-5.719849e-06
-1.9983558e-05
-5.5034677e-06
-1.9472934e-05
-1.8999091e-05
9.159521e-07
-4.585461e-06
3.59246e-06
-1.360618e-05
7.239275e-06
-2.0821044e-05
1.2177045e-05
-2.7948712e-05
1.7606687e-05
-3.2697463e-05
2.3789941e-05
-3.6865747e-05
3.0603512e-05
-3.9627544e-05
3.7964723e-05
-4.091125e-05
4.562997e-05
-4.0334646e-05
5.326207e-05
-3.7610149e-05
6.0513576e-05
-3.2649866e-05
6.7051208e-05
-2.5471161e-05
7.2574225e-05
-1.6187871e-05
7.6830351e-05
-4.991982e-06
7.9619716e-05
7.861014e-06
8.0798762e-05
2.2095379e-05
8.0273645e-05
3.7415031e-05
7.7992897e-05
5.3533129e-05
7.3935632e-05
7.0180831e-05
6.8099602e-05
8.7113276e-05
6.048909e-05
0.00010411197
5.1104361e-05
0.00012097936
3.9935436e-05
0.00013752841
2.6958005e-05
0.00015356728
1.2143498e-05
0.00016887623
-4.5324171e-06
0.00018319683
-2.3095962e-05
0.00019622922
-4.3503546e-05
0.00020754246
-6.5657445e-05
0.00021667456
-8.9355995e-05
0.00022306275
-0.00011426219
0.00022607821
-0.00013987339
0.0002250576
-0.00016550276
0.00021935481
-0.0001902724
0.00020840646
-0.00021313114
0.00019182696
-0.00023291111
0.00016952627
-0.00024843369
0.00014183149
-0.00025865639
0.00010956343
-0.00026282519
7.401883e-05
-0.00026059874
3.687571e-05
-0.00025207551
2.0926014e-08
-0.00023782041
-3.5009946e-05
-0.00021888844
-6.6108203e-05
-0.00019646555
-9.2314799e-05
-0.00017181447
-0.00011300372
-0.00014617312
-0.00012791374
-0.00012066889
-0.00013714236
-9.62652e-05
-0.00014107988
-7.3734224e-05
-0.00014032648
-5.365169e-05
-0.0001356124
-3.6402811e-05
-0.00012773786
-2.219284e-05
-0.00011752928
-1.1067517e-05
-0.00010579895
-2.9261404e-06
-9.3333456e-05
2.5010244e-06
-8.0853982e-05
5.5218707e-06
-6.8936697e-05
6.530564e-06
-5.8070401e-05
5.9714762e-06
-4.8606564e-05
4.3061403e-06
-4.0762532e-05
1.9813348e-06
-3.4617045e-05
-5.8598085e-07
-3.0126164e-05
-3.0836392e-06
-2.7109519e-05
-5.2656686e-06
-2.5333292e-05
-6.9787946e-06
-2.44959e-05
-8.1626087e-06
-2.4287117e-05
-8.8315018e-06
-2.4425035e-05
-9.0525057e-06
-2.4681565e-05
-8.9228115e-06
-2.4892534e-05
-8.5511895e-06
-2.4955775e-05
-8.0416751e-06
-2.4825403e-05
-7.4809454e-06
-2.4502243e-05
-6.9327939e-06
-2.4017393e-05
-6.4375661e-06
-2.3416986e-05
-6.0138944e-06
-2.2751767e-05
-5.6640986e-06
-2.2066844e-05
-5.3798913e-06
-2.139671e-05
-5.1477185e-06
-2.0763557e-05
-4.952951e-06
-2.0178326e-05
-4.782623e-06
-1.9643263e-05
-1.9154959e-05
1.2682999e-06
-5.853761e-06
4.8146995e-06
-1.7152579e-05
9.0498165e-06
-2.5056161e-05
1.4864649e-05
-3.3763545e-05
2.0889761e-05
-3.8722575e-05
2.7808701e-05
-4.3784687e-05
3.5539776e-05
-4.735862e-05
4.4075416e-05
-4.944689e-05
5.3072799e-05
-4.9332028e-05
6.2062456e-05
-4.6599806e-05
7.0594933e-05
-4.1182343e-05
7.8263956e-05
-3.3140185e-05
8.4717634e-05
-2.2641548e-05
8.9669389e-05
-9.9437374e-06
9.2901176e-05
4.6292269e-06
9.4274638e-05
2.0721917e-05
9.3707867e-05
3.7981802e-05
9.1172452e-05
5.6068544e-05
8.6675284e-05
7.4677999e-05
8.0241233e-05
9.3547326e-05
7.1895568e-05
0.00011245763
6.1647981e-05
0.00013122695
4.9482376e-05
0.00014969401
3.5353247e-05
0.00016769641
1.9187817e-05
0.00018504166
9.0084127e-07
0.0002014838
-1.9570698e-05
0.00021670076
-4.2276264e-05
0.00023024803
-6.7181377e-05
0.00024157967
-9.4131878e-05
0.00025001325
-0.00012280924
0.00025475557
-0.00015268115
0.00025492951
-0.00018296344
0.0002496371
-0.00021259978
0.0002380428
-0.00024026569
0.00021949287
-0.00026442676
0.00019368734
-0.00028347535
0.00016088007
-0.00029594714
0.00012203522
-0.00030076508
7.8836767e-05
-0.00029745654
3.3567171e-05
-0.00028600589
-1.1429724e-05
-0.00026749492
-5.3520911e-05
-0.00024327255
-9.0330579e-05
-0.00021498835
-0.00012059899
-0.0001843254
-0.00014366668
-0.00015287747
-0.00015936167
-0.00012204893
-0.0001679709
-9.299836e-05
-0.00017013045
-6.6617824e-05
-0.00016670701
-4.3541139e-05
-0.00015868909
-2.4164277e-05
-0.00014711472
-8.6753301e-06
-0.00013301823
2.9905488e-06
-0.00011746483
1.1011922e-05
-0.00010135483
1.5697162e-05
-8.5539223e-05
1.749867e-05
-7.0738204e-05
1.6956487e-05
-5.7528218e-05
1.4658708e-05
-4.6308785e-05
1.1205311e-05
-3.7309136e-05
7.1683796e-06
-3.0580113e-05
3.0499416e-06
-2.6007727e-05
-7.303096e-07
-2.3329268e-05
-3.8881534e-06
-2.2175448e-05
-6.2693538e-06
-2.21147e-05
-7.8396033e-06
-2.2716867e-05
-8.6632172e-06
-2.3601421e-05
-8.8679799e-06
-2.4476802e-05
-8.6136271e-06
-2.5146887e-05
-8.0674598e-06
-2.5501942e-05
-7.3798535e-06
-2.551301e-05
-6.6689793e-06
-2.5213117e-05
-6.0159024e-06
-2.467047e-05
-5.4654547e-06
-2.3967434e-05
-5.0311135e-06
-2.3186109e-05
-4.7051664e-06
-2.2392791e-05
-4.4673804e-06
-2.1634496e-05
-4.292885e-06
-2.0938052e-05
-4.1581481e-06
-2.0313062e-05
-4.0442835e-06
-1.9757127e-05
-1.926113e-05
1.9430666e-06
-7.7968276e-06
6.9116217e-06
-2.2121134e-05
1.1618049e-05
-2.9762589e-05
1.8279423e-05
-4.0424918e-05
2.4655302e-05
-4.5098454e-05
3.2209607e-05
-5.1338992e-05
4.0931999e-05
-5.6081012e-05
5.0928614e-05
-5.9443505e-05
6.1633686e-05
-6.00371e-05
7.2337003e-05
-5.7303124e-05
8.2432988e-05
-5.1278328e-05
9.1428175e-05
-4.2135372e-05
9.8929501e-05
-3.0142875e-05
0.00010462675
-1.5640987e-05
0.00010828795
9.6802395e-07
0.00010979761
1.9212257e-05
0.00010909342
3.8685998e-05
0.00010618574
5.897622e-05
0.00010112584
7.9737903e-05
9.3981126e-05
0.00010069204
8.4810078e-05
0.00012162868
7.3639754e-05
0.00014239727
6.0449586e-05
0.00016288418
4.5164446e-05
0.00018298155
2.7658624e-05
0.00020254748
7.7734148e-06
0.00022136901
-1.4659343e-05
0.00023913352
-3.9777272e-05
0.00025536596
-6.7654252e-05
0.00026945665
-9.8225975e-05
0.00028058497
-0.00013123056
0.00028776016
-0.00016613658
0.00028983553
-0.00020207308
0.0002855736
-0.00023778462
0.00027375434
-0.00027160894
0.00025331719
-0.00030152412
0.00022360252
-0.00032531458
0.00018467053
-0.00034088316
0.0001376038
-0.0003466477
8.4601307e-05
-0.0003419036
2.8823075e-05
-0.00032663673
-2.6696594e-05
-0.00030238019
-7.777745e-05
-0.00027118347
-0.0001215273
-0.00023532901
-0.00015645346
-0.00019706044
-0.00018193524
-0.00015842114
-0.00019800097
-0.00012114513
-0.00020524691
-8.6604018e-05
-0.00020467156
-5.580363e-05
-0.0001975074
-2.9415787e-05
-0.00018507693
-7.820616e-06
-0.00016870989
8.9382215e-06
-0.00014977707
2.0905605e-05
-0.00012943221
2.8375838e-05
-0.00010882506
3.1813969e-05
-8.8977354e-05
3.1828022e-05
-7.0752257e-05
2.9126935e-05
-5.4827131e-05
2.4481523e-05
-4.1663373e-05
1.8666518e-05
-3.1494131e-05
1.2412647e-05
-2.4326243e-05
6.3578201e-06
-1.9952899e-05
1.015728e-06
-1.7987176e-05
-3.2747339e-06
-1.7884986e-05
-6.3631053e-06
-1.9026329e-05
-8.2624821e-06
-2.0817491e-05
-9.1175279e-06
-2.2746375e-05
-9.1468946e-06
-2.4447436e-05
-8.6019789e-06
-2.5691803e-05
-7.7312827e-06
-2.6372638e-05
-6.7460265e-06
-2.6498266e-05
-5.8024884e-06
-2.6156655e-05
-4.9983541e-06
-2.5474604e-05
-4.3769217e-06
-2.4588866e-05
-3.9377796e-06
-2.3625251e-05
-3.6545959e-06
-2.2675975e-05
-3.4874825e-06
-2.1801609e-05
-3.3942581e-06
-2.1031277e-05
-3.3389491e-06
-2.0368371e-05
-3.2953003e-06
-1.9800776e-05
-1.9309484e-05
3.1263627e-06
-1.092319e-05
1.0427074e-05
-2.9421845e-05
1.509043e-05
-3.4425945e-05
2.2167599e-05
-4.7502087e-05
2.8370958e-05
-5.1301813e-05
3.6397695e-05
-5.9365729e-05
4.6291273e-05
-6.597459e-05
5.8282053e-05
-7.1434285e-05
7.1346399e-05
-7.3101446e-05
8.4361505e-05
-7.031823e-05
9.646963e-05
-6.3386452e-05
0.00010706948
-5.2735217e-05
0.00011574965
-3.8823045e-05
0.00012221563
-2.2106968e-05
0.00012624899
-3.0653345e-06
0.00012777966
1.7681583e-05
0.00012677966
3.9686003e-05
0.00012332017
6.2435709e-05
0.00011751934
8.5538734e-05
0.00010950877
0.00010870261
9.9398399e-05
0.00013173905
8.7243835e-05
0.00015455184
7.3022628e-05
0.00017710539
5.6622747e-05
0.00019938143
3.7845424e-05
0.0002213248
1.6426645e-05
0.00024278779
-7.9269654e-06
0.00026348713
-3.5497978e-05
0.00028293697
-6.6517294e-05
0.00030047597
-0.00010106747
0.00031513515
-0.00013900122
0.0003256939
-0.00017984156
0.00033067587
-0.00022266954
0.00032840158
-0.00026602531
0.00031711011
-0.00030783968
0.00029513156
-0.00034544746
0.00026121029
-0.00037576473
0.00021498781
-0.00039571566
0.00015755473
-0.00040290535
9.1790993e-05
-0.00039614867
2.2066397e-05
-0.00037568143
-4.7163831e-05
-0.00034365943
-0.00010979945
-0.00030316532
-0.00016202141
-0.00025745006
-0.00020216872
-0.00020951901
-0.00022986629
-0.00016197041