/*--------------------------------*- C++ -*----------------------------------*\
| =========                 |                                                 |
| \\      /  F ield         | OpenFOAM: The Open Source CFD Toolbox           |
|  \\    /   O peration     | Version:  2306                                  |
|   \\  /    A nd           | Website:  www.openfoam.com                      |
|    \\/     M anipulation  |                                                 |
\*---------------------------------------------------------------------------*/
FoamFile
{
    version     2.0;
    format      ascii;
    arch        "LSB;label=32;scalar=64";
    class       surfaceScalarField;
    location    "0.37";
    object      phi;
}
// * * * * * * * * * * * * * * * * * * * * * * * * * * * * * * * * * * * * * //

dimensions      [0 3 -1 0 0 0 0];

oriented        oriented;

internalField   nonuniform List<scalar> 
12640
(
8.2348847e-11
-8.2348811e-11
3.693247e-11
4.5416252e-11
-2.6285002e-10
2.9978247e-10
-9.7824956e-10
7.1539959e-10
-2.1489296e-09
1.17068e-09
-3.7567804e-09
1.6078509e-09
-5.7977657e-09
2.0409852e-09
-8.2764472e-09
2.478682e-09
-1.1205604e-08
2.9291565e-09
-1.4604871e-08
3.3992673e-09
-1.8498783e-08
3.893911e-09
-2.2915259e-08
4.4164783e-09
-2.7884666e-08
4.9694064e-09
-3.3439063e-08
5.5543975e-09
-3.9611613e-08
6.1725505e-09
-4.6436064e-08
6.8244504e-09
-5.3946263e-08
7.5102e-09
-6.2175727e-08
8.2294646e-09
-7.1157216e-08
8.9814873e-09
-8.0922326e-08
9.765111e-09
-9.1501115e-08
1.057879e-08
-1.0292173e-07
1.1420619e-08
-1.1521008e-07
1.2288345e-08
-1.2838945e-07
1.3179368e-08
-1.424802e-07
1.4090755e-08
-1.574995e-07
1.5019293e-08
-1.7346097e-07
1.5961476e-08
-1.9037456e-07
1.6913582e-08
-2.0824624e-07
1.787168e-08
-2.270779e-07
1.8831661e-08
-2.4686718e-07
1.9789283e-08
-2.6760738e-07
2.0740193e-08
-2.8928736e-07
2.1679984e-08
-3.1189155e-07
2.2604193e-08
-3.3539992e-07
2.3508368e-08
-3.5978801e-07
2.4388089e-08
-3.8502702e-07
2.5239e-08
-4.1108387e-07
2.6056856e-08
-4.3792141e-07
2.6837536e-08
-4.6549849e-07
2.7577083e-08
-4.9377022e-07
2.8271732e-08
-5.2268815e-07
2.8917931e-08
-5.5220053e-07
2.9512373e-08
-5.8225253e-07
3.0052001e-08
-6.1278657e-07
3.0534047e-08
-6.4374261e-07
3.0956033e-08
-6.750584e-07
3.1315783e-08
-7.0666985e-07
3.1611451e-08
-7.3851134e-07
3.1841496e-08
-7.7051608e-07
3.2004739e-08
-8.0261639e-07
3.2100308e-08
-8.3474407e-07
3.2127676e-08
-8.6683069e-07
3.2086627e-08
-8.9880798e-07
3.1977286e-08
-9.3060806e-07
3.1800078e-08
-9.621638e-07
3.1555751e-08
-9.9340912e-07
3.1245315e-08
-1.0242792e-06
3.0870089e-08
-1.0547108e-06
3.0431628e-08
-1.0846426e-06
2.9931737e-08
-1.114015e-06
2.9372457e-08
-1.1427711e-06
2.8756029e-08
-1.1708559e-06
2.8084863e-08
-1.1982175e-06
2.7361564e-08
-1.2248063e-06
2.6588859e-08
-1.2505759e-06
2.5769596e-08
-1.2754827e-06
2.4906734e-08
-1.299486e-06
2.4003324e-08
-1.3225485e-06
2.3062459e-08
-1.3446358e-06
2.2087291e-08
-1.3657167e-06
2.1080986e-08
-1.3857635e-06
2.0046733e-08
-1.4047512e-06
1.8987692e-08
-1.4226582e-06
1.7906995e-08
-1.4394659e-06
1.680771e-08
-1.4551587e-06
1.5692858e-08
-1.4697241e-06
1.4565383e-08
-1.4831523e-06
1.3428229e-08
-1.4954367e-06
1.2284319e-08
1.1136625e-08
-8.2900159e-10
7.4665269e-10
-3.5189386e-09
2.7353534e-09
-8.222121e-09
5.0029648e-09
-1.5118032e-08
7.6113107e-09
-2.4268315e-08
1.0320963e-08
-3.5687448e-08
1.3026984e-08
-4.9375532e-08
1.5729069e-08
-6.5333477e-08
1.8436627e-08
-8.3566558e-08
2.1162238e-08
-1.0408492e-07
2.3917627e-08
-1.269027e-07
2.6711694e-08
-1.5203669e-07
2.9550468e-08
-1.7950496e-07
3.2437677e-08
-2.0932574e-07
3.5375179e-08
-2.4151649e-07
3.8363297e-08
-2.7609305e-07
4.1401007e-08
-3.1306891e-07
4.4486066e-08
-3.5245456e-07
4.7615111e-08
-3.9425678e-07
5.0783713e-08
-4.3847812e-07
5.3986445e-08
-4.8511627e-07
5.7216943e-08
-5.3416363e-07
6.0467975e-08
-5.8560676e-07
6.373148e-08
-6.39426e-07
6.6998607e-08
-6.9559502e-07
7.0259772e-08
-7.5408048e-07
7.3504756e-08
-8.1484175e-07
7.6722751e-08
-8.7783066e-07
7.990249e-08
-9.4299131e-07
8.3032323e-08
-1.0102599e-06
8.6100295e-08
-1.0795649e-06
8.9094273e-08
-1.1508268e-06
9.2002013e-08
-1.2239581e-06
9.4811287e-08
-1.2988638e-06
9.7509946e-08
-1.3754415e-06
1.0008605e-07
-1.4535813e-06
1.0252792e-07
-1.5331666e-06
1.0482429e-07
-1.6140741e-06
1.0696432e-07
-1.6961743e-06
1.0893777e-07
-1.7793322e-06
1.1073498e-07
-1.8634075e-06
1.12347e-07
-1.9482552e-06
1.1376564e-07
-2.0337263e-06
1.1498351e-07
-2.1196684e-06
1.1599409e-07
-2.2059261e-06
1.1679178e-07
-2.292342e-06
1.1737186e-07
-2.3787568e-06
1.1773063e-07
-2.4650107e-06
1.1786533e-07
-2.5509434e-06
1.1777419e-07
-2.6363951e-06
1.1745645e-07
-2.7212071e-06
1.169123e-07
-2.8052223e-06
1.1614289e-07
-2.888286e-06
1.1515034e-07
-2.9702463e-06
1.1393765e-07
-3.050955e-06
1.1250871e-07
-3.1302675e-06
1.1086826e-07
-3.208044e-06
1.0902182e-07
-3.2841496e-06
1.0697566e-07
-3.3584547e-06
1.047367e-07
-3.4308355e-06
1.0231255e-07
-3.5011743e-06
9.9711332e-08
-3.56936e-06
9.6941698e-08
-3.6352879e-06
9.401274e-08
-3.6988603e-06
9.0933939e-08
-3.7599865e-06
8.7715073e-08
-3.8185831e-06
8.4366192e-08
-3.8745738e-06
8.0897504e-08
-3.9278899e-06
7.7319394e-08
-3.9784697e-06
7.3642278e-08
-4.0262591e-06
6.987663e-08
-4.071211e-06
6.6032882e-08
-4.1132856e-06
6.2121385e-08
-4.1524503e-06
5.815234e-08
-4.188679e-06
5.4135767e-08
-4.2219527e-06
5.0081428e-08
-4.2522587e-06
4.5998824e-08
-4.2795905e-06
4.1897195e-08
-4.3039478e-06
3.7785531e-08
-4.3253361e-06
3.367264e-08
2.95671e-08
-1.812842e-09
2.5594947e-09
-7.2407361e-09
8.1632475e-09
-1.6376463e-08
1.4138691e-08
-2.9290747e-08
2.0525596e-08
-4.6040699e-08
2.7070915e-08
-6.6658204e-08
3.3644489e-08
-9.1152616e-08
4.022348e-08
-1.1952345e-07
4.6807465e-08
-1.5176624e-07
5.3405027e-08
-1.8787474e-07
6.0026121e-08
-2.2784156e-07
6.6678518e-08
-2.7165795e-07
7.3366859e-08
-3.1931308e-07
8.0092809e-08
-3.7079332e-07
8.6855414e-08
-4.2608145e-07
9.3651427e-08
-4.8515597e-07
1.0047553e-07
-5.4799042e-07
1.0732051e-07
-6.1455271e-07
1.1417741e-07
-6.8480459e-07
1.2103559e-07
-7.5870102e-07
1.2788287e-07
-8.3618971e-07
1.3470564e-07
-9.1721067e-07
1.4148894e-07
-1.0016958e-06
1.4821659e-07
-1.0895685e-06
1.5487128e-07
-1.1807434e-06
1.6143467e-07
-1.2751261e-06
1.6788753e-07
-1.3726133e-06
1.7420989e-07
-1.473092e-06
1.8038121e-07
-1.5764402e-06
1.8638051e-07
-1.6825265e-06
1.9218657e-07
-1.7912102e-06
1.9777805e-07
-1.9023419e-06
2.031337e-07
-2.0157632e-06
2.0823254e-07
-2.1313072e-06
2.1305398e-07
-2.2487992e-06
2.1757799e-07
-2.3680566e-06
2.2178531e-07
-2.4888898e-06
2.2565754e-07
-2.6111028e-06
2.2917734e-07
-2.7344936e-06
2.3232852e-07
-2.8588548e-06
2.3509619e-07
-2.9839746e-06
2.3746686e-07
-3.1096375e-06
2.3942855e-07
-3.2356249e-06
2.4097084e-07
-3.3617158e-06
2.4208501e-07
-3.487688e-06
2.4276402e-07
-3.6133187e-06
2.4300258e-07
-3.7383853e-06
2.4279722e-07
-3.8626663e-06
2.4214625e-07
-3.9859418e-06
2.4104976e-07
-4.1079951e-06
2.3950968e-07
-4.2286124e-06
2.3752962e-07
-4.3475845e-06
2.3511497e-07
-4.4647069e-06
2.3227273e-07
-4.5797807e-06
2.2901153e-07
-4.6926135e-06
2.2534151e-07
-4.8030195e-06
2.2127424e-07
-4.9108203e-06
2.1682266e-07
-5.0158456e-06
2.1200091e-07
-5.1179332e-06
2.068243e-07
-5.2169298e-06
2.0130916e-07
-5.3126912e-06
1.954727e-07
-5.4050825e-06
1.8933298e-07
-5.4939784e-06
1.8290868e-07
-5.5792635e-06
1.7621905e-07
-5.6608322e-06
1.6928381e-07
-5.738589e-06
1.6212298e-07
-5.8124483e-06
1.5475675e-07
-5.8823344e-06
1.4720549e-07
-5.9481816e-06
1.3948954e-07
-6.0099341e-06
1.3162914e-07
-6.0675456e-06
1.2364436e-07
-6.1209792e-06
1.1555498e-07
-6.1702073e-06
1.0738041e-07
-6.2152111e-06
9.9139591e-08
-6.2559806e-06
9.0850907e-08
-6.2925139e-06
8.2532145e-08
-6.3248172e-06
7.4200519e-08
-6.3529043e-06
6.587261e-08
-6.3767961e-06
5.7564485e-08
4.929161e-08
-2.507528e-09
5.0670228e-09
-9.9175202e-09
1.557324e-08
-2.222623e-08
2.6447401e-08
-3.9417588e-08
3.7716954e-08
-6.1520983e-08
4.9174311e-08
-8.8568539e-08
6.0692045e-08
-1.2057385e-07
7.2228786e-08
-1.5753637e-07
8.3769987e-08
-1.9944551e-07
9.5314172e-08
-2.4628321e-07
1.0686382e-07
-2.9802545e-07
1.1842076e-07
-3.5464294e-07
1.2998435e-07
-4.1610113e-07
1.41551e-07
-4.8236e-07
1.5311428e-07
-5.5337357e-07
1.64665e-07
-6.2908946e-07
1.7619141e-07
-7.0944832e-07
1.8767938e-07
-7.943834e-07
1.9911248e-07
-8.8381998e-07
2.1047217e-07
-9.7767498e-07
2.2173787e-07
-1.0758565e-06
2.3288718e-07
-1.1782636e-06
2.4389598e-07
-1.2847856e-06
2.5473862e-07
-1.3953024e-06
2.6538805e-07
-1.5096837e-06
2.7581606e-07
-1.6277896e-06
2.859934e-07
-1.7494698e-06
2.9589005e-07
-1.874564e-06
3.0547541e-07
-2.002902e-06
3.1471857e-07
-2.134304e-06
3.2358851e-07
-2.2685803e-06
3.3205434e-07
-2.4055321e-06
3.4008558e-07
-2.544952e-06
3.4765236e-07
-2.6866237e-06
3.5472568e-07
-2.8303233e-06
3.6127763e-07
-2.9758196e-06
3.6728163e-07
-3.1228747e-06
3.7271261e-07
-3.2712446e-06
3.7754725e-07
-3.4206802e-06
3.8176415e-07
-3.570928e-06
3.8534399e-07
-3.7217309e-06
3.8826969e-07
-3.8728288e-06
3.9052651e-07
-4.0239602e-06
3.9210218e-07
-4.1748622e-06
3.9298705e-07
-4.3252722e-06
3.93174e-07
-4.4749283e-06
3.9265866e-07
-4.6235704e-06
3.9143931e-07
-4.7709411e-06
3.8951697e-07
-4.9167866e-06
3.8689529e-07
-5.0608576e-06
3.8358063e-07
-5.2029098e-06
3.7958188e-07
-5.3427053e-06
3.7491046e-07
-5.4800128e-06
3.6958021e-07
-5.6146085e-06
3.6360727e-07
-5.746277e-06
3.5700997e-07
-5.8748114e-06
3.4980867e-07
-6.0000144e-06
3.4202566e-07
-6.1216984e-06
3.3368492e-07
-6.2396862e-06
3.2481206e-07
-6.3538111e-06
3.1543404e-07
-6.4639174e-06
3.0557907e-07
-6.5698609e-06
2.9527644e-07
-6.6715084e-06
2.8455619e-07
-6.7687385e-06
2.7344918e-07
-6.8614414e-06
2.6198671e-07
-6.9495189e-06
2.5020042e-07
-7.0328842e-06
2.3812212e-07
-7.1114624e-06
2.2578367e-07
-7.1851896e-06
2.1321677e-07
-7.2540133e-06
2.0045279e-07
-7.3178917e-06
1.8752276e-07
-7.3767938e-06
1.7445711e-07
-7.430699e-06
1.6128559e-07
-7.4795965e-06
1.4803712e-07
-7.5234853e-06
1.347397e-07
-7.5623735e-06
1.2142034e-07
-7.5962781e-06
1.0810505e-07
-7.6252242e-06
9.4818802e-08
-7.6492453e-06
8.1585572e-08
6.842845e-08
-2.8979189e-09
7.9649416e-09
-1.1466209e-08
2.414153e-08
-2.5646794e-08
4.0627986e-08
-4.5378738e-08
5.7448897e-08
-7.0663007e-08
7.445858e-08
-1.0151941e-07
9.1548451e-08
-1.3795796e-07
1.0866733e-07
-1.7997609e-07
1.2578812e-07
-2.2755946e-07
1.4289755e-07
-2.8068356e-07
1.5998791e-07
-3.3931508e-07
1.7705229e-07
-4.0341296e-07
1.9408222e-07
-4.7292871e-07
2.1106675e-07
-5.4780646e-07
2.2799204e-07
-6.2798284e-07
2.4484138e-07
-7.1338661e-07
2.6159518e-07
-8.0393829e-07
2.7823106e-07
-8.995498e-07
2.94724e-07
-1.0001241e-06
3.1104643e-07
-1.1055546e-06
3.2716844e-07
-1.2157253e-06
3.4305789e-07
-1.33051e-06
3.5868067e-07
-1.4497723e-06
3.7400089e-07
-1.5733653e-06
3.8898108e-07
-1.7011318e-06
4.0358249e-07
-1.8329037e-06
4.1776532e-07
-1.9685027e-06
4.3148901e-07
-2.1077398e-06
4.4471252e-07
-2.2504159e-06
4.5739467e-07
-2.3963218e-06
4.6949442e-07
-2.5452386e-06
4.8097119e-07
-2.6969382e-06
4.9178521e-07
-2.8511836e-06
5.0189775e-07
-3.0077295e-06
5.1127154e-07
-3.1663228e-06
5.1987094e-07
-3.3267035e-06
5.2766237e-07
-3.4886054e-06
5.3461445e-07
-3.6517564e-06
5.4069832e-07
-3.8158802e-06
5.4588789e-07
-3.9806962e-06
5.5015999e-07
-4.1459211e-06
5.5349459e-07
-4.3112696e-06
5.5587498e-07
-4.4764552e-06
5.5728782e-07
-4.6411915e-06
5.5772334e-07
-4.8051928e-06
5.5717532e-07
-4.9681753e-06
5.5564122e-07
-5.1298582e-06
5.5312212e-07
-5.289964e-06
5.4962278e-07
-5.4482202e-06
5.4515153e-07
-5.6043598e-06
5.3972026e-07
-5.7581222e-06
5.3334428e-07
-5.909254e-06
5.2604224e-07
-6.0575098e-06
5.1783598e-07
-6.2026528e-06
5.0875035e-07
-6.3444559e-06
4.9881307e-07
-6.4827018e-06
4.880545e-07
-6.6171835e-06
4.7650743e-07
-6.7477056e-06
4.6420693e-07
-6.8740835e-06
4.5118998e-07
-6.9961448e-06
4.3749541e-07
-7.1137292e-06
4.2316347e-07
-7.2266886e-06
4.0823576e-07
-7.3348872e-06
3.9275485e-07
-7.4382022e-06
3.7676411e-07
-7.5365229e-06
3.6030745e-07
-7.6297516e-06
3.4342911e-07
-7.7178029e-06
3.2617338e-07
-7.8006036e-06
3.0858445e-07
-7.878093e-06
2.9070617e-07
-7.9502221e-06
2.7258186e-07
-8.0169535e-06
2.5425416e-07
-8.0782612e-06
2.3576478e-07
-8.13413e-06
2.1715442e-07
-8.1845554e-06
1.9846253e-07
-8.2295429e-06
1.7972721e-07
-8.2691078e-06
1.6098517e-07
-8.3032744e-06
1.4227162e-07
-8.3320758e-06
1.2362027e-07
-8.3555536e-06
1.0506339e-07
8.6631896e-08
-3.0784346e-09
1.1043376e-08
-1.2218494e-08
3.328159e-08
-2.734979e-08
5.5759282e-08
-4.8401903e-08
7.850101e-08
-7.5356976e-08
1.0141365e-07
-1.0821954e-07
1.2441102e-07
-1.4699149e-07
1.4743928e-07
-1.9166599e-07
1.7046261e-07
-2.4222565e-07
1.9345721e-07
-2.9864276e-07
2.1640502e-07
-3.6088001e-07
2.3928954e-07
-4.2889121e-07
2.6209343e-07
-5.0262167e-07
2.847972e-07
-5.8200828e-07
3.0737865e-07
-6.6697947e-07
3.2981257e-07
-7.5745494e-07
3.5207065e-07
-8.5334541e-07
3.7412153e-07
-9.5455225e-07
3.9593084e-07
-1.0609672e-06
4.1746137e-07
-1.172472e-06
4.3867322e-07
-1.2889381e-06
4.5952398e-07
-1.4102264e-06
4.7996901e-07
-1.5361872e-06
4.999617e-07
-1.6666598e-06
5.1945371e-07
-1.8014727e-06
5.3839534e-07
-1.9404432e-06
5.5673584e-07
-2.083378e-06
5.7442378e-07
-2.2300728e-06
5.9140735e-07
-2.380313e-06
6.0763487e-07
-2.5338737e-06
6.2305505e-07
-2.6905199e-06
6.3761746e-07
-2.8500076e-06
6.5127288e-07
-3.0120836e-06
6.6397373e-07
-3.1764864e-06
6.7567436e-07
-3.342947e-06
6.8633152e-07
-3.5111893e-06
6.9590466e-07
-3.6809311e-06
7.0435624e-07
-3.8518848e-06
7.1165209e-07
-4.0237585e-06
7.1776161e-07
-4.1962567e-06
7.2265809e-07
-4.369081e-06
7.2631894e-07
-4.5419318e-06
7.2872578e-07
-4.7145086e-06
7.2986465e-07
-4.8865115e-06
7.2972617e-07
-5.0576416e-06
7.2830549e-07
-5.2276029e-06
7.2560247e-07
-5.3961023e-06
7.2162157e-07
-5.5628515e-06
7.163719e-07
-5.727567e-06
7.098671e-07
-5.889972e-06
7.0212527e-07
-6.0497966e-06
6.9316883e-07
-6.2067787e-06
6.8302437e-07
-6.3606652e-06
6.7172242e-07
-6.5112121e-06
6.5929729e-07
-6.6581858e-06
6.4578681e-07
-6.8013634e-06
6.3123208e-07
-6.9405331e-06
6.1567715e-07
-7.075495e-06
5.9916881e-07
-7.2060613e-06
5.8175626e-07
-7.3320567e-06
5.6349078e-07
-7.4533187e-06
5.4442544e-07
-7.5696977e-06
5.2461481e-07
-7.6810574e-06
5.0411457e-07
-7.7872746e-06
4.8298128e-07
-7.8882392e-06
4.6127207e-07
-7.9838544e-06
4.3904428e-07
-8.0740363e-06
4.1635528e-07
-8.1587139e-06
3.932621e-07
-8.2378289e-06
3.6982119e-07
-8.3113353e-06
3.4608827e-07
-8.3791991e-06
3.2211796e-07
-8.441398e-06
2.9796367e-07
-8.4979209e-06
2.7367734e-07
-8.5487677e-06
2.4930927e-07
-8.5939485e-06
2.2490798e-07
-8.6334834e-06
2.0052009e-07
-8.667402e-06
1.7619024e-07
-8.6957428e-06
1.5196109e-07
-8.7185527e-06
1.2787331e-07
1.0396576e-07
-3.1459252e-09
1.4189302e-08
-1.2524511e-08
4.2660176e-08
-2.8076392e-08
7.1311163e-08
-4.9740978e-08
1.001656e-07
-7.7492464e-08
1.2916514e-07
-1.1132348e-07
1.5824203e-07
-1.5122757e-07
1.8734337e-07
-1.9719292e-07
2.1642797e-07
-2.4919941e-07
2.454637e-07
-3.0721774e-07
2.7442335e-07
-3.7120943e-07
3.0328123e-07
-4.4112701e-07
3.3201101e-07
-5.1691421e-07
3.605844e-07
-5.9850592e-07
3.8897036e-07
-6.8582809e-07
4.1713474e-07
-7.787975e-07
4.4504006e-07
-8.7732149e-07
4.7264551e-07
-9.8129762e-07
4.9990697e-07
-1.0906134e-06
5.2677712e-07
-1.2051458e-06
5.5320567e-07
-1.3247614e-06
5.7913954e-07
-1.4493155e-06
6.0452317e-07
-1.5786527e-06
6.2929885e-07
-1.712606e-06
6.5340699e-07
-1.8509972e-06
6.767866e-07
-1.993637e-06
6.9937561e-07
-2.1403246e-06
7.2111135e-07
-2.2908482e-06
7.41931e-07
-2.4449854e-06
7.61772e-07
-2.6025029e-06
7.8057257e-07
-2.7631576e-06
7.9827214e-07
-2.9266965e-06
8.1481185e-07
-3.0928578e-06
8.30135e-07
-3.2613709e-06
8.4418747e-07
-3.4319576e-06
8.5691823e-07
-3.6043326e-06
8.6827968e-07
-3.7782044e-06
8.7822805e-07
-3.9532762e-06
8.8672382e-07
-4.1292465e-06
8.9373195e-07
-4.3058107e-06
8.9922227e-07
-4.4826614e-06
9.0316965e-07
-4.6594899e-06
9.0555424e-07
-4.8359869e-06
9.0636166e-07
-5.0118438e-06
9.0558308e-07
-5.1867537e-06
9.0321535e-07
-5.3604122e-06
8.9926097e-07
-5.5325187e-06
8.9372813e-07
-5.7027774e-06
8.8663064e-07
-5.8708982e-06
8.7798785e-07
-6.0365974e-06
8.6782448e-07
-6.1995991e-06
8.5617051e-07
-6.3596356e-06
8.4306089e-07
-6.5164486e-06
8.2853538e-07
-6.6697895e-06
8.126382e-07
-6.8194205e-06
7.9541779e-07
-6.9651149e-06
7.769265e-07
-7.1066579e-06
7.5722015e-07
-7.2438469e-06
7.3635781e-07
-7.3764919e-06
7.1440132e-07
-7.5044162e-06
6.9141499e-07
-7.6274559e-06
6.6746515e-07
-7.7454609e-06
6.4261982e-07
-7.8582946e-06
6.1694829e-07
-7.9658341e-06
5.9052077e-07
-8.06797e-06
5.63408e-07
-8.1646066e-06
5.3568087e-07
-8.2556615e-06
5.0741018e-07
-8.3410656e-06
4.7866616e-07
-8.4207626e-06
4.4951825e-07
-8.4947091e-06
4.200348e-07
-8.5628739e-06
3.9028278e-07
-8.6252378e-06
3.603275e-07
-8.6817929e-06
3.3023244e-07
-8.7325426e-06
3.0005894e-07
-8.7775007e-06
2.6986611e-07
-8.8166913e-06
2.3971066e-07
-8.8501478e-06
2.0964679e-07
-8.8779129e-06
1.7972618e-07
-8.9000375e-06
1.4999792e-07
1.2050862e-07
-3.1636146e-09
1.7352916e-08
-1.2622787e-08
5.2119348e-08
-2.8335943e-08
8.7024319e-08
-5.0258732e-08
1.2208838e-07
-7.8365317e-08
1.5727172e-07
-1.1264167e-07
1.9251838e-07
-1.5307528e-07
2.2777698e-07
-1.9965025e-07
2.6300293e-07
-2.5234432e-07
2.9815778e-07
-3.1112753e-07
3.3320656e-07
-3.759616e-07
3.681153e-07
-4.4679974e-07
4.0284915e-07
-5.2358647e-07
4.3737112e-07
-6.0625741e-07
4.716413e-07
-6.9473912e-07
5.0561645e-07
-7.8894875e-07
5.3924969e-07
-8.8879372e-07
5.7249049e-07
-9.9417142e-07
6.0528467e-07
-1.1049688e-06
6.3757453e-07
-1.2210622e-06
6.6929904e-07
-1.3423168e-06
7.0039411e-07
-1.4685865e-06
7.3079293e-07
-1.599714e-06
7.6042627e-07
-1.73553e-06
7.8922298e-07
-1.8758537e-06
8.1711035e-07
-2.0204927e-06
8.4401463e-07
-2.1692429e-06
8.6986157e-07
-2.3218888e-06
8.9457685e-07
-2.4782035e-06
9.1808675e-07
-2.6379496e-06
9.4031859e-07
-2.8008787e-06
9.6120133e-07
-2.966733e-06
9.8066612e-07
-3.1352448e-06
9.9864684e-07
-3.306138e-06
1.0150806e-06
-3.4791281e-06
1.0299084e-06
-3.6539237e-06
1.0430752e-06
-3.8302266e-06
1.054531e-06
-4.0077335e-06
1.0642307e-06
-4.1861362e-06
1.0721347e-06
-4.3651231e-06
1.0782092e-06
-4.5443801e-06
1.0824266e-06
-4.7235915e-06
1.0847657e-06
-4.9024414e-06
1.0852115e-06
-5.0806144e-06
1.0837561e-06
-5.2577969e-06
1.0803979e-06
-5.4336782e-06
1.0751423e-06
-5.6079516e-06
1.0680015e-06
-5.7803151e-06
1.0589942e-06
-5.9504731e-06
1.0481458e-06
-6.1181365e-06
1.0354879e-06
-6.2830243e-06
1.0210583e-06
-6.4448642e-06
1.0049008e-06
-6.6033936e-06
9.8706475e-07
-6.75836e-06
9.6760464e-07
-6.9095222e-06
9.4657997e-07
-7.0566504e-06
9.2405475e-07
-7.1995273e-06
9.0009704e-07
-7.3379481e-06
8.7477857e-07
-7.4717211e-06
8.4817435e-07
-7.6006682e-06
8.2036209e-07
-7.7246249e-06
7.9142185e-07
-7.8434406e-06
7.6143552e-07
-7.9569787e-06
7.3048642e-07
-8.0651167e-06
6.9865877e-07
-8.1677461e-06
6.6603734e-07
-8.2647722e-06
6.3270694e-07
-8.3561141e-06
5.9875211e-07
-8.4417045e-06
5.6425662e-07
-8.5214895e-06
5.293032e-07
-8.5954278e-06
4.939731e-07
-8.6634909e-06
4.5834588e-07
-8.7256624e-06
4.2249902e-07
-8.7819376e-06
3.8650767e-07
-8.8323231e-06
3.5044443e-07
-8.8768361e-06
3.1437914e-07
-8.9155042e-06
2.783787e-07
-8.9483644e-06
2.4250696e-07
-8.9754628e-06
2.0682462e-07
-8.9968541e-06
1.7138921e-07
1.3625517e-07
-3.1642957e-09
2.0517212e-08
-1.2642724e-08
6.1597777e-08
-2.8410057e-08
1.0279165e-07
-5.0437396e-08
1.4411572e-07
-7.8703063e-08
1.8553739e-07
-1.1319097e-07
2.2700629e-07
-1.5388556e-07
2.6847157e-07
-2.0076852e-07
3.098859e-07
-2.5381652e-07
3.5120577e-07
-3.1299968e-07
3.9238972e-07
-3.7828076e-07
4.3339639e-07
-4.4961459e-07
4.7418299e-07
-5.2694765e-07
5.1470418e-07
-6.1021768e-07
5.5491133e-07
-6.9935334e-07
5.947521e-07
-7.9427378e-07
6.3417013e-07
-8.948883e-07
6.7310501e-07
-1.0010959e-06
7.1149227e-07
-1.1127849e-06
7.4926357e-07
-1.2298327e-06
7.8634683e-07
-1.3521052e-06
8.2266663e-07
-1.4794568e-06
8.581445e-07
-1.6117299e-06
8.9269937e-07
-1.748755e-06
9.2624806e-07
-1.8903504e-06
9.5870574e-07
-2.0363223e-06
9.8998656e-07
-2.1864649e-06
1.0200042e-06
-2.3405605e-06
1.0486724e-06
-2.4983796e-06
1.0759059e-06
-2.6596815e-06
1.1016205e-06
-2.8242147e-06
1.1257344e-06
-2.9917169e-06
1.1481684e-06
-3.1619164e-06
1.1688464e-06
-3.3345322e-06
1.1876964e-06
-3.5092748e-06
1.204651e-06
-3.6858474e-06
1.2196477e-06
-3.8639461e-06
1.2326297e-06
-4.0432616e-06
1.2435462e-06
-4.2234797e-06
1.2523528e-06
-4.4042825e-06
1.259012e-06
-4.5853495e-06
1.2634936e-06
-4.7663586e-06
1.2657748e-06
-4.9469873e-06
1.2658403e-06
-5.1269139e-06
1.2636827e-06
-5.3058185e-06
1.2593024e-06
-5.4833841e-06
1.2527079e-06
-5.6592979e-06
1.2439153e-06
-5.8332523e-06
1.2329486e-06
-6.0049458e-06
1.2198393e-06
-6.1740841e-06
1.2046262e-06
-6.3403814e-06
1.1873556e-06
-6.5035606e-06
1.1680801e-06
-6.6633548e-06
1.146859e-06
-6.8195079e-06
1.1237577e-06
-6.971775e-06
1.0988471e-06
-7.1199235e-06
1.0722033e-06
-7.2637334e-06
1.0439069e-06
-7.4029979e-06
1.014043e-06
-7.5375236e-06
9.827001e-07
-7.6671313e-06
9.4996976e-07
-7.7916557e-06
9.1594622e-07
-7.9109459e-06
8.8072571e-07
-8.0248654e-06
8.4440594e-07
-8.1332923e-06
8.0708564e-07
-8.2361189e-06
7.6886393e-07
-8.3332519e-06
7.2983996e-07
-8.4246121e-06
6.9011234e-07
-8.5101342e-06
6.4977873e-07
-8.5897664e-06
6.089354e-07
-8.6634702e-06
5.6767686e-07
-8.7312198e-06
5.2609547e-07
-8.7930018e-06
4.8428108e-07
-8.8488149e-06
4.4232076e-07
-8.898669e-06
4.0029853e-07
-8.942585e-06
3.5829508e-07
-8.9805939e-06
3.1638763e-07
-9.0127367e-06
2.7464973e-07
-9.0390632e-06
2.3315118e-07
-9.059632e-06
1.9195795e-07
1.5113226e-07
-3.1620241e-09
2.3679236e-08
-1.2643146e-08
7.1078898e-08
-2.8430444e-08
1.1857895e-07
-5.0507302e-08
1.6619258e-07
-7.8857678e-08
2.1388777e-07
-1.1346653e-07
2.6161515e-07
-1.5431784e-07
3.0932287e-07
-2.0139277e-07
3.5696083e-07
-2.5466809e-07
4.0448109e-07
-3.1411488e-07
4.5183651e-07
-3.7969759e-07
4.9897909e-07
-4.513733e-07
5.4585869e-07
-5.290911e-07
5.9242198e-07
-6.1279159e-07
6.3861183e-07
-7.0240633e-07
6.8436683e-07
-7.9785734e-07
7.2962115e-07
-8.9905669e-07
7.7430435e-07
-1.0059059e-06
8.183415e-07
-1.1182957e-06
8.6165333e-07
-1.2361053e-06
9.0415643e-07
-1.3592023e-06
9.4576367e-07
-1.4874423e-06
9.8638454e-07
-1.6206687e-06
1.0259257e-06
-1.758712e-06
1.0642914e-06
-1.9013906e-06
1.1013844e-06
-2.0485101e-06
1.137106e-06
-2.1998633e-06
1.1713574e-06
-2.3552309e-06
1.20404e-06
-2.5143812e-06
1.2350562e-06
-2.6770707e-06
1.2643101e-06
-2.8430446e-06
1.2917083e-06
-3.0120369e-06
1.3171607e-06
-3.1837717e-06
1.3405811e-06
-3.3579631e-06
1.3618878e-06
-3.5343166e-06
1.3810045e-06
-3.7125297e-06
1.3978609e-06
-3.892293e-06
1.412393e-06
-4.0732908e-06
1.424544e-06
-4.2552025e-06
1.4342645e-06
-4.4377036e-06
1.4415131e-06
-4.6204669e-06
1.4462569e-06
-4.8031633e-06
1.4484712e-06
-4.9854636e-06
1.4481406e-06
-5.1670391e-06
1.4452581e-06
-5.347563e-06
1.4398264e-06
-5.5267118e-06
1.4318567e-06
-5.7041661e-06
1.4213696e-06
-5.8796119e-06
1.4083944e-06
-6.0527417e-06
1.3929691e-06
-6.2232556e-06
1.3751401e-06
-6.3908623e-06
1.3549622e-06
-6.5552797e-06
1.3324974e-06
-6.7162363e-06
1.3078156e-06
-6.8734719e-06
1.2809932e-06
-7.0267378e-06
1.2521131e-06
-7.1757984e-06
1.2212638e-06
-7.3204308e-06
1.1885394e-06
-7.4604261e-06
1.1540383e-06
-7.5955892e-06
1.1178632e-06
-7.7257396e-06
1.0801201e-06
-7.8507113e-06
1.0409179e-06
-7.9703532e-06
1.0003676e-06
-8.084529e-06
9.5858182e-07
-8.1931176e-06
9.1567419e-07
-8.2960124e-06
8.717587e-07
-8.3931216e-06
8.2694917e-07
-8.4843679e-06
7.8135871e-07
-8.5696884e-06
7.3509922e-07
-8.6490339e-06
6.8828087e-07
-8.7223687e-06
6.4101169e-07
-8.7896704e-06
5.9339712e-07
-8.8509289e-06
5.4553964e-07
-8.9061466e-06
4.9753844e-07
-8.9553372e-06
4.494891e-07
-8.9985254e-06
4.0148336e-07
-9.0357466e-06
3.5360882e-07
-9.0670457e-06
3.0594882e-07
-9.0924768e-06
2.585823e-07
-9.1121026e-06
2.1158373e-07
1.6502303e-07
-3.1615459e-09
2.6840782e-08
-1.2646075e-08
8.0563428e-08
-2.8449107e-08
1.3438198e-07
-5.0563066e-08
1.8830654e-07
-7.8977617e-08
2.4230232e-07
-1.1368052e-07
2.9631805e-07
-1.546572e-07
3.5029955e-07
-2.018899e-07
4.0419353e-07
-2.5535671e-07
4.579479e-07
-3.1503054e-07
5.1151034e-07
-3.808782e-07
5.6482676e-07
-4.528596e-07
6.1784009e-07
-5.3092699e-07
6.7048938e-07
-6.1502433e-07
7.2270917e-07
-7.0508663e-07
7.7442913e-07
-8.0103935e-07
8.2557387e-07
-9.0279784e-07
8.7606284e-07
-1.0102668e-06
9.2581043e-07
-1.1233396e-06
9.7472617e-07
-1.2418982e-06
1.022715e-06
-1.3658122e-06
1.0696777e-06
-1.4949389e-06
1.1155112e-06
-1.6291226e-06
1.1601094e-06
-1.7681949e-06
1.2033637e-06
-1.911974e-06
1.2451635e-06
-2.0602651e-06
1.285397e-06
-2.2128599e-06
1.3239522e-06
-2.3695374e-06
1.3607175e-06
-2.5300636e-06
1.3955824e-06
-2.6941922e-06
1.4284387e-06
-2.8616648e-06
1.4591808e-06
-3.0322114e-06
1.4877073e-06
-3.2055513e-06
1.513921e-06
-3.3813937e-06
1.5377302e-06
-3.5594383e-06
1.5590492e-06
-3.7393766e-06
1.5777992e-06
-3.9208925e-06
1.5939089e-06
-4.1036637e-06
1.6073151e-06
-4.2873624e-06
1.6179632e-06
-4.4716568e-06
1.6258075e-06
-4.6562119e-06
1.6308121e-06
-4.8406913e-06
1.6329507e-06
-5.0247579e-06
1.6322071e-06
-5.2080754e-06
1.6285756e-06
-5.3903093e-06
1.6220603e-06
-5.5711287e-06
1.6126761e-06
-5.7502068e-06
1.6004477e-06
-5.9272227e-06
1.5854102e-06
-6.101862e-06
1.5676085e-06
-6.2738186e-06
1.5470967e-06
-6.442795e-06
1.5239386e-06
-6.6085038e-06
1.4982062e-06
-6.7706683e-06
1.4699801e-06
-6.9290236e-06
1.4393485e-06
-7.0833171e-06
1.4064066e-06
-7.2333096e-06
1.3712563e-06
-7.3787753e-06
1.3340051e-06
-7.5195028e-06
1.2947658e-06
-7.6552953e-06
1.2536557e-06
-7.785971e-06
1.2107958e-06
-7.9113633e-06
1.1663101e-06
-8.0313208e-06
1.1203251e-06
-8.1457077e-06
1.0729688e-06
-8.2544037e-06
1.0243702e-06
-8.3573037e-06
9.7465868e-07
-8.4543177e-06
9.239632e-07
-8.5453708e-06
8.7241181e-07
-8.6304026e-06
8.2013104e-07
-8.7093671e-06
7.672453e-07
-8.7822319e-06
7.1387651e-07
-8.8489783e-06
6.6014348e-07
-8.9096002e-06
6.0616159e-07
-8.9641041e-06
5.5204234e-07
-9.0125081e-06
4.9789312e-07
-9.0548415e-06
4.4381675e-07
-9.0911441e-06
3.899114e-07
-9.1214656e-06
3.362703e-07
-9.1458648e-06
2.8298156e-07
-9.1644093e-06
2.3012815e-07
1.777878e-07
-3.1637735e-09
3.0004555e-08
-1.2657365e-08
9.0057019e-08
-2.8481914e-08
1.5020653e-07
-5.0636396e-08
2.1046102e-07
-7.911572e-08
2.7078164e-07
-1.1391131e-07
3.3111364e-07
-1.550113e-07
3.9139954e-07
-2.0240028e-07
4.5158251e-07
-2.5605876e-07
5.1160638e-07
-3.1596234e-07
5.7141392e-07
-3.8208093e-07
6.3094535e-07
-4.5437787e-07
6.9013703e-07
-5.3280912e-07
7.4892063e-07
-6.173225e-07
8.0722255e-07
-7.0785697e-07
8.649636e-07
-8.043419e-07
9.2205879e-07
-9.066964e-07
9.7841734e-07
-1.0148287e-06
1.0339427e-06
-1.1286355e-06
1.088533e-06
-1.2480016e-06
1.142081e-06
-1.3727989e-06
1.194475e-06
-1.5028868e-06
1.245599e-06
-1.6381109e-06
1.2953336e-06
-1.7783037e-06
1.3435564e-06
-1.9232833e-06
1.3901432e-06
-2.0728546e-06
1.4349683e-06
-2.2268082e-06
1.4779058e-06
-2.384921e-06
1.5188303e-06
-2.5469567e-06
1.5576181e-06
-2.7126655e-06
1.5941475e-06
-2.8817851e-06
1.6283005e-06
-3.0540411e-06
1.6599633e-06
-3.2291474e-06
1.6890274e-06
-3.4068075e-06
1.7153902e-06
-3.5867146e-06
1.7389563e-06
-3.7685535e-06
1.7596381e-06
-3.9520008e-06
1.7773562e-06
-4.1367262e-06
1.7920406e-06
-4.3223941e-06
1.8036311e-06
-4.5086643e-06
1.8120777e-06
-4.6951935e-06
1.8173412e-06
-4.8816363e-06
1.8193935e-06
-5.0676472e-06
1.818218e-06
-5.252881e-06
1.8138094e-06
-5.436995e-06
1.8061743e-06
-5.6196495e-06
1.7953306e-06
-5.8005098e-06
1.781308e-06
-5.9792468e-06
1.7641473e-06
-6.155539e-06
1.7439006e-06
-6.3290727e-06
1.7206305e-06
-6.4995439e-06
1.6944098e-06
-6.666659e-06
1.6653213e-06
-6.8301357e-06
1.6334568e-06
-6.989704e-06
1.5989167e-06
-7.1451068e-06
1.5618094e-06
-7.2961009e-06
1.5222504e-06
-7.4424575e-06
1.4803617e-06
-7.5839626e-06
1.4362708e-06
-7.7204173e-06
1.3901104e-06
-7.8516386e-06
1.3420171e-06
-7.9774592e-06
1.2921307e-06
-8.0977278e-06
1.2405937e-06
-8.2123091e-06
1.1875501e-06
-8.321084e-06
1.133145e-06
-8.4239489e-06
1.0775236e-06
-8.5208162e-06
1.0208305e-06
-8.6116136e-06
9.6320921e-07
-8.6962839e-06
9.0480131e-07
-8.7747845e-06
8.4574593e-07
-8.8470871e-06
7.8617917e-07
-8.9131772e-06
7.2623358e-07
-8.9730533e-06
6.6603769e-07
-9.0267266e-06
6.0571561e-07
-9.0742201e-06
5.4538663e-07
-9.1155683e-06
4.8516497e-07
-9.1508163e-06
4.2515938e-07
-9.1800191e-06
3.6547306e-07
-9.2032409e-06
3.0620338e-07
-9.2205546e-06
2.4744185e-07
1.8927396e-07
-3.1683672e-09
3.3172922e-08
-1.2676943e-08
9.9565594e-08
-2.8530708e-08
1.660603e-07
-5.073353e-08
2.3266384e-07
-7.9285036e-08
2.9933315e-07
-1.141807e-07
3.6600931e-07
-1.554122e-07
4.3263104e-07
-2.0296745e-07
4.9913775e-07
-2.5683028e-07
5.6546921e-07
-3.1697988e-07
6.3156352e-07
-3.8338998e-07
6.9735545e-07
-4.5602801e-07
7.6277506e-07
-5.3485425e-07
8.2774687e-07
-6.1982098e-07
8.9218928e-07
-7.1087161e-07
9.5601423e-07
-8.0793993e-07
1.0191271e-06
-9.1094931e-07
1.0814267e-06
-1.0198119e-06
1.1428054e-06
-1.1344282e-06
1.2031493e-06
-1.254686e-06
1.2623389e-06
-1.3804603e-06
1.3202493e-06
-1.5116122e-06
1.376751e-06
-1.6479893e-06
1.4317107e-06
-1.7894245e-06
1.4849917e-06
-1.9357365e-06
1.5364552e-06
-2.0867294e-06
1.5859611e-06
-2.2421924e-06
1.6333688e-06
-2.4019005e-06
1.6785384e-06
-2.5656142e-06
1.7213318e-06
-2.7330803e-06
1.7616135e-06
-2.9040318e-06
1.7992521e-06
-3.0781892e-06
1.8341207e-06
-3.2552606e-06
1.8660987e-06
-3.4349427e-06
1.8950723e-06
-3.6169218e-06
1.9209354e-06
-3.8008745e-06
1.9435909e-06
-3.9864695e-06
1.9629511e-06
-4.1733676e-06
1.9789388e-06
-4.3612243e-06
1.9914877e-06
-4.5496898e-06
2.0005432e-06
-4.7384112e-06
2.0060627e-06
-4.9270338e-06
2.0080161e-06
-5.1152018e-06
2.0063861e-06
-5.3025607e-06
2.0011683e-06
-5.4887579e-06
1.9923714e-06
-5.6734443e-06
1.980017e-06
-5.8562761e-06
1.9641397e-06
-6.0369154e-06
1.9447867e-06
-6.2150322e-06
1.9220173e-06
-6.3903048e-06
1.8959031e-06
-6.5624218e-06
1.8665269e-06
-6.7310828e-06
1.8339822e-06
-6.895999e-06
1.7983731e-06
-7.056895e-06
1.7598127e-06
-7.2135087e-06
1.7184232e-06
-7.3655928e-06
1.6743345e-06