/*--------------------------------*- C++ -*----------------------------------*\
| =========                 |                                                 |
| \\      /  F ield         | OpenFOAM: The Open Source CFD Toolbox           |
|  \\    /   O peration     | Version:  2306                                  |
|   \\  /    A nd           | Website:  www.openfoam.com                      |
|    \\/     M anipulation  |                                                 |
\*---------------------------------------------------------------------------*/
FoamFile
{
    version     2.0;
    format      ascii;
    arch        "LSB;label=32;scalar=64";
    class       volVectorField;
    location    "0.37";
    object      U_0;
}
// * * * * * * * * * * * * * * * * * * * * * * * * * * * * * * * * * * * * * //

dimensions      [0 1 -1 0 0 0 0];

internalField   nonuniform List<vector> 
6400
(
(3.2218121e-06 -1.4658158e-05 2.7363916e-21)
(1.9192109e-06 -1.1195001e-05 -1.2209218e-21)
(-1.0677093e-06 -1.0050327e-05 -4.3331978e-21)
(-5.1041013e-06 -8.9910343e-06 1.4496139e-20)
(-1.0859976e-05 -8.3259602e-06 1.7326971e-20)
(-1.7040428e-05 -7.9975955e-06 -9.2914402e-21)
(-2.3473125e-05 -7.776138e-06 -4.9408021e-21)
(-3.0053191e-05 -7.5989387e-06 1.0600289e-20)
(-3.6763082e-05 -7.4350279e-06 1.5065592e-20)
(-4.36155e-05 -7.2696129e-06 -2.2392283e-21)
(-5.0635881e-05 -7.0966798e-06 -1.9411947e-22)
(-5.7853753e-05 -6.9141121e-06 3.9867391e-20)
(-6.5296917e-05 -6.7212149e-06 2.6950738e-20)
(-7.2989515e-05 -6.5179924e-06 -1.7723223e-20)
(-8.0951964e-05 -6.3048379e-06 -1.5810267e-20)
(-8.9201094e-05 -6.0823609e-06 2.2844474e-20)
(-9.7750276e-05 -5.8513223e-06 4.9330534e-20)
(-0.00010660959 -5.6125578e-06 -1.173913e-21)
(-0.00011578597 -5.366965e-06 -3.5681909e-20)
(-0.00012528336 -5.1154697e-06 4.9206502e-22)
(-0.0001351028 -4.859021e-06 9.4091487e-21)
(-0.00014524255 -4.5985705e-06 1.6145612e-20)
(-0.00015569825 -4.3350715e-06 6.701697e-20)
(-0.00016646295 -4.0694759e-06 1.0571626e-19)
(-0.00017752721 -3.8027422e-06 9.792205e-20)
(-0.00018887923 -3.5358019e-06 -1.2621197e-19)
(-0.00020050491 -3.2695782e-06 -3.1023378e-19)
(-0.000212388 -3.0049576e-06 -9.4499776e-20)
(-0.00022451023 -2.7428004e-06 1.0139331e-19)
(-0.00023685143 -2.4839269e-06 1.9124806e-19)
(-0.00024938971 -2.2291286e-06 1.5478279e-19)
(-0.00026210158 -1.9791441e-06 -6.9410586e-20)
(-0.00027496213 -1.7346699e-06 -7.5079149e-20)
(-0.00028794519 -1.4963563e-06 -1.5121401e-19)
(-0.00030102348 -1.2648103e-06 -9.7941824e-20)
(-0.0003141688 -1.0405835e-06 2.1244758e-19)
(-0.00032735219 -8.2417674e-07 -6.1266296e-20)
(-0.00034054413 -6.1603165e-07 -4.6096827e-19)
(-0.00035371466 -4.1654487e-07 1.4274755e-19)
(-0.00036683361 -2.2606039e-07 6.0525632e-19)
(-0.00037987071 -4.4860046e-08 1.0251421e-19)
(-0.00039279584 1.268197e-07 -2.6077987e-19)
(-0.00040557907 2.8879784e-07 -1.7562319e-19)
(-0.00041819095 4.4094304e-07 -5.129623e-20)
(-0.00043060253 5.8317698e-07 1.8959627e-19)
(-0.0004427856 7.1546548e-07 4.9205984e-19)
(-0.00045471276 8.3782158e-07 -2.0266667e-19)
(-0.00046635759 9.5030311e-07 -2.4326476e-19)
(-0.0004776947 1.0530048e-06 -1.6546182e-19)
(-0.00048869991 1.1460727e-06 -7.9059384e-19)
(-0.00049935028 1.229681e-06 3.6682536e-19)
(-0.00050962425 1.3040367e-06 6.4011246e-19)
(-0.00051950167 1.3693812e-06 8.8673859e-20)
(-0.00052896386 1.4259856e-06 2.2785389e-19)
(-0.00053799368 1.4741412e-06 -7.1793713e-19)
(-0.0005465756 1.5141685e-06 -5.7117562e-19)
(-0.00055469564 1.5464025e-06 5.1293613e-19)
(-0.00056234148 1.5711976e-06 2.0979777e-19)
(-0.00056950242 1.588924e-06 -5.0233952e-20)
(-0.0005761694 1.5999535e-06 8.8747374e-20)
(-0.00058233495 1.6046794e-06 -5.0464879e-20)
(-0.00058799323 1.6034917e-06 6.8823211e-20)
(-0.00059313996 1.5967807e-06 -3.9985898e-20)
(-0.00059777238 1.5849523e-06 -4.1522866e-19)
(-0.00060188926 1.5683952e-06 -5.3388943e-19)
(-0.00060549077 1.5474992e-06 9.666988e-20)
(-0.00060857849 1.5226564e-06 9.0262224e-19)
(-0.00061115535 1.4942428e-06 8.0492117e-21)
(-0.0006132255 1.4626301e-06 -3.7377035e-19)
(-0.00061479434 1.4281783e-06 4.6185465e-19)
(-0.00061586835 1.3912325e-06 -6.8451668e-20)
(-0.00061645512 1.3521322e-06 -2.9745873e-19)
(-0.00061656318 1.3112005e-06 1.3228356e-19)
(-0.00061620198 1.2687378e-06 1.6814859e-19)
(-0.00061538182 1.2250289e-06 2.0369029e-19)
(-0.0006141137 1.1803473e-06 -3.4717982e-19)
(-0.00061240933 1.1349447e-06 -3.6890906e-19)
(-0.00061028099 1.0890606e-06 2.6302427e-19)
(-0.00060774158 1.0429408e-06 3.7000718e-19)
(-0.00060480451 9.968399e-07 -2.0399519e-19)
(-1.6475476e-05 3.8534074e-06 2.443719e-20)
(-4.2243755e-05 1.30713e-05 -3.0943472e-21)
(-7.3188804e-05 1.7465354e-05 6.6685467e-21)
(-0.00010459693 2.1724636e-05 4.9284158e-20)
(-0.00013863339 2.4583454e-05 2.9781535e-20)
(-0.00017344482 2.629863e-05 -2.2947232e-20)
(-0.00020871709 2.7451915e-05 1.7890883e-20)
(-0.00024427053 2.8319334e-05 1.1387688e-20)
(-0.0002800224 2.9047196e-05 5.7522931e-21)
(-0.0003159361 2.9714562e-05 4.1922335e-20)
(-0.00035200259 3.0361928e-05 4.4884678e-20)
(-0.00038822575 3.1009222e-05 8.267286e-20)
(-0.00042461307 3.1665824e-05 1.1216379e-19)
(-0.00046117127 3.2335342e-05 9.799795e-20)
(-0.00049790435 3.3018135e-05 4.5253479e-20)
(-0.00053481278 3.3712666e-05 7.4682312e-20)
(-0.00057189297 3.4416223e-05 1.4869476e-19)
(-0.00060913724 3.5125376e-05 2.3787096e-20)
(-0.00064653373 3.583622e-05 -1.4821507e-19)
(-0.00068406647 3.654456e-05 -8.678579e-20)
(-0.0007217155 3.7246027e-05 3.9020292e-21)
(-0.000759457 3.7936184e-05 4.7152424e-20)
(-0.00079726346 3.861056e-05 1.4873407e-19)
(-0.00083510383 3.9264681e-05 2.7570114e-19)
(-0.00087294369 3.98941e-05 1.0460093e-19)
(-0.00091074544 4.0494485e-05 -4.4342616e-19)
(-0.00094846851 4.1061618e-05 -4.721141e-19)
(-0.00098606958 4.1591476e-05 -1.8692468e-19)
(-0.0010235028 4.2080242e-05 -1.195865e-19)
(-0.0010607202 4.2524323e-05 5.2970001e-19)
(-0.0010976718 4.2920389e-05 6.3206077e-19)
(-0.0011343057 4.3265388e-05 -3.4417214e-19)
(-0.0011705691 4.3556568e-05 -6.5186224e-19)
(-0.0012064077 4.3791462e-05 -2.0477544e-19)
(-0.0012417666 4.3967943e-05 4.8487373e-19)
(-0.0012765906 4.4084197e-05 3.5262913e-19)
(-0.0013108241 4.4138743e-05 -5.6686359e-19)
(-0.0013444117 4.413045e-05 -8.2654857e-19)
(-0.0013772987 4.4058518e-05 5.0480179e-19)
(-0.0014094308 4.3922475e-05 7.6268207e-19)
(-0.0014407551 4.3722197e-05 -8.8488836e-19)
(-0.0014712198 4.3457864e-05 -2.6230523e-19)
(-0.0015007748 4.3129991e-05 1.5110395e-18)
(-0.0015293718 4.2739382e-05 2.0224866e-18)
(-0.0015569647 4.2287146e-05 -5.9709251e-20)
(-0.0015835093 4.1774659e-05 -3.1092421e-18)
(-0.0016089645 4.1203564e-05 -1.7790086e-18)
(-0.0016332913 4.0575752e-05 1.319296e-18)
(-0.0016564539 3.9893331e-05 1.3788229e-18)
(-0.0016784193 3.9158641e-05 -7.2544748e-19)
(-0.0016991577 3.837418e-05 -1.2483861e-18)
(-0.0017186424 3.7542631e-05 1.4346556e-18)
(-0.0017368498 3.6666818e-05 1.8337366e-18)
(-0.0017537601 3.5749694e-05 -3.1242279e-19)
(-0.0017693563 3.4794303e-05 -1.1799284e-18)
(-0.0017836251 3.3803793e-05 -1.2916619e-18)
(-0.0017965565 3.2781355e-05 -1.8232654e-19)
(-0.0018081438 3.1730241e-05 1.325765e-18)
(-0.0018183835 3.0653702e-05 5.3418213e-19)
(-0.0018272755 2.955501e-05 -1.2794835e-18)
(-0.0018348229 2.8437412e-05 -4.926558e-19)
(-0.0018410316 2.7304132e-05 1.4113626e-18)
(-0.0018459107 2.6158326e-05 3.606713e-19)
(-0.0018494721 2.5003118e-05 -1.7507682e-18)
(-0.0018517304 2.3841528e-05 -1.0042154e-18)
(-0.0018527027 2.2676499e-05 1.0468637e-18)
(-0.0018524088 2.1510872e-05 1.3474099e-18)
(-0.0018508705 2.0347388e-05 3.0654572e-19)
(-0.001848112 1.9188657e-05 -7.4867215e-19)
(-0.0018441592 1.8037183e-05 -1.4394994e-18)
(-0.0018390402 1.6895327e-05 1.2425595e-19)
(-0.0018327845 1.5765335e-05 1.1010378e-18)
(-0.0018254232 1.4649308e-05 7.6323791e-20)
(-0.0018169887 1.3549193e-05 2.0304012e-19)
(-0.0018075145 1.2466811e-05 4.2981584e-19)
(-0.0017970354 1.1403836e-05 1.5825878e-19)
(-0.0017855867 1.0361825e-05 -6.5589385e-19)
(-0.0017732047 9.3422373e-06 -9.1971453e-19)
(-0.0017599261 8.3464758e-06 7.2343433e-20)
(-0.0017457881 7.3758946e-06 3.9751507e-19)
(-3.8239564e-05 9.2621882e-05 8.4266147e-21)
(-8.9524929e-05 0.00010388493 -3.2444966e-20)
(-0.0001480933 0.00011063057 -4.2207011e-20)
(-0.00020536453 0.00011721611 -2.6129434e-21)
(-0.00026545719 0.0001218624 1.9823079e-20)
(-0.00032611915 0.0001248852 -4.7916031e-20)
(-0.00038717174 0.00012697236 9.1564886e-21)
(-0.00044849002 0.00012852384 -6.3595621e-21)
(-0.00050997958 0.00012977587 5.7191815e-20)
(-0.00057156769 0.00013086541 1.8125598e-19)
(-0.00063320494 0.00013186863 1.0015456e-19)
(-0.00069485633 0.00013282605 1.2394072e-19)
(-0.00075649363 0.00013375785 5.5336101e-20)
(-0.00081809099 0.0001346726 1.2778021e-19)
(-0.00087962254 0.00013557207 2.0425406e-19)
(-0.0009410609 0.00013645392 8.4168449e-20)
(-0.0010023763 0.00013731331 1.0762596e-19)
(-0.0010635361 0.00013814379 -1.6450339e-20)
(-0.0011245043 0.00013893793 -1.1316427e-19)
(-0.0011852419 0.00013968768 2.4547559e-20)
(-0.0012457064 0.00014038466 8.5095345e-20)
(-0.001305852 0.00014102041 8.6104608e-20)
(-0.0013656299 0.00014158643 1.599964e-19)
(-0.0014249882 0.00014207434 1.6259438e-19)
(-0.0014838722 0.00014247593 -8.6466972e-20)
(-0.0015422246 0.00014278326 -1.7659754e-19)
(-0.001599986 0.00014298874 -1.1600923e-19)
(-0.0016570946 0.00014308524 -2.241444e-19)
(-0.0017134869 0.00014306614 -2.7853018e-19)
(-0.0017690981 0.00014292535 1.3175167e-19)
(-0.0018238621 0.00014265741 3.2185744e-19)
(-0.0018777117 0.00014225748 -1.2979621e-19)
(-0.0019305796 0.00014172143 -4.2448932e-19)
(-0.0019823982 0.00014104579 -2.5776998e-19)
(-0.0020330999 0.00014022783 2.8897368e-19)
(-0.0020826179 0.00013926556 3.9655181e-19)
(-0.002130886 0.00013815771 -1.038589e-19)
(-0.0021778396 0.00013690376 -2.0878988e-19)
(-0.0022234153 0.00013550394 -6.7731664e-20)
(-0.0022675519 0.00013395919 -3.9005308e-19)
(-0.00231019 0.00013227117 -4.8358771e-19)
(-0.0023512732 0.0001304422 5.1008101e-19)
(-0.0023907475 0.00012847528 1.1253608e-18)
(-0.002428562 0.00012637404 9.4340273e-19)
(-0.0024646692 0.0001241427 -1.7979128e-19)
(-0.0024990251 0.00012178602 -2.0607819e-18)
(-0.0025315892 0.00011930929 -9.2492153e-19)
(-0.0025623249 0.0001167183 5.9405818e-19)
(-0.0025911997 0.00011401922 8.2528254e-19)
(-0.0026181852 0.00011121865 7.8339142e-19)
(-0.0026432571 0.00010832349 -9.3924219e-19)
(-0.0026663955 0.00010534096 -1.187077e-19)
(-0.0026875847 0.00010227848 1.0282645e-18)
(-0.0027068133 9.9143683e-05 -1.0473108e-19)
(-0.0027240744 9.5944344e-05 -2.0846129e-19)
(-0.0027393652 9.2688331e-05 -3.9778147e-19)
(-0.0027526873 8.9383554e-05 -3.7474307e-19)
(-0.0027640464 8.6037931e-05 5.5815419e-19)
(-0.0027734521 8.2659331e-05 1.615161e-19)
(-0.0027809182 7.9255561e-05 -8.2325285e-19)
(-0.0027864622 7.583428e-05 -2.243565e-19)
(-0.0027901054 7.2403016e-05 6.0437491e-19)
(-0.0027918723 6.8969096e-05 8.4962669e-21)
(-0.0027917911 6.5539631e-05 -4.0170644e-19)
(-0.002789893 6.2121488e-05 3.462626e-19)
(-0.002786212 5.8721263e-05 3.9538884e-19)
(-0.0027807851 5.5345248e-05 -2.411962e-19)
(-0.0027736517 5.1999453e-05 -1.1663837e-19)
(-0.0027648537 4.8689542e-05 -1.1618028e-19)
(-0.002754435 4.5420864e-05 -6.4145023e-19)
(-0.0027424415 4.2198426e-05 -7.74072e-20)
(-0.0027289206 3.902688e-05 3.7769568e-19)
(-0.0027139214 3.5910522e-05 1.5352206e-20)
(-0.0026974943 3.2853285e-05 2.9082075e-19)
(-0.0026796906 2.9858727e-05 2.5655057e-19)
(-0.0026605626 2.6930054e-05 2.9715099e-19)
(-0.0026401631 2.4070138e-05 -1.0600996e-19)
(-0.0026185457 2.1281543e-05 -9.0570194e-19)
(-0.0025957638 1.8566576e-05 -2.7393111e-19)
(-0.0025718715 1.5927269e-05 6.6447578e-19)
(-5.3434958e-05 0.0002362576 -2.9268429e-19)
(-0.0001233711 0.0002456494 -1.4440895e-19)
(-0.00020193649 0.00025252776 -5.4700698e-20)
(-0.00027752036 0.00025929923 -1.7518771e-19)
(-0.00035584606 0.00026434207 -8.1731596e-20)
(-0.00043436671 0.00026782204 -1.3195265e-19)
(-0.00051308439 0.00027029395 -9.5807541e-20)
(-0.00059196976 0.00027212929 -1.6771464e-20)
(-0.00067095435 0.00027356917 6.3266842e-20)
(-0.00074995738 0.00027476267 1.7145101e-19)
(-0.00082890822 0.00027579756 1.4182969e-19)
(-0.00090774607 0.00027672294 1.1772631e-19)
(-0.00098641627 0.00027756431 -6.2134861e-21)
(-0.0010648675 0.00027833287 1.1158348e-19)
(-0.00114305 0.00027903107 1.5211437e-19)
(-0.001220914 0.0002796558 -1.8264155e-20)
(-0.0012984088 0.00028020051 9.4723698e-20)
(-0.0013754821 0.00028065636 4.6679976e-20)
(-0.0014520796 0.00028101312 -6.6473182e-21)
(-0.0015281448 0.00028125965 7.2617873e-20)
(-0.0016036186 0.00028138441 8.0192898e-20)
(-0.0016784397 0.00028137567 7.0705671e-20)
(-0.0017525444 0.00028122183 3.5119739e-20)
(-0.0018258666 0.00028091147 -5.598205e-20)
(-0.0018983384 0.00028043357 -9.5561913e-21)
(-0.0019698899 0.00027977765 -1.7888537e-20)
(-0.0020404496 0.0002789338 -2.3988692e-19)
(-0.0021099448 0.0002778929 -1.0147062e-19)
(-0.0021783017 0.00027664662 5.3837793e-20)
(-0.0022454459 0.00027518757 -2.4663591e-20)
(-0.0023113024 0.0002735093 -1.568548e-19)
(-0.0023757965 0.0002716064 -1.316809e-19)
(-0.0024388534 0.00026947451 1.538998e-19)
(-0.0025003992 0.0002671104 7.3884364e-20)
(-0.0025603609 0.00026451195 -2.2949418e-19)
(-0.0026186671 0.00026167817 -1.72598e-19)
(-0.0026752478 0.00025860925 1.6482406e-19)
(-0.0027300353 0.00025530647 2.3771072e-19)
(-0.0027829641 0.0002517723 -1.4396006e-19)
(-0.0028339716 0.00024801025 -2.5253659e-19)
(-0.0028829981 0.00024402495 -5.5763872e-20)
(-0.0029299874 0.00023982203 1.7595773e-19)
(-0.0029748866 0.0002354081 3.0212578e-19)
(-0.0030176468 0.00023079071 3.7210487e-20)
(-0.0030582232 0.00022597829 -3.6013839e-21)
(-0.0030965752 0.00022098005 -3.662565e-19)
(-0.0031326664 0.00021580595 -3.7189663e-19)
(-0.0031664655 0.00021046663 9.1045682e-20)
(-0.0031979452 0.00020497331 1.8576663e-19)
(-0.0032270836 0.00019933775 4.8237498e-19)
(-0.0032538633 0.00019357211 3.5744315e-20)
(-0.0032782718 0.00018768896 -4.6389329e-19)
(-0.0033003016 0.00018170112 1.0217769e-19)
(-0.0033199499 0.00017562162 2.2705369e-19)
(-0.0033372189 0.00016946364 -6.4212519e-20)
(-0.0033521154 0.0001632404 -2.2806674e-19)
(-0.0033646511 0.00015696512 -1.8838102e-19)
(-0.0033748419 0.00015065089 1.5193062e-19)
(-0.0033827084 0.00014431071 2.9073952e-20)
(-0.0033882753 0.00013795731 -3.579431e-19)
(-0.0033915715 0.00013160316 -4.7620642e-20)
(-0.0033926297 0.00012526043 3.0022508e-19)
(-0.0033914864 0.00011894087 5.8618287e-20)
(-0.0033881816 0.00011265583 -9.1885059e-20)
(-0.0033827585 0.00010641619 1.135359e-19)
(-0.0033752634 0.00010023234 1.0320564e-19)
(-0.0033657453 9.4114103e-05 -2.6962642e-19)
(-0.0033542559 8.8070812e-05 -1.8961652e-19)
(-0.0033408492 8.2111188e-05 -4.498318e-20)
(-0.0033255813 7.6243366e-05 -6.5041613e-20)
(-0.0033085099 7.0474915e-05 3.9510771e-20)
(-0.0032896947 6.4812763e-05 4.6644733e-20)
(-0.0032691964 5.9263227e-05 -1.0993724e-19)
(-0.003247077 5.3832008e-05 -8.8522824e-20)
(-0.0032233993 4.8524147e-05 2.4837144e-19)
(-0.0031982268 4.3344095e-05 2.7290385e-19)
(-0.0031716235 3.82957e-05 -2.9302817e-19)
(-0.0031436535 3.3382243e-05 -5.5211463e-19)
(-0.0031143811 2.8606487e-05 -6.1468802e-20)
(-0.0030838702 2.3970678e-05 1.8568161e-19)
(-6.1829073e-05 0.00041350736 -5.3593247e-19)
(-0.00014270728 0.00042005543 -4.5348206e-19)
(-0.00023329947 0.00042584462 -2.2904229e-19)
(-0.00031987272 0.00043170523 -6.1343803e-20)
(-0.0004091615 0.00043632704 -3.331774e-19)
(-0.00049832984 0.00043969625 -3.9580689e-19)
(-0.00058749229 0.0004421567 -2.8686035e-19)
(-0.00067669601 0.00044398029 -1.5979971e-19)
(-0.0007659088 0.00044536387 1.5063523e-20)
(-0.00085506117 0.00044643845 1.6789528e-19)
(-0.00094408073 0.00044728567 1.8064091e-20)
(-0.0010328982 0.00044795324 8.0505843e-20)
(-0.001121447 0.00044846657 2.6473575e-20)
(-0.001209663 0.00044883664 6.5076811e-20)
(-0.0012974832 0.00044906508 1.3771537e-19)
(-0.0013848447 0.00044914745 -2.1914812e-20)
(-0.0014716847 0.00044907526 7.6029733e-20)
(-0.001557939 0.00044883743 5.2004187e-20)
(-0.0016435421 0.00044842118 -3.2705877e-20)
(-0.0017284269 0.00044781273 6.5530368e-20)
(-0.0018125243 0.0004469978 1.184662e-19)
(-0.0018957637 0.000445962 -5.3757025e-20)
(-0.0019780724 0.0004446911 -6.7214652e-20)
(-0.0020593759 0.00044317128 2.427322e-20)
(-0.0021395984 0.00044138934 8.4821406e-22)
(-0.0022186627 0.00043933284 -1.5040599e-19)
(-0.0022964903 0.00043699028 -2.5899256e-19)
(-0.0023730021 0.00043435121 -6.5759455e-20)
(-0.0024481185 0.00043140636 1.1341223e-19)
(-0.0025217595 0.00042814773 9.923476e-20)
(-0.0025938454 0.00042456868 -2.2446379e-19)
(-0.0026642969 0.00042066399 -1.1671918e-19)
(-0.0027330356 0.00041642992 1.5712706e-19)
(-0.0027999842 0.00041186423 1.5667049e-19)
(-0.0028650669 0.00040696624 4.7880053e-20)
(-0.00292821 0.00040173682 -2.3493372e-19)
(-0.0029893419 0.00039617839 6.6514233e-21)
(-0.0030483935 0.00039029493 9.1903794e-21)
(-0.0031052989 0.00038409191 -1.3909776e-19)
(-0.0031599951 0.00037757629 -1.6492107e-19)
(-0.003212423 0.00037075646 -1.7679325e-19)
(-0.003262527 0.00036364217 1.2851614e-19)
(-0.0033102557 0.00035624443 3.0201067e-19)
(-0.0033555622 0.00034857554 -6.4311802e-20)
(-0.0033984037 0.00034064886 -2.081739e-19)
(-0.0034387425 0.00033247881 -1.6847533e-19)
(-0.0034765456 0.00032408075 -1.1592764e-19)
(-0.003511785 0.0003154709 1.309589e-19)
(-0.0035444378 0.00030666618 7.895733e-20)
(-0.0035744863 0.00029768415 3.6367746e-20)
(-0.0036019179 0.0002885429 1.2466417e-19)
(-0.0036267254 0.0002792609 -6.462719e-20)
(-0.0036489067 0.00026985695 -8.4190835e-20)
(-0.0036684649 0.00026035001 -2.1349327e-20)
(-0.0036854081 0.00025075914 -9.7064695e-21)
(-0.0036997495 0.00024110338 -2.7044722e-20)
(-0.0037115073 0.00023140165 -2.3857589e-19)
(-0.0037207041 0.00022167267 -2.2947079e-19)
(-0.0037273676 0.00021193483 -1.5219258e-20)
(-0.0037315294 0.00020220615 -1.8340342e-20)
(-0.0037332258 0.0001925042 9.0585957e-20)
(-0.0037324966 0.00018284599 2.3589544e-19)
(-0.0037293859 0.00017324792 1.3995693e-19)
(-0.003723941 0.00016372575 -5.0920592e-20)
(-0.0037162127 0.00015429451 -2.2128336e-19)
(-0.0037062547 0.0001449685 -1.0224235e-19)
(-0.0036941236 0.00013576116 2.3215864e-20)
(-0.0036798785 0.00012668519 2.1239788e-20)
(-0.0036635809 0.00011775239 -2.0444125e-19)
(-0.003645294 0.00010897368 -2.6572625e-19)
(-0.0036250832 0.00010035916 7.4172607e-20)
(-0.0036030149 9.1917994e-05 2.3399218e-19)
(-0.0035791571 8.3658463e-05 8.2185379e-20)
(-0.0035535786 7.5587955e-05 -1.3717266e-19)
(-0.003526349 6.7712947e-05 -9.4308353e-20)
(-0.0034975384 6.0039062e-05 -5.0719519e-20)
(-0.0034672172 5.2571074e-05 -2.0639948e-19)
(-0.0034354557 4.5312955e-05 -1.8393434e-19)
(-0.0034023243 3.826792e-05 -1.285987e-19)
(-0.003367893 3.143848e-05 -1.2748388e-19)
(-6.5584981e-05 0.00060722696 -8.9546697e-19)
(-0.00015188195 0.00061132688 -7.8843597e-19)
(-0.00024874725 0.00061570123 -7.8898451e-19)
(-0.00034116915 0.00062030321 -5.8931826e-19)
(-0.00043639159 0.00062414493 -5.3472191e-19)
(-0.00053131472 0.00062708449 -4.5786819e-19)
(-0.0006260842 0.00062927696 -2.1997176e-19)
(-0.00072078442 0.00063088401 -3.8257446e-21)
(-0.00081541036 0.00063204085 5.8765174e-20)
(-0.00090990884 0.00063284566 2.0489375e-19)
(-0.0010042157 0.00063336328 1.4011556e-19)
(-0.0010982643 0.00063363295 1.5704975e-19)
(-0.0011919871 0.00063367547 1.2926733e-19)
(-0.0012853165 0.0006334989 2.6410622e-19)
(-0.0013781849 0.00063310255 2.636501e-19)
(-0.0014705244 0.0006324797 1.4778682e-20)
(-0.0015622664 0.0006316196 1.8774159e-19)
(-0.0016533412 0.00063050874 2.0874022e-19)
(-0.0017436776 0.00062913186 1.5967227e-19)
(-0.0018332032 0.00062747269 1.2845202e-19)
(-0.0019218435 0.00062551444 3.1847533e-20)
(-0.0020095226 0.00062324029 -7.5639365e-20)
(-0.002096163 0.00062063373 1.0455858e-20)
(-0.0021816855 0.00061767884 1.7933487e-19)
(-0.0022660097 0.00061436053 1.4673432e-19)
(-0.0023490539 0.00061066479 8.6585592e-20)
(-0.0024307359 0.00060657882 -6.7813572e-20)
(-0.0025109723 0.00060209122 -1.6336984e-19)
(-0.0025896801 0.00059719215 -5.7488314e-20)
(-0.0026667757 0.00059187339 7.4234611e-20)
(-0.0027421763 0.00058612852 -1.337811e-20)
(-0.0028157997 0.0005799529 9.5080206e-20)
(-0.0028875648 0.00057334382 1.5567452e-19)
(-0.0029573919 0.00056630049 1.2363462e-19)
(-0.0030252032 0.0005588241 1.3192468e-19)
(-0.0030909231 0.00055091781 -6.3201477e-20)
(-0.0031544785 0.00054258672 4.6491889e-21)
(-0.0032157992 0.00053383792 -5.347486e-20)
(-0.0032748182 0.00052468038 -1.0298608e-20)
(-0.0033314722 0.0005151249 -6.7131469e-20)
(-0.0033857016 0.00050518409 -2.3882303e-19)
(-0.0034374509 0.00049487223 -3.2222799e-20)
(-0.0034866689 0.00048420522 2.2497331e-19)
(-0.0035333094 0.00047320043 1.6952344e-19)
(-0.0035773307 0.00046187663 -5.9759455e-21)
(-0.003618696 0.00045025385 3.4820243e-20)
(-0.003657374 0.00043835323 -2.1401137e-20)
(-0.0036933384 0.00042619694 9.3764782e-20)
(-0.0037265683 0.00041380796 1.2803144e-19)
(-0.0037570484 0.00040121005 2.5582444e-21)
(-0.0037847687 0.00038842749 -5.4971859e-21)
(-0.0038097246 0.00037548504 -6.4095197e-21)
(-0.0038319171 0.00036240772 -5.0170825e-21)
(-0.0038513525 0.00034922073 -1.3274777e-19)
(-0.0038680423 0.00033594927 -1.3171907e-19)
(-0.0038820034 0.00032261845 4.8881134e-20)
(-0.0038932575 0.0003092531 -8.7136389e-21)
(-0.0039018314 0.00029587775 -1.0094432e-19)
(-0.0039077565 0.00028251641 -7.1604824e-20)
(-0.0039110688 0.00026919253 -7.0831771e-20)
(-0.0039118085 0.00025592888 6.3909602e-21)
(-0.0039100201 0.00024274748 1.3117452e-19)
(-0.0039057519 0.00022966945 1.6423584e-19)
(-0.0038990555 0.00021671505 1.3838575e-19)
(-0.0038899862 0.00020390352 -3.4041517e-20)
(-0.0038786022 0.00019125307 -9.4827711e-20)
(-0.0038649645 0.00017878083 -4.7341969e-20)
(-0.0038491368 0.00016650283 -6.930951e-20)
(-0.0038311848 0.00015443391 -1.7250452e-19)
(-0.0038111762 0.00014258781 -1.0306385e-19)
(-0.0037891805 0.00013097703 4.9192327e-20)
(-0.0037652687 0.00011961294 4.2529836e-20)
(-0.0037395126 0.00010850569 -1.4910729e-20)
(-0.0037119853 9.7664247e-05 2.8994481e-20)
(-0.0036827603 8.7096423e-05 9.1204238e-20)
(-0.0036519115 7.680888e-05 -9.7668849e-20)
(-0.0036195132 6.680718e-05 -1.9285047e-19)
(-0.0035856394 5.7095837e-05 -1.9022957e-19)
(-0.0035503639 4.7678349e-05 -1.8853221e-19)
(-0.0035137603 3.8557308e-05 -4.0771659e-20)
(-6.6899874e-05 0.00080762588 -1.0538868e-18)
(-0.00015545696 0.00081007813 -6.5827972e-19)
(-0.00025519237 0.00081323556 -8.735101e-19)
(-0.00035043661 0.00081669712 -1.0623802e-18)
(-0.00044863401 0.00081973784 -7.9204584e-19)
(-0.00054647552 0.00082215222 -3.1675801e-19)
(-0.00064408634 0.00082396655 -1.9317402e-19)
(-0.00074155537 0.00082525455 -6.3221771e-20)
(-0.00083888989 0.00082609495 1.3871574e-19)
(-0.00093604907 0.00082655166 1.9713171e-19)
(-0.0010329785 0.00082666939 1.0347686e-19)
(-0.0011296183 0.00082647553 4.6970682e-21)
(-0.0012259047 0.00082598357 -1.1380241e-19)
(-0.001321772 0.00082519667 6.4826547e-20)
(-0.0014171531 0.00082411036 1.9976079e-19)
(-0.0015119793 0.00082271475 -5.4558006e-20)
(-0.0016061806 0.00082099612 3.3582166e-21)
(-0.0016996853 0.00081893814 6.0253378e-20)
(-0.0017924202 0.0008165228 9.0763585e-20)
(-0.0018843102 0.00081373112 2.6869213e-19)
(-0.0019752784 0.00081054372 2.5306137e-19)
(-0.0020652461 0.0008069413 1.5445854e-19)
(-0.0021541328 0.00080290507 1.4678014e-19)
(-0.0022418568 0.000798417 3.0699802e-19)
(-0.0023283346 0.00079346019 1.9319315e-19)
(-0.002413482 0.00078801907 -9.3709293e-21)
(-0.0024972135 0.00078207964 -4.6715393e-20)
(-0.0025794433 0.00077562965 -6.7672988e-20)
(-0.0026600854 0.00076865877 5.9342376e-21)
(-0.0027390537 0.00076115871 1.6469287e-19)
(-0.0028162625 0.00075312338 1.7396306e-19)
(-0.0028916273 0.00074454891 2.401768e-19)
(-0.0029650643 0.00073543378 2.5411266e-19)
(-0.0030364917 0.00072577884 1.3409894e-19)
(-0.0031058294 0.00071558734 -1.6011654e-20)
(-0.0031729998 0.00070486495 -1.587632e-19)
(-0.0032379278 0.00069361971 -5.7767177e-21)
(-0.0033005415 0.00068186205 -5.7191714e-20)
(-0.0033607725 0.00066960464 -7.56823e-20)
(-0.003418556 0.00065686243 2.1249453e-20)
(-0.0034738312 0.0006436525 -1.8496423e-20)
(-0.0035265418 0.00062999393 -7.7331508e-20)
(-0.0035766359 0.00061590775 -1.0928079e-19)
(-0.0036240666 0.00060141674 1.2538231e-19)
(-0.003668792 0.00058654531 1.5232426e-19)
(-0.0037107753 0.00057131938 1.7437109e-19)
(-0.0037499852 0.00055576615 1.7429882e-19)
(-0.0037863959 0.000539914 1.3588369e-20)
(-0.0038199871 0.00052379228 6.2469083e-21)
(-0.0038507441 0.00050743114 -4.760358e-21)
(-0.003878658 0.00049086138 -1.4991773e-20)
(-0.0039037255 0.00047411423 -4.6234616e-20)
(-0.003925949 0.00045722123 -8.077636e-20)
(-0.0039453362 0.00044021398 -1.2339477e-19)
(-0.0039619005 0.00042312407 -1.9398142e-19)
(-0.0039756607 0.00040598287 -5.9644799e-20)
(-0.0039866406 0.00038882133 8.7216176e-20)
(-0.0039948692 0.00037166992 1.0381537e-19)
(-0.0040003802 0.00035455845 2.3698636e-21)
(-0.0040032121 0.00033751594 -7.6546613e-20)
(-0.0040034078 0.0003205705 -8.7319064e-20)
(-0.0040010142 0.00030374924 -4.0112281e-20)
(-0.0039960823 0.00028707814 3.1410285e-20)
(-0.0039886667 0.000270582 1.7198912e-19)
(-0.0039788254 0.00025428437 9.9793346e-20)
(-0.0039666195 0.0002382074 -5.8872532e-21)
(-0.0039521129 0.00022237196 -6.9951013e-20)
(-0.003935372 0.0002067974 -1.1112781e-19)
(-0.0039164656 0.00019150167 -1.0080936e-19)
(-0.0038954642 0.00017650124 -4.5226432e-20)
(-0.0038724402 0.00016181108 1.3957428e-20)
(-0.0038474672 0.00014744467 -1.026735e-20)
(-0.0038206199 0.00013341402 -7.2396449e-20)
(-0.0037919741 0.00011972965 -1.8772898e-20)
(-0.003761606 0.00010640064 5.8442915e-20)
(-0.003729592 9.3434654e-05 -3.71728e-20)
(-0.0036960088 8.083799e-05 -1.1319285e-19)
(-0.0036609331 6.8615645e-05 -2.1206949e-19)
(-0.0036244409 5.6771348e-05 -1.5872533e-19)
(-0.0035866079 4.5307664e-05 -4.9170694e-20)
(-6.7173982e-05 0.0010100653 -1.2898306e-18)
(-0.00015649219 0.0010115783 -1.236478e-18)
(-0.00025738019 0.0010138819 -9.9517745e-19)
(-0.00035388786 0.001016495 -8.4321462e-19)
(-0.00045351558 0.0010188755 -7.6403055e-19)
(-0.00055280728 0.0010208009 -5.0790627e-19)
(-0.00065184858 0.0010222258 -2.6369741e-19)
(-0.00075071508 0.0010231664 -2.2628662e-19)
(-0.00084941459 0.0010236593 -1.3904766e-20)
(-0.00094791226 0.00102374 1.4840488e-19)
(-0.0010461609 0.0010234346 1.027812e-19)
(-0.001144107 0.0010227582 -1.9380377e-20)
(-0.0012416919 0.0010217158 -2.4399125e-19)
(-0.0013388536 0.0010203047 -8.5110058e-20)
(-0.0014355271 0.0010185155 -3.9393646e-21)
(-0.0015316452 0.0010163344 -7.585257e-20)
(-0.0016271384 0.001013744 4.4922852e-20)
(-0.0017219351 0.0010107246 2.5728676e-20)
(-0.0018159613 0.001007255 -2.9159891e-20)
(-0.001909141 0.0010033132 1.2988063e-19)
(-0.0020013958 0.00099887695 2.3218225e-19)
(-0.0020926456 0.00099392419 8.1674133e-20)
(-0.0021828081 0.00098843363 1.8075105e-19)
(-0.0022717994 0.000982385 5.3848444e-19)
(-0.0023595341 0.00097575942 4.2315662e-19)
(-0.0024459253 0.00096853966 -4.2122318e-20)
(-0.0025308854 0.00096071044 -1.1687378e-19)
(-0.002614326 0.00095225855 -1.6428038e-19)
(-0.0026961584 0.00094317315 -4.038439e-20)
(-0.002776294 0.00093344586 1.2354288e-19)
(-0.0028546444 0.00092307088 9.7044291e-20)
(-0.0029311223 0.00091204516 2.4833534e-19)
(-0.0030056414 0.00090036839 2.0553965e-19)
(-0.0030781171 0.00088804312 -7.4232309e-20)
(-0.0031484668 0.00087507476 -1.4040165e-19)
(-0.0032166104 0.00086147158 -9.896774e-20)
(-0.0032824704 0.00084724466 5.2583312e-21)
(-0.0033459726 0.00083240789 -1.3805443e-19)
(-0.0034070463 0.00081697787 -2.8074142e-19)
(-0.0034656248 0.00080097381 -2.2834535e-19)
(-0.0035216454 0.00078441746 -1.3923727e-19)
(-0.00357505 0.00076733292 4.882237e-20)
(-0.0036257854 0.00074974653 -4.3416087e-20)
(-0.0036738031 0.00073168669 -1.0175924e-19)
(-0.0037190602 0.00071318372 4.9875379e-20)
(-0.0037615191 0.00069426961 2.4575769e-19)
(-0.0038011476 0.0006749779 2.9416374e-19)
(-0.0038379194 0.0006553434 -1.9668842e-20)
(-0.003871814 0.00063540206 -1.306307e-19)
(-0.0039028167 0.00061519069 -6.696909e-21)
(-0.0039309186 0.00059474681 -9.2529839e-20)
(-0.0039561168 0.00057410838 -3.3435477e-20)
(-0.0039784142 0.00055331365 -7.8381123e-20)
(-0.0039978193 0.0005324009 -1.9092256e-19)
(-0.0040143465 0.00051140827 -1.6522442e-19)
(-0.0040280155 0.0004903736 -8.4219175e-20)
(-0.0040388516 0.00046933416 1.6169667e-21)
(-0.0040468851 0.00044832656 -3.9903464e-20)
(-0.0040521514 0.00042738656 -5.1326653e-20)
(-0.0040546905 0.0004065489 -5.9272761e-20)
(-0.0040545473 0.00038584717 -4.8899648e-20)
(-0.0040517706 0.00036531371 1.9062446e-20)
(-0.0040464135 0.00034497947 -5.8386271e-20)
(-0.0040385326 0.00032487389 -1.3197313e-20)
(-0.0040281881 0.00030502489 5.3264415e-20)
(-0.0040154432 0.0002854587 -3.1036379e-20)
(-0.0040003643 0.00026619991 -2.3868801e-20)
(-0.0039830199 0.0002472713 -6.5676195e-20)
(-0.003963481 0.00022869393 -6.3240486e-20)
(-0.0039418206 0.00021048703 -4.1702922e-20)
(-0.0039181133 0.00019266805 -3.3738934e-20)
(-0.0038924348 0.00017525264 -3.5205429e-20)
(-0.0038648624 0.00015825463 -1.1828835e-20)
(-0.0038354737 0.0001416861 3.3232798e-20)
(-0.0038043471 0.00012555739 2.4771343e-20)
(-0.0037715613 0.00010987715 -6.0366528e-20)
(-0.0037371948 9.4652406e-05 -1.2281864e-19)
(-0.0037013263 7.9888596e-05 -1.5510988e-19)
(-0.0036640337 6.5589665e-05 -1.7451735e-19)
(-0.0036253944 5.1758101e-05 -1.0877043e-19)
(-6.7115549e-05 0.0012127794 -1.6504879e-18)
(-0.00015661428 0.0012138309 -1.5879348e-18)
(-0.00025791684 0.0012156158 -8.0372774e-19)
(-0.00035498043 0.0012176759 -5.4614358e-19)
(-0.00045531237 0.0012195785 -3.6294245e-19)
(-0.00055536273 0.0012211074 -3.3210634e-19)
(-0.00065517925 0.001222185 -1.0563476e-20)
(-0.00075481886 0.0012227951 1.0956126e-19)
(-0.00085428366 0.0012229477 2.5684076e-19)
(-0.00095353983 0.0012226574 2.9903122e-19)
(-0.0010525441 0.0012219352 3.903252e-19)
(-0.0011512475 0.0012207852 3.46057e-19)
(-0.0012495957 0.0012192043 8.3769232e-20)
(-0.0013475303 0.0012171831 1.3542977e-19)