/*--------------------------------*- C++ -*----------------------------------*\
| =========                 |                                                 |
| \\      /  F ield         | OpenFOAM: The Open Source CFD Toolbox           |
|  \\    /   O peration     | Version:  2306                                  |
|   \\  /    A nd           | Website:  www.openfoam.com                      |
|    \\/     M anipulation  |                                                 |
\*---------------------------------------------------------------------------*/
FoamFile
{
    version     2.0;
    format      ascii;
    arch        "LSB;label=32;scalar=64";
    class       volVectorField;
    location    "0.42";
    object      U;
}
// * * * * * * * * * * * * * * * * * * * * * * * * * * * * * * * * * * * * * //

dimensions      [0 1 -1 0 0 0 0];

internalField   nonuniform List<vector> 
6400
(
(0.0080822643 -0.21196646 4.7331471e-17)
(0.018542711 -0.21189974 -1.6402093e-16)
(0.030355999 -0.2104058 4.0075569e-17)
(0.041544915 -0.20770645 2.3797885e-16)
(0.052756391 -0.20364084 5.1666529e-17)
(0.063541106 -0.19824208 -2.2215204e-17)
(0.073826985 -0.1915833 -5.1210098e-17)
(0.083545514 -0.18372523 -5.4793546e-18)
(0.092603449 -0.17472869 -4.3537408e-17)
(0.10089358 -0.16466717 -4.9461572e-17)
(0.10830752 -0.15363511 -2.7209289e-17)
(0.11474623 -0.14175048 -3.0120988e-17)
(0.12012854 -0.1291523 -1.7238663e-17)
(0.1243969 -0.11599497 4.4353132e-18)
(0.12752014 -0.10244112 1.1581903e-17)
(0.12949354 -0.088654319 -5.3992394e-17)
(0.13033672 -0.074792631 -2.826373e-17)
(0.13009038 -0.061003428 -1.9857235e-17)
(0.1288121 -0.04741973 4.2732421e-19)
(0.12657185 -0.03415786 3.5011396e-17)
(0.12344772 -0.021316225 1.4569517e-17)
(0.11952221 -0.0089757175 3.2917579e-18)
(0.11488247 0.0027998004 6.4301263e-18)
(0.1096084 0.013962162 -1.2926732e-17)
(0.10377503 0.024476147 -2.0911062e-17)
(0.097455814 0.034317514 9.2696968e-18)
(0.090716075 0.043470416 3.5745119e-17)
(0.083614399 0.051925129 5.783175e-17)
(0.076202928 0.059675912 3.9675062e-17)
(0.068527964 0.066719129 1.0996823e-17)
(0.060630997 0.07305161 7.8942106e-18)
(0.052549859 0.07866943 9.6612301e-18)
(0.044320365 0.083567172 2.4495767e-17)
(0.035977742 0.087737259 1.7876277e-17)
(0.027557732 0.091170258 1.2057904e-17)
(0.019099584 0.093854824 1.699232e-17)
(0.010645751 0.095779542 2.6237092e-17)
(0.0022198261 0.09693214 4.4980732e-17)
(-0.0061129981 0.097299583 3.6309368e-17)
(-0.014287532 0.096872659 4.1513505e-17)
(-0.022249814 0.095647826 4.3212686e-17)
(-0.029931526 0.093627478 2.3751859e-17)
(-0.037260755 0.090822155 7.0730343e-18)
(-0.044161802 0.087252432 -1.7197295e-17)
(-0.050556939 0.082950688 5.635393e-18)
(-0.05636861 0.077962513 3.263196e-17)
(-0.061522093 0.072347675 1.4664222e-17)
(-0.065948505 0.066180472 -6.3444356e-18)
(-0.069588035 0.059549337 -1.1603957e-17)
(-0.072393169 0.052555591 -8.9762377e-18)
(-0.07433161 0.045311299 1.7361272e-18)
(-0.075388441 0.037936275 5.9033431e-18)
(-0.075567716 0.030554565 -1.184173e-17)
(-0.074893504 0.023290444 -9.5744561e-18)
(-0.073409815 0.016264125 -1.8143331e-17)
(-0.071179081 0.0095872797 -1.7914973e-17)
(-0.068281466 0.0033591944 -8.8105686e-18)
(-0.064805575 -0.0023300484 -1.73766e-17)
(-0.060852763 -0.0074182149 -8.7955101e-18)
(-0.056538508 -0.011856433 -7.7362387e-18)
(-0.05197204 -0.015616701 -8.1109492e-18)
(-0.047262612 -0.018690645 -5.0966096e-18)
(-0.042514669 -0.021088023 -1.4152485e-17)
(-0.037824741 -0.022835062 -4.2775095e-18)
(-0.033279071 -0.023972208 -4.7969423e-18)
(-0.028951863 -0.024551586 -6.5881567e-18)
(-0.024904088 -0.024634309 5.6437259e-19)
(-0.021182838 -0.024287685 -7.5749169e-20)
(-0.017821303 -0.023582497 -1.1539084e-18)
(-0.014839313 -0.022590562 -1.8016989e-18)
(-0.012244216 -0.021382521 -3.2319208e-18)
(-0.010032002 -0.020025741 -3.2277985e-18)
(-0.0081885049 -0.018582701 2.1599079e-18)
(-0.0066907245 -0.017109575 1.0883431e-18)
(-0.0055087663 -0.015654693 1.8465244e-18)
(-0.0046077474 -0.014258311 4.4304282e-19)
(-0.0039493347 -0.012952089 -1.1644901e-18)
(-0.0034937348 -0.01175874 8.2896001e-19)
(-0.0032014656 -0.010692717 5.1556975e-19)
(-0.0030346314 -0.0097607864 3.6317933e-19)
(0.0091703455 -0.23723266 9.2339055e-17)
(0.021042299 -0.23716461 -2.7275626e-16)
(0.034344349 -0.23535325 -2.1119381e-17)
(0.046810581 -0.23219134 -9.2334003e-17)
(0.059232173 -0.22754779 -1.3574483e-16)
(0.071152528 -0.22148434 7.1512013e-17)
(0.082536967 -0.21407213 -7.3450271e-17)
(0.093329799 -0.20534951 -1.0528629e-17)
(0.10342678 -0.19535323 4.5802383e-17)
(0.11269414 -0.18414242 -8.8312467e-18)
(0.12099099 -0.17181149 1.6210327e-17)
(0.12818749 -0.15849236 -6.568844e-17)
(0.1341782 -0.14434879 -6.2983174e-17)
(0.13889012 -0.12956657 -4.4257446e-17)
(0.14228585 -0.11434237 -4.7298465e-17)
(0.14436272 -0.098873326 -2.0662303e-17)
(0.14514932 -0.083348159 -2.5035358e-17)
(0.14470028 -0.067940582 -3.8964434e-17)
(0.14309049 -0.05280482 -3.1957831e-17)
(0.14040918 -0.03807304 -2.957073e-17)
(0.13675406 -0.023854399 1.1939715e-17)
(0.13222631 -0.010235576 7.9305947e-19)
(0.12693127 0.0027173824 1.0698391e-18)
(0.12096363 0.014958221 -2.0387958e-17)
(0.11441103 0.026456033 -1.7012134e-17)
(0.10735725 0.037192519 1.7707196e-17)
(0.099875063 0.047158766 3.3804275e-17)
(0.092028007 0.056352323 4.7069018e-17)
(0.083870897 0.064774484 3.1126757e-17)
(0.075450774 0.072427903 4.4239342e-18)
(0.066808314 0.079314575 1.4701008e-17)
(0.057979426 0.085434369 1.3640155e-17)
(0.04899727 0.090784041 1.6050157e-17)
(0.039894265 0.095356496 1.3000012e-17)
(0.030703591 0.099141143 1.2394591e-17)
(0.021462593 0.10212419 1.9621666e-18)
(0.012212328 0.10428953 7.1398396e-18)
(0.0029757224 0.10561917 2.7996457e-17)
(-0.0061810048 0.10609681 3.329997e-17)
(-0.01518794 0.10570266 3.9895353e-17)
(-0.023985913 0.1044274 3.0925597e-17)
(-0.032498933 0.10226691 1.9328306e-17)
(-0.040645487 0.09922593 1.9022593e-17)
(-0.048338178 0.095320688 -2.1726072e-17)
(-0.055485743 0.090581257 -5.4992842e-18)
(-0.061995679 0.085053575 1.5196682e-17)
(-0.067777467 0.078800923 1.9058353e-17)
(-0.07274634 0.071904687 6.2509433e-19)
(-0.076827404 0.064464174 -5.8034331e-18)
(-0.079959853 0.056595327 -3.8603421e-18)
(-0.08210089 0.048428239 -3.6807496e-18)
(-0.08322872 0.040103516 9.9429469e-18)
(-0.083344715 0.031767856 -1.6941352e-17)
(-0.082474841 0.023569041 -1.7078924e-17)
(-0.080669935 0.015650351 -7.4382318e-18)
(-0.078004314 0.0081450022 -1.7576419e-17)
(-0.074568998 0.0011699523 -1.2110275e-17)
(-0.070470741 -0.0051654593 -1.4160796e-17)
(-0.065839899 -0.010790416 -1.8798703e-17)
(-0.060806697 -0.015648989 -1.2034786e-17)
(-0.055502984 -0.019710766 -9.3903852e-18)
(-0.050058802 -0.022969105 -4.9281001e-18)
(-0.044597498 -0.02543931 -1.4545742e-17)
(-0.039232204 -0.0271563 -1.3127994e-17)
(-0.034063069 -0.028171694 -9.2996126e-18)
(-0.029175294 -0.028550599 -6.9179615e-18)
(-0.024637829 -0.028368294 -2.5927022e-18)
(-0.020502706 -0.027706783 2.6645813e-18)
(-0.016805245 -0.026651495 -4.0126868e-19)
(-0.013564922 -0.0252885 -3.6227375e-18)
(-0.01078638 -0.023701873 -2.3063087e-18)
(-0.0084608745 -0.021971082 -2.2703303e-18)
(-0.0065679794 -0.020169239 2.9860722e-18)
(-0.0050767657 -0.018361947 -7.3880826e-19)
(-0.0039484705 -0.016604165 8.9324576e-20)
(-0.0031390442 -0.014941517 1.2124882e-18)
(-0.0026004444 -0.013409109 -1.2181858e-18)
(-0.002283414 -0.01203054 5.9998366e-19)
(-0.0021397561 -0.010819605 6.9929908e-19)
(-0.0021237456 -0.0097808339 -6.940181e-20)
(0.010570929 -0.26604843 3.6264339e-16)
(0.024205433 -0.26588737 4.8106089e-16)
(0.039243371 -0.2634885 4.0811117e-16)
(0.053073108 -0.2596002 2.3185795e-16)
(0.066730672 -0.25418312 5.0911682e-17)
(0.079804337 -0.24733635 4.43506e-17)
(0.092336704 -0.23910183 3.8917005e-17)
(0.1042952 -0.22945876 -1.9922805e-17)
(0.11555595 -0.21838945 -9.7796055e-19)
(0.12594077 -0.20592051 5.5179731e-17)
(0.13525722 -0.19214033 5.6663898e-17)
(0.14332887 -0.17719796 4.1769867e-17)
(0.15001546 -0.16129058 9.5590878e-19)
(0.15522316 -0.14464639 1.3738153e-17)
(0.15890726 -0.12750737 -7.7348369e-18)
(0.16106937 -0.11011412 1.4704367e-17)
(0.16175122 -0.092694168 1.7169037e-18)
(0.16102689 -0.075453604 2.3333323e-19)
(0.15899451 -0.058571829 -1.2697166e-17)
(0.15576817 -0.042198968 -2.420036e-17)
(0.15147058 -0.026455558 2.1862798e-17)
(0.14622641 -0.01143371 5.1529637e-17)
(0.14016374 0.0028004422 -2.8821423e-18)
(0.13339473 0.0162048 -3.725633e-17)
(0.126022 0.028755534 -2.3003136e-17)
(0.11814096 0.040443348 1.0710924e-17)
(0.10983244 0.051269301 3.8680677e-17)
(0.1011648 0.061241099 1.306062e-17)
(0.092194842 0.070369683 -2.117404e-17)
(0.082969208 0.078666217 -9.4595054e-18)
(0.073526253 0.086139653 3.0416464e-19)
(0.063898208 0.092794966 6.2192641e-18)
(0.054113733 0.098631874 -9.3267592e-18)
(0.04420051 0.10364416 -1.475974e-17)
(0.034187304 0.10781977 -1.3060121e-17)
(0.024107543 0.11114141 -3.4142525e-17)
(0.013999602 0.11358786 -3.062969e-17)
(0.0038862157 0.11513463 -1.9515577e-17)
(-0.0061692554 0.1157597 -1.8232092e-17)
(-0.016091842 0.11542927 -8.5640417e-18)
(-0.025816036 0.11412726 -5.510525e-18)
(-0.035258107 0.1118404 2.3024019e-18)
(-0.044325813 0.10856503 -3.1048675e-18)
(-0.052918203 0.10431058 -4.5515042e-17)
(-0.060927946 0.0991027 -5.5625037e-17)
(-0.068244408 0.092986051 -1.157137e-17)
(-0.074757554 0.086026496 2.0963001e-17)
(-0.08036263 0.078312478 2.3297328e-18)
(-0.084965424 0.069955212 -2.3581859e-17)
(-0.088487794 0.061087444 -2.9147555e-17)
(-0.090872912 0.051860613 7.9756949e-18)
(-0.092089403 0.042440423 2.3695909e-17)
(-0.092134302 0.033001241 -1.6949733e-19)
(-0.091035207 0.023719759 -1.8076365e-17)
(-0.08885076 0.014767851 -7.5052368e-19)
(-0.085669729 0.0063062702 1.9148742e-17)
(-0.081598335 -0.001523825 2.2932867e-17)
(-0.076765102 -0.0085989801 1.2947205e-17)
(-0.071331336 -0.014829972 -1.1254012e-17)
(-0.06545039 -0.020154122 -6.4639381e-18)
(-0.059280988 -0.024539171 1.6753523e-17)
(-0.052978049 -0.027981453 1.4667715e-17)
(-0.046687541 -0.030503805 -4.0313394e-18)
(-0.04054223 -0.032152418 -5.1169659e-18)
(-0.034658451 -0.032993045 -1.6459299e-19)
(-0.029133952 -0.033106933 6.6024246e-18)
(-0.024046517 -0.03258675 1.047657e-17)
(-0.019453329 -0.031532348 4.9960288e-18)
(-0.015391501 -0.030046744 1.1693412e-18)
(-0.01187942 -0.028233016 2.2569111e-18)
(-0.008917885 -0.026191222 -5.0383466e-19)
(-0.0064917696 -0.024015109 -1.3997671e-18)
(-0.004572914 -0.02178953 3.4499691e-18)
(-0.0031202467 -0.019592534 -2.8410566e-19)
(-0.0020839358 -0.017485143 -5.5904087e-19)
(-0.0014091216 -0.015519908 -1.674821e-18)
(-0.0010354515 -0.013735327 -2.1506678e-19)
(-0.00090191844 -0.012155417 2.150389e-19)
(-0.0009498975 -0.010792522 -5.911231e-20)
(-0.0011247107 -0.0096470353 -3.5870409e-20)
(0.012489237 -0.29950042 4.1060151e-16)
(0.028392747 -0.29894553 3.2616772e-16)
(0.045436486 -0.29538891 1.2712318e-16)
(0.060635036 -0.29027838 2.169161e-16)
(0.075449078 -0.28377768 1.233079e-16)
(0.089614355 -0.27600832 -5.1045821e-17)
(0.10331028 -0.26691105 -5.3312286e-18)
(0.11653346 -0.25633192 2.9753553e-19)
(0.1291175 -0.24414542 1.086305e-17)
(0.14080614 -0.2303176 2.0204444e-17)
(0.15132366 -0.21492413 -1.1484296e-17)
(0.16042341 -0.19813863 4.9765002e-19)
(0.1679161 -0.18020649 -4.7761975e-18)
(0.17368123 -0.16141529 -1.013004e-17)
(0.17766715 -0.14206823 2.8881246e-17)
(0.1798841 -0.12246289 1.9621685e-18)
(0.18039371 -0.10287595 -2.5677419e-17)
(0.17929727 -0.083553166 -2.403457e-17)
(0.17672419 -0.064703703 -2.5180634e-17)
(0.17282114 -0.046497872 4.0338302e-18)
(0.16774257 -0.029067712 1.2323178e-17)
(0.16164266 -0.012509388 3.0009669e-17)
(0.15467772 0.0031137929 9.9998875e-18)
(0.14697992 0.017766904 2.0496535e-17)
(0.13867015 0.031436989 3.2711697e-17)
(0.12985676 0.044127807 4.4948343e-17)
(0.12062903 0.055854308 5.0491325e-17)
(0.11105978 0.066638052 4.7427021e-17)
(0.10120672 0.076502903 4.612737e-17)
(0.091114429 0.085471325 4.5650424e-17)
(0.080816929 0.093561439 2.4941212e-17)
(0.070340476 0.10078491 2.1840657e-17)
(0.05970676 0.10714539 2.4334328e-17)
(0.048936166 0.11263794 2.4795648e-17)
(0.03805059 0.11724889 2.5744784e-17)
(0.027077836 0.12095651 8.6860907e-18)
(0.01605171 0.12373279 1.2292267e-17)
(0.004994242 0.12554568 2.3434938e-17)
(-0.0060395812 0.12636755 2.2812718e-17)
(-0.016967835 0.12614217 3.2091832e-17)
(-0.027717505 0.12484814 8.7640348e-18)
(-0.038198111 0.12245903 -5.7236147e-18)
(-0.048305425 0.11895935 -1.8477326e-17)
(-0.057922823 0.1143485 -2.2352574e-17)
(-0.066923942 0.10864481 -2.860704e-17)
(-0.075176195 0.10188924 -9.844197e-18)
(-0.082545431 0.0941487 1.4784598e-17)
(-0.088901708 0.085518232 2.620224e-18)
(-0.094126014 0.076121878 -8.9681098e-18)
(-0.098117509 0.066111621 4.5476958e-18)
(-0.10080062 0.055664223 1.5309127e-17)
(-0.10213078 0.044975851 -4.1293791e-18)
(-0.10209858 0.034254906 -1.7569074e-18)
(-0.10073251 0.023713914 -1.2364499e-17)
(-0.098099376 0.01355984 4.0982663e-18)
(-0.094305368 0.0039842473 3.60863e-17)
(-0.089476816 -0.0048301994 2.8898382e-17)
(-0.083773486 -0.012750196 3.6879415e-18)
(-0.07738681 -0.019665704 -1.1231871e-17)
(-0.070503828 -0.02550537 -9.0274436e-18)
(-0.063315359 -0.030235125 2.3364957e-17)
(-0.056006535 -0.033855959 2.2500164e-17)
(-0.048750452 -0.036400915 -2.794555e-19)
(-0.041703065 -0.03793082 -7.0343417e-18)
(-0.034999484 -0.038529341 -8.686615e-18)
(-0.028751649 -0.038297804 4.3869261e-18)
(-0.023046996 -0.037350194 1.6613109e-17)
(-0.017947914 -0.035807993 7.2055482e-18)
(-0.013492754 -0.033795338 -6.2234835e-18)
(-0.0096977899 -0.031435453 -8.5408379e-18)
(-0.0065585422 -0.028847139 4.3185402e-19)
(-0.0040509034 -0.026142175 -1.4703568e-18)
(-0.0021384555 -0.023415966 -1.7607561e-19)
(-0.00076662826 -0.020765034 -1.1117368e-18)
(0.00012869532 -0.018256716 -1.0121236e-18)
(0.00061430479 -0.015949296 -3.5608684e-18)
(0.00076681086 -0.013884093 -8.3019903e-19)
(0.00066151867 -0.012086411 4.98036e-19)
(0.00037028271 -0.010566677 1.8402067e-19)
(-4.3242601e-05 -0.0093215729 6.4072682e-19)
(0.015169801 -0.33929912 7.2656838e-16)
(0.033971323 -0.33756553 9.6219924e-16)
(0.053235798 -0.33173763 1.8907936e-16)
(0.069665789 -0.32453083 3.77817e-16)
(0.085412512 -0.31648595 2.7126259e-16)
(0.10052627 -0.30766272 6.8637741e-17)
(0.1153962 -0.29773907 2.6116158e-17)
(0.13003641 -0.28629059 4.1876156e-17)
(0.14418776 -0.27299727 1.3541243e-17)
(0.15745686 -0.25772605 5.5061446e-17)
(0.16943541 -0.24053653 6.4210812e-17)
(0.17977362 -0.22164402 5.0152599e-17)
(0.18821648 -0.20136756 6.2037672e-17)
(0.19461286 -0.18008018 3.0824072e-17)
(0.1989085 -0.15816887 7.3330069e-17)
(0.20113121 -0.13600587 7.8393878e-17)
(0.20137344 -0.11392984 7.3136586e-18)
(0.19977506 -0.09223468 1.1455902e-18)
(0.19650759 -0.071164094 -8.3235654e-18)
(0.19176018 -0.050910425 5.5757011e-17)
(0.18572774 -0.031616713 5.3729161e-17)
(0.17860152 -0.013380637 1.8567956e-17)
(0.17057232 0.0037411251 5.6708345e-17)
(0.1617951 0.019725452 3.9636234e-17)
(0.15241281 0.03457541 6.4398363e-17)
(0.14254803 0.048313014 1.3187891e-16)
(0.1322987 0.06097213 1.0093665e-16)
(0.12174127 0.072592809 8.8985799e-17)
(0.11093273 0.083215936 8.5026964e-17)
(0.099913324 0.092878708 8.8754155e-17)
(0.088710022 0.10161113 1.1073115e-16)
(0.077340111 0.10943344 6.9896489e-17)
(0.065815227 0.1163544 3.831899e-17)
(0.054145385 0.12237079 5.4926831e-17)
(0.042342436 0.12746721 8.0382916e-17)
(0.030425138 0.13161692 9.8399456e-17)
(0.018421152 0.13478332 8.6009904e-17)
(0.0063543833 0.13692457 7.4950332e-17)
(-0.005741042 0.13799849 1.0044748e-16)
(-0.017772547 0.13793681 9.5779513e-17)
(-0.029655427 0.13670065 3.1286599e-17)
(-0.041296953 0.13424739 -1.4264874e-17)
(-0.052578997 0.13054577 -2.498307e-17)
(-0.063366878 0.12558106 -1.8908699e-17)
(-0.073511816 0.11936024 -2.9346191e-17)
(-0.082854734 0.11191724 2.1053163e-18)
(-0.091231705 0.10331748 1.656415e-17)
(-0.098481029 0.093661501 3.3433641e-18)
(-0.10445178 0.083086785 -7.6937833e-18)
(-0.1090133 0.071767196 -3.4664909e-18)
(-0.11206483 0.059909553 1.0568528e-17)
(-0.11354355 0.047747175 -2.029044e-18)
(-0.11343036 0.035530746 1.8586094e-19)
(-0.11175443 0.023517692 -1.2143053e-17)
(-0.10859523 0.011959951 -4.7508745e-18)
(-0.10406982 0.0010886411 2.1010765e-17)
(-0.09833154 -0.0088716239 3.620317e-17)
(-0.091593621 -0.017762143 1.254651e-17)
(-0.084074214 -0.02545322 -7.5643269e-18)
(-0.076003364 -0.031863549 -7.5422317e-18)
(-0.06761208 -0.036958096 2.0836358e-17)
(-0.059122416 -0.040745028 3.1157695e-17)
(-0.05074003 -0.043271274 2.7590536e-18)
(-0.042648196 -0.044616739 -4.697665e-18)
(-0.035003652 -0.044887825 -8.1424712e-18)
(-0.02793422 -0.044210865 -4.7122768e-18)
(-0.021537657 -0.042725912 1.1021495e-17)
(-0.015881373 -0.04058051 7.8191607e-18)
(-0.011004006 -0.037924175 -8.892485e-19)
(-0.006918179 -0.034904039 -8.0961839e-18)
(-0.0036135284 -0.031660209 -3.9490394e-18)
(-0.0010513474 -0.028326098 -3.1350573e-18)
(0.00081194938 -0.025017091 1.7879128e-19)
(0.0020445232 -0.021836765 -1.3196144e-19)
(0.0027356823 -0.018867874 1.1393515e-19)
(0.0029666829 -0.016173242 -2.5387335e-18)
(0.0028300003 -0.013797169 -3.1062469e-18)
(0.002417398 -0.011766187 -1.143569e-18)
(0.0018163424 -0.010087777 6.4033892e-19)
(0.0011074016 -0.0087532986 4.8400111e-19)
(0.018606185 -0.38768866 6.7676071e-16)
(0.040753259 -0.38314136 9.6945052e-16)
(0.062230634 -0.37316503 6.4616308e-16)
(0.079611492 -0.36250626 4.5691624e-16)
(0.095994752 -0.35232745 4.9818339e-16)
(0.1119499 -0.34240976 1.7374491e-16)
(0.12813539 -0.33185924 3.7591937e-17)
(0.1445319 -0.31975206 -1.4866525e-16)
(0.16069572 -0.30544614 -6.7138699e-17)
(0.17600461 -0.28866483 -9.3620141e-17)
(0.18984897 -0.26946095 -1.9000606e-16)
(0.20173546 -0.24812756 -1.024756e-16)
(0.21132813 -0.22510087 -1.2383828e-16)
(0.21844816 -0.20087889 -1.5474175e-17)
(0.22305218 -0.17596358 -2.0792708e-17)
(0.22520345 -0.15082415 -4.7485491e-17)
(0.22504355 -0.12587605 -5.9668412e-17)
(0.22276787 -0.10147024 -8.2031235e-17)
(0.21860493 -0.077889339 -1.2566106e-17)
(0.21279907 -0.055348537 7.9373233e-17)
(0.20559642 -0.033999978 1.0216465e-16)
(0.19723427 -0.013939004 2.0835868e-17)
(0.18794539 0.0047894568 3.8641358e-17)
(0.17791047 0.022180729 4.5094213e-17)
(0.16729876 0.038260853 4.9499676e-17)
(0.15624811 0.053076724 1.1459153e-16)
(0.14486488 0.066687493 9.3460006e-17)
(0.13322779 0.079157518 7.2625032e-17)
(0.12139069 0.090549759 8.5539262e-17)
(0.10938644 0.10092033 6.7291692e-17)
(0.097231359 0.11031435 1.003346e-16)
(0.084929905 0.11876293 6.1075686e-17)
(0.072479798 0.12628132 7.5063003e-19)
(0.059876789 0.13286838 3.2516705e-17)
(0.047119051 0.13850664 5.5315011e-17)
(0.034212933 0.14316381 9.6114365e-17)
(0.021176746 0.14679319 9.1236602e-17)
(0.0080282896 0.14933861 5.6321215e-17)
(-0.0052121825 0.15073843 1.0909439e-16)
(-0.018442278 0.15091634 8.5110999e-17)
(-0.031578194 0.14980625 4.5748917e-18)
(-0.044517664 0.147345 -8.408493e-18)
(-0.057128461 0.1434805 8.1225183e-19)
(-0.069255768 0.13817838 -2.3576778e-17)
(-0.080724685 0.131429 -4.2787106e-17)
(-0.091344351 0.12325433 -1.9819352e-17)
(-0.10091417 0.11371455 1.1034952e-17)
(-0.10923241 0.10291352 2.7985699e-17)
(-0.11610698 0.091002189 -8.3957683e-18)
(-0.12136795 0.078179038 -4.0805063e-17)
(-0.12488059 0.06468657 -2.5414652e-17)
(-0.12655673 0.050803528 -1.1733664e-17)
(-0.12636299 0.036833179 -2.2318077e-17)
(-0.12432686 0.023089684 7.8317351e-18)
(-0.12054143 0.0098836215 4.5440102e-17)
(-0.11514488 -0.002500432 1.349105e-17)
(-0.10832356 -0.01379964 -3.7138999e-19)
(-0.10034388 -0.023810487 -8.1675289e-18)
(-0.091471009 -0.032382182 3.8313769e-18)
(-0.081986915 -0.039423268 3.0260279e-17)
(-0.07217186 -0.044899538 2.6324766e-17)
(-0.06229288 -0.048830022 1.6628116e-17)
(-0.052594621 -0.051280601 2.2477397e-18)
(-0.043292371 -0.052356101 6.6458201e-18)
(-0.034567544 -0.05219182 4.763304e-18)
(-0.02656541 -0.050945241 1.7938476e-18)
(-0.019394401 -0.048788284 1.2235935e-17)
(-0.013126463 -0.045899697 1.8794603e-17)
(-0.007799137 -0.042459217 2.5192133e-18)
(-0.0034188618 -0.038641829 -5.9959437e-18)
(3.2161851e-05 -0.034616569 -2.8636057e-19)
(0.0026002594 -0.030538674 2.2961156e-18)
(0.0043572953 -0.026547771 1.0451986e-17)
(0.0053887646 -0.022751664 1.5751885e-18)
(0.0057966427 -0.01925153 -2.916784e-18)
(0.0056880888 -0.01611874 -4.8321384e-19)
(0.0051759711 -0.013401258 -5.7103329e-19)
(0.0043723468 -0.011124372 1.3693928e-18)
(0.0033841271 -0.0092907477 7.3503098e-19)
(0.0023089816 -0.0078825905 -9.3446121e-19)
(0.021882188 -0.44618443 7.8882586e-16)
(0.046795768 -0.43629563 7.7117258e-16)
(0.069974546 -0.41975693 8.8436198e-16)
(0.088064224 -0.40400897 4.130942e-16)
(0.10505019 -0.39116952 3.488294e-16)
(0.12214066 -0.38038256 1.9444212e-16)
(0.14024824 -0.36969635 3.3312453e-16)
(0.15920495 -0.35735569 2.0918536e-16)
(0.17824501 -0.34223374 1.1408918e-16)
(0.19639851 -0.32387415 2.188513e-16)
(0.21277489 -0.3023606 1.3096177e-16)
(0.22669665 -0.27813255 -2.6336514e-18)
(0.23773951 -0.25181477 -3.1734389e-17)
(0.24571349 -0.22408944 -3.4989445e-17)
(0.25061615 -0.19561556 1.9619084e-17)
(0.2525802 -0.16698597 -6.8462329e-17)
(0.25182807 -0.13870803 3.3134977e-17)
(0.2486372 -0.11119716 -7.0195403e-17)
(0.24331431 -0.08477719 -1.2945567e-16)
(0.23617561 -0.059684923 -9.5022991e-17)
(0.22753133 -0.036077797 -2.3014057e-17)
(0.21767495 -0.014042831 1.4236997e-17)
(0.20688994 0.0063946362 -1.0340812e-17)
(0.19538633 0.025256526 2.9504027e-17)
(0.18336371 0.042601113 2.337433e-17)
(0.17097572 0.058508681 4.398246e-17)
(0.1583363 0.073071674 9.7119429e-17)
(0.14552421 0.086385981 9.0277756e-17)
(0.13258684 0.098542823 9.9027961e-17)
(0.11954548 0.10962226 5.7680071e-17)
(0.10640115 0.11968834 7.5045799e-17)
(0.093140589 0.12878569 9.0266104e-17)
(0.07974257 0.13693763 3.9640684e-17)
(0.06618385 0.1441455 6.1446833e-17)
(0.052444715 0.15038942 7.0661976e-17)
(0.038514558 0.15562985 6.7610355e-17)
(0.024396878 0.15980778 8.6750628e-17)
(0.0101022 0.16285031 7.7194578e-17)
(-0.0043663289 0.16467779 1.1667386e-16)
(-0.018898559 0.16519028 1.124449e-16)
(-0.033414984 0.16429713 5.7870379e-17)
(-0.047803982 0.16190742 3.6431834e-17)
(-0.06191835 0.15794142 1.6719607e-17)
(-0.07558102 0.152338 -3.5986851e-17)
(-0.088586964 0.14506365 -3.2677077e-17)
(-0.10070744 0.13612165 -2.4460711e-18)
(-0.11169688 0.12556121 1.574303e-17)
(-0.12130308 0.11348572 -2.0844754e-18)
(-0.1292808 0.10005862 -9.5218056e-18)
(-0.13540817 0.085505599 -9.4320195e-18)
(-0.13950449 0.070111447 -1.0489504e-17)
(-0.14144659 0.05421065 -3.7153524e-18)
(-0.14118002 0.038172487 -3.3526177e-17)
(-0.13872675 0.022382724 1.4101561e-17)
(-0.13419759 0.0072243516 2.6588537e-17)
(-0.12775502 -0.006943271 -2.7244283e-17)
(-0.11963354 -0.019805384 -2.4839235e-17)
(-0.11015972 -0.031111941 -2.289462e-17)
(-0.0996638 -0.040684672 3.0324372e-18)
(-0.088492442 -0.048420816 3.0891727e-17)
(-0.076987229 -0.054289846 9.7213829e-19)
(-0.065470147 -0.058327018 -1.5213959e-17)
(-0.054232411 -0.06062413 -1.9516832e-17)
(-0.04352654 -0.06131867 -2.0242384e-18)
(-0.033561725 -0.060582694 2.1339146e-17)
(-0.024501985 -0.058612374 3.2780644e-18)
(-0.016466145 -0.055618454 -1.2552228e-17)
(-0.0095295722 -0.051817183 1.0656944e-17)
(-0.0037268428 -0.047424348 7.1342243e-18)
(0.00093959736 -0.04265016 9.3523118e-18)
(0.0045005983 -0.037697646 5.1877277e-18)
(0.007027612 -0.032739987 -5.4804123e-18)
(0.0086065686 -0.027939465 9.5978332e-18)
(0.0093464592 -0.023429827 1.8531642e-18)
(0.0093727532 -0.019321986 2.0267372e-18)
(0.0088196645 -0.015696958 4.7147106e-18)
(0.0078259276 -0.012606687 -1.095222e-18)
(0.0065286967 -0.010074459 2.5575506e-18)
(0.0050584149 -0.0080963181 2.6576287e-18)
(0.0035334833 -0.0066431979 1.9998777e-19)
(0.022555403 -0.51205563 1.0043923e-15)
(0.047261278 -0.49455528 1.5509356e-15)
(0.070678003 -0.46994541 1.2348302e-15)
(0.08962896 -0.44819927 7.2406598e-16)
(0.10806957 -0.43279835 3.16609e-16)
(0.12761952 -0.42194474 8.6647525e-17)
(0.14924271 -0.41206353 3.3653129e-17)
(0.17241883 -0.40018062 2.5514143e-16)
(0.19589876 -0.38452494 1.0343394e-16)
(0.21825289 -0.36446205 4.680669e-17)
(0.23824601 -0.34019135 2.426707e-16)
(0.254988 -0.31241266 8.1989993e-17)
(0.26796878 -0.28204922 1.1448098e-16)
(0.27701741 -0.25005431 6.1260863e-17)
(0.28222231 -0.21730166 3.0507172e-17)
(0.28384351 -0.18453913 7.5340024e-17)
(0.28223875 -0.15237878 -1.0150409e-17)
(0.27781183 -0.12130253 -1.4576105e-17)
(0.27098029 -0.091672121 -1.1435702e-17)
(0.26215514 -0.063740125 2.9570342e-17)
(0.25172699 -0.037662166 8.1682496e-17)
(0.24005816 -0.013508423 3.91305e-17)
(0.22749094 0.0087280281 4.1405521e-18)
(0.21426865 0.02910501 7.7494194e-18)
(0.20062528 0.047724799 -2.0410784e-17)
(0.18672988 0.064711998 -3.7806023e-17)
(0.17270223 0.080202407 -3.4826649e-17)
(0.15861766 0.094332339 -1.796671e-17)
(0.14451243 0.10722877 -1.3047105e-18)
(0.13039069 0.11900168 -2.9645784e-19)
(0.11623215 0.12973848 -2.4898016e-17)
(0.10199965 0.13950029 -2.03096e-17)
(0.087646909 0.1483201 -1.6025151e-17)
(0.073125874 0.15620239 9.1501133e-18)
(0.058393286 0.1631241 2.8539853e-18)
(0.04341627 0.16903627 -5.9374582e-17)
(0.028179514 0.17386605 -3.423754e-17)
(0.01268215 0.17752184 1.0632006e-17)
(-0.0030958183 0.179899 1.5829385e-17)
(-0.01903707 0.18087056 4.9221255e-17)
(-0.035069306 0.18031513 5.7139708e-17)
(-0.051074443 0.17810688 5.4823657e-17)
(-0.066889877 0.17413044 4.2197606e-17)
(-0.082314599 0.16828897 -2.7023934e-17)
(-0.097109394 0.16051547 -8.246437e-17)
(-0.11100082 0.15078514 -5.3080983e-17)
(-0.12368843 0.13912783 2.2536564e-17)
(-0.1348566 0.1256402 2.412499e-17)
(-0.14419131 0.11049543 -1.0468198e-17)
(-0.15140178 0.093948436 -4.8078968e-17)
(-0.15624482 0.076333901 -3.4687019e-17)
(-0.15854817 0.058055145 -1.6703743e-17)
(-0.15822757 0.039564827 -2.9857351e-17)
(-0.15529665 0.021339723 4.8779908e-18)
(-0.14988116 0.003850489 5.4772326e-17)
(-0.14217151 -0.012423967 -7.0232168e-18)
(-0.13247888 -0.027122546 -3.2291199e-17)
(-0.12120016 -0.039934023 -1.7166886e-17)
(-0.10874927 -0.050645836 -5.9533964e-18)
(-0.095555872 -0.059144088 3.3060582e-17)
(-0.082038406 -0.065406848 -8.8808401e-18)
(-0.068586017 -0.069493553 -2.7748499e-17)
(-0.055545255 -0.071531555 -2.8545842e-17)
(-0.04321144 -0.071701281 -4.1667096e-18)
(-0.03182441 -0.07022174 2.3442159e-17)
(-0.021567704 -0.067337147 -9.7952619e-18)
(-0.012569657 -0.063305329 -8.2631381e-18)
(-0.0049069972 -0.058388077 1.3024392e-18)
(0.0013881662 -0.052842413 3.1505474e-18)
(0.0063227756 -0.046925511 8.07791e-18)
(0.0099558159 -0.040860873 -6.8125184e-18)
(0.012369112 -0.034861676 -4.6271239e-18)
(0.01367539 -0.029114782 1.1474515e-17)
(0.014011664 -0.023776907 2.1569018e-18)
(0.013532958 -0.018973907 -4.0774029e-18)
(0.012405207 -0.014797207 -2.7034942e-19)
(0.010799054 -0.011302812 3.8567242e-18)
(0.0088826033 -0.0085111416 3.3738701e-18)
(0.0068149372 -0.0064090913 1.4705565e-18)
(0.0047395495 -0.0049524214 -2.7936637e-18)
(0.017167151 -0.57350128 8.7919849e-16)
(0.035247621 -0.54890029 8.2859942e-16)
(0.055872402 -0.51865629 7.6791202e-16)
(0.076423374 -0.49304148 5.1993604e-17)
(0.098626466 -0.4770103 7.6467523e-17)
(0.12356323 -0.46796306 -5.4088114e-16)
(0.15169273 -0.46043849 -2.3281763e-16)
(0.18183977 -0.44996548 -2.4480182e-16)
(0.21214723 -0.43407667 -3.5622261e-16)
(0.24069626 -0.4120467 -1.9872093e-16)
(0.26590851 -0.38433193 -1.4215383e-16)
(0.28667699 -0.35204892 -9.4450584e-17)
(0.30240231 -0.31656945 -1.0589264e-16)
(0.31295042 -0.27924252 -3.6592463e-17)
(0.31855151 -0.24124219 -6.8545413e-17)
(0.31967036 -0.20351525 -1.6908367e-17)
(0.31688558 -0.16678944 -5.2398091e-17)
(0.31080279 -0.1316049 -6.5250025e-17)
(0.30200647 -0.098345918 -1.52973e-17)
(0.29103897 -0.067264945 3.6335062e-17)
(0.27839365 -0.038501226 -4.2924047e-18)
(0.26451965 -0.012094237 -1.9135356e-17)
(0.2498234 0.012006889 -2.9265052e-17)
(0.23458569 0.033913086 -8.6677017e-17)
(0.2190788 0.053785 -7.3020681e-17)
(0.20348571 0.071804605 -1.1474561e-16)
(0.18792862 0.088163478 -1.5976046e-16)
(0.17247432 0.10304918 -1.2466193e-16)
(0.15714138 0.11663341 -1.288184e-16)
(0.14190946 0.12906304 -1.0903287e-16)
(0.1267292 0.14045389 -1.7693611e-16)
(0.11153181 0.15088682 -1.8915068e-16)
(0.096238539 0.16040616 -1.3799863e-16)
(0.080769384 0.16901982 -1.4025614e-16)
(0.065050628 0.17670059 -1.370425e-16)
(0.049021781 0.18338845 -2.0704985e-16)
(0.032643275 0.1889944 -1.7590842e-16)
(0.015896445 0.19340422 -8.3387052e-17)
(-0.0012655012 0.19648047 -7.6473613e-17)
(-0.018722486 0.19807064 7.6154635e-19)
(-0.036412739 0.19801069 4.639596e-17)
(-0.054215678 0.19613254 5.0511501e-17)
(-0.071953976 0.19227567 3.7745357e-17)
(-0.089402045 0.18629631 -9.1389742e-18)
(-0.10628287 0.17808155 -5.4224728e-17)
(-0.12227103 0.16756558 -2.6649652e-17)
(-0.13699975 0.15474674 2.3662209e-17)
(-0.15007393 0.13970506 2.4289248e-17)
(-0.16109061 0.12261784 -1.4754128e-17)
(-0.16966711 0.10376982 -3.1631235e-17)
(-0.17547489 0.083554005 -9.7274097e-18)
(-0.17827318 0.062459284 -4.4273988e-17)
(-0.17793446 0.041044856 -1.7404444e-17)
(-0.1744625 0.019907456 -7.5583962e-18)
(-0.16797839 -0.00036130873 2.4782475e-17)
(-0.15872162 -0.019166851 2.2418799e-17)
(-0.14712419 -0.036043062 -1.6913619e-18)
(-0.13365202 -0.050610213 -1.1475583e-17)
(-0.11883399 -0.062618276 -1.0151865e-17)
(-0.10320738 -0.071945216 1.1583498e-17)
(-0.087287147 -0.078586166 1.2009004e-17)
(-0.071544272 -0.082636586 5.0918009e-18)
(-0.05639049 -0.084272801 -1.6887011e-17)
(-0.042169626 -0.083731903 -3.1583879e-18)
(-0.029154266 -0.081292995 2.596984e-18)
(-0.017546945 -0.077259574 -1.5286898e-17)
(-0.0074837085 -0.071946208 9.720508e-18)
(0.0009615434 -0.065664269 3.8937773e-18)
(0.0077563195 -0.058733553 -5.4335608e-18)
(0.012939216 -0.051438761 -1.0428237e-17)
(0.01657896 -0.044053748 -4.9449266e-18)
(0.018784625 -0.036825653 -6.2473463e-18)
(0.019699006 -0.029971293 -2.6790159e-18)
(0.019492234 -0.023672944 2.4431918e-18)
(0.018355211 -0.018074971 -1.0563235e-18)
(0.01649186 -0.013280648 -5.1913856e-18)
(0.014111705 -0.0093503109 -5.9644319e-19)